Generated with MDTraj, t= 0.0
 46
    1UNL     C1    1  -0.163   0.163   0.230
    1UNL     C2    2  -0.099   0.036   0.176
    1UNL     C3    3  -0.136   0.002   0.029
    1UNL     C4    4  -0.287  -0.038   0.024
    1UNL     C5    5  -0.336  -0.087  -0.114
    1UNL     C6    6  -0.251  -0.203  -0.165
    1UNL     N1    7  -0.110  -0.169  -0.147
    1UNL     C7    8  -0.019  -0.168  -0.251
    1UNL     O1    9  -0.042  -0.198  -0.367
    1UNL     C8   10   0.105  -0.122  -0.192
    1UNL     C9   11   0.092  -0.098  -0.060
    1UNL    C10   12   0.201  -0.049   0.025
    1UNL    C11   13   0.238  -0.114   0.142
    1UNL    C12   14   0.348  -0.074   0.215
    1UNL    C13   15   0.424   0.033   0.171
    1UNL    C14   16   0.391   0.099   0.056
    1UNL    C15   17   0.279   0.061  -0.018
    1UNL     N2   18   0.240   0.136  -0.133
    1UNL    C16   19   0.116   0.194  -0.158
    1UNL     O2   20   0.087   0.239  -0.267
    1UNL    C17   21   0.018   0.204  -0.045
    1UNL    C18   22  -0.111   0.122  -0.067
    1UNL    C19   23  -0.053  -0.125  -0.018
    1UNL     O3   24  -0.064  -0.232   0.077
    1UNL     H1   25  -0.133   0.183   0.333
    1UNL     H2   26  -0.272   0.156   0.230
    1UNL     H3   27  -0.137   0.251   0.171
    1UNL     H4   28  -0.128  -0.048   0.239
    1UNL     H5   29   0.010   0.042   0.185
    1UNL     H6   30  -0.348   0.046   0.058
    1UNL     H7   31  -0.303  -0.118   0.097
    1UNL     H8   32  -0.442  -0.116  -0.109
    1UNL     H9   33  -0.332  -0.004  -0.186
    1UNL    H10   34  -0.269  -0.224  -0.271
    1UNL    H11   35  -0.271  -0.295  -0.109
    1UNL    H12   36   0.196  -0.108  -0.249
    1UNL    H13   37   0.183  -0.202   0.173
    1UNL    H14   38   0.375  -0.126   0.305
    1UNL    H15   39   0.511   0.064   0.228
    1UNL    H16   40   0.449   0.183   0.022
    1UNL    H17   41   0.309   0.149  -0.207
    1UNL    H18   42  -0.006   0.311  -0.033
    1UNL    H19   43   0.068   0.176   0.048
    1UNL    H20   44  -0.198   0.189  -0.060
    1UNL    H21   45  -0.112   0.086  -0.170
    1UNL    H22   46  -0.017  -0.209   0.159
   0.00000   0.00000   0.00000   0.00000   0.00000   0.00000   0.00000   0.00000   0.00000
Generated with MDTraj, t= 1.0
 46
    1UNL     C1    1  -0.149   0.148   0.240
    1UNL     C2    2  -0.078   0.029   0.182
    1UNL     C3    3  -0.126   0.002   0.035
    1UNL     C4    4  -0.277  -0.031   0.040
    1UNL     C5    5  -0.338  -0.083  -0.094
    1UNL     C6    6  -0.246  -0.176  -0.172
    1UNL     N1    7  -0.109  -0.142  -0.159
    1UNL     C7    8  -0.016  -0.155  -0.256
    1UNL     O1    9  -0.039  -0.194  -0.369
    1UNL     C8   10   0.111  -0.123  -0.190
    1UNL     C9   11   0.100  -0.113  -0.056
    1UNL    C10   12   0.203  -0.053   0.036
    1UNL    C11   13   0.227  -0.106   0.162
    1UNL    C12   14   0.339  -0.060   0.227
    1UNL    C13   15   0.409   0.051   0.181
    1UNL    C14   16   0.383   0.108   0.056
    1UNL    C15   17   0.272   0.064  -0.014
    1UNL     N2   18   0.232   0.127  -0.137
    1UNL    C16   19   0.112   0.177  -0.170
    1UNL     O2   20   0.078   0.204  -0.281
    1UNL    C17   21   0.021   0.212  -0.055
    1UNL    C18   22  -0.112   0.125  -0.063
    1UNL    C19   23  -0.052  -0.132  -0.024
    1UNL     O3   24  -0.076  -0.252   0.042
    1UNL     H1   25  -0.131   0.183   0.346
    1UNL     H2   26  -0.250   0.131   0.239
    1UNL     H3   27  -0.137   0.237   0.177
    1UNL     H4   28  -0.093  -0.053   0.254
    1UNL     H5   29   0.028   0.034   0.168
    1UNL     H6   30  -0.315   0.062   0.071
    1UNL     H7   31  -0.297  -0.101   0.124
    1UNL     H8   32  -0.436  -0.130  -0.084
    1UNL     H9   33  -0.352   0.004  -0.158
    1UNL    H10   34  -0.280  -0.194  -0.278
    1UNL    H11   35  -0.246  -0.273  -0.130
    1UNL    H12   36   0.206  -0.107  -0.251
    1UNL    H13   37   0.199  -0.212   0.172
    1UNL    H14   38   0.359  -0.093   0.328
    1UNL    H15   39   0.490   0.086   0.234
    1UNL    H16   40   0.463   0.169   0.011
    1UNL    H17   41   0.297   0.108  -0.220
    1UNL    H18   42   0.003   0.318  -0.060
    1UNL    H19   43   0.074   0.202   0.042
    1UNL    H20   44  -0.201   0.187  -0.043
    1UNL    H21   45  -0.130   0.086  -0.160
    1UNL    H22   46  -0.052  -0.245   0.137
   0.00000   0.00000   0.00000   0.00000   0.00000   0.00000   0.00000   0.00000   0.00000
Generated with MDTraj, t= 2.0
 46
    1UNL     C1    1  -0.131   0.142   0.254
    1UNL     C2    2  -0.081   0.019   0.179
    1UNL     C3    3  -0.132   0.000   0.035
    1UNL     C4    4  -0.282  -0.035   0.035
    1UNL     C5    5  -0.339  -0.075  -0.104
    1UNL     C6    6  -0.249  -0.167  -0.187
    1UNL     N1    7  -0.107  -0.163  -0.150
    1UNL     C7    8  -0.013  -0.171  -0.253
    1UNL     O1    9  -0.044  -0.196  -0.368
    1UNL     C8   10   0.116  -0.126  -0.200
    1UNL     C9   11   0.100  -0.092  -0.069
    1UNL    C10   12   0.205  -0.050   0.020
    1UNL    C11   13   0.233  -0.118   0.143
    1UNL    C12   14   0.315  -0.051   0.233
    1UNL    C13   15   0.396   0.048   0.187
    1UNL    C14   16   0.374   0.110   0.065
    1UNL    C15   17   0.278   0.059  -0.020
    1UNL     N2   18   0.239   0.130  -0.139
    1UNL    C16   19   0.105   0.175  -0.168
    1UNL     O2   20   0.071   0.189  -0.284
    1UNL    C17   21   0.026   0.211  -0.048
    1UNL    C18   22  -0.111   0.130  -0.057
    1UNL    C19   23  -0.048  -0.120  -0.023
    1UNL     O3   24  -0.047  -0.225   0.073
    1UNL     H1   25  -0.088   0.163   0.357
    1UNL     H2   26  -0.232   0.126   0.261
    1UNL     H3   27  -0.120   0.232   0.194
    1UNL     H4   28  -0.116  -0.074   0.229
    1UNL     H5   29   0.023   0.020   0.192
    1UNL     H6   30  -0.343   0.041   0.073
    1UNL     H7   31  -0.279  -0.123   0.107
    1UNL     H8   32  -0.436  -0.122  -0.082
    1UNL     H9   33  -0.358   0.012  -0.168
    1UNL    H10   34  -0.247  -0.154  -0.301
    1UNL    H11   35  -0.288  -0.263  -0.180
    1UNL    H12   36   0.205  -0.134  -0.248
    1UNL    H13   37   0.177  -0.206   0.168
    1UNL    H14   38   0.337  -0.087   0.332
    1UNL    H15   39   0.460   0.114   0.259
    1UNL    H16   40   0.440   0.184   0.030
    1UNL    H17   41   0.313   0.134  -0.218
    1UNL    H18   42   0.007   0.317  -0.049
    1UNL    H19   43   0.085   0.185   0.042
    1UNL    H20   44  -0.186   0.210  -0.034
    1UNL    H21   45  -0.138   0.115  -0.158
    1UNL    H22   46  -0.131  -0.266   0.062
   0.00000   0.00000   0.00000   0.00000   0.00000   0.00000   0.00000   0.00000   0.00000
Generated with MDTraj, t= 3.0
 46
    1UNL     C1    1  -0.152   0.151   0.240
    1UNL     C2    2  -0.091   0.028   0.175
    1UNL     C3    3  -0.126   0.003   0.026
    1UNL     C4    4  -0.275  -0.033   0.034
    1UNL     C5    5  -0.335  -0.083  -0.104
    1UNL     C6    6  -0.256  -0.209  -0.157
    1UNL     N1    7  -0.113  -0.170  -0.143
    1UNL     C7    8  -0.022  -0.175  -0.256
    1UNL     O1    9  -0.052  -0.204  -0.371
    1UNL     C8   10   0.103  -0.121  -0.204
    1UNL     C9   11   0.092  -0.098  -0.070
    1UNL    C10   12   0.197  -0.044   0.015
    1UNL    C11   13   0.226  -0.111   0.136
    1UNL    C12   14   0.322  -0.066   0.221
    1UNL    C13   15   0.403   0.042   0.193
    1UNL    C14   16   0.389   0.094   0.063
    1UNL    C15   17   0.284   0.065  -0.021
    1UNL     N2   18   0.249   0.144  -0.131
    1UNL    C16   19   0.125   0.194  -0.164
    1UNL     O2   20   0.088   0.229  -0.274
    1UNL    C17   21   0.022   0.208  -0.050
    1UNL    C18   22  -0.111   0.130  -0.065
    1UNL    C19   23  -0.052  -0.125  -0.024
    1UNL     O3   24  -0.056  -0.229   0.075
    1UNL     H1   25  -0.096   0.183   0.329
    1UNL     H2   26  -0.260   0.134   0.262
    1UNL     H3   27  -0.147   0.233   0.171
    1UNL     H4   28  -0.119  -0.060   0.238
    1UNL     H5   29   0.013   0.028   0.187
    1UNL     H6   30  -0.326   0.048   0.073
    1UNL     H7   31  -0.272  -0.119   0.111
    1UNL     H8   32  -0.443  -0.104  -0.109
    1UNL     H9   33  -0.311  -0.000  -0.172
    1UNL    H10   34  -0.280  -0.236  -0.263
    1UNL    H11   35  -0.273  -0.300  -0.108
    1UNL    H12   36   0.195  -0.097  -0.263
    1UNL    H13   37   0.160  -0.187   0.177
    1UNL    H14   38   0.326  -0.110   0.321
    1UNL    H15   39   0.481   0.068   0.252
    1UNL    H16   40   0.434   0.197   0.052
    1UNL    H17   41   0.319   0.159  -0.205
    1UNL    H18   42   0.005   0.314  -0.044
    1UNL    H19   43   0.070   0.170   0.042
    1UNL    H20   44  -0.198   0.199  -0.049
    1UNL    H21   45  -0.121   0.105  -0.165
    1UNL    H22   46   0.012  -0.296   0.064
   0.00000   0.00000   0.00000   0.00000   0.00000   0.00000   0.00000   0.00000   0.00000
Generated with MDTraj, t= 4.0
 46
    1UNL     C1    1  -0.172   0.162   0.217
    1UNL     C2    2  -0.101   0.042   0.170
    1UNL     C3    3  -0.135  -0.003   0.022
    1UNL     C4    4  -0.291  -0.039   0.023
    1UNL     C5    5  -0.329  -0.096  -0.109
    1UNL     C6    6  -0.251  -0.218  -0.140
    1UNL     N1    7  -0.113  -0.189  -0.144
    1UNL     C7    8  -0.022  -0.172  -0.254
    1UNL     O1    9  -0.047  -0.192  -0.374
    1UNL     C8   10   0.100  -0.113  -0.193
    1UNL     C9   11   0.092  -0.103  -0.059
    1UNL    C10   12   0.195  -0.045   0.029
    1UNL    C11   13   0.231  -0.108   0.148
    1UNL    C12   14   0.349  -0.081   0.210
    1UNL    C13   15   0.428   0.024   0.163
    1UNL    C14   16   0.395   0.090   0.050
    1UNL    C15   17   0.275   0.061  -0.014
    1UNL     N2   18   0.239   0.137  -0.136
    1UNL    C16   19   0.126   0.214  -0.157
    1UNL     O2   20   0.111   0.283  -0.257
    1UNL    C17   21   0.012   0.206  -0.057
    1UNL    C18   22  -0.105   0.116  -0.073
    1UNL    C19   23  -0.050  -0.136  -0.011
    1UNL     O3   24  -0.062  -0.234   0.093
    1UNL     H1   25  -0.153   0.186   0.320
    1UNL     H2   26  -0.287   0.155   0.195
    1UNL     H3   27  -0.138   0.247   0.162
    1UNL     H4   28  -0.126  -0.041   0.240
    1UNL     H5   29   0.005   0.044   0.178
    1UNL     H6   30  -0.332   0.057   0.040
    1UNL     H7   31  -0.323  -0.112   0.104
    1UNL     H8   32  -0.437  -0.122  -0.103
    1UNL     H9   33  -0.306  -0.035  -0.198
    1UNL    H10   34  -0.277  -0.269  -0.231
    1UNL    H11   35  -0.271  -0.292  -0.063
    1UNL    H12   36   0.188  -0.084  -0.251
    1UNL    H13   37   0.161  -0.182   0.182
    1UNL    H14   38   0.373  -0.136   0.298
    1UNL    H15   39   0.530   0.038   0.211
    1UNL    H16   40   0.442   0.179   0.029
    1UNL    H17   41   0.307   0.159  -0.202
    1UNL    H18   42  -0.030   0.306  -0.063
    1UNL    H19   43   0.067   0.184   0.037
    1UNL    H20   44  -0.202   0.172  -0.088
    1UNL    H21   45  -0.085   0.074  -0.167
    1UNL    H22   46  -0.162  -0.241   0.117
   0.00000   0.00000   0.00000   0.00000   0.00000   0.00000   0.00000   0.00000   0.00000
Generated with MDTraj, t= 5.0
 46
    1UNL     C1    1  -0.192   0.175   0.212
    1UNL     C2    2  -0.122   0.044   0.170
    1UNL     C3    3  -0.147   0.001   0.025
    1UNL     C4    4  -0.302  -0.033   0.005
    1UNL     C5    5  -0.332  -0.091  -0.133
    1UNL     C6    6  -0.248  -0.227  -0.149
    1UNL     N1    7  -0.110  -0.186  -0.135
    1UNL     C7    8  -0.030  -0.180  -0.247
    1UNL     O1    9  -0.052  -0.214  -0.363
    1UNL     C8   10   0.095  -0.121  -0.201
    1UNL     C9   11   0.092  -0.089  -0.069
    1UNL    C10   12   0.213  -0.054   0.018
    1UNL    C11   13   0.245  -0.110   0.146
    1UNL    C12   14   0.362  -0.081   0.212
    1UNL    C13   15   0.450   0.007   0.150
    1UNL    C14   16   0.402   0.096   0.051
    1UNL    C15   17   0.286   0.061  -0.026
    1UNL     N2   18   0.244   0.140  -0.131
    1UNL    C16   19   0.120   0.205  -0.142
    1UNL     O2   20   0.092   0.278  -0.236
    1UNL    C17   21   0.015   0.192  -0.029
    1UNL    C18   22  -0.106   0.121  -0.069
    1UNL    C19   23  -0.056  -0.121  -0.017
    1UNL     O3   24  -0.052  -0.200   0.097
    1UNL     H1   25  -0.161   0.215   0.307
    1UNL     H2   26  -0.307   0.172   0.192
    1UNL     H3   27  -0.158   0.251   0.140
    1UNL     H4   28  -0.150  -0.041   0.236
    1UNL     H5   29  -0.017   0.057   0.187
    1UNL     H6   30  -0.363   0.056   0.013
    1UNL     H7   31  -0.328  -0.100   0.090
    1UNL     H8   32  -0.436  -0.111  -0.166
    1UNL     H9   33  -0.297  -0.012  -0.202
    1UNL    H10   34  -0.278  -0.286  -0.230
    1UNL    H11   35  -0.264  -0.293  -0.061
    1UNL    H12   36   0.185  -0.119  -0.249
    1UNL    H13   37   0.176  -0.183   0.184
    1UNL    H14   38   0.402  -0.146   0.293
    1UNL    H15   39   0.532   0.027   0.214
    1UNL    H16   40   0.479   0.161  -0.002
    1UNL    H17   41   0.312   0.166  -0.196
    1UNL    H18   42  -0.005   0.292   0.007
    1UNL    H19   43   0.062   0.122   0.043
    1UNL    H20   44  -0.185   0.202  -0.079
    1UNL    H21   45  -0.100   0.090  -0.169
    1UNL    H22   46   0.012  -0.278   0.078
   0.00000   0.00000   0.00000   0.00000   0.00000   0.00000   0.00000   0.00000   0.00000
Generated with MDTraj, t= 6.0
 46
    1UNL     C1    1  -0.214   0.143   0.244
    1UNL     C2    2  -0.123   0.035   0.181
    1UNL     C3    3  -0.142   0.011   0.027
    1UNL     C4    4  -0.291  -0.028  -0.004
    1UNL     C5    5  -0.330  -0.087  -0.134
    1UNL     C6    6  -0.250  -0.218  -0.158
    1UNL     N1    7  -0.116  -0.178  -0.138
    1UNL     C7    8  -0.022  -0.185  -0.242
    1UNL     O1    9  -0.037  -0.237  -0.353
    1UNL     C8   10   0.101  -0.124  -0.192
    1UNL     C9   11   0.088  -0.083  -0.063
    1UNL    C10   12   0.199  -0.040   0.022
    1UNL    C11   13   0.227  -0.097   0.146
    1UNL    C12   14   0.358  -0.092   0.196
    1UNL    C13   15   0.448   0.004   0.143
    1UNL    C14   16   0.413   0.082   0.042
    1UNL    C15   17   0.286   0.065  -0.020
    1UNL     N2   18   0.245   0.145  -0.136
    1UNL    C16   19   0.124   0.216  -0.149
    1UNL     O2   20   0.094   0.266  -0.254
    1UNL    C17   21   0.029   0.209  -0.034
    1UNL    C18   22  -0.106   0.133  -0.068
    1UNL    C19   23  -0.056  -0.117  -0.014
    1UNL     O3   24  -0.055  -0.200   0.103
    1UNL     H1   25  -0.199   0.171   0.349
    1UNL     H2   26  -0.318   0.116   0.219
    1UNL     H3   27  -0.203   0.242   0.186
    1UNL     H4   28  -0.154  -0.063   0.223
    1UNL     H5   29  -0.018   0.048   0.208
    1UNL     H6   30  -0.360   0.057   0.014
    1UNL     H7   31  -0.314  -0.104   0.074
    1UNL     H8   32  -0.440  -0.104  -0.126
    1UNL     H9   33  -0.315  -0.024  -0.224
    1UNL    H10   34  -0.250  -0.261  -0.254
    1UNL    H11   35  -0.281  -0.297  -0.085
    1UNL    H12   36   0.192  -0.109  -0.259
    1UNL    H13   37   0.172  -0.185   0.173
    1UNL    H14   38   0.387  -0.153   0.277
    1UNL    H15   39   0.554   0.017   0.173
    1UNL    H16   40   0.481   0.153   0.009
    1UNL    H17   41   0.317   0.168  -0.207
    1UNL    H18   42  -0.005   0.313  -0.019
    1UNL    H19   43   0.090   0.164   0.047
    1UNL    H20   44  -0.190   0.208  -0.058
    1UNL    H21   45  -0.118   0.109  -0.169
    1UNL    H22   46  -0.022  -0.278   0.066
   0.00000   0.00000   0.00000   0.00000   0.00000   0.00000   0.00000   0.00000   0.00000
Generated with MDTraj, t= 7.0
 46
    1UNL     C1    1  -0.201   0.150   0.240
    1UNL     C2    2  -0.118   0.041   0.178
    1UNL     C3    3  -0.133   0.008   0.025
    1UNL     C4    4  -0.289  -0.026   0.022
    1UNL     C5    5  -0.341  -0.091  -0.111
    1UNL     C6    6  -0.248  -0.202  -0.168
    1UNL     N1    7  -0.107  -0.173  -0.142
    1UNL     C7    8  -0.011  -0.178  -0.247
    1UNL     O1    9  -0.035  -0.223  -0.359
    1UNL     C8   10   0.112  -0.127  -0.186
    1UNL     C9   11   0.091  -0.102  -0.057
    1UNL    C10   12   0.197  -0.042   0.025
    1UNL    C11   13   0.232  -0.111   0.144
    1UNL    C12   14   0.349  -0.072   0.206
    1UNL    C13   15   0.438   0.015   0.156
    1UNL    C14   16   0.399   0.084   0.041
    1UNL    C15   17   0.281   0.061  -0.027
    1UNL     N2   18   0.242   0.141  -0.136
    1UNL    C16   19   0.126   0.209  -0.159
    1UNL     O2   20   0.089   0.258  -0.263
    1UNL    C17   21   0.031   0.226  -0.038
    1UNL    C18   22  -0.097   0.124  -0.066
    1UNL    C19   23  -0.053  -0.128  -0.015
    1UNL     O3   24  -0.074  -0.226   0.085
    1UNL     H1   25  -0.169   0.177   0.345
    1UNL     H2   26  -0.304   0.131   0.239
    1UNL     H3   27  -0.195   0.249   0.180
    1UNL     H4   28  -0.136  -0.047   0.242
    1UNL     H5   29  -0.008   0.057   0.193
    1UNL     H6   30  -0.343   0.065   0.065
    1UNL     H7   31  -0.310  -0.106   0.093
    1UNL     H8   32  -0.444  -0.134  -0.114
    1UNL     H9   33  -0.346  -0.007  -0.183
    1UNL    H10   34  -0.263  -0.215  -0.273
    1UNL    H11   35  -0.260  -0.303  -0.126
    1UNL    H12   36   0.196  -0.088  -0.237
    1UNL    H13   37   0.171  -0.183   0.197
    1UNL    H14   38   0.382  -0.127   0.297
    1UNL    H15   39   0.530   0.039   0.206
    1UNL    H16   40   0.444   0.180   0.007
    1UNL    H17   41   0.315   0.161  -0.212
    1UNL    H18   42   0.006   0.334  -0.037
    1UNL    H19   43   0.083   0.185   0.051
    1UNL    H20   44  -0.193   0.187  -0.064
    1UNL    H21   45  -0.091   0.082  -0.161
    1UNL    H22   46  -0.062  -0.317   0.040
   0.00000   0.00000   0.00000   0.00000   0.00000   0.00000   0.00000   0.00000   0.00000
Generated with MDTraj, t= 8.0
 46
    1UNL     C1    1  -0.126   0.168   0.234
    1UNL     C2    2  -0.109   0.026   0.180
    1UNL     C3    3  -0.133  -0.002   0.026
    1UNL     C4    4  -0.286  -0.034   0.022
    1UNL     C5    5  -0.332  -0.087  -0.115
    1UNL     C6    6  -0.252  -0.196  -0.164
    1UNL     N1    7  -0.108  -0.180  -0.143
    1UNL     C7    8  -0.022  -0.165  -0.252
    1UNL     O1    9  -0.051  -0.196  -0.366
    1UNL     C8   10   0.106  -0.116  -0.196
    1UNL     C9   11   0.096  -0.101  -0.063
    1UNL    C10   12   0.203  -0.057   0.022
    1UNL    C11   13   0.238  -0.114   0.141
    1UNL    C12   14   0.329  -0.057   0.232
    1UNL    C13   15   0.405   0.041   0.181
    1UNL    C14   16   0.386   0.096   0.055
    1UNL    C15   17   0.278   0.053  -0.019
    1UNL     N2   18   0.239   0.135  -0.133
    1UNL    C16   19   0.114   0.194  -0.159
    1UNL     O2   20   0.089   0.236  -0.270
    1UNL    C17   21   0.019   0.213  -0.043
    1UNL    C18   22  -0.113   0.119  -0.072
    1UNL    C19   23  -0.050  -0.126  -0.015
    1UNL     O3   24  -0.055  -0.234   0.077
    1UNL     H1   25  -0.061   0.181   0.331
    1UNL     H2   26  -0.227   0.194   0.248
    1UNL     H3   27  -0.088   0.247   0.165
    1UNL     H4   28  -0.169  -0.039   0.244
    1UNL     H5   29  -0.003   0.001   0.208
    1UNL     H6   30  -0.347   0.065   0.031
    1UNL     H7   31  -0.317  -0.092   0.107
    1UNL     H8   32  -0.440  -0.109  -0.113
    1UNL     H9   33  -0.319  -0.007  -0.192
    1UNL    H10   34  -0.261  -0.214  -0.273
    1UNL    H11   35  -0.278  -0.288  -0.117
    1UNL    H12   36   0.193  -0.094  -0.253
    1UNL    H13   37   0.163  -0.187   0.171
    1UNL    H14   38   0.350  -0.097   0.328
    1UNL    H15   39   0.477   0.088   0.246
    1UNL    H16   40   0.442   0.185   0.031
    1UNL    H17   41   0.299   0.137  -0.219
    1UNL    H18   42  -0.016   0.318  -0.045
    1UNL    H19   43   0.077   0.178   0.044
    1UNL    H20   44  -0.208   0.180  -0.085
    1UNL    H21   45  -0.101   0.078  -0.168
    1UNL    H22   46  -0.017  -0.314   0.022
   0.00000   0.00000   0.00000   0.00000   0.00000   0.00000   0.00000   0.00000   0.00000
Generated with MDTraj, t= 9.0
 46
    1UNL     C1    1  -0.150   0.154   0.242
    1UNL     C2    2  -0.079   0.027   0.176
    1UNL     C3    3  -0.120  -0.000   0.030
    1UNL     C4    4  -0.271  -0.037   0.035
    1UNL     C5    5  -0.335  -0.089  -0.091
    1UNL     C6    6  -0.254  -0.200  -0.153
    1UNL     N1    7  -0.107  -0.169  -0.143
    1UNL     C7    8  -0.032  -0.158  -0.258
    1UNL     O1    9  -0.061  -0.183  -0.374
    1UNL     C8   10   0.099  -0.116  -0.210
    1UNL     C9   11   0.099  -0.095  -0.075
    1UNL    C10   12   0.208  -0.058   0.016
    1UNL    C11   13   0.219  -0.113   0.147
    1UNL    C12   14   0.311  -0.062   0.230
    1UNL    C13   15   0.382   0.054   0.199
    1UNL    C14   16   0.382   0.099   0.068
    1UNL    C15   17   0.279   0.058  -0.019
    1UNL     N2   18   0.244   0.133  -0.133
    1UNL    C16   19   0.122   0.184  -0.168
    1UNL     O2   20   0.104   0.217  -0.282
    1UNL    C17   21   0.020   0.211  -0.062
    1UNL    C18   22  -0.111   0.124  -0.077
    1UNL    C19   23  -0.040  -0.126  -0.024
    1UNL     O3   24  -0.045  -0.231   0.072
    1UNL     H1   25  -0.113   0.167   0.353
    1UNL     H2   26  -0.258   0.153   0.233
    1UNL     H3   27  -0.119   0.250   0.200
    1UNL     H4   28  -0.095  -0.068   0.230
    1UNL     H5   29   0.031   0.042   0.195
    1UNL     H6   30  -0.333   0.053   0.075
    1UNL     H7   31  -0.289  -0.111   0.113
    1UNL     H8   32  -0.436  -0.132  -0.071
    1UNL     H9   33  -0.355  -0.000  -0.154
    1UNL    H10   34  -0.276  -0.222  -0.261
    1UNL    H11   35  -0.276  -0.289  -0.102
    1UNL    H12   36   0.199  -0.107  -0.264
    1UNL    H13   37   0.174  -0.207   0.170
    1UNL    H14   38   0.297  -0.098   0.334
    1UNL    H15   39   0.454   0.092   0.275
    1UNL    H16   40   0.453   0.174   0.047
    1UNL    H17   41   0.308   0.125  -0.207
    1UNL    H18   42  -0.002   0.320  -0.069
    1UNL    H19   43   0.072   0.180   0.028
    1UNL    H20   44  -0.204   0.188  -0.063
    1UNL    H21   45  -0.130   0.084  -0.174
    1UNL    H22   46  -0.014  -0.311   0.033
   0.00000   0.00000   0.00000   0.00000   0.00000   0.00000   0.00000   0.00000   0.00000
Generated with MDTraj, t= 10.0
 46
    1UNL     C1    1  -0.162   0.135   0.243
    1UNL     C2    2  -0.073   0.037   0.171
    1UNL     C3    3  -0.125   0.006   0.029
    1UNL     C4    4  -0.280  -0.038   0.042
    1UNL     C5    5  -0.333  -0.079  -0.092
    1UNL     C6    6  -0.254  -0.202  -0.159
    1UNL     N1    7  -0.111  -0.174  -0.153
    1UNL     C7    8  -0.023  -0.166  -0.260
    1UNL     O1    9  -0.051  -0.189  -0.377
    1UNL     C8   10   0.104  -0.118  -0.200
    1UNL     C9   11   0.091  -0.100  -0.063
    1UNL    C10   12   0.189  -0.044   0.024
    1UNL    C11   13   0.223  -0.111   0.143
    1UNL    C12   14   0.323  -0.070   0.226
    1UNL    C13   15   0.405   0.035   0.185
    1UNL    C14   16   0.377   0.113   0.078
    1UNL    C15   17   0.274   0.071  -0.008
    1UNL     N2   18   0.251   0.134  -0.137
    1UNL    C16   19   0.127   0.192  -0.173
    1UNL     O2   20   0.095   0.216  -0.289
    1UNL    C17   21   0.026   0.208  -0.062
    1UNL    C18   22  -0.100   0.123  -0.074
    1UNL    C19   23  -0.051  -0.128  -0.019
    1UNL     O3   24  -0.060  -0.225   0.078
    1UNL     H1   25  -0.100   0.173   0.328
    1UNL     H2   26  -0.264   0.095   0.275
    1UNL     H3   27  -0.188   0.227   0.190
    1UNL     H4   28  -0.056  -0.051   0.237
    1UNL     H5   29   0.035   0.066   0.164
    1UNL     H6   30  -0.345   0.044   0.093
    1UNL     H7   31  -0.289  -0.123   0.108
    1UNL     H8   32  -0.441  -0.094  -0.080
    1UNL     H9   33  -0.317   0.001  -0.167
    1UNL    H10   34  -0.288  -0.226  -0.263
    1UNL    H11   35  -0.259  -0.288  -0.098
    1UNL    H12   36   0.184  -0.092  -0.257
    1UNL    H13   37   0.159  -0.195   0.174
    1UNL    H14   38   0.361  -0.117   0.312
    1UNL    H15   39   0.479   0.071   0.250
    1UNL    H16   40   0.456   0.178   0.032
    1UNL    H17   41   0.318   0.140  -0.205
    1UNL    H18   42  -0.012   0.312  -0.078
    1UNL    H19   43   0.078   0.193   0.029
    1UNL    H20   44  -0.185   0.192  -0.038
    1UNL    H21   45  -0.118   0.086  -0.172
    1UNL    H22   46  -0.041  -0.310   0.037
   0.00000   0.00000   0.00000   0.00000   0.00000   0.00000   0.00000   0.00000   0.00000
Generated with MDTraj, t= 11.0
 46
    1UNL     C1    1  -0.153   0.165   0.228
    1UNL     C2    2  -0.097   0.035   0.177
    1UNL     C3    3  -0.138   0.001   0.032
    1UNL     C4    4  -0.293  -0.041   0.014
    1UNL     C5    5  -0.334  -0.081  -0.124
    1UNL     C6    6  -0.254  -0.208  -0.167
    1UNL     N1    7  -0.114  -0.167  -0.154
    1UNL     C7    8  -0.019  -0.175  -0.251
    1UNL     O1    9  -0.039  -0.208  -0.366
    1UNL     C8   10   0.106  -0.125  -0.193
    1UNL     C9   11   0.085  -0.091  -0.065
    1UNL    C10   12   0.195  -0.040   0.024
    1UNL    C11   13   0.235  -0.102   0.146
    1UNL    C12   14   0.349  -0.072   0.216
    1UNL    C13   15   0.431   0.030   0.174
    1UNL    C14   16   0.394   0.098   0.061
    1UNL    C15   17   0.282   0.064  -0.016
    1UNL     N2   18   0.241   0.134  -0.136
    1UNL    C16   19   0.116   0.188  -0.157
    1UNL     O2   20   0.079   0.230  -0.264
    1UNL    C17   21   0.023   0.195  -0.035
    1UNL    C18   22  -0.110   0.131  -0.056
    1UNL    C19   23  -0.057  -0.119  -0.026
    1UNL     O3   24  -0.062  -0.217   0.082
    1UNL     H1   25  -0.125   0.164   0.333
    1UNL     H2   26  -0.268   0.171   0.205
    1UNL     H3   27  -0.108   0.257   0.189
    1UNL     H4   28  -0.135  -0.048   0.240
    1UNL     H5   29   0.011   0.027   0.203
    1UNL     H6   30  -0.367   0.029   0.066
    1UNL     H7   31  -0.309  -0.136   0.065
    1UNL     H8   32  -0.439  -0.113  -0.132
    1UNL     H9   33  -0.311   0.007  -0.187
    1UNL    H10   34  -0.270  -0.232  -0.272
    1UNL    H11   35  -0.280  -0.291  -0.102
    1UNL    H12   36   0.207  -0.113  -0.240
    1UNL    H13   37   0.175  -0.177   0.189
    1UNL    H14   38   0.379  -0.121   0.311
    1UNL    H15   39   0.533   0.034   0.222
    1UNL    H16   40   0.450   0.179   0.022
    1UNL    H17   41   0.309   0.164  -0.200
    1UNL    H18   42   0.003   0.304  -0.022
    1UNL    H19   43   0.063   0.148   0.052
    1UNL    H20   44  -0.190   0.203  -0.015
    1UNL    H21   45  -0.120   0.112  -0.160
    1UNL    H22   46  -0.036  -0.310   0.048
   0.00000   0.00000   0.00000   0.00000   0.00000   0.00000   0.00000   0.00000   0.00000
Generated with MDTraj, t= 12.0
 46
    1UNL     C1    1  -0.190   0.160   0.229
    1UNL     C2    2  -0.108   0.036   0.177
    1UNL     C3    3  -0.138   0.003   0.030
    1UNL     C4    4  -0.290  -0.038   0.014
    1UNL     C5    5  -0.336  -0.082  -0.132
    1UNL     C6    6  -0.252  -0.209  -0.164
    1UNL     N1    7  -0.115  -0.166  -0.142
    1UNL     C7    8  -0.025  -0.177  -0.244
    1UNL     O1    9  -0.033  -0.219  -0.357
    1UNL     C8   10   0.105  -0.128  -0.186
    1UNL     C9   11   0.087  -0.089  -0.057
    1UNL    C10   12   0.201  -0.050   0.028
    1UNL    C11   13   0.235  -0.102   0.151
    1UNL    C12   14   0.358  -0.076   0.209
    1UNL    C13   15   0.441   0.020   0.159
    1UNL    C14   16   0.407   0.080   0.040
    1UNL    C15   17   0.284   0.054  -0.027
    1UNL     N2   18   0.240   0.141  -0.130
    1UNL    C16   19   0.117   0.203  -0.152
    1UNL     O2   20   0.095   0.268  -0.252
    1UNL    C17   21   0.014   0.201  -0.047
    1UNL    C18   22  -0.117   0.127  -0.068
    1UNL    C19   23  -0.055  -0.120  -0.013
    1UNL     O3   24  -0.054  -0.221   0.084
    1UNL     H1   25  -0.166   0.173   0.333
    1UNL     H2   26  -0.302   0.137   0.214
    1UNL     H3   27  -0.168   0.260   0.182
    1UNL     H4   28  -0.122  -0.055   0.239
    1UNL     H5   29  -0.001   0.062   0.192
    1UNL     H6   30  -0.358   0.050   0.027
    1UNL     H7   31  -0.322  -0.101   0.101
    1UNL     H8   32  -0.444  -0.100  -0.134
    1UNL     H9   33  -0.311  -0.006  -0.208
    1UNL    H10   34  -0.269  -0.248  -0.261
    1UNL    H11   35  -0.265  -0.289  -0.088
    1UNL    H12   36   0.195  -0.133  -0.247
    1UNL    H13   37   0.162  -0.162   0.206
    1UNL    H14   38   0.371  -0.122   0.302
    1UNL    H15   39   0.542   0.019   0.185
    1UNL    H16   40   0.476   0.163   0.011
    1UNL    H17   41   0.313   0.169  -0.201
    1UNL    H18   42  -0.023   0.305  -0.038
    1UNL    H19   43   0.064   0.174   0.046
    1UNL    H20   44  -0.209   0.195  -0.073
    1UNL    H21   45  -0.112   0.075  -0.162
    1UNL    H22   46  -0.051  -0.306   0.033
   0.00000   0.00000   0.00000   0.00000   0.00000   0.00000   0.00000   0.00000   0.00000
Generated with MDTraj, t= 13.0
 46
    1UNL     C1    1  -0.202   0.150   0.238
    1UNL     C2    2  -0.110   0.046   0.169
    1UNL     C3    3  -0.142   0.008   0.021
    1UNL     C4    4  -0.295  -0.022   0.002
    1UNL     C5    5  -0.336  -0.098  -0.121
    1UNL     C6    6  -0.253  -0.218  -0.141
    1UNL     N1    7  -0.108  -0.182  -0.134
    1UNL     C7    8  -0.021  -0.178  -0.243
    1UNL     O1    9  -0.042  -0.214  -0.357
    1UNL     C8   10   0.104  -0.117  -0.190
    1UNL     C9   11   0.093  -0.097  -0.058
    1UNL    C10   12   0.209  -0.050   0.021
    1UNL    C11   13   0.235  -0.121   0.135
    1UNL    C12   14   0.344  -0.083   0.208
    1UNL    C13   15   0.422   0.012   0.155
    1UNL    C14   16   0.395   0.091   0.045
    1UNL    C15   17   0.286   0.058  -0.031
    1UNL     N2   18   0.245   0.141  -0.135
    1UNL    C16   19   0.123   0.214  -0.154
    1UNL     O2   20   0.101   0.284  -0.252
    1UNL    C17   21   0.024   0.215  -0.042
    1UNL    C18   22  -0.098   0.123  -0.078
    1UNL    C19   23  -0.050  -0.120  -0.009
    1UNL     O3   24  -0.051  -0.225   0.094
    1UNL     H1   25  -0.177   0.168   0.341
    1UNL     H2   26  -0.303   0.110   0.234
    1UNL     H3   27  -0.211   0.254   0.190
    1UNL     H4   28  -0.106  -0.047   0.228
    1UNL     H5   29  -0.005   0.079   0.158
    1UNL     H6   30  -0.342   0.077   0.014
    1UNL     H7   31  -0.346  -0.078   0.086
    1UNL     H8   32  -0.441  -0.127  -0.129
    1UNL     H9   33  -0.314  -0.027  -0.203
    1UNL    H10   34  -0.261  -0.264  -0.236
    1UNL    H11   35  -0.287  -0.297  -0.068
    1UNL    H12   36   0.189  -0.088  -0.243
    1UNL    H13   37   0.164  -0.187   0.181
    1UNL    H14   38   0.373  -0.144   0.297
    1UNL    H15   39   0.508   0.040   0.222
    1UNL    H16   40   0.470   0.154   0.008
    1UNL    H17   41   0.324   0.173  -0.202
    1UNL    H18   42  -0.004   0.319  -0.024
    1UNL    H19   43   0.079   0.173   0.046
    1UNL    H20   44  -0.191   0.184  -0.100
    1UNL    H21   45  -0.079   0.065  -0.169
    1UNL    H22   46  -0.098  -0.300   0.065
   0.00000   0.00000   0.00000   0.00000   0.00000   0.00000   0.00000   0.00000   0.00000
Generated with MDTraj, t= 14.0
 46
    1UNL     C1    1  -0.167   0.172   0.225
    1UNL     C2    2  -0.118   0.039   0.175
    1UNL     C3    3  -0.140   0.006   0.020
    1UNL     C4    4  -0.290  -0.029   0.003
    1UNL     C5    5  -0.340  -0.100  -0.132
    1UNL     C6    6  -0.253  -0.223  -0.160
    1UNL     N1    7  -0.111  -0.194  -0.133
    1UNL     C7    8  -0.031  -0.179  -0.241
    1UNL     O1    9  -0.061  -0.208  -0.356
    1UNL     C8   10   0.099  -0.119  -0.199
    1UNL     C9   11   0.089  -0.087  -0.069
    1UNL    C10   12   0.203  -0.045   0.016
    1UNL    C11   13   0.228  -0.112   0.135
    1UNL    C12   14   0.342  -0.075   0.208
    1UNL    C13   15   0.419   0.028   0.172
    1UNL    C14   16   0.396   0.090   0.056
    1UNL    C15   17   0.286   0.063  -0.023
    1UNL     N2   18   0.252   0.149  -0.134
    1UNL    C16   19   0.127   0.210  -0.147
    1UNL     O2   20   0.094   0.263  -0.251
    1UNL    C17   21   0.032   0.205  -0.030
    1UNL    C18   22  -0.100   0.125  -0.071
    1UNL    C19   23  -0.047  -0.127  -0.011
    1UNL     O3   24  -0.040  -0.231   0.091
    1UNL     H1   25  -0.130   0.197   0.326
    1UNL     H2   26  -0.272   0.175   0.213
    1UNL     H3   27  -0.137   0.261   0.162
    1UNL     H4   28  -0.171  -0.040   0.232
    1UNL     H5   29  -0.012   0.023   0.198
    1UNL     H6   30  -0.357   0.049   0.037
    1UNL     H7   31  -0.303  -0.094   0.097
    1UNL     H8   32  -0.447  -0.117  -0.132
    1UNL     H9   33  -0.324  -0.034  -0.218
    1UNL    H10   34  -0.265  -0.264  -0.260
    1UNL    H11   35  -0.271  -0.315  -0.099
    1UNL    H12   36   0.190  -0.102  -0.265
    1UNL    H13   37   0.177  -0.207   0.153
    1UNL    H14   38   0.354  -0.105   0.310
    1UNL    H15   39   0.496   0.057   0.235
    1UNL    H16   40   0.463   0.174   0.024
    1UNL    H17   41   0.314   0.167  -0.217
    1UNL    H18   42   0.011   0.309  -0.001
    1UNL    H19   43   0.081   0.153   0.057
    1UNL    H20   44  -0.192   0.190  -0.058
    1UNL    H21   45  -0.103   0.098  -0.179
    1UNL    H22   46  -0.055  -0.322   0.045
   0.00000   0.00000   0.00000   0.00000   0.00000   0.00000   0.00000   0.00000   0.00000
Generated with MDTraj, t= 15.0
 46
    1UNL     C1    1  -0.149   0.163   0.236
    1UNL     C2    2  -0.088   0.041   0.171
    1UNL     C3    3  -0.136   0.002   0.028
    1UNL     C4    4  -0.282  -0.038   0.025
    1UNL     C5    5  -0.334  -0.095  -0.113
    1UNL     C6    6  -0.251  -0.209  -0.175
    1UNL     N1    7  -0.114  -0.184  -0.145
    1UNL     C7    8  -0.022  -0.170  -0.247
    1UNL     O1    9  -0.043  -0.195  -0.365
    1UNL     C8   10   0.110  -0.125  -0.193
    1UNL     C9   11   0.085  -0.094  -0.062
    1UNL    C10   12   0.189  -0.042   0.029
    1UNL    C11   13   0.227  -0.108   0.149
    1UNL    C12   14   0.336  -0.068   0.219
    1UNL    C13   15   0.422   0.029   0.172
    1UNL    C14   16   0.394   0.091   0.055
    1UNL    C15   17   0.277   0.062  -0.020
    1UNL     N2   18   0.236   0.133  -0.134
    1UNL    C16   19   0.117   0.201  -0.159
    1UNL     O2   20   0.100   0.249  -0.267
    1UNL    C17   21   0.017   0.212  -0.049
    1UNL    C18   22  -0.116   0.127  -0.073
    1UNL    C19   23  -0.057  -0.129  -0.020
    1UNL     O3   24  -0.051  -0.233   0.086
    1UNL     H1   25  -0.120   0.179   0.344
    1UNL     H2   26  -0.253   0.155   0.215
    1UNL     H3   27  -0.123   0.251   0.186
    1UNL     H4   28  -0.119  -0.044   0.235
    1UNL     H5   29   0.018   0.041   0.190
    1UNL     H6   30  -0.344   0.036   0.069
    1UNL     H7   31  -0.285  -0.123   0.105
    1UNL     H8   32  -0.436  -0.127  -0.116
    1UNL     H9   33  -0.330  -0.005  -0.177
    1UNL    H10   34  -0.250  -0.204  -0.287
    1UNL    H11   35  -0.289  -0.311  -0.162
    1UNL    H12   36   0.200  -0.118  -0.244
    1UNL    H13   37   0.171  -0.188   0.188
    1UNL    H14   38   0.356  -0.113   0.314
    1UNL    H15   39   0.506   0.066   0.236
    1UNL    H16   40   0.454   0.171   0.028
    1UNL    H17   41   0.297   0.133  -0.212
    1UNL    H18   42  -0.020   0.314  -0.038
    1UNL    H19   43   0.068   0.195   0.050
    1UNL    H20   44  -0.198   0.202  -0.061
    1UNL    H21   45  -0.137   0.090  -0.177
    1UNL    H22   46  -0.129  -0.298   0.066
   0.00000   0.00000   0.00000   0.00000   0.00000   0.00000   0.00000   0.00000   0.00000
Generated with MDTraj, t= 16.0
 46
    1UNL     C1    1  -0.169   0.150   0.242
    1UNL     C2    2  -0.084   0.043   0.172
    1UNL     C3    3  -0.134   0.003   0.035
    1UNL     C4    4  -0.284  -0.038   0.037
    1UNL     C5    5  -0.340  -0.076  -0.103
    1UNL     C6    6  -0.257  -0.189  -0.166
    1UNL     N1    7  -0.111  -0.172  -0.152
    1UNL     C7    8  -0.018  -0.171  -0.256
    1UNL     O1    9  -0.038  -0.202  -0.372
    1UNL     C8   10   0.111  -0.118  -0.196
    1UNL     C9   11   0.094  -0.094  -0.061
    1UNL    C10   12   0.202  -0.042   0.029
    1UNL    C11   13   0.238  -0.112   0.143
    1UNL    C12   14   0.330  -0.065   0.224
    1UNL    C13   15   0.408   0.042   0.181
    1UNL    C14   16   0.388   0.109   0.064
    1UNL    C15   17   0.286   0.062  -0.016
    1UNL     N2   18   0.248   0.130  -0.136
    1UNL    C16   19   0.118   0.174  -0.165
    1UNL     O2   20   0.083   0.217  -0.273
    1UNL    C17   21   0.025   0.202  -0.050
    1UNL    C18   22  -0.108   0.123  -0.059
    1UNL    C19   23  -0.051  -0.125  -0.028
    1UNL     O3   24  -0.064  -0.230   0.065
    1UNL     H1   25  -0.130   0.180   0.343
    1UNL     H2   26  -0.273   0.121   0.244
    1UNL     H3   27  -0.169   0.235   0.186
    1UNL     H4   28  -0.062  -0.043   0.239
    1UNL     H5   29   0.019   0.073   0.170
    1UNL     H6   30  -0.341   0.048   0.065
    1UNL     H7   31  -0.308  -0.118   0.118
    1UNL     H8   32  -0.440  -0.108  -0.079
    1UNL     H9   33  -0.339   0.007  -0.176
    1UNL    H10   34  -0.286  -0.205  -0.275
    1UNL    H11   35  -0.287  -0.282  -0.124
    1UNL    H12   36   0.195  -0.087  -0.257
    1UNL    H13   37   0.174  -0.195   0.175
    1UNL    H14   38   0.365  -0.122   0.314
    1UNL    H15   39   0.486   0.069   0.245
    1UNL    H16   40   0.437   0.205   0.039
    1UNL    H17   41   0.316   0.148  -0.201
    1UNL    H18   42   0.015   0.311  -0.047
    1UNL    H19   43   0.077   0.171   0.041
    1UNL    H20   44  -0.197   0.187  -0.056
    1UNL    H21   45  -0.105   0.079  -0.164
    1UNL    H22   46  -0.105  -0.300   0.016
   0.00000   0.00000   0.00000   0.00000   0.00000   0.00000   0.00000   0.00000   0.00000
Generated with MDTraj, t= 17.0
 46
    1UNL     C1    1  -0.147   0.141   0.256
    1UNL     C2    2  -0.090   0.025   0.172
    1UNL     C3    3  -0.132   0.012   0.025
    1UNL     C4    4  -0.280  -0.030   0.020
    1UNL     C5    5  -0.328  -0.071  -0.121
    1UNL     C6    6  -0.248  -0.198  -0.156
    1UNL     N1    7  -0.110  -0.174  -0.147
    1UNL     C7    8  -0.028  -0.171  -0.260
    1UNL     O1    9  -0.038  -0.199  -0.379
    1UNL     C8   10   0.094  -0.125  -0.198
    1UNL     C9   11   0.090  -0.087  -0.067
    1UNL    C10   12   0.198  -0.042   0.020
    1UNL    C11   13   0.220  -0.097   0.148
    1UNL    C12   14   0.326  -0.060   0.224
    1UNL    C13   15   0.405   0.043   0.190
    1UNL    C14   16   0.391   0.102   0.066
    1UNL    C15   17   0.286   0.063  -0.018
    1UNL     N2   18   0.247   0.132  -0.135
    1UNL    C16   19   0.115   0.176  -0.162
    1UNL     O2   20   0.077   0.207  -0.273
    1UNL    C17   21   0.021   0.194  -0.049
    1UNL    C18   22  -0.114   0.139  -0.058
    1UNL    C19   23  -0.047  -0.117  -0.019
    1UNL     O3   24  -0.045  -0.231   0.072
    1UNL     H1   25  -0.109   0.145   0.358
    1UNL     H2   26  -0.254   0.150   0.252
    1UNL     H3   27  -0.113   0.231   0.211
    1UNL     H4   28  -0.095  -0.070   0.230
    1UNL     H5   29   0.017   0.028   0.168
    1UNL     H6   30  -0.333   0.059   0.049
    1UNL     H7   31  -0.311  -0.115   0.090
    1UNL     H8   32  -0.431  -0.097  -0.132
    1UNL     H9   33  -0.308   0.015  -0.187
    1UNL    H10   34  -0.279  -0.247  -0.255
    1UNL    H11   35  -0.272  -0.273  -0.085
    1UNL    H12   36   0.185  -0.122  -0.263
    1UNL    H13   37   0.171  -0.191   0.158
    1UNL    H14   38   0.350  -0.104   0.315
    1UNL    H15   39   0.502   0.054   0.243
    1UNL    H16   40   0.447   0.189   0.041
    1UNL    H17   41   0.312   0.136  -0.210
    1UNL    H18   42   0.005   0.303  -0.051
    1UNL    H19   43   0.074   0.176   0.044
    1UNL    H20   44  -0.195   0.210  -0.034
    1UNL    H21   45  -0.124   0.115  -0.173
    1UNL    H22   46  -0.131  -0.278   0.070
   0.00000   0.00000   0.00000   0.00000   0.00000   0.00000   0.00000   0.00000   0.00000
Generated with MDTraj, t= 18.0
 46
    1UNL     C1    1  -0.170   0.168   0.230
    1UNL     C2    2  -0.094   0.045   0.169
    1UNL     C3    3  -0.134  -0.002   0.028
    1UNL     C4    4  -0.293  -0.045   0.033
    1UNL     C5    5  -0.342  -0.086  -0.101
    1UNL     C6    6  -0.259  -0.209  -0.156
    1UNL     N1    7  -0.112  -0.172  -0.148
    1UNL     C7    8  -0.019  -0.165  -0.252
    1UNL     O1    9  -0.048  -0.195  -0.366
    1UNL     C8   10   0.110  -0.127  -0.201
    1UNL     C9   11   0.095  -0.103  -0.067
    1UNL    C10   12   0.202  -0.049   0.021
    1UNL    C11   13   0.227  -0.105   0.150
    1UNL    C12   14   0.333  -0.064   0.228
    1UNL    C13   15   0.420   0.030   0.180
    1UNL    C14   16   0.387   0.094   0.063
    1UNL    C15   17   0.285   0.056  -0.023
    1UNL     N2   18   0.243   0.133  -0.138
    1UNL    C16   19   0.123   0.195  -0.161
    1UNL     O2   20   0.104   0.254  -0.265
    1UNL    C17   21   0.018   0.197  -0.054
    1UNL    C18   22  -0.111   0.116  -0.064
    1UNL    C19   23  -0.050  -0.123  -0.025
    1UNL     O3   24  -0.049  -0.227   0.071
    1UNL     H1   25  -0.139   0.189   0.325
    1UNL     H2   26  -0.275   0.156   0.219
    1UNL     H3   27  -0.147   0.261   0.175
    1UNL     H4   28  -0.113  -0.045   0.230
    1UNL     H5   29   0.008   0.066   0.189
    1UNL     H6   30  -0.362   0.020   0.086
    1UNL     H7   31  -0.293  -0.143   0.088
    1UNL     H8   32  -0.447  -0.105  -0.090
    1UNL     H9   33  -0.334  -0.009  -0.180
    1UNL    H10   34  -0.282  -0.206  -0.268
    1UNL    H11   35  -0.277  -0.309  -0.119
    1UNL    H12   36   0.203  -0.127  -0.244
    1UNL    H13   37   0.163  -0.186   0.186
    1UNL    H14   38   0.364  -0.137   0.307
    1UNL    H15   39   0.496   0.075   0.240
    1UNL    H16   40   0.466   0.164   0.039
    1UNL    H17   41   0.318   0.165  -0.207
    1UNL    H18   42  -0.006   0.301  -0.030
    1UNL    H19   43   0.062   0.167   0.038
    1UNL    H20   44  -0.191   0.188  -0.040
    1UNL    H21   45  -0.127   0.087  -0.176
    1UNL    H22   46   0.004  -0.308   0.037
   0.00000   0.00000   0.00000   0.00000   0.00000   0.00000   0.00000   0.00000   0.00000
Generated with MDTraj, t= 19.0
 46
    1UNL     C1    1  -0.157   0.158   0.223
    1UNL     C2    2  -0.088   0.041   0.168
    1UNL     C3    3  -0.131   0.006   0.020
    1UNL     C4    4  -0.288  -0.030   0.011
    1UNL     C5    5  -0.336  -0.097  -0.123
    1UNL     C6    6  -0.252  -0.227  -0.161
    1UNL     N1    7  -0.111  -0.188  -0.141
    1UNL     C7    8  -0.022  -0.170  -0.248
    1UNL     O1    9  -0.046  -0.205  -0.364
    1UNL     C8   10   0.092  -0.113  -0.185
    1UNL     C9   11   0.081  -0.102  -0.051
    1UNL    C10   12   0.197  -0.055   0.023
    1UNL    C11   13   0.233  -0.114   0.143
    1UNL    C12   14   0.348  -0.078   0.215
    1UNL    C13   15   0.427   0.019   0.166
    1UNL    C14   16   0.387   0.096   0.056
    1UNL    C15   17   0.272   0.063  -0.015
    1UNL     N2   18   0.241   0.144  -0.130
    1UNL    C16   19   0.123   0.218  -0.156
    1UNL     O2   20   0.097   0.276  -0.262
    1UNL    C17   21   0.025   0.210  -0.045
    1UNL    C18   22  -0.098   0.122  -0.085
    1UNL    C19   23  -0.062  -0.133  -0.009
    1UNL     O3   24  -0.069  -0.229   0.098
    1UNL     H1   25  -0.110   0.189   0.308
    1UNL     H2   26  -0.261   0.146   0.236
    1UNL     H3   27  -0.150   0.244   0.154
    1UNL     H4   28  -0.118  -0.042   0.234
    1UNL     H5   29   0.019   0.055   0.171
    1UNL     H6   30  -0.356   0.055   0.032
    1UNL     H7   31  -0.303  -0.092   0.100
    1UNL     H8   32  -0.439  -0.129  -0.120
    1UNL     H9   33  -0.340  -0.016  -0.199
    1UNL    H10   34  -0.258  -0.274  -0.264
    1UNL    H11   35  -0.278  -0.304  -0.087
    1UNL    H12   36   0.186  -0.090  -0.244
    1UNL    H13   37   0.173  -0.197   0.180
    1UNL    H14   38   0.362  -0.107   0.313
    1UNL    H15   39   0.519   0.043   0.223
    1UNL    H16   40   0.443   0.188   0.035
    1UNL    H17   41   0.323   0.175  -0.192
    1UNL    H18   42  -0.019   0.312  -0.042
    1UNL    H19   43   0.075   0.211   0.050
    1UNL    H20   44  -0.186   0.189  -0.092
    1UNL    H21   45  -0.092   0.076  -0.191
    1UNL    H22   46  -0.025  -0.311   0.075
   0.00000   0.00000   0.00000   0.00000   0.00000   0.00000   0.00000   0.00000   0.00000
Generated with MDTraj, t= 20.0
 46
    1UNL     C1    1  -0.195   0.170   0.223
    1UNL     C2    2  -0.119   0.040   0.188
    1UNL     C3    3  -0.135   0.006   0.030
    1UNL     C4    4  -0.287  -0.035   0.001
    1UNL     C5    5  -0.335  -0.097  -0.133
    1UNL     C6    6  -0.253  -0.213  -0.159
    1UNL     N1    7  -0.111  -0.178  -0.136
    1UNL     C7    8  -0.028  -0.184  -0.241
    1UNL     O1    9  -0.051  -0.227  -0.352
    1UNL     C8   10   0.097  -0.124  -0.198
    1UNL     C9   11   0.093  -0.096  -0.071
    1UNL    C10   12   0.203  -0.050   0.013
    1UNL    C11   13   0.237  -0.117   0.132
    1UNL    C12   14   0.345  -0.086   0.208
    1UNL    C13   15   0.414   0.025   0.172
    1UNL    C14   16   0.403   0.083   0.045
    1UNL    C15   17   0.282   0.061  -0.024
    1UNL     N2   18   0.247   0.152  -0.129
    1UNL    C16   19   0.123   0.207  -0.153
    1UNL     O2   20   0.094   0.269  -0.252
    1UNL    C17   21   0.033   0.214  -0.037
    1UNL    C18   22  -0.100   0.132  -0.059
    1UNL    C19   23  -0.046  -0.124  -0.018
    1UNL     O3   24  -0.039  -0.216   0.090
    1UNL     H1   25  -0.205   0.186   0.326
    1UNL     H2   26  -0.292   0.184   0.182
    1UNL     H3   27  -0.145   0.259   0.185
    1UNL     H4   28  -0.162  -0.050   0.237
    1UNL     H5   29  -0.013   0.061   0.204
    1UNL     H6   30  -0.352   0.049   0.036
    1UNL     H7   31  -0.315  -0.109   0.072
    1UNL     H8   32  -0.441  -0.118  -0.121
    1UNL     H9   33  -0.328  -0.029  -0.221
    1UNL    H10   34  -0.271  -0.252  -0.260
    1UNL    H11   35  -0.275  -0.296  -0.085
    1UNL    H12   36   0.178  -0.094  -0.259
    1UNL    H13   37   0.169  -0.188   0.171
    1UNL    H14   38   0.361  -0.140   0.306
    1UNL    H15   39   0.489   0.056   0.241
    1UNL    H16   40   0.461   0.162   0.011
    1UNL    H17   41   0.312   0.165  -0.207
    1UNL    H18   42   0.032   0.318  -0.005
    1UNL    H19   43   0.087   0.165   0.043
    1UNL    H20   44  -0.190   0.199  -0.060
    1UNL    H21   45  -0.094   0.094  -0.167
    1UNL    H22   46  -0.013  -0.301   0.052
   0.00000   0.00000   0.00000   0.00000   0.00000   0.00000   0.00000   0.00000   0.00000
Generated with MDTraj, t= 21.0
 46
    1UNL     C1    1  -0.185   0.149   0.246
    1UNL     C2    2  -0.118   0.034   0.169
    1UNL     C3    3  -0.147   0.007   0.019
    1UNL     C4    4  -0.297  -0.026   0.006
    1UNL     C5    5  -0.333  -0.093  -0.128
    1UNL     C6    6  -0.252  -0.212  -0.160
    1UNL     N1    7  -0.110  -0.172  -0.143
    1UNL     C7    8  -0.016  -0.177  -0.246
    1UNL     O1    9  -0.037  -0.218  -0.358
    1UNL     C8   10   0.105  -0.130  -0.182
    1UNL     C9   11   0.087  -0.085  -0.055
    1UNL    C10   12   0.198  -0.046   0.026
    1UNL    C11   13   0.238  -0.109   0.146
    1UNL    C12   14   0.345  -0.069   0.225
    1UNL    C13   15   0.434   0.016   0.154
    1UNL    C14   16   0.406   0.078   0.039
    1UNL    C15   17   0.278   0.061  -0.025
    1UNL     N2   18   0.240   0.146  -0.134
    1UNL    C16   19   0.121   0.210  -0.158
    1UNL     O2   20   0.099   0.265  -0.262
    1UNL    C17   21   0.027   0.207  -0.040
    1UNL    C18   22  -0.109   0.126  -0.070
    1UNL    C19   23  -0.054  -0.117  -0.011
    1UNL     O3   24  -0.057  -0.225   0.088
    1UNL     H1   25  -0.125   0.168   0.335
    1UNL     H2   26  -0.279   0.124   0.289
    1UNL     H3   27  -0.199   0.233   0.187
    1UNL     H4   28  -0.149  -0.059   0.219
    1UNL     H5   29  -0.005   0.041   0.163
    1UNL     H6   30  -0.349   0.074   0.013
    1UNL     H7   31  -0.334  -0.070   0.094
    1UNL     H8   32  -0.440  -0.112  -0.138
    1UNL     H9   33  -0.312  -0.011  -0.201
    1UNL    H10   34  -0.267  -0.255  -0.258
    1UNL    H11   35  -0.272  -0.296  -0.083
    1UNL    H12   36   0.202  -0.143  -0.224
    1UNL    H13   37   0.168  -0.165   0.211
    1UNL    H14   38   0.375  -0.126   0.306
    1UNL    H15   39   0.530   0.040   0.199
    1UNL    H16   40   0.487   0.141  -0.005
    1UNL    H17   41   0.310   0.165  -0.197
    1UNL    H18   42   0.004   0.311  -0.021
    1UNL    H19   43   0.075   0.180   0.056
    1UNL    H20   44  -0.192   0.203  -0.072
    1UNL    H21   45  -0.098   0.087  -0.175
    1UNL    H22   46  -0.024  -0.303   0.030
   0.00000   0.00000   0.00000   0.00000   0.00000   0.00000   0.00000   0.00000   0.00000
Generated with MDTraj, t= 22.0
 46
    1UNL     C1    1  -0.173   0.173   0.224
    1UNL     C2    2  -0.108   0.039   0.179
    1UNL     C3    3  -0.133   0.004   0.030
    1UNL     C4    4  -0.290  -0.040   0.028
    1UNL     C5    5  -0.337  -0.081  -0.114
    1UNL     C6    6  -0.255  -0.201  -0.171
    1UNL     N1    7  -0.107  -0.167  -0.143
    1UNL     C7    8  -0.009  -0.174  -0.247
    1UNL     O1    9  -0.032  -0.202  -0.365
    1UNL     C8   10   0.110  -0.121  -0.187
    1UNL     C9   11   0.092  -0.094  -0.055
    1UNL    C10   12   0.200  -0.052   0.031
    1UNL    C11   13   0.229  -0.109   0.155
    1UNL    C12   14   0.343  -0.069   0.217
    1UNL    C13   15   0.427   0.027   0.166
    1UNL    C14   16   0.398   0.083   0.047
    1UNL    C15   17   0.275   0.058  -0.019
    1UNL     N2   18   0.240   0.134  -0.136
    1UNL    C16   19   0.116   0.198  -0.161
    1UNL     O2   20   0.087   0.252  -0.266
    1UNL    C17   21   0.019   0.195  -0.046
    1UNL    C18   22  -0.110   0.118  -0.071
    1UNL    C19   23  -0.054  -0.122  -0.017
    1UNL     O3   24  -0.064  -0.228   0.078
    1UNL     H1   25  -0.151   0.181   0.332
    1UNL     H2   26  -0.278   0.163   0.221
    1UNL     H3   27  -0.149   0.248   0.160
    1UNL     H4   28  -0.147  -0.046   0.234
    1UNL     H5   29   0.005   0.043   0.201
    1UNL     H6   30  -0.362   0.018   0.092
    1UNL     H7   31  -0.292  -0.128   0.083
    1UNL     H8   32  -0.445  -0.095  -0.104
    1UNL     H9   33  -0.320   0.004  -0.183
    1UNL    H10   34  -0.266  -0.212  -0.278
    1UNL    H11   35  -0.277  -0.306  -0.127
    1UNL    H12   36   0.198  -0.082  -0.243
    1UNL    H13   37   0.183  -0.199   0.180
    1UNL    H14   38   0.375  -0.105   0.318
    1UNL    H15   39   0.526   0.036   0.208
    1UNL    H16   40   0.451   0.158  -0.004
    1UNL    H17   41   0.305   0.143  -0.209
    1UNL    H18   42   0.004   0.296  -0.007
    1UNL    H19   43   0.080   0.161   0.042
    1UNL    H20   44  -0.195   0.195  -0.068
    1UNL    H21   45  -0.106   0.076  -0.173
    1UNL    H22   46  -0.026  -0.310   0.038
   0.00000   0.00000   0.00000   0.00000   0.00000   0.00000   0.00000   0.00000   0.00000
Generated with MDTraj, t= 23.0
 46
    1UNL     C1    1  -0.140   0.155   0.230
    1UNL     C2    2  -0.092   0.030   0.172
    1UNL     C3    3  -0.129   0.007   0.023
    1UNL     C4    4  -0.278  -0.036   0.019
    1UNL     C5    5  -0.333  -0.090  -0.110
    1UNL     C6    6  -0.254  -0.212  -0.154
    1UNL     N1    7  -0.115  -0.175  -0.151
    1UNL     C7    8  -0.021  -0.166  -0.258
    1UNL     O1    9  -0.057  -0.194  -0.372
    1UNL     C8   10   0.101  -0.113  -0.204
    1UNL     C9   11   0.091  -0.096  -0.071
    1UNL    C10   12   0.197  -0.046   0.026
    1UNL    C11   13   0.228  -0.111   0.146
    1UNL    C12   14   0.332  -0.069   0.226
    1UNL    C13   15   0.413   0.037   0.188
    1UNL    C14   16   0.385   0.106   0.074
    1UNL    C15   17   0.282   0.063  -0.009
    1UNL     N2   18   0.245   0.139  -0.128
    1UNL    C16   19   0.123   0.190  -0.163
    1UNL     O2   20   0.084   0.216  -0.275
    1UNL    C17   21   0.025   0.203  -0.050
    1UNL    C18   22  -0.107   0.136  -0.072
    1UNL    C19   23  -0.053  -0.126  -0.023
    1UNL     O3   24  -0.062  -0.220   0.084
    1UNL     H1   25  -0.144   0.148   0.340
    1UNL     H2   26  -0.241   0.167   0.210
    1UNL     H3   27  -0.097   0.239   0.184
    1UNL     H4   28  -0.120  -0.064   0.221
    1UNL     H5   29   0.022   0.017   0.184
    1UNL     H6   30  -0.350   0.035   0.067
    1UNL     H7   31  -0.283  -0.116   0.086
    1UNL     H8   32  -0.441  -0.114  -0.099
    1UNL     H9   33  -0.328  -0.007  -0.183
    1UNL    H10   34  -0.265  -0.245  -0.260
    1UNL    H11   35  -0.279  -0.299  -0.084
    1UNL    H12   36   0.177  -0.078  -0.263
    1UNL    H13   37   0.175  -0.208   0.166
    1UNL    H14   38   0.362  -0.122   0.312
    1UNL    H15   39   0.480   0.073   0.264
    1UNL    H16   40   0.456   0.184   0.047
    1UNL    H17   41   0.317   0.150  -0.204
    1UNL    H18   42   0.024   0.310  -0.023
    1UNL    H19   43   0.073   0.172   0.045
    1UNL    H20   44  -0.190   0.214  -0.054
    1UNL    H21   45  -0.106   0.115  -0.179
    1UNL    H22   46  -0.032  -0.305   0.056
   0.00000   0.00000   0.00000   0.00000   0.00000   0.00000   0.00000   0.00000   0.00000
Generated with MDTraj, t= 24.0
 46
    1UNL     C1    1  -0.161   0.148   0.241
    1UNL     C2    2  -0.079   0.035   0.171
    1UNL     C3    3  -0.125   0.002   0.028
    1UNL     C4    4  -0.272  -0.041   0.047
    1UNL     C5    5  -0.337  -0.084  -0.092
    1UNL     C6    6  -0.253  -0.199  -0.155
    1UNL     N1    7  -0.111  -0.172  -0.150
    1UNL     C7    8  -0.027  -0.163  -0.260
    1UNL     O1    9  -0.058  -0.194  -0.373
    1UNL     C8   10   0.103  -0.116  -0.211
    1UNL     C9   11   0.096  -0.093  -0.076
    1UNL    C10   12   0.198  -0.047   0.023
    1UNL    C11   13   0.223  -0.112   0.147
    1UNL    C12   14   0.316  -0.068   0.236
    1UNL    C13   15   0.400   0.031   0.195
    1UNL    C14   16   0.377   0.106   0.079
    1UNL    C15   17   0.277   0.067  -0.010
    1UNL     N2   18   0.252   0.135  -0.132
    1UNL    C16   19   0.126   0.184  -0.172
    1UNL     O2   20   0.100   0.221  -0.286
    1UNL    C17   21   0.021   0.209  -0.069
    1UNL    C18   22  -0.106   0.124  -0.072
    1UNL    C19   23  -0.047  -0.125  -0.028
    1UNL     O3   24  -0.052  -0.225   0.071
    1UNL     H1   25  -0.108   0.199   0.322
    1UNL     H2   26  -0.238   0.107   0.295
    1UNL     H3   27  -0.202   0.207   0.160
    1UNL     H4   28  -0.074  -0.048   0.241
    1UNL     H5   29   0.032   0.063   0.161
    1UNL     H6   30  -0.318   0.052   0.085
    1UNL     H7   31  -0.290  -0.111   0.125
    1UNL     H8   32  -0.444  -0.114  -0.076
    1UNL     H9   33  -0.340  -0.000  -0.164
    1UNL    H10   34  -0.309  -0.227  -0.251
    1UNL    H11   35  -0.249  -0.288  -0.087
    1UNL    H12   36   0.199  -0.124  -0.268
    1UNL    H13   37   0.159  -0.190   0.174
    1UNL    H14   38   0.322  -0.125   0.329
    1UNL    H15   39   0.483   0.061   0.258
    1UNL    H16   40   0.441   0.191   0.073
    1UNL    H17   41   0.335   0.158  -0.197
    1UNL    H18   42  -0.004   0.316  -0.073
    1UNL    H19   43   0.066   0.209   0.030
    1UNL    H20   44  -0.191   0.203  -0.073
    1UNL    H21   45  -0.099   0.085  -0.173
    1UNL    H22   46  -0.021  -0.314   0.031
   0.00000   0.00000   0.00000   0.00000   0.00000   0.00000   0.00000   0.00000   0.00000
Generated with MDTraj, t= 25.0
 46
    1UNL     C1    1  -0.137   0.159   0.246
    1UNL     C2    2  -0.087   0.023   0.183
    1UNL     C3    3  -0.134   0.001   0.034
    1UNL     C4    4  -0.284  -0.031   0.030
    1UNL     C5    5  -0.334  -0.087  -0.106
    1UNL     C6    6  -0.250  -0.198  -0.160
    1UNL     N1    7  -0.112  -0.166  -0.149
    1UNL     C7    8  -0.023  -0.168  -0.258
    1UNL     O1    9  -0.038  -0.192  -0.376
    1UNL     C8   10   0.106  -0.125  -0.201
    1UNL     C9   11   0.103  -0.106  -0.063
    1UNL    C10   12   0.202  -0.050   0.025
    1UNL    C11   13   0.222  -0.107   0.153
    1UNL    C12   14   0.330  -0.066   0.229
    1UNL    C13   15   0.398   0.041   0.192
    1UNL    C14   16   0.385   0.099   0.063
    1UNL    C15   17   0.277   0.060  -0.017
    1UNL     N2   18   0.237   0.123  -0.140
    1UNL    C16   19   0.114   0.190  -0.171
    1UNL     O2   20   0.097   0.235  -0.284
    1UNL    C17   21   0.015   0.208  -0.060
    1UNL    C18   22  -0.112   0.122  -0.064
    1UNL    C19   23  -0.047  -0.122  -0.021
    1UNL     O3   24  -0.059  -0.227   0.072
    1UNL     H1   25  -0.153   0.161   0.352
    1UNL     H2   26  -0.234   0.174   0.209
    1UNL     H3   27  -0.082   0.246   0.208
    1UNL     H4   28  -0.130  -0.059   0.242
    1UNL     H5   29   0.024   0.018   0.189
    1UNL     H6   30  -0.338   0.062   0.048
    1UNL     H7   31  -0.305  -0.099   0.113
    1UNL     H8   32  -0.440  -0.128  -0.091
    1UNL     H9   33  -0.341  -0.005  -0.178
    1UNL    H10   34  -0.269  -0.211  -0.273
    1UNL    H11   35  -0.296  -0.290  -0.115
    1UNL    H12   36   0.196  -0.112  -0.256
    1UNL    H13   37   0.159  -0.190   0.188
    1UNL    H14   38   0.340  -0.102   0.330
    1UNL    H15   39   0.486   0.066   0.252
    1UNL    H16   40   0.430   0.196   0.046
    1UNL    H17   41   0.311   0.134  -0.213
    1UNL    H18   42  -0.005   0.316  -0.054
    1UNL    H19   43   0.066   0.190   0.032
    1UNL    H20   44  -0.200   0.194  -0.046
    1UNL    H21   45  -0.112   0.092  -0.170
    1UNL    H22   46  -0.035  -0.310   0.019
   0.00000   0.00000   0.00000   0.00000   0.00000   0.00000   0.00000   0.00000   0.00000
Generated with MDTraj, t= 26.0
 46
    1UNL     C1    1  -0.156   0.165   0.229
    1UNL     C2    2  -0.109   0.033   0.182
    1UNL     C3    3  -0.134   0.000   0.026
    1UNL     C4    4  -0.286  -0.025   0.013
    1UNL     C5    5  -0.344  -0.081  -0.125
    1UNL     C6    6  -0.249  -0.195  -0.173
    1UNL     N1    7  -0.106  -0.169  -0.143
    1UNL     C7    8  -0.021  -0.173  -0.257
    1UNL     O1    9  -0.042  -0.214  -0.374
    1UNL     C8   10   0.102  -0.120  -0.194
    1UNL     C9   11   0.093  -0.101  -0.059
    1UNL    C10   12   0.207  -0.051   0.021
    1UNL    C11   13   0.233  -0.107   0.145
    1UNL    C12   14   0.333  -0.058   0.220
    1UNL    C13   15   0.428   0.032   0.172
    1UNL    C14   16   0.399   0.095   0.054
    1UNL    C15   17   0.293   0.054  -0.024
    1UNL     N2   18   0.245   0.142  -0.131
    1UNL    C16   19   0.120   0.200  -0.150
    1UNL     O2   20   0.073   0.234  -0.254
    1UNL    C17   21   0.021   0.197  -0.035
    1UNL    C18   22  -0.104   0.119  -0.066
    1UNL    C19   23  -0.052  -0.128  -0.017
    1UNL     O3   24  -0.063  -0.231   0.088
    1UNL     H1   25  -0.112   0.205   0.314
    1UNL     H2   26  -0.259   0.167   0.263
    1UNL     H3   27  -0.153   0.243   0.154
    1UNL     H4   28  -0.150  -0.053   0.237
    1UNL     H5   29  -0.002   0.032   0.197
    1UNL     H6   30  -0.338   0.067   0.033
    1UNL     H7   31  -0.308  -0.095   0.099
    1UNL     H8   32  -0.455  -0.109  -0.113
    1UNL     H9   33  -0.331  -0.003  -0.199
    1UNL    H10   34  -0.262  -0.213  -0.287
    1UNL    H11   35  -0.285  -0.288  -0.126
    1UNL    H12   36   0.188  -0.117  -0.254
    1UNL    H13   37   0.158  -0.169   0.192
    1UNL    H14   38   0.351  -0.099   0.317
    1UNL    H15   39   0.501   0.073   0.239
    1UNL    H16   40   0.462   0.176   0.020
    1UNL    H17   41   0.303   0.149  -0.211
    1UNL    H18   42  -0.005   0.302  -0.014
    1UNL    H19   43   0.077   0.165   0.049
    1UNL    H20   44  -0.197   0.187  -0.052
    1UNL    H21   45  -0.113   0.088  -0.169
    1UNL    H22   46  -0.037  -0.317   0.056
   0.00000   0.00000   0.00000   0.00000   0.00000   0.00000   0.00000   0.00000   0.00000
Generated with MDTraj, t= 27.0
 46
    1UNL     C1    1  -0.213   0.139   0.252
    1UNL     C2    2  -0.113   0.043   0.179
    1UNL     C3    3  -0.138   0.008   0.022
    1UNL     C4    4  -0.297  -0.028   0.014
    1UNL     C5    5  -0.339  -0.097  -0.116
    1UNL     C6    6  -0.248  -0.213  -0.162
    1UNL     N1    7  -0.108  -0.181  -0.143
    1UNL     C7    8  -0.012  -0.174  -0.240
    1UNL     O1    9  -0.038  -0.219  -0.349
    1UNL     C8   10   0.110  -0.114  -0.194
    1UNL     C9   11   0.094  -0.098  -0.065
    1UNL    C10   12   0.196  -0.044   0.022
    1UNL    C11   13   0.226  -0.105   0.146
    1UNL    C12   14   0.344  -0.082   0.206
    1UNL    C13   15   0.437   0.009   0.155
    1UNL    C14   16   0.398   0.083   0.049
    1UNL    C15   17   0.278   0.061  -0.024
    1UNL     N2   18   0.242   0.137  -0.137
    1UNL    C16   19   0.126   0.212  -0.163
    1UNL     O2   20   0.116   0.262  -0.270
    1UNL    C17   21   0.027   0.228  -0.048
    1UNL    C18   22  -0.101   0.133  -0.064
    1UNL    C19   23  -0.049  -0.124  -0.016
    1UNL     O3   24  -0.061  -0.213   0.092
    1UNL     H1   25  -0.197   0.148   0.353
    1UNL     H2   26  -0.316   0.099   0.242
    1UNL     H3   27  -0.210   0.234   0.202
    1UNL     H4   28  -0.138  -0.052   0.233
    1UNL     H5   29  -0.012   0.072   0.198
    1UNL     H6   30  -0.345   0.067   0.021
    1UNL     H7   31  -0.328  -0.091   0.105
    1UNL     H8   32  -0.443  -0.144  -0.102
    1UNL     H9   33  -0.351  -0.025  -0.196
    1UNL    H10   34  -0.258  -0.232  -0.278
    1UNL    H11   35  -0.273  -0.308  -0.115
    1UNL    H12   36   0.195  -0.076  -0.257
    1UNL    H13   37   0.172  -0.194   0.167
    1UNL    H14   38   0.367  -0.125   0.304
    1UNL    H15   39   0.538   0.024   0.191
    1UNL    H16   40   0.469   0.144   0.000
    1UNL    H17   41   0.310   0.151  -0.203
    1UNL    H18   42  -0.006   0.333  -0.037
    1UNL    H19   43   0.075   0.195   0.042
    1UNL    H20   44  -0.188   0.209  -0.054
    1UNL    H21   45  -0.106   0.094  -0.165
    1UNL    H22   46  -0.050  -0.300   0.050
   0.00000   0.00000   0.00000   0.00000   0.00000   0.00000   0.00000   0.00000   0.00000
Generated with MDTraj, t= 28.0
 46
    1UNL     C1    1  -0.211   0.161   0.235
    1UNL     C2    2  -0.127   0.039   0.177
    1UNL     C3    3  -0.137   0.009   0.028
    1UNL     C4    4  -0.285  -0.024   0.005
    1UNL     C5    5  -0.324  -0.086  -0.129
    1UNL     C6    6  -0.243  -0.213  -0.155
    1UNL     N1    7  -0.105  -0.183  -0.138
    1UNL     C7    8  -0.024  -0.179  -0.248
    1UNL     O1    9  -0.055  -0.217  -0.359
    1UNL     C8   10   0.101  -0.129  -0.195
    1UNL     C9   11   0.083  -0.092  -0.063
    1UNL    C10   12   0.198  -0.049   0.019
    1UNL    C11   13   0.233  -0.108   0.138
    1UNL    C12   14   0.354  -0.086   0.209
    1UNL    C13   15   0.437   0.014   0.155
    1UNL    C14   16   0.403   0.091   0.049
    1UNL    C15   17   0.282   0.060  -0.022
    1UNL     N2   18   0.251   0.153  -0.125
    1UNL    C16   19   0.125   0.210  -0.150
    1UNL     O2   20   0.094   0.262  -0.256
    1UNL    C17   21   0.028   0.199  -0.036
    1UNL    C18   22  -0.104   0.129  -0.079
    1UNL    C19   23  -0.054  -0.119  -0.013
    1UNL     O3   24  -0.052  -0.220   0.098
    1UNL     H1   25  -0.182   0.198   0.332
    1UNL     H2   26  -0.319   0.144   0.240
    1UNL     H3   27  -0.189   0.232   0.161
    1UNL     H4   28  -0.151  -0.056   0.233
    1UNL     H5   29  -0.024   0.062   0.197
    1UNL     H6   30  -0.332   0.071   0.011
    1UNL     H7   31  -0.323  -0.095   0.088
    1UNL     H8   32  -0.435  -0.118  -0.125
    1UNL     H9   33  -0.313  -0.018  -0.212
    1UNL    H10   34  -0.265  -0.255  -0.264
    1UNL    H11   35  -0.259  -0.299  -0.090
    1UNL    H12   36   0.190  -0.113  -0.244
    1UNL    H13   37   0.164  -0.184   0.178
    1UNL    H14   38   0.378  -0.130   0.304
    1UNL    H15   39   0.537   0.005   0.198
    1UNL    H16   40   0.473   0.165   0.008
    1UNL    H17   41   0.318   0.167  -0.201
    1UNL    H18   42   0.004   0.301  -0.006
    1UNL    H19   43   0.076   0.140   0.047
    1UNL    H20   44  -0.196   0.198  -0.083
    1UNL    H21   45  -0.086   0.099  -0.182
    1UNL    H22   46   0.007  -0.301   0.073
   0.00000   0.00000   0.00000   0.00000   0.00000   0.00000   0.00000   0.00000   0.00000
Generated with MDTraj, t= 29.0
 46
    1UNL     C1    1  -0.164   0.176   0.229
    1UNL     C2    2  -0.115   0.040   0.174
    1UNL     C3    3  -0.138   0.006   0.023
    1UNL     C4    4  -0.298  -0.030   0.006
    1UNL     C5    5  -0.329  -0.092  -0.128
    1UNL     C6    6  -0.248  -0.219  -0.152
    1UNL     N1    7  -0.105  -0.184  -0.144
    1UNL     C7    8  -0.020  -0.174  -0.250
    1UNL     O1    9  -0.046  -0.209  -0.363
    1UNL     C8   10   0.102  -0.113  -0.196
    1UNL     C9   11   0.092  -0.095  -0.061
    1UNL    C10   12   0.198  -0.050   0.031
    1UNL    C11   13   0.236  -0.123   0.147
    1UNL    C12   14   0.351  -0.075   0.213
    1UNL    C13   15   0.427   0.029   0.162
    1UNL    C14   16   0.399   0.091   0.044
    1UNL    C15   17   0.279   0.057  -0.023
    1UNL     N2   18   0.240   0.135  -0.131
    1UNL    C16   19   0.119   0.201  -0.148
    1UNL     O2   20   0.093   0.268  -0.248
    1UNL    C17   21   0.022   0.188  -0.036
    1UNL    C18   22  -0.109   0.118  -0.072
    1UNL    C19   23  -0.051  -0.125  -0.017
    1UNL     O3   24  -0.067  -0.209   0.084
    1UNL     H1   25  -0.160   0.195   0.338
    1UNL     H2   26  -0.266   0.203   0.208
    1UNL     H3   27  -0.103   0.250   0.190
    1UNL     H4   28  -0.150  -0.051   0.230
    1UNL     H5   29  -0.010   0.030   0.196
    1UNL     H6   30  -0.360   0.056   0.009
    1UNL     H7   31  -0.319  -0.111   0.088
    1UNL     H8   32  -0.438  -0.127  -0.129
    1UNL     H9   33  -0.316  -0.019  -0.208
    1UNL    H10   34  -0.263  -0.272  -0.256
    1UNL    H11   35  -0.272  -0.297  -0.080
    1UNL    H12   36   0.177  -0.075  -0.268
    1UNL    H13   37   0.164  -0.166   0.212
    1UNL    H14   38   0.380  -0.142   0.295
    1UNL    H15   39   0.513   0.058   0.219
    1UNL    H16   40   0.460   0.162  -0.006
    1UNL    H17   41   0.316   0.182  -0.191
    1UNL    H18   42   0.009   0.285   0.008
    1UNL    H19   43   0.082   0.125   0.036
    1UNL    H20   44  -0.195   0.194  -0.073
    1UNL    H21   45  -0.123   0.057  -0.163
    1UNL    H22   46  -0.011  -0.285   0.072
   0.00000   0.00000   0.00000   0.00000   0.00000   0.00000   0.00000   0.00000   0.00000
Generated with MDTraj, t= 30.0
 46
    1UNL     C1    1  -0.169   0.156   0.227
    1UNL     C2    2  -0.086   0.044   0.164
    1UNL     C3    3  -0.127   0.003   0.030
    1UNL     C4    4  -0.284  -0.036   0.033
    1UNL     C5    5  -0.326  -0.081  -0.105
    1UNL     C6    6  -0.250  -0.203  -0.161
    1UNL     N1    7  -0.104  -0.175  -0.147
    1UNL     C7    8  -0.027  -0.167  -0.257
    1UNL     O1    9  -0.049  -0.209  -0.373
    1UNL     C8   10   0.100  -0.127  -0.195
    1UNL     C9   11   0.089  -0.100  -0.066
    1UNL    C10   12   0.190  -0.048   0.028
    1UNL    C11   13   0.220  -0.108   0.149
    1UNL    C12   14   0.335  -0.072   0.223
    1UNL    C13   15   0.420   0.026   0.172
    1UNL    C14   16   0.390   0.090   0.056
    1UNL    C15   17   0.270   0.066  -0.007
    1UNL     N2   18   0.246   0.140  -0.132
    1UNL    C16   19   0.125   0.200  -0.160
    1UNL     O2   20   0.102   0.255  -0.269
    1UNL    C17   21   0.015   0.210  -0.049
    1UNL    C18   22  -0.113   0.117  -0.073
    1UNL    C19   23  -0.050  -0.128  -0.020
    1UNL     O3   24  -0.056  -0.231   0.085
    1UNL     H1   25  -0.127   0.181   0.327
    1UNL     H2   26  -0.269   0.125   0.241
    1UNL     H3   27  -0.153   0.244   0.170
    1UNL     H4   28  -0.106  -0.049   0.224
    1UNL     H5   29   0.019   0.061   0.177
    1UNL     H6   30  -0.337   0.051   0.061
    1UNL     H7   31  -0.300  -0.126   0.104
    1UNL     H8   32  -0.438  -0.102  -0.107
    1UNL     H9   33  -0.311   0.001  -0.178
    1UNL    H10   34  -0.264  -0.227  -0.274
    1UNL    H11   35  -0.279  -0.298  -0.112
    1UNL    H12   36   0.190  -0.118  -0.253
    1UNL    H13   37   0.160  -0.194   0.188
    1UNL    H14   38   0.335  -0.091   0.329
    1UNL    H15   39   0.521   0.039   0.213
    1UNL    H16   40   0.457   0.168   0.024
    1UNL    H17   41   0.326   0.185  -0.188
    1UNL    H18   42  -0.025   0.309  -0.049
    1UNL    H19   43   0.063   0.184   0.051
    1UNL    H20   44  -0.218   0.163  -0.062
    1UNL    H21   45  -0.108   0.081  -0.176
    1UNL    H22   46  -0.008  -0.309   0.059
   0.00000   0.00000   0.00000   0.00000   0.00000   0.00000   0.00000   0.00000   0.00000
Generated with MDTraj, t= 31.0
 46
    1UNL     C1    1  -0.156   0.143   0.243
    1UNL     C2    2  -0.081   0.029   0.178
    1UNL     C3    3  -0.127   0.006   0.026
    1UNL     C4    4  -0.280  -0.028   0.022
    1UNL     C5    5  -0.345  -0.087  -0.104
    1UNL     C6    6  -0.256  -0.203  -0.158
    1UNL     N1    7  -0.111  -0.168  -0.151
    1UNL     C7    8  -0.025  -0.166  -0.257
    1UNL     O1    9  -0.047  -0.204  -0.370
    1UNL     C8   10   0.107  -0.126  -0.206
    1UNL     C9   11   0.093  -0.097  -0.075
    1UNL    C10   12   0.193  -0.046   0.017
    1UNL    C11   13   0.224  -0.114   0.138
    1UNL    C12   14   0.327  -0.068   0.224
    1UNL    C13   15   0.401   0.042   0.195
    1UNL    C14   16   0.374   0.114   0.075
    1UNL    C15   17   0.281   0.062  -0.018
    1UNL     N2   18   0.251   0.141  -0.133
    1UNL    C16   19   0.122   0.188  -0.167
    1UNL     O2   20   0.099   0.212  -0.284
    1UNL    C17   21   0.034   0.204  -0.047
    1UNL    C18   22  -0.110   0.135  -0.052
    1UNL    C19   23  -0.049  -0.119  -0.026
    1UNL     O3   24  -0.060  -0.221   0.076
    1UNL     H1   25  -0.105   0.168   0.339
    1UNL     H2   26  -0.254   0.117   0.268
    1UNL     H3   27  -0.137   0.235   0.188
    1UNL     H4   28  -0.076  -0.061   0.244
    1UNL     H5   29   0.022   0.061   0.182
    1UNL     H6   30  -0.325   0.066   0.046
    1UNL     H7   31  -0.283  -0.099   0.111
    1UNL     H8   32  -0.439  -0.143  -0.078
    1UNL     H9   33  -0.376  -0.013  -0.182
    1UNL    H10   34  -0.282  -0.218  -0.267
    1UNL    H11   35  -0.270  -0.304  -0.110
    1UNL    H12   36   0.201  -0.109  -0.251
    1UNL    H13   37   0.182  -0.207   0.158
    1UNL    H14   38   0.344  -0.105   0.324
    1UNL    H15   39   0.454   0.090   0.275
    1UNL    H16   40   0.441   0.191   0.040
    1UNL    H17   41   0.321   0.134  -0.209
    1UNL    H18   42   0.015   0.308  -0.026
    1UNL    H19   43   0.083   0.157   0.037
    1UNL    H20   44  -0.188   0.211  -0.016
    1UNL    H21   45  -0.143   0.109  -0.154
    1UNL    H22   46  -0.006  -0.295   0.028
   0.00000   0.00000   0.00000   0.00000   0.00000   0.00000   0.00000   0.00000   0.00000
Generated with MDTraj, t= 32.0
 46
    1UNL     C1    1  -0.142   0.155   0.239
    1UNL     C2    2  -0.079   0.028   0.178
    1UNL     C3    3  -0.127  -0.001   0.035
    1UNL     C4    4  -0.283  -0.033   0.032
    1UNL     C5    5  -0.325  -0.070  -0.112
    1UNL     C6    6  -0.250  -0.183  -0.176
    1UNL     N1    7  -0.111  -0.171  -0.148
    1UNL     C7    8  -0.021  -0.164  -0.253
    1UNL     O1    9  -0.041  -0.194  -0.369
    1UNL     C8   10   0.105  -0.121  -0.199
    1UNL     C9   11   0.093  -0.103  -0.062
    1UNL    C10   12   0.198  -0.054   0.022
    1UNL    C11   13   0.222  -0.111   0.144
    1UNL    C12   14   0.312  -0.059   0.225
    1UNL    C13   15   0.405   0.040   0.187
    1UNL    C14   16   0.382   0.109   0.070
    1UNL    C15   17   0.283   0.055  -0.017
    1UNL     N2   18   0.242   0.140  -0.130
    1UNL    C16   19   0.113   0.181  -0.170
    1UNL     O2   20   0.080   0.199  -0.283
    1UNL    C17   21   0.020   0.210  -0.054
    1UNL    C18   22  -0.115   0.134  -0.053
    1UNL    C19   23  -0.051  -0.127  -0.025
    1UNL     O3   24  -0.046  -0.237   0.073
    1UNL     H1   25  -0.116   0.178   0.342
    1UNL     H2   26  -0.246   0.138   0.252
    1UNL     H3   27  -0.120   0.251   0.190
    1UNL     H4   28  -0.095  -0.063   0.242
    1UNL     H5   29   0.030   0.027   0.180
    1UNL     H6   30  -0.341   0.055   0.062
    1UNL     H7   31  -0.299  -0.120   0.098
    1UNL     H8   32  -0.429  -0.109  -0.108
    1UNL     H9   33  -0.320   0.019  -0.184
    1UNL    H10   34  -0.262  -0.196  -0.286
    1UNL    H11   35  -0.278  -0.281  -0.123
    1UNL    H12   36   0.187  -0.084  -0.265
    1UNL    H13   37   0.156  -0.197   0.170
    1UNL    H14   38   0.318  -0.110   0.320
    1UNL    H15   39   0.488   0.076   0.249
    1UNL    H16   40   0.445   0.190   0.036
    1UNL    H17   41   0.313   0.153  -0.198
    1UNL    H18   42  -0.003   0.316  -0.057
    1UNL    H19   43   0.070   0.188   0.035
    1UNL    H20   44  -0.208   0.197  -0.034
    1UNL    H21   45  -0.139   0.096  -0.153
    1UNL    H22   46  -0.001  -0.316   0.037
   0.00000   0.00000   0.00000   0.00000   0.00000   0.00000   0.00000   0.00000   0.00000
Generated with MDTraj, t= 33.0
 46
    1UNL     C1    1  -0.160   0.166   0.231
    1UNL     C2    2  -0.095   0.036   0.169
    1UNL     C3    3  -0.137   0.000   0.032
    1UNL     C4    4  -0.287  -0.038   0.032
    1UNL     C5    5  -0.347  -0.095  -0.101
    1UNL     C6    6  -0.248  -0.195  -0.162
    1UNL     N1    7  -0.108  -0.162  -0.149
    1UNL     C7    8  -0.014  -0.158  -0.254
    1UNL     O1    9  -0.040  -0.189  -0.368
    1UNL     C8   10   0.110  -0.115  -0.192
    1UNL     C9   11   0.093  -0.103  -0.057
    1UNL    C10   12   0.204  -0.055   0.028
    1UNL    C11   13   0.232  -0.108   0.158
    1UNL    C12   14   0.334  -0.063   0.229
    1UNL    C13   15   0.417   0.043   0.181
    1UNL    C14   16   0.395   0.092   0.052
    1UNL    C15   17   0.286   0.053  -0.023
    1UNL     N2   18   0.247   0.131  -0.137
    1UNL    C16   19   0.118   0.192  -0.166
    1UNL     O2   20   0.097   0.234  -0.275
    1UNL    C17   21   0.013   0.205  -0.052
    1UNL    C18   22  -0.112   0.122  -0.065
    1UNL    C19   23  -0.054  -0.131  -0.017
    1UNL     O3   24  -0.075  -0.243   0.062
    1UNL     H1   25  -0.134   0.175   0.332
    1UNL     H2   26  -0.267   0.145   0.235
    1UNL     H3   27  -0.132   0.264   0.185
    1UNL     H4   28  -0.108  -0.052   0.235
    1UNL     H5   29   0.016   0.054   0.171
    1UNL     H6   30  -0.341   0.057   0.051
    1UNL     H7   31  -0.297  -0.106   0.113
    1UNL     H8   32  -0.448  -0.141  -0.090
    1UNL     H9   33  -0.360  -0.009  -0.176
    1UNL    H10   34  -0.258  -0.223  -0.268
    1UNL    H11   35  -0.261  -0.294  -0.103
    1UNL    H12   36   0.200  -0.115  -0.244
    1UNL    H13   37   0.167  -0.184   0.192
    1UNL    H14   38   0.356  -0.096   0.330
    1UNL    H15   39   0.517   0.039   0.219
    1UNL    H16   40   0.445   0.185   0.028
    1UNL    H17   41   0.323   0.174  -0.179
    1UNL    H18   42  -0.023   0.307  -0.056
    1UNL    H19   43   0.054   0.194   0.044
    1UNL    H20   44  -0.201   0.187  -0.036
    1UNL    H21   45  -0.141   0.096  -0.170
    1UNL    H22   46  -0.034  -0.318   0.025
   0.00000   0.00000   0.00000   0.00000   0.00000   0.00000   0.00000   0.00000   0.00000
Generated with MDTraj, t= 34.0
 46
    1UNL     C1    1  -0.173   0.157   0.233
    1UNL     C2    2  -0.104   0.038   0.173
    1UNL     C3    3  -0.134   0.002   0.026
    1UNL     C4    4  -0.285  -0.028   0.005
    1UNL     C5    5  -0.323  -0.082  -0.133
    1UNL     C6    6  -0.248  -0.211  -0.159
    1UNL     N1    7  -0.111  -0.187  -0.133
    1UNL     C7    8  -0.027  -0.182  -0.241
    1UNL     O1    9  -0.052  -0.203  -0.359
    1UNL     C8   10   0.100  -0.116  -0.197
    1UNL     C9   11   0.099  -0.097  -0.064
    1UNL    C10   12   0.197  -0.036   0.021
    1UNL    C11   13   0.226  -0.113   0.140
    1UNL    C12   14   0.339  -0.083   0.213
    1UNL    C13   15   0.418   0.020   0.172
    1UNL    C14   16   0.390   0.087   0.057
    1UNL    C15   17   0.283   0.063  -0.023
    1UNL     N2   18   0.249   0.142  -0.135
    1UNL    C16   19   0.119   0.204  -0.155
    1UNL     O2   20   0.086   0.256  -0.259
    1UNL    C17   21   0.021   0.198  -0.047
    1UNL    C18   22  -0.109   0.125  -0.074
    1UNL    C19   23  -0.047  -0.126  -0.013
    1UNL     O3   24  -0.049  -0.214   0.097
    1UNL     H1   25  -0.147   0.179   0.330
    1UNL     H2   26  -0.277   0.118   0.242
    1UNL     H3   27  -0.163   0.253   0.180
    1UNL     H4   28  -0.120  -0.047   0.242
    1UNL     H5   29   0.010   0.051   0.177
    1UNL     H6   30  -0.340   0.066   0.034
    1UNL     H7   31  -0.306  -0.107   0.068
    1UNL     H8   32  -0.433  -0.098  -0.138
    1UNL     H9   33  -0.303  -0.005  -0.219
    1UNL    H10   34  -0.262  -0.226  -0.265
    1UNL    H11   35  -0.280  -0.311  -0.108
    1UNL    H12   36   0.186  -0.094  -0.262
    1UNL    H13   37   0.139  -0.163   0.184
    1UNL    H14   38   0.384  -0.148   0.288
    1UNL    H15   39   0.507   0.044   0.233
    1UNL    H16   40   0.460   0.163   0.027
    1UNL    H17   41   0.319   0.179  -0.195
    1UNL    H18   42   0.004   0.299  -0.016
    1UNL    H19   43   0.068   0.148   0.037
    1UNL    H20   44  -0.193   0.199  -0.065
    1UNL    H21   45  -0.117   0.086  -0.178
    1UNL    H22   46   0.001  -0.296   0.075
   0.00000   0.00000   0.00000   0.00000   0.00000   0.00000   0.00000   0.00000   0.00000
Generated with MDTraj, t= 35.0
 46
    1UNL     C1    1  -0.198   0.161   0.220
    1UNL     C2    2  -0.118   0.044   0.169
    1UNL     C3    3  -0.141   0.013   0.021
    1UNL     C4    4  -0.291  -0.025   0.009
    1UNL     C5    5  -0.340  -0.108  -0.118
    1UNL     C6    6  -0.246  -0.223  -0.157
    1UNL     N1    7  -0.109  -0.186  -0.141
    1UNL     C7    8  -0.023  -0.186  -0.247
    1UNL     O1    9  -0.057  -0.228  -0.358
    1UNL     C8   10   0.098  -0.122  -0.195
    1UNL     C9   11   0.088  -0.086  -0.063
    1UNL    C10   12   0.208  -0.050   0.015
    1UNL    C11   13   0.231  -0.112   0.134
    1UNL    C12   14   0.352  -0.085   0.204
    1UNL    C13   15   0.436   0.014   0.160
    1UNL    C14   16   0.401   0.093   0.057
    1UNL    C15   17   0.289   0.063  -0.020
    1UNL     N2   18   0.249   0.140  -0.130
    1UNL    C16   19   0.130   0.208  -0.150
    1UNL     O2   20   0.098   0.283  -0.244
    1UNL    C17   21   0.032   0.196  -0.034
    1UNL    C18   22  -0.105   0.139  -0.068
    1UNL    C19   23  -0.057  -0.116  -0.015
    1UNL     O3   24  -0.055  -0.212   0.089
    1UNL     H1   25  -0.199   0.173   0.325
    1UNL     H2   26  -0.305   0.136   0.201
    1UNL     H3   27  -0.169   0.259   0.186
    1UNL     H4   28  -0.145  -0.048   0.226
    1UNL     H5   29  -0.005   0.052   0.187
    1UNL     H6   30  -0.342   0.074  -0.005
    1UNL     H7   31  -0.321  -0.067   0.099
    1UNL     H8   32  -0.450  -0.131  -0.114
    1UNL     H9   33  -0.330  -0.031  -0.205
    1UNL    H10   34  -0.261  -0.264  -0.255
    1UNL    H11   35  -0.270  -0.309  -0.085
    1UNL    H12   36   0.192  -0.116  -0.245
    1UNL    H13   37   0.170  -0.188   0.175
    1UNL    H14   38   0.348  -0.120   0.305
    1UNL    H15   39   0.511   0.053   0.224
    1UNL    H16   40   0.472   0.170   0.032
    1UNL    H17   41   0.320   0.170  -0.200
    1UNL    H18   42   0.018   0.290   0.013
    1UNL    H19   43   0.077   0.139   0.050
    1UNL    H20   44  -0.187   0.216  -0.060
    1UNL    H21   45  -0.101   0.113  -0.177
    1UNL    H22   46   0.019  -0.280   0.065
   0.00000   0.00000   0.00000   0.00000   0.00000   0.00000   0.00000   0.00000   0.00000
Generated with MDTraj, t= 36.0
 46
    1UNL     C1    1  -0.190   0.171   0.218
    1UNL     C2    2  -0.107   0.041   0.174
    1UNL     C3    3  -0.141  -0.001   0.020
    1UNL     C4    4  -0.295  -0.032   0.008
    1UNL     C5    5  -0.326  -0.085  -0.130
    1UNL     C6    6  -0.254  -0.212  -0.160
    1UNL     N1    7  -0.107  -0.196  -0.136
    1UNL     C7    8  -0.014  -0.186  -0.243
    1UNL     O1    9  -0.041  -0.223  -0.358
    1UNL     C8   10   0.104  -0.116  -0.189
    1UNL     C9   11   0.091  -0.098  -0.057
    1UNL    C10   12   0.197  -0.042   0.032
    1UNL    C11   13   0.234  -0.104   0.148
    1UNL    C12   14   0.359  -0.084   0.206
    1UNL    C13   15   0.444   0.006   0.152
    1UNL    C14   16   0.402   0.075   0.038
    1UNL    C15   17   0.272   0.065  -0.020
    1UNL     N2   18   0.235   0.151  -0.129
    1UNL    C16   19   0.115   0.216  -0.145
    1UNL     O2   20   0.108   0.287  -0.246
    1UNL    C17   21   0.011   0.215  -0.043
    1UNL    C18   22  -0.107   0.121  -0.071
    1UNL    C19   23  -0.056  -0.133  -0.016
    1UNL     O3   24  -0.058  -0.227   0.090
    1UNL     H1   25  -0.165   0.206   0.317
    1UNL     H2   26  -0.295   0.139   0.222
    1UNL     H3   27  -0.165   0.255   0.156
    1UNL     H4   28  -0.124  -0.047   0.241
    1UNL     H5   29   0.002   0.069   0.185
    1UNL     H6   30  -0.350   0.059   0.039
    1UNL     H7   31  -0.314  -0.111   0.077
    1UNL     H8   32  -0.438  -0.098  -0.137
    1UNL     H9   33  -0.299  -0.007  -0.212
    1UNL    H10   34  -0.272  -0.256  -0.255
    1UNL    H11   35  -0.298  -0.287  -0.086
    1UNL    H12   36   0.189  -0.099  -0.249
    1UNL    H13   37   0.180  -0.198   0.177
    1UNL    H14   38   0.371  -0.125   0.308
    1UNL    H15   39   0.541   0.027   0.204
    1UNL    H16   40   0.472   0.132  -0.021
    1UNL    H17   41   0.304   0.163  -0.210
    1UNL    H18   42  -0.026   0.313  -0.028
    1UNL    H19   43   0.063   0.196   0.054
    1UNL    H20   44  -0.194   0.192  -0.077
    1UNL    H21   45  -0.099   0.082  -0.176
    1UNL    H22   46  -0.146  -0.263   0.101
   0.00000   0.00000   0.00000   0.00000   0.00000   0.00000   0.00000   0.00000   0.00000
Generated with MDTraj, t= 37.0
 46
    1UNL     C1    1  -0.176   0.169   0.229
    1UNL     C2    2  -0.119   0.042   0.177
    1UNL     C3    3  -0.144   0.009   0.025
    1UNL     C4    4  -0.294  -0.025   0.011
    1UNL     C5    5  -0.335  -0.092  -0.124
    1UNL     C6    6  -0.249  -0.216  -0.156
    1UNL     N1    7  -0.113  -0.174  -0.141
    1UNL     C7    8  -0.022  -0.173  -0.251
    1UNL     O1    9  -0.029  -0.210  -0.369
    1UNL     C8   10   0.098  -0.127  -0.190
    1UNL     C9   11   0.084  -0.101  -0.060
    1UNL    C10   12   0.201  -0.047   0.020
    1UNL    C11   13   0.245  -0.115   0.130
    1UNL    C12   14   0.344  -0.074   0.218
    1UNL    C13   15   0.429   0.026   0.168
    1UNL    C14   16   0.405   0.091   0.049
    1UNL    C15   17   0.285   0.060  -0.023
    1UNL     N2   18   0.244   0.143  -0.130
    1UNL    C16   19   0.123   0.201  -0.150
    1UNL     O2   20   0.090   0.259  -0.252
    1UNL    C17   21   0.022   0.192  -0.041
    1UNL    C18   22  -0.113   0.128  -0.072
    1UNL    C19   23  -0.059  -0.120  -0.014
    1UNL     O3   24  -0.058  -0.223   0.090
    1UNL     H1   25  -0.150   0.187   0.337
    1UNL     H2   26  -0.283   0.172   0.229
    1UNL     H3   27  -0.127   0.250   0.182
    1UNL     H4   28  -0.171  -0.040   0.237
    1UNL     H5   29  -0.010   0.017   0.192
    1UNL     H6   30  -0.358   0.059   0.037
    1UNL     H7   31  -0.299  -0.104   0.088
    1UNL     H8   32  -0.446  -0.118  -0.123
    1UNL     H9   33  -0.326  -0.017  -0.210
    1UNL    H10   34  -0.261  -0.256  -0.254
    1UNL    H11   35  -0.262  -0.300  -0.083
    1UNL    H12   36   0.197  -0.138  -0.241
    1UNL    H13   37   0.180  -0.186   0.174
    1UNL    H14   38   0.389  -0.140   0.289
    1UNL    H15   39   0.517   0.041   0.222
    1UNL    H16   40   0.472   0.162   0.001
    1UNL    H17   41   0.324   0.174  -0.188
    1UNL    H18   42   0.018   0.296  -0.018
    1UNL    H19   43   0.069   0.146   0.044
    1UNL    H20   44  -0.199   0.196  -0.051
    1UNL    H21   45  -0.110   0.107  -0.183
    1UNL    H22   46   0.004  -0.290   0.064
   0.00000   0.00000   0.00000   0.00000   0.00000   0.00000   0.00000   0.00000   0.00000
Generated with MDTraj, t= 38.0
 46
    1UNL     C1    1  -0.173   0.147   0.243
    1UNL     C2    2  -0.091   0.041   0.178
    1UNL     C3    3  -0.130   0.002   0.028
    1UNL     C4    4  -0.288  -0.027   0.022
    1UNL     C5    5  -0.341  -0.080  -0.113
    1UNL     C6    6  -0.257  -0.202  -0.162
    1UNL     N1    7  -0.111  -0.185  -0.146
    1UNL     C7    8  -0.018  -0.174  -0.251
    1UNL     O1    9  -0.043  -0.195  -0.369
    1UNL     C8   10   0.106  -0.128  -0.195
    1UNL     C9   11   0.093  -0.095  -0.064
    1UNL    C10   12   0.201  -0.051   0.019
    1UNL    C11   13   0.220  -0.111   0.145
    1UNL    C12   14   0.325  -0.071   0.222
    1UNL    C13   15   0.407   0.034   0.180
    1UNL    C14   16   0.391   0.091   0.059
    1UNL    C15   17   0.282   0.061  -0.023
    1UNL     N2   18   0.248   0.153  -0.126
    1UNL    C16   19   0.119   0.194  -0.166
    1UNL     O2   20   0.086   0.223  -0.278
    1UNL    C17   21   0.030   0.208  -0.047
    1UNL    C18   22  -0.097   0.125  -0.063
    1UNL    C19   23  -0.048  -0.124  -0.021
    1UNL     O3   24  -0.048  -0.217   0.078
    1UNL     H1   25  -0.138   0.177   0.345
    1UNL     H2   26  -0.275   0.121   0.257
    1UNL     H3   27  -0.151   0.234   0.186
    1UNL     H4   28  -0.107  -0.063   0.228
    1UNL     H5   29   0.017   0.061   0.194
    1UNL     H6   30  -0.339   0.056   0.064
    1UNL     H7   31  -0.300  -0.117   0.089
    1UNL     H8   32  -0.451  -0.113  -0.103
    1UNL     H9   33  -0.347   0.001  -0.191
    1UNL    H10   34  -0.278  -0.219  -0.266
    1UNL    H11   35  -0.283  -0.293  -0.108
    1UNL    H12   36   0.196  -0.113  -0.242
    1UNL    H13   37   0.150  -0.186   0.181
    1UNL    H14   38   0.351  -0.128   0.312
    1UNL    H15   39   0.513   0.048   0.221
    1UNL    H16   40   0.432   0.190   0.047
    1UNL    H17   41   0.322   0.170  -0.188
    1UNL    H18   42   0.005   0.312  -0.043
    1UNL    H19   43   0.090   0.195   0.039
    1UNL    H20   44  -0.171   0.209  -0.059
    1UNL    H21   45  -0.100   0.085  -0.169
    1UNL    H22   46  -0.014  -0.302   0.028
   0.00000   0.00000   0.00000   0.00000   0.00000   0.00000   0.00000   0.00000   0.00000
Generated with MDTraj, t= 39.0
 46
    1UNL     C1    1  -0.155   0.142   0.248
    1UNL     C2    2  -0.075   0.037   0.167
    1UNL     C3    3  -0.122   0.006   0.030
    1UNL     C4    4  -0.276  -0.044   0.034
    1UNL     C5    5  -0.336  -0.095  -0.095
    1UNL     C6    6  -0.253  -0.197  -0.171
    1UNL     N1    7  -0.115  -0.156  -0.150
    1UNL     C7    8  -0.028  -0.152  -0.260
    1UNL     O1    9  -0.048  -0.199  -0.374
    1UNL     C8   10   0.096  -0.111  -0.196
    1UNL     C9   11   0.088  -0.102  -0.060
    1UNL    C10   12   0.195  -0.052   0.026
    1UNL    C11   13   0.223  -0.105   0.158
    1UNL    C12   14   0.324  -0.058   0.237
    1UNL    C13   15   0.409   0.042   0.191
    1UNL    C14   16   0.377   0.101   0.069
    1UNL    C15   17   0.272   0.057  -0.012
    1UNL     N2   18   0.242   0.128  -0.134
    1UNL    C16   19   0.125   0.182  -0.175
    1UNL     O2   20   0.104   0.215  -0.286
    1UNL    C17   21   0.028   0.218  -0.061
    1UNL    C18   22  -0.106   0.138  -0.068
    1UNL    C19   23  -0.054  -0.130  -0.022
    1UNL     O3   24  -0.055  -0.240   0.067
    1UNL     H1   25  -0.110   0.167   0.347
    1UNL     H2   26  -0.257   0.119   0.262
    1UNL     H3   27  -0.132   0.227   0.187
    1UNL     H4   28  -0.082  -0.061   0.231
    1UNL     H5   29   0.030   0.064   0.153
    1UNL     H6   30  -0.336   0.038   0.056
    1UNL     H7   31  -0.287  -0.119   0.120
    1UNL     H8   32  -0.445  -0.131  -0.070
    1UNL     H9   33  -0.361  -0.011  -0.163
    1UNL    H10   34  -0.277  -0.198  -0.277
    1UNL    H11   35  -0.272  -0.296  -0.132
    1UNL    H12   36   0.175  -0.066  -0.260
    1UNL    H13   37   0.166  -0.196   0.174
    1UNL    H14   38   0.344  -0.104   0.331
    1UNL    H15   39   0.480   0.083   0.254
    1UNL    H16   40   0.436   0.187   0.042
    1UNL    H17   41   0.307   0.137  -0.206
    1UNL    H18   42   0.008   0.322  -0.072
    1UNL    H19   43   0.076   0.210   0.031
    1UNL    H20   44  -0.187   0.212  -0.052
    1UNL    H21   45  -0.102   0.110  -0.177
    1UNL    H22   46  -0.026  -0.318   0.014
   0.00000   0.00000   0.00000   0.00000   0.00000   0.00000   0.00000   0.00000   0.00000
Generated with MDTraj, t= 40.0
 46
    1UNL     C1    1  -0.136   0.170   0.234
    1UNL     C2    2  -0.079   0.039   0.175
    1UNL     C3    3  -0.121  -0.000   0.026
    1UNL     C4    4  -0.274  -0.040   0.025
    1UNL     C5    5  -0.335  -0.079  -0.113
    1UNL     C6    6  -0.256  -0.199  -0.171
    1UNL     N1    7  -0.111  -0.169  -0.149
    1UNL     C7    8  -0.022  -0.160  -0.256
    1UNL     O1    9  -0.054  -0.187  -0.369
    1UNL     C8   10   0.109  -0.127  -0.205
    1UNL     C9   11   0.099  -0.104  -0.071
    1UNL    C10   12   0.200  -0.056   0.020
    1UNL    C11   13   0.230  -0.113   0.148
    1UNL    C12   14   0.318  -0.061   0.236
    1UNL    C13   15   0.397   0.043   0.192
    1UNL    C14   16   0.371   0.105   0.064
    1UNL    C15   17   0.272   0.060  -0.012
    1UNL     N2   18   0.245   0.133  -0.130
    1UNL    C16   19   0.116   0.186  -0.163
    1UNL     O2   20   0.078   0.220  -0.271
    1UNL    C17   21   0.025   0.203  -0.048
    1UNL    C18   22  -0.104   0.120  -0.065
    1UNL    C19   23  -0.045  -0.132  -0.020
    1UNL     O3   24  -0.057  -0.233   0.075
    1UNL     H1   25  -0.097   0.201   0.329
    1UNL     H2   26  -0.241   0.172   0.251
    1UNL     H3   27  -0.100   0.249   0.167
    1UNL     H4   28  -0.122  -0.055   0.229
    1UNL     H5   29   0.030   0.035   0.190
    1UNL     H6   30  -0.329   0.032   0.076
    1UNL     H7   31  -0.296  -0.135   0.087
    1UNL     H8   32  -0.451  -0.100  -0.105
    1UNL     H9   33  -0.335   0.008  -0.181
    1UNL    H10   34  -0.279  -0.213  -0.277
    1UNL    H11   35  -0.288  -0.287  -0.121
    1UNL    H12   36   0.198  -0.112  -0.263
    1UNL    H13   37   0.186  -0.209   0.174
    1UNL    H14   38   0.341  -0.099   0.337
    1UNL    H15   39   0.436   0.110   0.273
    1UNL    H16   40   0.438   0.177   0.024
    1UNL    H17   41   0.306   0.135  -0.209
    1UNL    H18   42   0.016   0.309  -0.049
    1UNL    H19   43   0.082   0.182   0.040
    1UNL    H20   44  -0.184   0.194  -0.048
    1UNL    H21   45  -0.108   0.085  -0.171
    1UNL    H22   46  -0.027  -0.310   0.031
   0.00000   0.00000   0.00000   0.00000   0.00000   0.00000   0.00000   0.00000   0.00000
Generated with MDTraj, t= 41.0
 46
    1UNL     C1    1  -0.158   0.148   0.252
    1UNL     C2    2  -0.098   0.032   0.182
    1UNL     C3    3  -0.139   0.009   0.030
    1UNL     C4    4  -0.296  -0.021   0.028
    1UNL     C5    5  -0.333  -0.092  -0.110
    1UNL     C6    6  -0.248  -0.212  -0.160
    1UNL     N1    7  -0.109  -0.172  -0.148
    1UNL     C7    8  -0.018  -0.178  -0.255
    1UNL     O1    9  -0.042  -0.204  -0.371
    1UNL     C8   10   0.106  -0.126  -0.196
    1UNL     C9   11   0.091  -0.088  -0.064
    1UNL    C10   12   0.201  -0.046   0.017
    1UNL    C11   13   0.221  -0.113   0.142
    1UNL    C12   14   0.326  -0.074   0.223
    1UNL    C13   15   0.407   0.032   0.184
    1UNL    C14   16   0.396   0.095   0.058
    1UNL    C15   17   0.281   0.069  -0.019
    1UNL     N2   18   0.247   0.142  -0.139
    1UNL    C16   19   0.123   0.197  -0.166
    1UNL     O2   20   0.098   0.244  -0.276
    1UNL    C17   21   0.027   0.200  -0.049
    1UNL    C18   22  -0.100   0.121  -0.075
    1UNL    C19   23  -0.054  -0.114  -0.017
    1UNL     O3   24  -0.064  -0.227   0.080
    1UNL     H1   25  -0.130   0.160   0.352
    1UNL     H2   26  -0.267   0.146   0.255
    1UNL     H3   27  -0.115   0.234   0.197
    1UNL     H4   28  -0.130  -0.062   0.240
    1UNL     H5   29   0.015   0.034   0.187
    1UNL     H6   30  -0.369   0.053   0.054
    1UNL     H7   31  -0.309  -0.105   0.103
    1UNL     H8   32  -0.448  -0.112  -0.110
    1UNL     H9   33  -0.328  -0.012  -0.187
    1UNL    H10   34  -0.283  -0.235  -0.261
    1UNL    H11   35  -0.259  -0.296  -0.099
    1UNL    H12   36   0.185  -0.098  -0.261
    1UNL    H13   37   0.160  -0.197   0.174
    1UNL    H14   38   0.322  -0.113   0.321
    1UNL    H15   39   0.491   0.062   0.239
    1UNL    H16   40   0.452   0.189   0.051
    1UNL    H17   41   0.323   0.185  -0.195
    1UNL    H18   42   0.009   0.301  -0.027
    1UNL    H19   43   0.089   0.167   0.035
    1UNL    H20   44  -0.184   0.191  -0.080
    1UNL    H21   45  -0.092   0.073  -0.176
    1UNL    H22   46  -0.020  -0.307   0.041
   0.00000   0.00000   0.00000   0.00000   0.00000   0.00000   0.00000   0.00000   0.00000
Generated with MDTraj, t= 42.0
 46
    1UNL     C1    1  -0.208   0.148   0.232
    1UNL     C2    2  -0.112   0.041   0.177
    1UNL     C3    3  -0.134   0.011   0.025
    1UNL     C4    4  -0.283  -0.028   0.018
    1UNL     C5    5  -0.331  -0.091  -0.115
    1UNL     C6    6  -0.251  -0.216  -0.154
    1UNL     N1    7  -0.108  -0.173  -0.146
    1UNL     C7    8  -0.016  -0.179  -0.251
    1UNL     O1    9  -0.046  -0.224  -0.361
    1UNL     C8   10   0.103  -0.118  -0.197
    1UNL     C9   11   0.085  -0.087  -0.067
    1UNL    C10   12   0.198  -0.044   0.030
    1UNL    C11   13   0.231  -0.112   0.148
    1UNL    C12   14   0.345  -0.077   0.221
    1UNL    C13   15   0.426   0.017   0.162
    1UNL    C14   16   0.405   0.080   0.041
    1UNL    C15   17   0.286   0.056  -0.023
    1UNL     N2   18   0.245   0.142  -0.133
    1UNL    C16   19   0.128   0.203  -0.154
    1UNL     O2   20   0.102   0.267  -0.257
    1UNL    C17   21   0.023   0.212  -0.046
    1UNL    C18   22  -0.109   0.130  -0.067
    1UNL    C19   23  -0.054  -0.120  -0.020
    1UNL     O3   24  -0.056  -0.219   0.083
    1UNL     H1   25  -0.174   0.191   0.320
    1UNL     H2   26  -0.303   0.103   0.261
    1UNL     H3   27  -0.215   0.232   0.159
    1UNL     H4   28  -0.133  -0.057   0.231
    1UNL     H5   29  -0.006   0.075   0.205
    1UNL     H6   30  -0.347   0.057   0.040
    1UNL     H7   31  -0.301  -0.095   0.105
    1UNL     H8   32  -0.447  -0.104  -0.116
    1UNL     H9   33  -0.321  -0.013  -0.195
    1UNL    H10   34  -0.262  -0.240  -0.261
    1UNL    H11   35  -0.280  -0.296  -0.096
    1UNL    H12   36   0.204  -0.110  -0.244
    1UNL    H13   37   0.151  -0.168   0.191
    1UNL    H14   38   0.386  -0.150   0.294
    1UNL    H15   39   0.523   0.030   0.215
    1UNL    H16   40   0.465   0.159   0.008
    1UNL    H17   41   0.310   0.136  -0.217
    1UNL    H18   42  -0.010   0.312  -0.045
    1UNL    H19   43   0.064   0.197   0.056
    1UNL    H20   44  -0.187   0.207  -0.065
    1UNL    H21   45  -0.109   0.092  -0.172
    1UNL    H22   46   0.009  -0.297   0.064
   0.00000   0.00000   0.00000   0.00000   0.00000   0.00000   0.00000   0.00000   0.00000
Generated with MDTraj, t= 43.0
 46
    1UNL     C1    1  -0.184   0.162   0.212
    1UNL     C2    2  -0.127   0.030   0.167
    1UNL     C3    3  -0.139   0.002   0.021
    1UNL     C4    4  -0.295  -0.027  -0.005
    1UNL     C5    5  -0.331  -0.088  -0.143
    1UNL     C6    6  -0.254  -0.215  -0.166
    1UNL     N1    7  -0.110  -0.188  -0.136
    1UNL     C7    8  -0.021  -0.184  -0.239
    1UNL     O1    9  -0.049  -0.212  -0.356
    1UNL     C8   10   0.103  -0.123  -0.193
    1UNL     C9   11   0.095  -0.095  -0.062
    1UNL    C10   12   0.203  -0.042   0.026
    1UNL    C11   13   0.241  -0.099   0.142
    1UNL    C12   14   0.363  -0.077   0.205
    1UNL    C13   15   0.447   0.019   0.153
    1UNL    C14   16   0.405   0.085   0.045
    1UNL    C15   17   0.283   0.059  -0.023
    1UNL     N2   18   0.238   0.140  -0.124
    1UNL    C16   19   0.115   0.202  -0.142
    1UNL     O2   20   0.091   0.265  -0.243
    1UNL    C17   21   0.025   0.213  -0.028
    1UNL    C18   22  -0.102   0.131  -0.061
    1UNL    C19   23  -0.048  -0.128  -0.010
    1UNL     O3   24  -0.064  -0.218   0.104
    1UNL     H1   25  -0.187   0.174   0.317
    1UNL     H2   26  -0.293   0.166   0.196
    1UNL     H3   27  -0.135   0.250   0.171
    1UNL     H4   28  -0.167  -0.056   0.230
    1UNL     H5   29  -0.014   0.020   0.188
    1UNL     H6   30  -0.346   0.073   0.009
    1UNL     H7   31  -0.341  -0.084   0.075
    1UNL     H8   32  -0.444  -0.111  -0.141
    1UNL     H9   33  -0.331  -0.017  -0.233
    1UNL    H10   34  -0.258  -0.254  -0.271
    1UNL    H11   35  -0.284  -0.286  -0.098
    1UNL    H12   36   0.180  -0.105  -0.260
    1UNL    H13   37   0.177  -0.185   0.170
    1UNL    H14   38   0.409  -0.143   0.276
    1UNL    H15   39   0.546   0.028   0.190
    1UNL    H16   40   0.471   0.158  -0.008
    1UNL    H17   41   0.308   0.170  -0.195
    1UNL    H18   42   0.011   0.316  -0.011
    1UNL    H19   43   0.079   0.176   0.061
    1UNL    H20   44  -0.189   0.196  -0.067
    1UNL    H21   45  -0.083   0.094  -0.165
    1UNL    H22   46  -0.152  -0.247   0.124
   0.00000   0.00000   0.00000   0.00000   0.00000   0.00000   0.00000   0.00000   0.00000
Generated with MDTraj, t= 44.0
 46
    1UNL     C1    1  -0.186   0.171   0.216
    1UNL     C2    2  -0.120   0.042   0.177
    1UNL     C3    3  -0.143   0.004   0.027
    1UNL     C4    4  -0.295  -0.034   0.015
    1UNL     C5    5  -0.341  -0.099  -0.116
    1UNL     C6    6  -0.249  -0.210  -0.161
    1UNL     N1    7  -0.108  -0.177  -0.144
    1UNL     C7    8  -0.014  -0.179  -0.245
    1UNL     O1    9  -0.034  -0.212  -0.362
    1UNL     C8   10   0.103  -0.116  -0.188
    1UNL     C9   11   0.087  -0.093  -0.055
    1UNL    C10   12   0.205  -0.046   0.016
    1UNL    C11   13   0.228  -0.110   0.139
    1UNL    C12   14   0.347  -0.089   0.201
    1UNL    C13   15   0.435   0.007   0.150
    1UNL    C14   16   0.394   0.094   0.057
    1UNL    C15   17   0.284   0.062  -0.027
    1UNL     N2   18   0.250   0.141  -0.133
    1UNL    C16   19   0.125   0.209  -0.148
    1UNL     O2   20   0.097   0.270  -0.248
    1UNL    C17   21   0.021   0.194  -0.041
    1UNL    C18   22  -0.105   0.117  -0.075
    1UNL    C19   23  -0.058  -0.121  -0.009
    1UNL     O3   24  -0.059  -0.216   0.101
    1UNL     H1   25  -0.176   0.193   0.320
    1UNL     H2   26  -0.293   0.151   0.205
    1UNL     H3   27  -0.157   0.256   0.159
    1UNL     H4   28  -0.136  -0.046   0.245
    1UNL     H5   29  -0.007   0.057   0.189
    1UNL     H6   30  -0.355   0.063   0.036
    1UNL     H7   31  -0.325  -0.097   0.096
    1UNL     H8   32  -0.451  -0.123  -0.132
    1UNL     H9   33  -0.324  -0.012  -0.191
    1UNL    H10   34  -0.262  -0.221  -0.272
    1UNL    H11   35  -0.260  -0.301  -0.111
    1UNL    H12   36   0.192  -0.086  -0.250
    1UNL    H13   37   0.186  -0.201   0.172
    1UNL    H14   38   0.351  -0.139   0.299
    1UNL    H15   39   0.532   0.022   0.198
    1UNL    H16   40   0.443   0.185   0.035
    1UNL    H17   41   0.311   0.142  -0.211
    1UNL    H18   42  -0.001   0.297  -0.023
    1UNL    H19   43   0.071   0.167   0.050
    1UNL    H20   44  -0.193   0.182  -0.077
    1UNL    H21   45  -0.106   0.079  -0.178
    1UNL    H22   46   0.014  -0.275   0.076
   0.00000   0.00000   0.00000   0.00000   0.00000   0.00000   0.00000   0.00000   0.00000
Generated with MDTraj, t= 45.0
 46
    1UNL     C1    1  -0.169   0.152   0.243
    1UNL     C2    2  -0.089   0.037   0.175
    1UNL     C3    3  -0.128   0.002   0.027
    1UNL     C4    4  -0.290  -0.028   0.019
    1UNL     C5    5  -0.336  -0.087  -0.118
    1UNL     C6    6  -0.251  -0.210  -0.151
    1UNL     N1    7  -0.107  -0.175  -0.143
    1UNL     C7    8  -0.024  -0.174  -0.252
    1UNL     O1    9  -0.043  -0.200  -0.369
    1UNL     C8   10   0.105  -0.125  -0.201
    1UNL     C9   11   0.099  -0.097  -0.067
    1UNL    C10   12   0.203  -0.050   0.021
    1UNL    C11   13   0.218  -0.104   0.144
    1UNL    C12   14   0.334  -0.078   0.212
    1UNL    C13   15   0.422   0.019   0.174
    1UNL    C14   16   0.395   0.093   0.061
    1UNL    C15   17   0.288   0.058  -0.019
    1UNL     N2   18   0.239   0.145  -0.124
    1UNL    C16   19   0.113   0.201  -0.156
    1UNL     O2   20   0.106   0.241  -0.270
    1UNL    C17   21   0.008   0.216  -0.055
    1UNL    C18   22  -0.109   0.120  -0.074
    1UNL    C19   23  -0.046  -0.122  -0.021
    1UNL     O3   24  -0.055  -0.217   0.088
    1UNL     H1   25  -0.126   0.175   0.340
    1UNL     H2   26  -0.266   0.105   0.262
    1UNL     H3   27  -0.184   0.239   0.190
    1UNL     H4   28  -0.107  -0.058   0.233
    1UNL     H5   29   0.022   0.059   0.181
    1UNL     H6   30  -0.361   0.060   0.047
    1UNL     H7   31  -0.313  -0.099   0.094
    1UNL     H8   32  -0.446  -0.110  -0.122
    1UNL     H9   33  -0.324  -0.006  -0.201
    1UNL    H10   34  -0.264  -0.246  -0.256
    1UNL    H11   35  -0.268  -0.296  -0.090
    1UNL    H12   36   0.192  -0.138  -0.260
    1UNL    H13   37   0.132  -0.167   0.182
    1UNL    H14   38   0.355  -0.137   0.300
    1UNL    H15   39   0.478   0.056   0.258
    1UNL    H16   40   0.462   0.175   0.037
    1UNL    H17   41   0.303   0.178  -0.188
    1UNL    H18   42  -0.033   0.314  -0.056
    1UNL    H19   43   0.044   0.201   0.042
    1UNL    H20   44  -0.197   0.185  -0.063
    1UNL    H21   45  -0.113   0.092  -0.180
    1UNL    H22   46  -0.129  -0.284   0.064
   0.00000   0.00000   0.00000   0.00000   0.00000   0.00000   0.00000   0.00000   0.00000
Generated with MDTraj, t= 46.0
 46
    1UNL     C1    1  -0.147   0.162   0.233
    1UNL     C2    2  -0.092   0.027   0.187
    1UNL     C3    3  -0.130  -0.000   0.035
    1UNL     C4    4  -0.281  -0.037   0.036
    1UNL     C5    5  -0.331  -0.079  -0.107
    1UNL     C6    6  -0.251  -0.197  -0.163
    1UNL     N1    7  -0.110  -0.163  -0.151
    1UNL     C7    8  -0.030  -0.161  -0.261
    1UNL     O1    9  -0.054  -0.196  -0.374
    1UNL     C8   10   0.098  -0.113  -0.208
    1UNL     C9   11   0.096  -0.106  -0.073
    1UNL    C10   12   0.207  -0.054   0.017
    1UNL    C11   13   0.231  -0.108   0.146
    1UNL    C12   14   0.328  -0.059   0.230
    1UNL    C13   15   0.396   0.050   0.192
    1UNL    C14   16   0.373   0.111   0.067
    1UNL    C15   17   0.276   0.063  -0.015
    1UNL     N2   18   0.255   0.128  -0.136
    1UNL    C16   19   0.130   0.177  -0.157
    1UNL     O2   20   0.094   0.209  -0.268
    1UNL    C17   21   0.022   0.205  -0.051
    1UNL    C18   22  -0.110   0.128  -0.059
    1UNL    C19   23  -0.044  -0.127  -0.023
    1UNL     O3   24  -0.052  -0.241   0.058
    1UNL     H1   25  -0.103   0.184   0.330
    1UNL     H2   26  -0.253   0.167   0.237
    1UNL     H3   27  -0.121   0.247   0.177
    1UNL     H4   28  -0.128  -0.058   0.250
    1UNL     H5   29   0.020   0.021   0.189
    1UNL     H6   30  -0.342   0.056   0.061
    1UNL     H7   31  -0.308  -0.110   0.109
    1UNL     H8   32  -0.438  -0.115  -0.101
    1UNL     H9   33  -0.336   0.008  -0.185
    1UNL    H10   34  -0.263  -0.224  -0.272
    1UNL    H11   35  -0.274  -0.284  -0.105
    1UNL    H12   36   0.191  -0.119  -0.263
    1UNL    H13   37   0.169  -0.188   0.169
    1UNL    H14   38   0.353  -0.096   0.329
    1UNL    H15   39   0.477   0.088   0.253
    1UNL    H16   40   0.422   0.204   0.049
    1UNL    H17   41   0.325   0.155  -0.201
    1UNL    H18   42  -0.009   0.308  -0.059
    1UNL    H19   43   0.055   0.203   0.050
    1UNL    H20   44  -0.198   0.196  -0.048
    1UNL    H21   45  -0.128   0.092  -0.160
    1UNL    H22   46  -0.143  -0.281   0.047
   0.00000   0.00000   0.00000   0.00000   0.00000   0.00000   0.00000   0.00000   0.00000
Generated with MDTraj, t= 47.0
 46
    1UNL     C1    1  -0.135   0.151   0.247
    1UNL     C2    2  -0.078   0.030   0.174
    1UNL     C3    3  -0.129   0.001   0.028
    1UNL     C4    4  -0.272  -0.040   0.033
    1UNL     C5    5  -0.333  -0.076  -0.101
    1UNL     C6    6  -0.251  -0.185  -0.170
    1UNL     N1    7  -0.104  -0.181  -0.156
    1UNL     C7    8  -0.011  -0.166  -0.259
    1UNL     O1    9  -0.045  -0.179  -0.374
    1UNL     C8   10   0.110  -0.118  -0.195
    1UNL     C9   11   0.088  -0.104  -0.059
    1UNL    C10   12   0.188  -0.049   0.025
    1UNL    C11   13   0.216  -0.107   0.149
    1UNL    C12   14   0.316  -0.057   0.229
    1UNL    C13   15   0.395   0.049   0.187
    1UNL    C14   16   0.379   0.103   0.060
    1UNL    C15   17   0.272   0.059  -0.014
    1UNL     N2   18   0.234   0.117  -0.139
    1UNL    C16   19   0.112   0.185  -0.166
    1UNL     O2   20   0.091   0.216  -0.282
    1UNL    C17   21   0.023   0.212  -0.052
    1UNL    C18   22  -0.102   0.128  -0.062
    1UNL    C19   23  -0.052  -0.132  -0.023
    1UNL     O3   24  -0.061  -0.233   0.074
    1UNL     H1   25  -0.078   0.162   0.340
    1UNL     H2   26  -0.237   0.149   0.253
    1UNL     H3   27  -0.112   0.239   0.192
    1UNL     H4   28  -0.089  -0.063   0.238
    1UNL     H5   29   0.031   0.046   0.171
    1UNL     H6   30  -0.336   0.038   0.081
    1UNL     H7   31  -0.280  -0.132   0.091
    1UNL     H8   32  -0.436  -0.120  -0.094
    1UNL     H9   33  -0.342   0.010  -0.176
    1UNL    H10   34  -0.276  -0.187  -0.277
    1UNL    H11   35  -0.282  -0.278  -0.123
    1UNL    H12   36   0.207  -0.095  -0.242
    1UNL    H13   37   0.155  -0.188   0.197
    1UNL    H14   38   0.332  -0.106   0.324
    1UNL    H15   39   0.480   0.093   0.240
    1UNL    H16   40   0.439   0.193   0.040
    1UNL    H17   41   0.311   0.132  -0.208
    1UNL    H18   42   0.007   0.318  -0.050
    1UNL    H19   43   0.082   0.197   0.039
    1UNL    H20   44  -0.195   0.186  -0.071
    1UNL    H21   45  -0.099   0.080  -0.159
    1UNL    H22   46   0.002  -0.303   0.061
   0.00000   0.00000   0.00000   0.00000   0.00000   0.00000   0.00000   0.00000   0.00000
Generated with MDTraj, t= 48.0
 46
    1UNL     C1    1  -0.175   0.143   0.244
    1UNL     C2    2  -0.094   0.038   0.169
    1UNL     C3    3  -0.130   0.009   0.025
    1UNL     C4    4  -0.278  -0.028   0.031
    1UNL     C5    5  -0.340  -0.090  -0.096
    1UNL     C6    6  -0.256  -0.197  -0.175
    1UNL     N1    7  -0.112  -0.168  -0.149
    1UNL     C7    8  -0.024  -0.170  -0.249
    1UNL     O1    9  -0.046  -0.201  -0.366
    1UNL     C8   10   0.104  -0.129  -0.192
    1UNL     C9   11   0.088  -0.095  -0.061
    1UNL    C10   12   0.193  -0.046   0.019
    1UNL    C11   13   0.230  -0.113   0.137
    1UNL    C12   14   0.331  -0.061   0.217
    1UNL    C13   15   0.417   0.040   0.187
    1UNL    C14   16   0.392   0.098   0.063
    1UNL    C15   17   0.284   0.058  -0.020
    1UNL     N2   18   0.255   0.145  -0.131
    1UNL    C16   19   0.127   0.195  -0.162
    1UNL     O2   20   0.096   0.235  -0.271
    1UNL    C17   21   0.028   0.196  -0.048
    1UNL    C18   22  -0.108   0.119  -0.078
    1UNL    C19   23  -0.056  -0.123  -0.022
    1UNL     O3   24  -0.057  -0.223   0.080
    1UNL     H1   25  -0.128   0.174   0.337
    1UNL     H2   26  -0.275   0.120   0.247
    1UNL     H3   27  -0.180   0.233   0.184
    1UNL     H4   28  -0.118  -0.060   0.223
    1UNL     H5   29   0.013   0.040   0.186
    1UNL     H6   30  -0.348   0.051   0.059
    1UNL     H7   31  -0.281  -0.109   0.107
    1UNL     H8   32  -0.435  -0.146  -0.074
    1UNL     H9   33  -0.371  -0.013  -0.174
    1UNL    H10   34  -0.283  -0.200  -0.279
    1UNL    H11   35  -0.275  -0.301  -0.140
    1UNL    H12   36   0.192  -0.112  -0.244
    1UNL    H13   37   0.178  -0.201   0.162
    1UNL    H14   38   0.363  -0.124   0.298
    1UNL    H15   39   0.484   0.077   0.260
    1UNL    H16   40   0.455   0.173   0.024
    1UNL    H17   41   0.320   0.127  -0.215
    1UNL    H18   42   0.007   0.298  -0.032
    1UNL    H19   43   0.066   0.161   0.052
    1UNL    H20   44  -0.198   0.183  -0.074
    1UNL    H21   45  -0.102   0.083  -0.179
    1UNL    H22   46  -0.072  -0.312   0.036
   0.00000   0.00000   0.00000   0.00000   0.00000   0.00000   0.00000   0.00000   0.00000
Generated with MDTraj, t= 49.0
 46
    1UNL     C1    1  -0.176   0.161   0.231
    1UNL     C2    2  -0.111   0.038   0.174
    1UNL     C3    3  -0.141   0.007   0.026
    1UNL     C4    4  -0.293  -0.027   0.007
    1UNL     C5    5  -0.321  -0.081  -0.133
    1UNL     C6    6  -0.248  -0.219  -0.147
    1UNL     N1    7  -0.106  -0.183  -0.140
    1UNL     C7    8  -0.020  -0.180  -0.247
    1UNL     O1    9  -0.042  -0.221  -0.359
    1UNL     C8   10   0.103  -0.118  -0.197
    1UNL     C9   11   0.085  -0.082  -0.069
    1UNL    C10   12   0.198  -0.047   0.024
    1UNL    C11   13   0.233  -0.110   0.144
    1UNL    C12   14   0.344  -0.080   0.218
    1UNL    C13   15   0.431   0.014   0.164
    1UNL    C14   16   0.401   0.079   0.047
    1UNL    C15   17   0.276   0.062  -0.016
    1UNL     N2   18   0.235   0.139  -0.133
    1UNL    C16   19   0.114   0.211  -0.151
    1UNL     O2   20   0.095   0.260  -0.258
    1UNL    C17   21   0.018   0.222  -0.035
    1UNL    C18   22  -0.111   0.127  -0.061
    1UNL    C19   23  -0.056  -0.120  -0.014
    1UNL     O3   24  -0.046  -0.225   0.082
    1UNL     H1   25  -0.153   0.183   0.331
    1UNL     H2   26  -0.279   0.169   0.204
    1UNL     H3   27  -0.142   0.249   0.178
    1UNL     H4   28  -0.133  -0.056   0.233
    1UNL     H5   29  -0.004   0.048   0.191
    1UNL     H6   30  -0.348   0.061   0.028
    1UNL     H7   31  -0.325  -0.113   0.070
    1UNL     H8   32  -0.429  -0.097  -0.157
    1UNL     H9   33  -0.284  -0.021  -0.221
    1UNL    H10   34  -0.252  -0.275  -0.237
    1UNL    H11   35  -0.283  -0.296  -0.070
    1UNL    H12   36   0.197  -0.106  -0.256
    1UNL    H13   37   0.188  -0.208   0.159
    1UNL    H14   38   0.370  -0.122   0.314
    1UNL    H15   39   0.528   0.025   0.214
    1UNL    H16   40   0.472   0.144  -0.004
    1UNL    H17   41   0.303   0.162  -0.210
    1UNL    H18   42  -0.020   0.318  -0.010
    1UNL    H19   43   0.072   0.192   0.060
    1UNL    H20   44  -0.197   0.196  -0.061
    1UNL    H21   45  -0.109   0.090  -0.161
    1UNL    H22   46  -0.080  -0.306   0.028
   0.00000   0.00000   0.00000   0.00000   0.00000   0.00000   0.00000   0.00000   0.00000
Generated with MDTraj, t= 50.0
 46
    1UNL     C1    1  -0.193   0.174   0.215
    1UNL     C2    2  -0.124   0.042   0.171
    1UNL     C3    3  -0.151   0.003   0.023
    1UNL     C4    4  -0.304  -0.038   0.005
    1UNL     C5    5  -0.338  -0.098  -0.131
    1UNL     C6    6  -0.256  -0.218  -0.155
    1UNL     N1    7  -0.114  -0.178  -0.139
    1UNL     C7    8  -0.024  -0.180  -0.244
    1UNL     O1    9  -0.042  -0.215  -0.358
    1UNL     C8   10   0.105  -0.128  -0.186
    1UNL     C9   11   0.093  -0.087  -0.056
    1UNL    C10   12   0.211  -0.043   0.032
    1UNL    C11   13   0.243  -0.119   0.145
    1UNL    C12   14   0.360  -0.083   0.207
    1UNL    C13   15   0.443   0.017   0.148
    1UNL    C14   16   0.412   0.086   0.040
    1UNL    C15   17   0.290   0.064  -0.024
    1UNL     N2   18   0.249   0.142  -0.130
    1UNL    C16   19   0.128   0.211  -0.145
    1UNL     O2   20   0.102   0.289  -0.234
    1UNL    C17   21   0.018   0.199  -0.039
    1UNL    C18   22  -0.113   0.124  -0.073
    1UNL    C19   23  -0.056  -0.123  -0.016
    1UNL     O3   24  -0.061  -0.224   0.089
    1UNL     H1   25  -0.164   0.211   0.307
    1UNL     H2   26  -0.302   0.174   0.190
    1UNL     H3   27  -0.162   0.245   0.144
    1UNL     H4   28  -0.156  -0.033   0.250
    1UNL     H5   29  -0.017   0.050   0.186
    1UNL     H6   30  -0.368   0.045   0.013
    1UNL     H7   31  -0.329  -0.113   0.085
    1UNL     H8   32  -0.446  -0.130  -0.143
    1UNL     H9   33  -0.327  -0.028  -0.217
    1UNL    H10   34  -0.273  -0.280  -0.239
    1UNL    H11   35  -0.266  -0.297  -0.071
    1UNL    H12   36   0.189  -0.124  -0.250
    1UNL    H13   37   0.174  -0.187   0.195
    1UNL    H14   38   0.397  -0.137   0.293
    1UNL    H15   39   0.532   0.051   0.197
    1UNL    H16   40   0.483   0.159   0.002
    1UNL    H17   41   0.316   0.168  -0.200
    1UNL    H18   42   0.002   0.299  -0.003
    1UNL    H19   43   0.061   0.150   0.050
    1UNL    H20   44  -0.207   0.181  -0.085
    1UNL    H21   45  -0.101   0.083  -0.171
    1UNL    H22   46  -0.097  -0.308   0.064
   0.00000   0.00000   0.00000   0.00000   0.00000   0.00000   0.00000   0.00000   0.00000
Generated with MDTraj, t= 51.0
 46
    1UNL     C1    1  -0.196   0.153   0.223
    1UNL     C2    2  -0.109   0.041   0.168
    1UNL     C3    3  -0.138   0.004   0.019
    1UNL     C4    4  -0.285  -0.034   0.008
    1UNL     C5    5  -0.334  -0.090  -0.132
    1UNL     C6    6  -0.255  -0.216  -0.162
    1UNL     N1    7  -0.115  -0.184  -0.135
    1UNL     C7    8  -0.024  -0.179  -0.239
    1UNL     O1    9  -0.036  -0.206  -0.357
    1UNL     C8   10   0.105  -0.137  -0.185
    1UNL     C9   11   0.089  -0.095  -0.058
    1UNL    C10   12   0.195  -0.039   0.029
    1UNL    C11   13   0.231  -0.117   0.143
    1UNL    C12   14   0.359  -0.095   0.199
    1UNL    C13   15   0.433   0.011   0.156
    1UNL    C14   16   0.400   0.088   0.048
    1UNL    C15   17   0.280   0.062  -0.023
    1UNL     N2   18   0.241   0.140  -0.137
    1UNL    C16   19   0.119   0.218  -0.151
    1UNL     O2   20   0.093   0.286  -0.250
    1UNL    C17   21   0.022   0.206  -0.045
    1UNL    C18   22  -0.102   0.129  -0.079
    1UNL    C19   23  -0.054  -0.124  -0.008
    1UNL     O3   24  -0.053  -0.213   0.110
    1UNL     H1   25  -0.164   0.189   0.314
    1UNL     H2   26  -0.306   0.134   0.220
    1UNL     H3   27  -0.193   0.238   0.163
    1UNL     H4   28  -0.135  -0.057   0.219
    1UNL     H5   29  -0.007   0.065   0.198
    1UNL     H6   30  -0.332   0.059   0.011
    1UNL     H7   31  -0.317  -0.098   0.096
    1UNL     H8   32  -0.444  -0.094  -0.157
    1UNL     H9   33  -0.295  -0.021  -0.209
    1UNL    H10   34  -0.254  -0.258  -0.259
    1UNL    H11   35  -0.281  -0.309  -0.098
    1UNL    H12   36   0.192  -0.114  -0.245
    1UNL    H13   37   0.160  -0.180   0.190
    1UNL    H14   38   0.386  -0.158   0.282
    1UNL    H15   39   0.525   0.022   0.211
    1UNL    H16   40   0.442   0.185   0.026
    1UNL    H17   41   0.319   0.165  -0.189
    1UNL    H18   42   0.003   0.306  -0.006
    1UNL    H19   43   0.072   0.151   0.031
    1UNL    H20   44  -0.185   0.201  -0.098
    1UNL    H21   45  -0.091   0.086  -0.176
    1UNL    H22   46  -0.043  -0.305   0.078
   0.00000   0.00000   0.00000   0.00000   0.00000   0.00000   0.00000   0.00000   0.00000
Generated with MDTraj, t= 52.0
 46
    1UNL     C1    1  -0.175   0.158   0.227
    1UNL     C2    2  -0.106   0.031   0.174
    1UNL     C3    3  -0.140   0.004   0.022
    1UNL     C4    4  -0.292  -0.034   0.011
    1UNL     C5    5  -0.341  -0.091  -0.118
    1UNL     C6    6  -0.258  -0.215  -0.156
    1UNL     N1    7  -0.113  -0.173  -0.142
    1UNL     C7    8  -0.023  -0.176  -0.247
    1UNL     O1    9  -0.045  -0.226  -0.361
    1UNL     C8   10   0.104  -0.106  -0.205
    1UNL     C9   11   0.093  -0.077  -0.072
    1UNL    C10   12   0.204  -0.046   0.022
    1UNL    C11   13   0.229  -0.104   0.142
    1UNL    C12   14   0.338  -0.073   0.221
    1UNL    C13   15   0.431   0.019   0.178
    1UNL    C14   16   0.392   0.088   0.060
    1UNL    C15   17   0.288   0.053  -0.025
    1UNL     N2   18   0.254   0.148  -0.131
    1UNL    C16   19   0.129   0.206  -0.151
    1UNL     O2   20   0.083   0.237  -0.260
    1UNL    C17   21   0.031   0.215  -0.034
    1UNL    C18   22  -0.104   0.133  -0.059
    1UNL    C19   23  -0.049  -0.118  -0.024
    1UNL     O3   24  -0.051  -0.224   0.078
    1UNL     H1   25  -0.168   0.170   0.332
    1UNL     H2   26  -0.278   0.166   0.191
    1UNL     H3   27  -0.136   0.246   0.188
    1UNL     H4   28  -0.145  -0.053   0.240
    1UNL     H5   29   0.003   0.029   0.179
    1UNL     H6   30  -0.350   0.046   0.042
    1UNL     H7   31  -0.322  -0.111   0.089
    1UNL     H8   32  -0.450  -0.121  -0.113
    1UNL     H9   33  -0.334  -0.017  -0.198
    1UNL    H10   34  -0.275  -0.237  -0.261
    1UNL    H11   35  -0.285  -0.315  -0.106
    1UNL    H12   36   0.185  -0.080  -0.275
    1UNL    H13   37   0.161  -0.186   0.176
    1UNL    H14   38   0.341  -0.107   0.325
    1UNL    H15   39   0.525   0.031   0.228
    1UNL    H16   40   0.437   0.182   0.043
    1UNL    H17   41   0.315   0.153  -0.211
    1UNL    H18   42  -0.003   0.318  -0.016
    1UNL    H19   43   0.069   0.174   0.055
    1UNL    H20   44  -0.184   0.200  -0.026
    1UNL    H21   45  -0.112   0.124  -0.166
    1UNL    H22   46  -0.032  -0.314   0.033
   0.00000   0.00000   0.00000   0.00000   0.00000   0.00000   0.00000   0.00000   0.00000
Generated with MDTraj, t= 53.0
 46
    1UNL     C1    1  -0.145   0.153   0.245
    1UNL     C2    2  -0.085   0.035   0.171
    1UNL     C3    3  -0.130   0.003   0.026
    1UNL     C4    4  -0.280  -0.041   0.030
    1UNL     C5    5  -0.338  -0.079  -0.109
    1UNL     C6    6  -0.250  -0.196  -0.168
    1UNL     N1    7  -0.112  -0.163  -0.151
    1UNL     C7    8  -0.023  -0.161  -0.254
    1UNL     O1    9  -0.039  -0.189  -0.373
    1UNL     C8   10   0.104  -0.126  -0.195
    1UNL     C9   11   0.095  -0.106  -0.060
    1UNL    C10   12   0.203  -0.052   0.026
    1UNL    C11   13   0.225  -0.110   0.152
    1UNL    C12   14   0.324  -0.058   0.232
    1UNL    C13   15   0.415   0.038   0.188
    1UNL    C14   16   0.390   0.106   0.067
    1UNL    C15   17   0.285   0.058  -0.015
    1UNL     N2   18   0.239   0.135  -0.128
    1UNL    C16   19   0.117   0.193  -0.167
    1UNL     O2   20   0.088   0.219  -0.282
    1UNL    C17   21   0.014   0.216  -0.057
    1UNL    C18   22  -0.111   0.125  -0.070
    1UNL    C19   23  -0.049  -0.131  -0.017
    1UNL     O3   24  -0.068  -0.240   0.071
    1UNL     H1   25  -0.084   0.170   0.333
    1UNL     H2   26  -0.246   0.134   0.269
    1UNL     H3   27  -0.146   0.241   0.186
    1UNL     H4   28  -0.099  -0.059   0.231
    1UNL     H5   29   0.025   0.048   0.168
    1UNL     H6   30  -0.340   0.031   0.081
    1UNL     H7   31  -0.295  -0.125   0.103
    1UNL     H8   32  -0.450  -0.091  -0.114
    1UNL     H9   33  -0.319   0.002  -0.179
    1UNL    H10   34  -0.270  -0.226  -0.275
    1UNL    H11   35  -0.278  -0.285  -0.113
    1UNL    H12   36   0.186  -0.096  -0.253
    1UNL    H13   37   0.177  -0.197   0.179
    1UNL    H14   38   0.346  -0.117   0.320
    1UNL    H15   39   0.494   0.082   0.247
    1UNL    H16   40   0.469   0.167   0.022
    1UNL    H17   41   0.292   0.121  -0.219
    1UNL    H18   42  -0.011   0.323  -0.052
    1UNL    H19   43   0.066   0.192   0.034
    1UNL    H20   44  -0.199   0.187  -0.057
    1UNL    H21   45  -0.126   0.083  -0.169
    1UNL    H22   46  -0.028  -0.313   0.025
   0.00000   0.00000   0.00000   0.00000   0.00000   0.00000   0.00000   0.00000   0.00000
Generated with MDTraj, t= 54.0
 46
    1UNL     C1    1  -0.147   0.157   0.258
    1UNL     C2    2  -0.080   0.040   0.181
    1UNL     C3    3  -0.125  -0.004   0.037
    1UNL     C4    4  -0.276  -0.045   0.035
    1UNL     C5    5  -0.335  -0.083  -0.098
    1UNL     C6    6  -0.254  -0.185  -0.170
    1UNL     N1    7  -0.113  -0.167  -0.150
    1UNL     C7    8  -0.022  -0.156  -0.255
    1UNL     O1    9  -0.038  -0.168  -0.374
    1UNL     C8   10   0.108  -0.131  -0.192
    1UNL     C9   11   0.096  -0.110  -0.058
    1UNL    C10   12   0.203  -0.056   0.019
    1UNL    C11   13   0.226  -0.124   0.145
    1UNL    C12   14   0.322  -0.066   0.231
    1UNL    C13   15   0.383   0.056   0.195
    1UNL    C14   16   0.371   0.115   0.072
    1UNL    C15   17   0.279   0.064  -0.016
    1UNL     N2   18   0.246   0.125  -0.144
    1UNL    C16   19   0.122   0.183  -0.179
    1UNL     O2   20   0.095   0.220  -0.291
    1UNL    C17   21   0.025   0.199  -0.065
    1UNL    C18   22  -0.109   0.115  -0.070
    1UNL    C19   23  -0.051  -0.124  -0.022
    1UNL     O3   24  -0.065  -0.230   0.069
    1UNL     H1   25  -0.097   0.177   0.352
    1UNL     H2   26  -0.245   0.134   0.272
    1UNL     H3   27  -0.149   0.247   0.198
    1UNL     H4   28  -0.089  -0.058   0.236
    1UNL     H5   29   0.033   0.051   0.186
    1UNL     H6   30  -0.348   0.014   0.090
    1UNL     H7   31  -0.287  -0.133   0.106
    1UNL     H8   32  -0.440  -0.121  -0.091
    1UNL     H9   33  -0.348   0.008  -0.154
    1UNL    H10   34  -0.296  -0.193  -0.277
    1UNL    H11   35  -0.279  -0.281  -0.133
    1UNL    H12   36   0.203  -0.129  -0.249
    1UNL    H13   37   0.181  -0.226   0.160
    1UNL    H14   38   0.350  -0.106   0.328
    1UNL    H15   39   0.467   0.082   0.256
    1UNL    H16   40   0.432   0.198   0.042
    1UNL    H17   41   0.317   0.108  -0.223
    1UNL    H18   42   0.006   0.307  -0.077
    1UNL    H19   43   0.088   0.190   0.025
    1UNL    H20   44  -0.196   0.181  -0.076
    1UNL    H21   45  -0.108   0.067  -0.169
    1UNL    H22   46  -0.006  -0.304   0.051
   0.00000   0.00000   0.00000   0.00000   0.00000   0.00000   0.00000   0.00000   0.00000
Generated with MDTraj, t= 55.0
 46
    1UNL     C1    1  -0.140   0.155   0.239
    1UNL     C2    2  -0.079   0.030   0.172
    1UNL     C3    3  -0.127   0.006   0.027
    1UNL     C4    4  -0.275  -0.031   0.025
    1UNL     C5    5  -0.327  -0.083  -0.114
    1UNL     C6    6  -0.248  -0.208  -0.162
    1UNL     N1    7  -0.113  -0.182  -0.150
    1UNL     C7    8  -0.030  -0.172  -0.264
    1UNL     O1    9  -0.067  -0.206  -0.373
    1UNL     C8   10   0.093  -0.115  -0.212
    1UNL     C9   11   0.083  -0.089  -0.079
    1UNL    C10   12   0.193  -0.042   0.015
    1UNL    C11   13   0.222  -0.105   0.142
    1UNL    C12   14   0.312  -0.064   0.236
    1UNL    C13   15   0.401   0.043   0.203
    1UNL    C14   16   0.383   0.100   0.077
    1UNL    C15   17   0.281   0.067  -0.016
    1UNL     N2   18   0.256   0.142  -0.134
    1UNL    C16   19   0.126   0.187  -0.157
    1UNL     O2   20   0.081   0.210  -0.268
    1UNL    C17   21   0.035   0.214  -0.038
    1UNL    C18   22  -0.099   0.127  -0.064
    1UNL    C19   23  -0.050  -0.124  -0.023
    1UNL     O3   24  -0.050  -0.228   0.067
    1UNL     H1   25  -0.101   0.160   0.337
    1UNL     H2   26  -0.245   0.154   0.246
    1UNL     H3   27  -0.112   0.245   0.188
    1UNL     H4   28  -0.090  -0.062   0.233
    1UNL     H5   29   0.035   0.044   0.165
    1UNL     H6   30  -0.344   0.036   0.079
    1UNL     H7   31  -0.297  -0.115   0.097
    1UNL     H8   32  -0.432  -0.113  -0.096
    1UNL     H9   33  -0.333  -0.008  -0.189
    1UNL    H10   34  -0.272  -0.244  -0.270
    1UNL    H11   35  -0.273  -0.291  -0.105
    1UNL    H12   36   0.189  -0.122  -0.256
    1UNL    H13   37   0.142  -0.168   0.171
    1UNL    H14   38   0.317  -0.111   0.334
    1UNL    H15   39   0.479   0.077   0.272
    1UNL    H16   40   0.440   0.186   0.050
    1UNL    H17   41   0.325   0.152  -0.213
    1UNL    H18   42   0.011   0.321  -0.035
    1UNL    H19   43   0.076   0.184   0.061
    1UNL    H20   44  -0.178   0.199  -0.069
    1UNL    H21   45  -0.079   0.092  -0.167
    1UNL    H22   46   0.006  -0.304   0.025
   0.00000   0.00000   0.00000   0.00000   0.00000   0.00000   0.00000   0.00000   0.00000
Generated with MDTraj, t= 56.0
 46
    1UNL     C1    1  -0.167   0.161   0.230
    1UNL     C2    2  -0.096   0.042   0.172
    1UNL     C3    3  -0.135   0.012   0.024
    1UNL     C4    4  -0.283  -0.031   0.020
    1UNL     C5    5  -0.334  -0.093  -0.113
    1UNL     C6    6  -0.252  -0.212  -0.165
    1UNL     N1    7  -0.115  -0.171  -0.147
    1UNL     C7    8  -0.017  -0.170  -0.250
    1UNL     O1    9  -0.044  -0.216  -0.362
    1UNL     C8   10   0.103  -0.113  -0.193
    1UNL     C9   11   0.086  -0.098  -0.060
    1UNL    C10   12   0.190  -0.043   0.032
    1UNL    C11   13   0.233  -0.109   0.144
    1UNL    C12   14   0.346  -0.086   0.214
    1UNL    C13   15   0.427   0.026   0.179
    1UNL    C14   16   0.394   0.090   0.058
    1UNL    C15   17   0.274   0.058  -0.014
    1UNL     N2   18   0.242   0.128  -0.134
    1UNL    C16   19   0.124   0.199  -0.157
    1UNL     O2   20   0.095   0.254  -0.262
    1UNL    C17   21   0.018   0.213  -0.048
    1UNL    C18   22  -0.107   0.123  -0.071
    1UNL    C19   23  -0.056  -0.124  -0.023
    1UNL     O3   24  -0.054  -0.218   0.077
    1UNL     H1   25  -0.153   0.155   0.333
    1UNL     H2   26  -0.278   0.163   0.216
    1UNL     H3   27  -0.130   0.255   0.201
    1UNL     H4   28  -0.130  -0.042   0.237
    1UNL     H5   29   0.017   0.049   0.182
    1UNL     H6   30  -0.358   0.035   0.070
    1UNL     H7   31  -0.296  -0.122   0.084
    1UNL     H8   32  -0.439  -0.122  -0.099
    1UNL     H9   33  -0.336  -0.015  -0.186
    1UNL    H10   34  -0.273  -0.243  -0.276
    1UNL    H11   35  -0.275  -0.301  -0.116
    1UNL    H12   36   0.190  -0.084  -0.250
    1UNL    H13   37   0.163  -0.185   0.178
    1UNL    H14   38   0.356  -0.137   0.308
    1UNL    H15   39   0.484   0.077   0.254
    1UNL    H16   40   0.457   0.175   0.029
    1UNL    H17   41   0.308   0.133  -0.209
    1UNL    H18   42  -0.016   0.318  -0.055
    1UNL    H19   43   0.073   0.210   0.050
    1UNL    H20   44  -0.198   0.182  -0.075
    1UNL    H21   45  -0.103   0.077  -0.173
    1UNL    H22   46  -0.041  -0.306   0.040
   0.00000   0.00000   0.00000   0.00000   0.00000   0.00000   0.00000   0.00000   0.00000
Generated with MDTraj, t= 57.0
 46
    1UNL     C1    1  -0.188   0.172   0.220
    1UNL     C2    2  -0.123   0.042   0.170
    1UNL     C3    3  -0.147   0.003   0.025
    1UNL     C4    4  -0.294  -0.033   0.003
    1UNL     C5    5  -0.339  -0.080  -0.135
    1UNL     C6    6  -0.254  -0.205  -0.166
    1UNL     N1    7  -0.112  -0.178  -0.140
    1UNL     C7    8  -0.013  -0.176  -0.237
    1UNL     O1    9  -0.031  -0.202  -0.357
    1UNL     C8   10   0.107  -0.139  -0.168
    1UNL     C9   11   0.089  -0.094  -0.045
    1UNL    C10   12   0.208  -0.053   0.025
    1UNL    C11   13   0.239  -0.116   0.142
    1UNL    C12   14   0.367  -0.082   0.197
    1UNL    C13   15   0.448   0.016   0.150
    1UNL    C14   16   0.406   0.093   0.042
    1UNL    C15   17   0.282   0.063  -0.021
    1UNL     N2   18   0.236   0.141  -0.131
    1UNL    C16   19   0.117   0.206  -0.147
    1UNL     O2   20   0.097   0.271  -0.248
    1UNL    C17   21   0.012   0.200  -0.039
    1UNL    C18   22  -0.105   0.116  -0.077
    1UNL    C19   23  -0.059  -0.120  -0.010
    1UNL     O3   24  -0.067  -0.228   0.096
    1UNL     H1   25  -0.134   0.210   0.300
    1UNL     H2   26  -0.292   0.160   0.262
    1UNL     H3   27  -0.191   0.250   0.151
    1UNL     H4   28  -0.157  -0.042   0.237
    1UNL     H5   29  -0.016   0.060   0.194
    1UNL     H6   30  -0.372   0.042   0.036
    1UNL     H7   31  -0.306  -0.117   0.076
    1UNL     H8   32  -0.446  -0.095  -0.142
    1UNL     H9   33  -0.322  -0.007  -0.212
    1UNL    H10   34  -0.273  -0.253  -0.269
    1UNL    H11   35  -0.283  -0.287  -0.103
    1UNL    H12   36   0.212  -0.138  -0.203
    1UNL    H13   37   0.183  -0.204   0.174
    1UNL    H14   38   0.386  -0.128   0.292
    1UNL    H15   39   0.538   0.036   0.208
    1UNL    H16   40   0.465   0.163  -0.011
    1UNL    H17   41   0.305   0.164  -0.195
    1UNL    H18   42  -0.007   0.309  -0.024
    1UNL    H19   43   0.062   0.170   0.055
    1UNL    H20   44  -0.188   0.180  -0.106
    1UNL    H21   45  -0.084   0.067  -0.176
    1UNL    H22   46  -0.068  -0.312   0.048
   0.00000   0.00000   0.00000   0.00000   0.00000   0.00000   0.00000   0.00000   0.00000
Generated with MDTraj, t= 58.0
 46
    1UNL     C1    1  -0.199   0.164   0.227
    1UNL     C2    2  -0.132   0.031   0.177
    1UNL     C3    3  -0.150   0.013   0.023
    1UNL     C4    4  -0.303  -0.032  -0.003
    1UNL     C5    5  -0.331  -0.093  -0.138
    1UNL     C6    6  -0.245  -0.222  -0.143
    1UNL     N1    7  -0.110  -0.182  -0.129
    1UNL     C7    8  -0.016  -0.183  -0.236
    1UNL     O1    9  -0.034  -0.218  -0.353
    1UNL     C8   10   0.107  -0.122  -0.193
    1UNL     C9   11   0.090  -0.085  -0.068
    1UNL    C10   12   0.208  -0.049   0.010
    1UNL    C11   13   0.227  -0.106   0.136
    1UNL    C12   14   0.342  -0.079   0.210
    1UNL    C13   15   0.433   0.005   0.149
    1UNL    C14   16   0.404   0.077   0.038
    1UNL    C15   17   0.288   0.057  -0.030
    1UNL     N2   18   0.252   0.147  -0.134
    1UNL    C16   19   0.123   0.209  -0.141
    1UNL     O2   20   0.096   0.262  -0.246
    1UNL    C17   21   0.028   0.214  -0.026
    1UNL    C18   22  -0.107   0.140  -0.059
    1UNL    C19   23  -0.056  -0.112  -0.010
    1UNL     O3   24  -0.049  -0.215   0.089
    1UNL     H1   25  -0.209   0.173   0.332
    1UNL     H2   26  -0.304   0.172   0.196
    1UNL     H3   27  -0.151   0.254   0.199
    1UNL     H4   28  -0.177  -0.059   0.231
    1UNL     H5   29  -0.024   0.037   0.199
    1UNL     H6   30  -0.358   0.068   0.006
    1UNL     H7   31  -0.344  -0.096   0.079
    1UNL     H8   32  -0.430  -0.120  -0.169
    1UNL     H9   33  -0.302  -0.028  -0.218
    1UNL    H10   34  -0.258  -0.284  -0.235
    1UNL    H11   35  -0.260  -0.295  -0.063
    1UNL    H12   36   0.194  -0.118  -0.249
    1UNL    H13   37   0.158  -0.175   0.181
    1UNL    H14   38   0.379  -0.155   0.279
    1UNL    H15   39   0.535   0.019   0.180
    1UNL    H16   40   0.484   0.133  -0.015
    1UNL    H17   41   0.300   0.146  -0.223
    1UNL    H18   42  -0.004   0.318   0.000
    1UNL    H19   43   0.073   0.172   0.062
    1UNL    H20   44  -0.183   0.217  -0.067
    1UNL    H21   45  -0.086   0.117  -0.166
    1UNL    H22   46  -0.046  -0.306   0.042
   0.00000   0.00000   0.00000   0.00000   0.00000   0.00000   0.00000   0.00000   0.00000
Generated with MDTraj, t= 59.0
 46
    1UNL     C1    1  -0.194   0.147   0.223
    1UNL     C2    2  -0.108   0.036   0.168
    1UNL     C3    3  -0.133   0.006   0.021
    1UNL     C4    4  -0.287  -0.035   0.011
    1UNL     C5    5  -0.335  -0.088  -0.118
    1UNL     C6    6  -0.253  -0.214  -0.152
    1UNL     N1    7  -0.117  -0.178  -0.140
    1UNL     C7    8  -0.026  -0.176  -0.247
    1UNL     O1    9  -0.052  -0.222  -0.356
    1UNL     C8   10   0.095  -0.109  -0.196
    1UNL     C9   11   0.088  -0.082  -0.064
    1UNL    C10   12   0.203  -0.040   0.017
    1UNL    C11   13   0.229  -0.107   0.134
    1UNL    C12   14   0.339  -0.082   0.209
    1UNL    C13   15   0.422   0.027   0.176
    1UNL    C14   16   0.403   0.083   0.051
    1UNL    C15   17   0.292   0.057  -0.027
    1UNL     N2   18   0.249   0.144  -0.126
    1UNL    C16   19   0.134   0.210  -0.147
    1UNL     O2   20   0.107   0.259  -0.253
    1UNL    C17   21   0.024   0.214  -0.041
    1UNL    C18   22  -0.096   0.123  -0.075
    1UNL    C19   23  -0.057  -0.126  -0.017
    1UNL     O3   24  -0.053  -0.221   0.093
    1UNL     H1   25  -0.171   0.175   0.326
    1UNL     H2   26  -0.294   0.115   0.227
    1UNL     H3   27  -0.185   0.236   0.163
    1UNL     H4   28  -0.111  -0.058   0.234
    1UNL     H5   29  -0.001   0.057   0.177
    1UNL     H6   30  -0.349   0.062   0.032
    1UNL     H7   31  -0.320  -0.107   0.089
    1UNL     H8   32  -0.439  -0.108  -0.122
    1UNL     H9   33  -0.320  -0.026  -0.205
    1UNL    H10   34  -0.267  -0.271  -0.243
    1UNL    H11   35  -0.273  -0.290  -0.073
    1UNL    H12   36   0.185  -0.093  -0.260
    1UNL    H13   37   0.157  -0.177   0.176
    1UNL    H14   38   0.365  -0.145   0.290
    1UNL    H15   39   0.514   0.046   0.229
    1UNL    H16   40   0.449   0.176   0.034
    1UNL    H17   41   0.315   0.162  -0.208
    1UNL    H18   42   0.001   0.325  -0.032
    1UNL    H19   43   0.058   0.184   0.057
    1UNL    H20   44  -0.186   0.188  -0.067
    1UNL    H21   45  -0.096   0.092  -0.182
    1UNL    H22   46  -0.049  -0.314   0.062
   0.00000   0.00000   0.00000   0.00000   0.00000   0.00000   0.00000   0.00000   0.00000
Generated with MDTraj, t= 60.0
 46
    1UNL     C1    1  -0.148   0.156   0.223
    1UNL     C2    2  -0.079   0.036   0.168
    1UNL     C3    3  -0.128   0.002   0.026
    1UNL     C4    4  -0.278  -0.038   0.031
    1UNL     C5    5  -0.339  -0.087  -0.106
    1UNL     C6    6  -0.250  -0.201  -0.171
    1UNL     N1    7  -0.113  -0.173  -0.150
    1UNL     C7    8  -0.021  -0.171  -0.251
    1UNL     O1    9  -0.048  -0.184  -0.367
    1UNL     C8   10   0.109  -0.135  -0.189
    1UNL     C9   11   0.094  -0.102  -0.058
    1UNL    C10   12   0.193  -0.053   0.031
    1UNL    C11   13   0.233  -0.121   0.147
    1UNL    C12   14   0.337  -0.070   0.219
    1UNL    C13   15   0.410   0.041   0.179
    1UNL    C14   16   0.378   0.106   0.064
    1UNL    C15   17   0.268   0.058  -0.010
    1UNL     N2   18   0.235   0.116  -0.138
    1UNL    C16   19   0.119   0.197  -0.154
    1UNL     O2   20   0.098   0.250  -0.262
    1UNL    C17   21   0.017   0.214  -0.053
    1UNL    C18   22  -0.099   0.118  -0.080
    1UNL    C19   23  -0.058  -0.128  -0.022
    1UNL     O3   24  -0.067  -0.222   0.082
    1UNL     H1   25  -0.106   0.178   0.323
    1UNL     H2   26  -0.247   0.136   0.231
    1UNL     H3   27  -0.124   0.237   0.155
    1UNL     H4   28  -0.087  -0.059   0.233
    1UNL     H5   29   0.030   0.042   0.172
    1UNL     H6   30  -0.347   0.052   0.060
    1UNL     H7   31  -0.291  -0.119   0.106
    1UNL     H8   32  -0.441  -0.112  -0.120
    1UNL     H9   33  -0.323  -0.003  -0.172
    1UNL    H10   34  -0.264  -0.217  -0.274
    1UNL    H11   35  -0.269  -0.307  -0.133
    1UNL    H12   36   0.201  -0.112  -0.234
    1UNL    H13   37   0.167  -0.202   0.166
    1UNL    H14   38   0.363  -0.118   0.316
    1UNL    H15   39   0.478   0.080   0.255
    1UNL    H16   40   0.415   0.210   0.041
    1UNL    H17   41   0.317   0.136  -0.205
    1UNL    H18   42  -0.018   0.320  -0.071
    1UNL    H19   43   0.079   0.222   0.038
    1UNL    H20   44  -0.191   0.180  -0.073
    1UNL    H21   45  -0.106   0.076  -0.182
    1UNL    H22   46  -0.047  -0.308   0.047
   0.00000   0.00000   0.00000   0.00000   0.00000   0.00000   0.00000   0.00000   0.00000
Generated with MDTraj, t= 61.0
 46
    1UNL     C1    1  -0.129   0.162   0.241
    1UNL     C2    2  -0.076   0.026   0.187
    1UNL     C3    3  -0.131   0.000   0.038
    1UNL     C4    4  -0.282  -0.045   0.037
    1UNL     C5    5  -0.333  -0.075  -0.105
    1UNL     C6    6  -0.251  -0.185  -0.164
    1UNL     N1    7  -0.112  -0.153  -0.152
    1UNL     C7    8  -0.025  -0.166  -0.259
    1UNL     O1    9  -0.047  -0.199  -0.376
    1UNL     C8   10   0.108  -0.125  -0.205
    1UNL     C9   11   0.096  -0.089  -0.074
    1UNL    C10   12   0.192  -0.037   0.021
    1UNL    C11   13   0.212  -0.103   0.146
    1UNL    C12   14   0.310  -0.065   0.230
    1UNL    C13   15   0.395   0.043   0.193
    1UNL    C14   16   0.375   0.111   0.073
    1UNL    C15   17   0.276   0.071  -0.014
    1UNL     N2   18   0.250   0.122  -0.139
    1UNL    C16   19   0.124   0.173  -0.165
    1UNL     O2   20   0.088   0.204  -0.280
    1UNL    C17   21   0.026   0.202  -0.048
    1UNL    C18   22  -0.112   0.118  -0.062
    1UNL    C19   23  -0.049  -0.115  -0.023
    1UNL     O3   24  -0.051  -0.236   0.060
    1UNL     H1   25  -0.102   0.174   0.345
    1UNL     H2   26  -0.235   0.160   0.235
    1UNL     H3   27  -0.083   0.244   0.187
    1UNL     H4   28  -0.121  -0.062   0.245
    1UNL     H5   29   0.029  -0.001   0.200
    1UNL     H6   30  -0.354   0.034   0.080
    1UNL     H7   31  -0.295  -0.140   0.096
    1UNL     H8   32  -0.435  -0.105  -0.106
    1UNL     H9   33  -0.327   0.009  -0.174
    1UNL    H10   34  -0.267  -0.194  -0.267
    1UNL    H11   35  -0.261  -0.295  -0.132
    1UNL    H12   36   0.208  -0.132  -0.250
    1UNL    H13   37   0.170  -0.205   0.163
    1UNL    H14   38   0.327  -0.116   0.322
    1UNL    H15   39   0.452   0.095   0.268
    1UNL    H16   40   0.452   0.177   0.049
    1UNL    H17   41   0.325   0.143  -0.208
    1UNL    H18   42   0.013   0.313  -0.040
    1UNL    H19   43   0.061   0.163   0.052
    1UNL    H20   44  -0.192   0.192  -0.042
    1UNL    H21   45  -0.117   0.087  -0.167
    1UNL    H22   46  -0.017  -0.313   0.002
   0.00000   0.00000   0.00000   0.00000   0.00000   0.00000   0.00000   0.00000   0.00000
Generated with MDTraj, t= 62.0
 46
    1UNL     C1    1  -0.165   0.129   0.260
    1UNL     C2    2  -0.075   0.036   0.171
    1UNL     C3    3  -0.125   0.009   0.023
    1UNL     C4    4  -0.276  -0.028   0.031
    1UNL     C5    5  -0.333  -0.076  -0.105
    1UNL     C6    6  -0.253  -0.192  -0.160
    1UNL     N1    7  -0.109  -0.160  -0.154
    1UNL     C7    8  -0.020  -0.160  -0.261
    1UNL     O1    9  -0.048  -0.201  -0.375
    1UNL     C8   10   0.110  -0.122  -0.201
    1UNL     C9   11   0.097  -0.093  -0.068
    1UNL    C10   12   0.200  -0.045   0.023
    1UNL    C11   13   0.219  -0.109   0.148
    1UNL    C12   14   0.320  -0.064   0.230
    1UNL    C13   15   0.399   0.044   0.191
    1UNL    C14   16   0.387   0.100   0.064
    1UNL    C15   17   0.288   0.058  -0.019
    1UNL     N2   18   0.253   0.143  -0.133
    1UNL    C16   19   0.120   0.179  -0.159
    1UNL     O2   20   0.083   0.192  -0.276
    1UNL    C17   21   0.025   0.208  -0.051
    1UNL    C18   22  -0.114   0.132  -0.068
    1UNL    C19   23  -0.046  -0.116  -0.025
    1UNL     O3   24  -0.067  -0.225   0.069
    1UNL     H1   25  -0.107   0.159   0.342
    1UNL     H2   26  -0.255   0.082   0.306
    1UNL     H3   27  -0.186   0.223   0.214
    1UNL     H4   28  -0.055  -0.065   0.221
    1UNL     H5   29   0.021   0.082   0.155
    1UNL     H6   30  -0.329   0.067   0.059
    1UNL     H7   31  -0.305  -0.108   0.106
    1UNL     H8   32  -0.437  -0.090  -0.118
    1UNL     H9   33  -0.313   0.003  -0.179
    1UNL    H10   34  -0.263  -0.243  -0.251
    1UNL    H11   35  -0.267  -0.281  -0.087
    1UNL    H12   36   0.203  -0.147  -0.250
    1UNL    H13   37   0.165  -0.196   0.168
    1UNL    H14   38   0.335  -0.107   0.330
    1UNL    H15   39   0.482   0.084   0.249
    1UNL    H16   40   0.445   0.187   0.029
    1UNL    H17   41   0.283   0.116  -0.227
    1UNL    H18   42  -0.008   0.316  -0.050
    1UNL    H19   43   0.083   0.185   0.045
    1UNL    H20   44  -0.199   0.204  -0.056
    1UNL    H21   45  -0.116   0.097  -0.171
    1UNL    H22   46  -0.049  -0.314   0.025
   0.00000   0.00000   0.00000   0.00000   0.00000   0.00000   0.00000   0.00000   0.00000
Generated with MDTraj, t= 63.0
 46
    1UNL     C1    1  -0.188   0.140   0.247
    1UNL     C2    2  -0.102   0.037   0.177
    1UNL     C3    3  -0.139   0.007   0.029
    1UNL     C4    4  -0.293  -0.038   0.021
    1UNL     C5    5  -0.333  -0.077  -0.112
    1UNL     C6    6  -0.254  -0.190  -0.173
    1UNL     N1    7  -0.111  -0.168  -0.141
    1UNL     C7    8  -0.019  -0.173  -0.243
    1UNL     O1    9  -0.038  -0.200  -0.360
    1UNL     C8   10   0.107  -0.118  -0.194
    1UNL     C9   11   0.091  -0.095  -0.059
    1UNL    C10   12   0.204  -0.050   0.023
    1UNL    C11   13   0.236  -0.118   0.136
    1UNL    C12   14   0.339  -0.066   0.217
    1UNL    C13   15   0.425   0.033   0.174
    1UNL    C14   16   0.397   0.103   0.055
    1UNL    C15   17   0.287   0.058  -0.020
    1UNL     N2   18   0.241   0.130  -0.135
    1UNL    C16   19   0.124   0.192  -0.166
    1UNL     O2   20   0.104   0.227  -0.280
    1UNL    C17   21   0.022   0.212  -0.051
    1UNL    C18   22  -0.109   0.128  -0.064
    1UNL    C19   23  -0.057  -0.124  -0.014
    1UNL     O3   24  -0.060  -0.225   0.084
    1UNL     H1   25  -0.171   0.133   0.349
    1UNL     H2   26  -0.298   0.121   0.228
    1UNL     H3   27  -0.158   0.239   0.223
    1UNL     H4   28  -0.115  -0.062   0.234
    1UNL     H5   29  -0.001   0.076   0.195
    1UNL     H6   30  -0.369   0.037   0.053
    1UNL     H7   31  -0.308  -0.122   0.098
    1UNL     H8   32  -0.438  -0.098  -0.123
    1UNL     H9   33  -0.325   0.008  -0.180
    1UNL    H10   34  -0.265  -0.196  -0.276
    1UNL    H11   35  -0.285  -0.297  -0.141
    1UNL    H12   36   0.173  -0.068  -0.260
    1UNL    H13   37   0.160  -0.191   0.170
    1UNL    H14   38   0.358  -0.122   0.305
    1UNL    H15   39   0.522   0.033   0.223
    1UNL    H16   40   0.438   0.197   0.026
    1UNL    H17   41   0.303   0.121  -0.211
    1UNL    H18   42   0.010   0.324  -0.049
    1UNL    H19   43   0.081   0.182   0.040
    1UNL    H20   44  -0.203   0.189  -0.057
    1UNL    H21   45  -0.122   0.080  -0.161
    1UNL    H22   46  -0.036  -0.307   0.044
   0.00000   0.00000   0.00000   0.00000   0.00000   0.00000   0.00000   0.00000   0.00000
Generated with MDTraj, t= 64.0
 46
    1UNL     C1    1  -0.165   0.176   0.211
    1UNL     C2    2  -0.114   0.037   0.171
    1UNL     C3    3  -0.133  -0.002   0.027
    1UNL     C4    4  -0.287  -0.026   0.002
    1UNL     C5    5  -0.342  -0.093  -0.127
    1UNL     C6    6  -0.251  -0.224  -0.161
    1UNL     N1    7  -0.111  -0.185  -0.142
    1UNL     C7    8  -0.021  -0.178  -0.245
    1UNL     O1    9  -0.035  -0.207  -0.359
    1UNL     C8   10   0.104  -0.123  -0.194
    1UNL     C9   11   0.085  -0.089  -0.066
    1UNL    C10   12   0.194  -0.043   0.025
    1UNL    C11   13   0.224  -0.106   0.145
    1UNL    C12   14   0.340  -0.075   0.216
    1UNL    C13   15   0.434   0.014   0.156
    1UNL    C14   16   0.403   0.083   0.040
    1UNL    C15   17   0.282   0.054  -0.029
    1UNL     N2   18   0.248   0.141  -0.135
    1UNL    C16   19   0.121   0.211  -0.140
    1UNL     O2   20   0.087   0.268  -0.241
    1UNL    C17   21   0.020   0.215  -0.024
    1UNL    C18   22  -0.102   0.127  -0.064
    1UNL    C19   23  -0.052  -0.128  -0.013
    1UNL     O3   24  -0.059  -0.233   0.091
    1UNL     H1   25  -0.127   0.213   0.302
    1UNL     H2   26  -0.274   0.187   0.223
    1UNL     H3   27  -0.135   0.260   0.150
    1UNL     H4   28  -0.178  -0.033   0.235
    1UNL     H5   29  -0.010   0.031   0.202
    1UNL     H6   30  -0.345   0.061   0.031
    1UNL     H7   31  -0.325  -0.103   0.080
    1UNL     H8   32  -0.441  -0.129  -0.115
    1UNL     H9   33  -0.356  -0.028  -0.215
    1UNL    H10   34  -0.268  -0.268  -0.254
    1UNL    H11   35  -0.277  -0.308  -0.088
    1UNL    H12   36   0.197  -0.098  -0.252
    1UNL    H13   37   0.160  -0.176   0.192
    1UNL    H14   38   0.355  -0.126   0.314
    1UNL    H15   39   0.535   0.029   0.189
    1UNL    H16   40   0.474   0.155   0.002
    1UNL    H17   41   0.322   0.151  -0.197
    1UNL    H18   42  -0.015   0.324  -0.030
    1UNL    H19   43   0.064   0.189   0.075
    1UNL    H20   44  -0.198   0.183  -0.051
    1UNL    H21   45  -0.101   0.113  -0.173
    1UNL    H22   46  -0.016  -0.309   0.049
   0.00000   0.00000   0.00000   0.00000   0.00000   0.00000   0.00000   0.00000   0.00000
Generated with MDTraj, t= 65.0
 46
    1UNL     C1    1  -0.198   0.153   0.224
    1UNL     C2    2  -0.113   0.035   0.167
    1UNL     C3    3  -0.142   0.008   0.019
    1UNL     C4    4  -0.294  -0.025   0.006
    1UNL     C5    5  -0.335  -0.099  -0.120
    1UNL     C6    6  -0.256  -0.229  -0.146
    1UNL     N1    7  -0.115  -0.188  -0.135
    1UNL     C7    8  -0.029  -0.181  -0.244
    1UNL     O1    9  -0.052  -0.219  -0.359
    1UNL     C8   10   0.100  -0.127  -0.193
    1UNL     C9   11   0.082  -0.089  -0.065
    1UNL    C10   12   0.199  -0.043   0.021
    1UNL    C11   13   0.228  -0.109   0.140
    1UNL    C12   14   0.354  -0.096   0.203
    1UNL    C13   15   0.430   0.018   0.167
    1UNL    C14   16   0.405   0.089   0.051
    1UNL    C15   17   0.288   0.060  -0.028
    1UNL     N2   18   0.252   0.147  -0.136
    1UNL    C16   19   0.132   0.220  -0.145
    1UNL     O2   20   0.117   0.292  -0.243
    1UNL    C17   21   0.020   0.216  -0.042
    1UNL    C18   22  -0.105   0.124  -0.079
    1UNL    C19   23  -0.052  -0.127  -0.012
    1UNL     O3   24  -0.049  -0.217   0.096
    1UNL     H1   25  -0.204   0.159   0.333
    1UNL     H2   26  -0.297   0.165   0.190
    1UNL     H3   27  -0.150   0.250   0.209
    1UNL     H4   28  -0.134  -0.056   0.234
    1UNL     H5   29  -0.006   0.053   0.182
    1UNL     H6   30  -0.351   0.067   0.012
    1UNL     H7   31  -0.340  -0.086   0.093
    1UNL     H8   32  -0.438  -0.124  -0.120
    1UNL     H9   33  -0.322  -0.040  -0.213
    1UNL    H10   34  -0.282  -0.257  -0.247
    1UNL    H11   35  -0.273  -0.314  -0.076
    1UNL    H12   36   0.184  -0.109  -0.252
    1UNL    H13   37   0.160  -0.191   0.162
    1UNL    H14   38   0.389  -0.138   0.293
    1UNL    H15   39   0.513   0.059   0.226
    1UNL    H16   40   0.479   0.154   0.002
    1UNL    H17   41   0.320   0.182  -0.203
    1UNL    H18   42  -0.020   0.323  -0.028
    1UNL    H19   43   0.054   0.182   0.055
    1UNL    H20   44  -0.188   0.193  -0.102
    1UNL    H21   45  -0.085   0.075  -0.173
    1UNL    H22   46  -0.032  -0.311   0.056
   0.00000   0.00000   0.00000   0.00000   0.00000   0.00000   0.00000   0.00000   0.00000
Generated with MDTraj, t= 66.0
 46
    1UNL     C1    1  -0.192   0.163   0.225
    1UNL     C2    2  -0.112   0.046   0.169
    1UNL     C3    3  -0.144   0.010   0.028
    1UNL     C4    4  -0.293  -0.032   0.011
    1UNL     C5    5  -0.326  -0.087  -0.127
    1UNL     C6    6  -0.252  -0.213  -0.153
    1UNL     N1    7  -0.106  -0.192  -0.135
    1UNL     C7    8  -0.022  -0.183  -0.245
    1UNL     O1    9  -0.050  -0.219  -0.360
    1UNL     C8   10   0.101  -0.124  -0.197
    1UNL     C9   11   0.088  -0.084  -0.066
    1UNL    C10   12   0.209  -0.052   0.011
    1UNL    C11   13   0.238  -0.127   0.127
    1UNL    C12   14   0.345  -0.087   0.206
    1UNL    C13   15   0.426   0.021   0.166
    1UNL    C14   16   0.395   0.097   0.058
    1UNL    C15   17   0.288   0.063  -0.019
    1UNL     N2   18   0.244   0.137  -0.136
    1UNL    C16   19   0.128   0.207  -0.148
    1UNL     O2   20   0.092   0.277  -0.241
    1UNL    C17   21   0.026   0.197  -0.036
    1UNL    C18   22  -0.107   0.127  -0.069
    1UNL    C19   23  -0.049  -0.118  -0.020
    1UNL     O3   24  -0.054  -0.209   0.092
    1UNL     H1   25  -0.127   0.215   0.298
    1UNL     H2   26  -0.281   0.133   0.266
    1UNL     H3   27  -0.203   0.236   0.145
    1UNL     H4   28  -0.122  -0.042   0.241
    1UNL     H5   29  -0.006   0.074   0.190
    1UNL     H6   30  -0.366   0.047   0.025
    1UNL     H7   31  -0.321  -0.114   0.086
    1UNL     H8   32  -0.431  -0.093  -0.149
    1UNL     H9   33  -0.287  -0.012  -0.198
    1UNL    H10   34  -0.266  -0.262  -0.250
    1UNL    H11   35  -0.291  -0.275  -0.074
    1UNL    H12   36   0.194  -0.114  -0.258
    1UNL    H13   37   0.163  -0.193   0.168
    1UNL    H14   38   0.355  -0.132   0.307
    1UNL    H15   39   0.495   0.050   0.243
    1UNL    H16   40   0.451   0.176   0.012
    1UNL    H17   41   0.304   0.139  -0.222
    1UNL    H18   42   0.008   0.299   0.015
    1UNL    H19   43   0.084   0.136   0.032
    1UNL    H20   44  -0.192   0.193  -0.092
    1UNL    H21   45  -0.092   0.070  -0.160
    1UNL    H22   46  -0.036  -0.299   0.064
   0.00000   0.00000   0.00000   0.00000   0.00000   0.00000   0.00000   0.00000   0.00000
Generated with MDTraj, t= 67.0
 46
    1UNL     C1    1  -0.154   0.161   0.230
    1UNL     C2    2  -0.100   0.031   0.170
    1UNL     C3    3  -0.136   0.002   0.022
    1UNL     C4    4  -0.287  -0.036   0.018
    1UNL     C5    5  -0.338  -0.086  -0.122
    1UNL     C6    6  -0.253  -0.211  -0.159
    1UNL     N1    7  -0.114  -0.168  -0.147
    1UNL     C7    8  -0.022  -0.172  -0.250
    1UNL     O1    9  -0.041  -0.210  -0.365
    1UNL     C8   10   0.107  -0.124  -0.189
    1UNL     C9   11   0.091  -0.094  -0.056
    1UNL    C10   12   0.190  -0.034   0.031
    1UNL    C11   13   0.233  -0.099   0.149
    1UNL    C12   14   0.343  -0.067   0.221
    1UNL    C13   15   0.435   0.022   0.169
    1UNL    C14   16   0.402   0.087   0.050
    1UNL    C15   17   0.277   0.070  -0.013
    1UNL     N2   18   0.243   0.135  -0.132
    1UNL    C16   19   0.116   0.201  -0.153
    1UNL     O2   20   0.092   0.247  -0.265
    1UNL    C17   21   0.017   0.206  -0.034
    1UNL    C18   22  -0.114   0.126  -0.072
    1UNL    C19   23  -0.053  -0.122  -0.022
    1UNL     O3   24  -0.069  -0.233   0.073
    1UNL     H1   25  -0.200   0.147   0.329
    1UNL     H2   26  -0.228   0.202   0.169
    1UNL     H3   27  -0.076   0.232   0.253
    1UNL     H4   28  -0.124  -0.062   0.234
    1UNL     H5   29   0.009   0.024   0.195
    1UNL     H6   30  -0.354   0.043   0.052
    1UNL     H7   31  -0.299  -0.121   0.091
    1UNL     H8   32  -0.444  -0.104  -0.120
    1UNL     H9   33  -0.337  -0.004  -0.195
    1UNL    H10   34  -0.267  -0.253  -0.262
    1UNL    H11   35  -0.275  -0.286  -0.090
    1UNL    H12   36   0.193  -0.111  -0.249
    1UNL    H13   37   0.160  -0.167   0.192
    1UNL    H14   38   0.343  -0.121   0.312
    1UNL    H15   39   0.538   0.030   0.206
    1UNL    H16   40   0.475   0.163   0.023
    1UNL    H17   41   0.309   0.126  -0.215
    1UNL    H18   42  -0.006   0.319  -0.024
    1UNL    H19   43   0.065   0.169   0.057
    1UNL    H20   44  -0.204   0.188  -0.066
    1UNL    H21   45  -0.105   0.094  -0.175
    1UNL    H22   46  -0.049  -0.311   0.021
   0.00000   0.00000   0.00000   0.00000   0.00000   0.00000   0.00000   0.00000   0.00000
Generated with MDTraj, t= 68.0
 46
    1UNL     C1    1  -0.155   0.165   0.233
    1UNL     C2    2  -0.093   0.034   0.176
    1UNL     C3    3  -0.134   0.000   0.030
    1UNL     C4    4  -0.285  -0.049   0.030
    1UNL     C5    5  -0.337  -0.083  -0.110
    1UNL     C6    6  -0.251  -0.188  -0.174
    1UNL     N1    7  -0.112  -0.161  -0.150
    1UNL     C7    8  -0.020  -0.162  -0.253
    1UNL     O1    9  -0.039  -0.193  -0.366
    1UNL     C8   10   0.110  -0.122  -0.193
    1UNL     C9   11   0.090  -0.099  -0.063
    1UNL    C10   12   0.193  -0.044   0.031
    1UNL    C11   13   0.224  -0.107   0.150
    1UNL    C12   14   0.332  -0.067   0.222
    1UNL    C13   15   0.413   0.038   0.188
    1UNL    C14   16   0.388   0.097   0.058
    1UNL    C15   17   0.279   0.057  -0.020
    1UNL     N2   18   0.244   0.127  -0.140
    1UNL    C16   19   0.119   0.184  -0.165
    1UNL     O2   20   0.083   0.217  -0.273
    1UNL    C17   21   0.029   0.208  -0.052
    1UNL    C18   22  -0.108   0.122  -0.058
    1UNL    C19   23  -0.056  -0.122  -0.020
    1UNL     O3   24  -0.050  -0.227   0.072
    1UNL     H1   25  -0.091   0.215   0.304
    1UNL     H2   26  -0.247   0.133   0.286
    1UNL     H3   27  -0.173   0.241   0.162
    1UNL     H4   28  -0.117  -0.054   0.245
    1UNL     H5   29   0.018   0.019   0.183
    1UNL     H6   30  -0.339   0.032   0.086
    1UNL     H7   31  -0.303  -0.141   0.089
    1UNL     H8   32  -0.442  -0.110  -0.106
    1UNL     H9   33  -0.351   0.009  -0.167
    1UNL    H10   34  -0.272  -0.172  -0.285
    1UNL    H11   35  -0.265  -0.288  -0.156
    1UNL    H12   36   0.209  -0.118  -0.235
    1UNL    H13   37   0.164  -0.194   0.175
    1UNL    H14   38   0.369  -0.117   0.315
    1UNL    H15   39   0.504   0.053   0.244
    1UNL    H16   40   0.448   0.181   0.034
    1UNL    H17   41   0.299   0.126  -0.231
    1UNL    H18   42  -0.002   0.319  -0.053
    1UNL    H19   43   0.081   0.177   0.039
    1UNL    H20   44  -0.188   0.187  -0.023
    1UNL    H21   45  -0.125   0.095  -0.161
    1UNL    H22   46  -0.050  -0.312   0.017
   0.00000   0.00000   0.00000   0.00000   0.00000   0.00000   0.00000   0.00000   0.00000
Generated with MDTraj, t= 69.0
 46
    1UNL     C1    1  -0.157   0.131   0.256
    1UNL     C2    2  -0.077   0.025   0.175
    1UNL     C3    3  -0.126   0.008   0.029
    1UNL     C4    4  -0.281  -0.027   0.027
    1UNL     C5    5  -0.337  -0.085  -0.101
    1UNL     C6    6  -0.251  -0.194  -0.160
    1UNL     N1    7  -0.111  -0.177  -0.147
    1UNL     C7    8  -0.029  -0.162  -0.253
    1UNL     O1    9  -0.053  -0.187  -0.369
    1UNL     C8   10   0.096  -0.118  -0.195
    1UNL     C9   11   0.096  -0.094  -0.062
    1UNL    C10   12   0.206  -0.051   0.016
    1UNL    C11   13   0.223  -0.116   0.138
    1UNL    C12   14   0.316  -0.064   0.225
    1UNL    C13   15   0.393   0.043   0.190
    1UNL    C14   16   0.370   0.111   0.079
    1UNL    C15   17   0.289   0.054  -0.018
    1UNL     N2   18   0.252   0.141  -0.131
    1UNL    C16   19   0.128   0.189  -0.175
    1UNL     O2   20   0.092   0.199  -0.290
    1UNL    C17   21   0.028   0.223  -0.060
    1UNL    C18   22  -0.095   0.130  -0.073
    1UNL    C19   23  -0.048  -0.122  -0.022
    1UNL     O3   24  -0.056  -0.225   0.076
    1UNL     H1   25  -0.131   0.135   0.359
    1UNL     H2   26  -0.265   0.102   0.238
    1UNL     H3   27  -0.129   0.223   0.213
    1UNL     H4   28  -0.074  -0.079   0.222
    1UNL     H5   29   0.033   0.051   0.175
    1UNL     H6   30  -0.343   0.062   0.061
    1UNL     H7   31  -0.294  -0.098   0.107
    1UNL     H8   32  -0.446  -0.099  -0.101
    1UNL     H9   33  -0.341   0.000  -0.170
    1UNL    H10   34  -0.268  -0.226  -0.269
    1UNL    H11   35  -0.268  -0.273  -0.096
    1UNL    H12   36   0.189  -0.129  -0.252
    1UNL    H13   37   0.171  -0.209   0.154
    1UNL    H14   38   0.334  -0.110   0.318
    1UNL    H15   39   0.461   0.089   0.263
    1UNL    H16   40   0.437   0.193   0.047
    1UNL    H17   41   0.323   0.147  -0.205
    1UNL    H18   42  -0.009   0.330  -0.080
    1UNL    H19   43   0.079   0.214   0.039
    1UNL    H20   44  -0.188   0.185  -0.069
    1UNL    H21   45  -0.097   0.081  -0.170
    1UNL    H22   46  -0.086  -0.311   0.032
   0.00000   0.00000   0.00000   0.00000   0.00000   0.00000   0.00000   0.00000   0.00000
Generated with MDTraj, t= 70.0
 46
    1UNL     C1    1  -0.151   0.158   0.229
    1UNL     C2    2  -0.083   0.036   0.178
    1UNL     C3    3  -0.122   0.000   0.033
    1UNL     C4    4  -0.270  -0.042   0.031
    1UNL     C5    5  -0.332  -0.081  -0.102
    1UNL     C6    6  -0.258  -0.206  -0.149
    1UNL     N1    7  -0.116  -0.166  -0.142
    1UNL     C7    8  -0.029  -0.160  -0.253
    1UNL     O1    9  -0.046  -0.199  -0.371
    1UNL     C8   10   0.098  -0.112  -0.205
    1UNL     C9   11   0.097  -0.106  -0.069
    1UNL    C10   12   0.199  -0.051   0.016
    1UNL    C11   13   0.216  -0.109   0.145
    1UNL    C12   14   0.313  -0.066   0.227
    1UNL    C13   15   0.395   0.041   0.192
    1UNL    C14   16   0.384   0.092   0.068
    1UNL    C15   17   0.285   0.056  -0.025
    1UNL     N2   18   0.250   0.138  -0.132
    1UNL    C16   19   0.123   0.191  -0.156
    1UNL     O2   20   0.097   0.225  -0.270
    1UNL    C17   21   0.019   0.221  -0.056
    1UNL    C18   22  -0.102   0.126  -0.076
    1UNL    C19   23  -0.051  -0.128  -0.022
    1UNL     O3   24  -0.049  -0.238   0.064
    1UNL     H1   25  -0.112   0.194   0.319
    1UNL     H2   26  -0.262   0.139   0.244
    1UNL     H3   27  -0.134   0.245   0.168
    1UNL     H4   28  -0.109  -0.060   0.233
    1UNL     H5   29   0.028   0.052   0.180
    1UNL     H6   30  -0.332   0.049   0.059
    1UNL     H7   31  -0.289  -0.109   0.114
    1UNL     H8   32  -0.438  -0.106  -0.083
    1UNL     H9   33  -0.343   0.000  -0.173
    1UNL    H10   34  -0.270  -0.227  -0.260
    1UNL    H11   35  -0.272  -0.290  -0.090
    1UNL    H12   36   0.182  -0.089  -0.264
    1UNL    H13   37   0.168  -0.200   0.178
    1UNL    H14   38   0.312  -0.109   0.329
    1UNL    H15   39   0.469   0.078   0.256
    1UNL    H16   40   0.442   0.172   0.034
    1UNL    H17   41   0.325   0.146  -0.198
    1UNL    H18   42  -0.014   0.330  -0.072
    1UNL    H19   43   0.064   0.196   0.043
    1UNL    H20   44  -0.191   0.187  -0.072
    1UNL    H21   45  -0.111   0.073  -0.170
    1UNL    H22   46  -0.071  -0.317   0.018
   0.00000   0.00000   0.00000   0.00000   0.00000   0.00000   0.00000   0.00000   0.00000
Generated with MDTraj, t= 71.0
 46
    1UNL     C1    1  -0.144   0.174   0.227
    1UNL     C2    2  -0.104   0.036   0.171
    1UNL     C3    3  -0.145  -0.002   0.022
    1UNL     C4    4  -0.293  -0.049   0.022
    1UNL     C5    5  -0.344  -0.085  -0.121
    1UNL     C6    6  -0.252  -0.205  -0.166
    1UNL     N1    7  -0.113  -0.174  -0.147
    1UNL     C7    8  -0.018  -0.167  -0.246
    1UNL     O1    9  -0.039  -0.198  -0.364
    1UNL     C8   10   0.108  -0.127  -0.191
    1UNL     C9   11   0.093  -0.095  -0.064
    1UNL    C10   12   0.195  -0.048   0.030
    1UNL    C11   13   0.233  -0.110   0.143
    1UNL    C12   14   0.339  -0.069   0.219
    1UNL    C13   15   0.421   0.032   0.171
    1UNL    C14   16   0.392   0.095   0.053
    1UNL    C15   17   0.274   0.056  -0.016
    1UNL     N2   18   0.238   0.122  -0.141
    1UNL    C16   19   0.122   0.198  -0.154
    1UNL     O2   20   0.105   0.260  -0.262
    1UNL    C17   21   0.019   0.202  -0.041
    1UNL    C18   22  -0.116   0.124  -0.068
    1UNL    C19   23  -0.057  -0.127  -0.019
    1UNL     O3   24  -0.053  -0.227   0.088
    1UNL     H1   25  -0.100   0.191   0.322
    1UNL     H2   26  -0.250   0.193   0.242
    1UNL     H3   27  -0.094   0.255   0.173
    1UNL     H4   28  -0.159  -0.038   0.238
    1UNL     H5   29   0.006   0.020   0.176
    1UNL     H6   30  -0.352   0.028   0.080
    1UNL     H7   31  -0.311  -0.136   0.083
    1UNL     H8   32  -0.451  -0.112  -0.132
    1UNL     H9   33  -0.332  -0.003  -0.190
    1UNL    H10   34  -0.263  -0.218  -0.278
    1UNL    H11   35  -0.268  -0.292  -0.110
    1UNL    H12   36   0.205  -0.135  -0.243
    1UNL    H13   37   0.157  -0.166   0.194
    1UNL    H14   38   0.371  -0.104   0.314
    1UNL    H15   39   0.510   0.063   0.233
    1UNL    H16   40   0.442   0.193   0.033
    1UNL    H17   41   0.303   0.134  -0.214
    1UNL    H18   42  -0.021   0.309  -0.042
    1UNL    H19   43   0.061   0.168   0.056
    1UNL    H20   44  -0.204   0.185  -0.060
    1UNL    H21   45  -0.110   0.087  -0.170
    1UNL    H22   46  -0.071  -0.314   0.045
   0.00000   0.00000   0.00000   0.00000   0.00000   0.00000   0.00000   0.00000   0.00000
Generated with MDTraj, t= 72.0
 46
    1UNL     C1    1  -0.200   0.143   0.230
    1UNL     C2    2  -0.108   0.037   0.172
    1UNL     C3    3  -0.141   0.011   0.024
    1UNL     C4    4  -0.295  -0.024   0.009
    1UNL     C5    5  -0.331  -0.084  -0.129
    1UNL     C6    6  -0.254  -0.209  -0.162
    1UNL     N1    7  -0.111  -0.184  -0.140
    1UNL     C7    8  -0.020  -0.187  -0.244
    1UNL     O1    9  -0.044  -0.213  -0.359
    1UNL     C8   10   0.102  -0.140  -0.186
    1UNL     C9   11   0.092  -0.090  -0.063
    1UNL    C10   12   0.204  -0.039   0.025
    1UNL    C11   13   0.231  -0.107   0.144
    1UNL    C12   14   0.354  -0.077   0.204
    1UNL    C13   15   0.438   0.019   0.155
    1UNL    C14   16   0.403   0.097   0.047
    1UNL    C15   17   0.283   0.070  -0.020
    1UNL     N2   18   0.248   0.144  -0.136
    1UNL    C16   19   0.128   0.204  -0.149
    1UNL     O2   20   0.092   0.255  -0.252
    1UNL    C17   21   0.027   0.202  -0.033
    1UNL    C18   22  -0.097   0.126  -0.067
    1UNL    C19   23  -0.060  -0.114  -0.017
    1UNL     O3   24  -0.063  -0.214   0.090
    1UNL     H1   25  -0.179   0.160   0.335
    1UNL     H2   26  -0.303   0.123   0.226
    1UNL     H3   27  -0.166   0.238   0.183
    1UNL     H4   28  -0.125  -0.056   0.234
    1UNL     H5   29  -0.003   0.063   0.195
    1UNL     H6   30  -0.366   0.059   0.034
    1UNL     H7   31  -0.324  -0.101   0.078
    1UNL     H8   32  -0.440  -0.109  -0.142
    1UNL     H9   33  -0.304  -0.013  -0.204
    1UNL    H10   34  -0.285  -0.243  -0.264
    1UNL    H11   35  -0.277  -0.283  -0.087
    1UNL    H12   36   0.195  -0.131  -0.237
    1UNL    H13   37   0.156  -0.169   0.195
    1UNL    H14   38   0.374  -0.131   0.297
    1UNL    H15   39   0.528   0.027   0.206
    1UNL    H16   40   0.463   0.177   0.017
    1UNL    H17   41   0.296   0.135  -0.222
    1UNL    H18   42   0.000   0.305   0.007
    1UNL    H19   43   0.071   0.138   0.045
    1UNL    H20   44  -0.184   0.189  -0.071
    1UNL    H21   45  -0.084   0.085  -0.167
    1UNL    H22   46  -0.076  -0.302   0.040
   0.00000   0.00000   0.00000   0.00000   0.00000   0.00000   0.00000   0.00000   0.00000
Generated with MDTraj, t= 73.0
 46
    1UNL     C1    1  -0.221   0.143   0.231
    1UNL     C2    2  -0.114   0.045   0.177
    1UNL     C3    3  -0.138   0.013   0.024
    1UNL     C4    4  -0.284  -0.026   0.009
    1UNL     C5    5  -0.326  -0.085  -0.123
    1UNL     C6    6  -0.250  -0.219  -0.150
    1UNL     N1    7  -0.112  -0.171  -0.140
    1UNL     C7    8  -0.016  -0.184  -0.249
    1UNL     O1    9  -0.033  -0.243  -0.355
    1UNL     C8   10   0.097  -0.110  -0.196
    1UNL     C9   11   0.084  -0.074  -0.065
    1UNL    C10   12   0.198  -0.040   0.020
    1UNL    C11   13   0.225  -0.105   0.141
    1UNL    C12   14   0.354  -0.091   0.201
    1UNL    C13   15   0.434   0.011   0.156
    1UNL    C14   16   0.406   0.087   0.048
    1UNL    C15   17   0.291   0.062  -0.023
    1UNL     N2   18   0.249   0.133  -0.136
    1UNL    C16   19   0.122   0.204  -0.146
    1UNL     O2   20   0.094   0.257  -0.248
    1UNL    C17   21   0.027   0.209  -0.032
    1UNL    C18   22  -0.108   0.136  -0.068
    1UNL    C19   23  -0.058  -0.114  -0.017
    1UNL     O3   24  -0.054  -0.211   0.088
    1UNL     H1   25  -0.210   0.173   0.336
    1UNL     H2   26  -0.319   0.111   0.231
    1UNL     H3   27  -0.207   0.240   0.180
    1UNL     H4   28  -0.103  -0.050   0.238
    1UNL     H5   29  -0.015   0.085   0.206
    1UNL     H6   30  -0.353   0.062   0.015
    1UNL     H7   31  -0.312  -0.093   0.088
    1UNL     H8   32  -0.436  -0.102  -0.123
    1UNL     H9   33  -0.304  -0.016  -0.202
    1UNL    H10   34  -0.256  -0.261  -0.252
    1UNL    H11   35  -0.276  -0.298  -0.077
    1UNL    H12   36   0.175  -0.092  -0.271
    1UNL    H13   37   0.170  -0.197   0.161
    1UNL    H14   38   0.370  -0.162   0.280
    1UNL    H15   39   0.533   0.036   0.203
    1UNL    H16   40   0.489   0.143   0.002
    1UNL    H17   41   0.317   0.156  -0.209
    1UNL    H18   42   0.002   0.320  -0.023
    1UNL    H19   43   0.086   0.180   0.055
    1UNL    H20   44  -0.185   0.208  -0.077
    1UNL    H21   45  -0.099   0.091  -0.167
    1UNL    H22   46  -0.061  -0.298   0.049
   0.00000   0.00000   0.00000   0.00000   0.00000   0.00000   0.00000   0.00000   0.00000
Generated with MDTraj, t= 74.0
 46
    1UNL     C1    1  -0.163   0.170   0.232
    1UNL     C2    2  -0.120   0.039   0.166
    1UNL     C3    3  -0.146   0.001   0.026
    1UNL     C4    4  -0.298  -0.036   0.010
    1UNL     C5    5  -0.339  -0.087  -0.130
    1UNL     C6    6  -0.252  -0.216  -0.165
    1UNL     N1    7  -0.109  -0.179  -0.144
    1UNL     C7    8  -0.015  -0.178  -0.243
    1UNL     O1    9  -0.048  -0.208  -0.358
    1UNL     C8   10   0.107  -0.130  -0.190
    1UNL     C9   11   0.087  -0.088  -0.065
    1UNL    C10   12   0.200  -0.042   0.025
    1UNL    C11   13   0.235  -0.107   0.146
    1UNL    C12   14   0.351  -0.072   0.213
    1UNL    C13   15   0.443   0.021   0.165
    1UNL    C14   16   0.401   0.086   0.045
    1UNL    C15   17   0.282   0.057  -0.021
    1UNL     N2   18   0.243   0.138  -0.126
    1UNL    C16   19   0.122   0.200  -0.148
    1UNL     O2   20   0.102   0.260  -0.247
    1UNL    C17   21   0.012   0.213  -0.042
    1UNL    C18   22  -0.116   0.121  -0.076
    1UNL    C19   23  -0.054  -0.124  -0.018
    1UNL     O3   24  -0.059  -0.218   0.089
    1UNL     H1   25  -0.140   0.172   0.340
    1UNL     H2   26  -0.266   0.188   0.226
    1UNL     H3   27  -0.101   0.246   0.189
    1UNL     H4   28  -0.160  -0.045   0.232
    1UNL     H5   29  -0.015   0.016   0.190
    1UNL     H6   30  -0.358   0.054   0.034
    1UNL     H7   31  -0.322  -0.109   0.085
    1UNL     H8   32  -0.449  -0.106  -0.134
    1UNL     H9   33  -0.324  -0.013  -0.204
    1UNL    H10   34  -0.263  -0.267  -0.263
    1UNL    H11   35  -0.278  -0.307  -0.103
    1UNL    H12   36   0.202  -0.125  -0.240
    1UNL    H13   37   0.179  -0.189   0.186
    1UNL    H14   38   0.395  -0.128   0.293
    1UNL    H15   39   0.532   0.043   0.218
    1UNL    H16   40   0.469   0.152  -0.006
    1UNL    H17   41   0.312   0.178  -0.195
    1UNL    H18   42  -0.016   0.322  -0.055
    1UNL    H19   43   0.050   0.197   0.059
    1UNL    H20   44  -0.198   0.186  -0.081
    1UNL    H21   45  -0.096   0.088  -0.178
    1UNL    H22   46  -0.072  -0.312   0.062
   0.00000   0.00000   0.00000   0.00000   0.00000   0.00000   0.00000   0.00000   0.00000
Generated with MDTraj, t= 75.0
 46
    1UNL     C1    1  -0.162   0.173   0.222
    1UNL     C2    2  -0.099   0.043   0.179
    1UNL     C3    3  -0.134   0.005   0.029
    1UNL     C4    4  -0.288  -0.037   0.027
    1UNL     C5    5  -0.334  -0.092  -0.105
    1UNL     C6    6  -0.252  -0.200  -0.158
    1UNL     N1    7  -0.112  -0.176  -0.148
    1UNL     C7    8  -0.018  -0.172  -0.249
    1UNL     O1    9  -0.041  -0.182  -0.369
    1UNL     C8   10   0.106  -0.131  -0.193
    1UNL     C9   11   0.089  -0.102  -0.061
    1UNL    C10   12   0.198  -0.053   0.018
    1UNL    C11   13   0.225  -0.110   0.138
    1UNL    C12   14   0.327  -0.071   0.218
    1UNL    C13   15   0.406   0.036   0.177
    1UNL    C14   16   0.388   0.098   0.056
    1UNL    C15   17   0.282   0.056  -0.022
    1UNL     N2   18   0.243   0.130  -0.141
    1UNL    C16   19   0.123   0.197  -0.157
    1UNL     O2   20   0.101   0.244  -0.265
    1UNL    C17   21   0.024   0.207  -0.039
    1UNL    C18   22  -0.099   0.117  -0.073
    1UNL    C19   23  -0.051  -0.128  -0.010
    1UNL     O3   24  -0.056  -0.235   0.079
    1UNL     H1   25  -0.130   0.205   0.322
    1UNL     H2   26  -0.270   0.164   0.232
    1UNL     H3   27  -0.129   0.249   0.159
    1UNL     H4   28  -0.147  -0.033   0.246
    1UNL     H5   29   0.007   0.029   0.202
    1UNL     H6   30  -0.342   0.046   0.073
    1UNL     H7   31  -0.294  -0.120   0.096
    1UNL     H8   32  -0.441  -0.121  -0.109
    1UNL     H9   33  -0.330  -0.017  -0.183
    1UNL    H10   34  -0.295  -0.229  -0.258
    1UNL    H11   35  -0.262  -0.307  -0.123
    1UNL    H12   36   0.189  -0.105  -0.254
    1UNL    H13   37   0.144  -0.178   0.162
    1UNL    H14   38   0.349  -0.119   0.313
    1UNL    H15   39   0.498   0.060   0.233
    1UNL    H16   40   0.425   0.196   0.038
    1UNL    H17   41   0.305   0.120  -0.224
    1UNL    H18   42  -0.007   0.315  -0.025
    1UNL    H19   43   0.077   0.175   0.051
    1UNL    H20   44  -0.177   0.186  -0.086
    1UNL    H21   45  -0.092   0.067  -0.170
    1UNL    H22   46  -0.016  -0.317   0.035
   0.00000   0.00000   0.00000   0.00000   0.00000   0.00000   0.00000   0.00000   0.00000
Generated with MDTraj, t= 76.0
 46
    1UNL     C1    1  -0.160   0.120   0.256
    1UNL     C2    2  -0.068   0.027   0.175
    1UNL     C3    3  -0.118   0.003   0.028
    1UNL     C4    4  -0.272  -0.026   0.030
    1UNL     C5    5  -0.336  -0.077  -0.107
    1UNL     C6    6  -0.259  -0.197  -0.157
    1UNL     N1    7  -0.114  -0.177  -0.145
    1UNL     C7    8  -0.027  -0.164  -0.255
    1UNL     O1    9  -0.050  -0.199  -0.367
    1UNL     C8   10   0.092  -0.102  -0.203
    1UNL     C9   11   0.089  -0.094  -0.064
    1UNL    C10   12   0.197  -0.044   0.018
    1UNL    C11   13   0.211  -0.108   0.145
    1UNL    C12   14   0.308  -0.065   0.226
    1UNL    C13   15   0.392   0.044   0.189
    1UNL    C14   16   0.380   0.107   0.067
    1UNL    C15   17   0.279   0.067  -0.021
    1UNL     N2   18   0.253   0.138  -0.136
    1UNL    C16   19   0.133   0.192  -0.167
    1UNL     O2   20   0.105   0.203  -0.286
    1UNL    C17   21   0.032   0.218  -0.061
    1UNL    C18   22  -0.096   0.129  -0.073
    1UNL    C19   23  -0.051  -0.124  -0.020
    1UNL     O3   24  -0.059  -0.232   0.078
    1UNL     H1   25  -0.125   0.136   0.356
    1UNL     H2   26  -0.263   0.081   0.271
    1UNL     H3   27  -0.157   0.218   0.218
    1UNL     H4   28  -0.055  -0.072   0.224
    1UNL     H5   29   0.029   0.075   0.161
    1UNL     H6   30  -0.330   0.054   0.075
    1UNL     H7   31  -0.276  -0.110   0.099
    1UNL     H8   32  -0.443  -0.098  -0.098
    1UNL     H9   33  -0.334   0.001  -0.182
    1UNL    H10   34  -0.277  -0.230  -0.264
    1UNL    H11   35  -0.293  -0.298  -0.115
    1UNL    H12   36   0.185  -0.098  -0.261
    1UNL    H13   37   0.140  -0.181   0.180
    1UNL    H14   38   0.311  -0.121   0.319
    1UNL    H15   39   0.455   0.086   0.265
    1UNL    H16   40   0.437   0.199   0.044
    1UNL    H17   41   0.307   0.099  -0.214
    1UNL    H18   42   0.008   0.326  -0.076
    1UNL    H19   43   0.086   0.202   0.034
    1UNL    H20   44  -0.183   0.187  -0.063
    1UNL    H21   45  -0.103   0.101  -0.178
    1UNL    H22   46   0.001  -0.304   0.060
   0.00000   0.00000   0.00000   0.00000   0.00000   0.00000   0.00000   0.00000   0.00000
Generated with MDTraj, t= 77.0
 46
    1UNL     C1    1  -0.161   0.143   0.242
    1UNL     C2    2  -0.076   0.032   0.173
    1UNL     C3    3  -0.131   0.005   0.030
    1UNL     C4    4  -0.281  -0.048   0.039
    1UNL     C5    5  -0.337  -0.081  -0.105
    1UNL     C6    6  -0.253  -0.183  -0.176
    1UNL     N1    7  -0.112  -0.151  -0.150
    1UNL     C7    8  -0.025  -0.162  -0.258
    1UNL     O1    9  -0.053  -0.201  -0.368
    1UNL     C8   10   0.107  -0.130  -0.204
    1UNL     C9   11   0.100  -0.104  -0.070
    1UNL    C10   12   0.209  -0.056   0.018
    1UNL    C11   13   0.226  -0.111   0.145
    1UNL    C12   14   0.317  -0.057   0.234
    1UNL    C13   15   0.398   0.050   0.193
    1UNL    C14   16   0.382   0.105   0.067
    1UNL    C15   17   0.282   0.058  -0.017
    1UNL     N2   18   0.254   0.131  -0.140
    1UNL    C16   19   0.123   0.180  -0.156
    1UNL     O2   20   0.086   0.196  -0.275
    1UNL    C17   21   0.028   0.219  -0.049
    1UNL    C18   22  -0.107   0.138  -0.057
    1UNL    C19   23  -0.048  -0.119  -0.026
    1UNL     O3   24  -0.059  -0.222   0.068
    1UNL     H1   25  -0.121   0.157   0.337
    1UNL     H2   26  -0.261   0.099   0.261
    1UNL     H3   27  -0.159   0.241   0.197
    1UNL     H4   28  -0.089  -0.068   0.221
    1UNL     H5   29   0.027   0.067   0.166
    1UNL     H6   30  -0.346   0.029   0.074
    1UNL     H7   31  -0.289  -0.133   0.108
    1UNL     H8   32  -0.438  -0.117  -0.091
    1UNL     H9   33  -0.350   0.012  -0.162
    1UNL    H10   34  -0.259  -0.198  -0.286
    1UNL    H11   35  -0.286  -0.287  -0.137
    1UNL    H12   36   0.187  -0.144  -0.272
    1UNL    H13   37   0.186  -0.211   0.151
    1UNL    H14   38   0.332  -0.088   0.336
    1UNL    H15   39   0.449   0.110   0.267
    1UNL    H16   40   0.451   0.172   0.029
    1UNL    H17   41   0.304   0.120  -0.228
    1UNL    H18   42   0.013   0.327  -0.076
    1UNL    H19   43   0.072   0.212   0.052
    1UNL    H20   44  -0.189   0.201  -0.038
    1UNL    H21   45  -0.123   0.112  -0.161
    1UNL    H22   46  -0.002  -0.300   0.042
   0.00000   0.00000   0.00000   0.00000   0.00000   0.00000   0.00000   0.00000   0.00000
Generated with MDTraj, t= 78.0
 46
    1UNL     C1    1  -0.125   0.164   0.232
    1UNL     C2    2  -0.096   0.027   0.186
    1UNL     C3    3  -0.142  -0.000   0.033
    1UNL     C4    4  -0.290  -0.043   0.021
    1UNL     C5    5  -0.341  -0.076  -0.121
    1UNL     C6    6  -0.246  -0.187  -0.167
    1UNL     N1    7  -0.108  -0.153  -0.154
    1UNL     C7    8  -0.012  -0.169  -0.247
    1UNL     O1    9  -0.022  -0.197  -0.365
    1UNL     C8   10   0.108  -0.130  -0.178
    1UNL     C9   11   0.087  -0.095  -0.054
    1UNL    C10   12   0.193  -0.039   0.032
    1UNL    C11   13   0.224  -0.109   0.149
    1UNL    C12   14   0.340  -0.072   0.219
    1UNL    C13   15   0.419   0.034   0.174
    1UNL    C14   16   0.386   0.099   0.054
    1UNL    C15   17   0.278   0.063  -0.020
    1UNL     N2   18   0.236   0.127  -0.135
    1UNL    C16   19   0.113   0.185  -0.165
    1UNL     O2   20   0.082   0.230  -0.276
    1UNL    C17   21   0.013   0.205  -0.047
    1UNL    C18   22  -0.111   0.119  -0.062
    1UNL    C19   23  -0.056  -0.123  -0.020
    1UNL     O3   24  -0.071  -0.235   0.066
    1UNL     H1   25  -0.096   0.175   0.331
    1UNL     H2   26  -0.233   0.182   0.235
    1UNL     H3   27  -0.067   0.245   0.186
    1UNL     H4   28  -0.152  -0.041   0.253
    1UNL     H5   29   0.010   0.004   0.178
    1UNL     H6   30  -0.348   0.035   0.063
    1UNL     H7   31  -0.309  -0.132   0.081
    1UNL     H8   32  -0.446  -0.097  -0.130
    1UNL     H9   33  -0.322   0.013  -0.184
    1UNL    H10   34  -0.279  -0.225  -0.265
    1UNL    H11   35  -0.254  -0.282  -0.096
    1UNL    H12   36   0.205  -0.123  -0.225
    1UNL    H13   37   0.173  -0.200   0.176
    1UNL    H14   38   0.368  -0.122   0.310
    1UNL    H15   39   0.502   0.065   0.239
    1UNL    H16   40   0.444   0.192   0.026
    1UNL    H17   41   0.304   0.149  -0.202
    1UNL    H18   42  -0.030   0.307  -0.034
    1UNL    H19   43   0.062   0.188   0.051
    1UNL    H20   44  -0.195   0.183  -0.052
    1UNL    H21   45  -0.120   0.087  -0.165
    1UNL    H22   46  -0.017  -0.306   0.021
   0.00000   0.00000   0.00000   0.00000   0.00000   0.00000   0.00000   0.00000   0.00000
Generated with MDTraj, t= 79.0
 46
    1UNL     C1    1  -0.189   0.154   0.222
    1UNL     C2    2  -0.106   0.036   0.175
    1UNL     C3    3  -0.138   0.003   0.030
    1UNL     C4    4  -0.286  -0.031   0.016
    1UNL     C5    5  -0.335  -0.085  -0.119
    1UNL     C6    6  -0.251  -0.211  -0.162
    1UNL     N1    7  -0.115  -0.169  -0.147
    1UNL     C7    8  -0.015  -0.175  -0.241
    1UNL     O1    9  -0.038  -0.210  -0.358
    1UNL     C8   10   0.108  -0.122  -0.186
    1UNL     C9   11   0.090  -0.086  -0.056
    1UNL    C10   12   0.196  -0.041   0.024
    1UNL    C11   13   0.226  -0.110   0.138
    1UNL    C12   14   0.343  -0.077   0.209
    1UNL    C13   15   0.431   0.020   0.165
    1UNL    C14   16   0.405   0.085   0.049
    1UNL    C15   17   0.289   0.052  -0.025
    1UNL     N2   18   0.248   0.140  -0.134
    1UNL    C16   19   0.122   0.206  -0.148
    1UNL     O2   20   0.083   0.254  -0.252
    1UNL    C17   21   0.023   0.202  -0.045
    1UNL    C18   22  -0.103   0.120  -0.071
    1UNL    C19   23  -0.055  -0.117  -0.018
    1UNL     O3   24  -0.057  -0.219   0.086
    1UNL     H1   25  -0.171   0.181   0.323
    1UNL     H2   26  -0.291   0.126   0.217
    1UNL     H3   27  -0.164   0.251   0.171
    1UNL     H4   28  -0.121  -0.056   0.233
    1UNL     H5   29  -0.002   0.068   0.180
    1UNL     H6   30  -0.347   0.048   0.051
    1UNL     H7   31  -0.302  -0.113   0.087
    1UNL     H8   32  -0.440  -0.106  -0.118
    1UNL     H9   33  -0.316  -0.011  -0.201
    1UNL    H10   34  -0.272  -0.229  -0.267
    1UNL    H11   35  -0.266  -0.305  -0.092
    1UNL    H12   36   0.201  -0.128  -0.240
    1UNL    H13   37   0.149  -0.172   0.182
    1UNL    H14   38   0.356  -0.151   0.285
    1UNL    H15   39   0.530   0.040   0.204
    1UNL    H16   40   0.451   0.176   0.031
    1UNL    H17   41   0.307   0.159  -0.212
    1UNL    H18   42   0.005   0.310  -0.021
    1UNL    H19   43   0.073   0.161   0.046
    1UNL    H20   44  -0.187   0.187  -0.073
    1UNL    H21   45  -0.103   0.082  -0.172
    1UNL    H22   46  -0.080  -0.301   0.041
   0.00000   0.00000   0.00000   0.00000   0.00000   0.00000   0.00000   0.00000   0.00000
Generated with MDTraj, t= 80.0
 46
    1UNL     C1    1  -0.219   0.137   0.229
    1UNL     C2    2  -0.117   0.036   0.160
    1UNL     C3    3  -0.141   0.013   0.015
    1UNL     C4    4  -0.296  -0.035   0.001
    1UNL     C5    5  -0.339  -0.098  -0.133
    1UNL     C6    6  -0.252  -0.229  -0.149
    1UNL     N1    7  -0.112  -0.185  -0.127
    1UNL     C7    8  -0.025  -0.178  -0.239
    1UNL     O1    9  -0.063  -0.222  -0.349
    1UNL     C8   10   0.094  -0.110  -0.203
    1UNL     C9   11   0.089  -0.081  -0.069
    1UNL    C10   12   0.207  -0.040   0.017
    1UNL    C11   13   0.237  -0.111   0.132
    1UNL    C12   14   0.349  -0.085   0.208
    1UNL    C13   15   0.438   0.015   0.169
    1UNL    C14   16   0.405   0.083   0.048
    1UNL    C15   17   0.290   0.061  -0.027
    1UNL     N2   18   0.254   0.135  -0.136
    1UNL    C16   19   0.133   0.213  -0.149
    1UNL     O2   20   0.111   0.274  -0.248
    1UNL    C17   21   0.028   0.213  -0.029
    1UNL    C18   22  -0.102   0.140  -0.073
    1UNL    C19   23  -0.055  -0.117  -0.014
    1UNL     O3   24  -0.041  -0.201   0.103
    1UNL     H1   25  -0.210   0.146   0.336
    1UNL     H2   26  -0.311   0.089   0.216
    1UNL     H3   27  -0.218   0.242   0.193
    1UNL     H4   28  -0.120  -0.061   0.212
    1UNL     H5   29  -0.012   0.061   0.181
    1UNL     H6   30  -0.362   0.047   0.011
    1UNL     H7   31  -0.319  -0.093   0.091
    1UNL     H8   32  -0.442  -0.123  -0.142
    1UNL     H9   33  -0.319  -0.028  -0.218
    1UNL    H10   34  -0.255  -0.264  -0.251
    1UNL    H11   35  -0.289  -0.305  -0.067
    1UNL    H12   36   0.181  -0.102  -0.264
    1UNL    H13   37   0.175  -0.196   0.160
    1UNL    H14   38   0.378  -0.148   0.292
    1UNL    H15   39   0.532   0.015   0.224
    1UNL    H16   40   0.475   0.153  -0.003
    1UNL    H17   41   0.330   0.143  -0.205
    1UNL    H18   42   0.005   0.319  -0.001
    1UNL    H19   43   0.083   0.184   0.064
    1UNL    H20   44  -0.189   0.202  -0.084
    1UNL    H21   45  -0.080   0.110  -0.173
    1UNL    H22   46  -0.071  -0.295   0.082
   0.00000   0.00000   0.00000   0.00000   0.00000   0.00000   0.00000   0.00000   0.00000
Generated with MDTraj, t= 81.0
 46
    1UNL     C1    1  -0.189   0.171   0.208
    1UNL     C2    2  -0.123   0.044   0.168
    1UNL     C3    3  -0.138   0.008   0.021
    1UNL     C4    4  -0.294  -0.036   0.002
    1UNL     C5    5  -0.328  -0.094  -0.136
    1UNL     C6    6  -0.252  -0.221  -0.148
    1UNL     N1    7  -0.109  -0.193  -0.134
    1UNL     C7    8  -0.022  -0.182  -0.244
    1UNL     O1    9  -0.047  -0.207  -0.360
    1UNL     C8   10   0.099  -0.126  -0.186
    1UNL     C9   11   0.088  -0.085  -0.062
    1UNL    C10   12   0.202  -0.047   0.026
    1UNL    C11   13   0.231  -0.113   0.144
    1UNL    C12   14   0.350  -0.085   0.208
    1UNL    C13   15   0.439   0.013   0.151
    1UNL    C14   16   0.405   0.085   0.043
    1UNL    C15   17   0.282   0.061  -0.022
    1UNL     N2   18   0.243   0.146  -0.137
    1UNL    C16   19   0.124   0.215  -0.140
    1UNL     O2   20   0.093   0.278  -0.235
    1UNL    C17   21   0.022   0.213  -0.029
    1UNL    C18   22  -0.097   0.123  -0.073
    1UNL    C19   23  -0.055  -0.123  -0.012
    1UNL     O3   24  -0.052  -0.227   0.094
    1UNL     H1   25  -0.145   0.215   0.301
    1UNL     H2   26  -0.288   0.150   0.233
    1UNL     H3   27  -0.177   0.254   0.139
    1UNL     H4   28  -0.146  -0.042   0.233
    1UNL     H5   29  -0.016   0.042   0.196
    1UNL     H6   30  -0.350   0.052   0.026
    1UNL     H7   31  -0.328  -0.106   0.077
    1UNL     H8   32  -0.434  -0.108  -0.153
    1UNL     H9   33  -0.295  -0.028  -0.218
    1UNL    H10   34  -0.268  -0.272  -0.242
    1UNL    H11   35  -0.286  -0.275  -0.049
    1UNL    H12   36   0.188  -0.121  -0.250
    1UNL    H13   37   0.163  -0.194   0.159
    1UNL    H14   38   0.383  -0.118   0.303
    1UNL    H15   39   0.528   0.053   0.197
    1UNL    H16   40   0.479   0.140  -0.011
    1UNL    H17   41   0.291   0.140  -0.230
    1UNL    H18   42  -0.003   0.316   0.011
    1UNL    H19   43   0.065   0.164   0.060
    1UNL    H20   44  -0.176   0.195  -0.083
    1UNL    H21   45  -0.080   0.084  -0.169
    1UNL    H22   46  -0.050  -0.314   0.047
   0.00000   0.00000   0.00000   0.00000   0.00000   0.00000   0.00000   0.00000   0.00000
Generated with MDTraj, t= 82.0
 46
    1UNL     C1    1  -0.168   0.168   0.238
    1UNL     C2    2  -0.115   0.035   0.180
    1UNL     C3    3  -0.148   0.004   0.026
    1UNL     C4    4  -0.293  -0.038   0.026
    1UNL     C5    5  -0.339  -0.090  -0.113
    1UNL     C6    6  -0.257  -0.210  -0.159
    1UNL     N1    7  -0.116  -0.167  -0.150
    1UNL     C7    8  -0.020  -0.175  -0.245
    1UNL     O1    9  -0.021  -0.205  -0.359
    1UNL     C8   10   0.103  -0.135  -0.178
    1UNL     C9   11   0.088  -0.089  -0.053
    1UNL    C10   12   0.197  -0.035   0.028
    1UNL    C11   13   0.230  -0.111   0.143
    1UNL    C12   14   0.350  -0.084   0.209
    1UNL    C13   15   0.432   0.025   0.165
    1UNL    C14   16   0.401   0.092   0.048
    1UNL    C15   17   0.283   0.064  -0.022
    1UNL     N2   18   0.239   0.135  -0.134
    1UNL    C16   19   0.124   0.207  -0.160
    1UNL     O2   20   0.105   0.265  -0.266
    1UNL    C17   21   0.021   0.203  -0.052
    1UNL    C18   22  -0.113   0.112  -0.075
    1UNL    C19   23  -0.057  -0.122  -0.020
    1UNL     O3   24  -0.065  -0.231   0.071
    1UNL     H1   25  -0.173   0.168   0.350
    1UNL     H2   26  -0.267   0.186   0.200
    1UNL     H3   27  -0.097   0.243   0.220
    1UNL     H4   28  -0.137  -0.047   0.250
    1UNL     H5   29  -0.006   0.029   0.182
    1UNL     H6   30  -0.356   0.039   0.067
    1UNL     H7   31  -0.304  -0.118   0.097
    1UNL     H8   32  -0.447  -0.104  -0.113
    1UNL     H9   33  -0.327  -0.007  -0.179
    1UNL    H10   34  -0.282  -0.221  -0.262
    1UNL    H11   35  -0.259  -0.306  -0.096
    1UNL    H12   36   0.194  -0.116  -0.225
    1UNL    H13   37   0.163  -0.183   0.194
    1UNL    H14   38   0.368  -0.136   0.307
    1UNL    H15   39   0.507   0.069   0.231
    1UNL    H16   40   0.462   0.174   0.014
    1UNL    H17   41   0.320   0.164  -0.191
    1UNL    H18   42  -0.014   0.309  -0.036
    1UNL    H19   43   0.072   0.184   0.043
    1UNL    H20   44  -0.199   0.174  -0.099
    1UNL    H21   45  -0.095   0.070  -0.170
    1UNL    H22   46  -0.047  -0.314   0.027
   0.00000   0.00000   0.00000   0.00000   0.00000   0.00000   0.00000   0.00000   0.00000
Generated with MDTraj, t= 83.0
 46
    1UNL     C1    1  -0.157   0.143   0.256
    1UNL     C2    2  -0.079   0.044   0.169
    1UNL     C3    3  -0.131   0.008   0.030
    1UNL     C4    4  -0.280  -0.039   0.024
    1UNL     C5    5  -0.334  -0.071  -0.123
    1UNL     C6    6  -0.258  -0.195  -0.171
    1UNL     N1    7  -0.109  -0.169  -0.150
    1UNL     C7    8  -0.021  -0.171  -0.256
    1UNL     O1    9  -0.038  -0.211  -0.373
    1UNL     C8   10   0.107  -0.127  -0.204
    1UNL     C9   11   0.092  -0.089  -0.072
    1UNL    C10   12   0.196  -0.053   0.019
    1UNL    C11   13   0.231  -0.114   0.141
    1UNL    C12   14   0.328  -0.066   0.236
    1UNL    C13   15   0.407   0.039   0.193
    1UNL    C14   16   0.390   0.099   0.062
    1UNL    C15   17   0.282   0.054  -0.019
    1UNL     N2   18   0.251   0.136  -0.135
    1UNL    C16   19   0.116   0.184  -0.153
    1UNL     O2   20   0.068   0.204  -0.267
    1UNL    C17   21   0.020   0.218  -0.044
    1UNL    C18   22  -0.109   0.129  -0.067
    1UNL    C19   23  -0.053  -0.113  -0.025
    1UNL     O3   24  -0.050  -0.214   0.078
    1UNL     H1   25  -0.092   0.180   0.336
    1UNL     H2   26  -0.243   0.087   0.296
    1UNL     H3   27  -0.183   0.230   0.204
    1UNL     H4   28  -0.087  -0.055   0.216
    1UNL     H5   29   0.027   0.065   0.172
    1UNL     H6   30  -0.344   0.034   0.072
    1UNL     H7   31  -0.291  -0.129   0.079
    1UNL     H8   32  -0.443  -0.077  -0.107
    1UNL     H9   33  -0.332   0.019  -0.178
    1UNL    H10   34  -0.258  -0.215  -0.276
    1UNL    H11   35  -0.289  -0.285  -0.112
    1UNL    H12   36   0.202  -0.128  -0.262
    1UNL    H13   37   0.162  -0.187   0.174
    1UNL    H14   38   0.336  -0.109   0.329
    1UNL    H15   39   0.494   0.060   0.251
    1UNL    H16   40   0.420   0.203   0.037
    1UNL    H17   41   0.305   0.127  -0.221
    1UNL    H18   42   0.017   0.331  -0.045
    1UNL    H19   43   0.067   0.203   0.053
    1UNL    H20   44  -0.193   0.195  -0.047
    1UNL    H21   45  -0.131   0.102  -0.165
    1UNL    H22   46  -0.046  -0.304   0.037
   0.00000   0.00000   0.00000   0.00000   0.00000   0.00000   0.00000   0.00000   0.00000
Generated with MDTraj, t= 84.0
 46
    1UNL     C1    1  -0.148   0.138   0.262
    1UNL     C2    2  -0.074   0.026   0.183
    1UNL     C3    3  -0.120   0.010   0.032
    1UNL     C4    4  -0.282  -0.038   0.035
    1UNL     C5    5  -0.339  -0.085  -0.102
    1UNL     C6    6  -0.260  -0.192  -0.168
    1UNL     N1    7  -0.115  -0.156  -0.159
    1UNL     C7    8  -0.031  -0.155  -0.261
    1UNL     O1    9  -0.053  -0.201  -0.375
    1UNL     C8   10   0.099  -0.116  -0.205
    1UNL     C9   11   0.095  -0.096  -0.072
    1UNL    C10   12   0.199  -0.043   0.024
    1UNL    C11   13   0.222  -0.105   0.146
    1UNL    C12   14   0.315  -0.053   0.233
    1UNL    C13   15   0.398   0.059   0.206
    1UNL    C14   16   0.374   0.120   0.079
    1UNL    C15   17   0.282   0.062  -0.011
    1UNL     N2   18   0.253   0.124  -0.139
    1UNL    C16   19   0.130   0.171  -0.172
    1UNL     O2   20   0.093   0.182  -0.289
    1UNL    C17   21   0.035   0.215  -0.058
    1UNL    C18   22  -0.101   0.138  -0.058
    1UNL    C19   23  -0.049  -0.124  -0.027
    1UNL     O3   24  -0.057  -0.239   0.056
    1UNL     H1   25  -0.137   0.139   0.368
    1UNL     H2   26  -0.257   0.142   0.244
    1UNL     H3   27  -0.105   0.233   0.238
    1UNL     H4   28  -0.088  -0.072   0.229
    1UNL     H5   29   0.032   0.053   0.177
    1UNL     H6   30  -0.355   0.030   0.080
    1UNL     H7   31  -0.282  -0.121   0.098
    1UNL     H8   32  -0.445  -0.111  -0.083
    1UNL     H9   33  -0.357   0.004  -0.155
    1UNL    H10   34  -0.280  -0.202  -0.275
    1UNL    H11   35  -0.270  -0.287  -0.113
    1UNL    H12   36   0.182  -0.094  -0.265
    1UNL    H13   37   0.172  -0.201   0.164
    1UNL    H14   38   0.333  -0.118   0.324
    1UNL    H15   39   0.484   0.090   0.268
    1UNL    H16   40   0.426   0.204   0.050
    1UNL    H17   41   0.305   0.106  -0.222
    1UNL    H18   42   0.007   0.324  -0.054
    1UNL    H19   43   0.092   0.210   0.035
    1UNL    H20   44  -0.186   0.205  -0.048
    1UNL    H21   45  -0.121   0.111  -0.158
    1UNL    H22   46  -0.044  -0.328   0.008
   0.00000   0.00000   0.00000   0.00000   0.00000   0.00000   0.00000   0.00000   0.00000
Generated with MDTraj, t= 85.0
 46
    1UNL     C1    1  -0.140   0.164   0.236
    1UNL     C2    2  -0.075   0.039   0.175
    1UNL     C3    3  -0.115   0.000   0.030
    1UNL     C4    4  -0.270  -0.040   0.036
    1UNL     C5    5  -0.329  -0.078  -0.100
    1UNL     C6    6  -0.255  -0.193  -0.168
    1UNL     N1    7  -0.109  -0.179  -0.152
    1UNL     C7    8  -0.019  -0.160  -0.257
    1UNL     O1    9  -0.044  -0.171  -0.373
    1UNL     C8   10   0.112  -0.134  -0.193
    1UNL     C9   11   0.095  -0.115  -0.060
    1UNL    C10   12   0.192  -0.054   0.026
    1UNL    C11   13   0.206  -0.109   0.154
    1UNL    C12   14   0.310  -0.062   0.238
    1UNL    C13   15   0.397   0.041   0.184
    1UNL    C14   16   0.375   0.107   0.065
    1UNL    C15   17   0.274   0.057  -0.018
    1UNL     N2   18   0.238   0.128  -0.134
    1UNL    C16   19   0.118   0.193  -0.168
    1UNL     O2   20   0.083   0.228  -0.281
    1UNL    C17   21   0.019   0.212  -0.064
    1UNL    C18   22  -0.100   0.113  -0.067
    1UNL    C19   23  -0.049  -0.131  -0.019
    1UNL     O3   24  -0.056  -0.242   0.069
    1UNL     H1   25  -0.074   0.209   0.305
    1UNL     H2   26  -0.238   0.153   0.286
    1UNL     H3   27  -0.141   0.247   0.162
    1UNL     H4   28  -0.094  -0.042   0.247
    1UNL     H5   29   0.031   0.068   0.166
    1UNL     H6   30  -0.314   0.049   0.085
    1UNL     H7   31  -0.284  -0.117   0.104
    1UNL     H8   32  -0.438  -0.097  -0.096
    1UNL     H9   33  -0.324   0.006  -0.163
    1UNL    H10   34  -0.280  -0.182  -0.272
    1UNL    H11   35  -0.277  -0.293  -0.125
    1UNL    H12   36   0.207  -0.119  -0.242
    1UNL    H13   37   0.164  -0.206   0.170
    1UNL    H14   38   0.332  -0.104   0.330
    1UNL    H15   39   0.476   0.081   0.242
    1UNL    H16   40   0.458   0.174   0.028
    1UNL    H17   41   0.294   0.108  -0.214
    1UNL    H18   42  -0.009   0.319  -0.077
    1UNL    H19   43   0.064   0.207   0.036
    1UNL    H20   44  -0.189   0.174  -0.078
    1UNL    H21   45  -0.093   0.065  -0.161
    1UNL    H22   46  -0.037  -0.324   0.020
   0.00000   0.00000   0.00000   0.00000   0.00000   0.00000   0.00000   0.00000   0.00000
Generated with MDTraj, t= 86.0
 46
    1UNL     C1    1  -0.154   0.169   0.228
    1UNL     C2    2  -0.113   0.035   0.166
    1UNL     C3    3  -0.143   0.004   0.022
    1UNL     C4    4  -0.301  -0.035   0.019
    1UNL     C5    5  -0.345  -0.094  -0.112
    1UNL     C6    6  -0.250  -0.215  -0.160
    1UNL     N1    7  -0.113  -0.178  -0.139
    1UNL     C7    8  -0.031  -0.174  -0.251
    1UNL     O1    9  -0.049  -0.202  -0.365
    1UNL     C8   10   0.095  -0.118  -0.197
    1UNL     C9   11   0.090  -0.085  -0.065
    1UNL    C10   12   0.208  -0.050   0.014
    1UNL    C11   13   0.242  -0.119   0.135
    1UNL    C12   14   0.345  -0.074   0.221
    1UNL    C13   15   0.415   0.041   0.188
    1UNL    C14   16   0.390   0.097   0.065
    1UNL    C15   17   0.290   0.053  -0.026
    1UNL     N2   18   0.252   0.137  -0.133
    1UNL    C16   19   0.123   0.199  -0.156
    1UNL     O2   20   0.112   0.261  -0.260
    1UNL    C17   21   0.022   0.192  -0.043
    1UNL    C18   22  -0.106   0.115  -0.081
    1UNL    C19   23  -0.054  -0.120  -0.015
    1UNL     O3   24  -0.059  -0.220   0.089
    1UNL     H1   25  -0.131   0.173   0.331
    1UNL     H2   26  -0.258   0.195   0.214
    1UNL     H3   27  -0.085   0.252   0.194
    1UNL     H4   28  -0.169  -0.041   0.220
    1UNL     H5   29  -0.006   0.016   0.189
    1UNL     H6   30  -0.364   0.046   0.054
    1UNL     H7   31  -0.307  -0.108   0.092
    1UNL     H8   32  -0.437  -0.151  -0.090
    1UNL     H9   33  -0.368  -0.028  -0.192
    1UNL    H10   34  -0.263  -0.228  -0.264
    1UNL    H11   35  -0.280  -0.306  -0.105
    1UNL    H12   36   0.189  -0.112  -0.250
    1UNL    H13   37   0.178  -0.205   0.153
    1UNL    H14   38   0.355  -0.119   0.324
    1UNL    H15   39   0.490   0.078   0.260
    1UNL    H16   40   0.425   0.187   0.029
    1UNL    H17   41   0.322   0.151  -0.204
    1UNL    H18   42   0.005   0.299  -0.023
    1UNL    H19   43   0.080   0.158   0.045
    1UNL    H20   44  -0.193   0.176  -0.094
    1UNL    H21   45  -0.088   0.088  -0.183
    1UNL    H22   46  -0.035  -0.306   0.051
   0.00000   0.00000   0.00000   0.00000   0.00000   0.00000   0.00000   0.00000   0.00000
Generated with MDTraj, t= 87.0
 46
    1UNL     C1    1  -0.201   0.159   0.217
    1UNL     C2    2  -0.115   0.044   0.169
    1UNL     C3    3  -0.139   0.015   0.018
    1UNL     C4    4  -0.289  -0.025  -0.000
    1UNL     C5    5  -0.318  -0.083  -0.135
    1UNL     C6    6  -0.246  -0.224  -0.142
    1UNL     N1    7  -0.106  -0.192  -0.129
    1UNL     C7    8  -0.020  -0.189  -0.239
    1UNL     O1    9  -0.044  -0.234  -0.351
    1UNL     C8   10   0.101  -0.118  -0.199
    1UNL     C9   11   0.087  -0.093  -0.067
    1UNL    C10   12   0.193  -0.041   0.023
    1UNL    C11   13   0.226  -0.111   0.138
    1UNL    C12   14   0.340  -0.092   0.209
    1UNL    C13   15   0.442  -0.004   0.152
    1UNL    C14   16   0.411   0.068   0.035
    1UNL    C15   17   0.282   0.064  -0.022
    1UNL     N2   18   0.241   0.152  -0.125
    1UNL    C16   19   0.124   0.216  -0.142
    1UNL     O2   20   0.093   0.271  -0.242
    1UNL    C17   21   0.015   0.225  -0.033
    1UNL    C18   22  -0.107   0.134  -0.070
    1UNL    C19   23  -0.055  -0.121  -0.015
    1UNL     O3   24  -0.045  -0.209   0.092
    1UNL     H1   25  -0.180   0.185   0.319
    1UNL     H2   26  -0.305   0.141   0.201
    1UNL     H3   27  -0.166   0.253   0.165
    1UNL     H4   28  -0.139  -0.053   0.218
    1UNL     H5   29  -0.009   0.051   0.201
    1UNL     H6   30  -0.351   0.062   0.012
    1UNL     H7   31  -0.308  -0.098   0.075
    1UNL     H8   32  -0.422  -0.086  -0.171
    1UNL     H9   33  -0.262  -0.032  -0.211
    1UNL    H10   34  -0.270  -0.279  -0.232
    1UNL    H11   35  -0.281  -0.278  -0.053
    1UNL    H12   36   0.172  -0.093  -0.273
    1UNL    H13   37   0.146  -0.162   0.190
    1UNL    H14   38   0.355  -0.147   0.299
    1UNL    H15   39   0.534   0.005   0.203
    1UNL    H16   40   0.481   0.150   0.004
    1UNL    H17   41   0.296   0.160  -0.213
    1UNL    H18   42  -0.017   0.330  -0.036
    1UNL    H19   43   0.052   0.215   0.072
    1UNL    H20   44  -0.186   0.204  -0.068
    1UNL    H21   45  -0.103   0.105  -0.174
    1UNL    H22   46  -0.024  -0.301   0.055
   0.00000   0.00000   0.00000   0.00000   0.00000   0.00000   0.00000   0.00000   0.00000
Generated with MDTraj, t= 88.0
 46
    1UNL     C1    1  -0.234   0.152   0.220
    1UNL     C2    2  -0.130   0.049   0.172
    1UNL     C3    3  -0.150   0.012   0.019
    1UNL     C4    4  -0.301  -0.022   0.003
    1UNL     C5    5  -0.349  -0.096  -0.124
    1UNL     C6    6  -0.253  -0.216  -0.157
    1UNL     N1    7  -0.114  -0.172  -0.146
    1UNL     C7    8  -0.013  -0.182  -0.237
    1UNL     O1    9  -0.033  -0.234  -0.349
    1UNL     C8   10   0.108  -0.129  -0.172
    1UNL     C9   11   0.087  -0.086  -0.045
    1UNL    C10   12   0.211  -0.038   0.027
    1UNL    C11   13   0.247  -0.112   0.136
    1UNL    C12   14   0.370  -0.093   0.190
    1UNL    C13   15   0.458   0.005   0.141
    1UNL    C14   16   0.418   0.086   0.033
    1UNL    C15   17   0.293   0.065  -0.020
    1UNL     N2   18   0.249   0.136  -0.133
    1UNL    C16   19   0.126   0.206  -0.147
    1UNL     O2   20   0.107   0.283  -0.234
    1UNL    C17   21   0.030   0.202  -0.038
    1UNL    C18   22  -0.110   0.134  -0.073
    1UNL    C19   23  -0.064  -0.115  -0.017
    1UNL     O3   24  -0.079  -0.213   0.095
    1UNL     H1   25  -0.200   0.203   0.311
    1UNL     H2   26  -0.333   0.110   0.226
    1UNL     H3   27  -0.225   0.231   0.144
    1UNL     H4   28  -0.137  -0.036   0.243
    1UNL     H5   29  -0.022   0.068   0.179
    1UNL     H6   30  -0.362   0.063   0.015
    1UNL     H7   31  -0.314  -0.098   0.077
    1UNL     H8   32  -0.454  -0.131  -0.123
    1UNL     H9   33  -0.330  -0.037  -0.214
    1UNL    H10   34  -0.278  -0.268  -0.249
    1UNL    H11   35  -0.269  -0.279  -0.073
    1UNL    H12   36   0.210  -0.141  -0.213
    1UNL    H13   37   0.168  -0.173   0.178
    1UNL    H14   38   0.394  -0.153   0.276
    1UNL    H15   39   0.559   0.023   0.180
    1UNL    H16   40   0.477   0.160  -0.013
    1UNL    H17   41   0.317   0.178  -0.199
    1UNL    H18   42   0.018   0.304  -0.001
    1UNL    H19   43   0.075   0.146   0.045
    1UNL    H20   44  -0.179   0.212  -0.074
    1UNL    H21   45  -0.097   0.104  -0.177
    1UNL    H22   46  -0.059  -0.299   0.055
   0.00000   0.00000   0.00000   0.00000   0.00000   0.00000   0.00000   0.00000   0.00000
Generated with MDTraj, t= 89.0
 46
    1UNL     C1    1  -0.185   0.166   0.220
    1UNL     C2    2  -0.119   0.039   0.182
    1UNL     C3    3  -0.153   0.007   0.028
    1UNL     C4    4  -0.294  -0.028   0.004
    1UNL     C5    5  -0.322  -0.066  -0.149
    1UNL     C6    6  -0.252  -0.202  -0.173
    1UNL     N1    7  -0.111  -0.189  -0.132
    1UNL     C7    8  -0.013  -0.190  -0.236
    1UNL     O1    9  -0.038  -0.214  -0.355
    1UNL     C8   10   0.111  -0.140  -0.180
    1UNL     C9   11   0.087  -0.092  -0.052
    1UNL    C10   12   0.203  -0.043   0.022
    1UNL    C11   13   0.237  -0.109   0.141
    1UNL    C12   14   0.371  -0.091   0.199
    1UNL    C13   15   0.441   0.016   0.156
    1UNL    C14   16   0.391   0.089   0.047
    1UNL    C15   17   0.278   0.063  -0.024
    1UNL     N2   18   0.237   0.134  -0.136
    1UNL    C16   19   0.115   0.202  -0.150
    1UNL     O2   20   0.091   0.265  -0.251
    1UNL    C17   21   0.017   0.203  -0.033
    1UNL    C18   22  -0.112   0.128  -0.068
    1UNL    C19   23  -0.061  -0.119  -0.006
    1UNL     O3   24  -0.056  -0.208   0.103
    1UNL     H1   25  -0.174   0.188   0.331
    1UNL     H2   26  -0.287   0.162   0.189
    1UNL     H3   27  -0.131   0.246   0.177
    1UNL     H4   28  -0.155  -0.057   0.227
    1UNL     H5   29  -0.014   0.031   0.214
    1UNL     H6   30  -0.353   0.056   0.023
    1UNL     H7   31  -0.317  -0.116   0.064
    1UNL     H8   32  -0.427  -0.081  -0.174
    1UNL     H9   33  -0.279   0.006  -0.222
    1UNL    H10   34  -0.261  -0.229  -0.278
    1UNL    H11   35  -0.291  -0.282  -0.121
    1UNL    H12   36   0.206  -0.147  -0.224
    1UNL    H13   37   0.174  -0.195   0.165
    1UNL    H14   38   0.411  -0.163   0.273
    1UNL    H15   39   0.535   0.043   0.199
    1UNL    H16   40   0.465   0.150  -0.007
    1UNL    H17   41   0.298   0.122  -0.216
    1UNL    H18   42   0.010   0.313  -0.019
    1UNL    H19   43   0.073   0.168   0.054
    1UNL    H20   44  -0.195   0.191  -0.070
    1UNL    H21   45  -0.102   0.099  -0.173
    1UNL    H22   46  -0.035  -0.291   0.058
   0.00000   0.00000   0.00000   0.00000   0.00000   0.00000   0.00000   0.00000   0.00000
Generated with MDTraj, t= 90.0
 46
    1UNL     C1    1  -0.149   0.165   0.227
    1UNL     C2    2  -0.088   0.039   0.166
    1UNL     C3    3  -0.131   0.005   0.024
    1UNL     C4    4  -0.287  -0.028   0.027
    1UNL     C5    5  -0.340  -0.101  -0.100
    1UNL     C6    6  -0.247  -0.212  -0.144
    1UNL     N1    7  -0.114  -0.160  -0.152
    1UNL     C7    8  -0.022  -0.175  -0.257
    1UNL     O1    9  -0.044  -0.223  -0.366
    1UNL     C8   10   0.100  -0.115  -0.201
    1UNL     C9   11   0.086  -0.087  -0.071
    1UNL    C10   12   0.203  -0.047   0.018
    1UNL    C11   13   0.217  -0.103   0.141
    1UNL    C12   14   0.318  -0.062   0.228
    1UNL    C13   15   0.420   0.029   0.187
    1UNL    C14   16   0.395   0.084   0.062
    1UNL    C15   17   0.286   0.059  -0.017
    1UNL     N2   18   0.248   0.137  -0.130
    1UNL    C16   19   0.124   0.190  -0.150
    1UNL     O2   20   0.096   0.235  -0.261
    1UNL    C17   21   0.021   0.210  -0.044
    1UNL    C18   22  -0.108   0.131  -0.067
    1UNL    C19   23  -0.058  -0.118  -0.028
    1UNL     O3   24  -0.063  -0.226   0.065
    1UNL     H1   25  -0.114   0.177   0.335
    1UNL     H2   26  -0.257   0.161   0.217
    1UNL     H3   27  -0.110   0.252   0.185
    1UNL     H4   28  -0.129  -0.040   0.233
    1UNL     H5   29   0.021   0.026   0.165
    1UNL     H6   30  -0.338   0.062   0.043
    1UNL     H7   31  -0.300  -0.101   0.108
    1UNL     H8   32  -0.443  -0.133  -0.089
    1UNL     H9   33  -0.352  -0.029  -0.185
    1UNL    H10   34  -0.259  -0.254  -0.246
    1UNL    H11   35  -0.257  -0.298  -0.091
    1UNL    H12   36   0.186  -0.099  -0.266
    1UNL    H13   37   0.148  -0.180   0.167
    1UNL    H14   38   0.327  -0.117   0.317
    1UNL    H15   39   0.507   0.071   0.240
    1UNL    H16   40   0.467   0.156   0.026
    1UNL    H17   41   0.314   0.148  -0.203
    1UNL    H18   42   0.001   0.319  -0.051
    1UNL    H19   43   0.067   0.201   0.054
    1UNL    H20   44  -0.189   0.197  -0.059
    1UNL    H21   45  -0.109   0.094  -0.171
    1UNL    H22   46  -0.040  -0.304   0.005
   0.00000   0.00000   0.00000   0.00000   0.00000   0.00000   0.00000   0.00000   0.00000
Generated with MDTraj, t= 91.0
 46
    1UNL     C1    1  -0.151   0.139   0.253
    1UNL     C2    2  -0.066   0.040   0.173
    1UNL     C3    3  -0.118   0.002   0.030
    1UNL     C4    4  -0.270  -0.032   0.041
    1UNL     C5    5  -0.334  -0.078  -0.088
    1UNL     C6    6  -0.257  -0.181  -0.163
    1UNL     N1    7  -0.112  -0.168  -0.150
    1UNL     C7    8  -0.024  -0.167  -0.256
    1UNL     O1    9  -0.058  -0.190  -0.370
    1UNL     C8   10   0.104  -0.119  -0.198
    1UNL     C9   11   0.098  -0.105  -0.066
    1UNL    C10   12   0.202  -0.050   0.020
    1UNL    C11   13   0.218  -0.117   0.137
    1UNL    C12   14   0.300  -0.064   0.228
    1UNL    C13   15   0.378   0.052   0.201
    1UNL    C14   16   0.374   0.109   0.073
    1UNL    C15   17   0.274   0.061  -0.015
    1UNL     N2   18   0.246   0.131  -0.133
    1UNL    C16   19   0.131   0.184  -0.173
    1UNL     O2   20   0.110   0.215  -0.290
    1UNL    C17   21   0.019   0.211  -0.076
    1UNL    C18   22  -0.097   0.112  -0.077
    1UNL    C19   23  -0.046  -0.133  -0.019
    1UNL     O3   24  -0.055  -0.235   0.073
    1UNL     H1   25  -0.091   0.175   0.341
    1UNL     H2   26  -0.248   0.097   0.283
    1UNL     H3   27  -0.167   0.234   0.205
    1UNL     H4   28  -0.059  -0.058   0.227
    1UNL     H5   29   0.030   0.090   0.158
    1UNL     H6   30  -0.312   0.051   0.088
    1UNL     H7   31  -0.266  -0.119   0.106
    1UNL     H8   32  -0.437  -0.107  -0.066
    1UNL     H9   33  -0.362   0.007  -0.156
    1UNL    H10   34  -0.279  -0.200  -0.269
    1UNL    H11   35  -0.275  -0.270  -0.120
    1UNL    H12   36   0.176  -0.086  -0.271
    1UNL    H13   37   0.152  -0.201   0.157
    1UNL    H14   38   0.319  -0.111   0.326
    1UNL    H15   39   0.447   0.085   0.274
    1UNL    H16   40   0.401   0.210   0.050
    1UNL    H17   41   0.317   0.133  -0.202
    1UNL    H18   42  -0.034   0.306  -0.097
    1UNL    H19   43   0.056   0.219   0.024
    1UNL    H20   44  -0.177   0.180  -0.062
    1UNL    H21   45  -0.101   0.075  -0.180
    1UNL    H22   46  -0.046  -0.320   0.022
   0.00000   0.00000   0.00000   0.00000   0.00000   0.00000   0.00000   0.00000   0.00000
Generated with MDTraj, t= 92.0
 46
    1UNL     C1    1  -0.124   0.150   0.249
    1UNL     C2    2  -0.074   0.027   0.178
    1UNL     C3    3  -0.129   0.005   0.034
    1UNL     C4    4  -0.278  -0.032   0.034
    1UNL     C5    5  -0.329  -0.083  -0.108
    1UNL     C6    6  -0.245  -0.200  -0.171
    1UNL     N1    7  -0.108  -0.170  -0.146
    1UNL     C7    8  -0.023  -0.154  -0.255
    1UNL     O1    9  -0.052  -0.171  -0.373
    1UNL     C8   10   0.105  -0.125  -0.207
    1UNL     C9   11   0.096  -0.112  -0.067
    1UNL    C10   12   0.198  -0.058   0.021
    1UNL    C11   13   0.226  -0.114   0.146
    1UNL    C12   14   0.321  -0.068   0.235
    1UNL    C13   15   0.377   0.056   0.194
    1UNL    C14   16   0.353   0.120   0.078
    1UNL    C15   17   0.271   0.060  -0.014
    1UNL     N2   18   0.248   0.123  -0.142
    1UNL    C16   19   0.121   0.178  -0.172
    1UNL     O2   20   0.091   0.188  -0.288
    1UNL    C17   21   0.026   0.217  -0.057
    1UNL    C18   22  -0.103   0.141  -0.061
    1UNL    C19   23  -0.053  -0.122  -0.021
    1UNL     O3   24  -0.060  -0.227   0.075
    1UNL     H1   25  -0.072   0.167   0.344
    1UNL     H2   26  -0.231   0.150   0.274
    1UNL     H3   27  -0.106   0.250   0.206
    1UNL     H4   28  -0.107  -0.062   0.238
    1UNL     H5   29   0.036   0.024   0.176
    1UNL     H6   30  -0.328   0.058   0.058
    1UNL     H7   31  -0.284  -0.108   0.109
    1UNL     H8   32  -0.431  -0.116  -0.099
    1UNL     H9   33  -0.338   0.008  -0.176
    1UNL    H10   34  -0.261  -0.206  -0.280
    1UNL    H11   35  -0.258  -0.294  -0.131
    1UNL    H12   36   0.197  -0.144  -0.256
    1UNL    H13   37   0.184  -0.212   0.159
    1UNL    H14   38   0.354  -0.126   0.318
    1UNL    H15   39   0.443   0.102   0.270
    1UNL    H16   40   0.387   0.220   0.044
    1UNL    H17   41   0.307   0.094  -0.221
    1UNL    H18   42   0.022   0.327  -0.066
    1UNL    H19   43   0.078   0.200   0.037
    1UNL    H20   44  -0.187   0.202  -0.042
    1UNL    H21   45  -0.112   0.105  -0.163
    1UNL    H22   46  -0.034  -0.311   0.035
   0.00000   0.00000   0.00000   0.00000   0.00000   0.00000   0.00000   0.00000   0.00000
Generated with MDTraj, t= 93.0
 46
    1UNL     C1    1  -0.149   0.176   0.220
    1UNL     C2    2  -0.091   0.036   0.181
    1UNL     C3    3  -0.132   0.001   0.033
    1UNL     C4    4  -0.282  -0.045   0.029
    1UNL     C5    5  -0.344  -0.084  -0.105
    1UNL     C6    6  -0.257  -0.193  -0.170
    1UNL     N1    7  -0.114  -0.158  -0.155
    1UNL     C7    8  -0.022  -0.166  -0.257
    1UNL     O1    9  -0.048  -0.215  -0.367
    1UNL     C8   10   0.106  -0.120  -0.203
    1UNL     C9   11   0.099  -0.091  -0.070
    1UNL    C10   12   0.195  -0.041   0.025
    1UNL    C11   13   0.206  -0.099   0.159
    1UNL    C12   14   0.323  -0.060   0.225
    1UNL    C13   15   0.426   0.025   0.175
    1UNL    C14   16   0.395   0.096   0.061
    1UNL    C15   17   0.283   0.062  -0.019
    1UNL     N2   18   0.251   0.147  -0.123
    1UNL    C16   19   0.119   0.191  -0.151
    1UNL     O2   20   0.087   0.210  -0.263
    1UNL    C17   21   0.022   0.205  -0.039
    1UNL    C18   22  -0.107   0.124  -0.066
    1UNL    C19   23  -0.046  -0.124  -0.025
    1UNL     O3   24  -0.053  -0.245   0.059
    1UNL     H1   25  -0.126   0.202   0.321
    1UNL     H2   26  -0.259   0.173   0.204
    1UNL     H3   27  -0.106   0.263   0.163
    1UNL     H4   28  -0.125  -0.036   0.259
    1UNL     H5   29   0.017   0.045   0.193
    1UNL     H6   30  -0.339   0.032   0.077
    1UNL     H7   31  -0.286  -0.135   0.086
    1UNL     H8   32  -0.445  -0.120  -0.082
    1UNL     H9   33  -0.358   0.003  -0.177
    1UNL    H10   34  -0.276  -0.190  -0.277
    1UNL    H11   35  -0.285  -0.285  -0.124
    1UNL    H12   36   0.204  -0.143  -0.250
    1UNL    H13   37   0.149  -0.187   0.186
    1UNL    H14   38   0.337  -0.108   0.324
    1UNL    H15   39   0.501   0.063   0.238
    1UNL    H16   40   0.453   0.181   0.042
    1UNL    H17   41   0.317   0.154  -0.203
    1UNL    H18   42  -0.000   0.312  -0.034
    1UNL    H19   43   0.071   0.187   0.059
    1UNL    H20   44  -0.196   0.186  -0.066
    1UNL    H21   45  -0.096   0.076  -0.162
    1UNL    H22   46  -0.021  -0.322   0.010
   0.00000   0.00000   0.00000   0.00000   0.00000   0.00000   0.00000   0.00000   0.00000
Generated with MDTraj, t= 94.0
 46
    1UNL     C1    1  -0.193   0.138   0.250
    1UNL     C2    2  -0.107   0.047   0.168
    1UNL     C3    3  -0.136   0.021   0.022
    1UNL     C4    4  -0.293  -0.021   0.011
    1UNL     C5    5  -0.338  -0.087  -0.127
    1UNL     C6    6  -0.251  -0.213  -0.156
    1UNL     N1    7  -0.108  -0.170  -0.140
    1UNL     C7    8  -0.013  -0.183  -0.244
    1UNL     O1    9  -0.019  -0.223  -0.360
    1UNL     C8   10   0.105  -0.121  -0.187
    1UNL     C9   11   0.090  -0.098  -0.057
    1UNL    C10   12   0.194  -0.048   0.033
    1UNL    C11   13   0.231  -0.119   0.142
    1UNL    C12   14   0.349  -0.088   0.207
    1UNL    C13   15   0.431   0.013   0.153
    1UNL    C14   16   0.395   0.090   0.040
    1UNL    C15   17   0.277   0.053  -0.019
    1UNL     N2   18   0.236   0.125  -0.138
    1UNL    C16   19   0.122   0.207  -0.157
    1UNL     O2   20   0.105   0.270  -0.257
    1UNL    C17   21   0.015   0.217  -0.047
    1UNL    C18   22  -0.111   0.125  -0.080
    1UNL    C19   23  -0.057  -0.115  -0.013
    1UNL     O3   24  -0.062  -0.207   0.098
    1UNL     H1   25  -0.163   0.137   0.352
    1UNL     H2   26  -0.296   0.099   0.248
    1UNL     H3   27  -0.190   0.250   0.224
    1UNL     H4   28  -0.101  -0.057   0.214
    1UNL     H5   29  -0.002   0.078   0.186
    1UNL     H6   30  -0.352   0.068   0.024
    1UNL     H7   31  -0.312  -0.088   0.091
    1UNL     H8   32  -0.445  -0.100  -0.147
    1UNL     H9   33  -0.301  -0.010  -0.203
    1UNL    H10   34  -0.281  -0.243  -0.256
    1UNL    H11   35  -0.273  -0.283  -0.077
    1UNL    H12   36   0.178  -0.073  -0.246
    1UNL    H13   37   0.171  -0.206   0.165
    1UNL    H14   38   0.377  -0.133   0.298
    1UNL    H15   39   0.526   0.040   0.203
    1UNL    H16   40   0.447   0.185   0.021
    1UNL    H17   41   0.303   0.150  -0.215
    1UNL    H18   42  -0.029   0.315  -0.026
    1UNL    H19   43   0.058   0.191   0.052
    1UNL    H20   44  -0.202   0.185  -0.088
    1UNL    H21   45  -0.086   0.072  -0.170
    1UNL    H22   46  -0.026  -0.295   0.065
   0.00000   0.00000   0.00000   0.00000   0.00000   0.00000   0.00000   0.00000   0.00000
Generated with MDTraj, t= 95.0
 46
    1UNL     C1    1  -0.228   0.159   0.217
    1UNL     C2    2  -0.139   0.039   0.168
    1UNL     C3    3  -0.143   0.005   0.022
    1UNL     C4    4  -0.303  -0.022  -0.002
    1UNL     C5    5  -0.325  -0.085  -0.137
    1UNL     C6    6  -0.258  -0.220  -0.147
    1UNL     N1    7  -0.119  -0.188  -0.132
    1UNL     C7    8  -0.030  -0.194  -0.241
    1UNL     O1    9  -0.057  -0.223  -0.352
    1UNL     C8   10   0.098  -0.142  -0.192
    1UNL     C9   11   0.091  -0.084  -0.070
    1UNL    C10   12   0.208  -0.046   0.011
    1UNL    C11   13   0.251  -0.116   0.128
    1UNL    C12   14   0.367  -0.078   0.201
    1UNL    C13   15   0.444   0.024   0.160
    1UNL    C14   16   0.410   0.091   0.040
    1UNL    C15   17   0.299   0.054  -0.030
    1UNL     N2   18   0.256   0.150  -0.129
    1UNL    C16   19   0.131   0.213  -0.141
    1UNL     O2   20   0.098   0.283  -0.233
    1UNL    C17   21   0.036   0.197  -0.026
    1UNL    C18   22  -0.098   0.119  -0.072
    1UNL    C19   23  -0.050  -0.118  -0.015
    1UNL     O3   24  -0.057  -0.207   0.107
    1UNL     H1   25  -0.207   0.204   0.313
    1UNL     H2   26  -0.331   0.121   0.227
    1UNL     H3   27  -0.228   0.251   0.150
    1UNL     H4   28  -0.154  -0.057   0.225
    1UNL     H5   29  -0.031   0.049   0.191
    1UNL     H6   30  -0.364   0.068  -0.001
    1UNL     H7   31  -0.333  -0.085   0.076
    1UNL     H8   32  -0.432  -0.099  -0.154
    1UNL     H9   33  -0.293  -0.016  -0.223
    1UNL    H10   34  -0.267  -0.257  -0.247
    1UNL    H11   35  -0.291  -0.280  -0.062
    1UNL    H12   36   0.193  -0.156  -0.247
    1UNL    H13   37   0.188  -0.190   0.173
    1UNL    H14   38   0.395  -0.146   0.283
    1UNL    H15   39   0.537   0.046   0.208
    1UNL    H16   40   0.459   0.177   0.001
    1UNL    H17   41   0.331   0.187  -0.187
    1UNL    H18   42   0.011   0.293   0.023
    1UNL    H19   43   0.090   0.145   0.055
    1UNL    H20   44  -0.184   0.188  -0.070
    1UNL    H21   45  -0.089   0.077  -0.170
    1UNL    H22   46  -0.036  -0.296   0.077
   0.00000   0.00000   0.00000   0.00000   0.00000   0.00000   0.00000   0.00000   0.00000
Generated with MDTraj, t= 96.0
 46
    1UNL     C1    1  -0.189   0.175   0.212
    1UNL     C2    2  -0.136   0.035   0.176
    1UNL     C3    3  -0.144   0.010   0.023
    1UNL     C4    4  -0.292  -0.037   0.001
    1UNL     C5    5  -0.325  -0.108  -0.135
    1UNL     C6    6  -0.245  -0.241  -0.141
    1UNL     N1    7  -0.107  -0.197  -0.132
    1UNL     C7    8  -0.021  -0.191  -0.240
    1UNL     O1    9  -0.041  -0.227  -0.354
    1UNL     C8   10   0.098  -0.122  -0.192
    1UNL     C9   11   0.080  -0.078  -0.063
    1UNL    C10   12   0.189  -0.034   0.024
    1UNL    C11   13   0.227  -0.108   0.143
    1UNL    C12   14   0.352  -0.089   0.203
    1UNL    C13   15   0.440   0.002   0.145
    1UNL    C14   16   0.408   0.078   0.032
    1UNL    C15   17   0.281   0.062  -0.030
    1UNL     N2   18   0.240   0.143  -0.138
    1UNL    C16   19   0.124   0.226  -0.138
    1UNL     O2   20   0.110   0.299  -0.235
    1UNL    C17   21   0.028   0.220  -0.024
    1UNL    C18   22  -0.099   0.135  -0.066
    1UNL    C19   23  -0.055  -0.119  -0.018
    1UNL     O3   24  -0.063  -0.215   0.094
    1UNL     H1   25  -0.180   0.192   0.320
    1UNL     H2   26  -0.295   0.174   0.179
    1UNL     H3   27  -0.124   0.250   0.166
    1UNL     H4   28  -0.185  -0.054   0.229
    1UNL     H5   29  -0.029   0.034   0.201
    1UNL     H6   30  -0.327   0.066  -0.008
    1UNL     H7   31  -0.331  -0.093   0.082
    1UNL     H8   32  -0.432  -0.114  -0.156
    1UNL     H9   33  -0.293  -0.037  -0.217
    1UNL    H10   34  -0.259  -0.286  -0.235
    1UNL    H11   35  -0.250  -0.309  -0.053
    1UNL    H12   36   0.184  -0.100  -0.249
    1UNL    H13   37   0.163  -0.189   0.181
    1UNL    H14   38   0.381  -0.147   0.289
    1UNL    H15   39   0.548   0.004   0.166
    1UNL    H16   40   0.489   0.130  -0.019
    1UNL    H17   41   0.296   0.137  -0.221
    1UNL    H18   42   0.003   0.328  -0.005
    1UNL    H19   43   0.078   0.196   0.071
    1UNL    H20   44  -0.189   0.198  -0.061
    1UNL    H21   45  -0.096   0.099  -0.166
    1UNL    H22   46  -0.047  -0.307   0.064
   0.00000   0.00000   0.00000   0.00000   0.00000   0.00000   0.00000   0.00000   0.00000
Generated with MDTraj, t= 97.0
 46
    1UNL     C1    1  -0.183   0.158   0.217
    1UNL     C2    2  -0.106   0.043   0.168
    1UNL     C3    3  -0.140   0.007   0.019
    1UNL     C4    4  -0.296  -0.037   0.020
    1UNL     C5    5  -0.341  -0.088  -0.113
    1UNL     C6    6  -0.255  -0.206  -0.159
    1UNL     N1    7  -0.112  -0.177  -0.149
    1UNL     C7    8  -0.020  -0.179  -0.243
    1UNL     O1    9  -0.044  -0.219  -0.357
    1UNL     C8   10   0.102  -0.125  -0.186
    1UNL     C9   11   0.091  -0.091  -0.057
    1UNL    C10   12   0.203  -0.040   0.030
    1UNL    C11   13   0.235  -0.111   0.139
    1UNL    C12   14   0.346  -0.084   0.210
    1UNL    C13   15   0.438   0.016   0.160
    1UNL    C14   16   0.407   0.090   0.049
    1UNL    C15   17   0.284   0.068  -0.014
    1UNL     N2   18   0.246   0.140  -0.132
    1UNL    C16   19   0.121   0.209  -0.148
    1UNL     O2   20   0.096   0.275  -0.249
    1UNL    C17   21   0.013   0.208  -0.046
    1UNL    C18   22  -0.102   0.115  -0.088
    1UNL    C19   23  -0.052  -0.130  -0.020
    1UNL     O3   24  -0.061  -0.221   0.095
    1UNL     H1   25  -0.140   0.205   0.312
    1UNL     H2   26  -0.284   0.120   0.242
    1UNL     H3   27  -0.181   0.241   0.151
    1UNL     H4   28  -0.133  -0.051   0.227
    1UNL     H5   29   0.003   0.051   0.169
    1UNL     H6   30  -0.360   0.047   0.047
    1UNL     H7   31  -0.300  -0.113   0.093
    1UNL     H8   32  -0.448  -0.110  -0.107
    1UNL     H9   33  -0.354   0.001  -0.182
    1UNL    H10   34  -0.265  -0.224  -0.261
    1UNL    H11   35  -0.277  -0.300  -0.105
    1UNL    H12   36   0.187  -0.080  -0.239
    1UNL    H13   37   0.165  -0.186   0.164
    1UNL    H14   38   0.365  -0.118   0.310
    1UNL    H15   39   0.529   0.027   0.214
    1UNL    H16   40   0.488   0.141  -0.002
    1UNL    H17   41   0.317   0.163  -0.196
    1UNL    H18   42  -0.022   0.311  -0.016
    1UNL    H19   43   0.046   0.164   0.047
    1UNL    H20   44  -0.196   0.167  -0.115
    1UNL    H21   45  -0.075   0.057  -0.172
    1UNL    H22   46  -0.034  -0.313   0.067
   0.00000   0.00000   0.00000   0.00000   0.00000   0.00000   0.00000   0.00000   0.00000
Generated with MDTraj, t= 98.0
 46
    1UNL     C1    1  -0.153   0.154   0.246
    1UNL     C2    2  -0.091   0.029   0.178
    1UNL     C3    3  -0.128   0.010   0.029
    1UNL     C4    4  -0.284  -0.029   0.021
    1UNL     C5    5  -0.338  -0.078  -0.117
    1UNL     C6    6  -0.255  -0.196  -0.162
    1UNL     N1    7  -0.105  -0.165  -0.145
    1UNL     C7    8  -0.017  -0.160  -0.253
    1UNL     O1    9  -0.049  -0.200  -0.365
    1UNL     C8   10   0.115  -0.124  -0.202
    1UNL     C9   11   0.099  -0.096  -0.071
    1UNL    C10   12   0.204  -0.057   0.018
    1UNL    C11   13   0.235  -0.122   0.139
    1UNL    C12   14   0.337  -0.073   0.219
    1UNL    C13   15   0.403   0.047   0.194
    1UNL    C14   16   0.378   0.108   0.073
    1UNL    C15   17   0.277   0.055  -0.017
    1UNL     N2   18   0.243   0.125  -0.137
    1UNL    C16   19   0.118   0.184  -0.165
    1UNL     O2   20   0.073   0.216  -0.273
    1UNL    C17   21   0.021   0.202  -0.053
    1UNL    C18   22  -0.107   0.124  -0.071
    1UNL    C19   23  -0.048  -0.111  -0.022
    1UNL     O3   24  -0.053  -0.219   0.080
    1UNL     H1   25  -0.151   0.158   0.362
    1UNL     H2   26  -0.260   0.161   0.224
    1UNL     H3   27  -0.100   0.243   0.224
    1UNL     H4   28  -0.108  -0.074   0.228
    1UNL     H5   29   0.018   0.040   0.179
    1UNL     H6   30  -0.338   0.058   0.055
    1UNL     H7   31  -0.301  -0.112   0.085
    1UNL     H8   32  -0.445  -0.097  -0.105
    1UNL     H9   33  -0.343   0.003  -0.193
    1UNL    H10   34  -0.269  -0.228  -0.258
    1UNL    H11   35  -0.278  -0.280  -0.091
    1UNL    H12   36   0.202  -0.132  -0.264
    1UNL    H13   37   0.152  -0.185   0.178
    1UNL    H14   38   0.345  -0.123   0.317
    1UNL    H15   39   0.458   0.091   0.278
    1UNL    H16   40   0.432   0.191   0.036
    1UNL    H17   41   0.315   0.127  -0.209
    1UNL    H18   42  -0.018   0.306  -0.031
    1UNL    H19   43   0.064   0.178   0.044
    1UNL    H20   44  -0.194   0.194  -0.057
    1UNL    H21   45  -0.122   0.081  -0.167
    1UNL    H22   46  -0.011  -0.296   0.039
   0.00000   0.00000   0.00000   0.00000   0.00000   0.00000   0.00000   0.00000   0.00000
Generated with MDTraj, t= 99.0
 46
    1UNL     C1    1  -0.132   0.159   0.248
    1UNL     C2    2  -0.069   0.026   0.177
    1UNL     C3    3  -0.123  -0.002   0.037
    1UNL     C4    4  -0.273  -0.042   0.043
    1UNL     C5    5  -0.325  -0.076  -0.100
    1UNL     C6    6  -0.246  -0.192  -0.162
    1UNL     N1    7  -0.113  -0.151  -0.157
    1UNL     C7    8  -0.026  -0.153  -0.265
    1UNL     O1    9  -0.051  -0.193  -0.375
    1UNL     C8   10   0.102  -0.124  -0.201
    1UNL     C9   11   0.091  -0.102  -0.065
    1UNL    C10   12   0.197  -0.048   0.020
    1UNL    C11   13   0.209  -0.092   0.151
    1UNL    C12   14   0.309  -0.057   0.241
    1UNL    C13   15   0.395   0.045   0.200
    1UNL    C14   16   0.369   0.104   0.078
    1UNL    C15   17   0.280   0.064  -0.019
    1UNL     N2   18   0.252   0.133  -0.142
    1UNL    C16   19   0.120   0.178  -0.172
    1UNL     O2   20   0.088   0.185  -0.288
    1UNL    C17   21   0.024   0.211  -0.059
    1UNL    C18   22  -0.108   0.123  -0.054
    1UNL    C19   23  -0.051  -0.124  -0.024
    1UNL     O3   24  -0.059  -0.244   0.051
    1UNL     H1   25  -0.068   0.194   0.335
    1UNL     H2   26  -0.230   0.127   0.287
    1UNL     H3   27  -0.130   0.242   0.179
    1UNL     H4   28  -0.075  -0.066   0.243
    1UNL     H5   29   0.040   0.048   0.183
    1UNL     H6   30  -0.333   0.039   0.081
    1UNL     H7   31  -0.272  -0.126   0.110
    1UNL     H8   32  -0.432  -0.104  -0.105
    1UNL     H9   33  -0.328   0.015  -0.162
    1UNL    H10   34  -0.270  -0.191  -0.262
    1UNL    H11   35  -0.256  -0.296  -0.117
    1UNL    H12   36   0.191  -0.106  -0.257
    1UNL    H13   37   0.134  -0.151   0.195
    1UNL    H14   38   0.302  -0.096   0.339
    1UNL    H15   39   0.486   0.072   0.248
    1UNL    H16   40   0.415   0.201   0.049
    1UNL    H17   41   0.320   0.141  -0.221
    1UNL    H18   42  -0.003   0.319  -0.075
    1UNL    H19   43   0.073   0.212   0.039
    1UNL    H20   44  -0.208   0.177  -0.052
    1UNL    H21   45  -0.101   0.081  -0.153
    1UNL    H22   46  -0.039  -0.315  -0.011
   0.00000   0.00000   0.00000   0.00000   0.00000   0.00000   0.00000   0.00000   0.00000
