1TPCN03248
15
    1res  C1    1   -0.187   0.392   0.013
    1res  C2    2   -0.085   0.127  -0.061
    1res  C3    3    0.196   0.301   0.069
    1res  C4    4    0.134   0.050  -0.042
    1res  C5    5   -0.291  -0.053   0.083
    1res  C6    6   -0.447   0.033   0.325
    1res  C7    7   -0.585  -0.078   0.072
    1res  C8    8   -0.483  -0.251  -0.075
    1res  C9    9   -0.351  -0.124  -0.200
    1res  C10   10    0.120  -0.159  -0.184
    1res  C11   11    0.368  -0.014  -0.091
    1res  C12   12    0.465  -0.233  -0.015
    1res  C13   13    0.479  -0.041   0.144
    1res  C14   14    0.670  -0.329   0.029
    1res  C15   15    0.451  -0.393  -0.147
  10.00000  10.00000  10.00000
