[ moleculetype ]
; name        nrexcl
res           1

[ atoms ]
;    nr  type  resnr resid  atom  cgnr     charge       mass
      1 TC5       1 res   C1        1      0.000     36.000
      2 TC6       1 res   C2        2      0.000     36.000
      3 TC5       1 res   C3        3      0.000     36.000
      4 TC3       1 res   C4        4      0.000     36.000

[ bonds ]
;  ai    aj   funct      b0(nm)          k(kJ/mol/nm^2)
    1     2     1      0.24275         127458.8
    1     3     1      0.25082         127714.0
    2     3     1      0.25815         144508.7
    3     4     1      0.27480           4878.8

[ angles ]
;  ai    aj    ak  funct     th0(deg)        k(kJ/mol/rad^2)
    1     2     3     1     60.00885          3857.11
    1     3     2     1     56.94451          5053.47
    1     3     4     1    135.03925            69.28
    2     1     3     1     63.04659          4101.55
    2     3     4     1     80.43851            63.95

[ dihedrals ]
;  ai    aj    ak    al  funct   phi0(deg)        k(kJ/mol)   mult
    1     2     3     4     1      1.70112       21.698      1
    1     2     3     4     1   -176.48793       18.665      2
    1     2     3     4     1      5.59018       14.225      3
    2     1     3     4     1    179.79136       26.030      1
    2     1     3     4     1    179.05692       19.062      2
    2     1     3     4     1    176.29398       10.227      3
