1TPCN05560
28
    1res  C1    1    0.681  -0.371   0.154
    1res  C2    2    0.743  -0.083   0.128
    1res  C3    3    0.489  -0.087   0.067
    1res  C4    4    0.565   0.088  -0.075
    1res  C5    5    0.692   0.219  -0.216
    1res  C6    6    0.642   0.498  -0.295
    1res  C7    7    0.936   0.410  -0.231
    1res  C8    8    1.014   0.191  -0.167
    1res  C9    9    0.899   0.063  -0.318
    1res  C10   10    0.422   0.164   0.209
    1res  C11   11    0.267  -0.039   0.309
    1res  C12   12    0.129  -0.222   0.052
    1res  C13   13    0.033   0.084   0.254
    1res  C14   14   -0.210   0.021   0.199
    1res  C15   15   -0.246  -0.228   0.022
    1res  C16   16   -0.432  -0.085  -0.052
    1res  C17   17   -0.569  -0.257  -0.258
    1res  C18   18   -0.794  -0.302  -0.410
    1res  C19   19   -0.888  -0.259  -0.192
    1res  C20   20   -0.727  -0.106  -0.103
    1res  C21   21   -0.800   0.126   0.013
    1res  C22   22   -0.795   0.287  -0.187
    1res  C23   23   -1.013   0.256   0.075
    1res  C24   24   -0.914   0.175   0.283
    1res  C25   25   -0.888  -0.080   0.206
    1res  C26   26   -0.345   0.133  -0.114
    1res  C27   27    0.040   0.111  -0.049
    1res  C28   28    0.464  -0.283   0.243
  10.00000  10.00000  10.00000
