[ moleculetype ]
; name        nrexcl
res           1

[ atoms ]
;    nr  type resnr resid  atom  cgnr     charge       mass
      1 SC4       1 res   C1        1      0.000     54.000
      2 N4a       1 res   C2        2      0.000     72.000
      3 TN4a      1 res   C3        3      0.000     36.000
      4 TN6       1 res   C4        4      0.000     36.000
      5 SN6       1 res   C5        5      0.000     54.000
      6 TN6       1 res   C6        6      0.000     36.000
      7 SC3       1 res   C7        7      0.000     54.000
      8 SC4       1 res   C8        8      0.000     54.000
      9 TC3       1 res   C9        9      0.000     36.000
     10 SC4       1 res   C10      10      0.000     54.000
     11 SN6       1 res   C11      11      0.000     54.000
     12 SC4       1 res   C12      12      0.000     54.000
     13 SC3       1 res   C13      13      0.000     54.000
     14 SN3r      1 res   C14      14      0.000     54.000
     15 SC2       1 res   C15      15      0.000     54.000
     16 SC2       1 res   C16      16      0.000     54.000
     17 SN4a      1 res   C17      17      0.000     54.000
     18 TP1       1 res   C18      18      0.000     36.000
     19 TN6       1 res   C19      19      0.000     36.000
     20 TN6       1 res   C20      20      0.000     36.000
     21 TN6       1 res   C21      21      0.000     36.000
     22 SC4       1 res   C22      22      0.000     54.000
     23 TN4a      1 res   C23      23      0.000     36.000
     24 TP1       1 res   C24      24      0.000     36.000
     25 TN6       1 res   C25      25      0.000     36.000
     26 TN6       1 res   C26      26      0.000     36.000
     27 TN6       1 res   C27      27      0.000     36.000
     28 TN6       1 res   C28      28      0.000     36.000

[ bonds ]
;  ai    aj   funct      b0(nm)        k
    1     2     1      0.34901    20000
    2     3     1      0.23113    20000
    3     4     1      0.25905    20000
    3    28     1      0.26227    20000
    4     5     1      0.27108    20000
    4    26     1      0.23769    20000
    5     6     1      0.28449    20000
    5    25     1      0.27274    20000
    6     7     1      0.31713    20000
    6    23     1      0.26295    20000
    7     8     1      0.25832    20000
    7    22     1      0.35025    20000
    8     9     1      0.30305    20000
    8    10     1      0.27026    20000
    8    22     1      0.33668    20000
    9    10     1      0.28766    20000
   10    11     1      0.39338    20000
   10    12     1      0.32895    20000
   11    12     1      0.36313    20000
   12    13     1      0.27828    20000
   13    14     1      0.38504    20000
   14    15     1      0.30086    20000
   14    17     1      0.42549    20000
   15    16     1      0.32676    20000
   17    18     1      0.31297    20000
   17    19     1      0.27144    20000
   17    21     1      0.30546    20000
   19    20     1      0.26223    20000
   20    21     1      0.24271    20000
   23    24     1      0.24321    20000
   23    25     1      0.23178    20000
   26    27     1      0.21597    20000
   27    28     1      0.24555    20000
