[ moleculetype ]
; name        nrexcl
res           1

[ atoms ]
;    nr  type  resnr resid  atom  cgnr     charge       mass
      1 SC4       1 res   C1        1      0.000     54.000
      2 SC4       1 res   C2        2      0.000     54.000
      3 SC4       1 res   C3        3      0.000     54.000

[ constraints ]
;  ai    aj   funct      b0(nm)
    1     2     1      0.40512
    1     3     1      0.40500
    2     3     1      0.40497

[ bonds ]
;  ai    aj   funct      b0(nm)          k(kJ/mol/nm^2)

[ angles ]
;  ai    aj    ak  funct     th0(deg)        k(kJ/mol/rad^2)
    1     2     3     1     59.99792          8703.40
    1     3     2     1     60.01864         17429.49
    2     1     3     1     59.98344         15310.66

[ dihedrals ]
;  ai    aj    ak    al  funct   phi0(deg)        k(kJ/mol)   mult
