[ moleculetype ]
; name        nrexcl
res           1

[ atoms ]
;    nr  type  resnr resid  atom  cgnr     charge       mass
      1 TC3       1 res   C1        1      0.000     36.000
      2 SN6a      1 res   C2        2      0.000     54.000
      3 TN6d      1 res   C3        3      0.000     36.000
      4 TC3       1 res   C4        4      0.000     36.000
      5 TC5       1 res   C5        5      0.000     36.000
      6 TN1       1 res   C6        6      0.000     36.000
      7 TC5       1 res   C7        7      0.000     36.000
      8 TC5       1 res   C8        8      0.000     36.000
      9 TC5       1 res   C9        9      0.000     36.000
     10 TP1       1 res   C10      10      0.000     36.000
     11 TC3       1 res   C11      11      0.000     36.000

[ bonds ]
;  ai    aj   funct      b0(nm)          k(kJ/mol/nm^2)
    1     2     1      0.24812          55431.4
    2     3     1      0.27532         159638.6
    2    11     1      0.30688          62208.3
    3     4     1      0.25618          62031.9
    3     5     1      0.20756         112199.4
    3    11     1      0.24811         187784.8
    4     5     1      0.25023         153720.6
    5     6     1      0.27585          78296.7
    5     7     1      0.18403         323433.5
    6     7     1      0.28120          84618.5
    6    10     1      0.23924          17285.4
    6    11     1      0.24404          73773.0
    7     8     1      0.24979         198236.7
    7     9     1      0.25073         207396.7
    8     9     1      0.29121         225543.6

[ angles ]
;  ai    aj    ak  funct     th0(deg)        k(kJ/mol/rad^2)
    1     2     3     1    147.28586           436.46
    1     2    11     1    102.26965           423.21
    2     3     4     1     82.72206           804.17
    2     3     5     1     88.47926           279.07
    2     3    11     1     71.58641          2211.15
    2    11     3     1     58.33628          3919.44
    2    11     6     1     85.22385           801.07
    3     2    11     1     50.07734          7237.60
    3     4     5     1     48.36497          6012.45
    3     5     4     1     67.30237          2827.31
    3     5     6     1     86.61367          1444.43
    3     5     7     1    155.32827           600.59
    3    11     6     1     85.86648          1543.55
    4     3     5     1     64.33263          2759.55
    4     3    11     1    150.88692           800.45
    4     5     6     1    144.17623           602.35
    4     5     7     1    125.34018           872.15
    5     3    11     1    101.20685          1932.75
    5     6     7     1     38.53759         10053.23
    5     6    10     1    128.10694            64.99
    5     6    11     1     85.34350          1323.43
    5     7     6     1     69.15693          1241.55
    5     7     8     1    162.08608          1861.62
    5     7     9     1    125.77361          2088.99
    6     5     7     1     72.30563          1228.89
    6     7     8     1     93.86430           912.56
    6     7     9     1    162.82254           461.72
    7     6    10     1    104.18572           269.02
    7     6    11     1    121.83645          2198.61
    7     8     9     1     54.57196          7997.47
    7     9     8     1     54.26780          9666.11
    8     7     9     1     71.16022          6683.66
   10     6    11     1    105.43021           548.92
