1TPCN04078
14
    1res  C1    1   -0.552  -0.234   0.157
    1res  C2    2   -0.579  -0.027  -0.050
    1res  C3    3   -0.337  -0.078   0.062
    1res  C4    4   -0.359   0.074  -0.301
    1res  C5    5   -0.260   0.231  -0.023
    1res  C6    6   -0.120   0.035   0.040
    1res  C7    7   -0.119   0.177   0.273
    1res  C8    8    0.019  -0.185   0.065
    1res  C9    9    0.122   0.182   0.083
    1res  C10   10    0.334  -0.125   0.057
    1res  C11   11    0.475   0.113   0.118
    1res  C12   12    0.621   0.092  -0.100
    1res  C13   13    0.513  -0.094  -0.218
    1res  C14   14    0.156   0.099  -0.187
  10.00000  10.00000  10.00000
