155265-51-5
6
    1res  C1    1    0.169   0.072  -0.089
    1res  C2    2    0.154  -0.145  -0.032
    1res  C3    3   -0.039  -0.135  -0.138
    1res  C4    4   -0.223  -0.066  -0.009
    1res  C5    5   -0.121   0.137  -0.067
    1res  C6    6    0.056   0.215   0.066
  10.00000  10.00000  10.00000
