[ moleculetype ]
; name        nrexcl
res           1

[ atoms ]
;    nr  type resnr resid  atom  cgnr     charge       mass
      1 SC4       1 res   C1        1      0.000     54.000
      2 TC3       1 res   C2        2      0.000     36.000
      3 SC3       1 res   C3        3      0.000     54.000
      4 TC3       1 res   C4        4      0.000     36.000
      5 SC4       1 res   C5        5      0.000     54.000
      6 TC3       1 res   C6        6      0.000     36.000
      7 SC4       1 res   C7        7      0.000     54.000
      8 SC4       1 res   C8        8      0.000     54.000
      9 TC3       1 res   C9        9      0.000     36.000
     10 TN6       1 res   C10      10      0.000     36.000
     11 SC4       1 res   C11      11      0.000     54.000
     12 TC3       1 res   C12      12      0.000     36.000

[ bonds ]
;  ai    aj   funct      b0(nm)        k
    1     2     1      0.29210    20000
    2     3     1      0.23016    20000
    3     4     1      0.35730    20000
    3     5     1      0.34716    20000
    4     5     1      0.28348    20000
    5     6     1      0.37114    20000
    5     7     1      0.29137    20000
    6     7     1      0.30428    20000
    7     8     1      0.35334    20000
    7    12     1      0.30709    20000
    8     9     1      0.30610    20000
    8    11     1      0.33635    20000
    8    12     1      0.36654    20000
    9    10     1      0.28184    20000
   10    11     1      0.25730    20000
