1TPCN05875
23
    1res  C1    1   -0.451   0.223  -0.049
    1res  C2    2   -0.348   0.126  -0.289
    1res  C3    3   -0.347  -0.142  -0.233
    1res  C4    4   -0.382  -0.228   0.064
    1res  C5    5   -0.079  -0.142  -0.165
    1res  C6    6   -0.078  -0.334   0.157
    1res  C7    7    0.168  -0.334   0.020
    1res  C8    8    0.276  -0.209   0.210
    1res  C9    9    0.532  -0.164   0.229
    1res  C10   10    0.765  -0.378   0.136
    1res  C11   11    0.792  -0.036   0.161
    1res  C12   12    0.668   0.122   0.255
    1res  C13   13    0.459   0.077   0.154
    1res  C14   14    0.394   0.157  -0.091
    1res  C15   15    0.455   0.166  -0.395
    1res  C16   16    0.510   0.388  -0.219
    1res  C17   17    0.484   0.452  -0.018
    1res  C18   18    0.314   0.337   0.057
    1res  C19   19    0.099  -0.176   0.381
    1res  C20   20   -0.057   0.029   0.065
    1res  C21   21   -0.810  -0.004  -0.079
    1res  C22   22   -0.803   0.107   0.204
    1res  C23   23   -0.737   0.264  -0.147
  10.00000  10.00000  10.00000
