[ moleculetype ]
; name        nrexcl
res           1

[ atoms ]
;    nr  type  resnr resid  atom  cgnr     charge       mass
      1 TC5       1 res   C1        1      0.000     36.000
      2 SN6       1 res   C2        2      0.000     54.000
      3 SN4a      1 res   C3        3      0.000     54.000
      4 TP1       1 res   C4        4      0.000     36.000
      5 SP4       1 res   C5        5      0.000     54.000
      6 TN6       1 res   C6        6      0.000     36.000
      7 TN4a      1 res   C7        7      0.000     36.000
      8 TC5       1 res   C8        8      0.000     36.000
      9 TN6a      1 res   C9        9      0.000     36.000
     10 SN6d      1 res   C10      10      0.000     54.000
     11 TC3       1 res   C11      11      0.000     36.000
     12 TC5       1 res   C12      12      0.000     36.000
     13 SN6       1 res   C13      13      0.000     54.000
     14 SN6       1 res   C14      14      0.000     54.000
     15 SN4a      1 res   C15      15      0.000     54.000
     16 TP1       1 res   C16      16      0.000     36.000
     17 SP4       1 res   C17      17      0.000     54.000
     18 TN6       1 res   C18      18      0.000     36.000

[ constraints ]
;  ai    aj   funct      b0(nm)
    9    10     1      0.31979
   10    12     1      0.26513
    2     7     1      0.28563
    1     2     1      0.29751
   10    11     1      0.36233
    3     5     1      0.26188
   11    12     1      0.24831
   12    14     1      0.25959
    8    10     1      0.23026
    7     8     1      0.25491
   15    18     1      0.25723
   12    13     1      0.28972
    2     8     1      0.24246
    8     9     1      0.27186

[ bonds ]
;  ai    aj   funct      b0(nm)          k(kJ/mol/nm^2)
   17    18     1      0.28609          14471.0
   13    14     1      0.29281           8596.6
   15    17     1      0.27916          14061.7
    3     6     1      0.25769           2639.9
   14    15     1      0.27494            842.8
    5     6     1      0.28833          12348.8
   15    16     1      0.30379          10268.4
    2     3     1      0.34252           6468.7
    3     4     1      0.28759          15743.1

[ angles ]
;  ai    aj    ak  funct     th0(deg)        k(kJ/mol/rad^2)
    1     2     3     1    152.99124           108.29
    1     2     7     1     84.04721            67.37
    1     2     8     1     84.06709           243.16
    2     3     4     1     86.70978            99.04
    2     3     5     1    110.54689            38.13
    2     3     6     1     86.61989            39.58
    2     7     8     1     52.90387          2531.33
    2     8     7     1     70.05718          1877.08
    2     8     9     1    135.55652           746.41
    2     8    10     1    130.78850           267.84
    3     2     7     1     92.12868           183.81
    3     2     8     1    112.52647            64.58
    3     5     6     1     55.60449           176.89
    3     6     5     1     57.38708           196.06
    4     3     5     1     83.44051           259.77
    4     3     6     1    134.95058            36.94
    5     3     6     1     67.00584           898.69
    7     2     8     1     57.03911          1535.88
    7     8     9     1     66.83239          1561.00
    7     8    10     1    129.44128           209.21
    8     9    10     1     44.86616          5340.60
    8    10     9     1     56.44857          1541.00
    8    10    11     1     96.20555           123.10
    8    10    12     1    101.49573            14.66
    9     8    10     1     78.68505          1034.44
    9    10    11     1     53.29355           580.55
    9    10    12     1     87.10038           100.14
   10    11    12     1     47.00542          2032.04
   10    12    11     1     89.74309          1282.42
   10    12    13     1    151.96662           441.22
   10    12    14     1     89.98814          1220.23
   11    10    12     1     43.25142          3189.04
   11    12    13     1    116.74419           442.16
   11    12    14     1    171.09764           289.98
   12    13    14     1     52.90051          2035.06
   12    14    13     1     62.91309          1379.24
   12    14    15     1    146.24222            48.04
   13    12    14     1     64.18461           480.52
   13    14    15     1    113.10493            21.42
   14    15    16     1    120.04432            32.85
   14    15    17     1    149.95864            58.09
   14    15    18     1     92.49299            29.03
   15    17    18     1     54.02437          1167.02
   15    18    17     1     61.61540           426.72
   16    15    17     1     81.56001           354.21
   16    15    18     1    142.94333           133.17
   17    15    18     1     64.36259           416.65

[ dihedrals ]
;  ai    aj    ak    al  funct   phi0(deg)        k(kJ/mol)   mult
    1     2     3     4     1    -46.49450       21.853      1
    1     2     3     5     1     37.14519       21.783      1
    1     2     3     6     1     94.98075       21.529      1
    1     2     7     8     1     93.96760       10.801      1
    1     2     8     7     1    -91.11012       17.174      1
    1     2     8     9     1    -94.18190       25.760      1
    1     2     8    10     1    139.09009       21.169      1
    2     3     5     6     1   -113.45719       28.129      1
    2     3     6     5     1     55.99681       21.834      1
    2     7     8     9     1     -4.22814       17.734      1
    2     7     8    10     1    -53.95001       12.213      1
    2     8     9    10     1     41.68025       17.049      1
    2     8    10     9     1    -35.29894       12.920      1
    2     8    10    11     1     -3.29965       17.095      1
    2     8    10    12     1     27.21221       19.980      1
    3     2     7     8     1    -62.30329       19.115      1
    3     2     8     7     1    106.19690       15.028      1
    3     2     8     9     1     97.43837       24.530      1
    3     2     8    10     1    -22.57087       21.053      1
    4     3     2     7     1     26.09282       30.137      1
    4     3     2     8     1     80.68146       30.434      1
    4     3     5     6     1    -25.12660       29.396      1
    4     3     6     5     1    150.53000       30.112      1
    5     3     2     7     1    102.92207       30.877      1
    5     3     2     8     1    158.67145       30.145      1
    6     3     2     7     1    165.10076       30.936      1
    6     3     2     8     1   -138.14385       33.447      1
    7     2     8     9     1    175.33233       20.315      1
    7     2     8    10     1     54.09960       17.729      1
    7     8     9    10     1     35.09257       16.994      1
    7     8    10     9     1   -139.58466       15.546      1
    7     8    10    11     1    -99.01992       18.363      1
    7     8    10    12     1    -66.41452       21.864      1
    8     9    10    11     1     46.07858       19.615      1
    8     9    10    12     1     62.19461       20.793      1
    8    10    11    12     1    -65.04878       24.071      1
    8    10    12    11     1    108.03833       22.504      1
    8    10    12    13     1    -85.23994       31.152      1
    8    10    12    14     1    -66.62862       28.076      1
    9     8    10    11     1   -145.83641       13.648      1
    9     8    10    12     1   -115.19985       18.489      1
    9    10    11    12     1    -31.47226       26.195      1
    9    10    12    11     1    158.47813       21.655      1
    9    10    12    13     1    -37.66645       25.676      1
    9    10    12    14     1    -20.22833       26.769      1
   10    11    12    13     1      5.90478       15.036      1
   10    11    12    14     1   -123.29760       12.062      1
   10    12    13    14     1   -162.77856       25.654      1
   10    12    14    13     1      7.33667       14.302      1
   10    12    14    15     1   -103.35777       12.430      1
   11    10    12    13     1     -6.99141       22.068      1
   11    10    12    14     1      5.31177       14.274      1
   11    12    13    14     1      6.09403       16.332      1
   11    12    14    13     1    -55.89475       12.156      1
   11    12    14    15     1   -113.82290        5.098      1
   12    13    14    15     1      3.50449       26.589      1
   12    14    15    16     1    114.17798       25.434      1
   12    14    15    17     1    -49.84152       18.275      1
   12    14    15    18     1    -49.99327       27.154      1
   13    12    14    15     1     49.18222        8.107      1
   13    14    15    16     1    -17.02758       27.837      1
   13    14    15    17     1    177.62973       24.592      1
   13    14    15    18     1    174.52091       28.750      1
   14    15    17    18     1    165.80608       28.797      1
   14    15    18    17     1     -3.75903       25.531      1
   16    15    17    18     1      7.63749       17.715      1
   16    15    18    17     1   -166.64015       20.965      1
