[ moleculetype ]
; name        nrexcl
res           1

[ atoms ]
;    nr  type resnr resid  atom  cgnr     charge       mass
      1 SC4       1 res   C1        1      0.000     54.000
      2 TC3       1 res   C2        2      0.000     36.000
      3 SC5       1 res   C3        3      0.000     54.000
      4 SP2       1 res   C4        4      0.000     54.000
      5 TC3       1 res   C5        5      0.000     36.000
      6 TC5       1 res   C6        6      0.000     36.000
      7 TN2a      1 res   C7        7      0.000     36.000
      8 TC3       1 res   C8        8      0.000     36.000
      9 TC5       1 res   C9        9      0.000     36.000
     10 TC3       1 res   C10      10      0.000     36.000
     11 SC4       1 res   C11      11      0.000     54.000
     12 TC4       1 res   C12      12      0.000     36.000
     13 TP1       1 res   C13      13      0.000     36.000
     14 SC3       1 res   C14      14      0.000     54.000
     15 TN6       1 res   C15      15      0.000     36.000
     16 TN4a      1 res   C16      16      0.000     36.000
     17 TN6       1 res   C17      17      0.000     36.000
     18 TN6       1 res   C18      18      0.000     36.000
     19 TN6       1 res   C19      19      0.000     36.000
     20 SN4a      1 res   C20      20      0.000     54.000
     21 TP1       1 res   C21      21      0.000     36.000
     22 TN6       1 res   C22      22      0.000     36.000
     23 TN6       1 res   C23      23      0.000     36.000
     24 TN6       1 res   C24      24      0.000     36.000

[ bonds ]
;  ai    aj   funct      b0(nm)        k
    1     2     1      0.30079    20000
    1     3     1      0.27927    20000
    2     3     1      0.28061    20000
    3     4     1      0.35846    20000
    3     5     1      0.35992    20000
    3     6     1      0.26463    20000
    5     6     1      0.24352    20000
    6     7     1      0.24454    20000
    6     8     1      0.26104    20000
    6     9     1      0.22457    20000
    8     9     1      0.24655    20000
    9    10     1      0.25259    20000
    9    11     1      0.27669    20000
   10    11     1      0.37876    20000
   11    12     1      0.39945    20000
   11    14     1      0.28335    20000
   12    13     1      0.26455    20000
   12    14     1      0.38360    20000
   14    15     1      0.27035    20000
   15    16     1      0.26139    20000
   15    19     1      0.21305    20000
   16    17     1      0.22183    20000
   17    18     1      0.23906    20000
   18    19     1      0.21602    20000
   19    20     1      0.28880    20000
   20    21     1      0.23874    20000
   20    22     1      0.26825    20000
   20    24     1      0.26259    20000
   22    23     1      0.24030    20000
   23    24     1      0.22104    20000
