[ moleculetype ]
; name        nrexcl
res           1

[ atoms ]
;    nr  type  resnr resid  atom  cgnr     charge       mass
      1 SX3       1 res   C1        1      0.000     54.000
      2 SX3       1 res   C2        2      0.000     54.000
      3 TN6a      1 res   C3        3      0.000     36.000

[ constraints ]
;  ai    aj   funct      b0(nm)
    1     2     1      0.30868
    1     3     1      0.30489
    2     3     1      0.26305

[ bonds ]
;  ai    aj   funct      b0(nm)          k(kJ/mol/nm^2)

[ angles ]
;  ai    aj    ak  funct     th0(deg)        k(kJ/mol/rad^2)
    1     2     3     1     63.86844          7610.93
    1     3     2     1     65.36240          7618.96
    2     1     3     1     50.76917          9498.68

[ dihedrals ]
;  ai    aj    ak    al  funct   phi0(deg)        k(kJ/mol)   mult
