[ moleculetype ]
; name        nrexcl
res           1

[ atoms ]
;    nr  type resnr resid  atom  cgnr     charge       mass
      1 TP1       1 res   C1        1      0.000     36.000
      2 TN4a      1 res   C2        2      0.000     36.000
      3 SP4       1 res   C3        3      0.000     54.000
      4 SP4       1 res   C4        4      0.000     54.000
      5 SN6       1 res   C5        5      0.000     54.000
      6 TN4a      1 res   C6        6      0.000     36.000
      7 SP4       1 res   C7        7      0.000     54.000
      8 TP1       1 res   C8        8      0.000     36.000

[ bonds ]
;  ai    aj   funct      b0(nm)        k
    1     2     1      0.22102    20000
    2     3     1      0.25304    20000
    2     4     1      0.29388    20000
    3     4     1      0.30809    20000
    4     5     1      0.40851    20000
    5     6     1      0.27844    20000
    5     7     1      0.28070    20000
    6     7     1      0.25467    20000
    6     8     1      0.21360    20000
