1Lactose
8
    1res  C1    1   -0.350   0.130   0.215
    1res  C2    2   -0.224   0.057   0.049
    1res  C3    3   -0.365  -0.152   0.036
    1res  C4    4   -0.088  -0.158  -0.098
    1res  C5    5    0.147   0.110   0.101
    1res  C6    6    0.275   0.037  -0.135
    1res  C7    7    0.410   0.015   0.080
    1res  C8    8    0.194   0.121  -0.314
  10.00000  10.00000  10.00000
