[ moleculetype ]
; name        nrexcl
res           1

[ atoms ]
;    nr  type  resnr resid  atom  cgnr     charge       mass
      1 TC5       1 res   C1        1      0.000     36.000
      2 TN6d      1 res   C2        2      0.000     36.000
      3 TX3       1 res   C3        3      0.000     36.000
      4 SX3       1 res   C4        4      0.000     54.000

[ constraints ]
;  ai    aj   funct      b0(nm)
    1     2     1      0.31907
    2     3     1      0.25024
    1     4     1      0.30391
    3     4     1      0.28201

[ bonds ]
;  ai    aj   funct      b0(nm)          k(kJ/mol/nm^2)

[ angles ]
;  ai    aj    ak  funct     th0(deg)        k(kJ/mol/rad^2)
    1     2     3     1     82.21982          2508.89
    1     4     3     1     80.22843          4518.46
    2     1     4     1     88.10339          2878.75
    2     3     4     1    108.84457          2154.26

[ dihedrals ]
;  ai    aj    ak    al  funct   phi0(deg)        k(kJ/mol)   mult
    1     2     3     4     1   -179.87122       10.796      1
    1     4     3     2     1   -179.97976       12.217      1
    2     1     4     3     1    179.99498        9.314      1
    3     2     1     4     1   -179.99091       10.755      1
