Generated with MDTraj, t= 0.0
 66
    1UNL     C1    1  -0.255  -0.450  -0.132
    1UNL     C2    2  -0.237  -0.404  -0.010
    1UNL     C3    3  -0.174  -0.272   0.018
    1UNL     C4    4  -0.220  -0.215   0.155
    1UNL     O1    5  -0.169  -0.084   0.179
    1UNL     C5    6  -0.217   0.019   0.093
    1UNL     O2    7  -0.200  -0.008  -0.046
    1UNL     C6    8  -0.240   0.098  -0.134
    1UNL     C7    9  -0.391   0.116  -0.128
    1UNL     O3   10  -0.456  -0.008  -0.141
    1UNL     C8   11  -0.161   0.229  -0.103
    1UNL     O4   12  -0.205   0.336  -0.185
    1UNL     C9   13  -0.179   0.268   0.045
    1UNL     O5   14  -0.311   0.316   0.067
    1UNL    C10   15  -0.142   0.148   0.136
    1UNL     O6   16  -0.003   0.124   0.136
    1UNL     O7   17  -0.178  -0.304   0.259
    1UNL    C11   18  -0.042  -0.308   0.262
    1UNL    C12   19   0.039  -0.284   0.155
    1UNL    C13   20   0.181  -0.264   0.174
    1UNL     O8   21   0.234  -0.287   0.282
    1UNL     N1   22   0.256  -0.213   0.068
    1UNL    C14   23   0.396  -0.178   0.096
    1UNL    C15   24   0.413  -0.027   0.115
    1UNL    C16   25   0.332   0.050   0.016
    1UNL    C17   26   0.236  -0.008  -0.064
    1UNL     N2   27   0.179   0.089  -0.144
    1UNL    C18   28   0.237   0.211  -0.114
    1UNL    C19   29   0.213   0.340  -0.162
    1UNL    C20   30   0.287   0.444  -0.112
    1UNL    C21   31   0.384   0.422  -0.013
    1UNL    C22   32   0.409   0.297   0.037
    1UNL    C23   33   0.334   0.189  -0.014
    1UNL    C24   34   0.195  -0.152  -0.055
    1UNL    C25   35   0.042  -0.162  -0.063
    1UNL    C26   36  -0.019  -0.279   0.016
    1UNL     H1   37  -0.299  -0.547  -0.150
    1UNL     H2   38  -0.227  -0.393  -0.218
    1UNL     H3   39  -0.263  -0.464   0.075
    1UNL     H4   40  -0.206  -0.202  -0.060
    1UNL     H5   41  -0.330  -0.209   0.160
    1UNL     H6   42  -0.325   0.028   0.112
    1UNL     H7   43  -0.213   0.064  -0.235
    1UNL     H8   44  -0.421   0.161  -0.033
    1UNL     H9   45  -0.427   0.182  -0.208
    1UNL    H10   46  -0.404  -0.076  -0.092
    1UNL    H11   47  -0.055   0.214  -0.126
    1UNL    H12   48  -0.285   0.375  -0.143
    1UNL    H13   49  -0.110   0.352   0.067
    1UNL    H14   50  -0.323   0.340   0.161
    1UNL    H15   51  -0.170   0.172   0.240
    1UNL    H16   52   0.012   0.034   0.173
    1UNL    H17   53   0.003  -0.325   0.359
    1UNL    H18   54   0.427  -0.234   0.185
    1UNL    H19   55   0.458  -0.214   0.013
    1UNL    H20   56   0.519   0.002   0.107
    1UNL    H21   57   0.381   0.001   0.216
    1UNL    H22   58   0.103   0.075  -0.211
    1UNL    H23   59   0.137   0.356  -0.237
    1UNL    H24   60   0.270   0.544  -0.148
    1UNL    H25   61   0.440   0.506   0.025
    1UNL    H26   62   0.482   0.280   0.113
    1UNL    H27   63   0.239  -0.206  -0.140
    1UNL    H28   64   0.009  -0.166  -0.167
    1UNL    H29   65  -0.000  -0.069  -0.024
    1UNL    H30   66   0.010  -0.373  -0.034
   0.00000   0.00000   0.00000   0.00000   0.00000   0.00000   0.00000   0.00000   0.00000
Generated with MDTraj, t= 1.0
 66
    1UNL     C1    1  -0.270  -0.426  -0.157
    1UNL     C2    2  -0.256  -0.395  -0.027
    1UNL     C3    3  -0.174  -0.277   0.016
    1UNL     C4    4  -0.223  -0.215   0.155
    1UNL     O1    5  -0.162  -0.089   0.179
    1UNL     C5    6  -0.191   0.017   0.087
    1UNL     O2    7  -0.169  -0.001  -0.055
    1UNL     C6    8  -0.229   0.101  -0.140
    1UNL     C7    9  -0.386   0.094  -0.125
    1UNL     O3   10  -0.432  -0.029  -0.111
    1UNL     C8   11  -0.160   0.232  -0.114
    1UNL     O4   12  -0.220   0.348  -0.173
    1UNL     C9   13  -0.153   0.268   0.040
    1UNL     O5   14  -0.283   0.324   0.074
    1UNL    C10   15  -0.114   0.150   0.130
    1UNL     O6   16   0.025   0.134   0.121
    1UNL     O7   17  -0.185  -0.308   0.259
    1UNL    C11   18  -0.051  -0.306   0.263
    1UNL    C12   19   0.038  -0.289   0.159
    1UNL    C13   20   0.178  -0.266   0.177
    1UNL     O8   21   0.222  -0.309   0.282
    1UNL     N1   22   0.252  -0.212   0.078
    1UNL    C14   23   0.388  -0.167   0.122
    1UNL    C15   24   0.406  -0.013   0.124
    1UNL    C16   25   0.324   0.054   0.018
    1UNL    C17   26   0.224  -0.007  -0.059
    1UNL     N2   27   0.165   0.089  -0.128
    1UNL    C18   28   0.206   0.212  -0.100
    1UNL    C19   29   0.185   0.338  -0.157
    1UNL    C20   30   0.277   0.437  -0.130
    1UNL    C21   31   0.373   0.425  -0.029
    1UNL    C22   32   0.399   0.306   0.030
    1UNL    C23   33   0.315   0.200  -0.008
    1UNL    C24   34   0.196  -0.154  -0.052
    1UNL    C25   35   0.047  -0.188  -0.075
    1UNL    C26   36  -0.019  -0.292   0.013
    1UNL     H1   37  -0.343  -0.500  -0.189
    1UNL     H2   38  -0.229  -0.365  -0.235
    1UNL     H3   39  -0.305  -0.446   0.058
    1UNL     H4   40  -0.208  -0.199  -0.052
    1UNL     H5   41  -0.327  -0.209   0.177
    1UNL     H6   42  -0.297   0.049   0.104
    1UNL     H7   43  -0.206   0.063  -0.243
    1UNL     H8   44  -0.416   0.141  -0.032
    1UNL     H9   45  -0.439   0.143  -0.206
    1UNL    H10   46  -0.406  -0.100  -0.180
    1UNL    H11   47  -0.055   0.230  -0.148
    1UNL    H12   48  -0.307   0.370  -0.131
    1UNL    H13   49  -0.078   0.348   0.052
    1UNL    H14   50  -0.287   0.387   0.146
    1UNL    H15   51  -0.130   0.169   0.234
    1UNL    H16   52   0.051   0.049   0.157
    1UNL    H17   53  -0.012  -0.336   0.361
    1UNL    H18   54   0.409  -0.194   0.226
    1UNL    H19   55   0.471  -0.216   0.067
    1UNL    H20   56   0.507   0.017   0.111
    1UNL    H21   57   0.376   0.029   0.226
    1UNL    H22   58   0.089   0.079  -0.201
    1UNL    H23   59   0.106   0.358  -0.226
    1UNL    H24   60   0.265   0.528  -0.189
    1UNL    H25   61   0.433   0.514  -0.011
    1UNL    H26   62   0.488   0.286   0.101
    1UNL    H27   63   0.252  -0.201  -0.131
    1UNL    H28   64   0.029  -0.209  -0.179
    1UNL    H29   65  -0.004  -0.089  -0.053
    1UNL    H30   66   0.002  -0.389  -0.032
   0.00000   0.00000   0.00000   0.00000   0.00000   0.00000   0.00000   0.00000   0.00000
Generated with MDTraj, t= 2.0
 66
    1UNL     C1    1  -0.293  -0.428  -0.141
    1UNL     C2    2  -0.247  -0.397  -0.022
    1UNL     C3    3  -0.166  -0.275   0.002
    1UNL     C4    4  -0.216  -0.206   0.136
    1UNL     O1    5  -0.146  -0.088   0.170
    1UNL     C5    6  -0.192   0.025   0.095
    1UNL     O2    7  -0.177  -0.005  -0.043
    1UNL     C6    8  -0.227   0.106  -0.124
    1UNL     C7    9  -0.383   0.107  -0.111
    1UNL     O3   10  -0.451  -0.014  -0.097
    1UNL     C8   11  -0.152   0.237  -0.102
    1UNL     O4   12  -0.197   0.350  -0.179
    1UNL     C9   13  -0.160   0.280   0.046
    1UNL     O5   14  -0.299   0.311   0.068
    1UNL    C10   15  -0.114   0.160   0.133
    1UNL     O6   16   0.028   0.138   0.129
    1UNL     O7   17  -0.184  -0.307   0.238
    1UNL    C11   18  -0.052  -0.323   0.257
    1UNL    C12   19   0.030  -0.303   0.150
    1UNL    C13   20   0.173  -0.273   0.177
    1UNL     O8   21   0.213  -0.308   0.288
    1UNL     N1   22   0.257  -0.212   0.082
    1UNL    C14   23   0.389  -0.167   0.132
    1UNL    C15   24   0.397  -0.015   0.138
    1UNL    C16   25   0.324   0.058   0.020
    1UNL    C17   26   0.247  -0.015  -0.060
    1UNL     N2   27   0.179   0.072  -0.140
    1UNL    C18   28   0.234   0.199  -0.131
    1UNL    C19   29   0.198   0.324  -0.182
    1UNL    C20   30   0.246   0.439  -0.130
    1UNL    C21   31   0.340   0.435  -0.029
    1UNL    C22   32   0.375   0.318   0.036
    1UNL    C23   33   0.320   0.196  -0.020
    1UNL    C24   34   0.213  -0.165  -0.052
    1UNL    C25   35   0.060  -0.180  -0.067
    1UNL    C26   36  -0.016  -0.291   0.010
    1UNL     H1   37  -0.359  -0.513  -0.144
    1UNL     H2   38  -0.270  -0.372  -0.228
    1UNL     H3   39  -0.280  -0.450   0.063
    1UNL     H4   40  -0.195  -0.206  -0.075
    1UNL     H5   41  -0.319  -0.185   0.142
    1UNL     H6   42  -0.299   0.045   0.120
    1UNL     H7   43  -0.200   0.078  -0.230
    1UNL     H8   44  -0.394   0.158  -0.019
    1UNL     H9   45  -0.417   0.168  -0.193
    1UNL    H10   46  -0.433  -0.063  -0.179
    1UNL    H11   47  -0.043   0.226  -0.119
    1UNL    H12   48  -0.294   0.373  -0.155
    1UNL    H13   49  -0.100   0.369   0.070
    1UNL    H14   50  -0.318   0.366   0.150
    1UNL    H15   51  -0.124   0.169   0.237
    1UNL    H16   52   0.053   0.037   0.143
    1UNL    H17   53  -0.010  -0.349   0.357
    1UNL    H18   54   0.413  -0.209   0.230
    1UNL    H19   55   0.478  -0.197   0.068
    1UNL    H20   56   0.490   0.028   0.148
    1UNL    H21   57   0.325   0.025   0.221
    1UNL    H22   58   0.100   0.055  -0.210
    1UNL    H23   59   0.112   0.324  -0.254
    1UNL    H24   60   0.212   0.533  -0.165
    1UNL    H25   61   0.384   0.525   0.007
    1UNL    H26   62   0.440   0.309   0.113
    1UNL    H27   63   0.260  -0.214  -0.133
    1UNL    H28   64   0.036  -0.185  -0.172
    1UNL    H29   65   0.011  -0.079  -0.044
    1UNL    H30   66   0.023  -0.385  -0.028
   0.00000   0.00000   0.00000   0.00000   0.00000   0.00000   0.00000   0.00000   0.00000
Generated with MDTraj, t= 3.0
 66
    1UNL     C1    1  -0.291  -0.420  -0.130
    1UNL     C2    2  -0.227  -0.404  -0.017
    1UNL     C3    3  -0.158  -0.280   0.011
    1UNL     C4    4  -0.213  -0.220   0.145
    1UNL     O1    5  -0.159  -0.092   0.171
    1UNL     C5    6  -0.209   0.019   0.088
    1UNL     O2    7  -0.193   0.007  -0.051
    1UNL     C6    8  -0.237   0.120  -0.134
    1UNL     C7    9  -0.382   0.140  -0.117
    1UNL     O3   10  -0.455   0.014  -0.127
    1UNL     C8   11  -0.154   0.238  -0.096
    1UNL     O4   12  -0.183   0.351  -0.180
    1UNL     C9   13  -0.167   0.270   0.057
    1UNL     O5   14  -0.290   0.330   0.090
    1UNL    C10   15  -0.135   0.142   0.140
    1UNL     O6   16   0.000   0.105   0.139
    1UNL     O7   17  -0.181  -0.313   0.253
    1UNL    C11   18  -0.043  -0.317   0.257
    1UNL    C12   19   0.041  -0.286   0.155
    1UNL    C13   20   0.188  -0.271   0.181
    1UNL     O8   21   0.232  -0.304   0.294
    1UNL     N1   22   0.268  -0.210   0.079
    1UNL    C14   23   0.393  -0.156   0.128
    1UNL    C15   24   0.381  -0.007   0.142
    1UNL    C16   25   0.316   0.050   0.017
    1UNL    C17   26   0.246  -0.024  -0.079
    1UNL     N2   27   0.215   0.062  -0.184
    1UNL    C18   28   0.248   0.193  -0.146
    1UNL    C19   29   0.221   0.316  -0.208
    1UNL    C20   30   0.250   0.430  -0.136
    1UNL    C21   31   0.309   0.419  -0.004
    1UNL    C22   32   0.347   0.299   0.047
    1UNL    C23   33   0.312   0.188  -0.023
    1UNL    C24   34   0.211  -0.162  -0.049
    1UNL    C25   35   0.059  -0.168  -0.061
    1UNL    C26   36  -0.005  -0.284   0.014
    1UNL     H1   37  -0.338  -0.516  -0.146
    1UNL     H2   38  -0.296  -0.342  -0.206
    1UNL     H3   39  -0.219  -0.490   0.055
    1UNL     H4   40  -0.184  -0.216  -0.073
    1UNL     H5   41  -0.318  -0.207   0.137
    1UNL     H6   42  -0.318   0.029   0.113
    1UNL     H7   43  -0.212   0.083  -0.239
    1UNL     H8   44  -0.397   0.190  -0.028
    1UNL     H9   45  -0.419   0.200  -0.199
    1UNL    H10   46  -0.435  -0.038  -0.050
    1UNL    H11   47  -0.046   0.215  -0.114
    1UNL    H12   48  -0.272   0.386  -0.161
    1UNL    H13   49  -0.100   0.355   0.080
    1UNL    H14   50  -0.302   0.317   0.190
    1UNL    H15   51  -0.167   0.151   0.239
    1UNL    H16   52   0.027   0.017   0.173
    1UNL    H17   53   0.003  -0.323   0.355
    1UNL    H18   54   0.408  -0.213   0.221
    1UNL    H19   55   0.484  -0.176   0.061
    1UNL    H20   56   0.471   0.043   0.150
    1UNL    H21   57   0.307   0.021   0.227
    1UNL    H22   58   0.147   0.032  -0.262
    1UNL    H23   59   0.186   0.331  -0.304
    1UNL    H24   60   0.225   0.530  -0.175
    1UNL    H25   61   0.329   0.514   0.046
    1UNL    H26   62   0.390   0.298   0.149
    1UNL    H27   63   0.235  -0.226  -0.128
    1UNL    H28   64   0.015  -0.137  -0.156
    1UNL    H29   65   0.023  -0.077  -0.004
    1UNL    H30   66   0.032  -0.376  -0.027
   0.00000   0.00000   0.00000   0.00000   0.00000   0.00000   0.00000   0.00000   0.00000
Generated with MDTraj, t= 4.0
 66
    1UNL     C1    1  -0.295  -0.421  -0.123
    1UNL     C2    2  -0.219  -0.404  -0.016
    1UNL     C3    3  -0.169  -0.269   0.010
    1UNL     C4    4  -0.214  -0.224   0.151
    1UNL     O1    5  -0.170  -0.097   0.184
    1UNL     C5    6  -0.219   0.013   0.102
    1UNL     O2    7  -0.196  -0.005  -0.031
    1UNL     C6    8  -0.236   0.110  -0.117
    1UNL     C7    9  -0.380   0.150  -0.126
    1UNL     O3   10  -0.464   0.035  -0.164
    1UNL     C8   11  -0.146   0.228  -0.085
    1UNL     O4   12  -0.176   0.333  -0.184
    1UNL     C9   13  -0.154   0.266   0.065
    1UNL     O5   14  -0.272   0.332   0.095
    1UNL    C10   15  -0.137   0.137   0.152
    1UNL     O6   16  -0.003   0.091   0.155
    1UNL     O7   17  -0.174  -0.325   0.245
    1UNL    C11   18  -0.039  -0.315   0.248
    1UNL    C12   19   0.043  -0.278   0.148
    1UNL    C13   20   0.183  -0.262   0.174
    1UNL     O8   21   0.228  -0.285   0.288
    1UNL     N1   22   0.265  -0.214   0.073
    1UNL    C14   23   0.398  -0.158   0.119
    1UNL    C15   24   0.385  -0.005   0.154
    1UNL    C16   25   0.306   0.059   0.033
    1UNL    C17   26   0.251  -0.017  -0.067
    1UNL     N2   27   0.224   0.058  -0.174
    1UNL    C18   28   0.240   0.189  -0.137
    1UNL    C19   29   0.217   0.305  -0.214
    1UNL    C20   30   0.246   0.425  -0.151
    1UNL    C21   31   0.309   0.428  -0.028
    1UNL    C22   32   0.344   0.314   0.039
    1UNL    C23   33   0.303   0.191  -0.014
    1UNL    C24   34   0.211  -0.158  -0.056
    1UNL    C25   35   0.060  -0.165  -0.071
    1UNL    C26   36  -0.013  -0.270   0.011
    1UNL     H1   37  -0.339  -0.514  -0.147
    1UNL     H2   38  -0.314  -0.344  -0.194
    1UNL     H3   39  -0.198  -0.483   0.048
    1UNL     H4   40  -0.195  -0.206  -0.074
    1UNL     H5   41  -0.319  -0.211   0.169
    1UNL     H6   42  -0.330   0.024   0.118
    1UNL     H7   43  -0.201   0.069  -0.219
    1UNL     H8   44  -0.425   0.186  -0.042
    1UNL     H9   45  -0.398   0.227  -0.202
    1UNL    H10   46  -0.407  -0.040  -0.201
    1UNL    H11   47  -0.036   0.201  -0.091
    1UNL    H12   48  -0.231   0.397  -0.138
    1UNL    H13   49  -0.075   0.339   0.080
    1UNL    H14   50  -0.297   0.294   0.181
    1UNL    H15   51  -0.173   0.148   0.252
    1UNL    H16   52   0.012  -0.001   0.187
    1UNL    H17   53   0.005  -0.331   0.343
    1UNL    H18   54   0.437  -0.214   0.207
    1UNL    H19   55   0.465  -0.180   0.026
    1UNL    H20   56   0.481   0.043   0.146
    1UNL    H21   57   0.332   0.013   0.255
    1UNL    H22   58   0.207   0.007  -0.268
    1UNL    H23   59   0.179   0.294  -0.319
    1UNL    H24   60   0.221   0.516  -0.197
    1UNL    H25   61   0.331   0.520   0.025
    1UNL    H26   62   0.392   0.322   0.140
    1UNL    H27   63   0.258  -0.209  -0.136
    1UNL    H28   64   0.028  -0.180  -0.175
    1UNL    H29   65   0.013  -0.066  -0.057
    1UNL    H30   66   0.004  -0.357  -0.048
   0.00000   0.00000   0.00000   0.00000   0.00000   0.00000   0.00000   0.00000   0.00000
Generated with MDTraj, t= 5.0
 66
    1UNL     C1    1  -0.308  -0.410  -0.145
    1UNL     C2    2  -0.238  -0.413  -0.032
    1UNL     C3    3  -0.171  -0.290   0.012
    1UNL     C4    4  -0.218  -0.238   0.155
    1UNL     O1    5  -0.158  -0.113   0.172
    1UNL     C5    6  -0.209   0.005   0.101
    1UNL     O2    7  -0.191  -0.004  -0.040
    1UNL     C6    8  -0.215   0.110  -0.127
    1UNL     C7    9  -0.363   0.139  -0.123
    1UNL     O3   10  -0.446   0.031  -0.160
    1UNL     C8   11  -0.119   0.223  -0.084
    1UNL     O4   12  -0.138   0.340  -0.172
    1UNL     C9   13  -0.143   0.260   0.072
    1UNL     O5   14  -0.285   0.304   0.078
    1UNL    C10   15  -0.119   0.129   0.154
    1UNL     O6   16   0.019   0.087   0.160
    1UNL     O7   17  -0.180  -0.333   0.250
    1UNL    C11   18  -0.046  -0.326   0.266
    1UNL    C12   19   0.039  -0.300   0.159
    1UNL    C13   20   0.172  -0.258   0.187
    1UNL     O8   21   0.218  -0.275   0.300
    1UNL     N1   22   0.250  -0.198   0.092
    1UNL    C14   23   0.380  -0.138   0.125
    1UNL    C15   24   0.383   0.013   0.133
    1UNL    C16   25   0.304   0.069   0.012
    1UNL    C17   26   0.229  -0.006  -0.079
    1UNL     N2   27   0.177   0.076  -0.174
    1UNL    C18   28   0.229   0.205  -0.153
    1UNL    C19   29   0.204   0.332  -0.204
    1UNL    C20   30   0.245   0.445  -0.139
    1UNL    C21   31   0.338   0.442  -0.032
    1UNL    C22   32   0.368   0.316   0.018
    1UNL    C23   33   0.310   0.200  -0.035
    1UNL    C24   34   0.192  -0.160  -0.042
    1UNL    C25   35   0.043  -0.178  -0.053
    1UNL    C26   36  -0.014  -0.299   0.017
    1UNL     H1   37  -0.353  -0.501  -0.183
    1UNL     H2   38  -0.317  -0.325  -0.210
    1UNL     H3   39  -0.239  -0.505   0.031
    1UNL     H4   40  -0.197  -0.214  -0.061
    1UNL     H5   41  -0.326  -0.213   0.166
    1UNL     H6   42  -0.317   0.031   0.124
    1UNL     H7   43  -0.190   0.074  -0.235
    1UNL     H8   44  -0.389   0.181  -0.033
    1UNL     H9   45  -0.390   0.217  -0.199
    1UNL    H10   46  -0.454  -0.030  -0.078
    1UNL    H11   47  -0.010   0.198  -0.086
    1UNL    H12   48  -0.222   0.387  -0.136
    1UNL    H13   49  -0.075   0.341   0.096
    1UNL    H14   50  -0.293   0.380   0.138
    1UNL    H15   51  -0.144   0.148   0.259
    1UNL    H16   52   0.042  -0.008   0.183
    1UNL    H17   53  -0.015  -0.325   0.371
    1UNL    H18   54   0.403  -0.178   0.226
    1UNL    H19   55   0.456  -0.173   0.043
    1UNL    H20   56   0.495   0.038   0.136
    1UNL    H21   57   0.328   0.044   0.226
    1UNL    H22   58   0.094   0.049  -0.236
    1UNL    H23   59   0.136   0.336  -0.287
    1UNL    H24   60   0.208   0.542  -0.178
    1UNL    H25   61   0.377   0.535   0.005
    1UNL    H26   62   0.427   0.308   0.099
    1UNL    H27   63   0.258  -0.210  -0.109
    1UNL    H28   64   0.017  -0.180  -0.160
    1UNL    H29   65  -0.011  -0.091  -0.021
    1UNL    H30   66   0.008  -0.390  -0.034
   0.00000   0.00000   0.00000   0.00000   0.00000   0.00000   0.00000   0.00000   0.00000
Generated with MDTraj, t= 6.0
 66
    1UNL     C1    1  -0.298  -0.441  -0.144
    1UNL     C2    2  -0.240  -0.410  -0.029
    1UNL     C3    3  -0.174  -0.279   0.003
    1UNL     C4    4  -0.243  -0.228   0.139
    1UNL     O1    5  -0.206  -0.107   0.197
    1UNL     C5    6  -0.203   0.007   0.107
    1UNL     O2    7  -0.174  -0.017  -0.031
    1UNL     C6    8  -0.203   0.105  -0.115
    1UNL     C7    9  -0.358   0.120  -0.131
    1UNL     O3   10  -0.423   0.003  -0.135
    1UNL     C8   11  -0.116   0.221  -0.071
    1UNL     O4   12  -0.133   0.338  -0.151
    1UNL     C9   13  -0.137   0.253   0.076
    1UNL     O5   14  -0.274   0.316   0.079
    1UNL    C10   15  -0.110   0.128   0.153
    1UNL     O6   16   0.022   0.076   0.154
    1UNL     O7   17  -0.194  -0.330   0.228
    1UNL    C11   18  -0.063  -0.314   0.248
    1UNL    C12   19   0.021  -0.287   0.143
    1UNL    C13   20   0.164  -0.259   0.180
    1UNL     O8   21   0.203  -0.281   0.298
    1UNL     N1   22   0.255  -0.205   0.087
    1UNL    C14   23   0.386  -0.141   0.132
    1UNL    C15   24   0.396   0.014   0.128
    1UNL    C16   25   0.322   0.072   0.014
    1UNL    C17   26   0.231   0.000  -0.061
    1UNL     N2   27   0.163   0.090  -0.143
    1UNL    C18   28   0.208   0.213  -0.124
    1UNL    C19   29   0.175   0.333  -0.193
    1UNL    C20   30   0.253   0.444  -0.175
    1UNL    C21   31   0.351   0.441  -0.070
    1UNL    C22   32   0.381   0.327   0.003
    1UNL    C23   33   0.311   0.209  -0.027
    1UNL    C24   34   0.201  -0.147  -0.045
    1UNL    C25   35   0.047  -0.169  -0.065
    1UNL    C26   36  -0.016  -0.288   0.008
    1UNL     H1   37  -0.341  -0.538  -0.161
    1UNL     H2   38  -0.312  -0.364  -0.217
    1UNL     H3   39  -0.229  -0.488   0.042
    1UNL     H4   40  -0.202  -0.215  -0.080
    1UNL     H5   41  -0.356  -0.230   0.131
    1UNL     H6   42  -0.311   0.043   0.107
    1UNL     H7   43  -0.170   0.080  -0.225
    1UNL     H8   44  -0.391   0.165  -0.043
    1UNL     H9   45  -0.390   0.190  -0.215
    1UNL    H10   46  -0.362  -0.064  -0.166
    1UNL    H11   47  -0.006   0.196  -0.083
    1UNL    H12   48  -0.201   0.401  -0.117
    1UNL    H13   49  -0.065   0.329   0.105
    1UNL    H14   50  -0.309   0.327   0.172
    1UNL    H15   51  -0.137   0.145   0.261
    1UNL    H16   52   0.023  -0.001   0.206
    1UNL    H17   53  -0.021  -0.325   0.350
    1UNL    H18   54   0.407  -0.183   0.236
    1UNL    H19   55   0.461  -0.175   0.052
    1UNL    H20   56   0.508   0.051   0.111
    1UNL    H21   57   0.350   0.050   0.223
    1UNL    H22   58   0.106   0.064  -0.227
    1UNL    H23   59   0.095   0.329  -0.262
    1UNL    H24   60   0.230   0.524  -0.241
    1UNL    H25   61   0.409   0.533  -0.071
    1UNL    H26   62   0.468   0.335   0.077
    1UNL    H27   63   0.262  -0.205  -0.114
    1UNL    H28   64   0.020  -0.164  -0.171
    1UNL    H29   65   0.008  -0.080  -0.027
    1UNL    H30   66   0.019  -0.381  -0.028
   0.00000   0.00000   0.00000   0.00000   0.00000   0.00000   0.00000   0.00000   0.00000
Generated with MDTraj, t= 7.0
 66
    1UNL     C1    1  -0.267  -0.430  -0.158
    1UNL     C2    2  -0.226  -0.417  -0.034
    1UNL     C3    3  -0.168  -0.289   0.010
    1UNL     C4    4  -0.229  -0.242   0.144
    1UNL     O1    5  -0.173  -0.118   0.176
    1UNL     C5    6  -0.204  -0.004   0.099
    1UNL     O2    7  -0.187  -0.013  -0.043
    1UNL     C6    8  -0.219   0.109  -0.121
    1UNL     C7    9  -0.367   0.131  -0.131
    1UNL     O3   10  -0.456   0.029  -0.155
    1UNL     C8   11  -0.144   0.228  -0.078
    1UNL     O4   12  -0.170   0.346  -0.144
    1UNL     C9   13  -0.156   0.251   0.076
    1UNL     O5   14  -0.277   0.330   0.104
    1UNL    C10   15  -0.137   0.125   0.163
    1UNL     O6   16  -0.001   0.094   0.187
    1UNL     O7   17  -0.191  -0.340   0.246
    1UNL    C11   18  -0.055  -0.328   0.266
    1UNL    C12   19   0.029  -0.299   0.163
    1UNL    C13   20   0.166  -0.254   0.188
    1UNL     O8   21   0.204  -0.280   0.302
    1UNL     N1   22   0.244  -0.189   0.097
    1UNL    C14   23   0.379  -0.140   0.130
    1UNL    C15   24   0.391   0.018   0.125
    1UNL    C16   25   0.327   0.065  -0.009
    1UNL    C17   26   0.232  -0.007  -0.075
    1UNL     N2   27   0.180   0.076  -0.175
    1UNL    C18   28   0.240   0.208  -0.161
    1UNL    C19   29   0.216   0.338  -0.216
    1UNL    C20   30   0.283   0.444  -0.167
    1UNL    C21   31   0.362   0.437  -0.050
    1UNL    C22   32   0.381   0.312   0.009
    1UNL    C23   33   0.325   0.196  -0.055
    1UNL    C24   34   0.196  -0.146  -0.040
    1UNL    C25   35   0.045  -0.166  -0.054
    1UNL    C26   36  -0.017  -0.288   0.022
    1UNL     H1   37  -0.325  -0.514  -0.190
    1UNL     H2   38  -0.255  -0.341  -0.219
    1UNL     H3   39  -0.239  -0.497   0.039
    1UNL     H4   40  -0.195  -0.214  -0.066
    1UNL     H5   41  -0.343  -0.235   0.151
    1UNL     H6   42  -0.317   0.009   0.103
    1UNL     H7   43  -0.185   0.076  -0.229
    1UNL     H8   44  -0.399   0.186  -0.045
    1UNL     H9   45  -0.385   0.199  -0.219
    1UNL    H10   46  -0.426  -0.056  -0.118
    1UNL    H11   47  -0.036   0.198  -0.098
    1UNL    H12   48  -0.219   0.415  -0.091
    1UNL    H13   49  -0.076   0.312   0.114
    1UNL    H14   50  -0.336   0.297   0.177
    1UNL    H15   51  -0.187   0.144   0.266
    1UNL    H16   52   0.007   0.003   0.237
    1UNL    H17   53  -0.016  -0.337   0.368
    1UNL    H18   54   0.388  -0.168   0.241
    1UNL    H19   55   0.457  -0.190   0.065
    1UNL    H20   56   0.506   0.049   0.111
    1UNL    H21   57   0.341   0.078   0.203
    1UNL    H22   58   0.102   0.076  -0.243
    1UNL    H23   59   0.137   0.344  -0.295
    1UNL    H24   60   0.278   0.543  -0.214
    1UNL    H25   61   0.403   0.525  -0.004
    1UNL    H26   62   0.447   0.303   0.096
    1UNL    H27   63   0.256  -0.211  -0.107
    1UNL    H28   64   0.016  -0.164  -0.159
    1UNL    H29   65  -0.002  -0.077  -0.012
    1UNL    H30   66   0.020  -0.368  -0.034
   0.00000   0.00000   0.00000   0.00000   0.00000   0.00000   0.00000   0.00000   0.00000
Generated with MDTraj, t= 8.0
 66
    1UNL     C1    1  -0.229  -0.431  -0.158
    1UNL     C2    2  -0.223  -0.402  -0.028
    1UNL     C3    3  -0.163  -0.269   0.005
    1UNL     C4    4  -0.221  -0.234   0.148
    1UNL     O1    5  -0.180  -0.104   0.185
    1UNL     C5    6  -0.233   0.002   0.114
    1UNL     O2    7  -0.221  -0.011  -0.026
    1UNL     C6    8  -0.245   0.113  -0.106
    1UNL     C7    9  -0.398   0.146  -0.101
    1UNL     O3   10  -0.469   0.039  -0.170
    1UNL     C8   11  -0.156   0.232  -0.061
    1UNL     O4   12  -0.178   0.343  -0.151
    1UNL     C9   13  -0.185   0.258   0.089
    1UNL     O5   14  -0.312   0.313   0.106
    1UNL    C10   15  -0.162   0.128   0.167
    1UNL     O6   16  -0.022   0.096   0.167
    1UNL     O7   17  -0.186  -0.334   0.237
    1UNL    C11   18  -0.048  -0.322   0.242
    1UNL    C12   19   0.042  -0.281   0.148
    1UNL    C13   20   0.180  -0.253   0.178
    1UNL     O8   21   0.213  -0.277   0.294
    1UNL     N1   22   0.263  -0.207   0.080
    1UNL    C14   23   0.395  -0.154   0.119
    1UNL    C15   24   0.386  -0.002   0.151
    1UNL    C16   25   0.323   0.065   0.028
    1UNL    C17   26   0.255  -0.015  -0.063
    1UNL     N2   27   0.214   0.064  -0.169
    1UNL    C18   28   0.266   0.191  -0.152
    1UNL    C19   29   0.238   0.302  -0.232
    1UNL    C20   30   0.294   0.422  -0.191
    1UNL    C21   31   0.374   0.423  -0.073
    1UNL    C22   32   0.387   0.317   0.007
    1UNL    C23   33   0.332   0.199  -0.029
    1UNL    C24   34   0.215  -0.150  -0.049
    1UNL    C25   35   0.057  -0.150  -0.058
    1UNL    C26   36  -0.010  -0.273   0.009
    1UNL     H1   37  -0.258  -0.530  -0.188
    1UNL     H2   38  -0.199  -0.359  -0.231
    1UNL     H3   39  -0.263  -0.464   0.053
    1UNL     H4   40  -0.206  -0.199  -0.069
    1UNL     H5   41  -0.337  -0.236   0.146
    1UNL     H6   42  -0.347  -0.008   0.127
    1UNL     H7   43  -0.217   0.100  -0.221
    1UNL     H8   44  -0.428   0.174   0.001
    1UNL     H9   45  -0.420   0.235  -0.162
    1UNL    H10   46  -0.480  -0.041  -0.107
    1UNL    H11   47  -0.046   0.212  -0.082
    1UNL    H12   48  -0.253   0.403  -0.123
    1UNL    H13   49  -0.113   0.327   0.129
    1UNL    H14   50  -0.310   0.391   0.164
    1UNL    H15   51  -0.200   0.135   0.278
    1UNL    H16   52  -0.010   0.003   0.169
    1UNL    H17   53  -0.009  -0.335   0.341
    1UNL    H18   54   0.428  -0.199   0.221
    1UNL    H19   55   0.465  -0.174   0.034
    1UNL    H20   56   0.488   0.049   0.168
    1UNL    H21   57   0.318   0.019   0.238
    1UNL    H22   58   0.139   0.046  -0.236
    1UNL    H23   59   0.173   0.290  -0.312
    1UNL    H24   60   0.258   0.508  -0.242
    1UNL    H25   61   0.411   0.522  -0.049
    1UNL    H26   62   0.438   0.333   0.093
    1UNL    H27   63   0.252  -0.209  -0.136
    1UNL    H28   64   0.025  -0.155  -0.161
    1UNL    H29   65   0.008  -0.060  -0.012
    1UNL    H30   66   0.026  -0.353  -0.048
   0.00000   0.00000   0.00000   0.00000   0.00000   0.00000   0.00000   0.00000   0.00000
Generated with MDTraj, t= 9.0
 66
    1UNL     C1    1  -0.195  -0.429  -0.169
    1UNL     C2    2  -0.226  -0.395  -0.043
    1UNL     C3    3  -0.164  -0.271   0.010
    1UNL     C4    4  -0.228  -0.237   0.147
    1UNL     O1    5  -0.192  -0.101   0.176
    1UNL     C5    6  -0.248   0.009   0.111
    1UNL     O2    7  -0.229   0.002  -0.026
    1UNL     C6    8  -0.261   0.119  -0.110
    1UNL     C7    9  -0.408   0.150  -0.109
    1UNL     O3   10  -0.468   0.021  -0.125
    1UNL     C8   11  -0.168   0.241  -0.065
    1UNL     O4   12  -0.197   0.359  -0.143
    1UNL     C9   13  -0.198   0.265   0.085
    1UNL     O5   14  -0.337   0.293   0.105
    1UNL    C10   15  -0.168   0.135   0.163
    1UNL     O6   16  -0.025   0.103   0.160
    1UNL     O7   17  -0.184  -0.328   0.244
    1UNL    C11   18  -0.049  -0.319   0.257
    1UNL    C12   19   0.039  -0.285   0.158
    1UNL    C13   20   0.182  -0.258   0.187
    1UNL     O8   21   0.230  -0.296   0.294
    1UNL     N1   22   0.261  -0.189   0.091
    1UNL    C14   23   0.391  -0.139   0.129
    1UNL    C15   24   0.393   0.009   0.128
    1UNL    C16   25   0.316   0.062   0.010
    1UNL    C17   26   0.243  -0.009  -0.077
    1UNL     N2   27   0.220   0.061  -0.188
    1UNL    C18   28   0.271   0.193  -0.166
    1UNL    C19   29   0.273   0.313  -0.240
    1UNL    C20   30   0.329   0.421  -0.177
    1UNL    C21   31   0.394   0.415  -0.055
    1UNL    C22   32   0.406   0.296   0.013
    1UNL    C23   33   0.338   0.187  -0.044
    1UNL    C24   34   0.208  -0.151  -0.044
    1UNL    C25   35   0.053  -0.169  -0.065
    1UNL    C26   36  -0.008  -0.288   0.019
    1UNL     H1   37  -0.249  -0.506  -0.222
    1UNL     H2   38  -0.116  -0.383  -0.224
    1UNL     H3   39  -0.310  -0.441   0.003
    1UNL     H4   40  -0.202  -0.184  -0.049
    1UNL     H5   41  -0.342  -0.242   0.135
    1UNL     H6   42  -0.361   0.017   0.123
    1UNL     H7   43  -0.228   0.086  -0.219
    1UNL     H8   44  -0.445   0.199  -0.017
    1UNL     H9   45  -0.441   0.212  -0.191
    1UNL    H10   46  -0.425  -0.033  -0.055
    1UNL    H11   47  -0.067   0.202  -0.083
    1UNL    H12   48  -0.273   0.383  -0.091
    1UNL    H13   49  -0.135   0.344   0.115
    1UNL    H14   50  -0.359   0.302   0.199
    1UNL    H15   51  -0.198   0.160   0.274
    1UNL    H16   52  -0.010   0.015   0.209
    1UNL    H17   53  -0.010  -0.303   0.357
    1UNL    H18   54   0.412  -0.182   0.236
    1UNL    H19   55   0.470  -0.163   0.055
    1UNL    H20   56   0.493   0.049   0.130
    1UNL    H21   57   0.334   0.047   0.219
    1UNL    H22   58   0.186   0.014  -0.270
    1UNL    H23   59   0.228   0.312  -0.342
    1UNL    H24   60   0.316   0.514  -0.232
    1UNL    H25   61   0.425   0.509  -0.014
    1UNL    H26   62   0.449   0.295   0.121
    1UNL    H27   63   0.252  -0.226  -0.117
    1UNL    H28   64   0.021  -0.179  -0.166
    1UNL    H29   65   0.004  -0.072  -0.027
    1UNL    H30   66   0.035  -0.377  -0.019
   0.00000   0.00000   0.00000   0.00000   0.00000   0.00000   0.00000   0.00000   0.00000
Generated with MDTraj, t= 10.0
 66
    1UNL     C1    1  -0.215  -0.444  -0.173
    1UNL     C2    2  -0.221  -0.406  -0.044
    1UNL     C3    3  -0.174  -0.269  -0.004
    1UNL     C4    4  -0.231  -0.222   0.131
    1UNL     O1    5  -0.186  -0.099   0.184
    1UNL     C5    6  -0.231   0.011   0.112
    1UNL     O2    7  -0.212  -0.002  -0.033
    1UNL     C6    8  -0.260   0.108  -0.109
    1UNL     C7    9  -0.410   0.111  -0.096
    1UNL     O3   10  -0.468  -0.017  -0.120
    1UNL     C8   11  -0.188   0.242  -0.069
    1UNL     O4   12  -0.257   0.353  -0.145
    1UNL     C9   13  -0.195   0.263   0.082
    1UNL     O5   14  -0.325   0.311   0.123
    1UNL    C10   15  -0.155   0.139   0.163
    1UNL     O6   16  -0.012   0.134   0.174
    1UNL     O7   17  -0.193  -0.333   0.223
    1UNL    C11   18  -0.061  -0.329   0.246
    1UNL    C12   19   0.028  -0.295   0.150
    1UNL    C13   20   0.166  -0.254   0.184
    1UNL     O8   21   0.203  -0.279   0.297
    1UNL     N1   22   0.251  -0.201   0.089
    1UNL    C14   23   0.390  -0.159   0.125
    1UNL    C15   24   0.400  -0.003   0.146
    1UNL    C16   25   0.342   0.067   0.018
    1UNL    C17   26   0.258  -0.005  -0.066
    1UNL     N2   27   0.221   0.073  -0.167
    1UNL    C18   28   0.278   0.200  -0.152
    1UNL    C19   29   0.274   0.313  -0.234
    1UNL    C20   30   0.338   0.425  -0.197
    1UNL    C21   31   0.421   0.423  -0.083
    1UNL    C22   32   0.439   0.306  -0.005
    1UNL    C23   33   0.362   0.194  -0.037
    1UNL    C24   34   0.203  -0.147  -0.039
    1UNL    C25   35   0.047  -0.140  -0.041
    1UNL    C26   36  -0.017  -0.273   0.008
    1UNL     H1   37  -0.251  -0.535  -0.218
    1UNL     H2   38  -0.181  -0.370  -0.244
    1UNL     H3   39  -0.251  -0.488   0.026
    1UNL     H4   40  -0.213  -0.193  -0.078
    1UNL     H5   41  -0.345  -0.218   0.125
    1UNL     H6   42  -0.344   0.014   0.122
    1UNL     H7   43  -0.241   0.084  -0.223
    1UNL     H8   44  -0.438   0.129   0.013
    1UNL     H9   45  -0.458   0.182  -0.159
    1UNL    H10   46  -0.412  -0.070  -0.175
    1UNL    H11   47  -0.091   0.225  -0.113
    1UNL    H12   48  -0.335   0.398  -0.096
    1UNL    H13   49  -0.122   0.332   0.107
    1UNL    H14   50  -0.345   0.297   0.219
    1UNL    H15   51  -0.196   0.150   0.271
    1UNL    H16   52   0.005   0.041   0.211
    1UNL    H17   53  -0.021  -0.349   0.346
    1UNL    H18   54   0.410  -0.214   0.226
    1UNL    H19   55   0.460  -0.190   0.048
    1UNL    H20   56   0.496   0.032   0.163
    1UNL    H21   57   0.340   0.030   0.239
    1UNL    H22   58   0.170   0.033  -0.242
    1UNL    H23   59   0.227   0.308  -0.330
    1UNL    H24   60   0.345   0.510  -0.264
    1UNL    H25   61   0.476   0.515  -0.059
    1UNL    H26   62   0.504   0.310   0.077
    1UNL    H27   63   0.234  -0.218  -0.124
    1UNL    H28   64   0.016  -0.102  -0.136
    1UNL    H29   65   0.019  -0.055   0.032
    1UNL    H30   66   0.029  -0.351  -0.046
   0.00000   0.00000   0.00000   0.00000   0.00000   0.00000   0.00000   0.00000   0.00000
Generated with MDTraj, t= 11.0
 66
    1UNL     C1    1  -0.254  -0.428  -0.172
    1UNL     C2    2  -0.233  -0.397  -0.042
    1UNL     C3    3  -0.175  -0.269   0.001
    1UNL     C4    4  -0.229  -0.234   0.138
    1UNL     O1    5  -0.178  -0.110   0.177
    1UNL     C5    6  -0.216   0.000   0.096
    1UNL     O2    7  -0.198  -0.007  -0.050
    1UNL     C6    8  -0.259   0.102  -0.112
    1UNL     C7    9  -0.411   0.096  -0.095
    1UNL     O3   10  -0.455  -0.034  -0.102
    1UNL     C8   11  -0.203   0.237  -0.070
    1UNL     O4   12  -0.270   0.350  -0.128
    1UNL     C9   13  -0.213   0.264   0.079
    1UNL     O5   14  -0.345   0.302   0.129
    1UNL    C10   15  -0.165   0.136   0.152
    1UNL     O6   16  -0.028   0.133   0.151
    1UNL     O7   17  -0.193  -0.331   0.242
    1UNL    C11   18  -0.057  -0.321   0.248
    1UNL    C12   19   0.031  -0.295   0.146
    1UNL    C13   20   0.159  -0.252   0.192
    1UNL     O8   21   0.201  -0.287   0.299
    1UNL     N1   22   0.236  -0.176   0.108
    1UNL    C14   23   0.381  -0.143   0.145
    1UNL    C15   24   0.415   0.005   0.130
    1UNL    C16   25   0.352   0.059   0.001
    1UNL    C17   26   0.255  -0.001  -0.075
    1UNL     N2   27   0.203   0.098  -0.156
    1UNL    C18   28   0.282   0.209  -0.147
    1UNL    C19   29   0.284   0.327  -0.224
    1UNL    C20   30   0.375   0.428  -0.190
    1UNL    C21   31   0.465   0.412  -0.081
    1UNL    C22   32   0.461   0.299  -0.011
    1UNL    C23   33   0.368   0.197  -0.043
    1UNL    C24   34   0.204  -0.136  -0.037
    1UNL    C25   35   0.050  -0.150  -0.062
    1UNL    C26   36  -0.018  -0.278  -0.001
    1UNL     H1   37  -0.277  -0.529  -0.197
    1UNL     H2   38  -0.241  -0.357  -0.252
    1UNL     H3   39  -0.236  -0.475   0.026
    1UNL     H4   40  -0.210  -0.196  -0.078
    1UNL     H5   41  -0.340  -0.228   0.139
    1UNL     H6   42  -0.329  -0.003   0.105
    1UNL     H7   43  -0.241   0.093  -0.227
    1UNL     H8   44  -0.438   0.132   0.013
    1UNL     H9   45  -0.464   0.149  -0.170
    1UNL    H10   46  -0.411  -0.088  -0.172
    1UNL    H11   47  -0.096   0.233  -0.087
    1UNL    H12   48  -0.353   0.367  -0.082
    1UNL    H13   49  -0.148   0.335   0.116
    1UNL    H14   50  -0.369   0.282   0.224
    1UNL    H15   51  -0.202   0.148   0.258
    1UNL    H16   52   0.003   0.049   0.177
    1UNL    H17   53  -0.024  -0.347   0.351
    1UNL    H18   54   0.391  -0.164   0.260
    1UNL    H19   55   0.443  -0.213   0.088
    1UNL    H20   56   0.517   0.019   0.123
    1UNL    H21   57   0.383   0.069   0.222
    1UNL    H22   58   0.118   0.093  -0.207
    1UNL    H23   59   0.224   0.331  -0.312
    1UNL    H24   60   0.381   0.515  -0.253
    1UNL    H25   61   0.543   0.482  -0.071
    1UNL    H26   62   0.536   0.292   0.063
    1UNL    H27   63   0.259  -0.206  -0.110
    1UNL    H28   64   0.034  -0.144  -0.168
    1UNL    H29   65   0.003  -0.053  -0.027
    1UNL    H30   66  -0.002  -0.362  -0.063
   0.00000   0.00000   0.00000   0.00000   0.00000   0.00000   0.00000   0.00000   0.00000
Generated with MDTraj, t= 12.0
 66
    1UNL     C1    1  -0.275  -0.411  -0.170
    1UNL     C2    2  -0.217  -0.389  -0.052
    1UNL     C3    3  -0.169  -0.255  -0.006
    1UNL     C4    4  -0.225  -0.223   0.134
    1UNL     O1    5  -0.183  -0.100   0.183
    1UNL     C5    6  -0.230   0.003   0.105
    1UNL     O2    7  -0.217  -0.009  -0.037
    1UNL     C6    8  -0.267   0.102  -0.117
    1UNL     C7    9  -0.424   0.099  -0.114
    1UNL     O3   10  -0.472  -0.032  -0.104
    1UNL     C8   11  -0.207   0.234  -0.065
    1UNL     O4   12  -0.265   0.348  -0.128
    1UNL     C9   13  -0.232   0.255   0.087
    1UNL     O5   14  -0.369   0.274   0.104
    1UNL    C10   15  -0.167   0.131   0.163
    1UNL     O6   16  -0.032   0.136   0.132
    1UNL     O7   17  -0.187  -0.322   0.228
    1UNL    C11   18  -0.052  -0.320   0.252
    1UNL    C12   19   0.036  -0.287   0.152
    1UNL    C13   20   0.172  -0.258   0.195
    1UNL     O8   21   0.219  -0.302   0.301
    1UNL     N1   22   0.249  -0.172   0.107
    1UNL    C14   23   0.388  -0.149   0.133
    1UNL    C15   24   0.430  -0.007   0.126
    1UNL    C16   25   0.363   0.062   0.009
    1UNL    C17   26   0.256   0.006  -0.056
    1UNL     N2   27   0.196   0.097  -0.144
    1UNL    C18   28   0.277   0.213  -0.144
    1UNL    C19   29   0.283   0.333  -0.217
    1UNL    C20   30   0.385   0.418  -0.198
    1UNL    C21   31   0.474   0.401  -0.091
    1UNL    C22   32   0.473   0.286  -0.014
    1UNL    C23   33   0.378   0.188  -0.044
    1UNL    C24   34   0.203  -0.128  -0.024
    1UNL    C25   35   0.054  -0.141  -0.050
    1UNL    C26   36  -0.008  -0.266   0.012
    1UNL     H1   37  -0.315  -0.510  -0.187
    1UNL     H2   38  -0.267  -0.340  -0.251
    1UNL     H3   39  -0.224  -0.471   0.025
    1UNL     H4   40  -0.198  -0.190  -0.093
    1UNL     H5   41  -0.333  -0.210   0.130
    1UNL     H6   42  -0.339   0.008   0.134
    1UNL     H7   43  -0.231   0.092  -0.226
    1UNL     H8   44  -0.459   0.156  -0.019
    1UNL     H9   45  -0.463   0.144  -0.205
    1UNL    H10   46  -0.390  -0.092  -0.123
    1UNL    H11   47  -0.101   0.244  -0.086
    1UNL    H12   48  -0.348   0.365  -0.086
    1UNL    H13   49  -0.186   0.345   0.112
    1UNL    H14   50  -0.408   0.257   0.192
    1UNL    H15   51  -0.186   0.134   0.274
    1UNL    H16   52   0.017   0.050   0.150
    1UNL    H17   53  -0.027  -0.346   0.355
    1UNL    H18   54   0.413  -0.209   0.230
    1UNL    H19   55   0.434  -0.193   0.044
    1UNL    H20   56   0.534   0.002   0.124
    1UNL    H21   57   0.389   0.047   0.214
    1UNL    H22   58   0.125   0.099  -0.212
    1UNL    H23   59   0.199   0.359  -0.285
    1UNL    H24   60   0.395   0.510  -0.257
    1UNL    H25   61   0.541   0.483  -0.062
    1UNL    H26   62   0.548   0.253   0.068
    1UNL    H27   63   0.258  -0.200  -0.096
    1UNL    H28   64   0.025  -0.126  -0.154
    1UNL    H29   65  -0.001  -0.060  -0.008
    1UNL    H30   66   0.023  -0.355  -0.036
   0.00000   0.00000   0.00000   0.00000   0.00000   0.00000   0.00000   0.00000   0.00000
Generated with MDTraj, t= 13.0
 66
    1UNL     C1    1  -0.279  -0.417  -0.164
    1UNL     C2    2  -0.218  -0.392  -0.049
    1UNL     C3    3  -0.166  -0.265   0.002
    1UNL     C4    4  -0.222  -0.229   0.141
    1UNL     O1    5  -0.190  -0.094   0.183
    1UNL     C5    6  -0.243   0.010   0.106
    1UNL     O2    7  -0.225  -0.005  -0.031
    1UNL     C6    8  -0.283   0.105  -0.114
    1UNL     C7    9  -0.437   0.098  -0.102
    1UNL     O3   10  -0.485  -0.025  -0.156
    1UNL     C8   11  -0.219   0.238  -0.072
    1UNL     O4   12  -0.280   0.341  -0.146
    1UNL     C9   13  -0.242   0.274   0.079
    1UNL     O5   14  -0.377   0.301   0.100
    1UNL    C10   15  -0.186   0.145   0.169
    1UNL     O6   16  -0.046   0.143   0.173
    1UNL     O7   17  -0.178  -0.328   0.238
    1UNL    C11   18  -0.044  -0.336   0.245
    1UNL    C12   19   0.042  -0.294   0.152
    1UNL    C13   20   0.185  -0.267   0.189
    1UNL     O8   21   0.234  -0.296   0.299
    1UNL     N1   22   0.265  -0.193   0.094
    1UNL    C14   23   0.408  -0.168   0.116
    1UNL    C15   24   0.436  -0.017   0.125
    1UNL    C16   25   0.369   0.056   0.017
    1UNL    C17   26   0.254   0.009  -0.050
    1UNL     N2   27   0.214   0.092  -0.155
    1UNL    C18   28   0.291   0.204  -0.142
    1UNL    C19   29   0.285   0.327  -0.205
    1UNL    C20   30   0.379   0.427  -0.190
    1UNL    C21   31   0.480   0.404  -0.095
    1UNL    C22   32   0.486   0.292  -0.017
    1UNL    C23   33   0.390   0.189  -0.041
    1UNL    C24   34   0.204  -0.132  -0.029
    1UNL    C25   35   0.054  -0.135  -0.036
    1UNL    C26   36  -0.004  -0.265   0.018
    1UNL     H1   37  -0.321  -0.513  -0.187
    1UNL     H2   38  -0.284  -0.337  -0.234
    1UNL     H3   39  -0.207  -0.476   0.011
    1UNL     H4   40  -0.189  -0.193  -0.081
    1UNL     H5   41  -0.328  -0.226   0.147
    1UNL     H6   42  -0.349   0.008   0.136
    1UNL     H7   43  -0.249   0.073  -0.215
    1UNL     H8   44  -0.472   0.113   0.005
    1UNL     H9   45  -0.487   0.179  -0.162
    1UNL    H10   46  -0.412  -0.091  -0.153
    1UNL    H11   47  -0.114   0.234  -0.109
    1UNL    H12   48  -0.364   0.370  -0.094
    1UNL    H13   49  -0.179   0.354   0.096
    1UNL    H14   50  -0.386   0.319   0.195
    1UNL    H15   51  -0.219   0.146   0.273
    1UNL    H16   52  -0.011   0.063   0.228
    1UNL    H17   53  -0.002  -0.349   0.343
    1UNL    H18   54   0.430  -0.226   0.214
    1UNL    H19   55   0.460  -0.217   0.034
    1UNL    H20   56   0.540   0.006   0.121
    1UNL    H21   57   0.394   0.021   0.215
    1UNL    H22   58   0.138   0.085  -0.217
    1UNL    H23   59   0.202   0.338  -0.264
    1UNL    H24   60   0.361   0.517  -0.243
    1UNL    H25   61   0.544   0.486  -0.074
    1UNL    H26   62   0.556   0.285   0.057
    1UNL    H27   63   0.257  -0.193  -0.111
    1UNL    H28   64   0.012  -0.111  -0.134
    1UNL    H29   65   0.019  -0.054   0.017
    1UNL    H30   66   0.040  -0.339  -0.043
   0.00000   0.00000   0.00000   0.00000   0.00000   0.00000   0.00000   0.00000   0.00000
Generated with MDTraj, t= 14.0
 66
    1UNL     C1    1  -0.266  -0.424  -0.153
    1UNL     C2    2  -0.223  -0.407  -0.027
    1UNL     C3    3  -0.168  -0.278   0.020
    1UNL     C4    4  -0.223  -0.232   0.162
    1UNL     O1    5  -0.204  -0.087   0.184
    1UNL     C5    6  -0.259   0.012   0.095
    1UNL     O2    7  -0.223  -0.002  -0.043
    1UNL     C6    8  -0.282   0.106  -0.121
    1UNL     C7    9  -0.435   0.102  -0.119
    1UNL     O3   10  -0.482  -0.025  -0.155
    1UNL     C8   11  -0.222   0.239  -0.067
    1UNL     O4   12  -0.268   0.348  -0.152
    1UNL     C9   13  -0.256   0.269   0.080
    1UNL     O5   14  -0.395   0.293   0.105
    1UNL    C10   15  -0.208   0.145   0.166
    1UNL     O6   16  -0.074   0.143   0.203
    1UNL     O7   17  -0.166  -0.312   0.264
    1UNL    C11   18  -0.027  -0.313   0.256
    1UNL    C12   19   0.048  -0.269   0.156
    1UNL    C13   20   0.191  -0.258   0.178
    1UNL     O8   21   0.243  -0.299   0.277
    1UNL     N1   22   0.265  -0.202   0.080
    1UNL    C14   23   0.405  -0.169   0.113
    1UNL    C15   24   0.447  -0.022   0.109
    1UNL    C16   25   0.367   0.047   0.000
    1UNL    C17   26   0.264  -0.004  -0.076
    1UNL     N2   27   0.234   0.095  -0.170
    1UNL    C18   28   0.308   0.210  -0.150
    1UNL    C19   29   0.295   0.339  -0.205
    1UNL    C20   30   0.385   0.434  -0.161
    1UNL    C21   31   0.483   0.401  -0.066
    1UNL    C22   32   0.480   0.279  -0.003
    1UNL    C23   33   0.390   0.181  -0.042
    1UNL    C24   34   0.201  -0.140  -0.053
    1UNL    C25   35   0.047  -0.141  -0.057
    1UNL    C26   36  -0.013  -0.263   0.017
    1UNL     H1   37  -0.284  -0.520  -0.198
    1UNL     H2   38  -0.284  -0.349  -0.230
    1UNL     H3   39  -0.202  -0.497   0.036
    1UNL     H4   40  -0.206  -0.208  -0.059
    1UNL     H5   41  -0.326  -0.251   0.177
    1UNL     H6   42  -0.367   0.007   0.106
    1UNL     H7   43  -0.241   0.085  -0.218
    1UNL     H8   44  -0.489   0.143  -0.029
    1UNL     H9   45  -0.472   0.175  -0.202
    1UNL    H10   46  -0.467  -0.087  -0.086
    1UNL    H11   47  -0.111   0.230  -0.084
    1UNL    H12   48  -0.362   0.372  -0.121
    1UNL    H13   49  -0.198   0.354   0.108
    1UNL    H14   50  -0.407   0.361   0.177
    1UNL    H15   51  -0.262   0.155   0.258
    1UNL    H16   52  -0.052   0.059   0.239
    1UNL    H17   53   0.024  -0.342   0.347
    1UNL    H18   54   0.414  -0.199   0.223
    1UNL    H19   55   0.472  -0.244   0.067
    1UNL    H20   56   0.546  -0.027   0.067
    1UNL    H21   57   0.457   0.032   0.194
    1UNL    H22   58   0.150   0.093  -0.222
    1UNL    H23   59   0.225   0.370  -0.285
    1UNL    H24   60   0.377   0.537  -0.201
    1UNL    H25   61   0.558   0.476  -0.040
    1UNL    H26   62   0.537   0.251   0.086
    1UNL    H27   63   0.252  -0.203  -0.134
    1UNL    H28   64   0.018  -0.137  -0.162
    1UNL    H29   65   0.011  -0.050  -0.020
    1UNL    H30   66   0.010  -0.350  -0.039
   0.00000   0.00000   0.00000   0.00000   0.00000   0.00000   0.00000   0.00000   0.00000
Generated with MDTraj, t= 15.0
 66
    1UNL     C1    1  -0.239  -0.437  -0.143
    1UNL     C2    2  -0.204  -0.398  -0.020
    1UNL     C3    3  -0.167  -0.256   0.019
    1UNL     C4    4  -0.231  -0.221   0.157
    1UNL     O1    5  -0.202  -0.083   0.190
    1UNL     C5    6  -0.272   0.018   0.108
    1UNL     O2    7  -0.224   0.004  -0.024
    1UNL     C6    8  -0.264   0.106  -0.107
    1UNL     C7    9  -0.410   0.092  -0.138
    1UNL     O3   10  -0.460  -0.040  -0.130
    1UNL     C8   11  -0.217   0.245  -0.054
    1UNL     O4   12  -0.250   0.349  -0.156
    1UNL     C9   13  -0.276   0.267   0.086
    1UNL     O5   14  -0.418   0.289   0.083
    1UNL    C10   15  -0.224   0.149   0.171
    1UNL     O6   16  -0.086   0.154   0.175
    1UNL     O7   17  -0.170  -0.311   0.255
    1UNL    C11   18  -0.034  -0.314   0.259
    1UNL    C12   19   0.043  -0.270   0.154
    1UNL    C13   20   0.190  -0.255   0.166
    1UNL     O8   21   0.250  -0.281   0.267
    1UNL     N1   22   0.264  -0.219   0.057
    1UNL    C14   23   0.409  -0.201   0.084
    1UNL    C15   24   0.446  -0.052   0.094
    1UNL    C16   25   0.371   0.041  -0.002
    1UNL    C17   26   0.261  -0.002  -0.072
    1UNL     N2   27   0.215   0.091  -0.155
    1UNL    C18   28   0.299   0.206  -0.141
    1UNL    C19   29   0.291   0.329  -0.199
    1UNL    C20   30   0.379   0.429  -0.158
    1UNL    C21   31   0.473   0.405  -0.054
    1UNL    C22   32   0.484   0.280  -0.001
    1UNL    C23   33   0.396   0.176  -0.045
    1UNL    C24   34   0.199  -0.136  -0.051
    1UNL    C25   35   0.046  -0.113  -0.037
    1UNL    C26   36  -0.017  -0.240   0.021
    1UNL     H1   37  -0.271  -0.536  -0.171
    1UNL     H2   38  -0.240  -0.377  -0.231
    1UNL     H3   39  -0.226  -0.469   0.056
    1UNL     H4   40  -0.210  -0.183  -0.053
    1UNL     H5   41  -0.336  -0.237   0.158
    1UNL     H6   42  -0.377  -0.003   0.108
    1UNL     H7   43  -0.210   0.099  -0.196
    1UNL     H8   44  -0.458   0.148  -0.057
    1UNL     H9   45  -0.450   0.152  -0.234
    1UNL    H10   46  -0.383  -0.104  -0.116
    1UNL    H11   47  -0.107   0.252  -0.038
    1UNL    H12   48  -0.341   0.362  -0.150
    1UNL    H13   49  -0.233   0.355   0.134
    1UNL    H14   50  -0.451   0.324   0.171
    1UNL    H15   51  -0.264   0.161   0.267
    1UNL    H16   52  -0.047   0.060   0.194
    1UNL    H17   53   0.013  -0.366   0.344
    1UNL    H18   54   0.450  -0.258   0.173
    1UNL    H19   55   0.455  -0.253  -0.002
    1UNL    H20   56   0.552  -0.035   0.096
    1UNL    H21   57   0.411  -0.023   0.186
    1UNL    H22   58   0.138   0.071  -0.216
    1UNL    H23   59   0.225   0.342  -0.282
    1UNL    H24   60   0.400   0.521  -0.207
    1UNL    H25   61   0.538   0.479  -0.007
    1UNL    H26   62   0.558   0.261   0.083
    1UNL    H27   63   0.223  -0.198  -0.143
    1UNL    H28   64   0.005  -0.093  -0.135
    1UNL    H29   65   0.024  -0.025   0.020
    1UNL    H30   66   0.018  -0.326  -0.030
   0.00000   0.00000   0.00000   0.00000   0.00000   0.00000   0.00000   0.00000   0.00000
Generated with MDTraj, t= 16.0
 66
    1UNL     C1    1  -0.222  -0.435  -0.145
    1UNL     C2    2  -0.242  -0.377  -0.028
    1UNL     C3    3  -0.169  -0.258   0.028
    1UNL     C4    4  -0.220  -0.212   0.163
    1UNL     O1    5  -0.165  -0.084   0.194
    1UNL     C5    6  -0.239   0.013   0.111
    1UNL     O2    7  -0.201   0.008  -0.025
    1UNL     C6    8  -0.266   0.100  -0.110
    1UNL     C7    9  -0.416   0.080  -0.122
    1UNL     O3   10  -0.447  -0.043  -0.173
    1UNL     C8   11  -0.217   0.241  -0.070
    1UNL     O4   12  -0.284   0.339  -0.152
    1UNL     C9   13  -0.265   0.267   0.071
    1UNL     O5   14  -0.406   0.280   0.070
    1UNL    C10   15  -0.218   0.156   0.172
    1UNL     O6   16  -0.082   0.164   0.202
    1UNL     O7   17  -0.174  -0.298   0.266
    1UNL    C11   18  -0.042  -0.306   0.271
    1UNL    C12   19   0.041  -0.269   0.166
    1UNL    C13   20   0.187  -0.255   0.173
    1UNL     O8   21   0.257  -0.282   0.270
    1UNL     N1   22   0.256  -0.211   0.057
    1UNL    C14   23   0.399  -0.196   0.079
    1UNL    C15   24   0.439  -0.048   0.082
    1UNL    C16   25   0.362   0.039  -0.013
    1UNL    C17   26   0.245   0.000  -0.076
    1UNL     N2   27   0.191   0.116  -0.137
    1UNL    C18   28   0.287   0.218  -0.135
    1UNL    C19   29   0.284   0.353  -0.187
    1UNL    C20   30   0.386   0.435  -0.139
    1UNL    C21   31   0.484   0.384  -0.049
    1UNL    C22   32   0.493   0.256  -0.009
    1UNL    C23   33   0.391   0.173  -0.050
    1UNL    C24   34   0.194  -0.140  -0.059
    1UNL    C25   35   0.039  -0.141  -0.056
    1UNL    C26   36  -0.016  -0.264   0.024
    1UNL     H1   37  -0.267  -0.526  -0.186
    1UNL     H2   38  -0.161  -0.381  -0.214
    1UNL     H3   39  -0.307  -0.432   0.038
    1UNL     H4   40  -0.195  -0.175  -0.040
    1UNL     H5   41  -0.329  -0.211   0.157
    1UNL     H6   42  -0.342  -0.014   0.113
    1UNL     H7   43  -0.232   0.069  -0.203
    1UNL     H8   44  -0.469   0.100  -0.029
    1UNL     H9   45  -0.456   0.164  -0.197
    1UNL    H10   46  -0.375  -0.112  -0.153
    1UNL    H11   47  -0.107   0.250  -0.076
    1UNL    H12   48  -0.378   0.348  -0.122
    1UNL    H13   49  -0.219   0.363   0.108
    1UNL    H14   50  -0.447   0.244   0.150
    1UNL    H15   51  -0.275   0.163   0.258
    1UNL    H16   52  -0.045   0.069   0.204
    1UNL    H17   53   0.001  -0.327   0.370
    1UNL    H18   54   0.415  -0.270   0.161
    1UNL    H19   55   0.462  -0.235  -0.004
    1UNL    H20   56   0.543  -0.035   0.074
    1UNL    H21   57   0.415  -0.016   0.181
    1UNL    H22   58   0.117   0.100  -0.206
    1UNL    H23   59   0.218   0.391  -0.261
    1UNL    H24   60   0.384   0.537  -0.179
    1UNL    H25   61   0.555   0.454  -0.013
    1UNL    H26   62   0.557   0.215   0.057
    1UNL    H27   63   0.209  -0.197  -0.154
    1UNL    H28   64  -0.005  -0.137  -0.154
    1UNL    H29   65   0.012  -0.048  -0.004
    1UNL    H30   66   0.023  -0.350  -0.021
   0.00000   0.00000   0.00000   0.00000   0.00000   0.00000   0.00000   0.00000   0.00000
Generated with MDTraj, t= 17.0
 66
    1UNL     C1    1  -0.238  -0.454  -0.123
    1UNL     C2    2  -0.236  -0.395  -0.006
    1UNL     C3    3  -0.170  -0.254   0.024
    1UNL     C4    4  -0.226  -0.212   0.165
    1UNL     O1    5  -0.193  -0.075   0.204
    1UNL     C5    6  -0.244   0.023   0.115
    1UNL     O2    7  -0.212   0.007  -0.025
    1UNL     C6    8  -0.255   0.111  -0.126
    1UNL     C7    9  -0.405   0.077  -0.158
    1UNL     O3   10  -0.418  -0.058  -0.196
    1UNL     C8   11  -0.228   0.260  -0.072
    1UNL     O4   12  -0.303   0.352  -0.146
    1UNL     C9   13  -0.269   0.277   0.078
    1UNL     O5   14  -0.404   0.292   0.093
    1UNL    C10   15  -0.202   0.166   0.166
    1UNL     O6   16  -0.058   0.174   0.161
    1UNL     O7   17  -0.176  -0.303   0.267
    1UNL    C11   18  -0.041  -0.312   0.262
    1UNL    C12   19   0.043  -0.278   0.161
    1UNL    C13   20   0.188  -0.262   0.161
    1UNL     O8   21   0.251  -0.286   0.262
    1UNL     N1   22   0.260  -0.216   0.046
    1UNL    C14   23   0.409  -0.208   0.071
    1UNL    C15   24   0.458  -0.058   0.078
    1UNL    C16   25   0.370   0.036  -0.003
    1UNL    C17   26   0.254  -0.004  -0.062
    1UNL     N2   27   0.195   0.102  -0.121
    1UNL    C18   28   0.270   0.219  -0.099
    1UNL    C19   29   0.264   0.344  -0.152
    1UNL    C20   30   0.365   0.432  -0.139
    1UNL    C21   31   0.484   0.397  -0.075
    1UNL    C22   32   0.494   0.272  -0.021
    1UNL    C23   33   0.382   0.181  -0.022
    1UNL    C24   34   0.204  -0.145  -0.066
    1UNL    C25   35   0.048  -0.142  -0.050
    1UNL    C26   36  -0.021  -0.260   0.022
    1UNL     H1   37  -0.291  -0.545  -0.140
    1UNL     H2   38  -0.194  -0.402  -0.206
    1UNL     H3   39  -0.273  -0.447   0.083
    1UNL     H4   40  -0.204  -0.193  -0.058
    1UNL     H5   41  -0.336  -0.223   0.168
    1UNL     H6   42  -0.349   0.020   0.122
    1UNL     H7   43  -0.201   0.081  -0.211
    1UNL     H8   44  -0.467   0.093  -0.067
    1UNL     H9   45  -0.447   0.148  -0.244
    1UNL    H10   46  -0.374  -0.112  -0.128
    1UNL    H11   47  -0.125   0.285  -0.092
    1UNL    H12   48  -0.402   0.354  -0.116
    1UNL    H13   49  -0.222   0.377   0.114
    1UNL    H14   50  -0.432   0.258   0.180
    1UNL    H15   51  -0.229   0.172   0.265
    1UNL    H16   52  -0.024   0.088   0.173
    1UNL    H17   53   0.010  -0.329   0.354
    1UNL    H18   54   0.438  -0.254   0.166
    1UNL    H19   55   0.459  -0.281   0.001
    1UNL    H20   56   0.551  -0.058   0.034
    1UNL    H21   57   0.476  -0.024   0.184
    1UNL    H22   58   0.103   0.114  -0.169
    1UNL    H23   59   0.173   0.362  -0.214
    1UNL    H24   60   0.366   0.533  -0.177
    1UNL    H25   61   0.569   0.467  -0.061
    1UNL    H26   62   0.591   0.238   0.026
    1UNL    H27   63   0.216  -0.204  -0.156
    1UNL    H28   64  -0.001  -0.125  -0.144
    1UNL    H29   65   0.021  -0.056   0.016
    1UNL    H30   66   0.014  -0.338  -0.039
   0.00000   0.00000   0.00000   0.00000   0.00000   0.00000   0.00000   0.00000   0.00000
Generated with MDTraj, t= 18.0
 66
    1UNL     C1    1  -0.272  -0.449  -0.114
    1UNL     C2    2  -0.225  -0.418   0.006
    1UNL     C3    3  -0.170  -0.275   0.030
    1UNL     C4    4  -0.214  -0.217   0.167
    1UNL     O1    5  -0.174  -0.074   0.173
    1UNL     C5    6  -0.222   0.018   0.082
    1UNL     O2    7  -0.185   0.010  -0.058
    1UNL     C6    8  -0.258   0.114  -0.134
    1UNL     C7    9  -0.408   0.093  -0.147
    1UNL     O3   10  -0.438  -0.036  -0.203
    1UNL     C8   11  -0.235   0.264  -0.081
    1UNL     O4   12  -0.299   0.367  -0.143
    1UNL     C9   13  -0.268   0.271   0.076
    1UNL     O5   14  -0.408   0.259   0.095
    1UNL    C10   15  -0.189   0.157   0.145
    1UNL     O6   16  -0.047   0.184   0.145
    1UNL     O7   17  -0.165  -0.286   0.281
    1UNL    C11   18  -0.027  -0.294   0.286
    1UNL    C12   19   0.048  -0.277   0.176
    1UNL    C13   20   0.190  -0.268   0.172
    1UNL     O8   21   0.250  -0.314   0.266
    1UNL     N1   22   0.256  -0.213   0.063
    1UNL    C14   23   0.402  -0.195   0.072
    1UNL    C15   24   0.460  -0.058   0.055
    1UNL    C16   25   0.367   0.033  -0.013
    1UNL    C17   26   0.244  -0.005  -0.063
    1UNL     N2   27   0.185   0.112  -0.125
    1UNL    C18   28   0.271   0.217  -0.110
    1UNL    C19   29   0.254   0.352  -0.142
    1UNL    C20   30   0.353   0.439  -0.104
    1UNL    C21   31   0.473   0.395  -0.047
    1UNL    C22   32   0.494   0.261  -0.023
    1UNL    C23   33   0.387   0.172  -0.042
    1UNL    C24   34   0.192  -0.141  -0.057
    1UNL    C25   35   0.036  -0.147  -0.038
    1UNL    C26   36  -0.024  -0.267   0.034
    1UNL     H1   37  -0.306  -0.548  -0.138
    1UNL     H2   38  -0.248  -0.385  -0.198
    1UNL     H3   39  -0.231  -0.481   0.090
    1UNL     H4   40  -0.212  -0.212  -0.046
    1UNL     H5   41  -0.324  -0.218   0.190
    1UNL     H6   42  -0.327   0.005   0.084
    1UNL     H7   43  -0.211   0.108  -0.230
    1UNL     H8   44  -0.458   0.107  -0.046
    1UNL     H9   45  -0.449   0.165  -0.228
    1UNL    H10   46  -0.376  -0.097  -0.166
    1UNL    H11   47  -0.132   0.291  -0.095
    1UNL    H12   48  -0.390   0.357  -0.126
    1UNL    H13   49  -0.229   0.373   0.116
    1UNL    H14   50  -0.441   0.279   0.186
    1UNL    H15   51  -0.213   0.147   0.244
    1UNL    H16   52   0.005   0.121   0.207
    1UNL    H17   53   0.013  -0.312   0.384
    1UNL    H18   54   0.427  -0.232   0.170
    1UNL    H19   55   0.463  -0.265   0.008
    1UNL    H20   56   0.551  -0.065   0.005
    1UNL    H21   57   0.478  -0.017   0.161
    1UNL    H22   58   0.083   0.124  -0.152
    1UNL    H23   59   0.167   0.389  -0.184
    1UNL    H24   60   0.333   0.543  -0.126
    1UNL    H25   61   0.540   0.469  -0.011
    1UNL    H26   62   0.589   0.224   0.019
    1UNL    H27   63   0.207  -0.188  -0.152
    1UNL    H28   64  -0.012  -0.140  -0.133
    1UNL    H29   65   0.015  -0.055   0.027
    1UNL    H30   66   0.018  -0.348  -0.019
   0.00000   0.00000   0.00000   0.00000   0.00000   0.00000   0.00000   0.00000   0.00000
Generated with MDTraj, t= 19.0
 66
    1UNL     C1    1  -0.294  -0.452  -0.077
    1UNL     C2    2  -0.235  -0.389   0.021
    1UNL     C3    3  -0.159  -0.263   0.024
    1UNL     C4    4  -0.195  -0.196   0.162
    1UNL     O1    5  -0.151  -0.060   0.175
    1UNL     C5    6  -0.233   0.029   0.103
    1UNL     O2    7  -0.207   0.013  -0.046
    1UNL     C6    8  -0.262   0.112  -0.130
    1UNL     C7    9  -0.410   0.093  -0.146
    1UNL     O3   10  -0.442  -0.038  -0.195
    1UNL     C8   11  -0.228   0.255  -0.083
    1UNL     O4   12  -0.283   0.350  -0.165
    1UNL     C9   13  -0.264   0.272   0.066
    1UNL     O5   14  -0.410   0.268   0.084
    1UNL    C10   15  -0.188   0.169   0.148
    1UNL     O6   16  -0.048   0.178   0.132
    1UNL     O7   17  -0.158  -0.286   0.269
    1UNL    C11   18  -0.028  -0.307   0.254
    1UNL    C12   19   0.047  -0.283   0.142
    1UNL    C13   20   0.195  -0.270   0.173
    1UNL     O8   21   0.245  -0.315   0.277
    1UNL     N1   22   0.267  -0.208   0.071
    1UNL    C14   23   0.411  -0.204   0.076
    1UNL    C15   24   0.470  -0.060   0.043
    1UNL    C16   25   0.374   0.029  -0.019
    1UNL    C17   26   0.248  -0.005  -0.058
    1UNL     N2   27   0.173   0.103  -0.105
    1UNL    C18   28   0.264   0.211  -0.101
    1UNL    C19   29   0.240   0.347  -0.122
    1UNL    C20   30   0.332   0.440  -0.090
    1UNL    C21   31   0.452   0.396  -0.032
    1UNL    C22   32   0.484   0.262  -0.011
    1UNL    C23   33   0.383   0.170  -0.045
    1UNL    C24   34   0.202  -0.146  -0.052
    1UNL    C25   35   0.045  -0.148  -0.066
    1UNL    C26   36  -0.006  -0.278  -0.001
    1UNL     H1   37  -0.345  -0.546  -0.063
    1UNL     H2   38  -0.275  -0.432  -0.181
    1UNL     H3   39  -0.229  -0.443   0.119
    1UNL     H4   40  -0.203  -0.205  -0.055
    1UNL     H5   41  -0.308  -0.197   0.179
    1UNL     H6   42  -0.334   0.012   0.128
    1UNL     H7   43  -0.207   0.114  -0.224
    1UNL     H8   44  -0.467   0.105  -0.046
    1UNL     H9   45  -0.450   0.163  -0.226
    1UNL    H10   46  -0.410  -0.103  -0.126
    1UNL    H11   47  -0.122   0.275  -0.094
    1UNL    H12   48  -0.380   0.352  -0.151
    1UNL    H13   49  -0.228   0.378   0.098
    1UNL    H14   50  -0.437   0.320   0.165
    1UNL    H15   51  -0.210   0.183   0.247
    1UNL    H16   52   0.001   0.099   0.176
    1UNL    H17   53   0.022  -0.347   0.343
    1UNL    H18   54   0.450  -0.240   0.167
    1UNL    H19   55   0.447  -0.286   0.006
    1UNL    H20   56   0.564  -0.064  -0.009
    1UNL    H21   57   0.483  -0.015   0.147
    1UNL    H22   58   0.070   0.101  -0.136
    1UNL    H23   59   0.144   0.381  -0.167
    1UNL    H24   60   0.314   0.546  -0.104
    1UNL    H25   61   0.527   0.472  -0.004
    1UNL    H26   62   0.568   0.237   0.038
    1UNL    H27   63   0.240  -0.201  -0.132
    1UNL    H28   64   0.015  -0.137  -0.168
    1UNL    H29   65   0.007  -0.062  -0.001
    1UNL    H30   66   0.038  -0.366  -0.043
   0.00000   0.00000   0.00000   0.00000   0.00000   0.00000   0.00000   0.00000   0.00000
Generated with MDTraj, t= 20.0
 66
    1UNL     C1    1  -0.292  -0.429  -0.107
    1UNL     C2    2  -0.232  -0.401   0.006
    1UNL     C3    3  -0.168  -0.265   0.033
    1UNL     C4    4  -0.209  -0.203   0.165
    1UNL     O1    5  -0.173  -0.065   0.175
    1UNL     C5    6  -0.231   0.030   0.089
    1UNL     O2    7  -0.195   0.013  -0.045
    1UNL     C6    8  -0.260   0.104  -0.125
    1UNL     C7    9  -0.408   0.084  -0.132
    1UNL     O3   10  -0.436  -0.051  -0.150
    1UNL     C8   11  -0.217   0.253  -0.104
    1UNL     O4   12  -0.292   0.342  -0.184
    1UNL     C9   13  -0.237   0.279   0.046
    1UNL     O5   14  -0.381   0.298   0.061
    1UNL    C10   15  -0.181   0.168   0.131
    1UNL     O6   16  -0.042   0.172   0.133
    1UNL     O7   17  -0.145  -0.279   0.278
    1UNL    C11   18  -0.012  -0.279   0.277
    1UNL    C12   19   0.057  -0.270   0.161
    1UNL    C13   20   0.202  -0.271   0.164
    1UNL     O8   21   0.260  -0.313   0.263
    1UNL     N1   22   0.271  -0.215   0.051
    1UNL    C14   23   0.410  -0.220   0.033
    1UNL    C15   24   0.458  -0.069   0.065
    1UNL    C16   25   0.367   0.028  -0.012
    1UNL    C17   26   0.249  -0.008  -0.074
    1UNL     N2   27   0.174   0.099  -0.113
    1UNL    C18   28   0.245   0.211  -0.083
    1UNL    C19   29   0.214   0.348  -0.098
    1UNL    C20   30   0.318   0.435  -0.076
    1UNL    C21   31   0.441   0.395  -0.024
    1UNL    C22   32   0.463   0.264   0.010
    1UNL    C23   33   0.371   0.168  -0.021
    1UNL    C24   34   0.195  -0.140  -0.056
    1UNL    C25   35   0.044  -0.149  -0.062
    1UNL    C26   36  -0.009  -0.272   0.024
    1UNL     H1   37  -0.351  -0.517  -0.124
    1UNL     H2   38  -0.287  -0.371  -0.197
    1UNL     H3   39  -0.231  -0.479   0.075
    1UNL     H4   40  -0.200  -0.206  -0.052
    1UNL     H5   41  -0.321  -0.205   0.180
    1UNL     H6   42  -0.337   0.031   0.100
    1UNL     H7   43  -0.217   0.070  -0.223
    1UNL     H8   44  -0.465   0.106  -0.030
    1UNL     H9   45  -0.462   0.136  -0.217
    1UNL    H10   46  -0.375  -0.112  -0.096
    1UNL    H11   47  -0.112   0.261  -0.136
    1UNL    H12   48  -0.387   0.361  -0.146
    1UNL    H13   49  -0.184   0.376   0.076
    1UNL    H14   50  -0.391   0.342   0.148
    1UNL    H15   51  -0.215   0.185   0.226
    1UNL    H16   52  -0.008   0.092   0.173
    1UNL    H17   53   0.050  -0.298   0.366
    1UNL    H18   54   0.438  -0.299   0.097
    1UNL    H19   55   0.444  -0.262  -0.067
    1UNL    H20   56   0.562  -0.050   0.023
    1UNL    H21   57   0.454  -0.038   0.172
    1UNL    H22   58   0.070   0.094  -0.129
    1UNL    H23   59   0.119   0.373  -0.140
    1UNL    H24   60   0.318   0.537  -0.107
    1UNL    H25   61   0.517   0.465  -0.002
    1UNL    H26   62   0.559   0.230   0.065
    1UNL    H27   63   0.231  -0.196  -0.138
    1UNL    H28   64   0.011  -0.154  -0.164
    1UNL    H29   65   0.001  -0.059  -0.008
    1UNL    H30   66   0.012  -0.364  -0.025
   0.00000   0.00000   0.00000   0.00000   0.00000   0.00000   0.00000   0.00000   0.00000
Generated with MDTraj, t= 21.0
 66
    1UNL     C1    1  -0.289  -0.420  -0.113
    1UNL     C2    2  -0.256  -0.389   0.011
    1UNL     C3    3  -0.174  -0.263   0.043
    1UNL     C4    4  -0.197  -0.203   0.184
    1UNL     O1    5  -0.157  -0.065   0.188
    1UNL     C5    6  -0.219   0.031   0.096
    1UNL     O2    7  -0.204  -0.001  -0.045
    1UNL     C6    8  -0.265   0.084  -0.137
    1UNL     C7    9  -0.422   0.075  -0.127
    1UNL     O3   10  -0.468  -0.058  -0.116
    1UNL     C8   11  -0.202   0.230  -0.123
    1UNL     O4   12  -0.262   0.324  -0.209
    1UNL     C9   13  -0.223   0.276   0.023
    1UNL     O5   14  -0.358   0.304   0.050
    1UNL    C10   15  -0.164   0.179   0.129
    1UNL     O6   16  -0.017   0.192   0.135
    1UNL     O7   17  -0.136  -0.278   0.288
    1UNL    C11   18  -0.004  -0.292   0.262
    1UNL    C12   19   0.059  -0.282   0.144
    1UNL    C13   20   0.199  -0.265   0.154
    1UNL     O8   21   0.260  -0.283   0.258
    1UNL     N1   22   0.259  -0.218   0.040
    1UNL    C14   23   0.405  -0.208   0.028
    1UNL    C15   24   0.448  -0.065   0.052
    1UNL    C16   25   0.358   0.027  -0.014
    1UNL    C17   26   0.238  -0.006  -0.077
    1UNL     N2   27   0.176   0.105  -0.125
    1UNL    C18   28   0.250   0.211  -0.079
    1UNL    C19   29   0.218   0.351  -0.091
    1UNL    C20   30   0.313   0.442  -0.051
    1UNL    C21   31   0.429   0.398   0.015
    1UNL    C22   32   0.446   0.270   0.044
    1UNL    C23   33   0.362   0.174  -0.010
    1UNL    C24   34   0.187  -0.150  -0.075
    1UNL    C25   35   0.031  -0.165  -0.071
    1UNL    C26   36  -0.022  -0.283   0.019
    1UNL     H1   37  -0.345  -0.504  -0.148
    1UNL     H2   38  -0.247  -0.368  -0.198
    1UNL     H3   39  -0.310  -0.443   0.093
    1UNL     H4   40  -0.205  -0.197  -0.037
    1UNL     H5   41  -0.306  -0.187   0.201
    1UNL     H6   42  -0.324   0.023   0.119
    1UNL     H7   43  -0.237   0.040  -0.238
    1UNL     H8   44  -0.458   0.128  -0.027
    1UNL     H9   45  -0.466   0.125  -0.218
    1UNL    H10   46  -0.415  -0.106  -0.054
    1UNL    H11   47  -0.092   0.229  -0.142
    1UNL    H12   48  -0.330   0.370  -0.167
    1UNL    H13   49  -0.171   0.374   0.032
    1UNL    H14   50  -0.365   0.308   0.146
    1UNL    H15   51  -0.202   0.205   0.221
    1UNL    H16   52   0.024   0.104   0.138
    1UNL    H17   53   0.056  -0.302   0.353
    1UNL    H18   54   0.454  -0.270   0.096
    1UNL    H19   55   0.428  -0.262  -0.069
    1UNL    H20   56   0.560  -0.051   0.013
    1UNL    H21   57   0.446  -0.047   0.161
    1UNL    H22   58   0.080   0.110  -0.158
    1UNL    H23   59   0.132   0.380  -0.145
    1UNL    H24   60   0.295   0.545  -0.080
    1UNL    H25   61   0.503   0.471   0.051
    1UNL    H26   62   0.529   0.238   0.104
    1UNL    H27   63   0.236  -0.187  -0.161
    1UNL    H28   64  -0.008  -0.182  -0.170
    1UNL    H29   65  -0.011  -0.072  -0.029
    1UNL    H30   66  -0.006  -0.374  -0.034
   0.00000   0.00000   0.00000   0.00000   0.00000   0.00000   0.00000   0.00000   0.00000
Generated with MDTraj, t= 22.0
 66
    1UNL     C1    1  -0.274  -0.449  -0.075
    1UNL     C2    2  -0.228  -0.391   0.034
    1UNL     C3    3  -0.169  -0.252   0.033
    1UNL     C4    4  -0.198  -0.191   0.175
    1UNL     O1    5  -0.166  -0.052   0.198
    1UNL     C5    6  -0.215   0.041   0.097
    1UNL     O2    7  -0.212  -0.007  -0.036
    1UNL     C6    8  -0.270   0.074  -0.135
    1UNL     C7    9  -0.426   0.087  -0.111
    1UNL     O3   10  -0.485  -0.042  -0.107
    1UNL     C8   11  -0.195   0.216  -0.130
    1UNL     O4   12  -0.244   0.307  -0.225
    1UNL     C9   13  -0.208   0.283   0.016
    1UNL     O5   14  -0.340   0.319   0.056
    1UNL    C10   15  -0.147   0.177   0.118
    1UNL     O6   16  -0.010   0.156   0.097
    1UNL     O7   17  -0.143  -0.266   0.278
    1UNL    C11   18  -0.007  -0.281   0.253
    1UNL    C12   19   0.058  -0.274   0.135
    1UNL    C13   20   0.199  -0.264   0.142
    1UNL     O8   21   0.261  -0.285   0.247
    1UNL     N1   22   0.257  -0.224   0.022
    1UNL    C14   23   0.401  -0.200   0.023
    1UNL    C15   24   0.443  -0.069   0.066
    1UNL    C16   25   0.358   0.026  -0.010
    1UNL    C17   26   0.242  -0.013  -0.076
    1UNL     N2   27   0.175   0.102  -0.124
    1UNL    C18   28   0.242   0.213  -0.078
    1UNL    C19   29   0.210   0.345  -0.084
    1UNL    C20   30   0.288   0.439  -0.032
    1UNL    C21   31   0.400   0.401   0.043
    1UNL    C22   32   0.441   0.265   0.061
    1UNL    C23   33   0.360   0.166  -0.006
    1UNL    C24   34   0.187  -0.153  -0.089
    1UNL    C25   35   0.032  -0.151  -0.080
    1UNL    C26   36  -0.014  -0.267   0.005
    1UNL     H1   37  -0.309  -0.550  -0.090
    1UNL     H2   38  -0.291  -0.391  -0.163
    1UNL     H3   39  -0.233  -0.444   0.123
    1UNL     H4   40  -0.217  -0.201  -0.054
    1UNL     H5   41  -0.307  -0.183   0.186
    1UNL     H6   42  -0.322   0.047   0.122
    1UNL     H7   43  -0.260   0.015  -0.233
    1UNL     H8   44  -0.434   0.150  -0.011
    1UNL     H9   45  -0.475   0.157  -0.182
    1UNL    H10   46  -0.436  -0.092  -0.037
    1UNL    H11   47  -0.085   0.211  -0.147
    1UNL    H12   48  -0.318   0.352  -0.179
    1UNL    H13   49  -0.150   0.374   0.013
    1UNL    H14   50  -0.350   0.307   0.153
    1UNL    H15   51  -0.155   0.212   0.215
    1UNL    H16   52   0.012   0.055   0.105
    1UNL    H17   53   0.049  -0.275   0.344
    1UNL    H18   54   0.444  -0.274   0.083
    1UNL    H19   55   0.437  -0.228  -0.080
    1UNL    H20   56   0.559  -0.049   0.049
    1UNL    H21   57   0.413  -0.055   0.173
    1UNL    H22   58   0.092   0.099  -0.175
    1UNL    H23   59   0.116   0.369  -0.140
    1UNL    H24   60   0.262   0.543  -0.030
    1UNL    H25   61   0.458   0.474   0.093
    1UNL    H26   62   0.516   0.236   0.126
    1UNL    H27   63   0.228  -0.204  -0.174
    1UNL    H28   64  -0.009  -0.166  -0.181
    1UNL    H29   65  -0.005  -0.057  -0.046
    1UNL    H30   66   0.000  -0.360  -0.045
   0.00000   0.00000   0.00000   0.00000   0.00000   0.00000   0.00000   0.00000   0.00000
Generated with MDTraj, t= 23.0
 66
    1UNL     C1    1  -0.265  -0.469  -0.056
    1UNL     C2    2  -0.226  -0.400   0.050
    1UNL     C3    3  -0.167  -0.266   0.043
    1UNL     C4    4  -0.194  -0.190   0.166
    1UNL     O1    5  -0.145  -0.059   0.163
    1UNL     C5    6  -0.217   0.025   0.077
    1UNL     O2    7  -0.216  -0.016  -0.062
    1UNL     C6    8  -0.275   0.088  -0.146
    1UNL     C7    9  -0.422   0.116  -0.109
    1UNL     O3   10  -0.502  -0.001  -0.101
    1UNL     C8   11  -0.199   0.225  -0.142
    1UNL     O4   12  -0.265   0.326  -0.216
    1UNL     C9   13  -0.190   0.277   0.005
    1UNL     O5   14  -0.312   0.335   0.043
    1UNL    C10   15  -0.142   0.163   0.103
    1UNL     O6   16  -0.010   0.135   0.085
    1UNL     O7   17  -0.134  -0.258   0.278
    1UNL    C11   18   0.003  -0.277   0.277
    1UNL    C12   19   0.066  -0.287   0.158
    1UNL    C13   20   0.208  -0.268   0.145
    1UNL     O8   21   0.282  -0.304   0.237
    1UNL     N1   22   0.259  -0.213   0.027
    1UNL    C14   23   0.405  -0.206   0.013
    1UNL    C15   24   0.438  -0.058   0.061
    1UNL    C16   25   0.345   0.029  -0.010
    1UNL    C17   26   0.230  -0.004  -0.075
    1UNL     N2   27   0.165   0.105  -0.130
    1UNL    C18   28   0.236   0.214  -0.079
    1UNL    C19   29   0.208   0.347  -0.098
    1UNL    C20   30   0.279   0.432  -0.018
    1UNL    C21   31   0.382   0.392   0.072
    1UNL    C22   32   0.422   0.261   0.079
    1UNL    C23   33   0.342   0.174  -0.000
    1UNL    C24   34   0.180  -0.143  -0.075
    1UNL    C25   35   0.031  -0.169  -0.067
    1UNL    C26   36  -0.009  -0.284   0.027
    1UNL     H1   37  -0.323  -0.561  -0.056
    1UNL     H2   38  -0.275  -0.423  -0.152
    1UNL     H3   39  -0.254  -0.444   0.149
    1UNL     H4   40  -0.215  -0.218  -0.047
    1UNL     H5   41  -0.299  -0.192   0.191
    1UNL     H6   42  -0.322   0.029   0.114
    1UNL     H7   43  -0.272   0.037  -0.251
    1UNL     H8   44  -0.436   0.181  -0.011
    1UNL     H9   45  -0.463   0.190  -0.180
    1UNL    H10   46  -0.450  -0.071  -0.052
    1UNL    H11   47  -0.096   0.223  -0.189
    1UNL    H12   48  -0.338   0.370  -0.156
    1UNL    H13   49  -0.118   0.355   0.001
    1UNL    H14   50  -0.314   0.352   0.142
    1UNL    H15   51  -0.153   0.200   0.200
    1UNL    H16   52   0.005   0.060   0.140
    1UNL    H17   53   0.066  -0.260   0.363
    1UNL    H18   54   0.446  -0.297   0.048
    1UNL    H19   55   0.428  -0.201  -0.096
    1UNL    H20   56   0.544  -0.030   0.024
    1UNL    H21   57   0.431  -0.053   0.176
    1UNL    H22   58   0.077   0.106  -0.172
    1UNL    H23   59   0.127   0.386  -0.148
    1UNL    H24   60   0.252   0.537  -0.024
    1UNL    H25   61   0.415   0.471   0.140
    1UNL    H26   62   0.505   0.216   0.146
    1UNL    H27   63   0.218  -0.192  -0.165
    1UNL    H28   64  -0.007  -0.185  -0.170
    1UNL    H29   65  -0.014  -0.079  -0.042
    1UNL    H30   66   0.003  -0.381  -0.018
   0.00000   0.00000   0.00000   0.00000   0.00000   0.00000   0.00000   0.00000   0.00000
Generated with MDTraj, t= 24.0
 66
    1UNL     C1    1  -0.256  -0.487  -0.039
    1UNL     C2    2  -0.231  -0.400   0.056
    1UNL     C3    3  -0.160  -0.273   0.035
    1UNL     C4    4  -0.189  -0.184   0.159
    1UNL     O1    5  -0.119  -0.054   0.154
    1UNL     C5    6  -0.200   0.039   0.089
    1UNL     O2    7  -0.232  -0.002  -0.050
    1UNL     C6    8  -0.287   0.098  -0.134
    1UNL     C7    9  -0.432   0.114  -0.104
    1UNL     O3   10  -0.507  -0.003  -0.103
    1UNL     C8   11  -0.198   0.222  -0.141
    1UNL     O4   12  -0.254   0.324  -0.220
    1UNL     C9   13  -0.184   0.285   0.002
    1UNL     O5   14  -0.308   0.347   0.035
    1UNL    C10   15  -0.132   0.179   0.109
    1UNL     O6   16   0.002   0.171   0.099
    1UNL     O7   17  -0.143  -0.264   0.271
    1UNL    C11   18  -0.010  -0.289   0.252
    1UNL    C12   19   0.061  -0.289   0.135
    1UNL    C13   20   0.203  -0.268   0.146
    1UNL     O8   21   0.278  -0.310   0.235
    1UNL     N1   22   0.261  -0.223   0.031
    1UNL    C14   23   0.413  -0.207   0.027
    1UNL    C15   24   0.448  -0.061   0.070
    1UNL    C16   25   0.345   0.032   0.009
    1UNL    C17   26   0.238  -0.016  -0.074
    1UNL     N2   27   0.167   0.093  -0.119
    1UNL    C18   28   0.221   0.203  -0.062
    1UNL    C19   29   0.176   0.331  -0.076
    1UNL    C20   30   0.258   0.428  -0.023
    1UNL    C21   31   0.378   0.401   0.045
    1UNL    C22   32   0.419   0.276   0.066
    1UNL    C23   33   0.338   0.172   0.016
    1UNL    C24   34   0.189  -0.158  -0.081
    1UNL    C25   35   0.034  -0.177  -0.093
    1UNL    C26   36  -0.012  -0.290   0.003
    1UNL     H1   37  -0.291  -0.582  -0.005
    1UNL     H2   38  -0.260  -0.469  -0.145
    1UNL     H3   39  -0.262  -0.417   0.154
    1UNL     H4   40  -0.208  -0.209  -0.044
    1UNL     H5   41  -0.295  -0.175   0.171
    1UNL     H6   42  -0.293   0.032   0.151
    1UNL     H7   43  -0.273   0.044  -0.237
    1UNL     H8   44  -0.450   0.175  -0.005
    1UNL     H9   45  -0.481   0.184  -0.170
    1UNL    H10   46  -0.468  -0.073  -0.052
    1UNL    H11   47  -0.101   0.196  -0.194
    1UNL    H12   48  -0.329   0.362  -0.179
    1UNL    H13   49  -0.108   0.356  -0.002
    1UNL    H14   50  -0.291   0.411   0.108
    1UNL    H15   51  -0.151   0.218   0.208
    1UNL    H16   52   0.021   0.084   0.152
    1UNL    H17   53   0.051  -0.299   0.343
    1UNL    H18   54   0.464  -0.276   0.087
    1UNL    H19   55   0.443  -0.230  -0.077
    1UNL    H20   56   0.554  -0.035   0.044
    1UNL    H21   57   0.434  -0.053   0.188
    1UNL    H22   58   0.091   0.100  -0.183
    1UNL    H23   59   0.078   0.346  -0.129
    1UNL    H24   60   0.229   0.531  -0.034
    1UNL    H25   61   0.453   0.474   0.075
    1UNL    H26   62   0.512   0.257   0.108
    1UNL    H27   63   0.236  -0.204  -0.170
    1UNL    H28   64  -0.006  -0.184  -0.196
    1UNL    H29   65  -0.009  -0.085  -0.066
    1UNL    H30   66   0.018  -0.382  -0.047
   0.00000   0.00000   0.00000   0.00000   0.00000   0.00000   0.00000   0.00000   0.00000
Generated with MDTraj, t= 25.0
 66
    1UNL     C1    1  -0.232  -0.468  -0.083
    1UNL     C2    2  -0.245  -0.406   0.032
    1UNL     C3    3  -0.172  -0.275   0.046
    1UNL     C4    4  -0.197  -0.194   0.177
    1UNL     O1    5  -0.154  -0.054   0.165
    1UNL     C5    6  -0.217   0.037   0.081
    1UNL     O2    7  -0.205   0.003  -0.061
    1UNL     C6    8  -0.272   0.102  -0.140
    1UNL     C7    9  -0.421   0.116  -0.098
    1UNL     O3   10  -0.474  -0.005  -0.073
    1UNL     C8   11  -0.196   0.237  -0.139
    1UNL     O4   12  -0.243   0.343  -0.220
    1UNL     C9   13  -0.202   0.282   0.008
    1UNL     O5   14  -0.328   0.340   0.039
    1UNL    C10   15  -0.154   0.173   0.108
    1UNL     O6   16  -0.017   0.167   0.114
    1UNL     O7   17  -0.133  -0.264   0.290
    1UNL    C11   18   0.001  -0.285   0.271
    1UNL    C12   19   0.063  -0.288   0.150
    1UNL    C13   20   0.205  -0.283   0.145
    1UNL     O8   21   0.277  -0.329   0.230
    1UNL     N1   22   0.265  -0.220   0.041
    1UNL    C14   23   0.411  -0.194   0.044
    1UNL    C15   24   0.447  -0.055   0.074
    1UNL    C16   25   0.351   0.029  -0.012
    1UNL    C17   26   0.238  -0.016  -0.084
    1UNL     N2   27   0.168   0.084  -0.136
    1UNL    C18   28   0.234   0.202  -0.087
    1UNL    C19   29   0.180   0.334  -0.095
    1UNL    C20   30   0.259   0.429  -0.034
    1UNL    C21   31   0.375   0.399   0.042
    1UNL    C22   32   0.419   0.271   0.061
    1UNL    C23   33   0.351   0.170  -0.011
    1UNL    C24   34   0.186  -0.163  -0.080
    1UNL    C25   35   0.033  -0.177  -0.077
    1UNL    C26   36  -0.018  -0.284   0.019
    1UNL     H1   37  -0.286  -0.559  -0.102
    1UNL     H2   38  -0.175  -0.430  -0.166
    1UNL     H3   39  -0.316  -0.437   0.113
    1UNL     H4   40  -0.228  -0.212  -0.029
    1UNL     H5   41  -0.302  -0.204   0.196
    1UNL     H6   42  -0.325   0.037   0.115
    1UNL     H7   43  -0.255   0.065  -0.250
    1UNL     H8   44  -0.435   0.182  -0.004
    1UNL     H9   45  -0.482   0.168  -0.167
    1UNL    H10   46  -0.402  -0.074  -0.061
    1UNL    H11   47  -0.087   0.221  -0.166
    1UNL    H12   48  -0.332   0.371  -0.186
    1UNL    H13   49  -0.136   0.360   0.020
    1UNL    H14   50  -0.326   0.411   0.105
    1UNL    H15   51  -0.186   0.213   0.206
    1UNL    H16   52   0.007   0.081   0.146
    1UNL    H17   53   0.055  -0.280   0.366
    1UNL    H18   54   0.453  -0.261   0.115
    1UNL    H19   55   0.455  -0.221  -0.052
    1UNL    H20   56   0.554  -0.042   0.049
    1UNL    H21   57   0.432  -0.043   0.192
    1UNL    H22   58   0.064   0.081  -0.134
    1UNL    H23   59   0.094   0.355  -0.154
    1UNL    H24   60   0.235   0.535  -0.043
    1UNL    H25   61   0.435   0.482   0.071
    1UNL    H26   62   0.509   0.245   0.111
    1UNL    H27   63   0.212  -0.221  -0.174
    1UNL    H28   64  -0.003  -0.197  -0.178
    1UNL    H29   65  -0.027  -0.088  -0.061
    1UNL    H30   66   0.007  -0.380  -0.029
   0.00000   0.00000   0.00000   0.00000   0.00000   0.00000   0.00000   0.00000   0.00000
Generated with MDTraj, t= 26.0
 66
    1UNL     C1    1  -0.260  -0.446  -0.102
    1UNL     C2    2  -0.235  -0.392   0.014
    1UNL     C3    3  -0.172  -0.254   0.029
    1UNL     C4    4  -0.198  -0.186   0.167
    1UNL     O1    5  -0.157  -0.053   0.184
    1UNL     C5    6  -0.216   0.043   0.101
    1UNL     O2    7  -0.207  -0.001  -0.037
    1UNL     C6    8  -0.257   0.089  -0.123
    1UNL     C7    9  -0.412   0.092  -0.118
    1UNL     O3   10  -0.468  -0.035  -0.109
    1UNL     C8   11  -0.186   0.231  -0.120
    1UNL     O4   12  -0.248   0.322  -0.211
    1UNL     C9   13  -0.200   0.283   0.030
    1UNL     O5   14  -0.335   0.310   0.067
    1UNL    C10   15  -0.144   0.177   0.129
    1UNL     O6   16  -0.001   0.168   0.125
    1UNL     O7   17  -0.154  -0.271   0.274
    1UNL    C11   18  -0.022  -0.293   0.263
    1UNL    C12   19   0.049  -0.286   0.148
    1UNL    C13   20   0.197  -0.276   0.148
    1UNL     O8   21   0.259  -0.315   0.248
    1UNL     N1   22   0.263  -0.215   0.042
    1UNL    C14   23   0.411  -0.208   0.048
    1UNL    C15   24   0.450  -0.058   0.064
    1UNL    C16   25   0.362   0.031  -0.021
    1UNL    C17   26   0.243  -0.013  -0.076
    1UNL     N2   27   0.169   0.090  -0.134
    1UNL    C18   28   0.235   0.202  -0.096
    1UNL    C19   29   0.197   0.330  -0.120
    1UNL    C20   30   0.274   0.433  -0.070
    1UNL    C21   31   0.380   0.401   0.018
    1UNL    C22   32   0.410   0.275   0.056
    1UNL    C23   33   0.350   0.173  -0.021
    1UNL    C24   34   0.192  -0.151  -0.069
    1UNL    C25   35   0.040  -0.150  -0.056
    1UNL    C26   36  -0.018  -0.267   0.014
    1UNL     H1   37  -0.298  -0.546  -0.116
    1UNL     H2   38  -0.234  -0.385  -0.186
    1UNL     H3   39  -0.250  -0.454   0.099
    1UNL     H4   40  -0.227  -0.190  -0.045
    1UNL     H5   41  -0.307  -0.191   0.186
    1UNL     H6   42  -0.325   0.045   0.132
    1UNL     H7   43  -0.230   0.040  -0.227
    1UNL     H8   44  -0.449   0.153  -0.029
    1UNL     H9   45  -0.451   0.137  -0.204
    1UNL    H10   46  -0.419  -0.091  -0.046
    1UNL    H11   47  -0.075   0.221  -0.143
    1UNL    H12   48  -0.337   0.356  -0.174
    1UNL    H13   49  -0.149   0.372   0.037
    1UNL    H14   50  -0.337   0.366   0.148
    1UNL    H15   51  -0.167   0.207   0.234
    1UNL    H16   52   0.030   0.080   0.168
    1UNL    H17   53   0.026  -0.282   0.359
    1UNL    H18   54   0.453  -0.273   0.123
    1UNL    H19   55   0.442  -0.254  -0.043
    1UNL    H20   56   0.552  -0.044   0.025
    1UNL    H21   57   0.443  -0.016   0.170
    1UNL    H22   58   0.070   0.074  -0.166
    1UNL    H23   59   0.108   0.345  -0.176
    1UNL    H24   60   0.241   0.530  -0.099
    1UNL    H25   61   0.430   0.490   0.064
    1UNL    H26   62   0.492   0.256   0.134
    1UNL    H27   63   0.205  -0.212  -0.165
    1UNL    H28   64  -0.018  -0.127  -0.143
    1UNL    H29   65   0.019  -0.057   0.004
    1UNL    H30   66   0.007  -0.356  -0.046
   0.00000   0.00000   0.00000   0.00000   0.00000   0.00000   0.00000   0.00000   0.00000
Generated with MDTraj, t= 27.0
 66
    1UNL     C1    1  -0.310  -0.414  -0.103
    1UNL     C2    2  -0.254  -0.383   0.014
    1UNL     C3    3  -0.168  -0.261   0.036
    1UNL     C4    4  -0.206  -0.203   0.176
    1UNL     O1    5  -0.148  -0.072   0.191
    1UNL     C5    6  -0.208   0.021   0.107
    1UNL     O2    7  -0.187  -0.005  -0.035
    1UNL     C6    8  -0.246   0.087  -0.125
    1UNL     C7    9  -0.402   0.091  -0.119
    1UNL     O3   10  -0.451  -0.041  -0.157
    1UNL     C8   11  -0.185   0.232  -0.100
    1UNL     O4   12  -0.254   0.326  -0.179
    1UNL     C9   13  -0.211   0.269   0.053
    1UNL     O5   14  -0.345   0.303   0.078
    1UNL    C10   15  -0.151   0.156   0.139
    1UNL     O6   16  -0.011   0.140   0.113
    1UNL     O7   17  -0.159  -0.294   0.279
    1UNL    C11   18  -0.022  -0.307   0.265
    1UNL    C12   19   0.047  -0.285   0.152
    1UNL    C13   20   0.191  -0.261   0.166
    1UNL     O8   21   0.254  -0.276   0.274
    1UNL     N1   22   0.251  -0.211   0.047
    1UNL    C14   23   0.398  -0.188   0.053
    1UNL    C15   24   0.420  -0.042   0.087
    1UNL    C16   25   0.348   0.040  -0.009
    1UNL    C17   26   0.240  -0.005  -0.079
    1UNL     N2   27   0.181   0.102  -0.146
    1UNL    C18   28   0.248   0.220  -0.114
    1UNL    C19   29   0.217   0.355  -0.134
    1UNL    C20   30   0.302   0.447  -0.089
    1UNL    C21   31   0.416   0.415  -0.007
    1UNL    C22   32   0.437   0.278   0.020
    1UNL    C23   33   0.356   0.176  -0.038
    1UNL    C24   34   0.189  -0.151  -0.072
    1UNL    C25   35   0.035  -0.176  -0.076
    1UNL    C26   36  -0.019  -0.287   0.016
    1UNL     H1   37  -0.375  -0.500  -0.112
    1UNL     H2   38  -0.281  -0.364  -0.193
    1UNL     H3   39  -0.264  -0.454   0.097
    1UNL     H4   40  -0.200  -0.189  -0.046
    1UNL     H5   41  -0.319  -0.195   0.190
    1UNL     H6   42  -0.317   0.026   0.130
    1UNL     H7   43  -0.226   0.048  -0.236
    1UNL     H8   44  -0.428   0.104  -0.010
    1UNL     H9   45  -0.444   0.166  -0.179
    1UNL    H10   46  -0.383  -0.103  -0.136
    1UNL    H11   47  -0.072   0.228  -0.120
    1UNL    H12   48  -0.328   0.361  -0.135
    1UNL    H13   49  -0.158   0.356   0.068
    1UNL    H14   50  -0.358   0.285   0.176
    1UNL    H15   51  -0.161   0.181   0.250
    1UNL    H16   52   0.022   0.053   0.143
    1UNL    H17   53   0.039  -0.323   0.353
    1UNL    H18   54   0.432  -0.261   0.126
    1UNL    H19   55   0.448  -0.211  -0.037
    1UNL    H20   56   0.527  -0.008   0.092
    1UNL    H21   57   0.369  -0.023   0.181
    1UNL    H22   58   0.103   0.116  -0.218
    1UNL    H23   59   0.118   0.396  -0.169
    1UNL    H24   60   0.272   0.552  -0.083
    1UNL    H25   61   0.472   0.490   0.040
    1UNL    H26   62   0.499   0.251   0.095
    1UNL    H27   63   0.232  -0.193  -0.170
    1UNL    H28   64   0.004  -0.178  -0.178
    1UNL    H29   65  -0.013  -0.080  -0.037
    1UNL    H30   66  -0.006  -0.380  -0.042
   0.00000   0.00000   0.00000   0.00000   0.00000   0.00000   0.00000   0.00000   0.00000
Generated with MDTraj, t= 28.0
 66
    1UNL     C1    1  -0.329  -0.417  -0.088
    1UNL     C2    2  -0.224  -0.406  -0.003
    1UNL     C3    3  -0.163  -0.272   0.020
    1UNL     C4    4  -0.217  -0.223   0.160
    1UNL     O1    5  -0.170  -0.087   0.186
    1UNL     C5    6  -0.214   0.012   0.097
    1UNL     O2    7  -0.196  -0.008  -0.049
    1UNL     C6    8  -0.246   0.101  -0.124
    1UNL     C7    9  -0.395   0.101  -0.150
    1UNL     O3   10  -0.441  -0.036  -0.163
    1UNL     C8   11  -0.187   0.245  -0.082
    1UNL     O4   12  -0.249   0.355  -0.145
    1UNL     C9   13  -0.210   0.265   0.071
    1UNL     O5   14  -0.350   0.286   0.093
    1UNL    C10   15  -0.151   0.144   0.148
    1UNL     O6   16  -0.010   0.136   0.133
    1UNL     O7   17  -0.163  -0.305   0.262
    1UNL    C11   18  -0.025  -0.299   0.275
    1UNL    C12   19   0.049  -0.271   0.159
    1UNL    C13   20   0.194  -0.249   0.173
    1UNL     O8   21   0.251  -0.268   0.283
    1UNL     N1   22   0.257  -0.214   0.054
    1UNL    C14   23   0.397  -0.192   0.051
    1UNL    C15   24   0.428  -0.043   0.082
    1UNL    C16   25   0.335   0.051   0.019
    1UNL    C17   26   0.233   0.003  -0.060
    1UNL     N2   27   0.172   0.096  -0.142
    1UNL    C18   28   0.232   0.208  -0.101
    1UNL    C19   29   0.227   0.335  -0.170
    1UNL    C20   30   0.327   0.435  -0.144
    1UNL    C21   31   0.427   0.408  -0.052
    1UNL    C22   32   0.437   0.293   0.019
    1UNL    C23   33   0.339   0.189  -0.005
    1UNL    C24   34   0.195  -0.140  -0.061
    1UNL    C25   35   0.039  -0.157  -0.070
    1UNL    C26   36  -0.015  -0.271   0.020
    1UNL     H1   37  -0.379  -0.508  -0.109
    1UNL     H2   38  -0.351  -0.339  -0.160
    1UNL     H3   39  -0.177  -0.490   0.046
    1UNL     H4   40  -0.198  -0.206  -0.066
    1UNL     H5   41  -0.331  -0.213   0.164
    1UNL     H6   42  -0.324   0.024   0.111
    1UNL     H7   43  -0.210   0.082  -0.237
    1UNL     H8   44  -0.444   0.144  -0.058
    1UNL     H9   45  -0.411   0.156  -0.238
    1UNL    H10   46  -0.364  -0.095  -0.144
    1UNL    H11   47  -0.075   0.242  -0.097
    1UNL    H12   48  -0.332   0.381  -0.090
    1UNL    H13   49  -0.164   0.356   0.090
    1UNL    H14   50  -0.374   0.239   0.177
    1UNL    H15   51  -0.175   0.156   0.261
    1UNL    H16   52   0.022   0.052   0.161
    1UNL    H17   53   0.026  -0.340   0.363
    1UNL    H18   54   0.449  -0.254   0.126
    1UNL    H19   55   0.429  -0.221  -0.043
    1UNL    H20   56   0.533  -0.018   0.048
    1UNL    H21   57   0.418  -0.033   0.184
    1UNL    H22   58   0.075   0.106  -0.188
    1UNL    H23   59   0.148   0.349  -0.236
    1UNL    H24   60   0.331   0.526  -0.199
    1UNL    H25   61   0.509   0.484  -0.048
    1UNL    H26   62   0.525   0.277   0.084
    1UNL    H27   63   0.245  -0.189  -0.151
    1UNL    H28   64   0.005  -0.172  -0.170
    1UNL    H29   65  -0.011  -0.063  -0.028
    1UNL    H30   66   0.006  -0.365  -0.036
   0.00000   0.00000   0.00000   0.00000   0.00000   0.00000   0.00000   0.00000   0.00000
Generated with MDTraj, t= 29.0
 66
    1UNL     C1    1  -0.344  -0.448  -0.058
    1UNL     C2    2  -0.220  -0.427  -0.016
    1UNL     C3    3  -0.164  -0.288   0.004
    1UNL     C4    4  -0.210  -0.240   0.147
    1UNL     O1    5  -0.179  -0.103   0.178
    1UNL     C5    6  -0.226   0.016   0.101
    1UNL     O2    7  -0.204  -0.000  -0.044
    1UNL     C6    8  -0.242   0.111  -0.122
    1UNL     C7    9  -0.393   0.108  -0.135
    1UNL     O3   10  -0.447  -0.015  -0.168
    1UNL     C8   11  -0.182   0.251  -0.067
    1UNL     O4   12  -0.228   0.358  -0.138
    1UNL     C9   13  -0.218   0.270   0.082
    1UNL     O5   14  -0.357   0.297   0.091
    1UNL    C10   15  -0.170   0.146   0.164
    1UNL     O6   16  -0.033   0.143   0.175
    1UNL     O7   17  -0.161  -0.321   0.248
    1UNL    C11   18  -0.030  -0.314   0.258
    1UNL    C12   19   0.047  -0.290   0.145
    1UNL    C13   20   0.187  -0.255   0.173
    1UNL     O8   21   0.228  -0.282   0.288
    1UNL     N1   22   0.261  -0.196   0.075
    1UNL    C14   23   0.401  -0.172   0.101
    1UNL    C15   24   0.430  -0.013   0.106
    1UNL    C16   25   0.349   0.054  -0.002
    1UNL    C17   26   0.240   0.004  -0.073
    1UNL     N2   27   0.178   0.100  -0.142
    1UNL    C18   28   0.256   0.216  -0.133
    1UNL    C19   29   0.236   0.347  -0.186
    1UNL    C20   30   0.317   0.447  -0.146
    1UNL    C21   31   0.431   0.412  -0.068
    1UNL    C22   32   0.453   0.286  -0.021
    1UNL    C23   33   0.367   0.185  -0.047
    1UNL    C24   34   0.193  -0.144  -0.054
    1UNL    C25   35   0.042  -0.159  -0.062
    1UNL    C26   36  -0.007  -0.288   0.003
    1UNL     H1   37  -0.377  -0.548  -0.072
    1UNL     H2   38  -0.402  -0.366  -0.098
    1UNL     H3   39  -0.158  -0.511   0.004
    1UNL     H4   40  -0.197  -0.224  -0.083
    1UNL     H5   41  -0.324  -0.250   0.159
    1UNL     H6   42  -0.336   0.020   0.112
    1UNL     H7   43  -0.206   0.103  -0.235
    1UNL     H8   44  -0.423   0.134  -0.030
    1UNL     H9   45  -0.428   0.178  -0.204
    1UNL    H10   46  -0.374  -0.084  -0.169
    1UNL    H11   47  -0.070   0.247  -0.069
    1UNL    H12   48  -0.317   0.380  -0.106
    1UNL    H13   49  -0.170   0.356   0.116
    1UNL    H14   50  -0.365   0.370   0.153
    1UNL    H15   51  -0.213   0.146   0.273
    1UNL    H16   52   0.002   0.047   0.193
    1UNL    H17   53   0.008  -0.350   0.355
    1UNL    H18   54   0.429  -0.222   0.197
    1UNL    H19   55   0.461  -0.218   0.030
    1UNL    H20   56   0.538   0.005   0.083
    1UNL    H21   57   0.411   0.031   0.197
    1UNL    H22   58   0.097   0.076  -0.210
    1UNL    H23   59   0.152   0.371  -0.254
    1UNL    H24   60   0.309   0.544  -0.194
    1UNL    H25   61   0.508   0.482  -0.054
    1UNL    H26   62   0.550   0.256   0.025
    1UNL    H27   63   0.243  -0.199  -0.139
    1UNL    H28   64   0.009  -0.162  -0.165
    1UNL    H29   65  -0.008  -0.075  -0.008
    1UNL    H30   66   0.030  -0.374  -0.058
   0.00000   0.00000   0.00000   0.00000   0.00000   0.00000   0.00000   0.00000   0.00000
Generated with MDTraj, t= 30.0
 66
    1UNL     C1    1  -0.345  -0.442  -0.046
    1UNL     C2    2  -0.215  -0.422  -0.034
    1UNL     C3    3  -0.163  -0.283  -0.000
    1UNL     C4    4  -0.225  -0.242   0.139
    1UNL     O1    5  -0.194  -0.107   0.177
    1UNL     C5    6  -0.239   0.002   0.095
    1UNL     O2    7  -0.189  -0.005  -0.039
    1UNL     C6    8  -0.240   0.107  -0.118
    1UNL     C7    9  -0.391   0.118  -0.124
    1UNL     O3   10  -0.452   0.002  -0.156
    1UNL     C8   11  -0.173   0.237  -0.064
    1UNL     O4   12  -0.210   0.345  -0.134
    1UNL     C9   13  -0.217   0.260   0.085
    1UNL     O5   14  -0.351   0.294   0.090
    1UNL    C10   15  -0.189   0.129   0.169
    1UNL     O6   16  -0.058   0.118   0.207
    1UNL     O7   17  -0.170  -0.330   0.240
    1UNL    C11   18  -0.040  -0.314   0.247
    1UNL    C12   19   0.038  -0.284   0.142
    1UNL    C13   20   0.184  -0.263   0.171
    1UNL     O8   21   0.227  -0.310   0.279
    1UNL     N1   22   0.257  -0.180   0.094
    1UNL    C14   23   0.393  -0.149   0.127
    1UNL    C15   24   0.446  -0.005   0.095
    1UNL    C16   25   0.363   0.059  -0.011
    1UNL    C17   26   0.255   0.002  -0.073
    1UNL     N2   27   0.191   0.095  -0.156
    1UNL    C18   28   0.264   0.211  -0.149
    1UNL    C19   29   0.240   0.333  -0.208
    1UNL    C20   30   0.322   0.436  -0.168
    1UNL    C21   31   0.424   0.427  -0.071
    1UNL    C22   32   0.456   0.300  -0.033
    1UNL    C23   33   0.374   0.189  -0.067
    1UNL    C24   34   0.198  -0.136  -0.037
    1UNL    C25   35   0.048  -0.129  -0.039
    1UNL    C26   36  -0.005  -0.266   0.003
    1UNL     H1   37  -0.379  -0.541  -0.074
    1UNL     H2   38  -0.414  -0.361  -0.034
    1UNL     H3   39  -0.148  -0.505  -0.059
    1UNL     H4   40  -0.200  -0.215  -0.081
    1UNL     H5   41  -0.338  -0.255   0.149
    1UNL     H6   42  -0.349   0.009   0.088
    1UNL     H7   43  -0.207   0.094  -0.233
    1UNL     H8   44  -0.434   0.145  -0.024
    1UNL     H9   45  -0.422   0.197  -0.188
    1UNL    H10   46  -0.388  -0.070  -0.159
    1UNL    H11   47  -0.065   0.225  -0.076
    1UNL    H12   48  -0.301   0.375  -0.114
    1UNL    H13   49  -0.167   0.343   0.126
    1UNL    H14   50  -0.369   0.318   0.183
    1UNL    H15   51  -0.251   0.140   0.266
    1UNL    H16   52  -0.038   0.035   0.248
    1UNL    H17   53   0.003  -0.320   0.346
    1UNL    H18   54   0.395  -0.159   0.239
    1UNL    H19   55   0.457  -0.224   0.095
    1UNL    H20   56   0.548  -0.010   0.058
    1UNL    H21   57   0.449   0.061   0.176
    1UNL    H22   58   0.109   0.050  -0.209
    1UNL    H23   59   0.164   0.338  -0.283
    1UNL    H24   60   0.296   0.534  -0.199
    1UNL    H25   61   0.487   0.512  -0.037
    1UNL    H26   62   0.535   0.289   0.029
    1UNL    H27   63   0.234  -0.208  -0.113
    1UNL    H28   64   0.010  -0.094  -0.137
    1UNL    H29   65   0.018  -0.058   0.037
    1UNL    H30   66   0.039  -0.344  -0.063
   0.00000   0.00000   0.00000   0.00000   0.00000   0.00000   0.00000   0.00000   0.00000
Generated with MDTraj, t= 31.0
 66
    1UNL     C1    1  -0.329  -0.425  -0.071
    1UNL     C2    2  -0.198  -0.395  -0.063
    1UNL     C3    3  -0.154  -0.274   0.008
    1UNL     C4    4  -0.230  -0.248   0.143
    1UNL     O1    5  -0.208  -0.111   0.195
    1UNL     C5    6  -0.260  -0.004   0.113
    1UNL     O2    7  -0.205  -0.013  -0.018
    1UNL     C6    8  -0.240   0.103  -0.099
    1UNL     C7    9  -0.385   0.109  -0.130
    1UNL     O3   10  -0.448  -0.012  -0.159
    1UNL     C8   11  -0.168   0.233  -0.054
    1UNL     O4   12  -0.187   0.339  -0.141
    1UNL     C9   13  -0.214   0.260   0.098
    1UNL     O5   14  -0.339   0.314   0.096
    1UNL    C10   15  -0.193   0.121   0.178
    1UNL     O6   16  -0.052   0.113   0.195
    1UNL     O7   17  -0.182  -0.347   0.238
    1UNL    C11   18  -0.048  -0.337   0.251
    1UNL    C12   19   0.038  -0.283   0.158
    1UNL    C13   20   0.178  -0.259   0.178
    1UNL     O8   21   0.233  -0.307   0.281
    1UNL     N1   22   0.255  -0.181   0.093
    1UNL    C14   23   0.399  -0.154   0.108
    1UNL    C15   24   0.423  -0.006   0.106
    1UNL    C16   25   0.350   0.071   0.001
    1UNL    C17   26   0.249   0.010  -0.072
    1UNL     N2   27   0.201   0.095  -0.172
    1UNL    C18   28   0.263   0.216  -0.150
    1UNL    C19   29   0.256   0.331  -0.237
    1UNL    C20   30   0.333   0.439  -0.201
    1UNL    C21   31   0.434   0.423  -0.102
    1UNL    C22   32   0.444   0.311  -0.021
    1UNL    C23   33   0.359   0.208  -0.047
    1UNL    C24   34   0.199  -0.128  -0.040
    1UNL    C25   35   0.044  -0.135  -0.041
    1UNL    C26   36  -0.009  -0.263   0.025
    1UNL     H1   37  -0.367  -0.517  -0.109
    1UNL     H2   38  -0.405  -0.360  -0.032
    1UNL     H3   39  -0.125  -0.457  -0.105
    1UNL     H4   40  -0.187  -0.197  -0.064
    1UNL     H5   41  -0.342  -0.250   0.136
    1UNL     H6   42  -0.370  -0.003   0.114
    1UNL     H7   43  -0.190   0.073  -0.204
    1UNL     H8   44  -0.438   0.156  -0.045
    1UNL     H9   45  -0.412   0.181  -0.208
    1UNL    H10   46  -0.391  -0.072  -0.213
    1UNL    H11   47  -0.063   0.213  -0.063
    1UNL    H12   48  -0.282   0.376  -0.137
    1UNL    H13   49  -0.149   0.330   0.142
    1UNL    H14   50  -0.392   0.287   0.177
    1UNL    H15   51  -0.233   0.128   0.284
    1UNL    H16   52  -0.027   0.019   0.229
    1UNL    H17   53  -0.014  -0.352   0.352
    1UNL    H18   54   0.440  -0.204   0.200
    1UNL    H19   55   0.448  -0.193   0.024
    1UNL    H20   56   0.523   0.017   0.105
    1UNL    H21   57   0.385   0.024   0.201
    1UNL    H22   58   0.107   0.084  -0.224
    1UNL    H23   59   0.184   0.343  -0.315
    1UNL    H24   60   0.316   0.540  -0.238
    1UNL    H25   61   0.488   0.511  -0.080
    1UNL    H26   62   0.521   0.299   0.064
    1UNL    H27   63   0.236  -0.199  -0.115
    1UNL    H28   64  -0.003  -0.120  -0.143
    1UNL    H29   65   0.006  -0.052   0.011
    1UNL    H30   66   0.025  -0.350  -0.038
   0.00000   0.00000   0.00000   0.00000   0.00000   0.00000   0.00000   0.00000   0.00000
Generated with MDTraj, t= 32.0
 66
    1UNL     C1    1  -0.330  -0.416  -0.117
    1UNL     C2    2  -0.234  -0.413  -0.020
    1UNL     C3    3  -0.170  -0.281   0.018
    1UNL     C4    4  -0.221  -0.249   0.160
    1UNL     O1    5  -0.172  -0.116   0.190
    1UNL     C5    6  -0.235  -0.006   0.113
    1UNL     O2    7  -0.202  -0.014  -0.025
    1UNL     C6    8  -0.235   0.102  -0.110
    1UNL     C7    9  -0.382   0.116  -0.132
    1UNL     O3   10  -0.455  -0.002  -0.159
    1UNL     C8   11  -0.163   0.227  -0.053
    1UNL     O4   12  -0.195   0.343  -0.122
    1UNL     C9   13  -0.211   0.245   0.092
    1UNL     O5   14  -0.341   0.283   0.097
    1UNL    C10   15  -0.172   0.118   0.176
    1UNL     O6   16  -0.034   0.094   0.215
    1UNL     O7   17  -0.181  -0.348   0.251
    1UNL    C11   18  -0.041  -0.341   0.249
    1UNL    C12   19   0.039  -0.292   0.147
    1UNL    C13   20   0.172  -0.245   0.171
    1UNL     O8   21   0.221  -0.262   0.288
    1UNL     N1   22   0.246  -0.180   0.071
    1UNL    C14   23   0.380  -0.130   0.107
    1UNL    C15   24   0.378   0.022   0.134
    1UNL    C16   25   0.323   0.077   0.007
    1UNL    C17   26   0.235   0.010  -0.070
    1UNL     N2   27   0.203   0.094  -0.173
    1UNL    C18   28   0.268   0.219  -0.164
    1UNL    C19   29   0.274   0.339  -0.240
    1UNL    C20   30   0.365   0.435  -0.211
    1UNL    C21   31   0.454   0.420  -0.101
    1UNL    C22   32   0.448   0.314  -0.012
    1UNL    C23   33   0.357   0.208  -0.050
    1UNL    C24   34   0.191  -0.133  -0.052
    1UNL    C25   35   0.043  -0.143  -0.056
    1UNL    C26   36  -0.015  -0.278   0.009
    1UNL     H1   37  -0.392  -0.503  -0.129
    1UNL     H2   38  -0.371  -0.333  -0.175
    1UNL     H3   39  -0.226  -0.492   0.059
    1UNL     H4   40  -0.210  -0.209  -0.052
    1UNL     H5   41  -0.331  -0.249   0.161
    1UNL     H6   42  -0.343  -0.008   0.131
    1UNL     H7   43  -0.183   0.080  -0.215
    1UNL     H8   44  -0.428   0.164  -0.044
    1UNL     H9   45  -0.402   0.200  -0.204
    1UNL    H10   46  -0.409  -0.076  -0.108
    1UNL    H11   47  -0.056   0.218  -0.050
    1UNL    H12   48  -0.281   0.369  -0.096
    1UNL    H13   49  -0.159   0.330   0.130
    1UNL    H14   50  -0.392   0.263   0.180
    1UNL    H15   51  -0.221   0.125   0.274
    1UNL    H16   52  -0.025   0.001   0.233
    1UNL    H17   53   0.004  -0.362   0.347
    1UNL    H18   54   0.420  -0.185   0.197
    1UNL    H19   55   0.441  -0.151   0.022
    1UNL    H20   56   0.470   0.056   0.159
    1UNL    H21   57   0.310   0.047   0.213
    1UNL    H22   58   0.160   0.076  -0.270
    1UNL    H23   59   0.194   0.347  -0.318
    1UNL    H24   60   0.368   0.524  -0.270
    1UNL    H25   61   0.532   0.491  -0.071
    1UNL    H26   62   0.508   0.316   0.078
    1UNL    H27   63   0.235  -0.190  -0.132
    1UNL    H28   64   0.014  -0.133  -0.166
    1UNL    H29   65  -0.010  -0.063  -0.016
    1UNL    H30   66   0.020  -0.360  -0.060
   0.00000   0.00000   0.00000   0.00000   0.00000   0.00000   0.00000   0.00000   0.00000
Generated with MDTraj, t= 33.0
 66
    1UNL     C1    1  -0.279  -0.439  -0.157
    1UNL     C2    2  -0.224  -0.418  -0.039
    1UNL     C3    3  -0.175  -0.281   0.005
    1UNL     C4    4  -0.231  -0.241   0.144
    1UNL     O1    5  -0.189  -0.116   0.201
    1UNL     C5    6  -0.228   0.000   0.122
    1UNL     O2    7  -0.197  -0.005  -0.015
    1UNL     C6    8  -0.241   0.107  -0.089
    1UNL     C7    9  -0.387   0.110  -0.102
    1UNL     O3   10  -0.432  -0.014  -0.152
    1UNL     C8   11  -0.167   0.236  -0.044
    1UNL     O4   12  -0.202   0.349  -0.124
    1UNL     C9   13  -0.202   0.261   0.106
    1UNL     O5   14  -0.336   0.292   0.119
    1UNL    C10   15  -0.154   0.123   0.177
    1UNL     O6   16  -0.013   0.093   0.169
    1UNL     O7   17  -0.184  -0.335   0.237
    1UNL    C11   18  -0.043  -0.320   0.250
    1UNL    C12   19   0.038  -0.277   0.150
    1UNL    C13   20   0.172  -0.235   0.173
    1UNL     O8   21   0.222  -0.262   0.285
    1UNL     N1   22   0.247  -0.177   0.075
    1UNL    C14   23   0.383  -0.129   0.118
    1UNL    C15   24   0.377   0.029   0.132
    1UNL    C16   25   0.306   0.078   0.013
    1UNL    C17   26   0.220   0.006  -0.070
    1UNL     N2   27   0.194   0.089  -0.179
    1UNL    C18   28   0.270   0.199  -0.170
    1UNL    C19   29   0.287   0.306  -0.256
    1UNL    C20   30   0.376   0.401  -0.214
    1UNL    C21   31   0.424   0.416  -0.085
    1UNL    C22   32   0.409   0.309   0.001
    1UNL    C23   33   0.337   0.202  -0.050
    1UNL    C24   34   0.183  -0.134  -0.051
    1UNL    C25   35   0.032  -0.145  -0.054
    1UNL    C26   36  -0.019  -0.274   0.012
    1UNL     H1   37  -0.314  -0.532  -0.198
    1UNL     H2   38  -0.297  -0.349  -0.211
    1UNL     H3   39  -0.221  -0.502   0.023
    1UNL     H4   40  -0.214  -0.207  -0.061
    1UNL     H5   41  -0.338  -0.251   0.152
    1UNL     H6   42  -0.334   0.020   0.132
    1UNL     H7   43  -0.198   0.080  -0.196
    1UNL     H8   44  -0.430   0.148  -0.009
    1UNL     H9   45  -0.416   0.193  -0.176
    1UNL    H10   46  -0.402  -0.083  -0.093
    1UNL    H11   47  -0.059   0.223  -0.053
    1UNL    H12   48  -0.295   0.374  -0.097
    1UNL    H13   49  -0.142   0.342   0.144
    1UNL    H14   50  -0.353   0.343   0.199
    1UNL    H15   51  -0.174   0.134   0.282
    1UNL    H16   52  -0.000   0.003   0.214
    1UNL    H17   53  -0.003  -0.353   0.347
    1UNL    H18   54   0.413  -0.188   0.210
    1UNL    H19   55   0.454  -0.151   0.039
    1UNL    H20   56   0.471   0.077   0.134
    1UNL    H21   57   0.333   0.058   0.224
    1UNL    H22   58   0.127   0.092  -0.264
    1UNL    H23   59   0.245   0.301  -0.349
    1UNL    H24   60   0.409   0.469  -0.293
    1UNL    H25   61   0.497   0.492  -0.071
    1UNL    H26   62   0.454   0.298   0.093
    1UNL    H27   63   0.225  -0.188  -0.132
    1UNL    H28   64  -0.012  -0.132  -0.158
    1UNL    H29   65  -0.006  -0.054  -0.010
    1UNL    H30   66   0.036  -0.353  -0.050
   0.00000   0.00000   0.00000   0.00000   0.00000   0.00000   0.00000   0.00000   0.00000
Generated with MDTraj, t= 34.0
 66
    1UNL     C1    1  -0.210  -0.431  -0.174
    1UNL     C2    2  -0.234  -0.403  -0.048
    1UNL     C3    3  -0.175  -0.279   0.010
    1UNL     C4    4  -0.236  -0.240   0.143
    1UNL     O1    5  -0.183  -0.114   0.187
    1UNL     C5    6  -0.226   0.004   0.117
    1UNL     O2    7  -0.204  -0.002  -0.030
    1UNL     C6    8  -0.243   0.114  -0.106
    1UNL     C7    9  -0.396   0.129  -0.111
    1UNL     O3   10  -0.466   0.012  -0.127
    1UNL     C8   11  -0.170   0.244  -0.049
    1UNL     O4   12  -0.232   0.353  -0.121
    1UNL     C9   13  -0.185   0.263   0.102
    1UNL     O5   14  -0.320   0.296   0.132
    1UNL    C10   15  -0.145   0.126   0.177
    1UNL     O6   16  -0.009   0.089   0.174
    1UNL     O7   17  -0.189  -0.333   0.245
    1UNL    C11   18  -0.050  -0.330   0.256
    1UNL    C12   19   0.031  -0.299   0.153
    1UNL    C13   20   0.165  -0.257   0.178
    1UNL     O8   21   0.218  -0.278   0.291
    1UNL     N1   22   0.250  -0.186   0.090
    1UNL    C14   23   0.381  -0.124   0.142
    1UNL    C15   24   0.362   0.020   0.149
    1UNL    C16   25   0.330   0.071   0.011
    1UNL    C17   26   0.254  -0.003  -0.077
    1UNL     N2   27   0.213   0.068  -0.188
    1UNL    C18   28   0.282   0.189  -0.182
    1UNL    C19   29   0.275   0.302  -0.262
    1UNL    C20   30   0.331   0.418  -0.220
    1UNL    C21   31   0.408   0.426  -0.100
    1UNL    C22   32   0.406   0.321  -0.011
    1UNL    C23   33   0.347   0.198  -0.056
    1UNL    C24   34   0.200  -0.139  -0.045
    1UNL    C25   35   0.039  -0.154  -0.052
    1UNL    C26   36  -0.019  -0.282   0.017
    1UNL     H1   37  -0.247  -0.516  -0.230
    1UNL     H2   38  -0.154  -0.356  -0.226
    1UNL     H3   39  -0.291  -0.478   0.011
    1UNL     H4   40  -0.223  -0.204  -0.051
    1UNL     H5   41  -0.342  -0.243   0.147
    1UNL     H6   42  -0.332   0.013   0.135
    1UNL     H7   43  -0.207   0.090  -0.214
    1UNL     H8   44  -0.426   0.157  -0.009
    1UNL     H9   45  -0.429   0.218  -0.181
    1UNL    H10   46  -0.459  -0.051  -0.049
    1UNL    H11   47  -0.064   0.242  -0.084
    1UNL    H12   48  -0.305   0.390  -0.065
    1UNL    H13   49  -0.122   0.346   0.135
    1UNL    H14   50  -0.320   0.348   0.215
    1UNL    H15   51  -0.173   0.139   0.276
    1UNL    H16   52  -0.005  -0.007   0.197
    1UNL    H17   53  -0.006  -0.344   0.355
    1UNL    H18   54   0.403  -0.159   0.246
    1UNL    H19   55   0.467  -0.153   0.079
    1UNL    H20   56   0.452   0.068   0.193
    1UNL    H21   57   0.286   0.047   0.212
    1UNL    H22   58   0.150   0.034  -0.270
    1UNL    H23   59   0.210   0.300  -0.354
    1UNL    H24   60   0.322   0.508  -0.277
    1UNL    H25   61   0.457   0.522  -0.078
    1UNL    H26   62   0.465   0.329   0.088
    1UNL    H27   63   0.240  -0.213  -0.109
    1UNL    H28   64   0.010  -0.134  -0.159
    1UNL    H29   65  -0.009  -0.066  -0.003
    1UNL    H30   66   0.017  -0.376  -0.038
   0.00000   0.00000   0.00000   0.00000   0.00000   0.00000   0.00000   0.00000   0.00000
Generated with MDTraj, t= 35.0
 66
    1UNL     C1    1  -0.181  -0.444  -0.169
    1UNL     C2    2  -0.224  -0.397  -0.052
    1UNL     C3    3  -0.171  -0.262  -0.013
    1UNL     C4    4  -0.233  -0.231   0.127
    1UNL     O1    5  -0.170  -0.112   0.176
    1UNL     C5    6  -0.224   0.007   0.118
    1UNL     O2    7  -0.220   0.007  -0.033
    1UNL     C6    8  -0.274   0.121  -0.096
    1UNL     C7    9  -0.423   0.138  -0.074
    1UNL     O3   10  -0.488   0.025  -0.111
    1UNL     C8   11  -0.179   0.240  -0.053
    1UNL     O4   12  -0.192   0.356  -0.129
    1UNL     C9   13  -0.180   0.269   0.100
    1UNL     O5   14  -0.313   0.318   0.133
    1UNL    C10   15  -0.148   0.129   0.177
    1UNL     O6   16  -0.017   0.103   0.164
    1UNL     O7   17  -0.201  -0.342   0.219
    1UNL    C11   18  -0.062  -0.348   0.236
    1UNL    C12   19   0.032  -0.297   0.149
    1UNL    C13   20   0.165  -0.261   0.195
    1UNL     O8   21   0.215  -0.297   0.304
    1UNL     N1   22   0.243  -0.172   0.121
    1UNL    C14   23   0.369  -0.120   0.168
    1UNL    C15   24   0.401   0.027   0.140
    1UNL    C16   25   0.351   0.065  -0.001
    1UNL    C17   26   0.282  -0.025  -0.077
    1UNL     N2   27   0.232   0.046  -0.186
    1UNL    C18   28   0.261   0.188  -0.172
    1UNL    C19   29   0.242   0.301  -0.259
    1UNL    C20   30   0.307   0.419  -0.228
    1UNL    C21   31   0.373   0.426  -0.103
    1UNL    C22   32   0.397   0.321  -0.021
    1UNL    C23   33   0.347   0.194  -0.059
    1UNL    C24   34   0.222  -0.162  -0.031
    1UNL    C25   35   0.063  -0.159  -0.054
    1UNL    C26   36  -0.012  -0.279   0.004
    1UNL     H1   37  -0.224  -0.534  -0.208
    1UNL     H2   38  -0.101  -0.410  -0.232
    1UNL     H3   39  -0.289  -0.452   0.010
    1UNL     H4   40  -0.213  -0.194  -0.085
    1UNL     H5   41  -0.338  -0.221   0.115
    1UNL     H6   42  -0.326   0.001   0.152
    1UNL     H7   43  -0.263   0.096  -0.207
    1UNL     H8   44  -0.441   0.153   0.033
    1UNL     H9   45  -0.474   0.224  -0.138
    1UNL    H10   46  -0.448  -0.058  -0.074
    1UNL    H11   47  -0.075   0.199  -0.075
    1UNL    H12   48  -0.269   0.399  -0.094
    1UNL    H13   49  -0.107   0.345   0.130
    1UNL    H14   50  -0.316   0.354   0.226
    1UNL    H15   51  -0.178   0.140   0.275
    1UNL    H16   52   0.002   0.010   0.195
    1UNL    H17   53  -0.031  -0.372   0.336
    1UNL    H18   54   0.362  -0.137   0.279
    1UNL    H19   55   0.453  -0.182   0.131
    1UNL    H20   56   0.509   0.057   0.149
    1UNL    H21   57   0.355   0.085   0.213
    1UNL    H22   58   0.179  -0.008  -0.263
    1UNL    H23   59   0.180   0.298  -0.345
    1UNL    H24   60   0.286   0.508  -0.287
    1UNL    H25   61   0.401   0.523  -0.063
    1UNL    H26   62   0.440   0.332   0.072
    1UNL    H27   63   0.277  -0.241  -0.075
    1UNL    H28   64   0.037  -0.140  -0.159
    1UNL    H29   65   0.035  -0.059  -0.003
    1UNL    H30   66   0.027  -0.370  -0.053
   0.00000   0.00000   0.00000   0.00000   0.00000   0.00000   0.00000   0.00000   0.00000
Generated with MDTraj, t= 36.0
 66
    1UNL     C1    1  -0.182  -0.440  -0.190
    1UNL     C2    2  -0.210  -0.407  -0.066
    1UNL     C3    3  -0.167  -0.271  -0.014
    1UNL     C4    4  -0.222  -0.241   0.119
    1UNL     O1    5  -0.181  -0.110   0.168
    1UNL     C5    6  -0.230   0.003   0.106
    1UNL     O2    7  -0.219   0.003  -0.041
    1UNL     C6    8  -0.260   0.124  -0.100
    1UNL     C7    9  -0.410   0.158  -0.074
    1UNL     O3   10  -0.494   0.048  -0.070
    1UNL     C8   11  -0.174   0.245  -0.058
    1UNL     O4   12  -0.205   0.364  -0.127
    1UNL     C9   13  -0.180   0.261   0.090
    1UNL     O5   14  -0.302   0.316   0.119
    1UNL    C10   15  -0.147   0.121   0.165
    1UNL     O6   16  -0.012   0.093   0.154
    1UNL     O7   17  -0.197  -0.345   0.213
    1UNL    C11   18  -0.066  -0.329   0.247
    1UNL    C12   19   0.035  -0.289   0.164
    1UNL    C13   20   0.172  -0.249   0.205
    1UNL     O8   21   0.214  -0.278   0.322
    1UNL     N1   22   0.261  -0.184   0.113
    1UNL    C14   23   0.389  -0.134   0.157
    1UNL    C15   24   0.391   0.027   0.145
    1UNL    C16   25   0.346   0.060   0.007
    1UNL    C17   26   0.257  -0.018  -0.073
    1UNL     N2   27   0.223   0.050  -0.182
    1UNL    C18   28   0.261   0.181  -0.167
    1UNL    C19   29   0.242   0.282  -0.255
    1UNL    C20   30   0.285   0.409  -0.211
    1UNL    C21   31   0.361   0.429  -0.097
    1UNL    C22   32   0.392   0.316  -0.027
    1UNL    C23   33   0.340   0.191  -0.052
    1UNL    C24   34   0.217  -0.155  -0.030
    1UNL    C25   35   0.063  -0.167  -0.053
    1UNL    C26   36  -0.007  -0.286   0.017
    1UNL     H1   37  -0.203  -0.539  -0.224
    1UNL     H2   38  -0.129  -0.378  -0.261
    1UNL     H3   39  -0.238  -0.491   0.001
    1UNL     H4   40  -0.191  -0.193  -0.083
    1UNL     H5   41  -0.328  -0.233   0.112
    1UNL     H6   42  -0.334   0.007   0.135
    1UNL     H7   43  -0.243   0.117  -0.210
    1UNL     H8   44  -0.429   0.209   0.023
    1UNL     H9   45  -0.448   0.228  -0.163
    1UNL    H10   46  -0.440  -0.028  -0.039
    1UNL    H11   47  -0.063   0.231  -0.085
    1UNL    H12   48  -0.287   0.407  -0.083
    1UNL    H13   49  -0.101   0.334   0.119
    1UNL    H14   50  -0.316   0.321   0.217
    1UNL    H15   51  -0.164   0.139   0.266
    1UNL    H16   52   0.010  -0.002   0.182
    1UNL    H17   53  -0.051  -0.339   0.353
    1UNL    H18   54   0.411  -0.166   0.262
    1UNL    H19   55   0.465  -0.185   0.091
    1UNL    H20   56   0.485   0.072   0.182
    1UNL    H21   57   0.316   0.073   0.210
    1UNL    H22   58   0.154   0.010  -0.251
    1UNL    H23   59   0.204   0.258  -0.352
    1UNL    H24   60   0.259   0.493  -0.270
    1UNL    H25   61   0.401   0.527  -0.081
    1UNL    H26   62   0.454   0.328   0.061
    1UNL    H27   63   0.275  -0.223  -0.089
    1UNL    H28   64   0.049  -0.167  -0.162
    1UNL    H29   65   0.011  -0.071  -0.013
    1UNL    H30   66   0.042  -0.376  -0.035
   0.00000   0.00000   0.00000   0.00000   0.00000   0.00000   0.00000   0.00000   0.00000
Generated with MDTraj, t= 37.0
 66
    1UNL     C1    1  -0.209  -0.421  -0.191
    1UNL     C2    2  -0.227  -0.396  -0.062
    1UNL     C3    3  -0.172  -0.274   0.001
    1UNL     C4    4  -0.224  -0.238   0.137
    1UNL     O1    5  -0.182  -0.102   0.176
    1UNL     C5    6  -0.224   0.005   0.106
    1UNL     O2    7  -0.221  -0.007  -0.031
    1UNL     C6    8  -0.262   0.107  -0.103
    1UNL     C7    9  -0.409   0.136  -0.076
    1UNL     O3   10  -0.493   0.023  -0.116
    1UNL     C8   11  -0.172   0.232  -0.068
    1UNL     O4   12  -0.213   0.352  -0.131
    1UNL     C9   13  -0.157   0.253   0.084
    1UNL     O5   14  -0.260   0.332   0.134
    1UNL    C10   15  -0.128   0.115   0.153
    1UNL     O6   16   0.004   0.069   0.152
    1UNL     O7   17  -0.180  -0.344   0.236
    1UNL    C11   18  -0.048  -0.315   0.258
    1UNL    C12   19   0.040  -0.290   0.156
    1UNL    C13   20   0.167  -0.241   0.191
    1UNL     O8   21   0.201  -0.232   0.313
    1UNL     N1   22   0.258  -0.192   0.095
    1UNL    C14   23   0.381  -0.127   0.143
    1UNL    C15   24   0.375   0.027   0.149
    1UNL    C16   25   0.309   0.066   0.019
    1UNL    C17   26   0.246  -0.017  -0.069
    1UNL     N2   27   0.207   0.054  -0.178
    1UNL    C18   28   0.262   0.182  -0.170
    1UNL    C19   29   0.256   0.297  -0.251
    1UNL    C20   30   0.299   0.417  -0.198
    1UNL    C21   31   0.369   0.428  -0.078
    1UNL    C22   32   0.384   0.315   0.002
    1UNL    C23   33   0.323   0.191  -0.043
    1UNL    C24   34   0.213  -0.158  -0.043
    1UNL    C25   35   0.062  -0.177  -0.077
    1UNL    C26   36  -0.007  -0.288   0.009
    1UNL     H1   37  -0.231  -0.508  -0.251
    1UNL     H2   38  -0.161  -0.343  -0.246
    1UNL     H3   39  -0.256  -0.475   0.002
    1UNL     H4   40  -0.202  -0.198  -0.068
    1UNL     H5   41  -0.333  -0.231   0.141
    1UNL     H6   42  -0.323   0.029   0.142
    1UNL     H7   43  -0.250   0.072  -0.205
    1UNL     H8   44  -0.422   0.166   0.029
    1UNL     H9   45  -0.447   0.222  -0.149
    1UNL    H10   46  -0.448  -0.056  -0.075
    1UNL    H11   47  -0.072   0.215  -0.118
    1UNL    H12   48  -0.281   0.394  -0.078
    1UNL    H13   49  -0.058   0.309   0.095
    1UNL    H14   50  -0.263   0.328   0.231
    1UNL    H15   51  -0.144   0.128   0.257
    1UNL    H16   52   0.010  -0.017   0.196
    1UNL    H17   53  -0.023  -0.305   0.364
    1UNL    H18   54   0.403  -0.174   0.242
    1UNL    H19   55   0.472  -0.152   0.078
    1UNL    H20   56   0.470   0.081   0.151
    1UNL    H21   57   0.322   0.060   0.247
    1UNL    H22   58   0.162   0.021  -0.266
    1UNL    H23   59   0.202   0.293  -0.350
    1UNL    H24   60   0.293   0.500  -0.269
    1UNL    H25   61   0.413   0.522  -0.042
    1UNL    H26   62   0.445   0.321   0.097
    1UNL    H27   63   0.271  -0.222  -0.109
    1UNL    H28   64   0.044  -0.199  -0.184
    1UNL    H29   65   0.008  -0.077  -0.058
    1UNL    H30   66   0.007  -0.392  -0.035
   0.00000   0.00000   0.00000   0.00000   0.00000   0.00000   0.00000   0.00000   0.00000
Generated with MDTraj, t= 38.0
 66
    1UNL     C1    1  -0.259  -0.422  -0.166
    1UNL     C2    2  -0.229  -0.398  -0.040
    1UNL     C3    3  -0.174  -0.271   0.016
    1UNL     C4    4  -0.231  -0.233   0.153
    1UNL     O1    5  -0.181  -0.107   0.200
    1UNL     C5    6  -0.218  -0.000   0.120
    1UNL     O2    7  -0.213  -0.018  -0.023
    1UNL     C6    8  -0.246   0.097  -0.101
    1UNL     C7    9  -0.396   0.132  -0.093
    1UNL     O3   10  -0.471   0.011  -0.126
    1UNL     C8   11  -0.148   0.217  -0.077
    1UNL     O4   12  -0.194   0.329  -0.153
    1UNL     C9   13  -0.146   0.245   0.072
    1UNL     O5   14  -0.265   0.305   0.117
    1UNL    C10   15  -0.108   0.119   0.153
    1UNL     O6   16   0.024   0.072   0.130
    1UNL     O7   17  -0.182  -0.337   0.242
    1UNL    C11   18  -0.046  -0.329   0.242
    1UNL    C12   19   0.035  -0.289   0.141
    1UNL    C13   20   0.161  -0.239   0.177
    1UNL     O8   21   0.191  -0.235   0.299
    1UNL     N1   22   0.252  -0.191   0.086
    1UNL    C14   23   0.381  -0.130   0.133
    1UNL    C15   24   0.373   0.018   0.138
    1UNL    C16   25   0.299   0.078   0.022
    1UNL    C17   26   0.238  -0.006  -0.068
    1UNL     N2   27   0.201   0.073  -0.182
    1UNL    C18   28   0.254   0.203  -0.160
    1UNL    C19   29   0.249   0.320  -0.233
    1UNL    C20   30   0.316   0.432  -0.197
    1UNL    C21   31   0.370   0.430  -0.065
    1UNL    C22   32   0.381   0.321   0.021
    1UNL    C23   33   0.315   0.208  -0.034
    1UNL    C24   34   0.200  -0.152  -0.045
    1UNL    C25   35   0.036  -0.160  -0.060
    1UNL    C26   36  -0.018  -0.286   0.006
    1UNL     H1   37  -0.295  -0.519  -0.198
    1UNL     H2   38  -0.249  -0.351  -0.245
    1UNL     H3   39  -0.252  -0.477   0.032
    1UNL     H4   40  -0.200  -0.203  -0.064
    1UNL     H5   41  -0.342  -0.235   0.143
    1UNL     H6   42  -0.320   0.019   0.153
    1UNL     H7   43  -0.229   0.056  -0.197
    1UNL     H8   44  -0.427   0.174   0.004
    1UNL     H9   45  -0.415   0.214  -0.176
    1UNL    H10   46  -0.428  -0.054  -0.071
    1UNL    H11   47  -0.047   0.189  -0.114
    1UNL    H12   48  -0.253   0.382  -0.092
    1UNL    H13   49  -0.063   0.325   0.082
    1UNL    H14   50  -0.282   0.297   0.212
    1UNL    H15   51  -0.113   0.133   0.259
    1UNL    H16   52   0.036  -0.019   0.177
    1UNL    H17   53   0.004  -0.343   0.339
    1UNL    H18   54   0.416  -0.158   0.235
    1UNL    H19   55   0.471  -0.164   0.067
    1UNL    H20   56   0.475   0.056   0.145
    1UNL    H21   57   0.324   0.058   0.237
    1UNL    H22   58   0.157   0.053  -0.272
    1UNL    H23   59   0.199   0.322  -0.323
    1UNL    H24   60   0.320   0.519  -0.259
    1UNL    H25   61   0.416   0.521  -0.041
    1UNL    H26   62   0.429   0.327   0.110
    1UNL    H27   63   0.249  -0.212  -0.125
    1UNL    H28   64   0.005  -0.154  -0.167
    1UNL    H29   65  -0.008  -0.070  -0.008
    1UNL    H30   66   0.012  -0.381  -0.051
   0.00000   0.00000   0.00000   0.00000   0.00000   0.00000   0.00000   0.00000   0.00000
Generated with MDTraj, t= 39.0
 66
    1UNL     C1    1  -0.305  -0.448  -0.131
    1UNL     C2    2  -0.244  -0.425  -0.018
    1UNL     C3    3  -0.177  -0.291   0.013
    1UNL     C4    4  -0.232  -0.241   0.149
    1UNL     O1    5  -0.171  -0.115   0.182
    1UNL     C5    6  -0.206  -0.000   0.104
    1UNL     O2    7  -0.190  -0.012  -0.036
    1UNL     C6    8  -0.223   0.093  -0.122
    1UNL     C7    9  -0.372   0.130  -0.112
    1UNL     O3   10  -0.449   0.015  -0.107
    1UNL     C8   11  -0.122   0.213  -0.081
    1UNL     O4   12  -0.152   0.326  -0.166
    1UNL     C9   13  -0.152   0.253   0.068
    1UNL     O5   14  -0.285   0.310   0.092
    1UNL    C10   15  -0.129   0.128   0.156
    1UNL     O6   16   0.004   0.094   0.166
    1UNL     O7   17  -0.195  -0.334   0.243
    1UNL    C11   18  -0.059  -0.329   0.261
    1UNL    C12   19   0.029  -0.293   0.164
    1UNL    C13   20   0.168  -0.264   0.179
    1UNL     O8   21   0.216  -0.297   0.291
    1UNL     N1   22   0.245  -0.193   0.084
    1UNL    C14   23   0.374  -0.138   0.118
    1UNL    C15   24   0.372   0.019   0.130
    1UNL    C16   25   0.317   0.078   0.005
    1UNL    C17   26   0.225   0.012  -0.071
    1UNL     N2   27   0.190   0.097  -0.176
    1UNL    C18   28   0.244   0.219  -0.162
    1UNL    C19   29   0.220   0.346  -0.220
    1UNL    C20   30   0.290   0.452  -0.169
    1UNL    C21   31   0.382   0.444  -0.062
    1UNL    C22   32   0.394   0.327   0.005
    1UNL    C23   33   0.324   0.214  -0.046
    1UNL    C24   34   0.189  -0.127  -0.044
    1UNL    C25   35   0.044  -0.163  -0.061
    1UNL    C26   36  -0.015  -0.291   0.020
    1UNL     H1   37  -0.355  -0.541  -0.153
    1UNL     H2   38  -0.307  -0.378  -0.212
    1UNL     H3   39  -0.259  -0.498   0.060
    1UNL     H4   40  -0.208  -0.218  -0.066
    1UNL     H5   41  -0.345  -0.230   0.149
    1UNL     H6   42  -0.313   0.007   0.121
    1UNL     H7   43  -0.198   0.051  -0.216
    1UNL     H8   44  -0.385   0.179  -0.013
    1UNL     H9   45  -0.412   0.199  -0.197
    1UNL    H10   46  -0.399  -0.061  -0.062
    1UNL    H11   47  -0.018   0.187  -0.093
    1UNL    H12   48  -0.225   0.379  -0.120
    1UNL    H13   49  -0.080   0.335   0.112
    1UNL    H14   50  -0.311   0.309   0.187
    1UNL    H15   51  -0.156   0.151   0.258
    1UNL    H16   52   0.018   0.003   0.194
    1UNL    H17   53  -0.021  -0.340   0.361
    1UNL    H18   54   0.414  -0.179   0.212
    1UNL    H19   55   0.462  -0.157   0.044
    1UNL    H20   56   0.468   0.074   0.148
    1UNL    H21   57   0.308   0.043   0.224
    1UNL    H22   58   0.118   0.091  -0.245
    1UNL    H23   59   0.148   0.355  -0.303
    1UNL    H24   60   0.271   0.551  -0.208
    1UNL    H25   61   0.433   0.538  -0.034
    1UNL    H26   62   0.458   0.314   0.097
    1UNL    H27   63   0.244  -0.181  -0.127
    1UNL    H28   64   0.031  -0.193  -0.169
    1UNL    H29   65  -0.015  -0.077  -0.037
    1UNL    H30   66   0.028  -0.386  -0.027
   0.00000   0.00000   0.00000   0.00000   0.00000   0.00000   0.00000   0.00000   0.00000
Generated with MDTraj, t= 40.0
 66
    1UNL     C1    1  -0.315  -0.447  -0.085
    1UNL     C2    2  -0.212  -0.415  -0.013
    1UNL     C3    3  -0.168  -0.278   0.007
    1UNL     C4    4  -0.218  -0.235   0.146
    1UNL     O1    5  -0.180  -0.105   0.191
    1UNL     C5    6  -0.224   0.004   0.107
    1UNL     O2    7  -0.200  -0.012  -0.039
    1UNL     C6    8  -0.220   0.102  -0.122
    1UNL     C7    9  -0.369   0.130  -0.133
    1UNL     O3   10  -0.440   0.016  -0.157
    1UNL     C8   11  -0.126   0.224  -0.085
    1UNL     O4   12  -0.144   0.342  -0.174
    1UNL     C9   13  -0.153   0.261   0.058
    1UNL     O5   14  -0.267   0.346   0.069
    1UNL    C10   15  -0.151   0.141   0.159
    1UNL     O6   16  -0.022   0.102   0.189
    1UNL     O7   17  -0.174  -0.329   0.250
    1UNL    C11   18  -0.038  -0.340   0.246
    1UNL    C12   19   0.044  -0.294   0.148
    1UNL    C13   20   0.188  -0.273   0.166
    1UNL     O8   21   0.231  -0.336   0.266
    1UNL     N1   22   0.261  -0.196   0.080
    1UNL    C14   23   0.391  -0.154   0.118
    1UNL    C15   24   0.405   0.004   0.126
    1UNL    C16   25   0.313   0.068   0.019
    1UNL    C17   26   0.227  -0.003  -0.061
    1UNL     N2   27   0.159   0.087  -0.139
    1UNL    C18   28   0.206   0.213  -0.120
    1UNL    C19   29   0.186   0.336  -0.191
    1UNL    C20   30   0.270   0.440  -0.177
    1UNL    C21   31   0.369   0.431  -0.079
    1UNL    C22   32   0.377   0.321   0.001
    1UNL    C23   33   0.306   0.203  -0.027
    1UNL    C24   34   0.196  -0.147  -0.043
    1UNL    C25   35   0.047  -0.143  -0.050
    1UNL    C26   36  -0.015  -0.267   0.014
    1UNL     H1   37  -0.370  -0.538  -0.095
    1UNL     H2   38  -0.364  -0.366  -0.135
    1UNL     H3   39  -0.155  -0.494   0.032
    1UNL     H4   40  -0.218  -0.214  -0.070
    1UNL     H5   41  -0.333  -0.235   0.153
    1UNL     H6   42  -0.333   0.007   0.119
    1UNL     H7   43  -0.183   0.068  -0.218
    1UNL     H8   44  -0.414   0.174  -0.038
    1UNL     H9   45  -0.398   0.204  -0.214
    1UNL    H10   46  -0.408  -0.063  -0.113
    1UNL    H11   47  -0.020   0.204  -0.096
    1UNL    H12   48  -0.215   0.394  -0.143
    1UNL    H13   49  -0.069   0.332   0.102
    1UNL    H14   50  -0.299   0.345   0.164
    1UNL    H15   51  -0.197   0.178   0.253
    1UNL    H16   52  -0.017   0.002   0.210
    1UNL    H17   53   0.015  -0.383   0.328
    1UNL    H18   54   0.428  -0.194   0.212
    1UNL    H19   55   0.471  -0.186   0.041
    1UNL    H20   56   0.516   0.037   0.120
    1UNL    H21   57   0.374   0.052   0.226
    1UNL    H22   58   0.106   0.063  -0.220
    1UNL    H23   59   0.104   0.343  -0.260
    1UNL    H24   60   0.264   0.527  -0.242
    1UNL    H25   61   0.424   0.513  -0.040
    1UNL    H26   62   0.439   0.317   0.090
    1UNL    H27   63   0.244  -0.213  -0.124
    1UNL    H28   64   0.011  -0.136  -0.158
    1UNL    H29   65   0.016  -0.058   0.004
    1UNL    H30   66   0.024  -0.356  -0.046
   0.00000   0.00000   0.00000   0.00000   0.00000   0.00000   0.00000   0.00000   0.00000
Generated with MDTraj, t= 41.0
 66
    1UNL     C1    1  -0.363  -0.419  -0.067
    1UNL     C2    2  -0.241  -0.421  -0.015
    1UNL     C3    3  -0.168  -0.296   0.027
    1UNL     C4    4  -0.208  -0.235   0.164
    1UNL     O1    5  -0.167  -0.099   0.175
    1UNL     C5    6  -0.217   0.004   0.091
    1UNL     O2    7  -0.195  -0.012  -0.051
    1UNL     C6    8  -0.223   0.103  -0.134
    1UNL     C7    9  -0.368   0.135  -0.141
    1UNL     O3   10  -0.444   0.033  -0.195
    1UNL     C8   11  -0.140   0.228  -0.094
    1UNL     O4   12  -0.156   0.345  -0.168
    1UNL     C9   13  -0.169   0.253   0.058
    1UNL     O5   14  -0.301   0.310   0.063
    1UNL    C10   15  -0.152   0.134   0.154
    1UNL     O6   16  -0.023   0.105   0.189
    1UNL     O7   17  -0.154  -0.311   0.276
    1UNL    C11   18  -0.021  -0.314   0.265
    1UNL    C12   19   0.049  -0.294   0.152
    1UNL    C13   20   0.191  -0.275   0.172
    1UNL     O8   21   0.255  -0.326   0.271
    1UNL     N1   22   0.260  -0.199   0.078
    1UNL    C14   23   0.394  -0.151   0.100
    1UNL    C15   24   0.403  -0.004   0.109
    1UNL    C16   25   0.333   0.063  -0.001
    1UNL    C17   26   0.231   0.003  -0.068
    1UNL     N2   27   0.169   0.085  -0.160
    1UNL    C18   28   0.235   0.211  -0.143
    1UNL    C19   29   0.197   0.335  -0.191
    1UNL    C20   30   0.251   0.446  -0.129
    1UNL    C21   31   0.349   0.429  -0.025
    1UNL    C22   32   0.398   0.309   0.018
    1UNL    C23   33   0.335   0.203  -0.039
    1UNL    C24   34   0.194  -0.142  -0.048
    1UNL    C25   35   0.039  -0.157  -0.046
    1UNL    C26   36  -0.017  -0.288   0.019
    1UNL     H1   37  -0.425  -0.504  -0.094
    1UNL     H2   38  -0.420  -0.331  -0.088
    1UNL     H3   39  -0.192  -0.516   0.009
    1UNL     H4   40  -0.205  -0.223  -0.051
    1UNL     H5   41  -0.321  -0.241   0.177
    1UNL     H6   42  -0.326   0.006   0.108
    1UNL     H7   43  -0.195   0.064  -0.234
    1UNL     H8   44  -0.413   0.169  -0.041
    1UNL     H9   45  -0.381   0.227  -0.202
    1UNL    H10   46  -0.422  -0.055  -0.152
    1UNL    H11   47  -0.036   0.203  -0.107
    1UNL    H12   48  -0.246   0.387  -0.137
    1UNL    H13   49  -0.095   0.336   0.100
    1UNL    H14   50  -0.329   0.320   0.157
    1UNL    H15   51  -0.215   0.151   0.246
    1UNL    H16   52  -0.025   0.015   0.223
    1UNL    H17   53   0.041  -0.319   0.354
    1UNL    H18   54   0.428  -0.191   0.196
    1UNL    H19   55   0.468  -0.185   0.020
    1UNL    H20   56   0.512   0.044   0.123
    1UNL    H21   57   0.358   0.024   0.209
    1UNL    H22   58   0.087   0.042  -0.194
    1UNL    H23   59   0.133   0.343  -0.275
    1UNL    H24   60   0.225   0.546  -0.151
    1UNL    H25   61   0.394   0.522   0.011
    1UNL    H26   62   0.458   0.298   0.102
    1UNL    H27   63   0.235  -0.191  -0.143
    1UNL    H28   64   0.005  -0.138  -0.151
    1UNL    H29   65   0.007  -0.074   0.011
    1UNL    H30   66   0.025  -0.379  -0.036
   0.00000   0.00000   0.00000   0.00000   0.00000   0.00000   0.00000   0.00000   0.00000
Generated with MDTraj, t= 42.0
 66
    1UNL     C1    1  -0.359  -0.429  -0.028
    1UNL     C2    2  -0.232  -0.411  -0.011
    1UNL     C3    3  -0.170  -0.271   0.013
    1UNL     C4    4  -0.219  -0.212   0.157
    1UNL     O1    5  -0.175  -0.080   0.190
    1UNL     C5    6  -0.223   0.029   0.115
    1UNL     O2    7  -0.190  -0.005  -0.019
    1UNL     C6    8  -0.215   0.102  -0.115
    1UNL     C7    9  -0.367   0.112  -0.148
    1UNL     O3   10  -0.419  -0.016  -0.194
    1UNL     C8   11  -0.149   0.236  -0.078
    1UNL     O4   12  -0.165   0.331  -0.177
    1UNL     C9   13  -0.196   0.274   0.070
    1UNL     O5   14  -0.334   0.291   0.074
    1UNL    C10   15  -0.145   0.159   0.160
    1UNL     O6   16  -0.005   0.137   0.134
    1UNL     O7   17  -0.170  -0.310   0.249
    1UNL    C11   18  -0.032  -0.313   0.254
    1UNL    C12   19   0.048  -0.283   0.147
    1UNL    C13   20   0.186  -0.257   0.161
    1UNL     O8   21   0.232  -0.278   0.279
    1UNL     N1   22   0.266  -0.214   0.054
    1UNL    C14   23   0.410  -0.178   0.072
    1UNL    C15   24   0.420  -0.030   0.104
    1UNL    C16   25   0.335   0.049   0.005
    1UNL    C17   26   0.249  -0.011  -0.085
    1UNL     N2   27   0.184   0.085  -0.164
    1UNL    C18   28   0.235   0.206  -0.123
    1UNL    C19   29   0.203   0.330  -0.174
    1UNL    C20   30   0.257   0.438  -0.110
    1UNL    C21   31   0.345   0.426  -0.004
    1UNL    C22   32   0.385   0.301   0.040
    1UNL    C23   33   0.324   0.190  -0.016
    1UNL    C24   34   0.200  -0.153  -0.070
    1UNL    C25   35   0.047  -0.168  -0.082
    1UNL    C26   36  -0.009  -0.284   0.005
    1UNL     H1   37  -0.390  -0.531  -0.043
    1UNL     H2   38  -0.435  -0.355  -0.031
    1UNL     H3   39  -0.175  -0.499   0.009
    1UNL     H4   40  -0.201  -0.206  -0.074
    1UNL     H5   41  -0.331  -0.215   0.167
    1UNL     H6   42  -0.333   0.040   0.126
    1UNL     H7   43  -0.171   0.061  -0.211
    1UNL     H8   44  -0.416   0.162  -0.056
    1UNL     H9   45  -0.383   0.187  -0.222
    1UNL    H10   46  -0.419  -0.070  -0.110
    1UNL    H11   47  -0.044   0.221  -0.079
    1UNL    H12   48  -0.247   0.384  -0.158
    1UNL    H13   49  -0.138   0.372   0.099
    1UNL    H14   50  -0.361   0.321   0.163
    1UNL    H15   51  -0.154   0.185   0.271
    1UNL    H16   52   0.027   0.058   0.185
    1UNL    H17   53   0.001  -0.316   0.359
    1UNL    H18   54   0.448  -0.239   0.155
    1UNL    H19   55   0.466  -0.206  -0.022
    1UNL    H20   56   0.533   0.007   0.110
    1UNL    H21   57   0.387  -0.000   0.209
    1UNL    H22   58   0.153   0.059  -0.253
    1UNL    H23   59   0.130   0.341  -0.258
    1UNL    H24   60   0.240   0.539  -0.153
    1UNL    H25   61   0.389   0.509   0.048
    1UNL    H26   62   0.466   0.281   0.119
    1UNL    H27   63   0.239  -0.223  -0.152
    1UNL    H28   64   0.010  -0.171  -0.188
    1UNL    H29   65   0.009  -0.074  -0.045
    1UNL    H30   66   0.023  -0.383  -0.042
   0.00000   0.00000   0.00000   0.00000   0.00000   0.00000   0.00000   0.00000   0.00000
Generated with MDTraj, t= 43.0
 66
    1UNL     C1    1  -0.370  -0.405  -0.008
    1UNL     C2    2  -0.244  -0.391  -0.028
    1UNL     C3    3  -0.165  -0.272   0.016
    1UNL     C4    4  -0.205  -0.212   0.157
    1UNL     O1    5  -0.153  -0.082   0.169
    1UNL     C5    6  -0.194   0.016   0.072
    1UNL     O2    7  -0.153   0.003  -0.062
    1UNL     C6    8  -0.212   0.107  -0.144
    1UNL     C7    9  -0.370   0.097  -0.144
    1UNL     O3   10  -0.417  -0.038  -0.166
    1UNL     C8   11  -0.163   0.248  -0.099
    1UNL     O4   12  -0.231   0.349  -0.165
    1UNL     C9   13  -0.194   0.266   0.058
    1UNL     O5   14  -0.330   0.290   0.067
    1UNL    C10   15  -0.147   0.144   0.134
    1UNL     O6   16  -0.006   0.136   0.155
    1UNL     O7   17  -0.165  -0.297   0.260
    1UNL    C11   18  -0.032  -0.300   0.262
    1UNL    C12   19   0.046  -0.275   0.156
    1UNL    C13   20   0.185  -0.243   0.168
    1UNL     O8   21   0.245  -0.240   0.283
    1UNL     N1   22   0.263  -0.226   0.052
    1UNL    C14   23   0.406  -0.186   0.060
    1UNL    C15   24   0.415  -0.036   0.095
    1UNL    C16   25   0.330   0.037   0.002
    1UNL    C17   26   0.243  -0.022  -0.093
    1UNL     N2   27   0.181   0.079  -0.160
    1UNL    C18   28   0.220   0.202  -0.110
    1UNL    C19   29   0.199   0.337  -0.141
    1UNL    C20   30   0.272   0.439  -0.083
    1UNL    C21   31   0.367   0.417   0.017
    1UNL    C22   32   0.389   0.286   0.046
    1UNL    C23   33   0.314   0.181  -0.010
    1UNL    C24   34   0.198  -0.166  -0.073
    1UNL    C25   35   0.047  -0.174  -0.070
    1UNL    C26   36  -0.014  -0.286   0.015
    1UNL     H1   37  -0.410  -0.502  -0.037
    1UNL     H2   38  -0.420  -0.336   0.059
    1UNL     H3   39  -0.187  -0.464  -0.088
    1UNL     H4   40  -0.184  -0.192  -0.064
    1UNL     H5   41  -0.312  -0.195   0.181
    1UNL     H6   42  -0.305   0.016   0.065
    1UNL     H7   43  -0.179   0.083  -0.252
    1UNL     H8   44  -0.422   0.141  -0.054
    1UNL     H9   45  -0.399   0.157  -0.224
    1UNL    H10   46  -0.382  -0.103  -0.104
    1UNL    H11   47  -0.060   0.265  -0.123
    1UNL    H12   48  -0.303   0.379  -0.114
    1UNL    H13   49  -0.134   0.360   0.091
    1UNL    H14   50  -0.354   0.333   0.151
    1UNL    H15   51  -0.191   0.153   0.239
    1UNL    H16   52   0.020   0.038   0.179
    1UNL    H17   53   0.002  -0.318   0.364
    1UNL    H18   54   0.463  -0.259   0.119
    1UNL    H19   55   0.432  -0.201  -0.048
    1UNL    H20   56   0.521   0.007   0.083
    1UNL    H21   57   0.396  -0.016   0.207
    1UNL    H22   58   0.095   0.081  -0.204
    1UNL    H23   59   0.133   0.360  -0.218
    1UNL    H24   60   0.260   0.534  -0.125
    1UNL    H25   61   0.424   0.490   0.074
    1UNL    H26   62   0.469   0.262   0.107
    1UNL    H27   63   0.236  -0.224  -0.164
    1UNL    H28   64   0.005  -0.169  -0.174
    1UNL    H29   65  -0.000  -0.082  -0.027
    1UNL    H30   66   0.014  -0.383  -0.037
   0.00000   0.00000   0.00000   0.00000   0.00000   0.00000   0.00000   0.00000   0.00000
Generated with MDTraj, t= 44.0
 66
    1UNL     C1    1  -0.365  -0.416  -0.010
    1UNL     C2    2  -0.237  -0.403   0.023
    1UNL     C3    3  -0.163  -0.274   0.014
    1UNL     C4    4  -0.202  -0.203   0.150
    1UNL     O1    5  -0.141  -0.079   0.160
    1UNL     C5    6  -0.206   0.027   0.083
    1UNL     O2    7  -0.184   0.007  -0.057
    1UNL     C6    8  -0.242   0.106  -0.142
    1UNL     C7    9  -0.394   0.092  -0.147
    1UNL     O3   10  -0.445  -0.036  -0.174
    1UNL     C8   11  -0.186   0.247  -0.109
    1UNL     O4   12  -0.235   0.355  -0.178
    1UNL     C9   13  -0.207   0.276   0.043
    1UNL     O5   14  -0.343   0.319   0.069
    1UNL    C10   15  -0.146   0.165   0.130
    1UNL     O6   16  -0.001   0.165   0.120
    1UNL     O7   17  -0.159  -0.294   0.259
    1UNL    C11   18  -0.025  -0.310   0.256
    1UNL    C12   19   0.050  -0.295   0.143
    1UNL    C13   20   0.189  -0.265   0.160
    1UNL     O8   21   0.239  -0.270   0.281
    1UNL     N1   22   0.271  -0.231   0.050
    1UNL    C14   23   0.414  -0.191   0.065
    1UNL    C15   24   0.442  -0.045   0.090
    1UNL    C16   25   0.352   0.037   0.001
    1UNL    C17   26   0.244  -0.014  -0.067
    1UNL     N2   27   0.167   0.089  -0.129
    1UNL    C18   28   0.235   0.204  -0.097
    1UNL    C19   29   0.191   0.336  -0.124
    1UNL    C20   30   0.261   0.442  -0.067
    1UNL    C21   31   0.374   0.413   0.013
    1UNL    C22   32   0.421   0.288   0.053
    1UNL    C23   33   0.346   0.178  -0.003
    1UNL    C24   34   0.215  -0.166  -0.065
    1UNL    C25   35   0.065  -0.197  -0.092
    1UNL    C26   36  -0.012  -0.288   0.004
    1UNL     H1   37  -0.414  -0.507   0.011
    1UNL     H2   38  -0.425  -0.329  -0.025
    1UNL     H3   39  -0.175  -0.478   0.062
    1UNL     H4   40  -0.196  -0.224  -0.083
    1UNL     H5   41  -0.308  -0.189   0.167
    1UNL     H6   42  -0.317   0.020   0.097
    1UNL     H7   43  -0.200   0.080  -0.245
    1UNL     H8   44  -0.429   0.118  -0.046
    1UNL     H9   45  -0.445   0.152  -0.214
    1UNL    H10   46  -0.387  -0.091  -0.233
    1UNL    H11   47  -0.080   0.244  -0.125
    1UNL    H12   48  -0.331   0.379  -0.145
    1UNL    H13   49  -0.149   0.371   0.065
    1UNL    H14   50  -0.343   0.366   0.157
    1UNL    H15   51  -0.184   0.177   0.238
    1UNL    H16   52   0.023   0.074   0.119
    1UNL    H17   53   0.020  -0.328   0.351
    1UNL    H18   54   0.448  -0.258   0.147
    1UNL    H19   55   0.461  -0.223  -0.028
    1UNL    H20   56   0.550  -0.021   0.082
    1UNL    H21   57   0.416  -0.013   0.201
    1UNL    H22   58   0.074   0.086  -0.155
    1UNL    H23   59   0.106   0.350  -0.194
    1UNL    H24   60   0.221   0.546  -0.073
    1UNL    H25   61   0.416   0.505   0.047
    1UNL    H26   62   0.494   0.267   0.127
    1UNL    H27   63   0.277  -0.199  -0.155
    1UNL    H28   64   0.045  -0.231  -0.196
    1UNL    H29   65   0.015  -0.092  -0.094
    1UNL    H30   66  -0.006  -0.395  -0.036
   0.00000   0.00000   0.00000   0.00000   0.00000   0.00000   0.00000   0.00000   0.00000
Generated with MDTraj, t= 45.0
 66
    1UNL     C1    1  -0.328  -0.426  -0.067
    1UNL     C2    2  -0.224  -0.408   0.011
    1UNL     C3    3  -0.157  -0.274   0.031
    1UNL     C4    4  -0.202  -0.193   0.166
    1UNL     O1    5  -0.139  -0.069   0.170
    1UNL     C5    6  -0.203   0.026   0.075
    1UNL     O2    7  -0.201   0.001  -0.068
    1UNL     C6    8  -0.263   0.104  -0.146
    1UNL     C7    9  -0.414   0.107  -0.144
    1UNL     O3   10  -0.477  -0.013  -0.154
    1UNL     C8   11  -0.195   0.247  -0.124
    1UNL     O4   12  -0.256   0.340  -0.207
    1UNL     C9   13  -0.208   0.282   0.025
    1UNL     O5   14  -0.350   0.287   0.055
    1UNL    C10   15  -0.147   0.169   0.108
    1UNL     O6   16  -0.007   0.168   0.092
    1UNL     O7   17  -0.151  -0.262   0.280
    1UNL    C11   18  -0.015  -0.271   0.274
    1UNL    C12   19   0.056  -0.282   0.156
    1UNL    C13   20   0.204  -0.280   0.158
    1UNL     O8   21   0.267  -0.344   0.249
    1UNL     N1   22   0.275  -0.221   0.054
    1UNL    C14   23   0.422  -0.202   0.063
    1UNL    C15   24   0.452  -0.050   0.090
    1UNL    C16   25   0.355   0.032   0.006
    1UNL    C17   26   0.240  -0.011  -0.059
    1UNL     N2   27   0.166   0.089  -0.118
    1UNL    C18   28   0.227   0.207  -0.076
    1UNL    C19   29   0.193   0.341  -0.095
    1UNL    C20   30   0.280   0.437  -0.057
    1UNL    C21   31   0.396   0.403   0.021
    1UNL    C22   32   0.422   0.273   0.049
    1UNL    C23   33   0.343   0.170  -0.008
    1UNL    C24   34   0.200  -0.156  -0.061
    1UNL    C25   35   0.042  -0.163  -0.050
    1UNL    C26   36  -0.010  -0.281   0.024
    1UNL     H1   37  -0.357  -0.529  -0.089
    1UNL     H2   38  -0.378  -0.351  -0.127
    1UNL     H3   39  -0.180  -0.491   0.070
    1UNL     H4   40  -0.189  -0.211  -0.059
    1UNL     H5   41  -0.307  -0.180   0.181
    1UNL     H6   42  -0.314   0.028   0.092
    1UNL     H7   43  -0.229   0.083  -0.251
    1UNL     H8   44  -0.447   0.133  -0.043
    1UNL     H9   45  -0.451   0.174  -0.212
    1UNL    H10   46  -0.428  -0.074  -0.217
    1UNL    H11   47  -0.088   0.242  -0.144
    1UNL    H12   48  -0.351   0.363  -0.176
    1UNL    H13   49  -0.161   0.377   0.055
    1UNL    H14   50  -0.362   0.323   0.146
    1UNL    H15   51  -0.175   0.197   0.218
    1UNL    H16   52   0.027   0.088   0.145
    1UNL    H17   53   0.041  -0.252   0.365
    1UNL    H18   54   0.463  -0.273   0.138
    1UNL    H19   55   0.458  -0.224  -0.036
    1UNL    H20   56   0.555  -0.019   0.072
    1UNL    H21   57   0.432  -0.029   0.203
    1UNL    H22   58   0.070   0.077  -0.142
    1UNL    H23   59   0.103   0.371  -0.146
    1UNL    H24   60   0.267   0.536  -0.087
    1UNL    H25   61   0.447   0.481   0.079
    1UNL    H26   62   0.503   0.248   0.124
    1UNL    H27   63   0.240  -0.203  -0.154
    1UNL    H28   64  -0.007  -0.143  -0.148
    1UNL    H29   65   0.018  -0.068   0.012
    1UNL    H30   66   0.011  -0.382  -0.025
   0.00000   0.00000   0.00000   0.00000   0.00000   0.00000   0.00000   0.00000   0.00000
Generated with MDTraj, t= 46.0
 66
    1UNL     C1    1  -0.284  -0.442  -0.079
    1UNL     C2    2  -0.260  -0.382   0.033
    1UNL     C3    3  -0.178  -0.259   0.042
    1UNL     C4    4  -0.201  -0.188   0.181
    1UNL     O1    5  -0.152  -0.059   0.176
    1UNL     C5    6  -0.225   0.039   0.089
    1UNL     O2    7  -0.214   0.001  -0.050
    1UNL     C6    8  -0.277   0.086  -0.151
    1UNL     C7    9  -0.424   0.092  -0.125
    1UNL     O3   10  -0.460  -0.040  -0.137
    1UNL     C8   11  -0.215   0.226  -0.138
    1UNL     O4   12  -0.273   0.317  -0.229
    1UNL     C9   13  -0.224   0.281   0.006
    1UNL     O5   14  -0.356   0.329   0.031
    1UNL    C10   15  -0.171   0.180   0.108
    1UNL     O6   16  -0.029   0.166   0.105
    1UNL     O7   17  -0.133  -0.266   0.281
    1UNL    C11   18  -0.006  -0.305   0.261
    1UNL    C12   19   0.055  -0.305   0.140
    1UNL    C13   20   0.201  -0.288   0.144
    1UNL     O8   21   0.266  -0.339   0.242
    1UNL     N1   22   0.269  -0.220   0.047
    1UNL    C14   23   0.411  -0.202   0.055
    1UNL    C15   24   0.454  -0.053   0.084
    1UNL    C16   25   0.360   0.040   0.012
    1UNL    C17   26   0.246  -0.008  -0.057
    1UNL     N2   27   0.189   0.101  -0.117
    1UNL    C18   28   0.254   0.216  -0.085
    1UNL    C19   29   0.217   0.351  -0.091
    1UNL    C20   30   0.309   0.438  -0.032
    1UNL    C21   31   0.427   0.406   0.041
    1UNL    C22   32   0.445   0.274   0.057
    1UNL    C23   33   0.364   0.178  -0.005
    1UNL    C24   34   0.198  -0.146  -0.069
    1UNL    C25   35   0.044  -0.163  -0.067
    1UNL    C26   36  -0.024  -0.279   0.013
    1UNL     H1   37  -0.334  -0.535  -0.087
    1UNL     H2   38  -0.235  -0.410  -0.168
    1UNL     H3   39  -0.293  -0.430   0.122
    1UNL     H4   40  -0.216  -0.183  -0.032
    1UNL     H5   41  -0.302  -0.177   0.214
    1UNL     H6   42  -0.333   0.042   0.116
    1UNL     H7   43  -0.257   0.043  -0.250
    1UNL     H8   44  -0.440   0.135  -0.027
    1UNL     H9   45  -0.483   0.141  -0.195
    1UNL    H10   46  -0.418  -0.095  -0.067
    1UNL    H11   47  -0.108   0.218  -0.168
    1UNL    H12   48  -0.356   0.353  -0.203
    1UNL    H13   49  -0.155   0.362  -0.000
    1UNL    H14   50  -0.364   0.371   0.118
    1UNL    H15   51  -0.198   0.225   0.212
    1UNL    H16   52  -0.006   0.096   0.170
    1UNL    H17   53   0.059  -0.305   0.350
    1UNL    H18   54   0.447  -0.264   0.139
    1UNL    H19   55   0.454  -0.229  -0.038
    1UNL    H20   56   0.556  -0.036   0.046
    1UNL    H21   57   0.452  -0.029   0.193
    1UNL    H22   58   0.092   0.097  -0.155
    1UNL    H23   59   0.131   0.382  -0.144
    1UNL    H24   60   0.290   0.546  -0.048
    1UNL    H25   61   0.491   0.479   0.085
    1UNL    H26   62   0.511   0.246   0.129
    1UNL    H27   63   0.247  -0.187  -0.158
    1UNL    H28   64   0.013  -0.163  -0.174
    1UNL    H29   65   0.002  -0.071  -0.016
    1UNL    H30   66  -0.014  -0.367  -0.058
   0.00000   0.00000   0.00000   0.00000   0.00000   0.00000   0.00000   0.00000   0.00000
Generated with MDTraj, t= 47.0
 66
    1UNL     C1    1  -0.220  -0.454  -0.089
    1UNL     C2    2  -0.223  -0.387   0.023
    1UNL     C3    3  -0.178  -0.249   0.031
    1UNL     C4    4  -0.211  -0.177   0.170
    1UNL     O1    5  -0.155  -0.048   0.177
    1UNL     C5    6  -0.222   0.037   0.085
    1UNL     O2    7  -0.215  -0.013  -0.046
    1UNL     C6    8  -0.277   0.077  -0.143
    1UNL     C7    9  -0.425   0.068  -0.117
    1UNL     O3   10  -0.465  -0.068  -0.087
    1UNL     C8   11  -0.219   0.218  -0.141
    1UNL     O4   12  -0.281   0.289  -0.243
    1UNL     C9   13  -0.227   0.285  -0.001
    1UNL     O5   14  -0.363   0.308   0.028
    1UNL    C10   15  -0.174   0.184   0.107
    1UNL     O6   16  -0.030   0.201   0.122
    1UNL     O7   17  -0.162  -0.257   0.274
    1UNL    C11   18  -0.027  -0.273   0.258
    1UNL    C12   19   0.048  -0.265   0.146
    1UNL    C13   20   0.194  -0.271   0.141
    1UNL     O8   21   0.256  -0.323   0.239
    1UNL     N1   22   0.257  -0.236   0.024
    1UNL    C14   23   0.401  -0.217   0.015
    1UNL    C15   24   0.438  -0.079   0.077
    1UNL    C16   25   0.352   0.029   0.015
    1UNL    C17   26   0.240  -0.005  -0.059
    1UNL     N2   27   0.191   0.109  -0.116
    1UNL    C18   28   0.272   0.219  -0.066
    1UNL    C19   29   0.244   0.354  -0.083
    1UNL    C20   30   0.334   0.444  -0.028
    1UNL    C21   31   0.444   0.390   0.039
    1UNL    C22   32   0.468   0.259   0.074
    1UNL    C23   33   0.373   0.171   0.020
    1UNL    C24   34   0.177  -0.145  -0.073
    1UNL    C25   35   0.027  -0.135  -0.070
    1UNL    C26   36  -0.025  -0.247   0.016
    1UNL     H1   37  -0.241  -0.559  -0.102
    1UNL     H2   38  -0.195  -0.395  -0.176
    1UNL     H3   39  -0.212  -0.443   0.117
    1UNL     H4   40  -0.234  -0.192  -0.046
    1UNL     H5   41  -0.318  -0.166   0.181
    1UNL     H6   42  -0.328   0.030   0.116
    1UNL     H7   43  -0.262   0.035  -0.240
    1UNL     H8   44  -0.455   0.126  -0.030
    1UNL     H9   45  -0.468   0.108  -0.203
    1UNL    H10   46  -0.417  -0.105  -0.013
    1UNL    H11   47  -0.110   0.207  -0.169
    1UNL    H12   48  -0.360   0.349  -0.211
    1UNL    H13   49  -0.163   0.367  -0.007
    1UNL    H14   50  -0.373   0.359   0.110
    1UNL    H15   51  -0.211   0.215   0.212
    1UNL    H16   52   0.003   0.126   0.171
    1UNL    H17   53   0.022  -0.305   0.350
    1UNL    H18   54   0.450  -0.289   0.082
    1UNL    H19   55   0.436  -0.221  -0.083
    1UNL    H20   56   0.546  -0.060   0.062
    1UNL    H21   57   0.416  -0.085   0.181
    1UNL    H22   58   0.097   0.127  -0.164
    1UNL    H23   59   0.160   0.380  -0.152
    1UNL    H24   60   0.320   0.548  -0.045
    1UNL    H25   61   0.512   0.471   0.061
    1UNL    H26   62   0.554   0.226   0.137
    1UNL    H27   63   0.208  -0.183  -0.168
    1UNL    H28   64  -0.035  -0.149  -0.165
    1UNL    H29   65  -0.006  -0.043  -0.020
    1UNL    H30   66   0.010  -0.336  -0.046
   0.00000   0.00000   0.00000   0.00000   0.00000   0.00000   0.00000   0.00000   0.00000
Generated with MDTraj, t= 48.0
 66
    1UNL     C1    1  -0.233  -0.473  -0.068
    1UNL     C2    2  -0.252  -0.392   0.036
    1UNL     C3    3  -0.175  -0.260   0.036
    1UNL     C4    4  -0.203  -0.189   0.168
    1UNL     O1    5  -0.175  -0.047   0.166
    1UNL     C5    6  -0.246   0.033   0.073
    1UNL     O2    7  -0.223  -0.010  -0.057
    1UNL     C6    8  -0.291   0.073  -0.158
    1UNL     C7    9  -0.440   0.076  -0.131
    1UNL     O3   10  -0.483  -0.053  -0.091
    1UNL     C8   11  -0.238   0.215  -0.143
    1UNL     O4   12  -0.297   0.306  -0.227
    1UNL     C9   13  -0.245   0.276   0.000
    1UNL     O5   14  -0.378   0.321   0.033
    1UNL    C10   15  -0.190   0.170   0.098
    1UNL     O6   16  -0.049   0.167   0.076
    1UNL     O7   17  -0.149  -0.266   0.275
    1UNL    C11   18  -0.012  -0.278   0.270
    1UNL    C12   19   0.056  -0.274   0.155
    1UNL    C13   20   0.199  -0.260   0.150
    1UNL     O8   21   0.278  -0.272   0.250
    1UNL     N1   22   0.261  -0.223   0.031
    1UNL    C14   23   0.408  -0.211   0.010
    1UNL    C15   24   0.447  -0.075   0.059
    1UNL    C16   25   0.362   0.029  -0.002
    1UNL    C17   26   0.245  -0.000  -0.068
    1UNL     N2   27   0.190   0.118  -0.107
    1UNL    C18   28   0.270   0.231  -0.060
    1UNL    C19   29   0.278   0.371  -0.069
    1UNL    C20   30   0.383   0.438  -0.012
    1UNL    C21   31   0.478   0.376   0.068
    1UNL    C22   32   0.482   0.238   0.070
    1UNL    C23   33   0.379   0.168   0.004
    1UNL    C24   34   0.188  -0.133  -0.069
    1UNL    C25   35   0.036  -0.141  -0.054
    1UNL    C26   36  -0.018  -0.266   0.024
    1UNL     H1   37  -0.282  -0.568  -0.067
    1UNL     H2   38  -0.161  -0.463  -0.146
    1UNL     H3   39  -0.312  -0.424   0.118
    1UNL     H4   40  -0.220  -0.202  -0.042
    1UNL     H5   41  -0.311  -0.205   0.183
    1UNL     H6   42  -0.352   0.023   0.098
    1UNL     H7   43  -0.272   0.038  -0.255
    1UNL     H8   44  -0.452   0.148  -0.053
    1UNL     H9   45  -0.499   0.110  -0.211
    1UNL    H10   46  -0.487  -0.114  -0.170
    1UNL    H11   47  -0.127   0.207  -0.169
    1UNL    H12   48  -0.370   0.346  -0.184
    1UNL    H13   49  -0.187   0.362   0.008
    1UNL    H14   50  -0.381   0.356   0.125
    1UNL    H15   51  -0.222   0.202   0.205
    1UNL    H16   52  -0.005   0.092   0.130
    1UNL    H17   53   0.045  -0.274   0.361
    1UNL    H18   54   0.459  -0.289   0.064
    1UNL    H19   55   0.432  -0.215  -0.091
    1UNL    H20   56   0.551  -0.045   0.035
    1UNL    H21   57   0.436  -0.071   0.162
    1UNL    H22   58   0.084   0.127  -0.128
    1UNL    H23   59   0.201   0.423  -0.117
    1UNL    H24   60   0.380   0.543  -0.045
    1UNL    H25   61   0.537   0.435   0.137
    1UNL    H26   62   0.568   0.195   0.122
    1UNL    H27   63   0.214  -0.175  -0.165
    1UNL    H28   64  -0.015  -0.142  -0.157
    1UNL    H29   65  -0.009  -0.060  -0.001
    1UNL    H30   66   0.012  -0.353  -0.041
   0.00000   0.00000   0.00000   0.00000   0.00000   0.00000   0.00000   0.00000   0.00000
Generated with MDTraj, t= 49.0
 66
    1UNL     C1    1  -0.251  -0.478  -0.055
    1UNL     C2    2  -0.195  -0.409   0.042
    1UNL     C3    3  -0.166  -0.261   0.033
    1UNL     C4    4  -0.211  -0.182   0.159
    1UNL     O1    5  -0.159  -0.049   0.154
    1UNL     C5    6  -0.246   0.032   0.080
    1UNL     O2    7  -0.251  -0.015  -0.056
    1UNL     C6    8  -0.314   0.078  -0.148
    1UNL     C7    9  -0.470   0.076  -0.118
    1UNL     O3   10  -0.525  -0.049  -0.150
    1UNL     C8   11  -0.251   0.217  -0.142
    1UNL     O4   12  -0.320   0.314  -0.222
    1UNL     C9   13  -0.248   0.274  -0.002
    1UNL     O5   14  -0.385   0.294   0.032
    1UNL    C10   15  -0.181   0.171   0.090
    1UNL     O6   16  -0.036   0.180   0.077
    1UNL     O7   17  -0.155  -0.250   0.278
    1UNL    C11   18  -0.018  -0.247   0.264
    1UNL    C12   19   0.056  -0.241   0.146
    1UNL    C13   20   0.198  -0.250   0.145
    1UNL     O8   21   0.254  -0.272   0.256
    1UNL     N1   22   0.265  -0.221   0.029
    1UNL    C14   23   0.412  -0.234   0.022
    1UNL    C15   24   0.472  -0.094   0.051
    1UNL    C16   25   0.383   0.018  -0.006
    1UNL    C17   26   0.258  -0.003  -0.056
    1UNL     N2   27   0.199   0.122  -0.060
    1UNL    C18   28   0.289   0.222  -0.035
    1UNL    C19   29   0.272   0.358  -0.044
    1UNL    C20   30   0.372   0.436  -0.004
    1UNL    C21   31   0.490   0.381   0.042
    1UNL    C22   32   0.503   0.245   0.048
    1UNL    C23   33   0.398   0.159   0.013
    1UNL    C24   34   0.202  -0.137  -0.069
    1UNL    C25   35   0.041  -0.141  -0.076
    1UNL    C26   36  -0.010  -0.253   0.012
    1UNL     H1   37  -0.249  -0.586  -0.047
    1UNL     H2   38  -0.284  -0.435  -0.148
    1UNL     H3   39  -0.164  -0.457   0.136
    1UNL     H4   40  -0.216  -0.213  -0.047
    1UNL     H5   41  -0.323  -0.181   0.177
    1UNL     H6   42  -0.343   0.021   0.126
    1UNL     H7   43  -0.299   0.056  -0.248
    1UNL     H8   44  -0.508   0.110  -0.023
    1UNL     H9   45  -0.512   0.142  -0.191
    1UNL    H10   46  -0.535  -0.104  -0.067
    1UNL    H11   47  -0.144   0.206  -0.176
    1UNL    H12   48  -0.395   0.345  -0.166
    1UNL    H13   49  -0.198   0.367   0.007
    1UNL    H14   50  -0.386   0.326   0.126
    1UNL    H15   51  -0.217   0.208   0.195
    1UNL    H16   52   0.005   0.108   0.123
    1UNL    H17   53   0.035  -0.251   0.357
    1UNL    H18   54   0.436  -0.301   0.102
    1UNL    H19   55   0.438  -0.279  -0.067
    1UNL    H20   56   0.578  -0.087   0.028
    1UNL    H21   57   0.469  -0.073   0.153
    1UNL    H22   58   0.101   0.147  -0.094
    1UNL    H23   59   0.174   0.393  -0.080
    1UNL    H24   60   0.354   0.541  -0.001
    1UNL    H25   61   0.567   0.455   0.061
    1UNL    H26   62   0.593   0.206   0.079
    1UNL    H27   63   0.235  -0.183  -0.161
    1UNL    H28   64   0.005  -0.158  -0.185
    1UNL    H29   65  -0.001  -0.050  -0.042
    1UNL    H30   66   0.023  -0.349  -0.036
   0.00000   0.00000   0.00000   0.00000   0.00000   0.00000   0.00000   0.00000   0.00000
Generated with MDTraj, t= 50.0
 66
    1UNL     C1    1  -0.271  -0.456  -0.079
    1UNL     C2    2  -0.227  -0.402   0.035
    1UNL     C3    3  -0.160  -0.270   0.054
    1UNL     C4    4  -0.197  -0.193   0.177
    1UNL     O1    5  -0.168  -0.054   0.158
    1UNL     C5    6  -0.246   0.029   0.065
    1UNL     O2    7  -0.256  -0.003  -0.072
    1UNL     C6    8  -0.322   0.093  -0.158
    1UNL     C7    9  -0.470   0.078  -0.130
    1UNL     O3   10  -0.516  -0.052  -0.131
    1UNL     C8   11  -0.267   0.233  -0.155
    1UNL     O4   12  -0.344   0.329  -0.238
    1UNL     C9   13  -0.270   0.285  -0.008
    1UNL     O5   14  -0.409   0.301   0.032
    1UNL    C10   15  -0.195   0.174   0.075
    1UNL     O6   16  -0.055   0.188   0.050
    1UNL     O7   17  -0.133  -0.250   0.293
    1UNL    C11   18  -0.005  -0.272   0.272
    1UNL    C12   19   0.068  -0.279   0.156
    1UNL    C13   20   0.208  -0.267   0.158
    1UNL     O8   21   0.277  -0.280   0.265
    1UNL     N1   22   0.268  -0.225   0.041
    1UNL    C14   23   0.417  -0.222   0.034
    1UNL    C15   24   0.483  -0.085   0.032
    1UNL    C16   25   0.385   0.024  -0.008
    1UNL    C17   26   0.260   0.000  -0.048
    1UNL     N2   27   0.196   0.118  -0.068
    1UNL    C18   28   0.288   0.220  -0.035
    1UNL    C19   29   0.272   0.363  -0.021
    1UNL    C20   30   0.377   0.439   0.017
    1UNL    C21   31   0.502   0.374   0.041
    1UNL    C22   32   0.526   0.240   0.031
    1UNL    C23   33   0.414   0.161  -0.002
    1UNL    C24   34   0.209  -0.137  -0.064
    1UNL    C25   35   0.048  -0.150  -0.049
    1UNL    C26   36  -0.003  -0.273   0.029
    1UNL     H1   37  -0.329  -0.545  -0.088
    1UNL     H2   38  -0.282  -0.388  -0.161
    1UNL     H3   39  -0.230  -0.458   0.126
    1UNL     H4   40  -0.196  -0.199  -0.017
    1UNL     H5   41  -0.307  -0.207   0.198
    1UNL     H6   42  -0.344   0.017   0.108
    1UNL     H7   43  -0.304   0.052  -0.253
    1UNL     H8   44  -0.491   0.119  -0.033
    1UNL     H9   45  -0.539   0.128  -0.200
    1UNL    H10   46  -0.483  -0.097  -0.212
    1UNL    H11   47  -0.166   0.225  -0.201
    1UNL    H12   48  -0.435   0.339  -0.190
    1UNL    H13   49  -0.214   0.376  -0.013
    1UNL    H14   50  -0.411   0.319   0.128
    1UNL    H15   51  -0.224   0.207   0.184
    1UNL    H16   52  -0.003   0.125   0.111
    1UNL    H17   53   0.038  -0.299   0.369
    1UNL    H18   54   0.441  -0.278   0.123
    1UNL    H19   55   0.451  -0.279  -0.046
    1UNL    H20   56   0.565  -0.078  -0.032
    1UNL    H21   57   0.530  -0.072   0.126
    1UNL    H22   58   0.094   0.126  -0.099
    1UNL    H23   59   0.176   0.404  -0.040
    1UNL    H24   60   0.378   0.548   0.026
    1UNL    H25   61   0.583   0.441   0.069
    1UNL    H26   62   0.628   0.194   0.056
    1UNL    H27   63   0.236  -0.169  -0.163
    1UNL    H28   64   0.015  -0.153  -0.158
    1UNL    H29   65   0.008  -0.058  -0.004
    1UNL    H30   66   0.024  -0.365  -0.028
   0.00000   0.00000   0.00000   0.00000   0.00000   0.00000   0.00000   0.00000   0.00000
Generated with MDTraj, t= 51.0
 66
    1UNL     C1    1  -0.277  -0.432  -0.083
    1UNL     C2    2  -0.218  -0.381   0.025
    1UNL     C3    3  -0.156  -0.239   0.023
    1UNL     C4    4  -0.204  -0.169   0.153
    1UNL     O1    5  -0.164  -0.035   0.163
    1UNL     C5    6  -0.242   0.043   0.074
    1UNL     O2    7  -0.226   0.003  -0.062
    1UNL     C6    8  -0.312   0.072  -0.161
    1UNL     C7    9  -0.466   0.051  -0.126
    1UNL     O3   10  -0.485  -0.082  -0.098
    1UNL     C8   11  -0.276   0.214  -0.150
    1UNL     O4   12  -0.355   0.290  -0.246
    1UNL     C9   13  -0.289   0.278  -0.009
    1UNL     O5   14  -0.422   0.293   0.036
    1UNL    C10   15  -0.208   0.193   0.095
    1UNL     O6   16  -0.062   0.210   0.092
    1UNL     O7   17  -0.152  -0.236   0.270
    1UNL    C11   18  -0.013  -0.247   0.273
    1UNL    C12   19   0.064  -0.250   0.161
    1UNL    C13   20   0.203  -0.266   0.150
    1UNL     O8   21   0.263  -0.321   0.245
    1UNL     N1   22   0.274  -0.224   0.038
    1UNL    C14   23   0.419  -0.229   0.036
    1UNL    C15   24   0.491  -0.096   0.034
    1UNL    C16   25   0.394   0.015   0.000
    1UNL    C17   26   0.267  -0.004  -0.053
    1UNL     N2   27   0.204   0.111  -0.080
    1UNL    C18   28   0.286   0.209  -0.036
    1UNL    C19   29   0.274   0.352  -0.025
    1UNL    C20   30   0.378   0.430   0.016
    1UNL    C21   31   0.502   0.371   0.043
    1UNL    C22   32   0.517   0.236   0.041
    1UNL    C23   33   0.411   0.154   0.001
    1UNL    C24   34   0.211  -0.141  -0.064
    1UNL    C25   35   0.052  -0.133  -0.062
    1UNL    C26   36   0.000  -0.246   0.023
    1UNL     H1   37  -0.358  -0.502  -0.068
    1UNL     H2   38  -0.264  -0.377  -0.175
    1UNL     H3   39  -0.242  -0.417   0.125
    1UNL     H4   40  -0.191  -0.183  -0.059
    1UNL     H5   41  -0.316  -0.183   0.164
    1UNL     H6   42  -0.343   0.020   0.107
    1UNL     H7   43  -0.285   0.037  -0.259
    1UNL     H8   44  -0.500   0.103  -0.039
    1UNL     H9   45  -0.529   0.089  -0.213
    1UNL    H10   46  -0.407  -0.131  -0.128
    1UNL    H11   47  -0.171   0.221  -0.177
    1UNL    H12   48  -0.440   0.301  -0.208
    1UNL    H13   49  -0.235   0.372  -0.024
    1UNL    H14   50  -0.425   0.309   0.131
    1UNL    H15   51  -0.246   0.230   0.200
    1UNL    H16   52  -0.024   0.140   0.141
    1UNL    H17   53   0.031  -0.272   0.370
    1UNL    H18   54   0.450  -0.281   0.124
    1UNL    H19   55   0.443  -0.290  -0.046
    1UNL    H20   56   0.568  -0.112  -0.032
    1UNL    H21   57   0.551  -0.072   0.119
    1UNL    H22   58   0.110   0.115  -0.123
    1UNL    H23   59   0.181   0.398  -0.052
    1UNL    H24   60   0.369   0.539   0.011
    1UNL    H25   61   0.588   0.423   0.081
    1UNL    H26   62   0.607   0.193   0.070
    1UNL    H27   63   0.243  -0.186  -0.158
    1UNL    H28   64   0.005  -0.133  -0.164
    1UNL    H29   65   0.018  -0.034  -0.015
    1UNL    H30   66   0.033  -0.346  -0.016
   0.00000   0.00000   0.00000   0.00000   0.00000   0.00000   0.00000   0.00000   0.00000
Generated with MDTraj, t= 52.0
 66
    1UNL     C1    1  -0.275  -0.417  -0.087
    1UNL     C2    2  -0.245  -0.364   0.031
    1UNL     C3    3  -0.166  -0.237   0.032
    1UNL     C4    4  -0.192  -0.166   0.170
    1UNL     O1    5  -0.162  -0.023   0.176
    1UNL     C5    6  -0.233   0.047   0.073
    1UNL     O2    7  -0.209   0.006  -0.055
    1UNL     C6    8  -0.291   0.072  -0.151
    1UNL     C7    9  -0.437   0.028  -0.118
    1UNL     O3   10  -0.455  -0.112  -0.088
    1UNL     C8   11  -0.272   0.229  -0.147
    1UNL     O4   12  -0.362   0.277  -0.252
    1UNL     C9   13  -0.300   0.295  -0.004
    1UNL     O5   14  -0.442   0.292   0.024
    1UNL    C10   15  -0.218   0.202   0.095
    1UNL     O6   16  -0.085   0.231   0.076
    1UNL     O7   17  -0.145  -0.244   0.278
    1UNL    C11   18  -0.015  -0.280   0.260
    1UNL    C12   19   0.060  -0.264   0.151
    1UNL    C13   20   0.200  -0.273   0.143
    1UNL     O8   21   0.273  -0.312   0.239
    1UNL     N1   22   0.270  -0.235   0.023
    1UNL    C14   23   0.413  -0.236   0.022
    1UNL    C15   24   0.465  -0.095   0.062
    1UNL    C16   25   0.381   0.012   0.003
    1UNL    C17   26   0.259   0.000  -0.058
    1UNL     N2   27   0.214   0.128  -0.087
    1UNL    C18   28   0.306   0.218  -0.056
    1UNL    C19   29   0.292   0.353  -0.055
    1UNL    C20   30   0.389   0.424   0.012
    1UNL    C21   31   0.504   0.368   0.063
    1UNL    C22   32   0.515   0.229   0.061
    1UNL    C23   33   0.412   0.154   0.006
    1UNL    C24   34   0.201  -0.135  -0.073
    1UNL    C25   35   0.049  -0.129  -0.054
    1UNL    C26   36  -0.012  -0.256   0.012
    1UNL     H1   37  -0.304  -0.520  -0.099
    1UNL     H2   38  -0.242  -0.361  -0.172
    1UNL     H3   39  -0.274  -0.405   0.126
    1UNL     H4   40  -0.204  -0.174  -0.044
    1UNL     H5   41  -0.300  -0.184   0.191
    1UNL     H6   42  -0.336   0.019   0.094
    1UNL     H7   43  -0.248   0.033  -0.244
    1UNL     H8   44  -0.473   0.099  -0.045
    1UNL     H9   45  -0.508   0.041  -0.209
    1UNL    H10   46  -0.441  -0.132   0.006
    1UNL    H11   47  -0.174   0.256  -0.174
    1UNL    H12   48  -0.445   0.318  -0.213
    1UNL    H13   49  -0.260   0.399   0.003
    1UNL    H14   50  -0.469   0.325   0.112
    1UNL    H15   51  -0.252   0.225   0.206
    1UNL    H16   52  -0.035   0.152   0.106
    1UNL    H17   53   0.046  -0.308   0.345
    1UNL    H18   54   0.448  -0.309   0.090
    1UNL    H19   55   0.445  -0.261  -0.077
    1UNL    H20   56   0.563  -0.070   0.041
    1UNL    H21   57   0.468  -0.097   0.168
    1UNL    H22   58   0.116   0.153  -0.120
    1UNL    H23   59   0.206   0.401  -0.104
    1UNL    H24   60   0.376   0.527   0.035
    1UNL    H25   61   0.584   0.430   0.101
    1UNL    H26   62   0.594   0.173   0.108
    1UNL    H27   63   0.227  -0.160  -0.177
    1UNL    H28   64  -0.008  -0.106  -0.147
    1UNL    H29   65   0.016  -0.042   0.016
    1UNL    H30   66   0.014  -0.349  -0.040
   0.00000   0.00000   0.00000   0.00000   0.00000   0.00000   0.00000   0.00000   0.00000
Generated with MDTraj, t= 53.0
 66
    1UNL     C1    1  -0.269  -0.418  -0.070
    1UNL     C2    2  -0.233  -0.372   0.048
    1UNL     C3    3  -0.172  -0.241   0.054
    1UNL     C4    4  -0.194  -0.164   0.186
    1UNL     O1    5  -0.158  -0.027   0.159
    1UNL     C5    6  -0.239   0.049   0.074
    1UNL     O2    7  -0.215   0.006  -0.062
    1UNL     C6    8  -0.300   0.068  -0.158
    1UNL     C7    9  -0.448   0.027  -0.143
    1UNL     O3   10  -0.465  -0.111  -0.155
    1UNL     C8   11  -0.279   0.218  -0.146
    1UNL     O4   12  -0.370   0.302  -0.219
    1UNL     C9   13  -0.296   0.271  -0.006
    1UNL     O5   14  -0.434   0.252   0.033
    1UNL    C10   15  -0.201   0.207   0.100
    1UNL     O6   16  -0.061   0.234   0.074
    1UNL     O7   17  -0.125  -0.227   0.299
    1UNL    C11   18   0.001  -0.259   0.272
    1UNL    C12   19   0.058  -0.261   0.152
    1UNL    C13   20   0.199  -0.278   0.129
    1UNL     O8   21   0.273  -0.319   0.224
    1UNL     N1   22   0.260  -0.239   0.006
    1UNL    C14   23   0.403  -0.236   0.007
    1UNL    C15   24   0.456  -0.105   0.078
    1UNL    C16   25   0.371   0.014   0.025
    1UNL    C17   26   0.260  -0.004  -0.053
    1UNL     N2   27   0.214   0.123  -0.099
    1UNL    C18   28   0.298   0.224  -0.050
    1UNL    C19   29   0.313   0.362  -0.073
    1UNL    C20   30   0.414   0.435  -0.018
    1UNL    C21   31   0.505   0.369   0.071
    1UNL    C22   32   0.506   0.232   0.093
    1UNL    C23   33   0.401   0.161   0.029
    1UNL    C24   34   0.190  -0.136  -0.078
    1UNL    C25   35   0.036  -0.121  -0.058
    1UNL    C26   36  -0.025  -0.240   0.023
    1UNL     H1   37  -0.335  -0.501  -0.084
    1UNL     H2   38  -0.241  -0.360  -0.157
    1UNL     H3   39  -0.246  -0.435   0.135
    1UNL     H4   40  -0.220  -0.177  -0.022
    1UNL     H5   41  -0.297  -0.174   0.221
    1UNL     H6   42  -0.344   0.021   0.096
    1UNL     H7   43  -0.257   0.039  -0.259
    1UNL     H8   44  -0.496   0.055  -0.049
    1UNL     H9   45  -0.505   0.084  -0.227
    1UNL    H10   46  -0.421  -0.157  -0.078
    1UNL    H11   47  -0.183   0.244  -0.176
    1UNL    H12   48  -0.454   0.334  -0.171
    1UNL    H13   49  -0.272   0.382  -0.007
    1UNL    H14   50  -0.443   0.263   0.131
    1UNL    H15   51  -0.234   0.244   0.207
    1UNL    H16   52  -0.009   0.153   0.109
    1UNL    H17   53   0.062  -0.276   0.359
    1UNL    H18   54   0.439  -0.318   0.060
    1UNL    H19   55   0.443  -0.248  -0.093
    1UNL    H20   56   0.562  -0.098   0.073
    1UNL    H21   57   0.442  -0.096   0.182
    1UNL    H22   58   0.112   0.145  -0.130
    1UNL    H23   59   0.244   0.415  -0.131
    1UNL    H24   60   0.428   0.544  -0.039
    1UNL    H25   61   0.579   0.422   0.130
    1UNL    H26   62   0.586   0.176   0.153
    1UNL    H27   63   0.214  -0.166  -0.182
    1UNL    H28   64  -0.017  -0.114  -0.157
    1UNL    H29   65   0.015  -0.019  -0.007
    1UNL    H30   66  -0.013  -0.333  -0.036
   0.00000   0.00000   0.00000   0.00000   0.00000   0.00000   0.00000   0.00000   0.00000
Generated with MDTraj, t= 54.0
 66
    1UNL     C1    1  -0.281  -0.470  -0.023
    1UNL     C2    2  -0.229  -0.396   0.074
    1UNL     C3    3  -0.167  -0.259   0.055
    1UNL     C4    4  -0.198  -0.166   0.180
    1UNL     O1    5  -0.156  -0.026   0.165
    1UNL     C5    6  -0.236   0.043   0.074
    1UNL     O2    7  -0.231   0.008  -0.061
    1UNL     C6    8  -0.310   0.093  -0.147
    1UNL     C7    9  -0.459   0.043  -0.149
    1UNL     O3   10  -0.467  -0.083  -0.213
    1UNL     C8   11  -0.282   0.246  -0.135
    1UNL     O4   12  -0.370   0.325  -0.219
    1UNL     C9   13  -0.293   0.287   0.015
    1UNL     O5   14  -0.435   0.261   0.042
    1UNL    C10   15  -0.201   0.191   0.092
    1UNL     O6   16  -0.078   0.223   0.044
    1UNL     O7   17  -0.127  -0.229   0.291
    1UNL    C11   18   0.001  -0.252   0.263
    1UNL    C12   19   0.065  -0.264   0.143
    1UNL    C13   20   0.209  -0.277   0.134
    1UNL     O8   21   0.281  -0.325   0.229
    1UNL     N1   22   0.274  -0.238   0.014
    1UNL    C14   23   0.417  -0.233   0.023
    1UNL    C15   24   0.453  -0.095   0.077
    1UNL    C16   25   0.376   0.018   0.018
    1UNL    C17   26   0.253  -0.002  -0.048
    1UNL     N2   27   0.206   0.123  -0.086
    1UNL    C18   28   0.292   0.225  -0.044
    1UNL    C19   29   0.304   0.366  -0.064
    1UNL    C20   30   0.414   0.432  -0.016
    1UNL    C21   31   0.516   0.368   0.059
    1UNL    C22   32   0.510   0.234   0.085
    1UNL    C23   33   0.398   0.166   0.029
    1UNL    C24   34   0.199  -0.138  -0.080
    1UNL    C25   35   0.039  -0.143  -0.067
    1UNL    C26   36  -0.014  -0.261   0.019
    1UNL     H1   37  -0.334  -0.561  -0.000
    1UNL     H2   38  -0.279  -0.430  -0.123
    1UNL     H3   39  -0.212  -0.445   0.169
    1UNL     H4   40  -0.200  -0.207  -0.040
    1UNL     H5   41  -0.301  -0.165   0.205
    1UNL     H6   42  -0.344   0.021   0.098
    1UNL     H7   43  -0.261   0.059  -0.247
    1UNL     H8   44  -0.503   0.046  -0.049
    1UNL     H9   45  -0.528   0.105  -0.220
    1UNL    H10   46  -0.413  -0.150  -0.162
    1UNL    H11   47  -0.186   0.270  -0.167
    1UNL    H12   48  -0.451   0.347  -0.174
    1UNL    H13   49  -0.258   0.396   0.029
    1UNL    H14   50  -0.460   0.265   0.138
    1UNL    H15   51  -0.203   0.215   0.207
    1UNL    H16   52  -0.013   0.151   0.066
    1UNL    H17   53   0.047  -0.276   0.359
    1UNL    H18   54   0.450  -0.314   0.078
    1UNL    H19   55   0.465  -0.242  -0.076
    1UNL    H20   56   0.556  -0.065   0.063
    1UNL    H21   57   0.450  -0.096   0.179
    1UNL    H22   58   0.142   0.141  -0.171
    1UNL    H23   59   0.221   0.422  -0.112
    1UNL    H24   60   0.424   0.533  -0.038
    1UNL    H25   61   0.606   0.416   0.090
    1UNL    H26   62   0.578   0.173   0.130
    1UNL    H27   63   0.224  -0.172  -0.184
    1UNL    H28   64  -0.005  -0.139  -0.171
    1UNL    H29   65   0.012  -0.050  -0.011
    1UNL    H30   66   0.005  -0.358  -0.029
   0.00000   0.00000   0.00000   0.00000   0.00000   0.00000   0.00000   0.00000   0.00000
Generated with MDTraj, t= 55.0
 66
    1UNL     C1    1  -0.275  -0.478  -0.021
    1UNL     C2    2  -0.219  -0.394   0.070
    1UNL     C3    3  -0.162  -0.259   0.042
    1UNL     C4    4  -0.198  -0.172   0.169
    1UNL     O1    5  -0.144  -0.047   0.131
    1UNL     C5    6  -0.233   0.035   0.054
    1UNL     O2    7  -0.222   0.017  -0.088
    1UNL     C6    8  -0.295   0.110  -0.175
    1UNL     C7    9  -0.450   0.070  -0.169
    1UNL     O3   10  -0.469  -0.069  -0.186
    1UNL     C8   11  -0.280   0.255  -0.144
    1UNL     O4   12  -0.377   0.332  -0.211
    1UNL     C9   13  -0.298   0.276   0.009
    1UNL     O5   14  -0.436   0.276   0.060
    1UNL    C10   15  -0.201   0.186   0.092
    1UNL     O6   16  -0.064   0.213   0.076
    1UNL     O7   17  -0.135  -0.224   0.285
    1UNL    C11   18  -0.003  -0.257   0.279
    1UNL    C12   19   0.062  -0.274   0.160
    1UNL    C13   20   0.204  -0.282   0.147
    1UNL     O8   21   0.280  -0.312   0.245
    1UNL     N1   22   0.267  -0.238   0.027
    1UNL    C14   23   0.414  -0.236   0.022
    1UNL    C15   24   0.472  -0.099   0.064
    1UNL    C16   25   0.380   0.013   0.012
    1UNL    C17   26   0.254  -0.005  -0.038
    1UNL     N2   27   0.202   0.119  -0.065
    1UNL    C18   28   0.289   0.220  -0.043
    1UNL    C19   29   0.270   0.355  -0.050
    1UNL    C20   30   0.378   0.426  -0.008
    1UNL    C21   31   0.497   0.372   0.042
    1UNL    C22   32   0.510   0.238   0.047
    1UNL    C23   33   0.405   0.156   0.005
    1UNL    C24   34   0.203  -0.142  -0.065
    1UNL    C25   35   0.050  -0.142  -0.052
    1UNL    C26   36  -0.007  -0.262   0.025
    1UNL     H1   37  -0.280  -0.583   0.003
    1UNL     H2   38  -0.294  -0.455  -0.124
    1UNL     H3   39  -0.205  -0.421   0.174
    1UNL     H4   40  -0.195  -0.214  -0.058
    1UNL     H5   41  -0.303  -0.162   0.185
    1UNL     H6   42  -0.341   0.004   0.072
    1UNL     H7   43  -0.253   0.091  -0.283
    1UNL     H8   44  -0.504   0.095  -0.078
    1UNL     H9   45  -0.502   0.124  -0.258
    1UNL    H10   46  -0.418  -0.111  -0.114
    1UNL    H11   47  -0.188   0.294  -0.173
    1UNL    H12   48  -0.461   0.327  -0.158
    1UNL    H13   49  -0.260   0.386   0.016
    1UNL    H14   50  -0.438   0.259   0.156
    1UNL    H15   51  -0.223   0.202   0.204
    1UNL    H16   52  -0.019   0.142   0.119
    1UNL    H17   53   0.046  -0.260   0.377
    1UNL    H18   54   0.449  -0.314   0.082
    1UNL    H19   55   0.454  -0.264  -0.078
    1UNL    H20   56   0.576  -0.091   0.038
    1UNL    H21   57   0.475  -0.086   0.166
    1UNL    H22   58   0.099   0.136  -0.097
    1UNL    H23   59   0.175   0.383  -0.085
    1UNL    H24   60   0.376   0.539  -0.004
    1UNL    H25   61   0.582   0.436   0.065
    1UNL    H26   62   0.599   0.181   0.082
    1UNL    H27   63   0.231  -0.171  -0.171
    1UNL    H28   64  -0.002  -0.120  -0.152
    1UNL    H29   65   0.040  -0.061   0.019
    1UNL    H30   66   0.017  -0.357  -0.023
   0.00000   0.00000   0.00000   0.00000   0.00000   0.00000   0.00000   0.00000   0.00000
Generated with MDTraj, t= 56.0
 66
    1UNL     C1    1  -0.257  -0.469  -0.061
    1UNL     C2    2  -0.217  -0.395   0.044
    1UNL     C3    3  -0.160  -0.260   0.033
    1UNL     C4    4  -0.191  -0.170   0.160
    1UNL     O1    5  -0.140  -0.034   0.147
    1UNL     C5    6  -0.220   0.044   0.059
    1UNL     O2    7  -0.212   0.020  -0.079
    1UNL     C6    8  -0.291   0.110  -0.158
    1UNL     C7    9  -0.444   0.063  -0.143
    1UNL     O3   10  -0.439  -0.079  -0.143
    1UNL     C8   11  -0.264   0.257  -0.139
    1UNL     O4   12  -0.335   0.336  -0.232
    1UNL     C9   13  -0.294   0.290   0.015
    1UNL     O5   14  -0.434   0.290   0.051
    1UNL    C10   15  -0.203   0.190   0.096
    1UNL     O6   16  -0.068   0.214   0.089
    1UNL     O7   17  -0.149  -0.240   0.277
    1UNL    C11   18  -0.015  -0.253   0.276
    1UNL    C12   19   0.059  -0.255   0.166
    1UNL    C13   20   0.199  -0.267   0.159
    1UNL     O8   21   0.266  -0.298   0.262
    1UNL     N1   22   0.272  -0.233   0.044
    1UNL    C14   23   0.417  -0.235   0.044
    1UNL    C15   24   0.484  -0.094   0.025
    1UNL    C16   25   0.373   0.015  -0.006
    1UNL    C17   26   0.245  -0.014  -0.044
    1UNL     N2   27   0.179   0.102  -0.075
    1UNL    C18   28   0.265   0.207  -0.036
    1UNL    C19   29   0.253   0.347  -0.036
    1UNL    C20   30   0.354   0.430   0.005
    1UNL    C21   31   0.482   0.370   0.030
    1UNL    C22   32   0.497   0.237   0.030
    1UNL    C23   33   0.390   0.154  -0.002
    1UNL    C24   34   0.204  -0.161  -0.066
    1UNL    C25   35   0.050  -0.169  -0.074
    1UNL    C26   36  -0.010  -0.264   0.027
    1UNL     H1   37  -0.299  -0.567  -0.050
    1UNL     H2   38  -0.244  -0.431  -0.161
    1UNL     H3   39  -0.241  -0.421   0.146
    1UNL     H4   40  -0.198  -0.216  -0.066
    1UNL     H5   41  -0.296  -0.153   0.180
    1UNL     H6   42  -0.331   0.020   0.070
    1UNL     H7   43  -0.252   0.074  -0.262
    1UNL     H8   44  -0.487   0.106  -0.053
    1UNL     H9   45  -0.512   0.090  -0.232
    1UNL    H10   46  -0.358  -0.097  -0.093
    1UNL    H11   47  -0.162   0.274  -0.164
    1UNL    H12   48  -0.432   0.325  -0.203
    1UNL    H13   49  -0.257   0.400   0.036
    1UNL    H14   50  -0.436   0.285   0.147
    1UNL    H15   51  -0.231   0.204   0.204
    1UNL    H16   52  -0.018   0.128   0.118
    1UNL    H17   53   0.048  -0.269   0.364
    1UNL    H18   54   0.457  -0.281   0.128
    1UNL    H19   55   0.445  -0.305  -0.038
    1UNL    H20   56   0.566  -0.092  -0.045
    1UNL    H21   57   0.528  -0.077   0.119
    1UNL    H22   58   0.072   0.103  -0.089
    1UNL    H23   59   0.158   0.395  -0.058
    1UNL    H24   60   0.336   0.532   0.015
    1UNL    H25   61   0.568   0.430   0.061
    1UNL    H26   62   0.600   0.198   0.050
    1UNL    H27   63   0.255  -0.193  -0.163
    1UNL    H28   64   0.021  -0.210  -0.178
    1UNL    H29   65   0.006  -0.076  -0.054
    1UNL    H30   66   0.012  -0.363  -0.014
   0.00000   0.00000   0.00000   0.00000   0.00000   0.00000   0.00000   0.00000   0.00000
Generated with MDTraj, t= 57.0
 66
    1UNL     C1    1  -0.243  -0.443  -0.096
    1UNL     C2    2  -0.260  -0.360   0.003
    1UNL     C3    3  -0.171  -0.247   0.038
    1UNL     C4    4  -0.197  -0.174   0.176
    1UNL     O1    5  -0.152  -0.038   0.180
    1UNL     C5    6  -0.221   0.049   0.089
    1UNL     O2    7  -0.203   0.012  -0.051
    1UNL     C6    8  -0.270   0.088  -0.147
    1UNL     C7    9  -0.424   0.066  -0.131
    1UNL     O3   10  -0.452  -0.071  -0.142
    1UNL     C8   11  -0.235   0.235  -0.143
    1UNL     O4   12  -0.317   0.310  -0.236
    1UNL     C9   13  -0.264   0.282   0.006
    1UNL     O5   14  -0.407   0.286   0.022
    1UNL    C10   15  -0.185   0.202   0.116
    1UNL     O6   16  -0.042   0.216   0.105
    1UNL     O7   17  -0.148  -0.253   0.282
    1UNL    C11   18  -0.013  -0.262   0.272
    1UNL    C12   19   0.058  -0.246   0.160
    1UNL    C13   20   0.202  -0.250   0.162
    1UNL     O8   21   0.265  -0.261   0.275
    1UNL     N1   22   0.275  -0.236   0.040
    1UNL    C14   23   0.418  -0.227   0.042
    1UNL    C15   24   0.479  -0.089   0.023
    1UNL    C16   25   0.377   0.011  -0.022
    1UNL    C17   26   0.249  -0.027  -0.077
    1UNL     N2   27   0.178   0.088  -0.079
    1UNL    C18   28   0.254   0.197  -0.040
    1UNL    C19   29   0.217   0.334  -0.034
    1UNL    C20   30   0.317   0.424   0.004
    1UNL    C21   31   0.447   0.379   0.034
    1UNL    C22   32   0.489   0.243   0.029
    1UNL    C23   33   0.383   0.152  -0.008
    1UNL    C24   34   0.202  -0.166  -0.077
    1UNL    C25   35   0.048  -0.176  -0.077
    1UNL    C26   36  -0.018  -0.270   0.025
    1UNL     H1   37  -0.307  -0.528  -0.112
    1UNL     H2   38  -0.170  -0.415  -0.169
    1UNL     H3   39  -0.330  -0.392   0.078
    1UNL     H4   40  -0.196  -0.166  -0.039
    1UNL     H5   41  -0.305  -0.162   0.196
    1UNL     H6   42  -0.334   0.032   0.096
    1UNL     H7   43  -0.229   0.049  -0.247
    1UNL     H8   44  -0.468   0.098  -0.037
    1UNL     H9   45  -0.476   0.128  -0.212
    1UNL    H10   46  -0.390  -0.127  -0.087
    1UNL    H11   47  -0.137   0.256  -0.176
    1UNL    H12   48  -0.399   0.319  -0.191
    1UNL    H13   49  -0.239   0.398   0.009
    1UNL    H14   50  -0.428   0.287   0.119
    1UNL    H15   51  -0.222   0.230   0.215
    1UNL    H16   52  -0.004   0.147   0.168
    1UNL    H17   53   0.046  -0.285   0.358
    1UNL    H18   54   0.450  -0.268   0.133
    1UNL    H19   55   0.465  -0.294  -0.033
    1UNL    H20   56   0.548  -0.097  -0.056
    1UNL    H21   57   0.535  -0.050   0.113
    1UNL    H22   58   0.077   0.096  -0.110
    1UNL    H23   59   0.117   0.370  -0.047
    1UNL    H24   60   0.293   0.531   0.025
    1UNL    H25   61   0.511   0.459   0.063
    1UNL    H26   62   0.582   0.223   0.062
    1UNL    H27   63   0.238  -0.213  -0.175
    1UNL    H28   64   0.002  -0.199  -0.180
    1UNL    H29   65   0.020  -0.081  -0.038
    1UNL    H30   66  -0.001  -0.374  -0.001
   0.00000   0.00000   0.00000   0.00000   0.00000   0.00000   0.00000   0.00000   0.00000
Generated with MDTraj, t= 58.0
 66
    1UNL     C1    1  -0.258  -0.412  -0.113
    1UNL     C2    2  -0.236  -0.385   0.014
    1UNL     C3    3  -0.171  -0.257   0.051
    1UNL     C4    4  -0.212  -0.186   0.190
    1UNL     O1    5  -0.173  -0.046   0.181
    1UNL     C5    6  -0.230   0.044   0.084
    1UNL     O2    7  -0.203  -0.003  -0.047
    1UNL     C6    8  -0.261   0.080  -0.144
    1UNL     C7    9  -0.415   0.056  -0.155
    1UNL     O3   10  -0.446  -0.081  -0.158
    1UNL     C8   11  -0.213   0.232  -0.135
    1UNL     O4   12  -0.280   0.326  -0.223
    1UNL     C9   13  -0.222   0.290   0.012
    1UNL     O5   14  -0.363   0.317   0.029
    1UNL    C10   15  -0.170   0.188   0.111
    1UNL     O6   16  -0.028   0.181   0.098
    1UNL     O7   17  -0.138  -0.248   0.307
    1UNL    C11   18  -0.000  -0.244   0.289
    1UNL    C12   19   0.057  -0.250   0.166
    1UNL    C13   20   0.199  -0.253   0.157
    1UNL     O8   21   0.272  -0.252   0.263
    1UNL     N1   22   0.266  -0.237   0.035
    1UNL    C14   23   0.413  -0.227   0.026
    1UNL    C15   24   0.461  -0.078   0.044
    1UNL    C16   25   0.365   0.018  -0.029
    1UNL    C17   26   0.242  -0.019  -0.076
    1UNL     N2   27   0.164   0.091  -0.106
    1UNL    C18   28   0.237   0.203  -0.066
    1UNL    C19   29   0.211   0.334  -0.056
    1UNL    C20   30   0.298   0.421   0.006
    1UNL    C21   31   0.416   0.381   0.056
    1UNL    C22   32   0.445   0.248   0.043
    1UNL    C23   33   0.357   0.157  -0.021
    1UNL    C24   34   0.192  -0.164  -0.077
    1UNL    C25   35   0.036  -0.179  -0.075
    1UNL    C26   36  -0.016  -0.266   0.039
    1UNL     H1   37  -0.316  -0.499  -0.138
    1UNL     H2   38  -0.231  -0.346  -0.195
    1UNL     H3   39  -0.238  -0.463   0.089
    1UNL     H4   40  -0.201  -0.188  -0.029
    1UNL     H5   41  -0.323  -0.205   0.199
    1UNL     H6   42  -0.343   0.044   0.089
    1UNL     H7   43  -0.208   0.038  -0.233
    1UNL     H8   44  -0.466   0.102  -0.072
    1UNL     H9   45  -0.467   0.103  -0.243
    1UNL    H10   46  -0.397  -0.133  -0.088
    1UNL    H11   47  -0.111   0.237  -0.164
    1UNL    H12   48  -0.359   0.364  -0.173
    1UNL    H13   49  -0.155   0.386   0.033
    1UNL    H14   50  -0.388   0.343   0.122
    1UNL    H15   51  -0.187   0.216   0.213
    1UNL    H16   52  -0.000   0.117   0.160
    1UNL    H17   53   0.062  -0.251   0.377
    1UNL    H18   54   0.465  -0.288   0.096
    1UNL    H19   55   0.447  -0.273  -0.071
    1UNL    H20   56   0.559  -0.066   0.009
    1UNL    H21   57   0.457  -0.047   0.155
    1UNL    H22   58   0.062   0.099  -0.087
    1UNL    H23   59   0.118   0.367  -0.097
    1UNL    H24   60   0.267   0.523   0.003
    1UNL    H25   61   0.485   0.458   0.094
    1UNL    H26   62   0.548   0.210   0.074
    1UNL    H27   63   0.227  -0.207  -0.175
    1UNL    H28   64   0.001  -0.223  -0.176
    1UNL    H29   65   0.003  -0.080  -0.048
    1UNL    H30   66   0.013  -0.369   0.019
   0.00000   0.00000   0.00000   0.00000   0.00000   0.00000   0.00000   0.00000   0.00000
Generated with MDTraj, t= 59.0
 66
    1UNL     C1    1  -0.322  -0.441  -0.036
    1UNL     C2    2  -0.241  -0.397   0.059
    1UNL     C3    3  -0.174  -0.264   0.052
    1UNL     C4    4  -0.202  -0.184   0.183
    1UNL     O1    5  -0.152  -0.054   0.181
    1UNL     C5    6  -0.213   0.027   0.076
    1UNL     O2    7  -0.184  -0.009  -0.061
    1UNL     C6    8  -0.245   0.080  -0.155
    1UNL     C7    9  -0.400   0.087  -0.157
    1UNL     O3   10  -0.464  -0.037  -0.173
    1UNL     C8   11  -0.188   0.224  -0.129
    1UNL     O4   12  -0.239   0.327  -0.212
    1UNL     C9   13  -0.205   0.268   0.014
    1UNL     O5   14  -0.343   0.303   0.029
    1UNL    C10   15  -0.157   0.170   0.114
    1UNL     O6   16  -0.014   0.164   0.101
    1UNL     O7   17  -0.146  -0.255   0.290
    1UNL    C11   18  -0.012  -0.269   0.272
    1UNL    C12   19   0.059  -0.268   0.153
    1UNL    C13   20   0.199  -0.254   0.150
    1UNL     O8   21   0.270  -0.251   0.257
    1UNL     N1   22   0.267  -0.235   0.030
    1UNL    C14   23   0.411  -0.211   0.021
    1UNL    C15   24   0.452  -0.072   0.056
    1UNL    C16   25   0.344   0.023  -0.000
    1UNL    C17   26   0.234  -0.012  -0.074
    1UNL     N2   27   0.163   0.097  -0.115
    1UNL    C18   28   0.231   0.216  -0.069
    1UNL    C19   29   0.193   0.350  -0.081
    1UNL    C20   30   0.278   0.440  -0.028
    1UNL    C21   31   0.387   0.395   0.052
    1UNL    C22   32   0.419   0.265   0.076
    1UNL    C23   33   0.347   0.168   0.006
    1UNL    C24   34   0.201  -0.157  -0.085
    1UNL    C25   35   0.042  -0.173  -0.078
    1UNL    C26   36  -0.018  -0.281   0.019
    1UNL     H1   37  -0.350  -0.545  -0.031
    1UNL     H2   38  -0.340  -0.403  -0.134
    1UNL     H3   39  -0.212  -0.458   0.143
    1UNL     H4   40  -0.214  -0.202  -0.025
    1UNL     H5   41  -0.315  -0.186   0.206
    1UNL     H6   42  -0.326   0.017   0.080
    1UNL     H7   43  -0.212   0.044  -0.251
    1UNL     H8   44  -0.434   0.127  -0.064
    1UNL     H9   45  -0.436   0.162  -0.229
    1UNL    H10   46  -0.420  -0.091  -0.106
    1UNL    H11   47  -0.087   0.225  -0.154
    1UNL    H12   48  -0.320   0.371  -0.177
    1UNL    H13   49  -0.149   0.371   0.025
    1UNL    H14   50  -0.376   0.324   0.119
    1UNL    H15   51  -0.173   0.199   0.215
    1UNL    H16   52   0.023   0.076   0.143
    1UNL    H17   53   0.033  -0.296   0.369
    1UNL    H18   54   0.454  -0.281   0.092
    1UNL    H19   55   0.457  -0.240  -0.077
    1UNL    H20   56   0.550  -0.042   0.019
    1UNL    H21   57   0.454  -0.069   0.171
    1UNL    H22   58   0.085   0.090  -0.176
    1UNL    H23   59   0.102   0.380  -0.136
    1UNL    H24   60   0.249   0.541  -0.052
    1UNL    H25   61   0.448   0.472   0.091
    1UNL    H26   62   0.504   0.241   0.136
    1UNL    H27   63   0.241  -0.194  -0.182
    1UNL    H28   64   0.009  -0.189  -0.187
    1UNL    H29   65   0.007  -0.080  -0.029
    1UNL    H30   66  -0.002  -0.377  -0.025
   0.00000   0.00000   0.00000   0.00000   0.00000   0.00000   0.00000   0.00000   0.00000
Generated with MDTraj, t= 60.0
 66
    1UNL     C1    1  -0.343  -0.452   0.036
    1UNL     C2    2  -0.216  -0.421   0.044
    1UNL     C3    3  -0.163  -0.281   0.030
    1UNL     C4    4  -0.195  -0.196   0.158
    1UNL     O1    5  -0.136  -0.065   0.162
    1UNL     C5    6  -0.205   0.030   0.076
    1UNL     O2    7  -0.196  -0.004  -0.060
    1UNL     C6    8  -0.239   0.095  -0.155
    1UNL     C7    9  -0.393   0.107  -0.143
    1UNL     O3   10  -0.457  -0.019  -0.167
    1UNL     C8   11  -0.169   0.231  -0.127
    1UNL     O4   12  -0.190   0.325  -0.225
    1UNL     C9   13  -0.200   0.278   0.015
    1UNL     O5   14  -0.336   0.315   0.043
    1UNL    C10   15  -0.145   0.171   0.109
    1UNL     O6   16  -0.001   0.161   0.113
    1UNL     O7   17  -0.152  -0.266   0.277
    1UNL    C11   18  -0.020  -0.290   0.265
    1UNL    C12   19   0.060  -0.293   0.152
    1UNL    C13   20   0.202  -0.282   0.147
    1UNL     O8   21   0.271  -0.301   0.254
    1UNL     N1   22   0.265  -0.230   0.031
    1UNL    C14   23   0.407  -0.190   0.040
    1UNL    C15   24   0.414  -0.044   0.099
    1UNL    C16   25   0.327   0.045   0.009
    1UNL    C17   26   0.224  -0.010  -0.070
    1UNL     N2   27   0.166   0.092  -0.141
    1UNL    C18   28   0.221   0.214  -0.091
    1UNL    C19   29   0.190   0.352  -0.107
    1UNL    C20   30   0.265   0.448  -0.040
    1UNL    C21   31   0.368   0.407   0.044
    1UNL    C22   32   0.398   0.279   0.068
    1UNL    C23   33   0.321   0.185  -0.001
    1UNL    C24   34   0.192  -0.153  -0.076
    1UNL    C25   35   0.035  -0.169  -0.067
    1UNL    C26   36  -0.009  -0.288   0.017
    1UNL     H1   37  -0.397  -0.544   0.056
    1UNL     H2   38  -0.406  -0.374  -0.004
    1UNL     H3   39  -0.140  -0.487   0.085
    1UNL     H4   40  -0.205  -0.222  -0.048
    1UNL     H5   41  -0.306  -0.177   0.179
    1UNL     H6   42  -0.311   0.030   0.110
    1UNL     H7   43  -0.217   0.048  -0.247
    1UNL     H8   44  -0.422   0.148  -0.049
    1UNL     H9   45  -0.426   0.175  -0.219
    1UNL    H10   46  -0.410  -0.083  -0.106
    1UNL    H11   47  -0.068   0.214  -0.131
    1UNL    H12   48  -0.279   0.356  -0.221
    1UNL    H13   49  -0.134   0.371   0.035
    1UNL    H14   50  -0.343   0.340   0.136
    1UNL    H15   51  -0.163   0.186   0.215
    1UNL    H16   52   0.026   0.073   0.130
    1UNL    H17   53   0.022  -0.326   0.359
    1UNL    H18   54   0.471  -0.262   0.095
    1UNL    H19   55   0.437  -0.192  -0.067
    1UNL    H20   56   0.525  -0.013   0.110
    1UNL    H21   57   0.367  -0.036   0.201
    1UNL    H22   58   0.100   0.081  -0.212
    1UNL    H23   59   0.110   0.368  -0.173
    1UNL    H24   60   0.247   0.555  -0.034
    1UNL    H25   61   0.424   0.486   0.095
    1UNL    H26   62   0.472   0.249   0.134
    1UNL    H27   63   0.230  -0.201  -0.166
    1UNL    H28   64  -0.022  -0.182  -0.165
    1UNL    H29   65  -0.007  -0.081  -0.010
    1UNL    H30   66   0.016  -0.372  -0.044
   0.00000   0.00000   0.00000   0.00000   0.00000   0.00000   0.00000   0.00000   0.00000
Generated with MDTraj, t= 61.0
 66
    1UNL     C1    1  -0.362  -0.435   0.067
    1UNL     C2    2  -0.243  -0.406   0.021
    1UNL     C3    3  -0.175  -0.271   0.026
    1UNL     C4    4  -0.204  -0.206   0.163
    1UNL     O1    5  -0.153  -0.078   0.160
    1UNL     C5    6  -0.215   0.014   0.072
    1UNL     O2    7  -0.197  -0.007  -0.062
    1UNL     C6    8  -0.228   0.101  -0.151
    1UNL     C7    9  -0.379   0.120  -0.148
    1UNL     O3   10  -0.448  -0.006  -0.144
    1UNL     C8   11  -0.153   0.237  -0.131
    1UNL     O4   12  -0.204   0.332  -0.215
    1UNL     C9   13  -0.171   0.275   0.016
    1UNL     O5   14  -0.301   0.324   0.043
    1UNL    C10   15  -0.139   0.150   0.107
    1UNL     O6   16  -0.004   0.125   0.143
    1UNL     O7   17  -0.146  -0.283   0.270
    1UNL    C11   18  -0.010  -0.307   0.259
    1UNL    C12   19   0.057  -0.300   0.141
    1UNL    C13   20   0.201  -0.296   0.139
    1UNL     O8   21   0.263  -0.349   0.240
    1UNL     N1   22   0.273  -0.214   0.048
    1UNL    C14   23   0.413  -0.168   0.070
    1UNL    C15   24   0.418  -0.023   0.114
    1UNL    C16   25   0.322   0.054   0.028
    1UNL    C17   26   0.238  -0.010  -0.061
    1UNL     N2   27   0.182   0.090  -0.141
    1UNL    C18   28   0.225   0.212  -0.098
    1UNL    C19   29   0.193   0.336  -0.150
    1UNL    C20   30   0.244   0.441  -0.084
    1UNL    C21   31   0.336   0.438   0.025
    1UNL    C22   32   0.373   0.314   0.065
    1UNL    C23   33   0.314   0.197   0.007
    1UNL    C24   34   0.204  -0.152  -0.068
    1UNL    C25   35   0.046  -0.172  -0.074
    1UNL    C26   36  -0.018  -0.287   0.010
    1UNL     H1   37  -0.410  -0.529   0.057
    1UNL     H2   38  -0.408  -0.371   0.139
    1UNL     H3   39  -0.198  -0.473  -0.049
    1UNL     H4   40  -0.218  -0.207  -0.048
    1UNL     H5   41  -0.316  -0.205   0.172
    1UNL     H6   42  -0.319   0.027   0.106
    1UNL     H7   43  -0.202   0.066  -0.245
    1UNL     H8   44  -0.409   0.171  -0.059
    1UNL     H9   45  -0.409   0.173  -0.236
    1UNL    H10   46  -0.386  -0.078  -0.115
    1UNL    H11   47  -0.054   0.242  -0.157
    1UNL    H12   48  -0.284   0.371  -0.165
    1UNL    H13   49  -0.106   0.366   0.036
    1UNL    H14   50  -0.306   0.353   0.137
    1UNL    H15   51  -0.191   0.177   0.202
    1UNL    H16   52   0.010   0.028   0.171
    1UNL    H17   53   0.046  -0.317   0.350
    1UNL    H18   54   0.435  -0.245   0.152
    1UNL    H19   55   0.478  -0.181  -0.019
    1UNL    H20   56   0.522   0.031   0.095
    1UNL    H21   57   0.396  -0.019   0.223
    1UNL    H22   58   0.106   0.082  -0.202
    1UNL    H23   59   0.120   0.357  -0.232
    1UNL    H24   60   0.214   0.537  -0.116
    1UNL    H25   61   0.361   0.523   0.085
    1UNL    H26   62   0.442   0.299   0.157
    1UNL    H27   63   0.251  -0.190  -0.159
    1UNL    H28   64   0.010  -0.178  -0.179
    1UNL    H29   65  -0.008  -0.080  -0.028
    1UNL    H30   66  -0.002  -0.381  -0.039
   0.00000   0.00000   0.00000   0.00000   0.00000   0.00000   0.00000   0.00000   0.00000
Generated with MDTraj, t= 62.0
 66
    1UNL     C1    1  -0.332  -0.457   0.044
    1UNL     C2    2  -0.241  -0.396  -0.026
    1UNL     C3    3  -0.170  -0.267   0.012
    1UNL     C4    4  -0.194  -0.208   0.158
    1UNL     O1    5  -0.125  -0.084   0.181
    1UNL     C5    6  -0.186   0.027   0.104
    1UNL     O2    7  -0.185   0.001  -0.042
    1UNL     C6    8  -0.236   0.097  -0.135
    1UNL     C7    9  -0.388   0.117  -0.114
    1UNL     O3   10  -0.441  -0.010  -0.147
    1UNL     C8   11  -0.149   0.221  -0.121
    1UNL     O4   12  -0.185   0.317  -0.210
    1UNL     C9   13  -0.154   0.274   0.026
    1UNL     O5   14  -0.280   0.332   0.047
    1UNL    C10   15  -0.116   0.161   0.132
    1UNL     O6   16   0.025   0.145   0.134
    1UNL     O7   17  -0.168  -0.314   0.252
    1UNL    C11   18  -0.034  -0.330   0.242
    1UNL    C12   19   0.043  -0.299   0.133
    1UNL    C13   20   0.185  -0.285   0.153
    1UNL     O8   21   0.240  -0.341   0.257
    1UNL     N1   22   0.260  -0.209   0.066
    1UNL    C14   23   0.394  -0.152   0.107
    1UNL    C15   24   0.379  -0.002   0.133
    1UNL    C16   25   0.311   0.056   0.017
    1UNL    C17   26   0.238  -0.011  -0.075
    1UNL     N2   27   0.173   0.084  -0.155
    1UNL    C18   28   0.210   0.211  -0.122
    1UNL    C19   29   0.190   0.337  -0.170
    1UNL    C20   30   0.240   0.445  -0.108
    1UNL    C21   31   0.326   0.429   0.005
    1UNL    C22   32   0.361   0.308   0.058
    1UNL    C23   33   0.296   0.199  -0.008
    1UNL    C24   34   0.203  -0.160  -0.067
    1UNL    C25   35   0.046  -0.162  -0.072
    1UNL    C26   36  -0.014  -0.284  -0.001
    1UNL     H1   37  -0.380  -0.548   0.011
    1UNL     H2   38  -0.353  -0.428   0.145
    1UNL     H3   39  -0.206  -0.446  -0.117
    1UNL     H4   40  -0.198  -0.189  -0.053
    1UNL     H5   41  -0.304  -0.198   0.163
    1UNL     H6   42  -0.285   0.030   0.148
    1UNL     H7   43  -0.219   0.067  -0.233
    1UNL     H8   44  -0.409   0.128  -0.010
    1UNL     H9   45  -0.434   0.192  -0.176
    1UNL    H10   46  -0.395  -0.088  -0.113
    1UNL    H11   47  -0.050   0.202  -0.144
    1UNL    H12   48  -0.249   0.368  -0.157
    1UNL    H13   49  -0.078   0.354   0.047
    1UNL    H14   50  -0.274   0.371   0.139
    1UNL    H15   51  -0.142   0.201   0.236
    1UNL    H16   52   0.056   0.062   0.172
    1UNL    H17   53   0.022  -0.354   0.331
    1UNL    H18   54   0.425  -0.202   0.204
    1UNL    H19   55   0.458  -0.182   0.022
    1UNL    H20   56   0.483   0.042   0.169
    1UNL    H21   57   0.306   0.012   0.218
    1UNL    H22   58   0.139   0.057  -0.244
    1UNL    H23   59   0.131   0.351  -0.257
    1UNL    H24   60   0.214   0.546  -0.147
    1UNL    H25   61   0.372   0.521   0.043
    1UNL    H26   62   0.421   0.298   0.142
    1UNL    H27   63   0.253  -0.209  -0.148
    1UNL    H28   64   0.004  -0.148  -0.175
    1UNL    H29   65   0.008  -0.065  -0.020
    1UNL    H30   66   0.012  -0.375  -0.052
   0.00000   0.00000   0.00000   0.00000   0.00000   0.00000   0.00000   0.00000   0.00000
Generated with MDTraj, t= 63.0
 66
    1UNL     C1    1  -0.290  -0.483   0.048
    1UNL     C2    2  -0.258  -0.388  -0.036
    1UNL     C3    3  -0.174  -0.269  -0.002
    1UNL     C4    4  -0.219  -0.223   0.133
    1UNL     O1    5  -0.159  -0.099   0.167
    1UNL     C5    6  -0.203   0.016   0.087
    1UNL     O2    7  -0.187  -0.014  -0.055
    1UNL     C6    8  -0.224   0.102  -0.134
    1UNL     C7    9  -0.373   0.131  -0.135
    1UNL     O3   10  -0.442   0.014  -0.097
    1UNL     C8   11  -0.138   0.232  -0.101
    1UNL     O4   12  -0.175   0.353  -0.170
    1UNL     C9   13  -0.136   0.260   0.052
    1UNL     O5   14  -0.265   0.314   0.078
    1UNL    C10   15  -0.111   0.129   0.128
    1UNL     O6   16   0.025   0.091   0.121
    1UNL     O7   17  -0.184  -0.315   0.237
    1UNL    C11   18  -0.048  -0.317   0.250
    1UNL    C12   19   0.039  -0.288   0.147
    1UNL    C13   20   0.180  -0.266   0.166
    1UNL     O8   21   0.221  -0.306   0.279
    1UNL     N1   22   0.261  -0.207   0.080
    1UNL    C14   23   0.390  -0.153   0.115
    1UNL    C15   24   0.372  -0.003   0.143
    1UNL    C16   25   0.315   0.067   0.017
    1UNL    C17   26   0.239  -0.005  -0.072
    1UNL     N2   27   0.193   0.077  -0.167
    1UNL    C18   28   0.227   0.206  -0.141
    1UNL    C19   29   0.198   0.333  -0.201
    1UNL    C20   30   0.234   0.449  -0.138
    1UNL    C21   31   0.302   0.445  -0.018
    1UNL    C22   32   0.351   0.325   0.043
    1UNL    C23   33   0.307   0.206  -0.022
    1UNL    C24   34   0.213  -0.152  -0.059
    1UNL    C25   35   0.060  -0.175  -0.082
    1UNL    C26   36  -0.014  -0.285   0.003
    1UNL     H1   37  -0.356  -0.563   0.024
    1UNL     H2   38  -0.241  -0.487   0.142
    1UNL     H3   39  -0.281  -0.395  -0.140
    1UNL     H4   40  -0.194  -0.188  -0.069
    1UNL     H5   41  -0.324  -0.212   0.157
    1UNL     H6   42  -0.304   0.034   0.117
    1UNL     H7   43  -0.204   0.069  -0.230
    1UNL     H8   44  -0.382   0.205  -0.056
    1UNL     H9   45  -0.407   0.166  -0.231
    1UNL    H10   46  -0.377  -0.055  -0.064
    1UNL    H11   47  -0.046   0.212  -0.145
    1UNL    H12   48  -0.252   0.391  -0.120
    1UNL    H13   49  -0.063   0.341   0.072
    1UNL    H14   50  -0.275   0.334   0.175
    1UNL    H15   51  -0.138   0.154   0.238
    1UNL    H16   52   0.036   0.001   0.163
    1UNL    H17   53  -0.015  -0.340   0.351
    1UNL    H18   54   0.426  -0.218   0.203
    1UNL    H19   55   0.457  -0.170   0.030
    1UNL    H20   56   0.470   0.045   0.179
    1UNL    H21   57   0.302  -0.001   0.234
    1UNL    H22   58   0.116   0.051  -0.230
    1UNL    H23   59   0.153   0.338  -0.298
    1UNL    H24   60   0.225   0.544  -0.182
    1UNL    H25   61   0.329   0.537   0.027
    1UNL    H26   62   0.413   0.307   0.129
    1UNL    H27   63   0.274  -0.200  -0.133
    1UNL    H28   64   0.033  -0.192  -0.190
    1UNL    H29   65   0.011  -0.075  -0.069
    1UNL    H30   66  -0.001  -0.383  -0.039
   0.00000   0.00000   0.00000   0.00000   0.00000   0.00000   0.00000   0.00000   0.00000
Generated with MDTraj, t= 64.0
 66
    1UNL     C1    1  -0.219  -0.524   0.020
    1UNL     C2    2  -0.209  -0.420  -0.058
    1UNL     C3    3  -0.161  -0.282  -0.007
    1UNL     C4    4  -0.231  -0.239   0.125
    1UNL     O1    5  -0.174  -0.110   0.165
    1UNL     C5    6  -0.212   0.011   0.088
    1UNL     O2    7  -0.196  -0.006  -0.053
    1UNL     C6    8  -0.225   0.121  -0.126
    1UNL     C7    9  -0.368   0.157  -0.095
    1UNL     O3   10  -0.464   0.056  -0.121
    1UNL     C8   11  -0.130   0.243  -0.083
    1UNL     O4   12  -0.154   0.365  -0.154
    1UNL     C9   13  -0.131   0.265   0.067
    1UNL     O5   14  -0.249   0.330   0.099
    1UNL    C10   15  -0.117   0.127   0.141
    1UNL     O6   16   0.024   0.087   0.134
    1UNL     O7   17  -0.191  -0.329   0.230
    1UNL    C11   18  -0.061  -0.324   0.247
    1UNL    C12   19   0.031  -0.291   0.151
    1UNL    C13   20   0.167  -0.254   0.185
    1UNL     O8   21   0.201  -0.259   0.311
    1UNL     N1   22   0.251  -0.202   0.087
    1UNL    C14   23   0.385  -0.148   0.126
    1UNL    C15   24   0.380   0.004   0.129
    1UNL    C16   25   0.299   0.060   0.012
    1UNL    C17   26   0.234  -0.017  -0.082
    1UNL     N2   27   0.182   0.072  -0.178
    1UNL    C18   28   0.222   0.201  -0.157
    1UNL    C19   29   0.200   0.321  -0.223
    1UNL    C20   30   0.250   0.434  -0.165
    1UNL    C21   31   0.318   0.434  -0.039
    1UNL    C22   32   0.327   0.318   0.025
    1UNL    C23   33   0.287   0.200  -0.035
    1UNL    C24   34   0.204  -0.159  -0.050
    1UNL    C25   35   0.054  -0.174  -0.075
    1UNL    C26   36  -0.006  -0.290   0.008
    1UNL     H1   37  -0.251  -0.621  -0.017
    1UNL     H2   38  -0.180  -0.522   0.121
    1UNL     H3   39  -0.250  -0.419  -0.158
    1UNL     H4   40  -0.182  -0.203  -0.080
    1UNL     H5   41  -0.337  -0.228   0.117
    1UNL     H6   42  -0.311   0.037   0.114
    1UNL     H7   43  -0.221   0.091  -0.226
    1UNL     H8   44  -0.380   0.177   0.011
    1UNL     H9   45  -0.382   0.252  -0.148
    1UNL    H10   46  -0.409  -0.020  -0.147
    1UNL    H11   47  -0.035   0.208  -0.110
    1UNL    H12   48  -0.230   0.409  -0.110
    1UNL    H13   49  -0.043   0.324   0.090
    1UNL    H14   50  -0.241   0.360   0.191
    1UNL    H15   51  -0.138   0.142   0.252
    1UNL    H16   52   0.021  -0.013   0.148
    1UNL    H17   53  -0.024  -0.351   0.346
    1UNL    H18   54   0.402  -0.194   0.232
    1UNL    H19   55   0.465  -0.188   0.064
    1UNL    H20   56   0.488   0.038   0.131
    1UNL    H21   57   0.337   0.049   0.230
    1UNL    H22   58   0.130   0.041  -0.265
    1UNL    H23   59   0.142   0.324  -0.317
    1UNL    H24   60   0.236   0.532  -0.217
    1UNL    H25   61   0.357   0.517   0.023
    1UNL    H26   62   0.380   0.322   0.127
    1UNL    H27   63   0.263  -0.219  -0.118
    1UNL    H28   64   0.040  -0.177  -0.188
    1UNL    H29   65  -0.008  -0.086  -0.057
    1UNL    H30   66   0.037  -0.382  -0.030
   0.00000   0.00000   0.00000   0.00000   0.00000   0.00000   0.00000   0.00000   0.00000
Generated with MDTraj, t= 65.0
 66
    1UNL     C1    1  -0.174  -0.542  -0.019
    1UNL     C2    2  -0.225  -0.429  -0.053
    1UNL     C3    3  -0.165  -0.288  -0.011
    1UNL     C4    4  -0.226  -0.237   0.126
    1UNL     O1    5  -0.179  -0.107   0.172
    1UNL     C5    6  -0.218   0.007   0.094
    1UNL     O2    7  -0.214   0.003  -0.048
    1UNL     C6    8  -0.238   0.123  -0.120
    1UNL     C7    9  -0.371   0.183  -0.110
    1UNL     O3   10  -0.474   0.090  -0.138
    1UNL     C8   11  -0.127   0.218  -0.073
    1UNL     O4   12  -0.133   0.345  -0.134
    1UNL     C9   13  -0.131   0.246   0.079
    1UNL     O5   14  -0.238   0.319   0.120
    1UNL    C10   15  -0.129   0.112   0.156
    1UNL     O6   16   0.007   0.068   0.177
    1UNL     O7   17  -0.190  -0.331   0.227
    1UNL    C11   18  -0.057  -0.322   0.237
    1UNL    C12   19   0.029  -0.292   0.137
    1UNL    C13   20   0.158  -0.249   0.180
    1UNL     O8   21   0.178  -0.230   0.305
    1UNL     N1   22   0.253  -0.203   0.094
    1UNL    C14   23   0.373  -0.133   0.149
    1UNL    C15   24   0.365   0.022   0.144
    1UNL    C16   25   0.310   0.076   0.011
    1UNL    C17   26   0.241  -0.010  -0.068
    1UNL     N2   27   0.198   0.058  -0.183
    1UNL    C18   28   0.235   0.192  -0.163
    1UNL    C19   29   0.183   0.308  -0.223
    1UNL    C20   30   0.234   0.429  -0.185
    1UNL    C21   31   0.328   0.435  -0.082
    1UNL    C22   32   0.365   0.325  -0.008
    1UNL    C23   33   0.314   0.205  -0.049
    1UNL    C24   34   0.213  -0.156  -0.041
    1UNL    C25   35   0.058  -0.169  -0.070
    1UNL    C26   36  -0.012  -0.293  -0.004
    1UNL     H1   37  -0.219  -0.633  -0.050
    1UNL     H2   38  -0.093  -0.547   0.050
    1UNL     H3   39  -0.319  -0.426  -0.105
    1UNL     H4   40  -0.189  -0.222  -0.094
    1UNL     H5   41  -0.329  -0.231   0.105
    1UNL     H6   42  -0.321   0.033   0.110
    1UNL     H7   43  -0.224   0.104  -0.223
    1UNL     H8   44  -0.378   0.218  -0.006
    1UNL     H9   45  -0.404   0.269  -0.173
    1UNL    H10   46  -0.440  -0.002  -0.129
    1UNL    H11   47  -0.031   0.188  -0.102
    1UNL    H12   48  -0.194   0.402  -0.087
    1UNL    H13   49  -0.040   0.299   0.100
    1UNL    H14   50  -0.231   0.350   0.212
    1UNL    H15   51  -0.165   0.129   0.260
    1UNL    H16   52   0.003  -0.018   0.217
    1UNL    H17   53  -0.015  -0.345   0.334
    1UNL    H18   54   0.385  -0.181   0.255
    1UNL    H19   55   0.464  -0.162   0.098
    1UNL    H20   56   0.463   0.069   0.165
    1UNL    H21   57   0.297   0.054   0.237
    1UNL    H22   58   0.136   0.015  -0.261
    1UNL    H23   59   0.107   0.299  -0.294
    1UNL    H24   60   0.194   0.522  -0.214
    1UNL    H25   61   0.365   0.531  -0.055
    1UNL    H26   62   0.422   0.322   0.075
    1UNL    H27   63   0.264  -0.215  -0.118
    1UNL    H28   64   0.020  -0.168  -0.178
    1UNL    H29   65   0.008  -0.078  -0.040
    1UNL    H30   66   0.029  -0.383  -0.049
   0.00000   0.00000   0.00000   0.00000   0.00000   0.00000   0.00000   0.00000   0.00000
Generated with MDTraj, t= 66.0
 66
    1UNL     C1    1  -0.183  -0.530  -0.047
    1UNL     C2    2  -0.209  -0.403  -0.078
    1UNL     C3    3  -0.171  -0.276  -0.006
    1UNL     C4    4  -0.242  -0.250   0.125
    1UNL     O1    5  -0.211  -0.120   0.180
    1UNL     C5    6  -0.234   0.001   0.108
    1UNL     O2    7  -0.204  -0.013  -0.034
    1UNL     C6    8  -0.215   0.111  -0.105
    1UNL     C7    9  -0.354   0.166  -0.101
    1UNL     O3   10  -0.454   0.070  -0.130
    1UNL     C8   11  -0.108   0.213  -0.057
    1UNL     O4   12  -0.114   0.332  -0.131
    1UNL     C9   13  -0.133   0.245   0.089
    1UNL     O5   14  -0.248   0.318   0.113
    1UNL    C10   15  -0.135   0.106   0.165
    1UNL     O6   16   0.000   0.059   0.165
    1UNL     O7   17  -0.197  -0.353   0.216
    1UNL    C11   18  -0.064  -0.332   0.247
    1UNL    C12   19   0.026  -0.283   0.161
    1UNL    C13   20   0.163  -0.242   0.191
    1UNL     O8   21   0.193  -0.266   0.312
    1UNL     N1   22   0.234  -0.162   0.108
    1UNL    C14   23   0.365  -0.114   0.154
    1UNL    C15   24   0.391   0.033   0.125
    1UNL    C16   25   0.302   0.072   0.007
    1UNL    C17   26   0.223  -0.002  -0.076
    1UNL     N2   27   0.187   0.066  -0.191
    1UNL    C18   28   0.236   0.197  -0.181
    1UNL    C19   29   0.216   0.316  -0.254
    1UNL    C20   30   0.260   0.436  -0.210
    1UNL    C21   31   0.329   0.440  -0.088
    1UNL    C22   32   0.358   0.327  -0.012
    1UNL    C23   33   0.313   0.199  -0.060
    1UNL    C24   34   0.192  -0.136  -0.033
    1UNL    C25   35   0.041  -0.151  -0.057
    1UNL    C26   36  -0.020  -0.277   0.013
    1UNL     H1   37  -0.213  -0.616  -0.109
    1UNL     H2   38  -0.173  -0.570   0.054
    1UNL     H3   39  -0.246  -0.379  -0.178
    1UNL     H4   40  -0.196  -0.193  -0.073
    1UNL     H5   41  -0.349  -0.259   0.130
    1UNL     H6   42  -0.338   0.026   0.098
    1UNL     H7   43  -0.189   0.093  -0.209
    1UNL     H8   44  -0.395   0.209  -0.007
    1UNL     H9   45  -0.362   0.255  -0.169
    1UNL    H10   46  -0.420  -0.024  -0.123
    1UNL    H11   47  -0.013   0.172  -0.057
    1UNL    H12   48  -0.175   0.398  -0.083
    1UNL    H13   49  -0.055   0.301   0.134
    1UNL    H14   50  -0.253   0.359   0.204
    1UNL    H15   51  -0.164   0.123   0.267
    1UNL    H16   52   0.005  -0.040   0.191
    1UNL    H17   53  -0.031  -0.349   0.347
    1UNL    H18   54   0.386  -0.133   0.267
    1UNL    H19   55   0.441  -0.176   0.108
    1UNL    H20   56   0.500   0.045   0.102
    1UNL    H21   57   0.372   0.103   0.215
    1UNL    H22   58   0.101   0.033  -0.246
    1UNL    H23   59   0.150   0.304  -0.342
    1UNL    H24   60   0.241   0.527  -0.272
    1UNL    H25   61   0.357   0.538  -0.052
    1UNL    H26   62   0.405   0.339   0.089
    1UNL    H27   63   0.240  -0.212  -0.097
    1UNL    H28   64   0.015  -0.152  -0.168
    1UNL    H29   65  -0.019  -0.068  -0.027
    1UNL    H30   66   0.023  -0.362  -0.038
   0.00000   0.00000   0.00000   0.00000   0.00000   0.00000   0.00000   0.00000   0.00000
Generated with MDTraj, t= 67.0
 66
    1UNL     C1    1  -0.260  -0.506  -0.005
    1UNL     C2    2  -0.240  -0.398  -0.080
    1UNL     C3    3  -0.180  -0.268  -0.019
    1UNL     C4    4  -0.241  -0.249   0.128
    1UNL     O1    5  -0.217  -0.123   0.191
    1UNL     C5    6  -0.236  -0.003   0.116
    1UNL     O2    7  -0.197  -0.022  -0.028
    1UNL     C6    8  -0.201   0.099  -0.112
    1UNL     C7    9  -0.349   0.141  -0.112
    1UNL     O3   10  -0.436   0.035  -0.144
    1UNL     C8   11  -0.102   0.208  -0.052
    1UNL     O4   12  -0.125   0.334  -0.118
    1UNL     C9   13  -0.132   0.233   0.101
    1UNL     O5   14  -0.258   0.305   0.117
    1UNL    C10   15  -0.136   0.097   0.177
    1UNL     O6   16  -0.012   0.031   0.198
    1UNL     O7   17  -0.198  -0.356   0.209
    1UNL    C11   18  -0.065  -0.342   0.228
    1UNL    C12   19   0.025  -0.280   0.144
    1UNL    C13   20   0.162  -0.246   0.186
    1UNL     O8   21   0.209  -0.281   0.301
    1UNL     N1   22   0.240  -0.167   0.106
    1UNL    C14   23   0.363  -0.104   0.149
    1UNL    C15   24   0.358   0.056   0.144
    1UNL    C16   25   0.316   0.099   0.007
    1UNL    C17   26   0.241   0.013  -0.072
    1UNL     N2   27   0.196   0.081  -0.182
    1UNL    C18   28   0.239   0.208  -0.175
    1UNL    C19   29   0.224   0.315  -0.261
    1UNL    C20   30   0.273   0.433  -0.223
    1UNL    C21   31   0.363   0.449  -0.115
    1UNL    C22   32   0.380   0.344  -0.032
    1UNL    C23   33   0.315   0.224  -0.059
    1UNL    C24   34   0.199  -0.126  -0.037
    1UNL    C25   35   0.046  -0.140  -0.061
    1UNL    C26   36  -0.022  -0.263   0.001
    1UNL     H1   37  -0.295  -0.600  -0.039
    1UNL     H2   38  -0.240  -0.514   0.099
    1UNL     H3   39  -0.289  -0.395  -0.176
    1UNL     H4   40  -0.210  -0.183  -0.087
    1UNL     H5   41  -0.350  -0.257   0.127
    1UNL     H6   42  -0.338   0.037   0.117
    1UNL     H7   43  -0.171   0.060  -0.213
    1UNL     H8   44  -0.367   0.189  -0.013
    1UNL     H9   45  -0.376   0.220  -0.187
    1UNL    H10   46  -0.397  -0.053  -0.131
    1UNL    H11   47  -0.009   0.173  -0.078
    1UNL    H12   48  -0.201   0.380  -0.083
    1UNL    H13   49  -0.060   0.296   0.144
    1UNL    H14   50  -0.271   0.337   0.210
    1UNL    H15   51  -0.180   0.114   0.272
    1UNL    H16   52  -0.036  -0.058   0.223
    1UNL    H17   53  -0.023  -0.388   0.317
    1UNL    H18   54   0.390  -0.143   0.254
    1UNL    H19   55   0.451  -0.136   0.096
    1UNL    H20   56   0.450   0.116   0.181
    1UNL    H21   57   0.276   0.080   0.212
    1UNL    H22   58   0.167   0.043  -0.277
    1UNL    H23   59   0.165   0.307  -0.348
    1UNL    H24   60   0.245   0.507  -0.294
    1UNL    H25   61   0.425   0.540  -0.107
    1UNL    H26   62   0.455   0.347   0.050
    1UNL    H27   63   0.251  -0.195  -0.109
    1UNL    H28   64   0.024  -0.136  -0.172
    1UNL    H29   65   0.004  -0.052  -0.020
    1UNL    H30   66   0.020  -0.352  -0.045
   0.00000   0.00000   0.00000   0.00000   0.00000   0.00000   0.00000   0.00000   0.00000
Generated with MDTraj, t= 68.0
 66
    1UNL     C1    1  -0.304  -0.512  -0.016
    1UNL     C2    2  -0.218  -0.426  -0.059
    1UNL     C3    3  -0.169  -0.296  -0.003
    1UNL     C4    4  -0.224  -0.257   0.141
    1UNL     O1    5  -0.178  -0.130   0.182
    1UNL     C5    6  -0.220  -0.011   0.120
    1UNL     O2    7  -0.194  -0.015  -0.024
    1UNL     C6    8  -0.209   0.116  -0.100
    1UNL     C7    9  -0.359   0.149  -0.124
    1UNL     O3   10  -0.433   0.041  -0.172
    1UNL     C8   11  -0.122   0.224  -0.041
    1UNL     O4   12  -0.123   0.354  -0.110
    1UNL     C9   13  -0.156   0.245   0.107
    1UNL     O5   14  -0.285   0.308   0.117
    1UNL    C10   15  -0.142   0.109   0.189
    1UNL     O6   16  -0.007   0.077   0.207
    1UNL     O7   17  -0.183  -0.361   0.225
    1UNL    C11   18  -0.049  -0.368   0.234
    1UNL    C12   19   0.031  -0.298   0.146
    1UNL    C13   20   0.163  -0.248   0.183
    1UNL     O8   21   0.219  -0.275   0.297
    1UNL     N1   22   0.236  -0.164   0.094
    1UNL    C14   23   0.354  -0.095   0.141
    1UNL    C15   24   0.323   0.052   0.144
    1UNL    C16   25   0.276   0.096   0.005
    1UNL    C17   26   0.222   0.008  -0.086
    1UNL     N2   27   0.187   0.084  -0.198
    1UNL    C18   28   0.235   0.217  -0.185
    1UNL    C19   29   0.260   0.325  -0.274
    1UNL    C20   30   0.333   0.437  -0.231
    1UNL    C21   31   0.377   0.446  -0.100
    1UNL    C22   32   0.380   0.333  -0.019
    1UNL    C23   33   0.298   0.222  -0.059
    1UNL    C24   34   0.189  -0.137  -0.049
    1UNL    C25   35   0.035  -0.159  -0.065
    1UNL    C26   36  -0.015  -0.285   0.004
    1UNL     H1   37  -0.342  -0.599  -0.068
    1UNL     H2   38  -0.341  -0.507   0.086
    1UNL     H3   39  -0.185  -0.454  -0.159
    1UNL     H4   40  -0.205  -0.217  -0.077
    1UNL     H5   41  -0.334  -0.257   0.133
    1UNL     H6   42  -0.329   0.001   0.132
    1UNL     H7   43  -0.167   0.095  -0.205
    1UNL     H8   44  -0.400   0.183  -0.026
    1UNL     H9   45  -0.353   0.238  -0.191
    1UNL    H10   46  -0.386  -0.042  -0.140
    1UNL    H11   47  -0.025   0.190  -0.051
    1UNL    H12   48  -0.216   0.395  -0.098
    1UNL    H13   49  -0.083   0.312   0.141
    1UNL    H14   50  -0.301   0.335   0.209
    1UNL    H15   51  -0.175   0.116   0.289
    1UNL    H16   52  -0.004  -0.023   0.227
    1UNL    H17   53  -0.002  -0.416   0.320
    1UNL    H18   54   0.381  -0.132   0.246
    1UNL    H19   55   0.443  -0.118   0.085
    1UNL    H20   56   0.423   0.106   0.169
    1UNL    H21   57   0.247   0.073   0.215
    1UNL    H22   58   0.129   0.062  -0.281
    1UNL    H23   59   0.219   0.311  -0.374
    1UNL    H24   60   0.351   0.529  -0.289
    1UNL    H25   61   0.429   0.534  -0.077
    1UNL    H26   62   0.433   0.337   0.068
    1UNL    H27   63   0.254  -0.206  -0.110
    1UNL    H28   64   0.008  -0.159  -0.173
    1UNL    H29   65   0.002  -0.066  -0.014
    1UNL    H30   66   0.030  -0.372  -0.042
   0.00000   0.00000   0.00000   0.00000   0.00000   0.00000   0.00000   0.00000   0.00000
Generated with MDTraj, t= 69.0
 66
    1UNL     C1    1  -0.325  -0.497   0.015
    1UNL     C2    2  -0.229  -0.428  -0.040
    1UNL     C3    3  -0.168  -0.290  -0.008
    1UNL     C4    4  -0.226  -0.246   0.132
    1UNL     O1    5  -0.178  -0.118   0.169
    1UNL     C5    6  -0.218  -0.005   0.100
    1UNL     O2    7  -0.186  -0.005  -0.037
    1UNL     C6    8  -0.214   0.121  -0.097
    1UNL     C7    9  -0.365   0.145  -0.115
    1UNL     O3   10  -0.435   0.041  -0.175
    1UNL     C8   11  -0.136   0.231  -0.029
    1UNL     O4   12  -0.151   0.358  -0.095
    1UNL     C9   13  -0.175   0.247   0.120
    1UNL     O5   14  -0.312   0.281   0.127
    1UNL    C10   15  -0.153   0.106   0.185
    1UNL     O6   16  -0.019   0.073   0.185
    1UNL     O7   17  -0.179  -0.349   0.230
    1UNL    C11   18  -0.043  -0.342   0.236
    1UNL    C12   19   0.040  -0.302   0.139
    1UNL    C13   20   0.172  -0.255   0.162
    1UNL     O8   21   0.219  -0.277   0.277
    1UNL     N1   22   0.258  -0.179   0.079
    1UNL    C14   23   0.374  -0.107   0.138
    1UNL    C15   24   0.331   0.041   0.157
    1UNL    C16   25   0.285   0.100   0.020
    1UNL    C17   26   0.232   0.013  -0.074
    1UNL     N2   27   0.205   0.079  -0.192
    1UNL    C18   28   0.261   0.205  -0.180
    1UNL    C19   29   0.291   0.296  -0.284
    1UNL    C20   30   0.336   0.417  -0.240
    1UNL    C21   31   0.370   0.438  -0.104
    1UNL    C22   32   0.353   0.348  -0.004
    1UNL    C23   33   0.299   0.227  -0.044
    1UNL    C24   34   0.200  -0.131  -0.054
    1UNL    C25   35   0.042  -0.145  -0.065
    1UNL    C26   36  -0.009  -0.278  -0.003
    1UNL     H1   37  -0.363  -0.585  -0.032
    1UNL     H2   38  -0.364  -0.466   0.108
    1UNL     H3   39  -0.173  -0.480  -0.115
    1UNL     H4   40  -0.201  -0.224  -0.094
    1UNL     H5   41  -0.339  -0.250   0.135
    1UNL     H6   42  -0.330   0.005   0.102
    1UNL     H7   43  -0.178   0.111  -0.208
    1UNL     H8   44  -0.401   0.173  -0.014
    1UNL     H9   45  -0.386   0.226  -0.188
    1UNL    H10   46  -0.395  -0.042  -0.143
    1UNL    H11   47  -0.035   0.210  -0.023
    1UNL    H12   48  -0.238   0.388  -0.065
    1UNL    H13   49  -0.116   0.323   0.158
    1UNL    H14   50  -0.347   0.299   0.215
    1UNL    H15   51  -0.178   0.102   0.289
    1UNL    H16   52  -0.001  -0.020   0.203
    1UNL    H17   53  -0.003  -0.351   0.338
    1UNL    H18   54   0.406  -0.163   0.230
    1UNL    H19   55   0.459  -0.120   0.071
    1UNL    H20   56   0.422   0.101   0.194
    1UNL    H21   57   0.250   0.041   0.224
    1UNL    H22   58   0.185   0.034  -0.280
    1UNL    H23   59   0.272   0.283  -0.390
    1UNL    H24   60   0.345   0.491  -0.317
    1UNL    H25   61   0.406   0.541  -0.077
    1UNL    H26   62   0.398   0.370   0.098
    1UNL    H27   63   0.263  -0.182  -0.134
    1UNL    H28   64   0.020  -0.134  -0.175
    1UNL    H29   65  -0.002  -0.065   0.001
    1UNL    H30   66   0.027  -0.355  -0.071
   0.00000   0.00000   0.00000   0.00000   0.00000   0.00000   0.00000   0.00000   0.00000
Generated with MDTraj, t= 70.0
 66
    1UNL     C1    1  -0.289  -0.494  -0.007
    1UNL     C2    2  -0.226  -0.399  -0.076
    1UNL     C3    3  -0.169  -0.279  -0.006
    1UNL     C4    4  -0.220  -0.242   0.134
    1UNL     O1    5  -0.177  -0.113   0.185
    1UNL     C5    6  -0.217   0.006   0.115
    1UNL     O2    7  -0.191   0.003  -0.025
    1UNL     C6    8  -0.221   0.121  -0.101
    1UNL     C7    9  -0.373   0.134  -0.116
    1UNL     O3   10  -0.434   0.022  -0.171
    1UNL     C8   11  -0.153   0.241  -0.034
    1UNL     O4   12  -0.213   0.356  -0.103
    1UNL     C9   13  -0.186   0.257   0.119
    1UNL     O5   14  -0.320   0.299   0.132
    1UNL    C10   15  -0.146   0.123   0.190
    1UNL     O6   16  -0.011   0.095   0.174
    1UNL     O7   17  -0.186  -0.337   0.235
    1UNL    C11   18  -0.049  -0.341   0.236
    1UNL    C12   19   0.038  -0.299   0.140
    1UNL    C13   20   0.168  -0.258   0.177
    1UNL     O8   21   0.226  -0.295   0.284
    1UNL     N1   22   0.249  -0.177   0.091
    1UNL    C14   23   0.362  -0.103   0.148
    1UNL    C15   24   0.346   0.048   0.140
    1UNL    C16   25   0.303   0.077  -0.002
    1UNL    C17   26   0.242  -0.008  -0.092
    1UNL     N2   27   0.235   0.064  -0.208
    1UNL    C18   28   0.279   0.196  -0.195
    1UNL    C19   29   0.273   0.310  -0.273
    1UNL    C20   30   0.319   0.424  -0.211
    1UNL    C21   31   0.371   0.437  -0.081
    1UNL    C22   32   0.375   0.323  -0.005
    1UNL    C23   33   0.331   0.200  -0.065
    1UNL    C24   34   0.205  -0.149  -0.048
    1UNL    C25   35   0.051  -0.158  -0.065
    1UNL    C26   36  -0.015  -0.284  -0.003
    1UNL     H1   37  -0.318  -0.584  -0.061
    1UNL     H2   38  -0.290  -0.501   0.101
    1UNL     H3   39  -0.196  -0.400  -0.182
    1UNL     H4   40  -0.198  -0.187  -0.065
    1UNL     H5   41  -0.334  -0.238   0.144
    1UNL     H6   42  -0.329   0.008   0.128
    1UNL     H7   43  -0.181   0.102  -0.210
    1UNL     H8   44  -0.434   0.152  -0.025
    1UNL     H9   45  -0.403   0.211  -0.188
    1UNL    H10   46  -0.409  -0.055  -0.114
    1UNL    H11   47  -0.048   0.238  -0.047
    1UNL    H12   48  -0.300   0.383  -0.067
    1UNL    H13   49  -0.136   0.340   0.158
    1UNL    H14   50  -0.332   0.306   0.231
    1UNL    H15   51  -0.176   0.119   0.294
    1UNL    H16   52   0.006  -0.005   0.183
    1UNL    H17   53  -0.028  -0.365   0.340
    1UNL    H18   54   0.373  -0.138   0.252
    1UNL    H19   55   0.448  -0.147   0.099
    1UNL    H20   56   0.440   0.108   0.157
    1UNL    H21   57   0.261   0.071   0.200
    1UNL    H22   58   0.201   0.018  -0.289
    1UNL    H23   59   0.237   0.305  -0.371
    1UNL    H24   60   0.312   0.514  -0.271
    1UNL    H25   61   0.402   0.531  -0.047
    1UNL    H26   62   0.398   0.334   0.100
    1UNL    H27   63   0.263  -0.222  -0.111
    1UNL    H28   64   0.012  -0.160  -0.169
    1UNL    H29   65   0.014  -0.070  -0.003
    1UNL    H30   66   0.014  -0.369  -0.063
   0.00000   0.00000   0.00000   0.00000   0.00000   0.00000   0.00000   0.00000   0.00000
Generated with MDTraj, t= 71.0
 66
    1UNL     C1    1  -0.218  -0.491  -0.031
    1UNL     C2    2  -0.234  -0.370  -0.082
    1UNL     C3    3  -0.170  -0.249  -0.017
    1UNL     C4    4  -0.229  -0.218   0.124
    1UNL     O1    5  -0.170  -0.102   0.176
    1UNL     C5    6  -0.213   0.011   0.107
    1UNL     O2    7  -0.187   0.007  -0.029
    1UNL     C6    8  -0.245   0.124  -0.096
    1UNL     C7    9  -0.397   0.120  -0.099
    1UNL     O3   10  -0.437  -0.013  -0.139
    1UNL     C8   11  -0.175   0.254  -0.045
    1UNL     O4   12  -0.231   0.373  -0.107
    1UNL     C9   13  -0.196   0.268   0.108
    1UNL     O5   14  -0.339   0.295   0.128
    1UNL    C10   15  -0.142   0.137   0.177
    1UNL     O6   16  -0.001   0.115   0.176
    1UNL     O7   17  -0.195  -0.332   0.212
    1UNL    C11   18  -0.058  -0.350   0.224
    1UNL    C12   19   0.036  -0.306   0.136
    1UNL    C13   20   0.164  -0.265   0.180
    1UNL     O8   21   0.200  -0.295   0.298
    1UNL     N1   22   0.256  -0.191   0.094
    1UNL    C14   23   0.384  -0.136   0.143
    1UNL    C15   24   0.394   0.019   0.148
    1UNL    C16   25   0.327   0.073   0.018
    1UNL    C17   26   0.259  -0.012  -0.068
    1UNL     N2   27   0.237   0.047  -0.188
    1UNL    C18   28   0.270   0.184  -0.172
    1UNL    C19   29   0.242   0.296  -0.253
    1UNL    C20   30   0.301   0.415  -0.224
    1UNL    C21   31   0.374   0.432  -0.108
    1UNL    C22   32   0.391   0.329  -0.019
    1UNL    C23   33   0.341   0.200  -0.051
    1UNL    C24   34   0.210  -0.151  -0.040
    1UNL    C25   35   0.057  -0.148  -0.061
    1UNL    C26   36  -0.017  -0.266   0.002
    1UNL     H1   37  -0.255  -0.573  -0.088
    1UNL     H2   38  -0.159  -0.509   0.055
    1UNL     H3   39  -0.308  -0.347  -0.156
    1UNL     H4   40  -0.184  -0.162  -0.081
    1UNL     H5   41  -0.345  -0.210   0.122
    1UNL     H6   42  -0.324   0.014   0.128
    1UNL     H7   43  -0.212   0.103  -0.205
    1UNL     H8   44  -0.455   0.137  -0.007
    1UNL     H9   45  -0.438   0.188  -0.173
    1UNL    H10   46  -0.377  -0.079  -0.094
    1UNL    H11   47  -0.067   0.242  -0.055
    1UNL    H12   48  -0.326   0.382  -0.078
    1UNL    H13   49  -0.151   0.354   0.153
    1UNL    H14   50  -0.353   0.299   0.227
    1UNL    H15   51  -0.180   0.142   0.282
    1UNL    H16   52   0.020   0.020   0.197
    1UNL    H17   53  -0.032  -0.396   0.317
    1UNL    H18   54   0.412  -0.187   0.234
    1UNL    H19   55   0.456  -0.175   0.070
    1UNL    H20   56   0.499   0.043   0.142
    1UNL    H21   57   0.339   0.064   0.229
    1UNL    H22   58   0.164   0.012  -0.243
    1UNL    H23   59   0.183   0.278  -0.346
    1UNL    H24   60   0.287   0.502  -0.289
    1UNL    H25   61   0.420   0.533  -0.094
    1UNL    H26   62   0.432   0.338   0.075
    1UNL    H27   63   0.248  -0.224  -0.117
    1UNL    H28   64   0.042  -0.144  -0.172
    1UNL    H29   65   0.006  -0.058  -0.011
    1UNL    H30   66   0.015  -0.352  -0.056
   0.00000   0.00000   0.00000   0.00000   0.00000   0.00000   0.00000   0.00000   0.00000
Generated with MDTraj, t= 72.0
 66
    1UNL     C1    1  -0.174  -0.515  -0.068
    1UNL     C2    2  -0.225  -0.395  -0.071
    1UNL     C3    3  -0.166  -0.275  -0.007
    1UNL     C4    4  -0.230  -0.229   0.131
    1UNL     O1    5  -0.184  -0.102   0.168
    1UNL     C5    6  -0.215   0.016   0.091
    1UNL     O2    7  -0.193   0.022  -0.048
    1UNL     C6    8  -0.255   0.138  -0.111
    1UNL     C7    9  -0.403   0.138  -0.095
    1UNL     O3   10  -0.460   0.001  -0.104
    1UNL     C8   11  -0.185   0.265  -0.051
    1UNL     O4   12  -0.251   0.381  -0.110
    1UNL     C9   13  -0.212   0.271   0.103
    1UNL     O5   14  -0.353   0.302   0.132
    1UNL    C10   15  -0.157   0.143   0.162
    1UNL     O6   16  -0.013   0.140   0.159
    1UNL     O7   17  -0.194  -0.338   0.218
    1UNL    C11   18  -0.059  -0.327   0.246
    1UNL    C12   19   0.033  -0.287   0.155
    1UNL    C13   20   0.173  -0.257   0.190
    1UNL     O8   21   0.216  -0.289   0.305
    1UNL     N1   22   0.256  -0.187   0.101
    1UNL    C14   23   0.390  -0.137   0.146
    1UNL    C15   24   0.407   0.012   0.124
    1UNL    C16   25   0.352   0.054  -0.012
    1UNL    C17   26   0.257  -0.017  -0.083
    1UNL     N2   27   0.206   0.059  -0.189
    1UNL    C18   28   0.268   0.184  -0.177
    1UNL    C19   29   0.244   0.307  -0.240
    1UNL    C20   30   0.309   0.417  -0.190
    1UNL    C21   31   0.400   0.407  -0.080
    1UNL    C22   32   0.410   0.298  -0.007
    1UNL    C23   33   0.348   0.188  -0.062
    1UNL    C24   34   0.212  -0.152  -0.041
    1UNL    C25   35   0.061  -0.173  -0.073
    1UNL    C26   36  -0.012  -0.284   0.007
    1UNL     H1   37  -0.211  -0.605  -0.117
    1UNL     H2   38  -0.103  -0.521   0.015
    1UNL     H3   39  -0.314  -0.385  -0.132
    1UNL     H4   40  -0.187  -0.188  -0.069
    1UNL     H5   41  -0.344  -0.235   0.125
    1UNL     H6   42  -0.325   0.016   0.115
    1UNL     H7   43  -0.223   0.142  -0.217
    1UNL     H8   44  -0.420   0.178   0.005
    1UNL     H9   45  -0.459   0.199  -0.164
    1UNL    H10   46  -0.385  -0.059  -0.110
    1UNL    H11   47  -0.075   0.281  -0.070
    1UNL    H12   48  -0.334   0.395  -0.061
    1UNL    H13   49  -0.159   0.359   0.136
    1UNL    H14   50  -0.377   0.304   0.226
    1UNL    H15   51  -0.178   0.133   0.275
    1UNL    H16   52   0.021   0.052   0.164
    1UNL    H17   53  -0.020  -0.326   0.347
    1UNL    H18   54   0.398  -0.164   0.249
    1UNL    H19   55   0.474  -0.196   0.105
    1UNL    H20   56   0.508   0.035   0.120
    1UNL    H21   57   0.357   0.063   0.206
    1UNL    H22   58   0.159   0.039  -0.272
    1UNL    H23   59   0.165   0.321  -0.308
    1UNL    H24   60   0.287   0.511  -0.236
    1UNL    H25   61   0.457   0.487  -0.042
    1UNL    H26   62   0.482   0.291   0.084
    1UNL    H27   63   0.265  -0.225  -0.107
    1UNL    H28   64   0.048  -0.191  -0.182
    1UNL    H29   65   0.030  -0.064  -0.056
    1UNL    H30   66   0.021  -0.375  -0.038
   0.00000   0.00000   0.00000   0.00000   0.00000   0.00000   0.00000   0.00000   0.00000
Generated with MDTraj, t= 73.0
 66
    1UNL     C1    1  -0.187  -0.521  -0.017
    1UNL     C2    2  -0.232  -0.404  -0.057
    1UNL     C3    3  -0.166  -0.272  -0.018
    1UNL     C4    4  -0.225  -0.225   0.124
    1UNL     O1    5  -0.171  -0.102   0.161
    1UNL     C5    6  -0.233   0.008   0.101
    1UNL     O2    7  -0.227   0.006  -0.040
    1UNL     C6    8  -0.281   0.128  -0.108
    1UNL     C7    9  -0.435   0.132  -0.099
    1UNL     O3   10  -0.490   0.012  -0.147
    1UNL     C8   11  -0.204   0.253  -0.055
    1UNL     O4   12  -0.259   0.365  -0.118
    1UNL     C9   13  -0.211   0.260   0.095
    1UNL     O5   14  -0.339   0.306   0.137
    1UNL    C10   15  -0.160   0.134   0.160
    1UNL     O6   16  -0.018   0.126   0.141
    1UNL     O7   17  -0.183  -0.322   0.221
    1UNL    C11   18  -0.051  -0.313   0.237
    1UNL    C12   19   0.035  -0.278   0.142
    1UNL    C13   20   0.174  -0.248   0.178
    1UNL     O8   21   0.212  -0.258   0.297
    1UNL     N1   22   0.265  -0.207   0.084
    1UNL    C14   23   0.408  -0.166   0.120
    1UNL    C15   24   0.429  -0.011   0.118
    1UNL    C16   25   0.358   0.051   0.003
    1UNL    C17   26   0.266  -0.019  -0.071
    1UNL     N2   27   0.214   0.072  -0.159
    1UNL    C18   28   0.271   0.196  -0.153
    1UNL    C19   29   0.250   0.318  -0.213
    1UNL    C20   30   0.330   0.428  -0.188
    1UNL    C21   31   0.408   0.423  -0.076
    1UNL    C22   32   0.437   0.302  -0.014
    1UNL    C23   33   0.368   0.184  -0.054
    1UNL    C24   34   0.213  -0.154  -0.046
    1UNL    C25   35   0.060  -0.151  -0.057
    1UNL    C26   36  -0.013  -0.274  -0.006
    1UNL     H1   37  -0.241  -0.609  -0.043
    1UNL     H2   38  -0.111  -0.523   0.056
    1UNL     H3   39  -0.320  -0.407  -0.118
    1UNL     H4   40  -0.193  -0.188  -0.081
    1UNL     H5   41  -0.337  -0.220   0.136
    1UNL     H6   42  -0.336   0.008   0.144
    1UNL     H7   43  -0.248   0.114  -0.209
    1UNL     H8   44  -0.488   0.158  -0.006
    1UNL     H9   45  -0.455   0.210  -0.172
    1UNL    H10   46  -0.431  -0.062  -0.117
    1UNL    H11   47  -0.092   0.245  -0.085
    1UNL    H12   48  -0.331   0.396  -0.052
    1UNL    H13   49  -0.133   0.332   0.124
    1UNL    H14   50  -0.339   0.321   0.233
    1UNL    H15   51  -0.161   0.135   0.278
    1UNL    H16   52   0.018   0.034   0.167
    1UNL    H17   53   0.001  -0.327   0.333
    1UNL    H18   54   0.444  -0.205   0.212
    1UNL    H19   55   0.481  -0.211   0.051
    1UNL    H20   56   0.529   0.012   0.125
    1UNL    H21   57   0.375   0.027   0.205
    1UNL    H22   58   0.128   0.062  -0.203
    1UNL    H23   59   0.168   0.323  -0.287
    1UNL    H24   60   0.324   0.525  -0.237
    1UNL    H25   61   0.459   0.512  -0.036
    1UNL    H26   62   0.509   0.284   0.058
    1UNL    H27   63   0.252  -0.226  -0.121
    1UNL    H28   64   0.041  -0.120  -0.163
    1UNL    H29   65   0.018  -0.065   0.004
    1UNL    H30   66   0.022  -0.362  -0.054
   0.00000   0.00000   0.00000   0.00000   0.00000   0.00000   0.00000   0.00000   0.00000
Generated with MDTraj, t= 74.0
 66
    1UNL     C1    1  -0.237  -0.512   0.021
    1UNL     C2    2  -0.208  -0.407  -0.055
    1UNL     C3    3  -0.168  -0.275  -0.002
    1UNL     C4    4  -0.220  -0.237   0.143
    1UNL     O1    5  -0.178  -0.102   0.170
    1UNL     C5    6  -0.241   0.007   0.106
    1UNL     O2    7  -0.236  -0.006  -0.030
    1UNL     C6    8  -0.281   0.110  -0.109
    1UNL     C7    9  -0.432   0.121  -0.097
    1UNL     O3   10  -0.505   0.021  -0.150
    1UNL     C8   11  -0.209   0.243  -0.075
    1UNL     O4   12  -0.269   0.353  -0.138
    1UNL     C9   13  -0.209   0.262   0.077
    1UNL     O5   14  -0.346   0.296   0.114
    1UNL    C10   15  -0.163   0.136   0.152
    1UNL     O6   16  -0.029   0.108   0.129
    1UNL     O7   17  -0.170  -0.325   0.247
    1UNL    C11   18  -0.036  -0.309   0.257
    1UNL    C12   19   0.042  -0.273   0.148
    1UNL    C13   20   0.183  -0.246   0.167
    1UNL     O8   21   0.224  -0.269   0.282
    1UNL     N1   22   0.263  -0.201   0.065
    1UNL    C14   23   0.401  -0.171   0.091
    1UNL    C15   24   0.429  -0.018   0.099
    1UNL    C16   25   0.352   0.051  -0.006
    1UNL    C17   26   0.252   0.002  -0.084
    1UNL     N2   27   0.198   0.102  -0.163
    1UNL    C18   28   0.273   0.219  -0.144
    1UNL    C19   29   0.279   0.345  -0.203
    1UNL    C20   30   0.359   0.443  -0.155
    1UNL    C21   31   0.453   0.410  -0.054
    1UNL    C22   32   0.454   0.288   0.010
    1UNL    C23   33   0.362   0.191  -0.037
    1UNL    C24   34   0.205  -0.138  -0.057
    1UNL    C25   35   0.054  -0.150  -0.077
    1UNL    C26   36  -0.016  -0.264   0.004
    1UNL     H1   37  -0.247  -0.606  -0.033
    1UNL     H2   38  -0.214  -0.515   0.127
    1UNL     H3   39  -0.217  -0.417  -0.163
    1UNL     H4   40  -0.197  -0.191  -0.065
    1UNL     H5   41  -0.330  -0.239   0.151
    1UNL     H6   42  -0.344   0.013   0.148
    1UNL     H7   43  -0.265   0.073  -0.206
    1UNL     H8   44  -0.450   0.141   0.009
    1UNL     H9   45  -0.475   0.205  -0.153
    1UNL    H10   46  -0.461  -0.066  -0.141
    1UNL    H11   47  -0.107   0.242  -0.134
    1UNL    H12   48  -0.332   0.392  -0.079
    1UNL    H13   49  -0.155   0.354   0.103
    1UNL    H14   50  -0.355   0.313   0.212
    1UNL    H15   51  -0.188   0.154   0.263
    1UNL    H16   52  -0.013   0.019   0.177
    1UNL    H17   53   0.004  -0.341   0.353
    1UNL    H18   54   0.437  -0.232   0.170
    1UNL    H19   55   0.467  -0.206   0.009
    1UNL    H20   56   0.530   0.005   0.093
    1UNL    H21   57   0.395   0.007   0.196
    1UNL    H22   58   0.129   0.079  -0.231
    1UNL    H23   59   0.215   0.371  -0.285
    1UNL    H24   60   0.353   0.541  -0.197
    1UNL    H25   61   0.526   0.484  -0.029
    1UNL    H26   62   0.519   0.255   0.088
    1UNL    H27   63   0.252  -0.198  -0.135
    1UNL    H28   64   0.016  -0.164  -0.182
    1UNL    H29   65   0.006  -0.051  -0.051
    1UNL    H30   66   0.019  -0.356  -0.037
   0.00000   0.00000   0.00000   0.00000   0.00000   0.00000   0.00000   0.00000   0.00000
Generated with MDTraj, t= 75.0
 66
    1UNL     C1    1  -0.272  -0.492   0.056
    1UNL     C2    2  -0.229  -0.400  -0.028
    1UNL     C3    3  -0.171  -0.272   0.013
    1UNL     C4    4  -0.222  -0.230   0.155
    1UNL     O1    5  -0.193  -0.096   0.195
    1UNL     C5    6  -0.251   0.004   0.102
    1UNL     O2    7  -0.239  -0.014  -0.041
    1UNL     C6    8  -0.281   0.100  -0.126
    1UNL     C7    9  -0.437   0.102  -0.112
    1UNL     O3   10  -0.499  -0.023  -0.104
    1UNL     C8   11  -0.207   0.234  -0.094
    1UNL     O4   12  -0.233   0.350  -0.172
    1UNL     C9   13  -0.220   0.260   0.058
    1UNL     O5   14  -0.355   0.291   0.094
    1UNL    C10   15  -0.178   0.139   0.149
    1UNL     O6   16  -0.038   0.108   0.136
    1UNL     O7   17  -0.163  -0.323   0.249
    1UNL    C11   18  -0.031  -0.320   0.236
    1UNL    C12   19   0.048  -0.279   0.133
    1UNL    C13   20   0.189  -0.256   0.150
    1UNL     O8   21   0.239  -0.282   0.264
    1UNL     N1   22   0.261  -0.205   0.038
    1UNL    C14   23   0.402  -0.178   0.051
    1UNL    C15   24   0.426  -0.031   0.097
    1UNL    C16   25   0.348   0.062   0.010
    1UNL    C17   26   0.246   0.016  -0.071
    1UNL     N2   27   0.202   0.125  -0.152
    1UNL    C18   28   0.277   0.235  -0.118
    1UNL    C19   29   0.281   0.359  -0.179
    1UNL    C20   30   0.371   0.453  -0.136
    1UNL    C21   31   0.473   0.415  -0.046
    1UNL    C22   32   0.480   0.291   0.009
    1UNL    C23   33   0.378   0.197  -0.026
    1UNL    C24   34   0.196  -0.126  -0.070
    1UNL    C25   35   0.042  -0.134  -0.063
    1UNL    C26   36  -0.012  -0.263   0.002
    1UNL     H1   37  -0.312  -0.583   0.017
    1UNL     H2   38  -0.261  -0.471   0.160
    1UNL     H3   39  -0.206  -0.419  -0.132
    1UNL     H4   40  -0.191  -0.202  -0.066
    1UNL     H5   41  -0.328  -0.245   0.164
    1UNL     H6   42  -0.360  -0.004   0.120
    1UNL     H7   43  -0.273   0.085  -0.229
    1UNL     H8   44  -0.464   0.146  -0.015
    1UNL     H9   45  -0.474   0.169  -0.191
    1UNL    H10   46  -0.434  -0.092  -0.079
    1UNL    H11   47  -0.092   0.220  -0.113
    1UNL    H12   48  -0.329   0.375  -0.146
    1UNL    H13   49  -0.160   0.340   0.104
    1UNL    H14   50  -0.354   0.309   0.192
    1UNL    H15   51  -0.196   0.160   0.258
    1UNL    H16   52  -0.025   0.021   0.170
    1UNL    H17   53   0.016  -0.353   0.327
    1UNL    H18   54   0.450  -0.240   0.121
    1UNL    H19   55   0.453  -0.214  -0.041
    1UNL    H20   56   0.531  -0.011   0.093
    1UNL    H21   57   0.403  -0.015   0.196
    1UNL    H22   58   0.140   0.112  -0.234
    1UNL    H23   59   0.215   0.378  -0.260
    1UNL    H24   60   0.374   0.552  -0.181
    1UNL    H25   61   0.547   0.484  -0.005
    1UNL    H26   62   0.555   0.268   0.095
    1UNL    H27   63   0.224  -0.167  -0.167
    1UNL    H28   64  -0.004  -0.130  -0.167
    1UNL    H29   65  -0.022  -0.058  -0.017
    1UNL    H30   66   0.024  -0.347  -0.053
   0.00000   0.00000   0.00000   0.00000   0.00000   0.00000   0.00000   0.00000   0.00000
Generated with MDTraj, t= 76.0
 66
    1UNL     C1    1  -0.281  -0.497   0.055
    1UNL     C2    2  -0.225  -0.407  -0.027
    1UNL     C3    3  -0.172  -0.269   0.012
    1UNL     C4    4  -0.216  -0.217   0.154
    1UNL     O1    5  -0.164  -0.088   0.193
    1UNL     C5    6  -0.226   0.016   0.110
    1UNL     O2    7  -0.211  -0.011  -0.028
    1UNL     C6    8  -0.280   0.070  -0.124
    1UNL     C7    9  -0.432   0.086  -0.104
    1UNL     O3   10  -0.490  -0.044  -0.105
    1UNL     C8   11  -0.209   0.212  -0.110
    1UNL     O4   12  -0.254   0.315  -0.200
    1UNL     C9   13  -0.223   0.263   0.042
    1UNL     O5   14  -0.347   0.319   0.067
    1UNL    C10   15  -0.182   0.160   0.144
    1UNL     O6   16  -0.040   0.165   0.175
    1UNL     O7   17  -0.162  -0.314   0.242
    1UNL    C11   18  -0.028  -0.312   0.245
    1UNL    C12   19   0.045  -0.279   0.136
    1UNL    C13   20   0.186  -0.269   0.136
    1UNL     O8   21   0.249  -0.320   0.232
    1UNL     N1   22   0.253  -0.202   0.034
    1UNL    C14   23   0.394  -0.181   0.031
    1UNL    C15   24   0.432  -0.040   0.079
    1UNL    C16   25   0.343   0.058   0.012
    1UNL    C17   26   0.233   0.021  -0.061
    1UNL     N2   27   0.187   0.129  -0.132
    1UNL    C18   28   0.268   0.238  -0.106
    1UNL    C19   29   0.272   0.373  -0.155
    1UNL    C20   30   0.375   0.454  -0.111
    1UNL    C21   31   0.477   0.410  -0.026
    1UNL    C22   32   0.478   0.276   0.006
    1UNL    C23   33   0.372   0.194  -0.026
    1UNL    C24   34   0.186  -0.121  -0.070
    1UNL    C25   35   0.032  -0.125  -0.055
    1UNL    C26   36  -0.015  -0.260   0.004
    1UNL     H1   37  -0.339  -0.580   0.020
    1UNL     H2   38  -0.281  -0.477   0.161
    1UNL     H3   39  -0.219  -0.426  -0.134
    1UNL     H4   40  -0.204  -0.204  -0.066
    1UNL     H5   41  -0.322  -0.214   0.161
    1UNL     H6   42  -0.334   0.019   0.126
    1UNL     H7   43  -0.272   0.022  -0.218
    1UNL     H8   44  -0.437   0.140  -0.008
    1UNL     H9   45  -0.488   0.139  -0.185
    1UNL    H10   46  -0.430  -0.112  -0.062
    1UNL    H11   47  -0.097   0.195  -0.146
    1UNL    H12   48  -0.336   0.345  -0.158
    1UNL    H13   49  -0.161   0.353   0.046
    1UNL    H14   50  -0.369   0.363   0.152
    1UNL    H15   51  -0.238   0.200   0.232
    1UNL    H16   52  -0.028   0.109   0.261
    1UNL    H17   53   0.018  -0.314   0.343
    1UNL    H18   54   0.428  -0.261   0.090
    1UNL    H19   55   0.445  -0.212  -0.064
    1UNL    H20   56   0.533  -0.020   0.050
    1UNL    H21   57   0.436  -0.036   0.180
    1UNL    H22   58   0.103   0.142  -0.197
    1UNL    H23   59   0.204   0.406  -0.236
    1UNL    H24   60   0.390   0.557  -0.136
    1UNL    H25   61   0.558   0.475   0.006
    1UNL    H26   62   0.544   0.233   0.069
    1UNL    H27   63   0.212  -0.154  -0.170
    1UNL    H28   64  -0.042  -0.106  -0.141
    1UNL    H29   65   0.001  -0.048   0.012
    1UNL    H30   66   0.008  -0.341  -0.063
   0.00000   0.00000   0.00000   0.00000   0.00000   0.00000   0.00000   0.00000   0.00000
Generated with MDTraj, t= 77.0
 66
    1UNL     C1    1  -0.267  -0.488   0.094
    1UNL     C2    2  -0.252  -0.394  -0.001
    1UNL     C3    3  -0.177  -0.264   0.021
    1UNL     C4    4  -0.207  -0.214   0.168
    1UNL     O1    5  -0.177  -0.077   0.181
    1UNL     C5    6  -0.248   0.015   0.095
    1UNL     O2    7  -0.216  -0.007  -0.042
    1UNL     C6    8  -0.271   0.091  -0.132
    1UNL     C7    9  -0.423   0.088  -0.120
    1UNL     O3   10  -0.481  -0.045  -0.109
    1UNL     C8   11  -0.211   0.236  -0.113
    1UNL     O4   12  -0.275   0.327  -0.203
    1UNL     C9   13  -0.233   0.278   0.036
    1UNL     O5   14  -0.358   0.329   0.054
    1UNL    C10   15  -0.198   0.162   0.132
    1UNL     O6   16  -0.052   0.149   0.142
    1UNL     O7   17  -0.142  -0.293   0.264
    1UNL    C11   18  -0.009  -0.302   0.243
    1UNL    C12   19   0.054  -0.291   0.124
    1UNL    C13   20   0.201  -0.281   0.123
    1UNL     O8   21   0.259  -0.344   0.217
    1UNL     N1   22   0.270  -0.215   0.025
    1UNL    C14   23   0.415  -0.195   0.042
    1UNL    C15   24   0.451  -0.046   0.065
    1UNL    C16   25   0.359   0.043  -0.010
    1UNL    C17   26   0.239   0.012  -0.065
    1UNL     N2   27   0.180   0.128  -0.112
    1UNL    C18   28   0.262   0.231  -0.095
    1UNL    C19   29   0.250   0.367  -0.126
    1UNL    C20   30   0.346   0.455  -0.081
    1UNL    C21   31   0.464   0.403  -0.021
    1UNL    C22   32   0.480   0.273   0.019
    1UNL    C23   33   0.373   0.185  -0.012
    1UNL    C24   34   0.193  -0.129  -0.072
    1UNL    C25   35   0.034  -0.127  -0.049
    1UNL    C26   36  -0.015  -0.266  -0.004
    1UNL     H1   37  -0.306  -0.587   0.073
    1UNL     H2   38  -0.231  -0.474   0.194
    1UNL     H3   39  -0.316  -0.405  -0.086
    1UNL     H4   40  -0.216  -0.186  -0.043
    1UNL     H5   41  -0.312  -0.216   0.178
    1UNL     H6   42  -0.355   0.002   0.111
    1UNL     H7   43  -0.239   0.055  -0.229
    1UNL     H8   44  -0.454   0.135  -0.024
    1UNL     H9   45  -0.464   0.151  -0.200
    1UNL    H10   46  -0.410  -0.104  -0.081
    1UNL    H11   47  -0.099   0.213  -0.147
    1UNL    H12   48  -0.333   0.384  -0.146
    1UNL    H13   49  -0.152   0.342   0.067
    1UNL    H14   50  -0.353   0.385   0.134
    1UNL    H15   51  -0.230   0.192   0.230
    1UNL    H16   52  -0.036   0.108   0.226
    1UNL    H17   53   0.060  -0.316   0.328
    1UNL    H18   54   0.457  -0.263   0.110
    1UNL    H19   55   0.459  -0.239  -0.050
    1UNL    H20   56   0.554  -0.027   0.042
    1UNL    H21   57   0.441  -0.024   0.166
    1UNL    H22   58   0.084   0.128  -0.161
    1UNL    H23   59   0.165   0.403  -0.175
    1UNL    H24   60   0.335   0.561  -0.097
    1UNL    H25   61   0.551   0.461  -0.007
    1UNL    H26   62   0.579   0.239   0.055
    1UNL    H27   63   0.223  -0.164  -0.170
    1UNL    H28   64  -0.008  -0.090  -0.148
    1UNL    H29   65  -0.003  -0.060   0.024
    1UNL    H30   66   0.007  -0.343  -0.074
   0.00000   0.00000   0.00000   0.00000   0.00000   0.00000   0.00000   0.00000   0.00000
Generated with MDTraj, t= 78.0
 66
    1UNL     C1    1  -0.220  -0.495   0.102
    1UNL     C2    2  -0.223  -0.402   0.008
    1UNL     C3    3  -0.168  -0.264   0.029
    1UNL     C4    4  -0.192  -0.196   0.166
    1UNL     O1    5  -0.147  -0.059   0.164
    1UNL     C5    6  -0.227   0.037   0.096
    1UNL     O2    7  -0.228   0.011  -0.045
    1UNL     C6    8  -0.287   0.106  -0.132
    1UNL     C7    9  -0.436   0.100  -0.127
    1UNL     O3   10  -0.486  -0.027  -0.147
    1UNL     C8   11  -0.225   0.251  -0.111
    1UNL     O4   12  -0.273   0.352  -0.199
    1UNL     C9   13  -0.244   0.282   0.038
    1UNL     O5   14  -0.384   0.287   0.058
    1UNL    C10   15  -0.171   0.176   0.127
    1UNL     O6   16  -0.033   0.180   0.111
    1UNL     O7   17  -0.145  -0.271   0.277
    1UNL    C11   18  -0.008  -0.283   0.263
    1UNL    C12   19   0.059  -0.274   0.143
    1UNL    C13   20   0.201  -0.283   0.136
    1UNL     O8   21   0.265  -0.351   0.223
    1UNL     N1   22   0.264  -0.239   0.023
    1UNL    C14   23   0.412  -0.218   0.019
    1UNL    C15   24   0.458  -0.069   0.046
    1UNL    C16   25   0.361   0.029  -0.018
    1UNL    C17   26   0.242  -0.006  -0.073
    1UNL     N2   27   0.175   0.106  -0.110
    1UNL    C18   28   0.248   0.219  -0.081
    1UNL    C19   29   0.225   0.360  -0.089
    1UNL    C20   30   0.324   0.446  -0.060
    1UNL    C21   31   0.437   0.404   0.014
    1UNL    C22   32   0.468   0.266   0.022
    1UNL    C23   33   0.370   0.173  -0.026
    1UNL    C24   34   0.193  -0.152  -0.079
    1UNL    C25   35   0.036  -0.147  -0.076
    1UNL    C26   36  -0.016  -0.263   0.011
    1UNL     H1   37  -0.260  -0.594   0.096
    1UNL     H2   38  -0.191  -0.461   0.200
    1UNL     H3   39  -0.267  -0.436  -0.085
    1UNL     H4   40  -0.214  -0.197  -0.047
    1UNL     H5   41  -0.298  -0.193   0.177
    1UNL     H6   42  -0.330   0.023   0.128
    1UNL     H7   43  -0.249   0.085  -0.234
    1UNL     H8   44  -0.473   0.141  -0.033
    1UNL     H9   45  -0.482   0.160  -0.207
    1UNL    H10   46  -0.414  -0.089  -0.115
    1UNL    H11   47  -0.111   0.246  -0.147
    1UNL    H12   48  -0.353   0.398  -0.156
    1UNL    H13   49  -0.214   0.382   0.051
    1UNL    H14   50  -0.425   0.327   0.140
    1UNL    H15   51  -0.202   0.199   0.224
    1UNL    H16   52  -0.005   0.098   0.152
    1UNL    H17   53   0.051  -0.312   0.350
    1UNL    H18   54   0.452  -0.290   0.083
    1UNL    H19   55   0.459  -0.250  -0.078
    1UNL    H20   56   0.558  -0.053   0.017
    1UNL    H21   57   0.456  -0.054   0.153
    1UNL    H22   58   0.072   0.102  -0.134
    1UNL    H23   59   0.126   0.406  -0.111
    1UNL    H24   60   0.308   0.551  -0.079
    1UNL    H25   61   0.497   0.481   0.070
    1UNL    H26   62   0.565   0.221   0.058
    1UNL    H27   63   0.236  -0.184  -0.174
    1UNL    H28   64  -0.006  -0.161  -0.180
    1UNL    H29   65   0.010  -0.051  -0.039
    1UNL    H30   66   0.001  -0.355  -0.042
   0.00000   0.00000   0.00000   0.00000   0.00000   0.00000   0.00000   0.00000   0.00000
Generated with MDTraj, t= 79.0
 66
    1UNL     C1    1  -0.205  -0.501   0.104
    1UNL     C2    2  -0.250  -0.388   0.049
    1UNL     C3    3  -0.172  -0.260   0.043
    1UNL     C4    4  -0.192  -0.175   0.167
    1UNL     O1    5  -0.133  -0.046   0.153
    1UNL     C5    6  -0.211   0.042   0.079
    1UNL     O2    7  -0.198   0.024  -0.068
    1UNL     C6    8  -0.281   0.118  -0.148
    1UNL     C7    9  -0.432   0.092  -0.134
    1UNL     O3   10  -0.463  -0.035  -0.172
    1UNL     C8   11  -0.244   0.266  -0.113
    1UNL     O4   12  -0.309   0.360  -0.188
    1UNL     C9   13  -0.251   0.292   0.035
    1UNL     O5   14  -0.387   0.290   0.083
    1UNL    C10   15  -0.158   0.184   0.118
    1UNL     O6   16  -0.022   0.191   0.092
    1UNL     O7   17  -0.136  -0.256   0.281
    1UNL    C11   18  -0.003  -0.287   0.261
    1UNL    C12   19   0.062  -0.277   0.142
    1UNL    C13   20   0.205  -0.270   0.134
    1UNL     O8   21   0.275  -0.283   0.240
    1UNL     N1   22   0.266  -0.250   0.008
    1UNL    C14   23   0.415  -0.231   0.002
    1UNL    C15   24   0.458  -0.083   0.028
    1UNL    C16   25   0.364   0.018  -0.036
    1UNL    C17   26   0.239  -0.022  -0.086
    1UNL     N2   27   0.171   0.097  -0.115
    1UNL    C18   28   0.240   0.208  -0.077
    1UNL    C19   29   0.208   0.340  -0.065
    1UNL    C20   30   0.302   0.427  -0.012
    1UNL    C21   31   0.424   0.386   0.041
    1UNL    C22   32   0.448   0.251   0.047
    1UNL    C23   33   0.359   0.164  -0.019
    1UNL    C24   34   0.193  -0.164  -0.094
    1UNL    C25   35   0.039  -0.178  -0.087
    1UNL    C26   36  -0.016  -0.281   0.017
    1UNL     H1   37  -0.272  -0.584   0.119
    1UNL     H2   38  -0.107  -0.505   0.148
    1UNL     H3   39  -0.349  -0.386   0.006
    1UNL     H4   40  -0.213  -0.205  -0.045
    1UNL     H5   41  -0.297  -0.160   0.193
    1UNL     H6   42  -0.317   0.026   0.094
    1UNL     H7   43  -0.251   0.095  -0.258
    1UNL     H8   44  -0.479   0.110  -0.037
    1UNL     H9   45  -0.498   0.149  -0.202
    1UNL    H10   46  -0.396  -0.102  -0.142
    1UNL    H11   47  -0.128   0.271  -0.134
    1UNL    H12   48  -0.374   0.405  -0.128
    1UNL    H13   49  -0.200   0.378   0.065
    1UNL    H14   50  -0.385   0.326   0.175
    1UNL    H15   51  -0.167   0.206   0.218
    1UNL    H16   52   0.014   0.094   0.077
    1UNL    H17   53   0.062  -0.290   0.348
    1UNL    H18   54   0.463  -0.283   0.080
    1UNL    H19   55   0.456  -0.273  -0.093
    1UNL    H20   56   0.553  -0.064  -0.012
    1UNL    H21   57   0.459  -0.065   0.139
    1UNL    H22   58   0.073   0.098  -0.144
    1UNL    H23   59   0.113   0.369  -0.100
    1UNL    H24   60   0.282   0.533  -0.007
    1UNL    H25   61   0.492   0.454   0.077
    1UNL    H26   62   0.531   0.219   0.095
    1UNL    H27   63   0.232  -0.208  -0.188
    1UNL    H28   64   0.005  -0.197  -0.193
    1UNL    H29   65  -0.006  -0.085  -0.052
    1UNL    H30   66  -0.003  -0.378  -0.026
   0.00000   0.00000   0.00000   0.00000   0.00000   0.00000   0.00000   0.00000   0.00000
Generated with MDTraj, t= 80.0
 66
    1UNL     C1    1  -0.198  -0.492   0.118
    1UNL     C2    2  -0.236  -0.388   0.041
    1UNL     C3    3  -0.169  -0.254   0.041
    1UNL     C4    4  -0.193  -0.163   0.164
    1UNL     O1    5  -0.138  -0.035   0.158
    1UNL     C5    6  -0.198   0.049   0.067
    1UNL     O2    7  -0.174   0.034  -0.073
    1UNL     C6    8  -0.260   0.122  -0.152
    1UNL     C7    9  -0.406   0.079  -0.147
    1UNL     O3   10  -0.432  -0.059  -0.158
    1UNL     C8   11  -0.236   0.271  -0.104
    1UNL     O4   12  -0.332   0.347  -0.186
    1UNL     C9   13  -0.250   0.302   0.047
    1UNL     O5   14  -0.388   0.295   0.093
    1UNL    C10   15  -0.155   0.191   0.112
    1UNL     O6   16  -0.025   0.213   0.083
    1UNL     O7   17  -0.136  -0.233   0.276
    1UNL    C11   18   0.001  -0.244   0.259
    1UNL    C12   19   0.068  -0.262   0.142
    1UNL    C13   20   0.209  -0.260   0.125
    1UNL     O8   21   0.286  -0.260   0.226
    1UNL     N1   22   0.267  -0.256  -0.005
    1UNL    C14   23   0.410  -0.240  -0.011
    1UNL    C15   24   0.449  -0.098   0.024
    1UNL    C16   25   0.347   0.004  -0.033
    1UNL    C17   26   0.231  -0.032  -0.096
    1UNL     N2   27   0.152   0.084  -0.114
    1UNL    C18   28   0.231   0.194  -0.064
    1UNL    C19   29   0.193   0.330  -0.047
    1UNL    C20   30   0.281   0.412   0.013
    1UNL    C21   31   0.405   0.358   0.055
    1UNL    C22   32   0.432   0.227   0.059
    1UNL    C23   33   0.348   0.146  -0.013
    1UNL    C24   34   0.189  -0.175  -0.111
    1UNL    C25   35   0.038  -0.183  -0.092
    1UNL    C26   36  -0.012  -0.278   0.020
    1UNL     H1   37  -0.242  -0.584   0.085
    1UNL     H2   38  -0.112  -0.493   0.184
    1UNL     H3   39  -0.307  -0.403  -0.040
    1UNL     H4   40  -0.215  -0.197  -0.043
    1UNL     H5   41  -0.301  -0.152   0.189
    1UNL     H6   42  -0.304   0.040   0.077
    1UNL     H7   43  -0.232   0.104  -0.266
    1UNL     H8   44  -0.462   0.096  -0.056
    1UNL     H9   45  -0.465   0.132  -0.224
    1UNL    H10   46  -0.376  -0.106  -0.094
    1UNL    H11   47  -0.140   0.320  -0.152
    1UNL    H12   48  -0.377   0.408  -0.129
    1UNL    H13   49  -0.214   0.398   0.053
    1UNL    H14   50  -0.398   0.330   0.184
    1UNL    H15   51  -0.171   0.191   0.214
    1UNL    H16   52   0.017   0.126   0.086
    1UNL    H17   53   0.048  -0.219   0.353
    1UNL    H18   54   0.457  -0.312   0.051
    1UNL    H19   55   0.448  -0.251  -0.117
    1UNL    H20   56   0.541  -0.080  -0.021
    1UNL    H21   57   0.455  -0.088   0.137
    1UNL    H22   58   0.054   0.097  -0.123
    1UNL    H23   59   0.107   0.374  -0.098
    1UNL    H24   60   0.263   0.518   0.013
    1UNL    H25   61   0.476   0.429   0.105
    1UNL    H26   62   0.511   0.180   0.126
    1UNL    H27   63   0.216  -0.210  -0.213
    1UNL    H28   64  -0.025  -0.200  -0.183
    1UNL    H29   65   0.007  -0.083  -0.054
    1UNL    H30   66   0.006  -0.378  -0.013
   0.00000   0.00000   0.00000   0.00000   0.00000   0.00000   0.00000   0.00000   0.00000
Generated with MDTraj, t= 81.0
 66
    1UNL     C1    1  -0.240  -0.466   0.155
    1UNL     C2    2  -0.247  -0.377   0.055
    1UNL     C3    3  -0.170  -0.250   0.041
    1UNL     C4    4  -0.175  -0.164   0.174
    1UNL     O1    5  -0.127  -0.033   0.158
    1UNL     C5    6  -0.202   0.050   0.076
    1UNL     O2    7  -0.181   0.033  -0.069
    1UNL     C6    8  -0.265   0.119  -0.150
    1UNL     C7    9  -0.409   0.083  -0.141
    1UNL     O3   10  -0.437  -0.060  -0.163
    1UNL     C8   11  -0.234   0.264  -0.117
    1UNL     O4   12  -0.318   0.352  -0.191
    1UNL     C9   13  -0.263   0.296   0.029
    1UNL     O5   14  -0.404   0.285   0.054
    1UNL    C10   15  -0.174   0.199   0.119
    1UNL     O6   16  -0.034   0.219   0.114
    1UNL     O7   17  -0.115  -0.230   0.283
    1UNL    C11   18   0.014  -0.252   0.252
    1UNL    C12   19   0.069  -0.276   0.131
    1UNL    C13   20   0.211  -0.273   0.115
    1UNL     O8   21   0.292  -0.279   0.212
    1UNL     N1   22   0.269  -0.257  -0.012
    1UNL    C14   23   0.414  -0.237  -0.018
    1UNL    C15   24   0.470  -0.094   0.001
    1UNL    C16   25   0.352   0.006  -0.030
    1UNL    C17   26   0.230  -0.029  -0.086
    1UNL     N2   27   0.156   0.084  -0.118
    1UNL    C18   28   0.227   0.196  -0.062
    1UNL    C19   29   0.198   0.331  -0.043
    1UNL    C20   30   0.281   0.413   0.028
    1UNL    C21   31   0.397   0.362   0.083
    1UNL    C22   32   0.440   0.236   0.058
    1UNL    C23   33   0.355   0.147  -0.017
    1UNL    C24   34   0.193  -0.170  -0.108
    1UNL    C25   35   0.043  -0.192  -0.105
    1UNL    C26   36  -0.018  -0.281   0.010
    1UNL     H1   37  -0.304  -0.553   0.156
    1UNL     H2   38  -0.164  -0.459   0.230
    1UNL     H3   39  -0.316  -0.394  -0.026
    1UNL     H4   40  -0.222  -0.190  -0.041
    1UNL     H5   41  -0.282  -0.161   0.210
    1UNL     H6   42  -0.307   0.030   0.091
    1UNL     H7   43  -0.216   0.083  -0.252
    1UNL     H8   44  -0.441   0.126  -0.047
    1UNL     H9   45  -0.472   0.129  -0.221
    1UNL    H10   46  -0.344  -0.092  -0.154
    1UNL    H11   47  -0.120   0.283  -0.129
    1UNL    H12   48  -0.393   0.361  -0.121
    1UNL    H13   49  -0.222   0.388   0.048
    1UNL    H14   50  -0.421   0.332   0.138
    1UNL    H15   51  -0.198   0.219   0.220
    1UNL    H16   52   0.015   0.133   0.145
    1UNL    H17   53   0.076  -0.261   0.341
    1UNL    H18   54   0.459  -0.298   0.059
    1UNL    H19   55   0.451  -0.277  -0.116
    1UNL    H20   56   0.554  -0.068  -0.054
    1UNL    H21   57   0.497  -0.082   0.112
    1UNL    H22   58   0.059   0.074  -0.130
    1UNL    H23   59   0.106   0.361  -0.091
    1UNL    H24   60   0.257   0.519   0.039
    1UNL    H25   61   0.446   0.423   0.154
    1UNL    H26   62   0.524   0.198   0.115
    1UNL    H27   63   0.226  -0.207  -0.210
    1UNL    H28   64   0.014  -0.229  -0.205
    1UNL    H29   65  -0.007  -0.091  -0.100
    1UNL    H30   66  -0.010  -0.381  -0.028
   0.00000   0.00000   0.00000   0.00000   0.00000   0.00000   0.00000   0.00000   0.00000
Generated with MDTraj, t= 82.0
 66
    1UNL     C1    1  -0.281  -0.437   0.162
    1UNL     C2    2  -0.238  -0.370   0.055
    1UNL     C3    3  -0.160  -0.248   0.051
    1UNL     C4    4  -0.165  -0.166   0.185
    1UNL     O1    5  -0.121  -0.035   0.159
    1UNL     C5    6  -0.211   0.041   0.085
    1UNL     O2    7  -0.202   0.017  -0.059
    1UNL     C6    8  -0.270   0.111  -0.149
    1UNL     C7    9  -0.420   0.084  -0.148
    1UNL     O3   10  -0.449  -0.054  -0.182
    1UNL     C8   11  -0.224   0.258  -0.118
    1UNL     O4   12  -0.285   0.356  -0.213
    1UNL     C9   13  -0.268   0.291   0.025
    1UNL     O5   14  -0.408   0.294   0.027
    1UNL    C10   15  -0.192   0.191   0.115
    1UNL     O6   16  -0.055   0.219   0.120
    1UNL     O7   17  -0.093  -0.228   0.297
    1UNL    C11   18   0.035  -0.260   0.259
    1UNL    C12   19   0.088  -0.264   0.135
    1UNL    C13   20   0.226  -0.291   0.104
    1UNL     O8   21   0.310  -0.332   0.190
    1UNL     N1   22   0.274  -0.254  -0.023
    1UNL    C14   23   0.419  -0.235  -0.034
    1UNL    C15   24   0.460  -0.088  -0.000
    1UNL    C16   25   0.350   0.011  -0.024
    1UNL    C17   26   0.226  -0.020  -0.079
    1UNL     N2   27   0.152   0.093  -0.086
    1UNL    C18   28   0.224   0.198  -0.039
    1UNL    C19   29   0.186   0.330  -0.018
    1UNL    C20   30   0.279   0.409   0.042
    1UNL    C21   31   0.411   0.368   0.057
    1UNL    C22   32   0.450   0.239   0.031
    1UNL    C23   33   0.345   0.148   0.005
    1UNL    C24   34   0.188  -0.163  -0.107
    1UNL    C25   35   0.034  -0.183  -0.098
    1UNL    C26   36  -0.012  -0.274   0.021
    1UNL     H1   37  -0.337  -0.528   0.161
    1UNL     H2   38  -0.274  -0.393   0.260
    1UNL     H3   39  -0.251  -0.428  -0.035
    1UNL     H4   40  -0.205  -0.181  -0.029
    1UNL     H5   41  -0.271  -0.165   0.227
    1UNL     H6   42  -0.308   0.000   0.113
    1UNL     H7   43  -0.222   0.087  -0.255
    1UNL     H8   44  -0.471   0.096  -0.053
    1UNL     H9   45  -0.459   0.162  -0.220
    1UNL    H10   46  -0.369  -0.111  -0.189
    1UNL    H11   47  -0.113   0.284  -0.134
    1UNL    H12   48  -0.382   0.384  -0.202
    1UNL    H13   49  -0.247   0.389   0.046
    1UNL    H14   50  -0.444   0.342   0.106
    1UNL    H15   51  -0.233   0.204   0.213
    1UNL    H16   52   0.002   0.144   0.117
    1UNL    H17   53   0.099  -0.294   0.341
    1UNL    H18   54   0.469  -0.300   0.038
    1UNL    H19   55   0.459  -0.270  -0.132
    1UNL    H20   56   0.545  -0.062  -0.061
    1UNL    H21   57   0.493  -0.078   0.107
    1UNL    H22   58   0.059   0.115  -0.110
    1UNL    H23   59   0.086   0.366  -0.026
    1UNL    H24   60   0.242   0.502   0.077
    1UNL    H25   61   0.477   0.449   0.085
    1UNL    H26   62   0.548   0.204   0.030
    1UNL    H27   63   0.216  -0.177  -0.216
    1UNL    H28   64  -0.005  -0.210  -0.199
    1UNL    H29   65  -0.010  -0.081  -0.086
    1UNL    H30   66  -0.003  -0.374  -0.019
   0.00000   0.00000   0.00000   0.00000   0.00000   0.00000   0.00000   0.00000   0.00000
Generated with MDTraj, t= 83.0
 66
    1UNL     C1    1  -0.294  -0.424   0.185
    1UNL     C2    2  -0.245  -0.380   0.068
    1UNL     C3    3  -0.164  -0.252   0.056
    1UNL     C4    4  -0.170  -0.168   0.187
    1UNL     O1    5  -0.129  -0.035   0.165
    1UNL     C5    6  -0.217   0.041   0.082
    1UNL     O2    7  -0.181   0.020  -0.059
    1UNL     C6    8  -0.247   0.097  -0.159
    1UNL     C7    9  -0.397   0.076  -0.164
    1UNL     O3   10  -0.431  -0.059  -0.166
    1UNL     C8   11  -0.216   0.244  -0.133
    1UNL     O4   12  -0.278   0.325  -0.238
    1UNL     C9   13  -0.260   0.292   0.012
    1UNL     O5   14  -0.401   0.298   0.030
    1UNL    C10   15  -0.201   0.196   0.123
    1UNL     O6   16  -0.068   0.228   0.157
    1UNL     O7   17  -0.095  -0.246   0.294
    1UNL    C11   18   0.036  -0.262   0.257
    1UNL    C12   19   0.079  -0.270   0.127
    1UNL    C13   20   0.220  -0.288   0.090
    1UNL     O8   21   0.304  -0.343   0.167
    1UNL     N1   22   0.268  -0.237  -0.031
    1UNL    C14   23   0.412  -0.225  -0.051
    1UNL    C15   24   0.456  -0.085  -0.015
    1UNL    C16   25   0.341   0.015  -0.013
    1UNL    C17   26   0.218  -0.016  -0.061
    1UNL     N2   27   0.136   0.093  -0.053
    1UNL    C18   28   0.212   0.204  -0.022
    1UNL    C19   29   0.196   0.341  -0.008
    1UNL    C20   30   0.298   0.428   0.036
    1UNL    C21   31   0.427   0.377   0.056
    1UNL    C22   32   0.453   0.245   0.028
    1UNL    C23   33   0.343   0.153   0.009
    1UNL    C24   34   0.182  -0.150  -0.114
    1UNL    C25   35   0.027  -0.179  -0.104
    1UNL    C26   36  -0.020  -0.282   0.010
    1UNL     H1   37  -0.364  -0.506   0.194
    1UNL     H2   38  -0.274  -0.377   0.280
    1UNL     H3   39  -0.289  -0.436  -0.014
    1UNL     H4   40  -0.219  -0.183  -0.016
    1UNL     H5   41  -0.276  -0.159   0.228
    1UNL     H6   42  -0.312  -0.008   0.103
    1UNL     H7   43  -0.191   0.049  -0.252
    1UNL     H8   44  -0.431   0.125  -0.073
    1UNL     H9   45  -0.447   0.116  -0.257
    1UNL    H10   46  -0.364  -0.129  -0.153
    1UNL    H11   47  -0.103   0.262  -0.124
    1UNL    H12   48  -0.360   0.355  -0.204
    1UNL    H13   49  -0.226   0.384   0.043
    1UNL    H14   50  -0.418   0.311   0.127
    1UNL    H15   51  -0.257   0.206   0.217
    1UNL    H16   52   0.002   0.182   0.095
    1UNL    H17   53   0.106  -0.259   0.340
    1UNL    H18   54   0.459  -0.303   0.012
    1UNL    H19   55   0.446  -0.252  -0.154
    1UNL    H20   56   0.526  -0.046  -0.094
    1UNL    H21   57   0.511  -0.079   0.081
    1UNL    H22   58   0.044   0.083  -0.082
    1UNL    H23   59   0.095   0.386  -0.018
    1UNL    H24   60   0.275   0.536   0.041
    1UNL    H25   61   0.511   0.444   0.083
    1UNL    H26   62   0.565   0.225   0.010
    1UNL    H27   63   0.215  -0.154  -0.222
    1UNL    H28   64  -0.018  -0.203  -0.204
    1UNL    H29   65  -0.023  -0.086  -0.085
    1UNL    H30   66  -0.016  -0.386  -0.018
   0.00000   0.00000   0.00000   0.00000   0.00000   0.00000   0.00000   0.00000   0.00000
Generated with MDTraj, t= 84.0
 66
    1UNL     C1    1  -0.261  -0.455   0.173
    1UNL     C2    2  -0.264  -0.374   0.065
    1UNL     C3    3  -0.169  -0.252   0.052
    1UNL     C4    4  -0.166  -0.165   0.182
    1UNL     O1    5  -0.125  -0.031   0.171
    1UNL     C5    6  -0.200   0.047   0.077
    1UNL     O2    7  -0.154   0.030  -0.053
    1UNL     C6    8  -0.237   0.100  -0.147
    1UNL     C7    9  -0.384   0.052  -0.146
    1UNL     O3   10  -0.377  -0.087  -0.137
    1UNL     C8   11  -0.212   0.251  -0.127
    1UNL     O4   12  -0.266   0.332  -0.242
    1UNL     C9   13  -0.253   0.294   0.015
    1UNL     O5   14  -0.394   0.294   0.028
    1UNL    C10   15  -0.192   0.198   0.122
    1UNL     O6   16  -0.062   0.237   0.151
    1UNL     O7   17  -0.100  -0.235   0.287
    1UNL    C11   18   0.026  -0.261   0.252
    1UNL    C12   19   0.071  -0.279   0.122
    1UNL    C13   20   0.208  -0.287   0.083
    1UNL     O8   21   0.287  -0.319   0.176
    1UNL     N1   22   0.250  -0.249  -0.043
    1UNL    C14   23   0.395  -0.226  -0.054
    1UNL    C15   24   0.440  -0.084  -0.006
    1UNL    C16   25   0.331   0.020  -0.023
    1UNL    C17   26   0.201  -0.010  -0.056
    1UNL     N2   27   0.129   0.106  -0.060
    1UNL    C18   28   0.216   0.208  -0.020
    1UNL    C19   29   0.185   0.348  -0.013
    1UNL    C20   30   0.289   0.427   0.029
    1UNL    C21   31   0.416   0.370   0.056
    1UNL    C22   32   0.447   0.236   0.043
    1UNL    C23   33   0.341   0.158   0.004
    1UNL    C24   34   0.167  -0.154  -0.117
    1UNL    C25   35   0.014  -0.192  -0.105
    1UNL    C26   36  -0.026  -0.288   0.010
    1UNL     H1   37  -0.323  -0.541   0.187
    1UNL     H2   38  -0.196  -0.437   0.257
    1UNL     H3   39  -0.337  -0.392  -0.011
    1UNL     H4   40  -0.214  -0.182  -0.026
    1UNL     H5   41  -0.268  -0.154   0.227
    1UNL     H6   42  -0.305   0.017   0.092
    1UNL     H7   43  -0.189   0.071  -0.252
    1UNL     H8   44  -0.429   0.085  -0.053
    1UNL     H9   45  -0.429   0.104  -0.238
    1UNL    H10   46  -0.412  -0.113  -0.227
    1UNL    H11   47  -0.099   0.276  -0.134
    1UNL    H12   48  -0.347   0.384  -0.211
    1UNL    H13   49  -0.227   0.395   0.025
    1UNL    H14   50  -0.425   0.296   0.121
    1UNL    H15   51  -0.255   0.218   0.213
    1UNL    H16   52  -0.008   0.196   0.085
    1UNL    H17   53   0.089  -0.287   0.336
    1UNL    H18   54   0.446  -0.303   0.011
    1UNL    H19   55   0.430  -0.254  -0.155
    1UNL    H20   56   0.545  -0.053  -0.049
    1UNL    H21   57   0.452  -0.097   0.101
    1UNL    H22   58   0.030   0.112  -0.091
    1UNL    H23   59   0.098   0.393  -0.051
    1UNL    H24   60   0.282   0.532   0.033
    1UNL    H25   61   0.491   0.439   0.085
    1UNL    H26   62   0.539   0.193   0.054
    1UNL    H27   63   0.196  -0.155  -0.225
    1UNL    H28   64  -0.028  -0.224  -0.203
    1UNL    H29   65  -0.043  -0.101  -0.089
    1UNL    H30   66  -0.024  -0.394  -0.020
   0.00000   0.00000   0.00000   0.00000   0.00000   0.00000   0.00000   0.00000   0.00000
Generated with MDTraj, t= 85.0
 66
    1UNL     C1    1  -0.215  -0.456   0.116
    1UNL     C2    2  -0.249  -0.346   0.051
    1UNL     C3    3  -0.165  -0.228   0.059
    1UNL     C4    4  -0.170  -0.158   0.200
    1UNL     O1    5  -0.125  -0.025   0.186
    1UNL     C5    6  -0.197   0.057   0.090
    1UNL     O2    7  -0.159   0.034  -0.044
    1UNL     C6    8  -0.221   0.114  -0.148
    1UNL     C7    9  -0.367   0.066  -0.149
    1UNL     O3   10  -0.382  -0.077  -0.163
    1UNL     C8   11  -0.213   0.265  -0.119
    1UNL     O4   12  -0.308   0.340  -0.202
    1UNL     C9   13  -0.255   0.296   0.024
    1UNL     O5   14  -0.396   0.274   0.034
    1UNL    C10   15  -0.176   0.206   0.125
    1UNL     O6   16  -0.038   0.233   0.126
    1UNL     O7   17  -0.102  -0.227   0.301
    1UNL    C11   18   0.024  -0.255   0.259
    1UNL    C12   19   0.069  -0.258   0.129
    1UNL    C13   20   0.207  -0.282   0.105
    1UNL     O8   21   0.281  -0.322   0.199
    1UNL     N1   22   0.253  -0.251  -0.021
    1UNL    C14   23   0.395  -0.241  -0.035
    1UNL    C15   24   0.434  -0.099   0.007
    1UNL    C16   25   0.332   0.003  -0.037
    1UNL    C17   26   0.209  -0.030  -0.095
    1UNL     N2   27   0.131   0.086  -0.092
    1UNL    C18   28   0.206   0.193  -0.049
    1UNL    C19   29   0.175   0.330  -0.035
    1UNL    C20   30   0.269   0.416   0.021
    1UNL    C21   31   0.396   0.373   0.068
    1UNL    C22   32   0.420   0.238   0.061
    1UNL    C23   33   0.337   0.145  -0.008
    1UNL    C24   34   0.177  -0.169  -0.125
    1UNL    C25   35   0.027  -0.200  -0.119
    1UNL    C26   36  -0.023  -0.270   0.012
    1UNL     H1   37  -0.282  -0.541   0.119
    1UNL     H2   38  -0.118  -0.465   0.163
    1UNL     H3   39  -0.342  -0.333  -0.003
    1UNL     H4   40  -0.206  -0.162  -0.025
    1UNL     H5   41  -0.268  -0.151   0.250
    1UNL     H6   42  -0.305   0.037   0.110
    1UNL     H7   43  -0.182   0.074  -0.252
    1UNL     H8   44  -0.412   0.097  -0.056
    1UNL     H9   45  -0.431   0.104  -0.233
    1UNL    H10   46  -0.378  -0.103  -0.257
    1UNL    H11   47  -0.111   0.307  -0.147
    1UNL    H12   48  -0.407   0.319  -0.188
    1UNL    H13   49  -0.223   0.397   0.040
    1UNL    H14   50  -0.406   0.263   0.129
    1UNL    H15   51  -0.198   0.238   0.233
    1UNL    H16   52   0.016   0.171   0.065
    1UNL    H17   53   0.093  -0.280   0.339
    1UNL    H18   54   0.443  -0.323   0.028
    1UNL    H19   55   0.428  -0.258  -0.138
    1UNL    H20   56   0.540  -0.069  -0.035
    1UNL    H21   57   0.435  -0.094   0.115
    1UNL    H22   58   0.038   0.086  -0.145
    1UNL    H23   59   0.080   0.360  -0.082
    1UNL    H24   60   0.245   0.520   0.045
    1UNL    H25   61   0.467   0.435   0.125
    1UNL    H26   62   0.494   0.201   0.134
    1UNL    H27   63   0.210  -0.191  -0.227
    1UNL    H28   64  -0.004  -0.252  -0.212
    1UNL    H29   65  -0.036  -0.106  -0.133
    1UNL    H30   66  -0.025  -0.377  -0.016
   0.00000   0.00000   0.00000   0.00000   0.00000   0.00000   0.00000   0.00000   0.00000
Generated with MDTraj, t= 86.0
 66
    1UNL     C1    1  -0.263  -0.466   0.097
    1UNL     C2    2  -0.271  -0.345   0.049
    1UNL     C3    3  -0.166  -0.238   0.047
    1UNL     C4    4  -0.171  -0.163   0.182
    1UNL     O1    5  -0.115  -0.030   0.176
    1UNL     C5    6  -0.190   0.054   0.086
    1UNL     O2    7  -0.163   0.040  -0.049
    1UNL     C6    8  -0.244   0.122  -0.141
    1UNL     C7    9  -0.385   0.066  -0.152
    1UNL     O3   10  -0.383  -0.067  -0.211
    1UNL     C8   11  -0.239   0.273  -0.105
    1UNL     O4   12  -0.322   0.351  -0.183
    1UNL     C9   13  -0.265   0.299   0.043
    1UNL     O5   14  -0.403   0.285   0.081
    1UNL    C10   15  -0.170   0.204   0.128
    1UNL     O6   16  -0.041   0.253   0.108
    1UNL     O7   17  -0.104  -0.234   0.293
    1UNL    C11   18   0.028  -0.259   0.270
    1UNL    C12   19   0.071  -0.273   0.143
    1UNL    C13   20   0.213  -0.288   0.119
    1UNL     O8   21   0.293  -0.303   0.216
    1UNL     N1   22   0.263  -0.257  -0.004
    1UNL    C14   23   0.406  -0.244  -0.022
    1UNL    C15   24   0.451  -0.097   0.011
    1UNL    C16   25   0.357   0.006  -0.042
    1UNL    C17   26   0.236  -0.031  -0.092
    1UNL     N2   27   0.154   0.077  -0.116
    1UNL    C18   28   0.219   0.188  -0.066
    1UNL    C19   29   0.181   0.326  -0.068
    1UNL    C20   30   0.256   0.412  -0.003
    1UNL    C21   31   0.374   0.369   0.066
    1UNL    C22   32   0.416   0.237   0.063
    1UNL    C23   33   0.342   0.150  -0.014
    1UNL    C24   34   0.190  -0.178  -0.102
    1UNL    C25   35   0.041  -0.207  -0.104
    1UNL    C26   36  -0.015  -0.277   0.022
    1UNL     H1   37  -0.354  -0.521   0.089
    1UNL     H2   38  -0.168  -0.505   0.127
    1UNL     H3   39  -0.365  -0.313   0.008
    1UNL     H4   40  -0.191  -0.183  -0.049
    1UNL     H5   41  -0.272  -0.147   0.217
    1UNL     H6   42  -0.297   0.021   0.100
    1UNL     H7   43  -0.204   0.104  -0.249
    1UNL     H8   44  -0.438   0.058  -0.060
    1UNL     H9   45  -0.446   0.129  -0.219
    1UNL    H10   46  -0.292  -0.099  -0.222
    1UNL    H11   47  -0.132   0.311  -0.109
    1UNL    H12   48  -0.372   0.412  -0.129
    1UNL    H13   49  -0.245   0.404   0.061
    1UNL    H14   50  -0.427   0.279   0.178
    1UNL    H15   51  -0.202   0.211   0.239
    1UNL    H16   52   0.020   0.188   0.056
    1UNL    H17   53   0.097  -0.273   0.353
    1UNL    H18   54   0.466  -0.322   0.038
    1UNL    H19   55   0.424  -0.264  -0.127
    1UNL    H20   56   0.552  -0.083  -0.044
    1UNL    H21   57   0.470  -0.087   0.120
    1UNL    H22   58   0.051   0.079  -0.149
    1UNL    H23   59   0.092   0.361  -0.119
    1UNL    H24   60   0.236   0.516  -0.019
    1UNL    H25   61   0.425   0.429   0.136
    1UNL    H26   62   0.494   0.192   0.129
    1UNL    H27   63   0.220  -0.215  -0.201
    1UNL    H28   64  -0.009  -0.244  -0.196
    1UNL    H29   65  -0.011  -0.108  -0.105
    1UNL    H30   66  -0.014  -0.384  -0.004
   0.00000   0.00000   0.00000   0.00000   0.00000   0.00000   0.00000   0.00000   0.00000
Generated with MDTraj, t= 87.0
 66
    1UNL     C1    1  -0.263  -0.443   0.128
    1UNL     C2    2  -0.255  -0.361   0.026
    1UNL     C3    3  -0.161  -0.250   0.035
    1UNL     C4    4  -0.183  -0.172   0.163
    1UNL     O1    5  -0.125  -0.042   0.161
    1UNL     C5    6  -0.189   0.053   0.074
    1UNL     O2    7  -0.159   0.047  -0.062
    1UNL     C6    8  -0.241   0.135  -0.144
    1UNL     C7    9  -0.384   0.086  -0.159
    1UNL     O3   10  -0.394  -0.046  -0.198
    1UNL     C8   11  -0.241   0.281  -0.096
    1UNL     O4   12  -0.350   0.349  -0.151
    1UNL     C9   13  -0.260   0.294   0.054
    1UNL     O5   14  -0.392   0.248   0.093
    1UNL    C10   15  -0.162   0.197   0.127
    1UNL     O6   16  -0.026   0.234   0.116
    1UNL     O7   17  -0.123  -0.243   0.272
    1UNL    C11   18   0.009  -0.254   0.255
    1UNL    C12   19   0.070  -0.273   0.134
    1UNL    C13   20   0.217  -0.283   0.130
    1UNL     O8   21   0.288  -0.301   0.232
    1UNL     N1   22   0.274  -0.255   0.010
    1UNL    C14   23   0.422  -0.233  -0.000
    1UNL    C15   24   0.439  -0.092   0.044
    1UNL    C16   25   0.337  -0.000  -0.017
    1UNL    C17   26   0.220  -0.035  -0.079
    1UNL     N2   27   0.143   0.086  -0.115
    1UNL    C18   28   0.215   0.191  -0.074
    1UNL    C19   29   0.184   0.328  -0.075
    1UNL    C20   30   0.280   0.417  -0.034
    1UNL    C21   31   0.399   0.376   0.025
    1UNL    C22   32   0.431   0.240   0.039
    1UNL    C23   33   0.336   0.146  -0.007
    1UNL    C24   34   0.195  -0.178  -0.102
    1UNL    C25   35   0.045  -0.206  -0.106
    1UNL    C26   36  -0.011  -0.287   0.008
    1UNL     H1   37  -0.329  -0.528   0.113
    1UNL     H2   38  -0.200  -0.435   0.215
    1UNL     H3   39  -0.317  -0.369  -0.065
    1UNL     H4   40  -0.180  -0.180  -0.050
    1UNL     H5   41  -0.283  -0.140   0.182
    1UNL     H6   42  -0.296   0.016   0.077
    1UNL     H7   43  -0.190   0.146  -0.247
    1UNL     H8   44  -0.436   0.103  -0.068
    1UNL     H9   45  -0.438   0.143  -0.235
    1UNL    H10   46  -0.320  -0.090  -0.150
    1UNL    H11   47  -0.145   0.333  -0.129
    1UNL    H12   48  -0.409   0.393  -0.083
    1UNL    H13   49  -0.248   0.398   0.093
    1UNL    H14   50  -0.391   0.228   0.191
    1UNL    H15   51  -0.185   0.191   0.239
    1UNL    H16   52   0.022   0.177   0.059
    1UNL    H17   53   0.064  -0.266   0.349
    1UNL    H18   54   0.468  -0.310   0.073
    1UNL    H19   55   0.471  -0.252  -0.095
    1UNL    H20   56   0.542  -0.048   0.037
    1UNL    H21   57   0.413  -0.088   0.155
    1UNL    H22   58   0.039   0.085  -0.124
    1UNL    H23   59   0.089   0.353  -0.117
    1UNL    H24   60   0.270   0.523  -0.046
    1UNL    H25   61   0.473   0.454   0.046
    1UNL    H26   62   0.519   0.207   0.077
    1UNL    H27   63   0.233  -0.209  -0.198
    1UNL    H28   64   0.015  -0.244  -0.206
    1UNL    H29   65  -0.008  -0.112  -0.112
    1UNL    H30   66  -0.013  -0.393  -0.018
   0.00000   0.00000   0.00000   0.00000   0.00000   0.00000   0.00000   0.00000   0.00000
Generated with MDTraj, t= 88.0
 66
    1UNL     C1    1  -0.290  -0.459   0.144
    1UNL     C2    2  -0.238  -0.409   0.033
    1UNL     C3    3  -0.160  -0.273   0.021
    1UNL     C4    4  -0.177  -0.182   0.148
    1UNL     O1    5  -0.121  -0.058   0.129
    1UNL     C5    6  -0.194   0.045   0.062
    1UNL     O2    7  -0.173   0.051  -0.081
    1UNL     C6    8  -0.258   0.149  -0.148
    1UNL     C7    9  -0.398   0.087  -0.135
    1UNL     O3   10  -0.399  -0.038  -0.193
    1UNL     C8   11  -0.238   0.287  -0.082
    1UNL     O4   12  -0.317   0.389  -0.148
    1UNL     C9   13  -0.262   0.284   0.074
    1UNL     O5   14  -0.400   0.267   0.094
    1UNL    C10   15  -0.171   0.178   0.132
    1UNL     O6   16  -0.034   0.225   0.125
    1UNL     O7   17  -0.127  -0.255   0.256
    1UNL    C11   18   0.002  -0.277   0.254
    1UNL    C12   19   0.066  -0.295   0.135
    1UNL    C13   20   0.213  -0.292   0.135
    1UNL     O8   21   0.276  -0.312   0.241
    1UNL     N1   22   0.268  -0.247   0.022
    1UNL    C14   23   0.412  -0.224   0.022
    1UNL    C15   24   0.451  -0.073   0.042
    1UNL    C16   25   0.340   0.022   0.008
    1UNL    C17   26   0.226  -0.024  -0.049
    1UNL     N2   27   0.144   0.078  -0.090
    1UNL    C18   28   0.222   0.197  -0.084
    1UNL    C19   29   0.196   0.336  -0.100
    1UNL    C20   30   0.293   0.424  -0.072
    1UNL    C21   31   0.418   0.388  -0.013
    1UNL    C22   32   0.438   0.258   0.020
    1UNL    C23   33   0.338   0.167  -0.009
    1UNL    C24   34   0.200  -0.169  -0.083
    1UNL    C25   35   0.048  -0.196  -0.098
    1UNL    C26   36  -0.008  -0.295   0.001
    1UNL     H1   37  -0.350  -0.546   0.154
    1UNL     H2   38  -0.278  -0.408   0.236
    1UNL     H3   39  -0.249  -0.465  -0.057
    1UNL     H4   40  -0.202  -0.219  -0.066
    1UNL     H5   41  -0.283  -0.158   0.152
    1UNL     H6   42  -0.302   0.018   0.081
    1UNL     H7   43  -0.215   0.158  -0.254
    1UNL     H8   44  -0.433   0.072  -0.037
    1UNL     H9   45  -0.474   0.144  -0.189
    1UNL    H10   46  -0.309  -0.082  -0.199
    1UNL    H11   47  -0.133   0.307  -0.113
    1UNL    H12   48  -0.378   0.438  -0.082
    1UNL    H13   49  -0.231   0.385   0.116
    1UNL    H14   50  -0.414   0.229   0.182
    1UNL    H15   51  -0.198   0.182   0.241
    1UNL    H16   52   0.024   0.175   0.054
    1UNL    H17   53   0.056  -0.306   0.343
    1UNL    H18   54   0.468  -0.291   0.098
    1UNL    H19   55   0.443  -0.269  -0.071
    1UNL    H20   56   0.544  -0.047  -0.011
    1UNL    H21   57   0.476  -0.054   0.155
    1UNL    H22   58   0.050   0.071  -0.124
    1UNL    H23   59   0.098   0.373  -0.135
    1UNL    H24   60   0.279   0.531  -0.089
    1UNL    H25   61   0.498   0.454   0.011
    1UNL    H26   62   0.540   0.222   0.061
    1UNL    H27   63   0.249  -0.186  -0.178
    1UNL    H28   64   0.018  -0.215  -0.203
    1UNL    H29   65  -0.005  -0.105  -0.085
    1UNL    H30   66  -0.001  -0.399  -0.035
   0.00000   0.00000   0.00000   0.00000   0.00000   0.00000   0.00000   0.00000   0.00000
Generated with MDTraj, t= 89.0
 66
    1UNL     C1    1  -0.300  -0.481   0.136
    1UNL     C2    2  -0.229  -0.431   0.038
    1UNL     C3    3  -0.167  -0.293   0.032
    1UNL     C4    4  -0.193  -0.197   0.153
    1UNL     O1    5  -0.128  -0.075   0.123
    1UNL     C5    6  -0.198   0.030   0.045
    1UNL     O2    7  -0.159   0.044  -0.090
    1UNL     C6    8  -0.237   0.151  -0.153
    1UNL     C7    9  -0.390   0.126  -0.166
    1UNL     O3   10  -0.416  -0.012  -0.159
    1UNL     C8   11  -0.216   0.286  -0.082
    1UNL     O4   12  -0.304   0.387  -0.138
    1UNL     C9   13  -0.253   0.279   0.077
    1UNL     O5   14  -0.396   0.270   0.086
    1UNL    C10   15  -0.187   0.160   0.130
    1UNL     O6   16  -0.045   0.180   0.160
    1UNL     O7   17  -0.144  -0.260   0.272
    1UNL    C11   18  -0.011  -0.284   0.258
    1UNL    C12   19   0.063  -0.290   0.142
    1UNL    C13   20   0.214  -0.297   0.138
    1UNL     O8   21   0.269  -0.348   0.239
    1UNL     N1   22   0.274  -0.229   0.037
    1UNL    C14   23   0.419  -0.209   0.043
    1UNL    C15   24   0.450  -0.058   0.053
    1UNL    C16   25   0.350   0.028  -0.016
    1UNL    C17   26   0.223  -0.011  -0.057
    1UNL     N2   27   0.157   0.099  -0.106
    1UNL    C18   28   0.232   0.208  -0.085
    1UNL    C19   29   0.192   0.343  -0.107
    1UNL    C20   30   0.287   0.439  -0.083
    1UNL    C21   31   0.415   0.404  -0.037
    1UNL    C22   32   0.452   0.274  -0.012
    1UNL    C23   33   0.360   0.170  -0.031
    1UNL    C24   34   0.190  -0.155  -0.071
    1UNL    C25   35   0.036  -0.180  -0.084
    1UNL    C26   36  -0.013  -0.299   0.007
    1UNL     H1   37  -0.348  -0.577   0.147
    1UNL     H2   38  -0.318  -0.423   0.226
    1UNL     H3   39  -0.210  -0.494  -0.050
    1UNL     H4   40  -0.208  -0.249  -0.061
    1UNL     H5   41  -0.302  -0.176   0.164
    1UNL     H6   42  -0.297  -0.022   0.049
    1UNL     H7   43  -0.182   0.169  -0.251
    1UNL     H8   44  -0.443   0.168  -0.084
    1UNL     H9   45  -0.431   0.163  -0.263
    1UNL    H10   46  -0.336  -0.068  -0.168
    1UNL    H11   47  -0.108   0.308  -0.091
    1UNL    H12   48  -0.351   0.417  -0.062
    1UNL    H13   49  -0.205   0.375   0.123
    1UNL    H14   50  -0.423   0.260   0.179
    1UNL    H15   51  -0.239   0.138   0.224
    1UNL    H16   52   0.006   0.167   0.079
    1UNL    H17   53   0.055  -0.304   0.342
    1UNL    H18   54   0.450  -0.275   0.132
    1UNL    H19   55   0.475  -0.248  -0.041
    1UNL    H20   56   0.548  -0.035   0.009
    1UNL    H21   57   0.452  -0.028   0.167
    1UNL    H22   58   0.056   0.076  -0.135
    1UNL    H23   59   0.097   0.366  -0.146
    1UNL    H24   60   0.263   0.539  -0.105
    1UNL    H25   61   0.482   0.482   0.003
    1UNL    H26   62   0.552   0.252   0.019
    1UNL    H27   63   0.234  -0.179  -0.167
    1UNL    H28   64   0.000  -0.207  -0.185
    1UNL    H29   65  -0.019  -0.094  -0.062
    1UNL    H30   66   0.004  -0.395  -0.042
   0.00000   0.00000   0.00000   0.00000   0.00000   0.00000   0.00000   0.00000   0.00000
Generated with MDTraj, t= 90.0
 66
    1UNL     C1    1  -0.290  -0.491   0.134
    1UNL     C2    2  -0.219  -0.440   0.036
    1UNL     C3    3  -0.169  -0.298   0.016
    1UNL     C4    4  -0.203  -0.213   0.137
    1UNL     O1    5  -0.144  -0.077   0.143
    1UNL     C5    6  -0.205   0.031   0.067
    1UNL     O2    7  -0.162   0.041  -0.063
    1UNL     C6    8  -0.228   0.143  -0.141
    1UNL     C7    9  -0.378   0.104  -0.146
    1UNL     O3   10  -0.385  -0.033  -0.184
    1UNL     C8   11  -0.195   0.276  -0.078
    1UNL     O4   12  -0.245   0.391  -0.148
    1UNL     C9   13  -0.235   0.278   0.078
    1UNL     O5   14  -0.377   0.290   0.087
    1UNL    C10   15  -0.173   0.164   0.150
    1UNL     O6   16  -0.026   0.190   0.161
    1UNL     O7   17  -0.162  -0.286   0.255
    1UNL    C11   18  -0.028  -0.306   0.254
    1UNL    C12   19   0.048  -0.302   0.142
    1UNL    C13   20   0.198  -0.287   0.143
    1UNL     O8   21   0.271  -0.325   0.238
    1UNL     N1   22   0.257  -0.210   0.047
    1UNL    C14   23   0.403  -0.196   0.038
    1UNL    C15   24   0.444  -0.044   0.035
    1UNL    C16   25   0.340   0.039  -0.024
    1UNL    C17   26   0.220  -0.006  -0.073
    1UNL     N2   27   0.139   0.096  -0.111
    1UNL    C18   28   0.207   0.212  -0.081
    1UNL    C19   29   0.182   0.348  -0.109
    1UNL    C20   30   0.287   0.440  -0.097
    1UNL    C21   31   0.413   0.401  -0.048
    1UNL    C22   32   0.437   0.271  -0.008
    1UNL    C23   33   0.333   0.179  -0.029
    1UNL    C24   34   0.189  -0.156  -0.071
    1UNL    C25   35   0.034  -0.167  -0.068
    1UNL    C26   36  -0.012  -0.295   0.007
    1UNL     H1   37  -0.308  -0.596   0.138
    1UNL     H2   38  -0.335  -0.441   0.216
    1UNL     H3   39  -0.182  -0.504  -0.040
    1UNL     H4   40  -0.207  -0.252  -0.076
    1UNL     H5   41  -0.314  -0.202   0.161
    1UNL     H6   42  -0.310   0.006   0.083
    1UNL     H7   43  -0.189   0.155  -0.246
    1UNL     H8   44  -0.421   0.116  -0.049
    1UNL     H9   45  -0.437   0.164  -0.221
    1UNL    H10   46  -0.308  -0.083  -0.147
    1UNL    H11   47  -0.082   0.280  -0.080
    1UNL    H12   48  -0.344   0.399  -0.150
    1UNL    H13   49  -0.183   0.374   0.123
    1UNL    H14   50  -0.401   0.352   0.161
    1UNL    H15   51  -0.224   0.160   0.244
    1UNL    H16   52   0.020   0.154   0.084
    1UNL    H17   53   0.031  -0.311   0.346
    1UNL    H18   54   0.446  -0.239   0.134
    1UNL    H19   55   0.436  -0.260  -0.043
    1UNL    H20   56   0.540  -0.042  -0.020
    1UNL    H21   57   0.451  -0.010   0.146
    1UNL    H22   58   0.043   0.097  -0.133
    1UNL    H23   59   0.095   0.381  -0.167
    1UNL    H24   60   0.284   0.550  -0.115
    1UNL    H25   61   0.485   0.478  -0.038
    1UNL    H26   62   0.517   0.246   0.051
    1UNL    H27   63   0.233  -0.208  -0.157
    1UNL    H28   64  -0.014  -0.157  -0.165
    1UNL    H29   65  -0.007  -0.086  -0.009
    1UNL    H30   66   0.024  -0.380  -0.049
   0.00000   0.00000   0.00000   0.00000   0.00000   0.00000   0.00000   0.00000   0.00000
Generated with MDTraj, t= 91.0
 66
    1UNL     C1    1  -0.280  -0.486   0.092
    1UNL     C2    2  -0.262  -0.397  -0.001
    1UNL     C3    3  -0.183  -0.268   0.028
    1UNL     C4    4  -0.207  -0.212   0.173
    1UNL     O1    5  -0.149  -0.080   0.180
    1UNL     C5    6  -0.203   0.021   0.091
    1UNL     O2    7  -0.175   0.002  -0.043
    1UNL     C6    8  -0.214   0.115  -0.128
    1UNL     C7    9  -0.366   0.111  -0.149
    1UNL     O3   10  -0.407  -0.009  -0.211
    1UNL     C8   11  -0.166   0.255  -0.080
    1UNL     O4   12  -0.222   0.357  -0.157
    1UNL     C9   13  -0.210   0.271   0.067
    1UNL     O5   14  -0.351   0.261   0.086
    1UNL    C10   15  -0.147   0.154   0.149
    1UNL     O6   16  -0.006   0.154   0.158
    1UNL     O7   17  -0.158  -0.298   0.271
    1UNL    C11   18  -0.021  -0.309   0.260
    1UNL    C12   19   0.050  -0.296   0.140
    1UNL    C13   20   0.193  -0.269   0.147
    1UNL     O8   21   0.263  -0.286   0.247
    1UNL     N1   22   0.257  -0.211   0.040
    1UNL    C14   23   0.404  -0.196   0.026
    1UNL    C15   24   0.442  -0.049   0.044
    1UNL    C16   25   0.333   0.045  -0.012
    1UNL    C17   26   0.219  -0.005  -0.071
    1UNL     N2   27   0.136   0.105  -0.106
    1UNL    C18   28   0.208   0.223  -0.100
    1UNL    C19   29   0.179   0.356  -0.132
    1UNL    C20   30   0.268   0.453  -0.093
    1UNL    C21   31   0.395   0.418  -0.041
    1UNL    C22   32   0.428   0.290  -0.007
    1UNL    C23   33   0.331   0.185  -0.036
    1UNL    C24   34   0.180  -0.150  -0.073
    1UNL    C25   35   0.024  -0.178  -0.074
    1UNL    C26   36  -0.026  -0.293   0.013
    1UNL     H1   37  -0.349  -0.567   0.073
    1UNL     H2   38  -0.237  -0.476   0.191
    1UNL     H3   39  -0.302  -0.408  -0.102
    1UNL     H4   40  -0.217  -0.189  -0.042
    1UNL     H5   41  -0.318  -0.203   0.197
    1UNL     H6   42  -0.311   0.018   0.097
    1UNL     H7   43  -0.172   0.106  -0.231
    1UNL     H8   44  -0.425   0.135  -0.062
    1UNL     H9   45  -0.393   0.186  -0.229
    1UNL    H10   46  -0.348  -0.079  -0.176
    1UNL    H11   47  -0.052   0.251  -0.079
    1UNL    H12   48  -0.326   0.362  -0.154
    1UNL    H13   49  -0.162   0.372   0.110
    1UNL    H14   50  -0.400   0.348   0.083
    1UNL    H15   51  -0.184   0.176   0.247
    1UNL    H16   52   0.047   0.144   0.069
    1UNL    H17   53   0.019  -0.325   0.361
    1UNL    H18   54   0.446  -0.267   0.105
    1UNL    H19   55   0.435  -0.231  -0.071
    1UNL    H20   56   0.535  -0.019  -0.012
    1UNL    H21   57   0.440  -0.036   0.157
    1UNL    H22   58   0.051   0.098  -0.153
    1UNL    H23   59   0.091   0.391  -0.183
    1UNL    H24   60   0.241   0.548  -0.128
    1UNL    H25   61   0.468   0.496  -0.014
    1UNL    H26   62   0.518   0.273   0.064
    1UNL    H27   63   0.215  -0.192  -0.170
    1UNL    H28   64  -0.007  -0.185  -0.176
    1UNL    H29   65  -0.023  -0.085  -0.031
    1UNL    H30   66  -0.008  -0.389  -0.029
   0.00000   0.00000   0.00000   0.00000   0.00000   0.00000   0.00000   0.00000   0.00000
Generated with MDTraj, t= 92.0
 66
    1UNL     C1    1  -0.245  -0.493   0.044
    1UNL     C2    2  -0.252  -0.379  -0.016
    1UNL     C3    3  -0.175  -0.256   0.033
    1UNL     C4    4  -0.211  -0.211   0.177
    1UNL     O1    5  -0.179  -0.076   0.209
    1UNL     C5    6  -0.221   0.027   0.121
    1UNL     O2    7  -0.200  -0.005  -0.015
    1UNL     C6    8  -0.225   0.098  -0.117
    1UNL     C7    9  -0.376   0.102  -0.139
    1UNL     O3   10  -0.425  -0.013  -0.197
    1UNL     C8   11  -0.156   0.239  -0.081
    1UNL     O4   12  -0.194   0.335  -0.173
    1UNL     C9   13  -0.193   0.274   0.064
    1UNL     O5   14  -0.326   0.319   0.089
    1UNL    C10   15  -0.142   0.153   0.157
    1UNL     O6   16  -0.005   0.138   0.158
    1UNL     O7   17  -0.146  -0.292   0.277
    1UNL    C11   18  -0.013  -0.298   0.255
    1UNL    C12   19   0.052  -0.277   0.136
    1UNL    C13   20   0.194  -0.267   0.138
    1UNL     O8   21   0.253  -0.289   0.245
    1UNL     N1   22   0.260  -0.221   0.024
    1UNL    C14   23   0.405  -0.185   0.042
    1UNL    C15   24   0.416  -0.036   0.074
    1UNL    C16   25   0.330   0.044  -0.018
    1UNL    C17   26   0.215  -0.006  -0.080
    1UNL     N2   27   0.148   0.092  -0.145
    1UNL    C18   28   0.218   0.213  -0.117
    1UNL    C19   29   0.184   0.339  -0.154
    1UNL    C20   30   0.262   0.437  -0.102
    1UNL    C21   31   0.370   0.416  -0.010
    1UNL    C22   32   0.413   0.291   0.016
    1UNL    C23   33   0.328   0.186  -0.037
    1UNL    C24   34   0.185  -0.152  -0.085
    1UNL    C25   35   0.028  -0.171  -0.090
    1UNL    C26   36  -0.024  -0.280   0.008
    1UNL     H1   37  -0.260  -0.586  -0.006
    1UNL     H2   38  -0.211  -0.487   0.145
    1UNL     H3   39  -0.281  -0.374  -0.118
    1UNL     H4   40  -0.206  -0.178  -0.032
    1UNL     H5   41  -0.322  -0.227   0.194
    1UNL     H6   42  -0.328   0.026   0.122
    1UNL     H7   43  -0.188   0.072  -0.217
    1UNL     H8   44  -0.427   0.121  -0.047
    1UNL     H9   45  -0.413   0.185  -0.206
    1UNL    H10   46  -0.385  -0.093  -0.156
    1UNL    H11   47  -0.042   0.219  -0.096
    1UNL    H12   48  -0.292   0.356  -0.155
    1UNL    H13   49  -0.114   0.364   0.075
    1UNL    H14   50  -0.383   0.249   0.130
    1UNL    H15   51  -0.169   0.176   0.260
    1UNL    H16   52   0.035   0.121   0.074
    1UNL    H17   53   0.035  -0.327   0.349
    1UNL    H18   54   0.449  -0.246   0.124
    1UNL    H19   55   0.447  -0.219  -0.052
    1UNL    H20   56   0.524  -0.011   0.050
    1UNL    H21   57   0.376  -0.010   0.175
    1UNL    H22   58   0.085   0.077  -0.220
    1UNL    H23   59   0.107   0.354  -0.226
    1UNL    H24   60   0.256   0.536  -0.155
    1UNL    H25   61   0.417   0.507   0.021
    1UNL    H26   62   0.497   0.266   0.071
    1UNL    H27   63   0.226  -0.198  -0.178
    1UNL    H28   64  -0.005  -0.189  -0.189
    1UNL    H29   65  -0.028  -0.077  -0.064
    1UNL    H30   66  -0.011  -0.374  -0.041
   0.00000   0.00000   0.00000   0.00000   0.00000   0.00000   0.00000   0.00000   0.00000
Generated with MDTraj, t= 93.0
 66
    1UNL     C1    1  -0.211  -0.522   0.056
    1UNL     C2    2  -0.244  -0.410  -0.001
    1UNL     C3    3  -0.178  -0.276   0.022
    1UNL     C4    4  -0.214  -0.212   0.158
    1UNL     O1    5  -0.150  -0.083   0.171
    1UNL     C5    6  -0.201   0.019   0.087
    1UNL     O2    7  -0.185  -0.003  -0.056
    1UNL     C6    8  -0.237   0.106  -0.138
    1UNL     C7    9  -0.391   0.114  -0.129
    1UNL     O3   10  -0.450  -0.008  -0.120
    1UNL     C8   11  -0.160   0.243  -0.103
    1UNL     O4   12  -0.221   0.351  -0.173
    1UNL     C9   13  -0.160   0.280   0.046
    1UNL     O5   14  -0.269   0.357   0.092
    1UNL    C10   15  -0.127   0.151   0.137
    1UNL     O6   16   0.007   0.136   0.146
    1UNL     O7   17  -0.159  -0.303   0.263
    1UNL    C11   18  -0.023  -0.306   0.257
    1UNL    C12   19   0.045  -0.297   0.142
    1UNL    C13   20   0.185  -0.276   0.145
    1UNL     O8   21   0.246  -0.292   0.250
    1UNL     N1   22   0.252  -0.216   0.036
    1UNL    C14   23   0.397  -0.176   0.050
    1UNL    C15   24   0.420  -0.030   0.082
    1UNL    C16   25   0.318   0.049  -0.003
    1UNL    C17   26   0.222  -0.014  -0.086
    1UNL     N2   27   0.146   0.086  -0.137
    1UNL    C18   28   0.209   0.212  -0.112
    1UNL    C19   29   0.180   0.339  -0.157
    1UNL    C20   30   0.264   0.444  -0.113
    1UNL    C21   31   0.354   0.419  -0.009
    1UNL    C22   32   0.375   0.295   0.043
    1UNL    C23   33   0.306   0.188  -0.010
    1UNL    C24   34   0.186  -0.157  -0.084
    1UNL    C25   35   0.033  -0.156  -0.073
    1UNL    C26   36  -0.027  -0.280   0.008
    1UNL     H1   37  -0.266  -0.615   0.055
    1UNL     H2   38  -0.119  -0.523   0.111
    1UNL     H3   39  -0.341  -0.401  -0.052
    1UNL     H4   40  -0.213  -0.203  -0.049
    1UNL     H5   41  -0.326  -0.205   0.169
    1UNL     H6   42  -0.307   0.027   0.091
    1UNL     H7   43  -0.215   0.089  -0.242
    1UNL     H8   44  -0.418   0.178  -0.046
    1UNL     H9   45  -0.436   0.169  -0.217
    1UNL    H10   46  -0.403  -0.077  -0.067
    1UNL    H11   47  -0.054   0.223  -0.147
    1UNL    H12   48  -0.279   0.402  -0.120
    1UNL    H13   49  -0.060   0.347   0.055
    1UNL    H14   50  -0.341   0.295   0.113
    1UNL    H15   51  -0.170   0.180   0.236
    1UNL    H16   52   0.045   0.113   0.058
    1UNL    H17   53   0.033  -0.308   0.349
    1UNL    H18   54   0.432  -0.252   0.121
    1UNL    H19   55   0.447  -0.204  -0.044
    1UNL    H20   56   0.521   0.010   0.045
    1UNL    H21   57   0.400  -0.013   0.187
    1UNL    H22   58   0.080   0.072  -0.211
    1UNL    H23   59   0.109   0.343  -0.241
    1UNL    H24   60   0.245   0.543  -0.142
    1UNL    H25   61   0.408   0.506   0.026
    1UNL    H26   62   0.450   0.274   0.118
    1UNL    H27   63   0.221  -0.217  -0.173
    1UNL    H28   64  -0.021  -0.141  -0.165
    1UNL    H29   65   0.010  -0.059  -0.024
    1UNL    H30   66  -0.010  -0.356  -0.063
   0.00000   0.00000   0.00000   0.00000   0.00000   0.00000   0.00000   0.00000   0.00000
Generated with MDTraj, t= 94.0
 66
    1UNL     C1    1  -0.194  -0.527   0.078
    1UNL     C2    2  -0.245  -0.423   0.019
    1UNL     C3    3  -0.166  -0.296   0.005
    1UNL     C4    4  -0.210  -0.210   0.134
    1UNL     O1    5  -0.134  -0.090   0.144
    1UNL     C5    6  -0.181   0.023   0.077
    1UNL     O2    7  -0.194   0.003  -0.068
    1UNL     C6    8  -0.266   0.112  -0.128
    1UNL     C7    9  -0.409   0.135  -0.073
    1UNL     O3   10  -0.475   0.014  -0.081
    1UNL     C8   11  -0.172   0.237  -0.120
    1UNL     O4   12  -0.230   0.357  -0.180
    1UNL     C9   13  -0.147   0.277   0.032
    1UNL     O5   14  -0.259   0.342   0.071
    1UNL    C10   15  -0.101   0.153   0.118
    1UNL     O6   16   0.037   0.142   0.114
    1UNL     O7   17  -0.182  -0.292   0.243
    1UNL    C11   18  -0.047  -0.305   0.245
    1UNL    C12   19   0.037  -0.289   0.139
    1UNL    C13   20   0.182  -0.277   0.155
    1UNL     O8   21   0.239  -0.327   0.252
    1UNL     N1   22   0.254  -0.211   0.051
    1UNL    C14   23   0.395  -0.171   0.075
    1UNL    C15   24   0.389  -0.024   0.109
    1UNL    C16   25   0.322   0.053  -0.004
    1UNL    C17   26   0.221  -0.006  -0.079
    1UNL     N2   27   0.163   0.088  -0.157
    1UNL    C18   28   0.214   0.216  -0.114
    1UNL    C19   29   0.169   0.348  -0.146
    1UNL    C20   30   0.239   0.451  -0.084
    1UNL    C21   31   0.355   0.428  -0.004
    1UNL    C22   32   0.390   0.304   0.032
    1UNL    C23   33   0.315   0.196  -0.022
    1UNL    C24   34   0.193  -0.156  -0.072
    1UNL    C25   35   0.047  -0.195  -0.085
    1UNL    C26   36  -0.011  -0.308   0.001
    1UNL     H1   37  -0.246  -0.618   0.093
    1UNL     H2   38  -0.097  -0.532   0.123
    1UNL     H3   39  -0.339  -0.430  -0.032
    1UNL     H4   40  -0.201  -0.234  -0.075
    1UNL     H5   41  -0.319  -0.193   0.126
    1UNL     H6   42  -0.282   0.033   0.112
    1UNL     H7   43  -0.268   0.092  -0.230
    1UNL     H8   44  -0.398   0.180   0.026
    1UNL     H9   45  -0.457   0.214  -0.134
    1UNL    H10   46  -0.419  -0.063  -0.056
    1UNL    H11   47  -0.073   0.198  -0.169
    1UNL    H12   48  -0.280   0.413  -0.111
    1UNL    H13   49  -0.051   0.348   0.046
    1UNL    H14   50  -0.273   0.354   0.168
    1UNL    H15   51  -0.135   0.170   0.226
    1UNL    H16   52   0.069   0.120   0.021
    1UNL    H17   53   0.000  -0.324   0.341
    1UNL    H18   54   0.435  -0.236   0.151
    1UNL    H19   55   0.455  -0.194  -0.015
    1UNL    H20   56   0.490   0.014   0.151
    1UNL    H21   57   0.317  -0.016   0.187
    1UNL    H22   58   0.073   0.083  -0.204
    1UNL    H23   59   0.085   0.368  -0.207
    1UNL    H24   60   0.195   0.552  -0.104
    1UNL    H25   61   0.403   0.504   0.056
    1UNL    H26   62   0.483   0.293   0.096
    1UNL    H27   63   0.256  -0.207  -0.151
    1UNL    H28   64   0.025  -0.200  -0.191
    1UNL    H29   65  -0.004  -0.106  -0.053
    1UNL    H30   66   0.026  -0.401  -0.032
   0.00000   0.00000   0.00000   0.00000   0.00000   0.00000   0.00000   0.00000   0.00000
Generated with MDTraj, t= 95.0
 66
    1UNL     C1    1  -0.219  -0.500   0.062
    1UNL     C2    2  -0.223  -0.408  -0.029
    1UNL     C3    3  -0.161  -0.277  -0.002
    1UNL     C4    4  -0.197  -0.214   0.141
    1UNL     O1    5  -0.151  -0.079   0.154
    1UNL     C5    6  -0.210   0.030   0.088
    1UNL     O2    7  -0.227   0.009  -0.058
    1UNL     C6    8  -0.279   0.121  -0.129
    1UNL     C7    9  -0.423   0.151  -0.078
    1UNL     O3   10  -0.496   0.033  -0.053
    1UNL     C8   11  -0.177   0.238  -0.120
    1UNL     O4   12  -0.214   0.359  -0.194
    1UNL     C9   13  -0.166   0.281   0.033
    1UNL     O5   14  -0.274   0.348   0.078
    1UNL    C10   15  -0.124   0.163   0.116
    1UNL     O6   16   0.014   0.122   0.119
    1UNL     O7   17  -0.158  -0.299   0.251
    1UNL    C11   18  -0.022  -0.326   0.248
    1UNL    C12   19   0.056  -0.317   0.134
    1UNL    C13   20   0.201  -0.297   0.153
    1UNL     O8   21   0.250  -0.333   0.258
    1UNL     N1   22   0.274  -0.216   0.062
    1UNL    C14   23   0.409  -0.174   0.091
    1UNL    C15   24   0.423  -0.024   0.103
    1UNL    C16   25   0.332   0.049   0.007
    1UNL    C17   26   0.244  -0.017  -0.077
    1UNL     N2   27   0.172   0.076  -0.152
    1UNL    C18   28   0.219   0.201  -0.124
    1UNL    C19   29   0.188   0.325  -0.174
    1UNL    C20   30   0.243   0.435  -0.114
    1UNL    C21   31   0.320   0.421   0.001
    1UNL    C22   32   0.363   0.296   0.047
    1UNL    C23   33   0.313   0.185  -0.020
    1UNL    C24   34   0.205  -0.159  -0.069
    1UNL    C25   35   0.053  -0.162  -0.064
    1UNL    C26   36  -0.003  -0.288  -0.002
    1UNL     H1   37  -0.271  -0.594   0.050
    1UNL     H2   38  -0.165  -0.497   0.155
    1UNL     H3   39  -0.279  -0.421  -0.122
    1UNL     H4   40  -0.196  -0.210  -0.078
    1UNL     H5   41  -0.304  -0.219   0.158
    1UNL     H6   42  -0.308   0.036   0.136
    1UNL     H7   43  -0.280   0.094  -0.230
    1UNL     H8   44  -0.414   0.207   0.014
    1UNL     H9   45  -0.471   0.220  -0.147
    1UNL    H10   46  -0.436  -0.044  -0.039
    1UNL    H11   47  -0.077   0.192  -0.159
    1UNL    H12   48  -0.313   0.375  -0.210
    1UNL    H13   49  -0.076   0.361   0.041
    1UNL    H14   50  -0.293   0.431   0.025
    1UNL    H15   51  -0.162   0.186   0.222
    1UNL    H16   52   0.057   0.118   0.034
    1UNL    H17   53   0.024  -0.344   0.346
    1UNL    H18   54   0.450  -0.233   0.171
    1UNL    H19   55   0.468  -0.205   0.003
    1UNL    H20   56   0.530   0.010   0.073
    1UNL    H21   57   0.405   0.003   0.204
    1UNL    H22   58   0.149   0.056  -0.251
    1UNL    H23   59   0.112   0.330  -0.253
    1UNL    H24   60   0.215   0.531  -0.144
    1UNL    H25   61   0.348   0.514   0.048
    1UNL    H26   62   0.401   0.283   0.139
    1UNL    H27   63   0.251  -0.213  -0.155
    1UNL    H28   64   0.015  -0.146  -0.164
    1UNL    H29   65   0.020  -0.085  -0.002
    1UNL    H30   66   0.019  -0.376  -0.057
   0.00000   0.00000   0.00000   0.00000   0.00000   0.00000   0.00000   0.00000   0.00000
Generated with MDTraj, t= 96.0
 66
    1UNL     C1    1  -0.280  -0.481   0.021
    1UNL     C2    2  -0.234  -0.382  -0.046
    1UNL     C3    3  -0.161  -0.264   0.009
    1UNL     C4    4  -0.199  -0.214   0.150
    1UNL     O1    5  -0.149  -0.083   0.173
    1UNL     C5    6  -0.205   0.015   0.101
    1UNL     O2    7  -0.217  -0.004  -0.036
    1UNL     C6    8  -0.268   0.104  -0.113
    1UNL     C7    9  -0.411   0.141  -0.072
    1UNL     O3   10  -0.509   0.038  -0.081
    1UNL     C8   11  -0.172   0.225  -0.118
    1UNL     O4   12  -0.233   0.320  -0.203
    1UNL     C9   13  -0.164   0.272   0.038
    1UNL     O5   14  -0.280   0.332   0.078
    1UNL    C10   15  -0.121   0.152   0.122
    1UNL     O6   16   0.017   0.131   0.135
    1UNL     O7   17  -0.147  -0.300   0.260
    1UNL    C11   18  -0.011  -0.303   0.250
    1UNL    C12   19   0.057  -0.292   0.133
    1UNL    C13   20   0.200  -0.288   0.150
    1UNL     O8   21   0.252  -0.322   0.256
    1UNL     N1   22   0.272  -0.217   0.052
    1UNL    C14   23   0.408  -0.172   0.084
    1UNL    C15   24   0.408  -0.017   0.118
    1UNL    C16   25   0.332   0.048   0.010
    1UNL    C17   26   0.246  -0.016  -0.076
    1UNL     N2   27   0.183   0.072  -0.160
    1UNL    C18   28   0.230   0.199  -0.129
    1UNL    C19   29   0.189   0.327  -0.168
    1UNL    C20   30   0.234   0.436  -0.104
    1UNL    C21   31   0.333   0.431  -0.002
    1UNL    C22   32   0.380   0.306   0.034
    1UNL    C23   33   0.325   0.189  -0.026
    1UNL    C24   34   0.203  -0.158  -0.068
    1UNL    C25   35   0.055  -0.168  -0.083
    1UNL    C26   36  -0.006  -0.284  -0.003
    1UNL     H1   37  -0.316  -0.568  -0.030
    1UNL     H2   38  -0.278  -0.484   0.128
    1UNL     H3   39  -0.236  -0.376  -0.154
    1UNL     H4   40  -0.182  -0.182  -0.056
    1UNL     H5   41  -0.302  -0.209   0.177
    1UNL     H6   42  -0.305   0.034   0.145
    1UNL     H7   43  -0.277   0.056  -0.207
    1UNL     H8   44  -0.421   0.180   0.029
    1UNL     H9   45  -0.452   0.217  -0.134
    1UNL    H10   46  -0.473  -0.048  -0.046
    1UNL    H11   47  -0.068   0.192  -0.156
    1UNL    H12   48  -0.213   0.309  -0.296
    1UNL    H13   49  -0.073   0.351   0.037
    1UNL    H14   50  -0.298   0.422   0.043
    1UNL    H15   51  -0.152   0.174   0.228
    1UNL    H16   52   0.071   0.115   0.046
    1UNL    H17   53   0.042  -0.325   0.343
    1UNL    H18   54   0.435  -0.213   0.178
    1UNL    H19   55   0.481  -0.207   0.009
    1UNL    H20   56   0.517   0.021   0.131
    1UNL    H21   57   0.357  -0.002   0.209
    1UNL    H22   58   0.085   0.054  -0.192
    1UNL    H23   59   0.122   0.334  -0.249
    1UNL    H24   60   0.210   0.535  -0.148
    1UNL    H25   61   0.378   0.525   0.023
    1UNL    H26   62   0.460   0.299   0.115
    1UNL    H27   63   0.259  -0.208  -0.149
    1UNL    H28   64   0.023  -0.184  -0.186
    1UNL    H29   65   0.015  -0.079  -0.045
    1UNL    H30   66   0.005  -0.373  -0.060
   0.00000   0.00000   0.00000   0.00000   0.00000   0.00000   0.00000   0.00000   0.00000
Generated with MDTraj, t= 97.0
 66
    1UNL     C1    1  -0.315  -0.466   0.062
    1UNL     C2    2  -0.256  -0.393  -0.025
    1UNL     C3    3  -0.170  -0.273   0.008
    1UNL     C4    4  -0.203  -0.217   0.148
    1UNL     O1    5  -0.145  -0.087   0.175
    1UNL     C5    6  -0.195   0.017   0.103
    1UNL     O2    7  -0.202  -0.003  -0.038
    1UNL     C6    8  -0.262   0.099  -0.122
    1UNL     C7    9  -0.411   0.120  -0.090
    1UNL     O3   10  -0.465  -0.008  -0.102
    1UNL     C8   11  -0.172   0.222  -0.114
    1UNL     O4   12  -0.218   0.332  -0.185
    1UNL     C9   13  -0.159   0.263   0.035
    1UNL     O5   14  -0.268   0.334   0.085
    1UNL    C10   15  -0.103   0.151   0.127
    1UNL     O6   16   0.032   0.119   0.115
    1UNL     O7   17  -0.158  -0.321   0.238
    1UNL    C11   18  -0.023  -0.318   0.242
    1UNL    C12   19   0.052  -0.298   0.133
    1UNL    C13   20   0.191  -0.270   0.159
    1UNL     O8   21   0.248  -0.289   0.266
    1UNL     N1   22   0.264  -0.205   0.055
    1UNL    C14   23   0.404  -0.173   0.074
    1UNL    C15   24   0.408  -0.015   0.095
    1UNL    C16   25   0.318   0.059   0.004
    1UNL    C17   26   0.228  -0.004  -0.078
    1UNL     N2   27   0.157   0.100  -0.147
    1UNL    C18   28   0.217   0.220  -0.111
    1UNL    C19   29   0.181   0.353  -0.150
    1UNL    C20   30   0.252   0.452  -0.100
    1UNL    C21   31   0.364   0.426  -0.017
    1UNL    C22   32   0.390   0.303   0.036
    1UNL    C23   33   0.318   0.197  -0.016
    1UNL    C24   34   0.202  -0.152  -0.072
    1UNL    C25   35   0.049  -0.189  -0.091
    1UNL    C26   36  -0.015  -0.300  -0.001
    1UNL     H1   37  -0.386  -0.541   0.033
    1UNL     H2   38  -0.310  -0.434   0.165
    1UNL     H3   39  -0.258  -0.421  -0.129
    1UNL     H4   40  -0.187  -0.194  -0.068
    1UNL     H5   41  -0.306  -0.194   0.143
    1UNL     H6   42  -0.299   0.043   0.142
    1UNL     H7   43  -0.260   0.065  -0.225
    1UNL     H8   44  -0.432   0.154   0.011
    1UNL     H9   45  -0.466   0.178  -0.157
    1UNL    H10   46  -0.404  -0.068  -0.056
    1UNL    H11   47  -0.065   0.212  -0.150
    1UNL    H12   48  -0.286   0.304  -0.245
    1UNL    H13   49  -0.076   0.351   0.038
    1UNL    H14   50  -0.316   0.398   0.028
    1UNL    H15   51  -0.115   0.176   0.232
    1UNL    H16   52   0.054   0.104   0.025
    1UNL    H17   53   0.019  -0.341   0.339
    1UNL    H18   54   0.446  -0.227   0.154
    1UNL    H19   55   0.462  -0.193  -0.018
    1UNL    H20   56   0.514   0.025   0.088
    1UNL    H21   57   0.381   0.001   0.197
    1UNL    H22   58   0.131   0.081  -0.248
    1UNL    H23   59   0.098   0.368  -0.219
    1UNL    H24   60   0.229   0.551  -0.134
    1UNL    H25   61   0.432   0.504   0.016
    1UNL    H26   62   0.477   0.286   0.096
    1UNL    H27   63   0.262  -0.194  -0.153
    1UNL    H28   64   0.027  -0.202  -0.196
    1UNL    H29   65   0.000  -0.099  -0.062
    1UNL    H30   66  -0.002  -0.389  -0.055
   0.00000   0.00000   0.00000   0.00000   0.00000   0.00000   0.00000   0.00000   0.00000
Generated with MDTraj, t= 98.0
 66
    1UNL     C1    1  -0.329  -0.479   0.067
    1UNL     C2    2  -0.224  -0.436   0.006
    1UNL     C3    3  -0.171  -0.291   0.008
    1UNL     C4    4  -0.209  -0.218   0.143
    1UNL     O1    5  -0.151  -0.092   0.164
    1UNL     C5    6  -0.196   0.013   0.084
    1UNL     O2    7  -0.175  -0.003  -0.060
    1UNL     C6    8  -0.226   0.107  -0.135
    1UNL     C7    9  -0.376   0.112  -0.120
    1UNL     O3   10  -0.435  -0.016  -0.104
    1UNL     C8   11  -0.154   0.244  -0.100
    1UNL     O4   12  -0.224   0.357  -0.163
    1UNL     C9   13  -0.160   0.269   0.056
    1UNL     O5   14  -0.293   0.321   0.083
    1UNL    C10   15  -0.127   0.144   0.144
    1UNL     O6   16   0.003   0.137   0.164
    1UNL     O7   17  -0.169  -0.314   0.241
    1UNL    C11   18  -0.034  -0.302   0.260
    1UNL    C12   19   0.047  -0.288   0.151
    1UNL    C13   20   0.192  -0.266   0.156
    1UNL     O8   21   0.257  -0.288   0.256
    1UNL     N1   22   0.255  -0.212   0.036
    1UNL    C14   23   0.396  -0.186   0.042
    1UNL    C15   24   0.415  -0.037   0.075
    1UNL    C16   25   0.329   0.051  -0.011
    1UNL    C17   26   0.224  -0.002  -0.081
    1UNL     N2   27   0.154   0.096  -0.146
    1UNL    C18   28   0.207   0.220  -0.111
    1UNL    C19   29   0.180   0.354  -0.155
    1UNL    C20   30   0.271   0.452  -0.116
    1UNL    C21   31   0.361   0.429  -0.013
    1UNL    C22   32   0.390   0.300   0.027
    1UNL    C23   33   0.318   0.195  -0.027
    1UNL    C24   34   0.183  -0.143  -0.071
    1UNL    C25   35   0.028  -0.155  -0.062
    1UNL    C26   36  -0.010  -0.286   0.009
    1UNL     H1   37  -0.366  -0.579   0.056
    1UNL     H2   38  -0.389  -0.410   0.123
    1UNL     H3   39  -0.172  -0.507  -0.057
    1UNL     H4   40  -0.221  -0.238  -0.077
    1UNL     H5   41  -0.315  -0.197   0.146
    1UNL     H6   42  -0.309   0.020   0.102
    1UNL     H7   43  -0.208   0.083  -0.243
    1UNL     H8   44  -0.393   0.164  -0.027
    1UNL     H9   45  -0.417   0.161  -0.203
    1UNL    H10   46  -0.363  -0.083  -0.093
    1UNL    H11   47  -0.046   0.243  -0.131
    1UNL    H12   48  -0.252   0.313  -0.252
    1UNL    H13   49  -0.090   0.360   0.077
    1UNL    H14   50  -0.336   0.367   0.004
    1UNL    H15   51  -0.166   0.148   0.246
    1UNL    H16   52   0.049   0.126   0.071
    1UNL    H17   53  -0.000  -0.313   0.361
    1UNL    H18   54   0.443  -0.250   0.112
    1UNL    H19   55   0.436  -0.190  -0.062
    1UNL    H20   56   0.521  -0.014   0.069
    1UNL    H21   57   0.398  -0.026   0.182
    1UNL    H22   58   0.060   0.076  -0.192
    1UNL    H23   59   0.104   0.364  -0.232
    1UNL    H24   60   0.261   0.559  -0.128
    1UNL    H25   61   0.412   0.512   0.032
    1UNL    H26   62   0.467   0.286   0.096
    1UNL    H27   63   0.211  -0.198  -0.159
    1UNL    H28   64  -0.015  -0.142  -0.159
    1UNL    H29   65  -0.010  -0.074   0.001
    1UNL    H30   66   0.028  -0.367  -0.046
   0.00000   0.00000   0.00000   0.00000   0.00000   0.00000   0.00000   0.00000   0.00000
Generated with MDTraj, t= 99.0
 66
    1UNL     C1    1  -0.342  -0.481   0.056
    1UNL     C2    2  -0.225  -0.430   0.031
    1UNL     C3    3  -0.173  -0.291   0.033
    1UNL     C4    4  -0.199  -0.221   0.167
    1UNL     O1    5  -0.141  -0.090   0.163
    1UNL     C5    6  -0.203   0.020   0.093
    1UNL     O2    7  -0.184  -0.002  -0.055
    1UNL     C6    8  -0.237   0.113  -0.132
    1UNL     C7    9  -0.388   0.120  -0.130
    1UNL     O3   10  -0.443  -0.001  -0.179
    1UNL     C8   11  -0.170   0.253  -0.082
    1UNL     O4   12  -0.204   0.377  -0.155
    1UNL     C9   13  -0.201   0.276   0.063
    1UNL     O5   14  -0.337   0.292   0.088
    1UNL    C10   15  -0.144   0.157   0.141
    1UNL     O6   16  -0.007   0.158   0.135
    1UNL     O7   17  -0.141  -0.301   0.278
    1UNL    C11   18  -0.008  -0.314   0.250
    1UNL    C12   19   0.058  -0.293   0.133
    1UNL    C13   20   0.200  -0.277   0.149
    1UNL     O8   21   0.259  -0.306   0.251
    1UNL     N1   22   0.261  -0.214   0.040
    1UNL    C14   23   0.405  -0.184   0.061
    1UNL    C15   24   0.420  -0.034   0.078
    1UNL    C16   25   0.336   0.044  -0.022
    1UNL    C17   26   0.222  -0.008  -0.079
    1UNL     N2   27   0.146   0.098  -0.130
    1UNL    C18   28   0.215   0.215  -0.109
    1UNL    C19   29   0.185   0.349  -0.142
    1UNL    C20   30   0.266   0.449  -0.100
    1UNL    C21   31   0.384   0.423  -0.029
    1UNL    C22   32   0.408   0.293   0.011
    1UNL    C23   33   0.331   0.186  -0.035
    1UNL    C24   34   0.187  -0.155  -0.078
    1UNL    C25   35   0.031  -0.164  -0.078
    1UNL    C26   36  -0.017  -0.285   0.008
    1UNL     H1   37  -0.363  -0.587   0.055
    1UNL     H2   38  -0.433  -0.427   0.079
    1UNL     H3   39  -0.149  -0.497  -0.005
    1UNL     H4   40  -0.230  -0.235  -0.044
    1UNL     H5   41  -0.302  -0.222   0.205
    1UNL     H6   42  -0.315   0.026   0.114
    1UNL     H7   43  -0.204   0.092  -0.239
    1UNL     H8   44  -0.410   0.132  -0.024
    1UNL     H9   45  -0.419   0.202  -0.187
    1UNL    H10   46  -0.381  -0.075  -0.160
    1UNL    H11   47  -0.059   0.258  -0.081
    1UNL    H12   48  -0.198   0.366  -0.256
    1UNL    H13   49  -0.147   0.374   0.084
    1UNL    H14   50  -0.376   0.364   0.033
    1UNL    H15   51  -0.151   0.176   0.249
    1UNL    H16   52   0.045   0.138   0.049
    1UNL    H17   53   0.050  -0.338   0.338
    1UNL    H18   54   0.437  -0.226   0.153
    1UNL    H19   55   0.464  -0.224  -0.025
    1UNL    H20   56   0.520  -0.002   0.090
    1UNL    H21   57   0.392  -0.007   0.182
    1UNL    H22   58   0.065   0.082  -0.197
    1UNL    H23   59   0.089   0.380  -0.176
    1UNL    H24   60   0.227   0.549  -0.116
    1UNL    H25   61   0.445   0.504   0.012
    1UNL    H26   62   0.500   0.272   0.078
    1UNL    H27   63   0.221  -0.200  -0.169
    1UNL    H28   64  -0.011  -0.171  -0.175
    1UNL    H29   65  -0.012  -0.070  -0.034
    1UNL    H30   66   0.013  -0.371  -0.046
   0.00000   0.00000   0.00000   0.00000   0.00000   0.00000   0.00000   0.00000   0.00000
