1TPCN03236
15
    1res  C1    1    0.231  -0.168  -0.031
    1res  C2    2    0.477  -0.045  -0.041
    1res  C3    3    0.679  -0.208   0.126
    1res  C4    4    0.728   0.083  -0.073
    1res  C5    5    0.609   0.220   0.095
    1res  C6    6    0.394   0.212   0.045
    1res  C7    7   -0.005  -0.080   0.032
    1res  C8    8    0.084  -0.004  -0.238
    1res  C9    9   -0.045   0.185  -0.122
    1res  C10   10   -0.217   0.231   0.033
    1res  C11   11   -0.445   0.152  -0.065
    1res  C12   12   -0.679   0.105   0.000
    1res  C13   13   -0.583  -0.158   0.024
    1res  C14   14   -0.397  -0.006   0.174
    1res  C15   15   -0.244  -0.194   0.029
  10.00000  10.00000  10.00000
