1TPCN04877
28
    1res  C1    1    1.114  -0.079  -0.332
    1res  C2    2    1.114  -0.209   0.064
    1res  C3    3    0.942   0.018   0.039
    1res  C4    4    0.663  -0.098  -0.036
    1res  C5    5    0.464   0.039  -0.146
    1res  C6    6    0.351   0.268   0.024
    1res  C7    7    0.211   0.076  -0.080
    1res  C8    8    0.197  -0.205  -0.045
    1res  C9    9    0.125  -0.013   0.208
    1res  C10   10   -0.185  -0.144   0.011
    1res  C11   11   -0.181  -0.382   0.198
    1res  C12   12   -0.277  -0.118   0.283
    1res  C13   13   -0.342   0.116   0.004
    1res  C14   14   -0.665   0.129  -0.046
    1res  C15   15   -0.902   0.027   0.104
    1res  C16   16   -1.191   0.113   0.043
    1res  C17   17   -1.228   0.339   0.055
    1res  C18   18   -1.445   0.064  -0.031
    1res  C19   19   -1.317   0.009  -0.225
    1res  C20   20   -1.140  -0.097  -0.176
    1res  C21   21   -0.745  -0.168  -0.035
    1res  C22   22   -0.576  -0.157  -0.196
    1res  C23   23   -0.549   0.107  -0.243
    1res  C24   24   -0.071   0.174   0.177
    1res  C25   25    0.690   0.203  -0.185
    1res  C26   26    0.715   0.299   0.096
    1res  C27   27    1.202   0.122   0.071
    1res  C28   28    1.241  -0.050   0.246
  10.00000  10.00000  10.00000
