[ moleculetype ]
; name        nrexcl
res           1

[ atoms ]
;    nr  type  resnr resid  atom  cgnr     charge       mass
      1 SP2       1 res   C1        1      0.000     54.000
      2 SX3       1 res   C2        2      0.000     54.000
      3 TC5       1 res   C3        3      0.000     36.000
      4 SX4e      1 res   C4        4      0.000     54.000

[ bonds ]
;  ai    aj   funct      b0(nm)          k(kJ/mol/nm^2)
    1     2     1      0.28547          67844.7
    2     3     1      0.26851         163317.8
    2     4     1      0.32434         158377.1
    3     4     1      0.29551         182442.8

[ angles ]
;  ai    aj    ak  funct     th0(deg)        k(kJ/mol/rad^2)
    1     2     3     1    136.65432          1168.44
    1     2     4     1     78.48402          1713.01
    2     3     4     1     70.01998          6075.68
    2     4     3     1     51.07813          9278.97
    3     2     4     1     58.90186          6959.07

[ dihedrals ]
;  ai    aj    ak    al  funct   phi0(deg)        k(kJ/mol)   mult
    1     2     3     4     1   -174.97036       17.122      1
    1     2     3     4     1   -169.93476       15.784      2
    1     2     3     4     1   -164.88492       13.695      3
    1     2     4     3     1      3.05274       12.969      1
    1     2     4     3     1   -173.89265       12.416      2
    1     2     4     3     1      9.16604       11.525      3
