Generated with MDTraj, t= 0.0
 46
    1UNL     C1    1   0.531  -0.020  -0.007
    1UNL     C2    2   0.443   0.057   0.083
    1UNL     C3    3   0.310   0.055   0.078
    1UNL     C4    4   0.224   0.136   0.170
    1UNL     N1    5   0.081   0.120   0.129
    1UNL     C5    6   0.058   0.162  -0.014
    1UNL     C6    7  -0.094   0.165  -0.045
    1UNL     C7    8  -0.163   0.046   0.013
    1UNL     C8    9  -0.104  -0.040   0.102
    1UNL     N2   10  -0.191  -0.140   0.136
    1UNL     C9   11  -0.311  -0.118   0.069
    1UNL    C10   12  -0.431  -0.190   0.067
    1UNL    C11   13  -0.533  -0.144  -0.012
    1UNL    C12   14  -0.520  -0.027  -0.092
    1UNL     O1   15  -0.628   0.013  -0.169
    1UNL    C13   16  -0.401   0.043  -0.090
    1UNL    C14   17  -0.296  -0.002  -0.009
    1UNL    C15   18   0.039  -0.025   0.147
    1UNL     O2   19   0.052  -0.060   0.285
    1UNL    C16   20   0.132  -0.115   0.061
    1UNL    C17   21   0.229  -0.026  -0.021
    1UNL    C18   22   0.146   0.073  -0.109
    1UNL    C19   23   0.068   0.001  -0.220
    1UNL     O3   24   0.149  -0.078  -0.303
    1UNL     H1   25   0.636  -0.002   0.014
    1UNL     H2   26   0.513  -0.127   0.004
    1UNL     H3   27   0.513   0.006  -0.111
    1UNL     H4   28   0.489   0.119   0.158
    1UNL     H5   29   0.251   0.241   0.168
    1UNL     H6   30   0.235   0.101   0.273
    1UNL     H7   31   0.095   0.266  -0.020
    1UNL     H8   32  -0.112   0.170  -0.152
    1UNL     H9   33  -0.139   0.255  -0.003
    1UNL    H10   34  -0.172  -0.217   0.201
    1UNL    H11   35  -0.442  -0.278   0.126
    1UNL    H12   36  -0.627  -0.196  -0.016
    1UNL    H13   37  -0.604   0.095  -0.219
    1UNL    H14   38  -0.389   0.132  -0.149
    1UNL    H15   39  -0.004   0.001   0.337
    1UNL    H16   40   0.188  -0.181   0.128
    1UNL    H17   41   0.072  -0.179  -0.004
    1UNL    H18   42   0.295  -0.087  -0.084
    1UNL    H19   43   0.219   0.138  -0.160
    1UNL    H20   44   0.019   0.074  -0.285
    1UNL    H21   45  -0.011  -0.062  -0.178
    1UNL    H22   46   0.186  -0.155  -0.254
   0.00000   0.00000   0.00000   0.00000   0.00000   0.00000   0.00000   0.00000   0.00000
Generated with MDTraj, t= 1.0
 46
    1UNL     C1    1   0.513  -0.009  -0.057
    1UNL     C2    2   0.451   0.041   0.064
    1UNL     C3    3   0.317   0.044   0.077
    1UNL     C4    4   0.238   0.123   0.176
    1UNL     N1    5   0.094   0.127   0.136
    1UNL     C5    6   0.068   0.163  -0.005
    1UNL     C6    7  -0.087   0.171  -0.031
    1UNL     C7    8  -0.163   0.062   0.021
    1UNL     C8    9  -0.113  -0.021   0.118
    1UNL     N2   10  -0.197  -0.126   0.148
    1UNL     C9   11  -0.309  -0.111   0.077
    1UNL    C10   12  -0.424  -0.188   0.068
    1UNL    C11   13  -0.521  -0.155  -0.028
    1UNL    C12   14  -0.513  -0.038  -0.110
    1UNL     O1   15  -0.617  -0.010  -0.200
    1UNL    C13   16  -0.399   0.038  -0.097
    1UNL    C14   17  -0.300   0.008  -0.006
    1UNL    C15   18   0.039  -0.018   0.161
    1UNL     O2   19   0.049  -0.060   0.296
    1UNL    C16   20   0.121  -0.115   0.066
    1UNL    C17   21   0.222  -0.034  -0.013
    1UNL    C18   22   0.147   0.074  -0.101
    1UNL    C19   23   0.056   0.013  -0.212
    1UNL     O3   24   0.132  -0.086  -0.276
    1UNL     H1   25   0.603  -0.066  -0.023
    1UNL     H2   26   0.441  -0.080  -0.100
    1UNL     H3   27   0.536   0.075  -0.115
    1UNL     H4   28   0.510   0.094   0.128
    1UNL     H5   29   0.274   0.226   0.176
    1UNL     H6   30   0.245   0.085   0.279
    1UNL     H7   31   0.105   0.263  -0.024
    1UNL     H8   32  -0.117   0.180  -0.134
    1UNL     H9   33  -0.130   0.260   0.020
    1UNL    H10   34  -0.167  -0.222   0.162
    1UNL    H11   35  -0.442  -0.269   0.129
    1UNL    H12   36  -0.608  -0.219  -0.043
    1UNL    H13   37  -0.599   0.077  -0.250
    1UNL    H14   38  -0.375   0.121  -0.169
    1UNL    H15   39  -0.032  -0.059   0.359
    1UNL    H16   40   0.175  -0.196   0.113
    1UNL    H17   41   0.041  -0.155   0.001
    1UNL    H18   42   0.275  -0.092  -0.087
    1UNL    H19   43   0.216   0.135  -0.159
    1UNL    H20   44   0.020   0.086  -0.278
    1UNL    H21   45  -0.031  -0.038  -0.169
    1UNL    H22   46   0.132  -0.087  -0.371
   0.00000   0.00000   0.00000   0.00000   0.00000   0.00000   0.00000   0.00000   0.00000
Generated with MDTraj, t= 2.0
 46
    1UNL     C1    1   0.521  -0.016  -0.046
    1UNL     C2    2   0.440   0.061   0.040
    1UNL     C3    3   0.309   0.044   0.061
    1UNL     C4    4   0.237   0.136   0.161
    1UNL     N1    5   0.093   0.122   0.142
    1UNL     C5    6   0.060   0.168   0.004
    1UNL     C6    7  -0.095   0.181  -0.015
    1UNL     C7    8  -0.164   0.063   0.057
    1UNL     C8    9  -0.104  -0.032   0.138
    1UNL     N2   10  -0.195  -0.137   0.150
    1UNL     C9   11  -0.312  -0.113   0.081
    1UNL    C10   12  -0.435  -0.193   0.058
    1UNL    C11   13  -0.517  -0.151  -0.044
    1UNL    C12   14  -0.491  -0.036  -0.122
    1UNL     O1   15  -0.580   0.001  -0.227
    1UNL    C13   16  -0.377   0.043  -0.098
    1UNL    C14   17  -0.294   0.011   0.014
    1UNL    C15   18   0.047  -0.023   0.170
    1UNL     O2   19   0.063  -0.052   0.305
    1UNL    C16   20   0.119  -0.121   0.075
    1UNL    C17   21   0.209  -0.042  -0.024
    1UNL    C18   22   0.130   0.065  -0.101
    1UNL    C19   23   0.030  -0.010  -0.205
    1UNL     O3   24   0.099  -0.088  -0.302
    1UNL     H1   25   0.624   0.027  -0.058
    1UNL     H2   26   0.543  -0.108   0.016
    1UNL     H3   27   0.483  -0.036  -0.139
    1UNL     H4   28   0.485   0.156   0.093
    1UNL     H5   29   0.264   0.243   0.159
    1UNL     H6   30   0.253   0.101   0.266
    1UNL     H7   31   0.106   0.265  -0.001
    1UNL     H8   32  -0.141   0.185  -0.111
    1UNL     H9   33  -0.141   0.266   0.040
    1UNL    H10   34  -0.184  -0.207   0.223
    1UNL    H11   35  -0.472  -0.292   0.108
    1UNL    H12   36  -0.602  -0.202  -0.080
    1UNL    H13   37  -0.559   0.085  -0.283
    1UNL    H14   38  -0.351   0.117  -0.164
    1UNL    H15   39   0.001   0.003   0.354
    1UNL    H16   40   0.181  -0.180   0.143
    1UNL    H17   41   0.050  -0.194   0.026
    1UNL    H18   42   0.279  -0.104  -0.084
    1UNL    H19   43   0.204   0.121  -0.153
    1UNL    H20   44  -0.024   0.061  -0.250
    1UNL    H21   45  -0.045  -0.068  -0.147
    1UNL    H22   46   0.180  -0.039  -0.340
   0.00000   0.00000   0.00000   0.00000   0.00000   0.00000   0.00000   0.00000   0.00000
Generated with MDTraj, t= 3.0
 46
    1UNL     C1    1   0.515  -0.031  -0.053
    1UNL     C2    2   0.441   0.031   0.059
    1UNL     C3    3   0.309   0.047   0.068
    1UNL     C4    4   0.236   0.124   0.169
    1UNL     N1    5   0.090   0.128   0.145
    1UNL     C5    6   0.057   0.171   0.007
    1UNL     C6    7  -0.092   0.195  -0.003
    1UNL     C7    8  -0.166   0.071   0.041
    1UNL     C8    9  -0.107  -0.025   0.118
    1UNL     N2   10  -0.184  -0.134   0.136
    1UNL     C9   11  -0.301  -0.112   0.068
    1UNL    C10   12  -0.406  -0.200   0.048
    1UNL    C11   13  -0.493  -0.160  -0.045
    1UNL    C12   14  -0.487  -0.037  -0.124
    1UNL     O1   15  -0.585  -0.003  -0.214
    1UNL    C13   16  -0.381   0.043  -0.098
    1UNL    C14   17  -0.293   0.012   0.003
    1UNL    C15   18   0.036  -0.010   0.161
    1UNL     O2   19   0.054  -0.045   0.305
    1UNL    C16   20   0.122  -0.115   0.077
    1UNL    C17   21   0.210  -0.029  -0.028
    1UNL    C18   22   0.125   0.069  -0.102
    1UNL    C19   23   0.023  -0.006  -0.189
    1UNL     O3   24   0.085  -0.085  -0.289
    1UNL     H1   25   0.498  -0.002  -0.159
    1UNL     H2   26   0.621  -0.012  -0.033
    1UNL     H3   27   0.503  -0.137  -0.059
    1UNL     H4   28   0.486   0.091   0.129
    1UNL     H5   29   0.264   0.231   0.163
    1UNL     H6   30   0.256   0.091   0.274
    1UNL     H7   31   0.108   0.265  -0.006
    1UNL     H8   32  -0.120   0.210  -0.106
    1UNL     H9   33  -0.144   0.278   0.052
    1UNL    H10   34  -0.157  -0.213   0.195
    1UNL    H11   35  -0.412  -0.290   0.097
    1UNL    H12   36  -0.580  -0.217  -0.080
    1UNL    H13   37  -0.566   0.088  -0.254
    1UNL    H14   38  -0.359   0.137  -0.154
    1UNL    H15   39   0.020   0.031   0.353
    1UNL    H16   40   0.179  -0.183   0.140
    1UNL    H17   41   0.053  -0.195   0.037
    1UNL    H18   42   0.244  -0.104  -0.101
    1UNL    H19   43   0.184   0.125  -0.170
    1UNL    H20   44  -0.046   0.057  -0.224
    1UNL    H21   45  -0.039  -0.077  -0.125
    1UNL    H22   46   0.049  -0.181  -0.288
   0.00000   0.00000   0.00000   0.00000   0.00000   0.00000   0.00000   0.00000   0.00000
Generated with MDTraj, t= 4.0
 46
    1UNL     C1    1   0.521  -0.054  -0.047
    1UNL     C2    2   0.452   0.043   0.052
    1UNL     C3    3   0.316   0.046   0.070
    1UNL     C4    4   0.246   0.133   0.165
    1UNL     N1    5   0.090   0.128   0.139
    1UNL     C5    6   0.052   0.171   0.002
    1UNL     C6    7  -0.097   0.184  -0.019
    1UNL     C7    8  -0.166   0.070   0.036
    1UNL     C8    9  -0.106  -0.022   0.120
    1UNL     N2   10  -0.190  -0.131   0.139
    1UNL     C9   11  -0.301  -0.114   0.062
    1UNL    C10   12  -0.403  -0.208   0.024
    1UNL    C11   13  -0.499  -0.173  -0.064
    1UNL    C12   14  -0.495  -0.039  -0.115
    1UNL     O1   15  -0.607   0.003  -0.192
    1UNL    C13   16  -0.391   0.049  -0.091
    1UNL    C14   17  -0.291   0.010  -0.007
    1UNL    C15   18   0.036  -0.013   0.168
    1UNL     O2   19   0.051  -0.049   0.308
    1UNL    C16   20   0.121  -0.109   0.078
    1UNL    C17   21   0.212  -0.027  -0.015
    1UNL    C18   22   0.130   0.077  -0.100
    1UNL    C19   23   0.034   0.018  -0.201
    1UNL     O3   24   0.088  -0.095  -0.269
    1UNL     H1   25   0.461  -0.110  -0.117
    1UNL     H2   26   0.598  -0.002  -0.101
    1UNL     H3   27   0.571  -0.131   0.017
    1UNL     H4   28   0.511   0.115   0.108
    1UNL     H5   29   0.290   0.235   0.173
    1UNL     H6   30   0.259   0.095   0.271
    1UNL     H7   31   0.100   0.267  -0.008
    1UNL     H8   32  -0.134   0.212  -0.119
    1UNL     H9   33  -0.131   0.264   0.050
    1UNL    H10   34  -0.152  -0.224   0.153
    1UNL    H11   35  -0.385  -0.310   0.060
    1UNL    H12   36  -0.570  -0.247  -0.091
    1UNL    H13   37  -0.591   0.095  -0.223
    1UNL    H14   38  -0.390   0.151  -0.125
    1UNL    H15   39   0.056   0.041   0.353
    1UNL    H16   40   0.169  -0.193   0.128
    1UNL    H17   41   0.046  -0.166   0.015
    1UNL    H18   42   0.266  -0.087  -0.091
    1UNL    H19   43   0.206   0.125  -0.157
    1UNL    H20   44  -0.007   0.078  -0.273
    1UNL    H21   45  -0.057  -0.019  -0.148
    1UNL    H22   46   0.078  -0.171  -0.210
   0.00000   0.00000   0.00000   0.00000   0.00000   0.00000   0.00000   0.00000   0.00000
Generated with MDTraj, t= 5.0
 46
    1UNL     C1    1   0.522  -0.035  -0.020
    1UNL     C2    2   0.443   0.057   0.075
    1UNL     C3    3   0.304   0.061   0.069
    1UNL     C4    4   0.232   0.141   0.165
    1UNL     N1    5   0.084   0.126   0.137
    1UNL     C5    6   0.052   0.162  -0.003
    1UNL     C6    7  -0.099   0.179  -0.030
    1UNL     C7    8  -0.167   0.062   0.041
    1UNL     C8    9  -0.099  -0.028   0.120
    1UNL     N2   10  -0.174  -0.147   0.129
    1UNL     C9   11  -0.299  -0.124   0.059
    1UNL    C10   12  -0.416  -0.197   0.038
    1UNL    C11   13  -0.516  -0.148  -0.040
    1UNL    C12   14  -0.505  -0.027  -0.106
    1UNL     O1   15  -0.603   0.016  -0.193
    1UNL    C13   16  -0.396   0.056  -0.079
    1UNL    C14   17  -0.293   0.003   0.002
    1UNL    C15   18   0.047  -0.019   0.157
    1UNL     O2   19   0.064  -0.053   0.285
    1UNL    C16   20   0.128  -0.108   0.074
    1UNL    C17   21   0.215  -0.032  -0.019
    1UNL    C18   22   0.126   0.062  -0.106
    1UNL    C19   23   0.035  -0.015  -0.200
    1UNL     O3   24   0.111  -0.097  -0.292
    1UNL     H1   25   0.506  -0.019  -0.124
    1UNL     H2   26   0.626  -0.032   0.003
    1UNL     H3   27   0.494  -0.142   0.012
    1UNL     H4   28   0.504   0.133   0.139
    1UNL     H5   29   0.268   0.247   0.163
    1UNL     H6   30   0.258   0.115   0.271
    1UNL     H7   31   0.106   0.257  -0.004
    1UNL     H8   32  -0.119   0.179  -0.140
    1UNL     H9   33  -0.143   0.269   0.015
    1UNL    H10   34  -0.183  -0.223   0.196
    1UNL    H11   35  -0.419  -0.300   0.078
    1UNL    H12   36  -0.606  -0.207  -0.056
    1UNL    H13   37  -0.568   0.072  -0.261
    1UNL    H14   38  -0.406   0.154  -0.115
    1UNL    H15   39  -0.002  -0.006   0.345
    1UNL    H16   40   0.190  -0.165   0.142
    1UNL    H17   41   0.061  -0.188   0.030
    1UNL    H18   42   0.289  -0.091  -0.075
    1UNL    H19   43   0.191   0.120  -0.170
    1UNL    H20   44  -0.027   0.052  -0.253
    1UNL    H21   45  -0.043  -0.083  -0.158
    1UNL    H22   46   0.101  -0.067  -0.382
   0.00000   0.00000   0.00000   0.00000   0.00000   0.00000   0.00000   0.00000   0.00000
Generated with MDTraj, t= 6.0
 46
    1UNL     C1    1   0.547  -0.008  -0.012
    1UNL     C2    2   0.446   0.045   0.083
    1UNL     C3    3   0.312   0.050   0.073
    1UNL     C4    4   0.237   0.123   0.171
    1UNL     N1    5   0.087   0.122   0.128
    1UNL     C5    6   0.054   0.167  -0.010
    1UNL     C6    7  -0.096   0.168  -0.033
    1UNL     C7    8  -0.165   0.044   0.009
    1UNL     C8    9  -0.103  -0.035   0.101
    1UNL     N2   10  -0.194  -0.133   0.143
    1UNL     C9   11  -0.310  -0.120   0.064
    1UNL    C10   12  -0.434  -0.187   0.063
    1UNL    C11   13  -0.541  -0.141  -0.015
    1UNL    C12   14  -0.523  -0.028  -0.101
    1UNL     O1   15  -0.631   0.017  -0.178
    1UNL    C13   16  -0.396   0.036  -0.095
    1UNL    C14   17  -0.292  -0.006  -0.012
    1UNL    C15   18   0.042  -0.021   0.149
    1UNL     O2   19   0.050  -0.061   0.294
    1UNL    C16   20   0.134  -0.113   0.065
    1UNL    C17   21   0.231  -0.026  -0.026
    1UNL    C18   22   0.141   0.073  -0.108
    1UNL    C19   23   0.060   0.002  -0.214
    1UNL     O3   24   0.137  -0.088  -0.293
    1UNL     H1   25   0.579   0.054  -0.092
    1UNL     H2   26   0.634  -0.037   0.044
    1UNL     H3   27   0.524  -0.111  -0.055
    1UNL     H4   28   0.474   0.113   0.151
    1UNL     H5   29   0.268   0.230   0.156
    1UNL     H6   30   0.258   0.106   0.280
    1UNL     H7   31   0.090   0.273  -0.009
    1UNL     H8   32  -0.106   0.170  -0.147
    1UNL     H9   33  -0.144   0.257   0.010
    1UNL    H10   34  -0.180  -0.204   0.216
    1UNL    H11   35  -0.439  -0.267   0.127
    1UNL    H12   36  -0.638  -0.187  -0.004
    1UNL    H13   37  -0.596   0.058  -0.256
    1UNL    H14   38  -0.383   0.136  -0.144
    1UNL    H15   39  -0.021  -0.040   0.354
    1UNL    H16   40   0.191  -0.171   0.137
    1UNL    H17   41   0.075  -0.198   0.020
    1UNL    H18   42   0.277  -0.097  -0.096
    1UNL    H19   43   0.198   0.143  -0.171
    1UNL    H20   44   0.000   0.061  -0.284
    1UNL    H21   45  -0.021  -0.053  -0.163
    1UNL    H22   46   0.211  -0.040  -0.343
   0.00000   0.00000   0.00000   0.00000   0.00000   0.00000   0.00000   0.00000   0.00000
Generated with MDTraj, t= 7.0
 46
    1UNL     C1    1   0.522  -0.009  -0.010
    1UNL     C2    2   0.441   0.059   0.087
    1UNL     C3    3   0.305   0.058   0.081
    1UNL     C4    4   0.213   0.131   0.172
    1UNL     N1    5   0.070   0.110   0.121
    1UNL     C5    6   0.062   0.156  -0.019
    1UNL     C6    7  -0.090   0.152  -0.063
    1UNL     C7    8  -0.161   0.033  -0.006
    1UNL     C8    9  -0.105  -0.051   0.092
    1UNL     N2   10  -0.202  -0.130   0.146
    1UNL     C9   11  -0.319  -0.103   0.080
    1UNL    C10   12  -0.438  -0.175   0.086
    1UNL    C11   13  -0.542  -0.136   0.009
    1UNL    C12   14  -0.529  -0.020  -0.077
    1UNL     O1   15  -0.638   0.015  -0.164
    1UNL    C13   16  -0.411   0.044  -0.087
    1UNL    C14   17  -0.299  -0.001  -0.014
    1UNL    C15   18   0.042  -0.034   0.139
    1UNL     O2   19   0.046  -0.078   0.285
    1UNL    C16   20   0.136  -0.117   0.055
    1UNL    C17   21   0.227  -0.025  -0.022
    1UNL    C18   22   0.160   0.075  -0.113
    1UNL    C19   23   0.097   0.011  -0.232
    1UNL     O3   24   0.188  -0.078  -0.295
    1UNL     H1   25   0.494  -0.007  -0.115
    1UNL     H2   26   0.624   0.028  -0.003
    1UNL     H3   27   0.544  -0.110   0.027
    1UNL     H4   28   0.491   0.120   0.170
    1UNL     H5   29   0.232   0.236   0.210
    1UNL     H6   30   0.213   0.075   0.268
    1UNL     H7   31   0.095   0.264  -0.013
    1UNL     H8   32  -0.094   0.177  -0.175
    1UNL     H9   33  -0.125   0.244  -0.016
    1UNL    H10   34  -0.180  -0.220   0.187
    1UNL    H11   35  -0.445  -0.275   0.143
    1UNL    H12   36  -0.621  -0.205  -0.005
    1UNL    H13   37  -0.596   0.073  -0.231
    1UNL    H14   38  -0.404   0.119  -0.156
    1UNL    H15   39  -0.049  -0.062   0.308
    1UNL    H16   40   0.183  -0.194   0.117
    1UNL    H17   41   0.072  -0.172  -0.018
    1UNL    H18   42   0.296  -0.095  -0.072
    1UNL    H19   43   0.245   0.144  -0.140
    1UNL    H20   44   0.074   0.098  -0.298
    1UNL    H21   45   0.004  -0.042  -0.212
    1UNL    H22   46   0.280  -0.033  -0.290
   0.00000   0.00000   0.00000   0.00000   0.00000   0.00000   0.00000   0.00000   0.00000
Generated with MDTraj, t= 8.0
 46
    1UNL     C1    1   0.539   0.005   0.026
    1UNL     C2    2   0.438   0.072   0.105
    1UNL     C3    3   0.305   0.051   0.087
    1UNL     C4    4   0.213   0.133   0.161
    1UNL     N1    5   0.070   0.108   0.119
    1UNL     C5    6   0.057   0.147  -0.023
    1UNL     C6    7  -0.091   0.137  -0.069
    1UNL     C7    8  -0.167   0.026  -0.008
    1UNL     C8    9  -0.112  -0.058   0.091
    1UNL     N2   10  -0.209  -0.146   0.140
    1UNL     C9   11  -0.328  -0.120   0.074
    1UNL    C10   12  -0.457  -0.179   0.096
    1UNL    C11   13  -0.559  -0.123   0.019
    1UNL    C12   14  -0.539  -0.013  -0.072
    1UNL     O1   15  -0.646   0.032  -0.144
    1UNL    C13   16  -0.412   0.046  -0.089
    1UNL    C14   17  -0.302  -0.005  -0.014
    1UNL    C15   18   0.040  -0.038   0.135
    1UNL     O2   19   0.069  -0.062   0.277
    1UNL    C16   20   0.135  -0.127   0.051
    1UNL    C17   21   0.234  -0.037  -0.015
    1UNL    C18   22   0.154   0.061  -0.113
    1UNL    C19   23   0.111  -0.005  -0.247
    1UNL     O3   24   0.220  -0.053  -0.324
    1UNL     H1   25   0.527   0.016  -0.084
    1UNL     H2   26   0.636   0.047   0.062
    1UNL     H3   27   0.546  -0.093   0.062
    1UNL     H4   28   0.469   0.154   0.171
    1UNL     H5   29   0.233   0.241   0.140
    1UNL     H6   30   0.214   0.132   0.271
    1UNL     H7   31   0.084   0.256  -0.031
    1UNL     H8   32  -0.097   0.134  -0.183
    1UNL     H9   33  -0.135   0.236  -0.042
    1UNL    H10   34  -0.201  -0.201   0.226
    1UNL    H11   35  -0.474  -0.259   0.161
    1UNL    H12   36  -0.662  -0.165   0.025
    1UNL    H13   37  -0.615   0.093  -0.220
    1UNL    H14   38  -0.399   0.124  -0.166
    1UNL    H15   39   0.012   0.008   0.323
    1UNL    H16   40   0.190  -0.194   0.120
    1UNL    H17   41   0.077  -0.182  -0.024
    1UNL    H18   42   0.307  -0.089  -0.078
    1UNL    H19   43   0.236   0.133  -0.149
    1UNL    H20   44   0.056   0.070  -0.313
    1UNL    H21   45   0.052  -0.088  -0.217
    1UNL    H22   46   0.247   0.004  -0.397
   0.00000   0.00000   0.00000   0.00000   0.00000   0.00000   0.00000   0.00000   0.00000
Generated with MDTraj, t= 9.0
 46
    1UNL     C1    1   0.535  -0.019   0.041
    1UNL     C2    2   0.432   0.064   0.114
    1UNL     C3    3   0.299   0.066   0.088
    1UNL     C4    4   0.202   0.142   0.163
    1UNL     N1    5   0.068   0.114   0.109
    1UNL     C5    6   0.049   0.155  -0.034
    1UNL     C6    7  -0.102   0.135  -0.078
    1UNL     C7    8  -0.161   0.011  -0.028
    1UNL     C8    9  -0.104  -0.063   0.068
    1UNL     N2   10  -0.194  -0.149   0.132
    1UNL     C9   11  -0.317  -0.125   0.072
    1UNL    C10   12  -0.448  -0.168   0.109
    1UNL    C11   13  -0.553  -0.116   0.034
    1UNL    C12   14  -0.539  -0.018  -0.062
    1UNL     O1   15  -0.649   0.046  -0.120
    1UNL    C13   16  -0.412   0.027  -0.091
    1UNL    C14   17  -0.298  -0.023  -0.022
    1UNL    C15   18   0.035  -0.037   0.126
    1UNL     O2   19   0.038  -0.064   0.267
    1UNL    C16   20   0.143  -0.122   0.050
    1UNL    C17   21   0.245  -0.026  -0.019
    1UNL    C18   22   0.162   0.073  -0.118
    1UNL    C19   23   0.119   0.006  -0.244
    1UNL     O3   24   0.223  -0.059  -0.316
    1UNL     H1   25   0.564   0.013  -0.060
    1UNL     H2   26   0.626  -0.026   0.107
    1UNL     H3   27   0.512  -0.119   0.042
    1UNL     H4   28   0.460   0.134   0.182
    1UNL     H5   29   0.213   0.253   0.162
    1UNL     H6   30   0.195   0.127   0.272
    1UNL     H7   31   0.057   0.266  -0.042
    1UNL     H8   32  -0.110   0.132  -0.188
    1UNL     H9   33  -0.174   0.220  -0.056
    1UNL    H10   34  -0.195  -0.215   0.211
    1UNL    H11   35  -0.470  -0.236   0.190
    1UNL    H12   36  -0.651  -0.138   0.058
    1UNL    H13   37  -0.618   0.120  -0.183
    1UNL    H14   38  -0.407   0.108  -0.166
    1UNL    H15   39  -0.004   0.005   0.317
    1UNL    H16   40   0.202  -0.184   0.122
    1UNL    H17   41   0.092  -0.181  -0.024
    1UNL    H18   42   0.320  -0.076  -0.082
    1UNL    H19   43   0.230   0.161  -0.152
    1UNL    H20   44   0.087   0.095  -0.309
    1UNL    H21   45   0.047  -0.068  -0.225
    1UNL    H22   46   0.304  -0.009  -0.326
   0.00000   0.00000   0.00000   0.00000   0.00000   0.00000   0.00000   0.00000   0.00000
Generated with MDTraj, t= 10.0
 46
    1UNL     C1    1   0.527  -0.028   0.060
    1UNL     C2    2   0.429   0.060   0.134
    1UNL     C3    3   0.300   0.068   0.095
    1UNL     C4    4   0.197   0.147   0.163
    1UNL     N1    5   0.065   0.115   0.102
    1UNL     C5    6   0.055   0.158  -0.047
    1UNL     C6    7  -0.097   0.132  -0.098
    1UNL     C7    8  -0.165   0.029  -0.024
    1UNL     C8    9  -0.103  -0.050   0.072
    1UNL     N2   10  -0.185  -0.149   0.129
    1UNL     C9   11  -0.313  -0.118   0.083
    1UNL    C10   12  -0.441  -0.171   0.104
    1UNL    C11   13  -0.549  -0.126   0.034
    1UNL    C12   14  -0.544  -0.016  -0.054
    1UNL     O1   15  -0.658   0.036  -0.118
    1UNL    C13   16  -0.422   0.037  -0.077
    1UNL    C14   17  -0.305  -0.012  -0.020
    1UNL    C15   18   0.037  -0.036   0.116
    1UNL     O2   19   0.046  -0.083   0.249
    1UNL    C16   20   0.146  -0.111   0.034
    1UNL    C17   21   0.246  -0.010  -0.026
    1UNL    C18   22   0.170   0.078  -0.130
    1UNL    C19   23   0.118   0.006  -0.245
    1UNL     O3   24   0.217  -0.077  -0.300
    1UNL     H1   25   0.531  -0.020  -0.048
    1UNL     H2   26   0.631  -0.015   0.097
    1UNL     H3   27   0.517  -0.130   0.091
    1UNL     H4   28   0.460   0.128   0.224
    1UNL     H5   29   0.209   0.254   0.192
    1UNL     H6   30   0.183   0.105   0.263
    1UNL     H7   31   0.070   0.265  -0.052
    1UNL     H8   32  -0.112   0.118  -0.203
    1UNL     H9   33  -0.160   0.227  -0.088
    1UNL    H10   34  -0.161  -0.215   0.204
    1UNL    H11   35  -0.453  -0.262   0.168
    1UNL    H12   36  -0.646  -0.182   0.038
    1UNL    H13   37  -0.635   0.130  -0.146
    1UNL    H14   38  -0.417   0.117  -0.140
    1UNL    H15   39  -0.005  -0.029   0.308
    1UNL    H16   40   0.198  -0.176   0.109
    1UNL    H17   41   0.109  -0.171  -0.047
    1UNL    H18   42   0.332  -0.066  -0.065
    1UNL    H19   43   0.253   0.159  -0.151
    1UNL    H20   44   0.090   0.080  -0.327
    1UNL    H21   45   0.045  -0.056  -0.205
    1UNL    H22   46   0.304  -0.029  -0.316
   0.00000   0.00000   0.00000   0.00000   0.00000   0.00000   0.00000   0.00000   0.00000
Generated with MDTraj, t= 11.0
 46
    1UNL     C1    1   0.545  -0.023   0.070
    1UNL     C2    2   0.439   0.060   0.128
    1UNL     C3    3   0.312   0.065   0.083
    1UNL     C4    4   0.215   0.146   0.154
    1UNL     N1    5   0.073   0.123   0.112
    1UNL     C5    6   0.052   0.153  -0.037
    1UNL     C6    7  -0.092   0.135  -0.084
    1UNL     C7    8  -0.172   0.040  -0.003
    1UNL     C8    9  -0.107  -0.050   0.079
    1UNL     N2   10  -0.190  -0.154   0.123
    1UNL     C9   11  -0.319  -0.132   0.063
    1UNL    C10   12  -0.453  -0.182   0.088
    1UNL    C11   13  -0.563  -0.126   0.030
    1UNL    C12   14  -0.542  -0.019  -0.061
    1UNL     O1   15  -0.651   0.034  -0.126
    1UNL    C13   16  -0.417   0.035  -0.085
    1UNL    C14   17  -0.305  -0.015  -0.015
    1UNL    C15   18   0.040  -0.022   0.124
    1UNL     O2   19   0.063  -0.068   0.262
    1UNL    C16   20   0.138  -0.115   0.046
    1UNL    C17   21   0.239  -0.019  -0.027
    1UNL    C18   22   0.157   0.072  -0.122
    1UNL    C19   23   0.104  -0.002  -0.241
    1UNL     O3   24   0.204  -0.071  -0.317
    1UNL     H1   25   0.586   0.021  -0.017
    1UNL     H2   26   0.617  -0.043   0.147
    1UNL     H3   27   0.505  -0.127   0.050
    1UNL     H4   28   0.463   0.134   0.198
    1UNL     H5   29   0.228   0.255   0.138
    1UNL     H6   30   0.220   0.140   0.263
    1UNL     H7   31   0.074   0.256  -0.058
    1UNL     H8   32  -0.105   0.111  -0.186
    1UNL     H9   33  -0.144   0.238  -0.078
    1UNL    H10   34  -0.161  -0.213   0.201
    1UNL    H11   35  -0.458  -0.253   0.160
    1UNL    H12   36  -0.662  -0.151   0.055
    1UNL    H13   37  -0.629   0.119  -0.165
    1UNL    H14   38  -0.406   0.134  -0.138
    1UNL    H15   39   0.003  -0.025   0.325
    1UNL    H16   40   0.187  -0.195   0.108
    1UNL    H17   41   0.077  -0.170  -0.024
    1UNL    H18   42   0.300  -0.079  -0.094
    1UNL    H19   43   0.234   0.147  -0.174
    1UNL    H20   44   0.051   0.069  -0.309
    1UNL    H21   45   0.049  -0.081  -0.207
    1UNL    H22   46   0.290  -0.017  -0.331
   0.00000   0.00000   0.00000   0.00000   0.00000   0.00000   0.00000   0.00000   0.00000
Generated with MDTraj, t= 12.0
 46
    1UNL     C1    1   0.521  -0.036   0.016
    1UNL     C2    2   0.438   0.051   0.096
    1UNL     C3    3   0.305   0.067   0.080
    1UNL     C4    4   0.211   0.147   0.166
    1UNL     N1    5   0.067   0.120   0.120
    1UNL     C5    6   0.052   0.156  -0.024
    1UNL     C6    7  -0.092   0.145  -0.076
    1UNL     C7    8  -0.163   0.027  -0.007
    1UNL     C8    9  -0.102  -0.047   0.089
    1UNL     N2   10  -0.192  -0.137   0.136
    1UNL     C9   11  -0.310  -0.116   0.066
    1UNL    C10   12  -0.433  -0.181   0.087
    1UNL    C11   13  -0.540  -0.134   0.021
    1UNL    C12   14  -0.525  -0.029  -0.072
    1UNL     O1   15  -0.628   0.030  -0.145
    1UNL    C13   16  -0.404   0.033  -0.094
    1UNL    C14   17  -0.293  -0.012  -0.024
    1UNL    C15   18   0.037  -0.024   0.144
    1UNL     O2   19   0.038  -0.060   0.284
    1UNL    C16   20   0.129  -0.113   0.059
    1UNL    C17   21   0.229  -0.024  -0.018
    1UNL    C18   22   0.156   0.078  -0.117
    1UNL    C19   23   0.090  -0.002  -0.234
    1UNL     O3   24   0.190  -0.066  -0.312
    1UNL     H1   25   0.527  -0.006  -0.087
    1UNL     H2   26   0.618  -0.030   0.057
    1UNL     H3   27   0.501  -0.148   0.032
    1UNL     H4   28   0.492   0.111   0.167
    1UNL     H5   29   0.228   0.254   0.180
    1UNL     H6   30   0.219   0.111   0.268
    1UNL     H7   31   0.080   0.258  -0.015
    1UNL     H8   32  -0.095   0.137  -0.182
    1UNL     H9   33  -0.155   0.237  -0.051
    1UNL    H10   34  -0.170  -0.218   0.197
    1UNL    H11   35  -0.443  -0.264   0.163
    1UNL    H12   36  -0.637  -0.180   0.026
    1UNL    H13   37  -0.612   0.122  -0.164
    1UNL    H14   38  -0.392   0.112  -0.164
    1UNL    H15   39  -0.035  -0.003   0.328
    1UNL    H16   40   0.193  -0.167   0.132
    1UNL    H17   41   0.082  -0.199   0.008
    1UNL    H18   42   0.298  -0.076  -0.084
    1UNL    H19   43   0.236   0.148  -0.169
    1UNL    H20   44   0.044   0.068  -0.305
    1UNL    H21   45   0.020  -0.069  -0.206
    1UNL    H22   46   0.264  -0.005  -0.306
   0.00000   0.00000   0.00000   0.00000   0.00000   0.00000   0.00000   0.00000   0.00000
Generated with MDTraj, t= 13.0
 46
    1UNL     C1    1   0.545  -0.015  -0.011
    1UNL     C2    2   0.451   0.052   0.082
    1UNL     C3    3   0.316   0.050   0.071
    1UNL     C4    4   0.226   0.121   0.172
    1UNL     N1    5   0.079   0.114   0.124
    1UNL     C5    6   0.059   0.163  -0.015
    1UNL     C6    7  -0.095   0.162  -0.050
    1UNL     C7    8  -0.168   0.049   0.008
    1UNL     C8    9  -0.110  -0.031   0.106
    1UNL     N2   10  -0.202  -0.122   0.141
    1UNL     C9   11  -0.321  -0.108   0.078
    1UNL    C10   12  -0.438  -0.181   0.076
    1UNL    C11   13  -0.543  -0.146  -0.008
    1UNL    C12   14  -0.529  -0.029  -0.092
    1UNL     O1   15  -0.631  -0.002  -0.182
    1UNL    C13   16  -0.410   0.043  -0.090
    1UNL    C14   17  -0.306   0.002  -0.009
    1UNL    C15   18   0.040  -0.026   0.154
    1UNL     O2   19   0.050  -0.060   0.297
    1UNL    C16   20   0.130  -0.113   0.060
    1UNL    C17   21   0.227  -0.034  -0.027
    1UNL    C18   22   0.150   0.078  -0.111
    1UNL    C19   23   0.080   0.003  -0.227
    1UNL     O3   24   0.167  -0.084  -0.294
    1UNL     H1   25   0.510  -0.010  -0.114
    1UNL     H2   26   0.640   0.032  -0.019
    1UNL     H3   27   0.581  -0.117   0.019
    1UNL     H4   28   0.500   0.125   0.154
    1UNL     H5   29   0.259   0.225   0.172
    1UNL     H6   30   0.241   0.097   0.276
    1UNL     H7   31   0.097   0.259  -0.004
    1UNL     H8   32  -0.096   0.161  -0.159
    1UNL     H9   33  -0.140   0.259  -0.018
    1UNL    H10   34  -0.186  -0.191   0.216
    1UNL    H11   35  -0.438  -0.275   0.125
    1UNL    H12   36  -0.634  -0.209  -0.014
    1UNL    H13   37  -0.639   0.092  -0.197
    1UNL    H14   38  -0.389   0.117  -0.162
    1UNL    H15   39   0.062   0.024   0.351
    1UNL    H16   40   0.190  -0.189   0.114
    1UNL    H17   41   0.064  -0.188   0.008
    1UNL    H18   42   0.298  -0.099  -0.080
    1UNL    H19   43   0.237   0.143  -0.160
    1UNL    H20   44   0.025   0.058  -0.303
    1UNL    H21   45   0.009  -0.059  -0.190
    1UNL    H22   46   0.250  -0.040  -0.309
   0.00000   0.00000   0.00000   0.00000   0.00000   0.00000   0.00000   0.00000   0.00000
Generated with MDTraj, t= 14.0
 46
    1UNL     C1    1   0.516  -0.011  -0.038
    1UNL     C2    2   0.436   0.061   0.074
    1UNL     C3    3   0.302   0.056   0.072
    1UNL     C4    4   0.228   0.127   0.174
    1UNL     N1    5   0.081   0.130   0.136
    1UNL     C5    6   0.059   0.163  -0.006
    1UNL     C6    7  -0.090   0.167  -0.031
    1UNL     C7    8  -0.163   0.053   0.030
    1UNL     C8    9  -0.101  -0.036   0.117
    1UNL     N2   10  -0.194  -0.133   0.150
    1UNL     C9   11  -0.306  -0.115   0.071
    1UNL    C10   12  -0.430  -0.184   0.068
    1UNL    C11   13  -0.529  -0.138  -0.019
    1UNL    C12   14  -0.505  -0.029  -0.109
    1UNL     O1   15  -0.600  -0.003  -0.212
    1UNL    C13   16  -0.393   0.057  -0.092
    1UNL    C14   17  -0.295   0.007  -0.001
    1UNL    C15   18   0.044  -0.020   0.154
    1UNL     O2   19   0.064  -0.055   0.293
    1UNL    C16   20   0.131  -0.120   0.072
    1UNL    C17   21   0.215  -0.030  -0.021
    1UNL    C18   22   0.135   0.065  -0.107
    1UNL    C19   23   0.050  -0.010  -0.215
    1UNL     O3   24   0.131  -0.102  -0.291
    1UNL     H1   25   0.493   0.042  -0.132
    1UNL     H2   26   0.623  -0.009  -0.022
    1UNL     H3   27   0.492  -0.116  -0.047
    1UNL     H4   28   0.480   0.125   0.135
    1UNL     H5   29   0.271   0.226   0.187
    1UNL     H6   30   0.245   0.082   0.271
    1UNL     H7   31   0.099   0.259  -0.013
    1UNL     H8   32  -0.105   0.165  -0.142
    1UNL     H9   33  -0.122   0.262   0.011
    1UNL    H10   34  -0.178  -0.212   0.214
    1UNL    H11   35  -0.452  -0.261   0.136
    1UNL    H12   36  -0.624  -0.178  -0.011
    1UNL    H13   37  -0.588   0.086  -0.252
    1UNL    H14   38  -0.373   0.147  -0.158
    1UNL    H15   39   0.025  -0.140   0.309
    1UNL    H16   40   0.185  -0.203   0.124
    1UNL    H17   41   0.064  -0.196   0.019
    1UNL    H18   42   0.266  -0.103  -0.084
    1UNL    H19   43   0.202   0.130  -0.180
    1UNL    H20   44  -0.002   0.058  -0.283
    1UNL    H21   45  -0.033  -0.060  -0.180
    1UNL    H22   46   0.200  -0.054  -0.346
   0.00000   0.00000   0.00000   0.00000   0.00000   0.00000   0.00000   0.00000   0.00000
Generated with MDTraj, t= 15.0
 46
    1UNL     C1    1   0.517  -0.028  -0.054
    1UNL     C2    2   0.446   0.065   0.051
    1UNL     C3    3   0.314   0.051   0.068
    1UNL     C4    4   0.242   0.136   0.166
    1UNL     N1    5   0.093   0.124   0.138
    1UNL     C5    6   0.061   0.168   0.000
    1UNL     C6    7  -0.092   0.180  -0.016
    1UNL     C7    8  -0.160   0.052   0.028
    1UNL     C8    9  -0.102  -0.023   0.124
    1UNL     N2   10  -0.193  -0.125   0.154
    1UNL     C9   11  -0.308  -0.120   0.066
    1UNL    C10   12  -0.424  -0.196   0.047
    1UNL    C11   13  -0.510  -0.148  -0.046
    1UNL    C12   14  -0.500  -0.027  -0.119
    1UNL     O1   15  -0.601   0.003  -0.206
    1UNL    C13   16  -0.384   0.042  -0.104
    1UNL    C14   17  -0.284  -0.005  -0.013
    1UNL    C15   18   0.043  -0.016   0.167
    1UNL     O2   19   0.049  -0.057   0.308
    1UNL    C16   20   0.133  -0.110   0.088
    1UNL    C17   21   0.216  -0.031  -0.018
    1UNL    C18   22   0.129   0.069  -0.099
    1UNL    C19   23   0.028  -0.003  -0.198
    1UNL     O3   24   0.095  -0.108  -0.274
    1UNL     H1   25   0.482  -0.000  -0.155
    1UNL     H2   26   0.629  -0.015  -0.053
    1UNL     H3   27   0.504  -0.129  -0.034
    1UNL     H4   28   0.504   0.150   0.102
    1UNL     H5   29   0.280   0.238   0.173
    1UNL     H6   30   0.256   0.090   0.263
    1UNL     H7   31   0.103   0.264  -0.009
    1UNL     H8   32  -0.120   0.217  -0.120
    1UNL     H9   33  -0.127   0.250   0.056
    1UNL    H10   34  -0.170  -0.212   0.202
    1UNL    H11   35  -0.445  -0.295   0.098
    1UNL    H12   36  -0.605  -0.200  -0.078
    1UNL    H13   37  -0.598   0.101  -0.234
    1UNL    H14   38  -0.366   0.129  -0.157
    1UNL    H15   39  -0.039  -0.051   0.349
    1UNL    H16   40   0.182  -0.178   0.159
    1UNL    H17   41   0.078  -0.194   0.032
    1UNL    H18   42   0.277  -0.094  -0.083
    1UNL    H19   43   0.200   0.130  -0.170
    1UNL    H20   44  -0.037   0.063  -0.258
    1UNL    H21   45  -0.049  -0.044  -0.138
    1UNL    H22   46   0.140  -0.060  -0.352
   0.00000   0.00000   0.00000   0.00000   0.00000   0.00000   0.00000   0.00000   0.00000
Generated with MDTraj, t= 16.0
 46
    1UNL     C1    1   0.521  -0.029  -0.058
    1UNL     C2    2   0.443   0.036   0.055
    1UNL     C3    3   0.312   0.044   0.066
    1UNL     C4    4   0.236   0.133   0.163
    1UNL     N1    5   0.091   0.131   0.133
    1UNL     C5    6   0.062   0.172  -0.006
    1UNL     C6    7  -0.098   0.185  -0.004
    1UNL     C7    8  -0.165   0.071   0.042
    1UNL     C8    9  -0.106  -0.021   0.126
    1UNL     N2   10  -0.181  -0.136   0.132
    1UNL     C9   11  -0.295  -0.116   0.056
    1UNL    C10   12  -0.397  -0.205   0.024
    1UNL    C11   13  -0.500  -0.163  -0.056
    1UNL    C12   14  -0.501  -0.033  -0.110
    1UNL     O1   15  -0.598   0.001  -0.209
    1UNL    C13   16  -0.401   0.056  -0.076
    1UNL    C14   17  -0.292   0.016   0.003
    1UNL    C15   18   0.034  -0.009   0.165
    1UNL     O2   19   0.052  -0.031   0.306
    1UNL    C16   20   0.117  -0.111   0.084
    1UNL    C17   21   0.209  -0.040  -0.014
    1UNL    C18   22   0.130   0.062  -0.097
    1UNL    C19   23   0.032  -0.012  -0.191
    1UNL     O3   24   0.098  -0.111  -0.271
    1UNL     H1   25   0.482   0.000  -0.157
    1UNL     H2   26   0.627   0.013  -0.062
    1UNL     H3   27   0.531  -0.132  -0.057
    1UNL     H4   28   0.493   0.103   0.119
    1UNL     H5   29   0.269   0.235   0.146
    1UNL     H6   30   0.248   0.102   0.268
    1UNL     H7   31   0.108   0.265  -0.019
    1UNL     H8   32  -0.137   0.192  -0.111
    1UNL     H9   33  -0.133   0.271   0.045
    1UNL    H10   34  -0.159  -0.213   0.196
    1UNL    H11   35  -0.392  -0.298   0.066
    1UNL    H12   36  -0.568  -0.234  -0.092
    1UNL    H13   37  -0.588   0.099  -0.236
    1UNL    H14   38  -0.406   0.159  -0.111
    1UNL    H15   39  -0.036  -0.025   0.358
    1UNL    H16   40   0.171  -0.176   0.152
    1UNL    H17   41   0.049  -0.187   0.029
    1UNL    H18   42   0.268  -0.101  -0.083
    1UNL    H19   43   0.205   0.116  -0.168
    1UNL    H20   44  -0.022   0.062  -0.249
    1UNL    H21   45  -0.042  -0.069  -0.137
    1UNL    H22   46   0.140  -0.071  -0.347
   0.00000   0.00000   0.00000   0.00000   0.00000   0.00000   0.00000   0.00000   0.00000
Generated with MDTraj, t= 17.0
 46
    1UNL     C1    1   0.503  -0.041  -0.036
    1UNL     C2    2   0.434   0.050   0.050
    1UNL     C3    3   0.308   0.052   0.071
    1UNL     C4    4   0.229   0.145   0.158
    1UNL     N1    5   0.085   0.127   0.138
    1UNL     C5    6   0.056   0.167  -0.002
    1UNL     C6    7  -0.098   0.186  -0.020
    1UNL     C7    8  -0.159   0.066   0.032
    1UNL     C8    9  -0.104  -0.026   0.119
    1UNL     N2   10  -0.185  -0.132   0.145
    1UNL     C9   11  -0.295  -0.122   0.057
    1UNL    C10   12  -0.408  -0.206   0.032
    1UNL    C11   13  -0.503  -0.157  -0.051
    1UNL    C12   14  -0.490  -0.031  -0.113
    1UNL     O1   15  -0.595   0.009  -0.195
    1UNL    C13   16  -0.383   0.052  -0.092
    1UNL    C14   17  -0.283   0.007  -0.006
    1UNL    C15   18   0.041  -0.015   0.168
    1UNL     O2   19   0.064  -0.041   0.303
    1UNL    C16   20   0.119  -0.112   0.075
    1UNL    C17   21   0.208  -0.031  -0.017
    1UNL    C18   22   0.125   0.070  -0.097
    1UNL    C19   23   0.034  -0.015  -0.190
    1UNL     O3   24   0.098  -0.106  -0.272
    1UNL     H1   25   0.484  -0.017  -0.140
    1UNL     H2   26   0.611  -0.023  -0.018
    1UNL     H3   27   0.473  -0.143  -0.021
    1UNL     H4   28   0.487   0.131   0.095
    1UNL     H5   29   0.245   0.250   0.129
    1UNL     H6   30   0.240   0.119   0.265
    1UNL     H7   31   0.107   0.259  -0.016
    1UNL     H8   32  -0.129   0.210  -0.126
    1UNL     H9   33  -0.136   0.270   0.033
    1UNL    H10   34  -0.159  -0.206   0.209
    1UNL    H11   35  -0.428  -0.300   0.088
    1UNL    H12   36  -0.597  -0.209  -0.061
    1UNL    H13   37  -0.576   0.102  -0.229
    1UNL    H14   38  -0.381   0.155  -0.134
    1UNL    H15   39   0.058  -0.139   0.326
    1UNL    H16   40   0.184  -0.184   0.123
    1UNL    H17   41   0.036  -0.177   0.024
    1UNL    H18   42   0.250  -0.094  -0.096
    1UNL    H19   43   0.198   0.129  -0.165
    1UNL    H20   44  -0.016   0.045  -0.264
    1UNL    H21   45  -0.038  -0.077  -0.133
    1UNL    H22   46   0.153  -0.067  -0.340
   0.00000   0.00000   0.00000   0.00000   0.00000   0.00000   0.00000   0.00000   0.00000
Generated with MDTraj, t= 18.0
 46
    1UNL     C1    1   0.534  -0.036  -0.018
    1UNL     C2    2   0.450   0.051   0.067
    1UNL     C3    3   0.321   0.050   0.070
    1UNL     C4    4   0.238   0.134   0.165
    1UNL     N1    5   0.093   0.121   0.132
    1UNL     C5    6   0.063   0.165  -0.007
    1UNL     C6    7  -0.089   0.176  -0.028
    1UNL     C7    8  -0.165   0.053   0.022
    1UNL     C8    9  -0.106  -0.036   0.104
    1UNL     N2   10  -0.197  -0.133   0.144
    1UNL     C9   11  -0.314  -0.105   0.076
    1UNL    C10   12  -0.425  -0.188   0.067
    1UNL    C11   13  -0.518  -0.152  -0.029
    1UNL    C12   14  -0.510  -0.035  -0.106
    1UNL     O1   15  -0.603  -0.010  -0.202
    1UNL    C13   16  -0.400   0.046  -0.090
    1UNL    C14   17  -0.292   0.007  -0.009
    1UNL    C15   18   0.040  -0.021   0.153
    1UNL     O2   19   0.049  -0.051   0.290
    1UNL    C16   20   0.131  -0.113   0.065
    1UNL    C17   21   0.223  -0.024  -0.023
    1UNL    C18   22   0.136   0.076  -0.104
    1UNL    C19   23   0.038   0.005  -0.203
    1UNL     O3   24   0.102  -0.089  -0.278
    1UNL     H1   25   0.506  -0.022  -0.120
    1UNL     H2   26   0.629   0.015  -0.002
    1UNL     H3   27   0.529  -0.144   0.013
    1UNL     H4   28   0.507   0.128   0.131
    1UNL     H5   29   0.260   0.240   0.153
    1UNL     H6   30   0.245   0.088   0.265
    1UNL     H7   31   0.102   0.263  -0.012
    1UNL     H8   32  -0.128   0.206  -0.127
    1UNL     H9   33  -0.124   0.256   0.033
    1UNL    H10   34  -0.169  -0.224   0.181
    1UNL    H11   35  -0.427  -0.287   0.113
    1UNL    H12   36  -0.608  -0.212  -0.058
    1UNL    H13   37  -0.589   0.074  -0.252
    1UNL    H14   38  -0.389   0.122  -0.158
    1UNL    H15   39  -0.036  -0.023   0.330
    1UNL    H16   40   0.184  -0.182   0.132
    1UNL    H17   41   0.067  -0.172  -0.008
    1UNL    H18   42   0.289  -0.084  -0.083
    1UNL    H19   43   0.219   0.145  -0.148
    1UNL    H20   44  -0.008   0.078  -0.267
    1UNL    H21   45  -0.035  -0.060  -0.148
    1UNL    H22   46   0.182  -0.039  -0.315
   0.00000   0.00000   0.00000   0.00000   0.00000   0.00000   0.00000   0.00000   0.00000
Generated with MDTraj, t= 19.0
 46
    1UNL     C1    1   0.524  -0.025  -0.018
    1UNL     C2    2   0.434   0.040   0.091
    1UNL     C3    3   0.309   0.053   0.072
    1UNL     C4    4   0.227   0.140   0.166
    1UNL     N1    5   0.086   0.119   0.128
    1UNL     C5    6   0.057   0.165  -0.016
    1UNL     C6    7  -0.097   0.166  -0.041
    1UNL     C7    8  -0.163   0.051   0.020
    1UNL     C8    9  -0.109  -0.034   0.115
    1UNL     N2   10  -0.196  -0.131   0.151
    1UNL     C9   11  -0.313  -0.113   0.081
    1UNL    C10   12  -0.438  -0.182   0.076
    1UNL    C11   13  -0.533  -0.142  -0.014
    1UNL    C12   14  -0.516  -0.032  -0.103
    1UNL     O1   15  -0.624  -0.001  -0.186
    1UNL    C13   16  -0.395   0.039  -0.091
    1UNL    C14   17  -0.295  -0.003  -0.001
    1UNL    C15   18   0.037  -0.020   0.149
    1UNL     O2   19   0.059  -0.062   0.287
    1UNL    C16   20   0.120  -0.115   0.055
    1UNL    C17   21   0.224  -0.030  -0.024
    1UNL    C18   22   0.148   0.069  -0.109
    1UNL    C19   23   0.071   0.001  -0.222
    1UNL     O3   24   0.164  -0.074  -0.300
    1UNL     H1   25   0.507   0.024  -0.112
    1UNL     H2   26   0.625  -0.000   0.002
    1UNL     H3   27   0.510  -0.134  -0.043
    1UNL     H4   28   0.476   0.099   0.162
    1UNL     H5   29   0.257   0.244   0.144
    1UNL     H6   30   0.237   0.100   0.269
    1UNL     H7   31   0.082   0.266  -0.026
    1UNL     H8   32  -0.106   0.159  -0.148
    1UNL     H9   33  -0.150   0.257  -0.017
    1UNL    H10   34  -0.181  -0.200   0.224
    1UNL    H11   35  -0.460  -0.261   0.141
    1UNL    H12   36  -0.625  -0.187  -0.010
    1UNL    H13   37  -0.598   0.070  -0.243
    1UNL    H14   38  -0.369   0.121  -0.163
    1UNL    H15   39   0.013   0.007   0.333
    1UNL    H16   40   0.171  -0.192   0.118
    1UNL    H17   41   0.051  -0.156  -0.020
    1UNL    H18   42   0.281  -0.094  -0.091
    1UNL    H19   43   0.218   0.137  -0.171
    1UNL    H20   44   0.032   0.071  -0.291
    1UNL    H21   45  -0.013  -0.061  -0.176
    1UNL    H22   46   0.255  -0.031  -0.317
   0.00000   0.00000   0.00000   0.00000   0.00000   0.00000   0.00000   0.00000   0.00000
Generated with MDTraj, t= 20.0
 46
    1UNL     C1    1   0.524  -0.038   0.005
    1UNL     C2    2   0.434   0.060   0.087
    1UNL     C3    3   0.304   0.053   0.081
    1UNL     C4    4   0.220   0.144   0.166
    1UNL     N1    5   0.075   0.118   0.125
    1UNL     C5    6   0.056   0.159  -0.022
    1UNL     C6    7  -0.090   0.148  -0.064
    1UNL     C7    8  -0.164   0.042   0.012
    1UNL     C8    9  -0.106  -0.041   0.109
    1UNL     N2   10  -0.199  -0.139   0.145
    1UNL     C9   11  -0.316  -0.120   0.078
    1UNL    C10   12  -0.441  -0.179   0.082
    1UNL    C11   13  -0.544  -0.135   0.007
    1UNL    C12   14  -0.528  -0.026  -0.087
    1UNL     O1   15  -0.647   0.012  -0.157
    1UNL    C13   16  -0.403   0.035  -0.097
    1UNL    C14   17  -0.299  -0.005  -0.010
    1UNL    C15   18   0.037  -0.026   0.148
    1UNL     O2   19   0.042  -0.060   0.289
    1UNL    C16   20   0.133  -0.112   0.061
    1UNL    C17   21   0.228  -0.031  -0.026
    1UNL    C18   22   0.156   0.074  -0.116
    1UNL    C19   23   0.100   0.008  -0.239
    1UNL     O3   24   0.205  -0.059  -0.322
    1UNL     H1   25   0.516  -0.022  -0.102
    1UNL     H2   26   0.628  -0.024   0.017
    1UNL     H3   27   0.504  -0.147   0.017
    1UNL     H4   28   0.490   0.148   0.137
    1UNL     H5   29   0.255   0.246   0.146
    1UNL     H6   30   0.247   0.103   0.265
    1UNL     H7   31   0.077   0.262  -0.024
    1UNL     H8   32  -0.104   0.126  -0.166
    1UNL     H9   33  -0.134   0.246  -0.044
    1UNL    H10   34  -0.193  -0.207   0.220
    1UNL    H11   35  -0.458  -0.253   0.166
    1UNL    H12   36  -0.648  -0.172   0.030
    1UNL    H13   37  -0.626   0.076  -0.223
    1UNL    H14   38  -0.391   0.117  -0.164
    1UNL    H15   39  -0.052  -0.074   0.325
    1UNL    H16   40   0.205  -0.164   0.133
    1UNL    H17   41   0.070  -0.178   0.003
    1UNL    H18   42   0.300  -0.098  -0.073
    1UNL    H19   43   0.232   0.149  -0.151
    1UNL    H20   44   0.042   0.075  -0.296
    1UNL    H21   45   0.029  -0.077  -0.208
    1UNL    H22   46   0.288  -0.010  -0.319
   0.00000   0.00000   0.00000   0.00000   0.00000   0.00000   0.00000   0.00000   0.00000
Generated with MDTraj, t= 21.0
 46
    1UNL     C1    1   0.548  -0.026   0.043
    1UNL     C2    2   0.436   0.050   0.124
    1UNL     C3    3   0.314   0.068   0.078
    1UNL     C4    4   0.210   0.136   0.167
    1UNL     N1    5   0.067   0.118   0.110
    1UNL     C5    6   0.052   0.146  -0.036
    1UNL     C6    7  -0.089   0.138  -0.085
    1UNL     C7    8  -0.168   0.036  -0.002
    1UNL     C8    9  -0.109  -0.048   0.087
    1UNL     N2   10  -0.201  -0.144   0.138
    1UNL     C9   11  -0.323  -0.109   0.077
    1UNL    C10   12  -0.443  -0.179   0.092
    1UNL    C11   13  -0.550  -0.127   0.028
    1UNL    C12   14  -0.540  -0.018  -0.066
    1UNL     O1   15  -0.654   0.018  -0.134
    1UNL    C13   16  -0.413   0.036  -0.090
    1UNL    C14   17  -0.303  -0.010  -0.014
    1UNL    C15   18   0.042  -0.031   0.134
    1UNL     O2   19   0.042  -0.058   0.271
    1UNL    C16   20   0.138  -0.119   0.042
    1UNL    C17   21   0.241  -0.019  -0.022
    1UNL    C18   22   0.162   0.077  -0.120
    1UNL    C19   23   0.112   0.010  -0.244
    1UNL     O3   24   0.205  -0.063  -0.322
    1UNL     H1   25   0.533  -0.007  -0.065
    1UNL     H2   26   0.640   0.027   0.065
    1UNL     H3   27   0.553  -0.132   0.059
    1UNL     H4   28   0.474   0.100   0.210
    1UNL     H5   29   0.245   0.239   0.174
    1UNL     H6   30   0.219   0.080   0.262
    1UNL     H7   31   0.073   0.251  -0.047
    1UNL     H8   32  -0.085   0.117  -0.186
    1UNL     H9   33  -0.139   0.232  -0.067
    1UNL    H10   34  -0.194  -0.240   0.172
    1UNL    H11   35  -0.443  -0.258   0.159
    1UNL    H12   36  -0.645  -0.176   0.029
    1UNL    H13   37  -0.631   0.089  -0.193
    1UNL    H14   38  -0.397   0.113  -0.158
    1UNL    H15   39  -0.051  -0.054   0.307
    1UNL    H16   40   0.194  -0.193   0.110
    1UNL    H17   41   0.080  -0.175  -0.027
    1UNL    H18   42   0.314  -0.079  -0.076
    1UNL    H19   43   0.242   0.149  -0.144
    1UNL    H20   44   0.064   0.076  -0.310
    1UNL    H21   45   0.025  -0.063  -0.218
    1UNL    H22   46   0.273   0.001  -0.343
   0.00000   0.00000   0.00000   0.00000   0.00000   0.00000   0.00000   0.00000   0.00000
Generated with MDTraj, t= 22.0
 46
    1UNL     C1    1   0.528  -0.024   0.059
    1UNL     C2    2   0.430   0.063   0.125
    1UNL     C3    3   0.307   0.066   0.088
    1UNL     C4    4   0.198   0.150   0.163
    1UNL     N1    5   0.061   0.112   0.105
    1UNL     C5    6   0.040   0.155  -0.042
    1UNL     C6    7  -0.099   0.135  -0.089
    1UNL     C7    8  -0.167   0.023  -0.010
    1UNL     C8    9  -0.101  -0.065   0.079
    1UNL     N2   10  -0.199  -0.154   0.130
    1UNL     C9   11  -0.318  -0.124   0.072
    1UNL    C10   12  -0.445  -0.180   0.094
    1UNL    C11   13  -0.551  -0.114   0.036
    1UNL    C12   14  -0.531  -0.008  -0.060
    1UNL     O1   15  -0.651   0.041  -0.121
    1UNL    C13   16  -0.402   0.035  -0.092
    1UNL    C14   17  -0.302  -0.015  -0.015
    1UNL    C15   18   0.042  -0.038   0.122
    1UNL     O2   19   0.066  -0.075   0.263
    1UNL    C16   20   0.139  -0.110   0.030
    1UNL    C17   21   0.243  -0.010  -0.030
    1UNL    C18   22   0.157   0.088  -0.128
    1UNL    C19   23   0.109  -0.003  -0.243
    1UNL     O3   24   0.218  -0.073  -0.292
    1UNL     H1   25   0.558   0.019  -0.038
    1UNL     H2   26   0.619  -0.018   0.119
    1UNL     H3   27   0.496  -0.123   0.046
    1UNL     H4   28   0.475   0.143   0.182
    1UNL     H5   29   0.222   0.254   0.137
    1UNL     H6   30   0.206   0.124   0.271
    1UNL     H7   31   0.057   0.261  -0.033
    1UNL     H8   32  -0.103   0.107  -0.190
    1UNL     H9   33  -0.152   0.226  -0.073
    1UNL    H10   34  -0.184  -0.228   0.199
    1UNL    H11   35  -0.453  -0.257   0.171
    1UNL    H12   36  -0.647  -0.143   0.068
    1UNL    H13   37  -0.630   0.114  -0.185
    1UNL    H14   38  -0.390   0.116  -0.168
    1UNL    H15   39  -0.016  -0.057   0.308
    1UNL    H16   40   0.199  -0.175   0.103
    1UNL    H17   41   0.080  -0.175  -0.030
    1UNL    H18   42   0.304  -0.067  -0.100
    1UNL    H19   43   0.232   0.154  -0.167
    1UNL    H20   44   0.062   0.048  -0.324
    1UNL    H21   45   0.022  -0.080  -0.219
    1UNL    H22   46   0.283  -0.008  -0.335
   0.00000   0.00000   0.00000   0.00000   0.00000   0.00000   0.00000   0.00000   0.00000
Generated with MDTraj, t= 23.0
 46
    1UNL     C1    1   0.536  -0.012   0.058
    1UNL     C2    2   0.430   0.070   0.116
    1UNL     C3    3   0.302   0.062   0.088
    1UNL     C4    4   0.198   0.150   0.163
    1UNL     N1    5   0.063   0.111   0.110
    1UNL     C5    6   0.056   0.149  -0.038
    1UNL     C6    7  -0.097   0.136  -0.086
    1UNL     C7    8  -0.162   0.024  -0.020
    1UNL     C8    9  -0.105  -0.063   0.069
    1UNL     N2   10  -0.188  -0.153   0.125
    1UNL     C9   11  -0.313  -0.126   0.066
    1UNL    C10   12  -0.438  -0.175   0.093
    1UNL    C11   13  -0.544  -0.116   0.034
    1UNL    C12   14  -0.535  -0.007  -0.061
    1UNL     O1   15  -0.660   0.039  -0.108
    1UNL    C13   16  -0.408   0.038  -0.089
    1UNL    C14   17  -0.299  -0.020  -0.026
    1UNL    C15   18   0.040  -0.035   0.120
    1UNL     O2   19   0.042  -0.064   0.259
    1UNL    C16   20   0.140  -0.119   0.048
    1UNL    C17   21   0.241  -0.030  -0.018
    1UNL    C18   22   0.170   0.070  -0.114
    1UNL    C19   23   0.113   0.010  -0.239
    1UNL     O3   24   0.200  -0.073  -0.310
    1UNL     H1   25   0.564   0.008  -0.045
    1UNL     H2   26   0.632   0.017   0.107
    1UNL     H3   27   0.526  -0.114   0.071
    1UNL     H4   28   0.470   0.154   0.182
    1UNL     H5   29   0.216   0.258   0.148
    1UNL     H6   30   0.209   0.112   0.267
    1UNL     H7   31   0.076   0.257  -0.053
    1UNL     H8   32  -0.091   0.117  -0.193
    1UNL     H9   33  -0.161   0.219  -0.074
    1UNL    H10   34  -0.169  -0.214   0.206
    1UNL    H11   35  -0.451  -0.252   0.170
    1UNL    H12   36  -0.647  -0.155   0.061
    1UNL    H13   37  -0.632   0.114  -0.172
    1UNL    H14   38  -0.398   0.111  -0.162
    1UNL    H15   39  -0.055  -0.048   0.286
    1UNL    H16   40   0.189  -0.188   0.122
    1UNL    H17   41   0.079  -0.176  -0.022
    1UNL    H18   42   0.323  -0.086  -0.064
    1UNL    H19   43   0.251   0.135  -0.136
    1UNL    H20   44   0.067   0.087  -0.299
    1UNL    H21   45   0.020  -0.059  -0.212
    1UNL    H22   46   0.280  -0.021  -0.345
   0.00000   0.00000   0.00000   0.00000   0.00000   0.00000   0.00000   0.00000   0.00000
Generated with MDTraj, t= 24.0
 46
    1UNL     C1    1   0.540  -0.007   0.020
    1UNL     C2    2   0.439   0.065   0.113
    1UNL     C3    3   0.309   0.058   0.093
    1UNL     C4    4   0.207   0.143   0.160
    1UNL     N1    5   0.073   0.114   0.108
    1UNL     C5    6   0.056   0.155  -0.037
    1UNL     C6    7  -0.095   0.148  -0.071
    1UNL     C7    8  -0.164   0.026  -0.012
    1UNL     C8    9  -0.103  -0.059   0.077
    1UNL     N2   10  -0.195  -0.153   0.130
    1UNL     C9   11  -0.315  -0.117   0.071
    1UNL    C10   12  -0.450  -0.178   0.083
    1UNL    C11   13  -0.555  -0.129   0.007
    1UNL    C12   14  -0.543  -0.013  -0.065
    1UNL     O1   15  -0.660   0.034  -0.126
    1UNL    C13   16  -0.417   0.043  -0.077
    1UNL    C14   17  -0.297  -0.008  -0.019
    1UNL    C15   18   0.040  -0.035   0.128
    1UNL     O2   19   0.042  -0.061   0.264
    1UNL    C16   20   0.147  -0.124   0.056
    1UNL    C17   21   0.246  -0.019  -0.016
    1UNL    C18   22   0.163   0.073  -0.111
    1UNL    C19   23   0.108  -0.009  -0.228
    1UNL     O3   24   0.212  -0.075  -0.300
    1UNL     H1   25   0.523   0.001  -0.084
    1UNL     H2   26   0.635   0.042   0.035
    1UNL     H3   27   0.549  -0.112   0.048
    1UNL     H4   28   0.477   0.130   0.180
    1UNL     H5   29   0.233   0.249   0.143
    1UNL     H6   30   0.206   0.106   0.265
    1UNL     H7   31   0.079   0.265  -0.054
    1UNL     H8   32  -0.132   0.138  -0.176
    1UNL     H9   33  -0.141   0.234  -0.037
    1UNL    H10   34  -0.180  -0.232   0.193
    1UNL    H11   35  -0.465  -0.263   0.141
    1UNL    H12   36  -0.648  -0.170   0.014
    1UNL    H13   37  -0.640   0.118  -0.181
    1UNL    H14   38  -0.412   0.128  -0.143
    1UNL    H15   39  -0.042  -0.023   0.306
    1UNL    H16   40   0.193  -0.181   0.134
    1UNL    H17   41   0.094  -0.195  -0.011
    1UNL    H18   42   0.320  -0.074  -0.075
    1UNL    H19   43   0.223   0.147  -0.155
    1UNL    H20   44   0.040   0.049  -0.292
    1UNL    H21   45   0.039  -0.087  -0.171
    1UNL    H22   46   0.258  -0.013  -0.358
   0.00000   0.00000   0.00000   0.00000   0.00000   0.00000   0.00000   0.00000   0.00000
Generated with MDTraj, t= 25.0
 46
    1UNL     C1    1   0.531   0.005  -0.005
    1UNL     C2    2   0.432   0.072   0.092
    1UNL     C3    3   0.303   0.049   0.083
    1UNL     C4    4   0.215   0.134   0.167
    1UNL     N1    5   0.079   0.112   0.123
    1UNL     C5    6   0.061   0.155  -0.025
    1UNL     C6    7  -0.094   0.155  -0.047
    1UNL     C7    8  -0.163   0.035   0.001
    1UNL     C8    9  -0.111  -0.051   0.098
    1UNL     N2   10  -0.196  -0.144   0.139
    1UNL     C9   11  -0.318  -0.122   0.072
    1UNL    C10   12  -0.444  -0.189   0.074
    1UNL    C11   13  -0.544  -0.133  -0.001
    1UNL    C12   14  -0.523  -0.020  -0.086
    1UNL     O1   15  -0.631   0.031  -0.149
    1UNL    C13   16  -0.402   0.042  -0.093
    1UNL    C14   17  -0.297  -0.006  -0.010
    1UNL    C15   18   0.035  -0.030   0.145
    1UNL     O2   19   0.058  -0.058   0.282
    1UNL    C16   20   0.126  -0.118   0.052
    1UNL    C17   21   0.230  -0.030  -0.024
    1UNL    C18   22   0.155   0.068  -0.112
    1UNL    C19   23   0.094   0.003  -0.238
    1UNL     O3   24   0.185  -0.091  -0.290
    1UNL     H1   25   0.545   0.057  -0.095
    1UNL     H2   26   0.627   0.003   0.042
    1UNL     H3   27   0.497  -0.100  -0.023
    1UNL     H4   28   0.472   0.154   0.162
    1UNL     H5   29   0.241   0.241   0.163
    1UNL     H6   30   0.223   0.088   0.269
    1UNL     H7   31   0.095   0.264  -0.034
    1UNL     H8   32  -0.126   0.186  -0.150
    1UNL     H9   33  -0.143   0.229   0.009
    1UNL    H10   34  -0.198  -0.216   0.212
    1UNL    H11   35  -0.470  -0.268   0.149
    1UNL    H12   36  -0.653  -0.160   0.001
    1UNL    H13   37  -0.601   0.100  -0.215
    1UNL    H14   38  -0.395   0.130  -0.160
    1UNL    H15   39  -0.022  -0.033   0.332
    1UNL    H16   40   0.175  -0.182   0.119
    1UNL    H17   41   0.060  -0.184  -0.011
    1UNL    H18   42   0.294  -0.093  -0.087
    1UNL    H19   43   0.224   0.136  -0.152
    1UNL    H20   44   0.075   0.082  -0.315
    1UNL    H21   45  -0.002  -0.060  -0.213
    1UNL    H22   46   0.261  -0.056  -0.337
   0.00000   0.00000   0.00000   0.00000   0.00000   0.00000   0.00000   0.00000   0.00000
Generated with MDTraj, t= 26.0
 46
    1UNL     C1    1   0.529  -0.009  -0.019
    1UNL     C2    2   0.442   0.074   0.069
    1UNL     C3    3   0.310   0.063   0.073
    1UNL     C4    4   0.228   0.131   0.181
    1UNL     N1    5   0.085   0.112   0.135
    1UNL     C5    6   0.068   0.165  -0.004
    1UNL     C6    7  -0.082   0.173  -0.023
    1UNL     C7    8  -0.159   0.048   0.008
    1UNL     C8    9  -0.102  -0.044   0.093
    1UNL     N2   10  -0.200  -0.135   0.137
    1UNL     C9   11  -0.314  -0.109   0.074
    1UNL    C10   12  -0.435  -0.179   0.073
    1UNL    C11   13  -0.539  -0.140  -0.011
    1UNL    C12   14  -0.521  -0.027  -0.094
    1UNL     O1   15  -0.622   0.002  -0.187
    1UNL    C13   16  -0.402   0.045  -0.097
    1UNL    C14   17  -0.294   0.004  -0.015
    1UNL    C15   18   0.038  -0.034   0.147
    1UNL     O2   19   0.050  -0.066   0.289
    1UNL    C16   20   0.138  -0.124   0.062
    1UNL    C17   21   0.227  -0.030  -0.021
    1UNL    C18   22   0.143   0.067  -0.103
    1UNL    C19   23   0.065  -0.006  -0.212
    1UNL     O3   24   0.137  -0.089  -0.296
    1UNL     H1   25   0.519  -0.002  -0.126
    1UNL     H2   26   0.630   0.017  -0.009
    1UNL     H3   27   0.521  -0.116   0.009
    1UNL     H4   28   0.489   0.135   0.140
    1UNL     H5   29   0.253   0.238   0.193
    1UNL     H6   30   0.240   0.074   0.275
    1UNL     H7   31   0.120   0.268  -0.004
    1UNL     H8   32  -0.102   0.186  -0.132
    1UNL     H9   33  -0.120   0.259   0.022
    1UNL    H10   34  -0.188  -0.211   0.205
    1UNL    H11   35  -0.448  -0.263   0.133
    1UNL    H12   36  -0.623  -0.209  -0.013
    1UNL    H13   37  -0.580   0.051  -0.260
    1UNL    H14   38  -0.390   0.130  -0.154
    1UNL    H15   39  -0.025  -0.021   0.328
    1UNL    H16   40   0.188  -0.192   0.124
    1UNL    H17   41   0.072  -0.187  -0.004
    1UNL    H18   42   0.300  -0.075  -0.089
    1UNL    H19   43   0.223   0.120  -0.146
    1UNL    H20   44   0.013   0.066  -0.283
    1UNL    H21   45  -0.009  -0.079  -0.163
    1UNL    H22   46   0.179  -0.032  -0.368
   0.00000   0.00000   0.00000   0.00000   0.00000   0.00000   0.00000   0.00000   0.00000
Generated with MDTraj, t= 27.0
 46
    1UNL     C1    1   0.522  -0.016  -0.041
    1UNL     C2    2   0.443   0.038   0.071
    1UNL     C3    3   0.313   0.039   0.077
    1UNL     C4    4   0.236   0.128   0.168
    1UNL     N1    5   0.085   0.121   0.137
    1UNL     C5    6   0.055   0.169  -0.000
    1UNL     C6    7  -0.098   0.173  -0.025
    1UNL     C7    8  -0.165   0.052   0.030
    1UNL     C8    9  -0.106  -0.031   0.120
    1UNL     N2   10  -0.193  -0.132   0.155
    1UNL     C9   11  -0.313  -0.116   0.072
    1UNL    C10   12  -0.423  -0.197   0.052
    1UNL    C11   13  -0.518  -0.157  -0.039
    1UNL    C12   14  -0.508  -0.031  -0.109
    1UNL     O1   15  -0.602   0.013  -0.204
    1UNL    C13   16  -0.395   0.047  -0.093
    1UNL    C14   17  -0.295  -0.004  -0.005
    1UNL    C15   18   0.047  -0.020   0.160
    1UNL     O2   19   0.058  -0.050   0.306
    1UNL    C16   20   0.132  -0.111   0.061
    1UNL    C17   21   0.225  -0.024  -0.027
    1UNL    C18   22   0.136   0.083  -0.107
    1UNL    C19   23   0.042   0.000  -0.207
    1UNL     O3   24   0.114  -0.095  -0.286
    1UNL     H1   25   0.473  -0.018  -0.141
    1UNL     H2   26   0.605   0.049  -0.055
    1UNL     H3   27   0.560  -0.113  -0.015
    1UNL     H4   28   0.493   0.093   0.148
    1UNL     H5   29   0.267   0.231   0.144
    1UNL     H6   30   0.253   0.096   0.272
    1UNL     H7   31   0.091   0.279  -0.009
    1UNL     H8   32  -0.116   0.197  -0.131
    1UNL     H9   33  -0.135   0.257   0.032
    1UNL    H10   34  -0.176  -0.220   0.206
    1UNL    H11   35  -0.432  -0.292   0.105
    1UNL    H12   36  -0.601  -0.216  -0.060
    1UNL    H13   37  -0.563   0.064  -0.274
    1UNL    H14   38  -0.382   0.147  -0.143
    1UNL    H15   39   0.034   0.025   0.365
    1UNL    H16   40   0.186  -0.184   0.117
    1UNL    H17   41   0.061  -0.177   0.008
    1UNL    H18   42   0.268  -0.083  -0.108
    1UNL    H19   43   0.199   0.142  -0.163
    1UNL    H20   44  -0.018   0.071  -0.273
    1UNL    H21   45  -0.027  -0.071  -0.157
    1UNL    H22   46   0.163  -0.040  -0.357
   0.00000   0.00000   0.00000   0.00000   0.00000   0.00000   0.00000   0.00000   0.00000
Generated with MDTraj, t= 28.0
 46
    1UNL     C1    1   0.511  -0.046  -0.050
    1UNL     C2    2   0.440   0.049   0.043
    1UNL     C3    3   0.305   0.055   0.057
    1UNL     C4    4   0.238   0.135   0.165
    1UNL     N1    5   0.085   0.129   0.144
    1UNL     C5    6   0.056   0.168   0.006
    1UNL     C6    7  -0.097   0.187  -0.018
    1UNL     C7    8  -0.172   0.067   0.038
    1UNL     C8    9  -0.102  -0.018   0.131
    1UNL     N2   10  -0.179  -0.135   0.145
    1UNL     C9   11  -0.296  -0.118   0.065
    1UNL    C10   12  -0.398  -0.204   0.033
    1UNL    C11   13  -0.494  -0.159  -0.053
    1UNL    C12   14  -0.494  -0.037  -0.118
    1UNL     O1   15  -0.597   0.001  -0.202
    1UNL    C13   16  -0.394   0.054  -0.084
    1UNL    C14   17  -0.295   0.013   0.006
    1UNL    C15   18   0.042  -0.013   0.167
    1UNL     O2   19   0.045  -0.060   0.300
    1UNL    C16   20   0.116  -0.117   0.079
    1UNL    C17   21   0.206  -0.033  -0.016
    1UNL    C18   22   0.125   0.069  -0.096
    1UNL    C19   23   0.031   0.001  -0.203
    1UNL     O3   24   0.109  -0.094  -0.285
    1UNL     H1   25   0.520  -0.005  -0.154
    1UNL     H2   26   0.612  -0.057  -0.012
    1UNL     H3   27   0.466  -0.139  -0.044
    1UNL     H4   28   0.504   0.101   0.121
    1UNL     H5   29   0.265   0.241   0.160
    1UNL     H6   30   0.268   0.091   0.261
    1UNL     H7   31   0.098   0.276   0.001
    1UNL     H8   32  -0.113   0.189  -0.125
    1UNL     H9   33  -0.128   0.285   0.026
    1UNL    H10   34  -0.156  -0.207   0.215
    1UNL    H11   35  -0.401  -0.295   0.092
    1UNL    H12   36  -0.591  -0.218  -0.070
    1UNL    H13   37  -0.573   0.066  -0.268
    1UNL    H14   38  -0.379   0.150  -0.132
    1UNL    H15   39   0.005   0.009   0.364
    1UNL    H16   40   0.172  -0.188   0.140
    1UNL    H17   41   0.046  -0.184   0.031
    1UNL    H18   42   0.259  -0.101  -0.082
    1UNL    H19   43   0.199   0.121  -0.148
    1UNL    H20   44  -0.014   0.076  -0.277
    1UNL    H21   45  -0.049  -0.048  -0.148
    1UNL    H22   46   0.197  -0.054  -0.300
   0.00000   0.00000   0.00000   0.00000   0.00000   0.00000   0.00000   0.00000   0.00000
Generated with MDTraj, t= 29.0
 46
    1UNL     C1    1   0.519  -0.049  -0.041
    1UNL     C2    2   0.449   0.042   0.056
    1UNL     C3    3   0.312   0.042   0.071
    1UNL     C4    4   0.246   0.132   0.172
    1UNL     N1    5   0.093   0.132   0.138
    1UNL     C5    6   0.059   0.176  -0.002
    1UNL     C6    7  -0.101   0.184  -0.011
    1UNL     C7    8  -0.162   0.065   0.041
    1UNL     C8    9  -0.108  -0.022   0.128
    1UNL     N2   10  -0.181  -0.136   0.134
    1UNL     C9   11  -0.299  -0.116   0.058
    1UNL    C10   12  -0.411  -0.199   0.033
    1UNL    C11   13  -0.509  -0.165  -0.054
    1UNL    C12   14  -0.493  -0.036  -0.114
    1UNL     O1   15  -0.597  -0.008  -0.206
    1UNL    C13   16  -0.386   0.047  -0.095
    1UNL    C14   17  -0.285   0.003  -0.006
    1UNL    C15   18   0.040  -0.008   0.168
    1UNL     O2   19   0.062  -0.047   0.305
    1UNL    C16   20   0.124  -0.111   0.084
    1UNL    C17   21   0.208  -0.033  -0.020
    1UNL    C18   22   0.121   0.076  -0.100
    1UNL    C19   23   0.011   0.002  -0.192
    1UNL     O3   24   0.081  -0.081  -0.288
    1UNL     H1   25   0.491  -0.043  -0.146
    1UNL     H2   26   0.628  -0.034  -0.052
    1UNL     H3   27   0.516  -0.149  -0.008
    1UNL     H4   28   0.510   0.096   0.115
    1UNL     H5   29   0.286   0.231   0.152
    1UNL     H6   30   0.262   0.106   0.277
    1UNL     H7   31   0.091   0.287  -0.003
    1UNL     H8   32  -0.110   0.200  -0.115
    1UNL     H9   33  -0.140   0.276   0.042
    1UNL    H10   34  -0.150  -0.222   0.180
    1UNL    H11   35  -0.413  -0.296   0.075
    1UNL    H12   36  -0.593  -0.221  -0.074
    1UNL    H13   37  -0.584   0.081  -0.247
    1UNL    H14   38  -0.367   0.133  -0.150
    1UNL    H15   39   0.055   0.037   0.358
    1UNL    H16   40   0.198  -0.164   0.146
    1UNL    H17   41   0.066  -0.192   0.051
    1UNL    H18   42   0.266  -0.104  -0.079
    1UNL    H19   43   0.187   0.127  -0.162
    1UNL    H20   44  -0.058   0.078  -0.244
    1UNL    H21   45  -0.048  -0.071  -0.141
    1UNL    H22   46   0.154  -0.042  -0.334
   0.00000   0.00000   0.00000   0.00000   0.00000   0.00000   0.00000   0.00000   0.00000
Generated with MDTraj, t= 30.0
 46
    1UNL     C1    1   0.524  -0.047  -0.035
    1UNL     C2    2   0.445   0.039   0.065
    1UNL     C3    3   0.311   0.056   0.060
    1UNL     C4    4   0.232   0.131   0.165
    1UNL     N1    5   0.083   0.133   0.141
    1UNL     C5    6   0.053   0.166   0.000
    1UNL     C6    7  -0.105   0.179  -0.020
    1UNL     C7    8  -0.172   0.063   0.040
    1UNL     C8    9  -0.102  -0.028   0.119
    1UNL     N2   10  -0.189  -0.136   0.141
    1UNL     C9   11  -0.307  -0.118   0.078
    1UNL    C10   12  -0.417  -0.200   0.050
    1UNL    C11   13  -0.506  -0.160  -0.048
    1UNL    C12   14  -0.495  -0.037  -0.119
    1UNL     O1   15  -0.588   0.001  -0.209
    1UNL    C13   16  -0.389   0.047  -0.090
    1UNL    C14   17  -0.296   0.009   0.007
    1UNL    C15   18   0.039  -0.013   0.161
    1UNL     O2   19   0.069  -0.057   0.295
    1UNL    C16   20   0.124  -0.105   0.068
    1UNL    C17   21   0.215  -0.023  -0.029
    1UNL    C18   22   0.132   0.077  -0.104
    1UNL    C19   23   0.036   0.001  -0.195
    1UNL     O3   24   0.096  -0.089  -0.284
    1UNL     H1   25   0.485  -0.049  -0.133
    1UNL     H2   26   0.628  -0.017  -0.046
    1UNL     H3   27   0.531  -0.150   0.004
    1UNL     H4   28   0.501   0.076   0.159
    1UNL     H5   29   0.263   0.234   0.175
    1UNL     H6   30   0.246   0.084   0.263
    1UNL     H7   31   0.087   0.275  -0.010
    1UNL     H8   32  -0.126   0.188  -0.123
    1UNL     H9   33  -0.132   0.276   0.033
    1UNL    H10   34  -0.158  -0.219   0.191
    1UNL    H11   35  -0.442  -0.294   0.104
    1UNL    H12   36  -0.589  -0.224  -0.076
    1UNL    H13   37  -0.600   0.103  -0.214
    1UNL    H14   38  -0.375   0.145  -0.144
    1UNL    H15   39   0.045   0.024   0.345
    1UNL    H16   40   0.195  -0.171   0.121
    1UNL    H17   41   0.061  -0.175   0.023
    1UNL    H18   42   0.249  -0.095  -0.105
    1UNL    H19   43   0.197   0.131  -0.167
    1UNL    H20   44  -0.025   0.072  -0.264
    1UNL    H21   45  -0.031  -0.047  -0.131
    1UNL    H22   46   0.159  -0.036  -0.341
   0.00000   0.00000   0.00000   0.00000   0.00000   0.00000   0.00000   0.00000   0.00000
Generated with MDTraj, t= 31.0
 46
    1UNL     C1    1   0.528  -0.033  -0.030
    1UNL     C2    2   0.443   0.053   0.060
    1UNL     C3    3   0.306   0.047   0.072
    1UNL     C4    4   0.230   0.129   0.174
    1UNL     N1    5   0.085   0.122   0.140
    1UNL     C5    6   0.058   0.173   0.000
    1UNL     C6    7  -0.096   0.178  -0.033
    1UNL     C7    8  -0.166   0.070   0.040
    1UNL     C8    9  -0.106  -0.032   0.109
    1UNL     N2   10  -0.186  -0.134   0.139
    1UNL     C9   11  -0.306  -0.111   0.073
    1UNL    C10   12  -0.420  -0.194   0.066
    1UNL    C11   13  -0.514  -0.158  -0.024
    1UNL    C12   14  -0.509  -0.042  -0.106
    1UNL     O1   15  -0.607   0.002  -0.198
    1UNL    C13   16  -0.395   0.042  -0.095
    1UNL    C14   17  -0.291   0.009   0.001
    1UNL    C15   18   0.038  -0.025   0.156
    1UNL     O2   19   0.050  -0.068   0.294
    1UNL    C16   20   0.116  -0.116   0.062
    1UNL    C17   21   0.213  -0.022  -0.021
    1UNL    C18   22   0.134   0.084  -0.106
    1UNL    C19   23   0.057   0.008  -0.225
    1UNL     O3   24   0.130  -0.095  -0.290
    1UNL     H1   25   0.571   0.018  -0.111
    1UNL     H2   26   0.608  -0.066   0.034
    1UNL     H3   27   0.480  -0.133  -0.051
    1UNL     H4   28   0.492   0.125   0.122
    1UNL     H5   29   0.261   0.233   0.172
    1UNL     H6   30   0.234   0.104   0.280
    1UNL     H7   31   0.094   0.280  -0.010
    1UNL     H8   32  -0.111   0.181  -0.139
    1UNL     H9   33  -0.130   0.279   0.009
    1UNL    H10   34  -0.169  -0.210   0.204
    1UNL    H11   35  -0.436  -0.275   0.131
    1UNL    H12   36  -0.609  -0.216  -0.046
    1UNL    H13   37  -0.616   0.104  -0.205
    1UNL    H14   38  -0.401   0.131  -0.149
    1UNL    H15   39  -0.003  -0.015   0.353
    1UNL    H16   40   0.167  -0.192   0.123
    1UNL    H17   41   0.056  -0.170  -0.004
    1UNL    H18   42   0.266  -0.085  -0.092
    1UNL    H19   43   0.214   0.141  -0.150
    1UNL    H20   44   0.008   0.086  -0.294
    1UNL    H21   45  -0.021  -0.052  -0.192
    1UNL    H22   46   0.207  -0.047  -0.335
   0.00000   0.00000   0.00000   0.00000   0.00000   0.00000   0.00000   0.00000   0.00000
Generated with MDTraj, t= 32.0
 46
    1UNL     C1    1   0.527  -0.012  -0.013
    1UNL     C2    2   0.451   0.048   0.093
    1UNL     C3    3   0.317   0.052   0.081
    1UNL     C4    4   0.231   0.134   0.169
    1UNL     N1    5   0.091   0.121   0.135
    1UNL     C5    6   0.060   0.156  -0.006
    1UNL     C6    7  -0.098   0.159  -0.040
    1UNL     C7    8  -0.167   0.039   0.007
    1UNL     C8    9  -0.106  -0.029   0.108
    1UNL     N2   10  -0.192  -0.138   0.126
    1UNL     C9   11  -0.316  -0.121   0.071
    1UNL    C10   12  -0.443  -0.186   0.076
    1UNL    C11   13  -0.542  -0.137  -0.006
    1UNL    C12   14  -0.527  -0.028  -0.092
    1UNL     O1   15  -0.633   0.014  -0.175
    1UNL    C13   16  -0.403   0.030  -0.102
    1UNL    C14   17  -0.298  -0.009  -0.019
    1UNL    C15   18   0.042  -0.025   0.153
    1UNL     O2   19   0.054  -0.058   0.290
    1UNL    C16   20   0.132  -0.113   0.066
    1UNL    C17   21   0.235  -0.030  -0.023
    1UNL    C18   22   0.147   0.070  -0.106
    1UNL    C19   23   0.071   0.000  -0.220
    1UNL     O3   24   0.152  -0.068  -0.311
    1UNL     H1   25   0.505   0.024  -0.113
    1UNL     H2   26   0.628   0.009   0.005
    1UNL     H3   27   0.531  -0.123  -0.001
    1UNL     H4   28   0.498   0.101   0.172
    1UNL     H5   29   0.250   0.240   0.168
    1UNL     H6   30   0.244   0.110   0.273
    1UNL     H7   31   0.092   0.263  -0.005
    1UNL     H8   32  -0.107   0.156  -0.150
    1UNL     H9   33  -0.150   0.253  -0.003
    1UNL    H10   34  -0.155  -0.209   0.188
    1UNL    H11   35  -0.455  -0.275   0.140
    1UNL    H12   36  -0.628  -0.190  -0.002
    1UNL    H13   37  -0.606   0.097  -0.222
    1UNL    H14   38  -0.382   0.117  -0.162
    1UNL    H15   39   0.010   0.008   0.351
    1UNL    H16   40   0.183  -0.185   0.128
    1UNL    H17   41   0.071  -0.169  -0.001
    1UNL    H18   42   0.294  -0.086  -0.096
    1UNL    H19   43   0.224   0.134  -0.148
    1UNL    H20   44   0.015   0.068  -0.295
    1UNL    H21   45  -0.003  -0.059  -0.182
    1UNL    H22   46   0.200  -0.017  -0.377
   0.00000   0.00000   0.00000   0.00000   0.00000   0.00000   0.00000   0.00000   0.00000
Generated with MDTraj, t= 33.0
 46
    1UNL     C1    1   0.538  -0.010   0.017
    1UNL     C2    2   0.441   0.068   0.093
    1UNL     C3    3   0.307   0.067   0.079
    1UNL     C4    4   0.210   0.138   0.166
    1UNL     N1    5   0.071   0.115   0.120
    1UNL     C5    6   0.063   0.161  -0.028
    1UNL     C6    7  -0.088   0.142  -0.063
    1UNL     C7    8  -0.155   0.027  -0.003
    1UNL     C8    9  -0.104  -0.057   0.092
    1UNL     N2   10  -0.194  -0.143   0.137
    1UNL     C9   11  -0.321  -0.116   0.071
    1UNL    C10   12  -0.443  -0.185   0.079
    1UNL    C11   13  -0.549  -0.138   0.010
    1UNL    C12   14  -0.531  -0.022  -0.079
    1UNL     O1   15  -0.640   0.037  -0.151
    1UNL    C13   16  -0.411   0.045  -0.075
    1UNL    C14   17  -0.300  -0.002  -0.005
    1UNL    C15   18   0.039  -0.036   0.136
    1UNL     O2   19   0.043  -0.077   0.272
    1UNL    C16   20   0.138  -0.118   0.058
    1UNL    C17   21   0.231  -0.023  -0.020
    1UNL    C18   22   0.149   0.073  -0.114
    1UNL    C19   23   0.090  -0.001  -0.236
    1UNL     O3   24   0.193  -0.073  -0.302
    1UNL     H1   25   0.513  -0.029  -0.091
    1UNL     H2   26   0.631   0.044   0.018
    1UNL     H3   27   0.567  -0.101   0.066
    1UNL     H4   28   0.474   0.143   0.175
    1UNL     H5   29   0.226   0.244   0.176
    1UNL     H6   30   0.214   0.108   0.270
    1UNL     H7   31   0.087   0.268  -0.031
    1UNL     H8   32  -0.109   0.140  -0.175
    1UNL     H9   33  -0.147   0.233  -0.031
    1UNL    H10   34  -0.168  -0.216   0.202
    1UNL    H11   35  -0.447  -0.264   0.151
    1UNL    H12   36  -0.655  -0.175   0.018
    1UNL    H13   37  -0.606   0.093  -0.220
    1UNL    H14   38  -0.411   0.131  -0.143
    1UNL    H15   39  -0.002  -0.005   0.328
    1UNL    H16   40   0.203  -0.181   0.113
    1UNL    H17   41   0.086  -0.183  -0.013
    1UNL    H18   42   0.302  -0.082  -0.079
    1UNL    H19   43   0.221   0.144  -0.158
    1UNL    H20   44   0.031   0.074  -0.297
    1UNL    H21   45   0.022  -0.074  -0.215
    1UNL    H22   46   0.253  -0.017  -0.354
   0.00000   0.00000   0.00000   0.00000   0.00000   0.00000   0.00000   0.00000   0.00000
Generated with MDTraj, t= 34.0
 46
    1UNL     C1    1   0.540   0.006   0.036
    1UNL     C2    2   0.430   0.076   0.108
    1UNL     C3    3   0.299   0.056   0.085
    1UNL     C4    4   0.204   0.129   0.160
    1UNL     N1    5   0.065   0.107   0.110
    1UNL     C5    6   0.054   0.152  -0.027
    1UNL     C6    7  -0.087   0.147  -0.082
    1UNL     C7    8  -0.166   0.024  -0.024
    1UNL     C8    9  -0.101  -0.050   0.073
    1UNL     N2   10  -0.195  -0.140   0.128
    1UNL     C9   11  -0.320  -0.123   0.069
    1UNL    C10   12  -0.448  -0.185   0.095
    1UNL    C11   13  -0.547  -0.126   0.022
    1UNL    C12   14  -0.537  -0.010  -0.056
    1UNL     O1   15  -0.650   0.039  -0.118
    1UNL    C13   16  -0.410   0.045  -0.081
    1UNL    C14   17  -0.301  -0.017  -0.024
    1UNL    C15   18   0.035  -0.038   0.128
    1UNL     O2   19   0.047  -0.078   0.266
    1UNL    C16   20   0.133  -0.121   0.047
    1UNL    C17   21   0.236  -0.025  -0.026
    1UNL    C18   22   0.162   0.082  -0.114
    1UNL    C19   23   0.117   0.005  -0.237
    1UNL     O3   24   0.208  -0.087  -0.297
    1UNL     H1   25   0.588   0.072  -0.040
    1UNL     H2   26   0.614  -0.028   0.112
    1UNL     H3   27   0.511  -0.083  -0.009
    1UNL     H4   28   0.445   0.150   0.176
    1UNL     H5   29   0.221   0.235   0.174
    1UNL     H6   30   0.199   0.095   0.263
    1UNL     H7   31   0.078   0.257  -0.034
    1UNL     H8   32  -0.104   0.144  -0.196
    1UNL     H9   33  -0.148   0.236  -0.054
    1UNL    H10   34  -0.168  -0.183   0.216
    1UNL    H11   35  -0.458  -0.281   0.144
    1UNL    H12   36  -0.644  -0.171   0.032
    1UNL    H13   37  -0.618   0.080  -0.197
    1UNL    H14   38  -0.399   0.123  -0.146
    1UNL    H15   39   0.005   0.000   0.317
    1UNL    H16   40   0.189  -0.182   0.110
    1UNL    H17   41   0.092  -0.192  -0.030
    1UNL    H18   42   0.310  -0.082  -0.084
    1UNL    H19   43   0.238   0.159  -0.142
    1UNL    H20   44   0.087   0.075  -0.317
    1UNL    H21   45   0.030  -0.039  -0.206
    1UNL    H22   46   0.291  -0.032  -0.318
   0.00000   0.00000   0.00000   0.00000   0.00000   0.00000   0.00000   0.00000   0.00000
Generated with MDTraj, t= 35.0
 46
    1UNL     C1    1   0.556   0.003   0.050
    1UNL     C2    2   0.438   0.071   0.122
    1UNL     C3    3   0.305   0.071   0.091
    1UNL     C4    4   0.201   0.143   0.166
    1UNL     N1    5   0.066   0.109   0.105
    1UNL     C5    6   0.047   0.144  -0.038
    1UNL     C6    7  -0.097   0.133  -0.073
    1UNL     C7    8  -0.164   0.012  -0.018
    1UNL     C8    9  -0.102  -0.071   0.065
    1UNL     N2   10  -0.196  -0.149   0.114
    1UNL     C9   11  -0.318  -0.129   0.053
    1UNL    C10   12  -0.443  -0.172   0.092
    1UNL    C11   13  -0.556  -0.116   0.042
    1UNL    C12   14  -0.543  -0.005  -0.053
    1UNL     O1   15  -0.657   0.049  -0.113
    1UNL    C13   16  -0.420   0.047  -0.084
    1UNL    C14   17  -0.306  -0.021  -0.033
    1UNL    C15   18   0.040  -0.038   0.121
    1UNL     O2   19   0.050  -0.069   0.261
    1UNL    C16   20   0.147  -0.117   0.050
    1UNL    C17   21   0.245  -0.018  -0.019
    1UNL    C18   22   0.160   0.068  -0.119
    1UNL    C19   23   0.106  -0.014  -0.234
    1UNL     O3   24   0.215  -0.068  -0.305
    1UNL     H1   25   0.627   0.076   0.010
    1UNL     H2   26   0.610  -0.070   0.117
    1UNL     H3   27   0.528  -0.056  -0.035
    1UNL     H4   28   0.457   0.152   0.201
    1UNL     H5   29   0.206   0.251   0.163
    1UNL     H6   30   0.203   0.123   0.273
    1UNL     H7   31   0.067   0.248  -0.044
    1UNL     H8   32  -0.105   0.134  -0.189
    1UNL     H9   33  -0.158   0.225  -0.048
    1UNL    H10   34  -0.192  -0.222   0.185
    1UNL    H11   35  -0.441  -0.248   0.170
    1UNL    H12   36  -0.649  -0.157   0.065
    1UNL    H13   37  -0.631   0.084  -0.200
    1UNL    H14   38  -0.423   0.136  -0.153
    1UNL    H15   39  -0.007  -0.010   0.314
    1UNL    H16   40   0.206  -0.168   0.119
    1UNL    H17   41   0.110  -0.194  -0.023
    1UNL    H18   42   0.322  -0.078  -0.073
    1UNL    H19   43   0.234   0.142  -0.162
    1UNL    H20   44   0.052   0.053  -0.297
    1UNL    H21   45   0.041  -0.096  -0.213
    1UNL    H22   46   0.272  -0.004  -0.358
   0.00000   0.00000   0.00000   0.00000   0.00000   0.00000   0.00000   0.00000   0.00000
Generated with MDTraj, t= 36.0
 46
    1UNL     C1    1   0.538  -0.002   0.053
    1UNL     C2    2   0.439   0.079   0.124
    1UNL     C3    3   0.307   0.070   0.089
    1UNL     C4    4   0.201   0.140   0.165
    1UNL     N1    5   0.063   0.102   0.104
    1UNL     C5    6   0.042   0.149  -0.041
    1UNL     C6    7  -0.096   0.133  -0.090
    1UNL     C7    8  -0.166   0.018  -0.020
    1UNL     C8    9  -0.099  -0.063   0.077
    1UNL     N2   10  -0.193  -0.144   0.134
    1UNL     C9   11  -0.313  -0.128   0.078
    1UNL    C10   12  -0.446  -0.182   0.085
    1UNL    C11   13  -0.556  -0.126   0.020
    1UNL    C12   14  -0.535  -0.007  -0.059
    1UNL     O1   15  -0.647   0.051  -0.112
    1UNL    C13   16  -0.403   0.040  -0.081
    1UNL    C14   17  -0.301  -0.018  -0.014
    1UNL    C15   18   0.039  -0.039   0.127
    1UNL     O2   19   0.048  -0.066   0.266
    1UNL    C16   20   0.144  -0.119   0.050
    1UNL    C17   21   0.240  -0.023  -0.017
    1UNL    C18   22   0.160   0.073  -0.120
    1UNL    C19   23   0.108   0.006  -0.252
    1UNL     O3   24   0.203  -0.078  -0.320
    1UNL     H1   25   0.637   0.036   0.060
    1UNL     H2   26   0.539  -0.108   0.090
    1UNL     H3   27   0.517  -0.004  -0.058
    1UNL     H4   28   0.467   0.156   0.195
    1UNL     H5   29   0.218   0.248   0.160
    1UNL     H6   30   0.201   0.118   0.271
    1UNL     H7   31   0.059   0.251  -0.026
    1UNL     H8   32  -0.098   0.127  -0.204
    1UNL     H9   33  -0.158   0.226  -0.069
    1UNL    H10   34  -0.180  -0.215   0.205
    1UNL    H11   35  -0.461  -0.264   0.150
    1UNL    H12   36  -0.656  -0.176   0.044
    1UNL    H13   37  -0.616   0.125  -0.173
    1UNL    H14   38  -0.384   0.128  -0.138
    1UNL    H15   39  -0.039  -0.066   0.308
    1UNL    H16   40   0.197  -0.184   0.117
    1UNL    H17   41   0.107  -0.181  -0.034
    1UNL    H18   42   0.319  -0.079  -0.075
    1UNL    H19   43   0.243   0.147  -0.142
    1UNL    H20   44   0.068   0.069  -0.326
    1UNL    H21   45   0.024  -0.058  -0.220
    1UNL    H22   46   0.284  -0.032  -0.340
   0.00000   0.00000   0.00000   0.00000   0.00000   0.00000   0.00000   0.00000   0.00000
Generated with MDTraj, t= 37.0
 46
    1UNL     C1    1   0.541  -0.019   0.027
    1UNL     C2    2   0.437   0.058   0.096
    1UNL     C3    3   0.301   0.057   0.080
    1UNL     C4    4   0.210   0.141   0.164
    1UNL     N1    5   0.068   0.123   0.116
    1UNL     C5    6   0.051   0.155  -0.026
    1UNL     C6    7  -0.099   0.155  -0.065
    1UNL     C7    8  -0.168   0.031  -0.006
    1UNL     C8    9  -0.106  -0.050   0.085
    1UNL     N2   10  -0.191  -0.148   0.126
    1UNL     C9   11  -0.314  -0.112   0.074
    1UNL    C10   12  -0.437  -0.176   0.089
    1UNL    C11   13  -0.550  -0.126   0.030
    1UNL    C12   14  -0.542  -0.022  -0.070
    1UNL     O1   15  -0.654   0.024  -0.136
    1UNL    C13   16  -0.418   0.033  -0.096
    1UNL    C14   17  -0.306  -0.011  -0.014
    1UNL    C15   18   0.041  -0.027   0.130
    1UNL     O2   19   0.048  -0.072   0.260
    1UNL    C16   20   0.141  -0.117   0.051
    1UNL    C17   21   0.237  -0.022  -0.023
    1UNL    C18   22   0.160   0.080  -0.116
    1UNL    C19   23   0.108   0.003  -0.235
    1UNL     O3   24   0.213  -0.079  -0.294
    1UNL     H1   25   0.609  -0.061   0.097
    1UNL     H2   26   0.501  -0.108  -0.027
    1UNL     H3   27   0.601   0.045  -0.045
    1UNL     H4   28   0.475   0.132   0.159
    1UNL     H5   29   0.235   0.248   0.168
    1UNL     H6   30   0.220   0.102   0.266
    1UNL     H7   31   0.075   0.255  -0.041
    1UNL     H8   32  -0.105   0.166  -0.176
    1UNL     H9   33  -0.143   0.254  -0.023
    1UNL    H10   34  -0.181  -0.227   0.191
    1UNL    H11   35  -0.444  -0.264   0.156
    1UNL    H12   36  -0.643  -0.166   0.041
    1UNL    H13   37  -0.628   0.099  -0.200
    1UNL    H14   38  -0.408   0.107  -0.172
    1UNL    H15   39  -0.035  -0.058   0.319
    1UNL    H16   40   0.207  -0.174   0.121
    1UNL    H17   41   0.091  -0.188  -0.014
    1UNL    H18   42   0.315  -0.085  -0.074
    1UNL    H19   43   0.231   0.161  -0.154
    1UNL    H20   44   0.077   0.074  -0.305
    1UNL    H21   45   0.021  -0.064  -0.214
    1UNL    H22   46   0.286  -0.015  -0.306
   0.00000   0.00000   0.00000   0.00000   0.00000   0.00000   0.00000   0.00000   0.00000
Generated with MDTraj, t= 38.0
 46
    1UNL     C1    1   0.536  -0.018   0.013
    1UNL     C2    2   0.439   0.038   0.108
    1UNL     C3    3   0.306   0.050   0.084
    1UNL     C4    4   0.218   0.137   0.171
    1UNL     N1    5   0.081   0.122   0.116
    1UNL     C5    6   0.063   0.167  -0.032
    1UNL     C6    7  -0.092   0.162  -0.066
    1UNL     C7    8  -0.166   0.046   0.007
    1UNL     C8    9  -0.101  -0.040   0.094
    1UNL     N2   10  -0.201  -0.137   0.143
    1UNL     C9   11  -0.321  -0.115   0.082
    1UNL    C10   12  -0.443  -0.182   0.084
    1UNL    C11   13  -0.544  -0.142   0.004
    1UNL    C12   14  -0.528  -0.034  -0.087
    1UNL     O1   15  -0.641   0.008  -0.160
    1UNL    C13   16  -0.404   0.032  -0.093
    1UNL    C14   17  -0.298  -0.003  -0.007
    1UNL    C15   18   0.043  -0.023   0.140
    1UNL     O2   19   0.064  -0.055   0.282
    1UNL    C16   20   0.128  -0.121   0.051
    1UNL    C17   21   0.236  -0.033  -0.021
    1UNL    C18   22   0.156   0.071  -0.110
    1UNL    C19   23   0.083   0.008  -0.230
    1UNL     O3   24   0.167  -0.065  -0.316
    1UNL     H1   25   0.641   0.008   0.040
    1UNL     H2   26   0.534  -0.127   0.015
    1UNL     H3   27   0.524   0.017  -0.093
    1UNL     H4   28   0.480   0.103   0.195
    1UNL     H5   29   0.248   0.244   0.164
    1UNL     H6   30   0.222   0.109   0.278
    1UNL     H7   31   0.089   0.269  -0.039
    1UNL     H8   32  -0.114   0.150  -0.171
    1UNL     H9   33  -0.134   0.266  -0.030
    1UNL    H10   34  -0.167  -0.218   0.196
    1UNL    H11   35  -0.454  -0.264   0.147
    1UNL    H12   36  -0.646  -0.183   0.015
    1UNL    H13   37  -0.625   0.094  -0.212
    1UNL    H14   38  -0.381   0.117  -0.161
    1UNL    H15   39  -0.008  -0.019   0.340
    1UNL    H16   40   0.180  -0.189   0.127
    1UNL    H17   41   0.082  -0.189  -0.017
    1UNL    H18   42   0.302  -0.098  -0.086
    1UNL    H19   43   0.231   0.137  -0.164
    1UNL    H20   44   0.033   0.076  -0.291
    1UNL    H21   45   0.006  -0.062  -0.188
    1UNL    H22   46   0.246  -0.010  -0.350
   0.00000   0.00000   0.00000   0.00000   0.00000   0.00000   0.00000   0.00000   0.00000
Generated with MDTraj, t= 39.0
 46
    1UNL     C1    1   0.514  -0.050  -0.004
    1UNL     C2    2   0.451   0.060   0.064
    1UNL     C3    3   0.313   0.054   0.064
    1UNL     C4    4   0.233   0.144   0.154
    1UNL     N1    5   0.087   0.121   0.136
    1UNL     C5    6   0.059   0.161  -0.014
    1UNL     C6    7  -0.101   0.162  -0.045
    1UNL     C7    8  -0.166   0.051   0.025
    1UNL     C8    9  -0.112  -0.041   0.115
    1UNL     N2   10  -0.197  -0.143   0.146
    1UNL     C9   11  -0.319  -0.113   0.080
    1UNL    C10   12  -0.436  -0.188   0.078
    1UNL    C11   13  -0.524  -0.150  -0.018
    1UNL    C12   14  -0.512  -0.037  -0.101
    1UNL     O1   15  -0.609   0.007  -0.192
    1UNL    C13   16  -0.397   0.041  -0.093
    1UNL    C14   17  -0.301  -0.002  -0.001
    1UNL    C15   18   0.037  -0.022   0.151
    1UNL     O2   19   0.055  -0.057   0.295
    1UNL    C16   20   0.134  -0.108   0.068
    1UNL    C17   21   0.223  -0.027  -0.029
    1UNL    C18   22   0.140   0.075  -0.108
    1UNL    C19   23   0.061   0.011  -0.221
    1UNL     O3   24   0.147  -0.064  -0.293
    1UNL     H1   25   0.629  -0.047  -0.010
    1UNL     H2   26   0.494  -0.137   0.058
    1UNL     H3   27   0.476  -0.073  -0.104
    1UNL     H4   28   0.501   0.128   0.121
    1UNL     H5   29   0.259   0.253   0.155
    1UNL     H6   30   0.254   0.103   0.254
    1UNL     H7   31   0.094   0.263  -0.014
    1UNL     H8   32  -0.101   0.151  -0.151
    1UNL     H9   33  -0.153   0.263  -0.020
    1UNL    H10   34  -0.181  -0.225   0.206
    1UNL    H11   35  -0.445  -0.279   0.142
    1UNL    H12   36  -0.620  -0.204  -0.032
    1UNL    H13   37  -0.585   0.090  -0.241
    1UNL    H14   38  -0.376   0.122  -0.153
    1UNL    H15   39   0.019   0.019   0.338
    1UNL    H16   40   0.201  -0.176   0.132
    1UNL    H17   41   0.078  -0.178   0.012
    1UNL    H18   42   0.275  -0.099  -0.101
    1UNL    H19   43   0.219   0.140  -0.153
    1UNL    H20   44   0.021   0.079  -0.285
    1UNL    H21   45  -0.018  -0.060  -0.181
    1UNL    H22   46   0.222  -0.008  -0.332
   0.00000   0.00000   0.00000   0.00000   0.00000   0.00000   0.00000   0.00000   0.00000
Generated with MDTraj, t= 40.0
 46
    1UNL     C1    1   0.526  -0.031  -0.035
    1UNL     C2    2   0.434   0.026   0.067
    1UNL     C3    3   0.299   0.039   0.068
    1UNL     C4    4   0.232   0.125   0.174
    1UNL     N1    5   0.089   0.129   0.140
    1UNL     C5    6   0.062   0.168  -0.004
    1UNL     C6    7  -0.092   0.186  -0.035
    1UNL     C7    8  -0.164   0.079   0.035
    1UNL     C8    9  -0.106  -0.007   0.124
    1UNL     N2   10  -0.182  -0.124   0.140
    1UNL     C9   11  -0.296  -0.112   0.065
    1UNL    C10   12  -0.410  -0.194   0.055
    1UNL    C11   13  -0.512  -0.162  -0.032
    1UNL    C12   14  -0.501  -0.048  -0.107
    1UNL     O1   15  -0.608  -0.013  -0.192
    1UNL    C13   16  -0.392   0.036  -0.098
    1UNL    C14   17  -0.284   0.015  -0.009
    1UNL    C15   18   0.035  -0.015   0.160
    1UNL     O2   19   0.056  -0.047   0.297
    1UNL    C16   20   0.109  -0.120   0.062
    1UNL    C17   21   0.215  -0.033  -0.024
    1UNL    C18   22   0.130   0.073  -0.104
    1UNL    C19   23   0.040   0.006  -0.205
    1UNL     O3   24   0.111  -0.087  -0.285
    1UNL     H1   25   0.620  -0.068   0.018
    1UNL     H2   26   0.485  -0.125  -0.076
    1UNL     H3   27   0.552   0.036  -0.115
    1UNL     H4   28   0.478   0.082   0.153
    1UNL     H5   29   0.270   0.231   0.168
    1UNL     H6   30   0.249   0.086   0.277
    1UNL     H7   31   0.109   0.266  -0.020
    1UNL     H8   32  -0.124   0.184  -0.139
    1UNL     H9   33  -0.119   0.289   0.008
    1UNL    H10   34  -0.151  -0.202   0.199
    1UNL    H11   35  -0.417  -0.278   0.118
    1UNL    H12   36  -0.593  -0.222  -0.050
    1UNL    H13   37  -0.599   0.068  -0.242
    1UNL    H14   38  -0.379   0.125  -0.163
    1UNL    H15   39   0.025   0.030   0.348
    1UNL    H16   40   0.142  -0.214   0.117
    1UNL    H17   41   0.043  -0.163  -0.010
    1UNL    H18   42   0.277  -0.101  -0.092
    1UNL    H19   43   0.208   0.125  -0.161
    1UNL    H20   44  -0.006   0.071  -0.267
    1UNL    H21   45  -0.038  -0.057  -0.152
    1UNL    H22   46   0.168  -0.034  -0.340
   0.00000   0.00000   0.00000   0.00000   0.00000   0.00000   0.00000   0.00000   0.00000
Generated with MDTraj, t= 41.0
 46
    1UNL     C1    1   0.521  -0.038  -0.049
    1UNL     C2    2   0.452   0.041   0.052
    1UNL     C3    3   0.317   0.047   0.059
    1UNL     C4    4   0.247   0.135   0.160
    1UNL     N1    5   0.097   0.125   0.139
    1UNL     C5    6   0.056   0.171   0.004
    1UNL     C6    7  -0.105   0.182  -0.020
    1UNL     C7    8  -0.166   0.062   0.038
    1UNL     C8    9  -0.109  -0.027   0.129
    1UNL     N2   10  -0.187  -0.137   0.144
    1UNL     C9   11  -0.305  -0.114   0.069
    1UNL    C10   12  -0.412  -0.198   0.039
    1UNL    C11   13  -0.503  -0.158  -0.051
    1UNL    C12   14  -0.501  -0.036  -0.120
    1UNL     O1   15  -0.592  -0.001  -0.216
    1UNL    C13   16  -0.395   0.046  -0.095
    1UNL    C14   17  -0.300   0.011   0.011
    1UNL    C15   18   0.039  -0.017   0.170
    1UNL     O2   19   0.055  -0.041   0.305
    1UNL    C16   20   0.126  -0.106   0.082
    1UNL    C17   21   0.216  -0.027  -0.020
    1UNL    C18   22   0.127   0.079  -0.102
    1UNL    C19   23   0.032  -0.000  -0.193
    1UNL     O3   24   0.090  -0.106  -0.274
    1UNL     H1   25   0.621  -0.071  -0.014
    1UNL     H2   26   0.464  -0.136  -0.051
    1UNL     H3   27   0.522   0.005  -0.150
    1UNL     H4   28   0.502   0.110   0.122
    1UNL     H5   29   0.282   0.237   0.130
    1UNL     H6   30   0.266   0.111   0.268
    1UNL     H7   31   0.095   0.274  -0.012
    1UNL     H8   32  -0.131   0.197  -0.128
    1UNL     H9   33  -0.154   0.273   0.025
    1UNL    H10   34  -0.164  -0.222   0.197
    1UNL    H11   35  -0.431  -0.294   0.086
    1UNL    H12   36  -0.596  -0.217  -0.079
    1UNL    H13   37  -0.573   0.085  -0.248
    1UNL    H14   38  -0.377   0.137  -0.148
    1UNL    H15   39   0.026   0.031   0.371
    1UNL    H16   40   0.196  -0.156   0.152
    1UNL    H17   41   0.066  -0.190   0.042
    1UNL    H18   42   0.255  -0.101  -0.098
    1UNL    H19   43   0.187   0.136  -0.170
    1UNL    H20   44  -0.023   0.060  -0.253
    1UNL    H21   45  -0.038  -0.062  -0.128
    1UNL    H22   46   0.148  -0.068  -0.340
   0.00000   0.00000   0.00000   0.00000   0.00000   0.00000   0.00000   0.00000   0.00000
Generated with MDTraj, t= 42.0
 46
    1UNL     C1    1   0.518  -0.031  -0.047
    1UNL     C2    2   0.444   0.059   0.041
    1UNL     C3    3   0.306   0.062   0.062
    1UNL     C4    4   0.232   0.142   0.170
    1UNL     N1    5   0.086   0.134   0.140
    1UNL     C5    6   0.055   0.160  -0.003
    1UNL     C6    7  -0.097   0.182  -0.014
    1UNL     C7    8  -0.165   0.063   0.041
    1UNL     C8    9  -0.102  -0.030   0.129
    1UNL     N2   10  -0.191  -0.133   0.152
    1UNL     C9   11  -0.299  -0.115   0.073
    1UNL    C10   12  -0.409  -0.197   0.035
    1UNL    C11   13  -0.505  -0.154  -0.058
    1UNL    C12   14  -0.483  -0.029  -0.122
    1UNL     O1   15  -0.587   0.007  -0.211
    1UNL    C13   16  -0.377   0.054  -0.089
    1UNL    C14   17  -0.286   0.008   0.006
    1UNL    C15   18   0.038  -0.015   0.169
    1UNL     O2   19   0.056  -0.056   0.307
    1UNL    C16   20   0.132  -0.105   0.082
    1UNL    C17   21   0.212  -0.032  -0.018
    1UNL    C18   22   0.120   0.055  -0.104
    1UNL    C19   23   0.019  -0.015  -0.203
    1UNL     O3   24   0.083  -0.117  -0.278
    1UNL     H1   25   0.620  -0.007  -0.073
    1UNL     H2   26   0.529  -0.123   0.015
    1UNL     H3   27   0.462  -0.057  -0.143
    1UNL     H4   28   0.503   0.113   0.104
    1UNL     H5   29   0.260   0.251   0.171
    1UNL     H6   30   0.255   0.087   0.264
    1UNL     H7   31   0.106   0.263  -0.003
    1UNL     H8   32  -0.137   0.202  -0.118
    1UNL     H9   33  -0.135   0.272   0.038
    1UNL    H10   34  -0.151  -0.214   0.201
    1UNL    H11   35  -0.422  -0.295   0.084
    1UNL    H12   36  -0.581  -0.217  -0.091
    1UNL    H13   37  -0.578   0.094  -0.250
    1UNL    H14   38  -0.358   0.145  -0.139
    1UNL    H15   39   0.030   0.022   0.364
    1UNL    H16   40   0.194  -0.162   0.151
    1UNL    H17   41   0.069  -0.181   0.026
    1UNL    H18   42   0.283  -0.087  -0.089
    1UNL    H19   43   0.189   0.107  -0.165
    1UNL    H20   44  -0.017   0.054  -0.270
    1UNL    H21   45  -0.070  -0.058  -0.150
    1UNL    H22   46   0.133  -0.076  -0.356
   0.00000   0.00000   0.00000   0.00000   0.00000   0.00000   0.00000   0.00000   0.00000
Generated with MDTraj, t= 43.0
 46
    1UNL     C1    1   0.518  -0.008  -0.056
    1UNL     C2    2   0.442   0.041   0.059
    1UNL     C3    3   0.309   0.041   0.068
    1UNL     C4    4   0.245   0.117   0.181
    1UNL     N1    5   0.097   0.129   0.137
    1UNL     C5    6   0.060   0.170  -0.002
    1UNL     C6    7  -0.093   0.194  -0.016
    1UNL     C7    8  -0.168   0.069   0.039
    1UNL     C8    9  -0.109  -0.022   0.116
    1UNL     N2   10  -0.185  -0.130   0.132
    1UNL     C9   11  -0.302  -0.112   0.055
    1UNL    C10   12  -0.412  -0.193   0.046
    1UNL    C11   13  -0.508  -0.154  -0.041
    1UNL    C12   14  -0.503  -0.029  -0.112
    1UNL     O1   15  -0.605  -0.015  -0.203
    1UNL    C13   16  -0.396   0.053  -0.094
    1UNL    C14   17  -0.291   0.010  -0.011
    1UNL    C15   18   0.044  -0.006   0.163
    1UNL     O2   19   0.050  -0.047   0.306
    1UNL    C16   20   0.126  -0.113   0.081
    1UNL    C17   21   0.212  -0.029  -0.020
    1UNL    C18   22   0.129   0.067  -0.100
    1UNL    C19   23   0.038  -0.017  -0.198
    1UNL     O3   24   0.100  -0.119  -0.275
    1UNL     H1   25   0.622  -0.032  -0.040
    1UNL     H2   26   0.472  -0.106  -0.078
    1UNL     H3   27   0.502   0.057  -0.150
    1UNL     H4   28   0.493   0.095   0.148
    1UNL     H5   29   0.290   0.218   0.176
    1UNL     H6   30   0.243   0.065   0.280
    1UNL     H7   31   0.108   0.273  -0.018
    1UNL     H8   32  -0.112   0.228  -0.124
    1UNL     H9   33  -0.129   0.280   0.039
    1UNL    H10   34  -0.165  -0.211   0.190
    1UNL    H11   35  -0.411  -0.291   0.080
    1UNL    H12   36  -0.594  -0.220  -0.050
    1UNL    H13   37  -0.586   0.069  -0.253
    1UNL    H14   38  -0.388   0.157  -0.134
    1UNL    H15   39   0.047   0.034   0.358
    1UNL    H16   40   0.182  -0.177   0.147
    1UNL    H17   41   0.053  -0.188   0.031
    1UNL    H18   42   0.263  -0.107  -0.085
    1UNL    H19   43   0.194   0.121  -0.163
    1UNL    H20   44  -0.021   0.045  -0.259
    1UNL    H21   45  -0.038  -0.070  -0.137
    1UNL    H22   46   0.167  -0.081  -0.343
   0.00000   0.00000   0.00000   0.00000   0.00000   0.00000   0.00000   0.00000   0.00000
Generated with MDTraj, t= 44.0
 46
    1UNL     C1    1   0.527  -0.024  -0.041
    1UNL     C2    2   0.447   0.060   0.052
    1UNL     C3    3   0.314   0.059   0.070
    1UNL     C4    4   0.235   0.137   0.165
    1UNL     N1    5   0.081   0.119   0.135
    1UNL     C5    6   0.058   0.162  -0.001
    1UNL     C6    7  -0.090   0.171  -0.031
    1UNL     C7    8  -0.162   0.039   0.015
    1UNL     C8    9  -0.105  -0.037   0.122
    1UNL     N2   10  -0.198  -0.133   0.153
    1UNL     C9   11  -0.312  -0.121   0.073
    1UNL    C10   12  -0.430  -0.195   0.057
    1UNL    C11   13  -0.524  -0.146  -0.035
    1UNL    C12   14  -0.509  -0.032  -0.113
    1UNL     O1   15  -0.615   0.021  -0.191
    1UNL    C13   16  -0.394   0.046  -0.095
    1UNL    C14   17  -0.293  -0.006  -0.011
    1UNL    C15   18   0.035  -0.021   0.163
    1UNL     O2   19   0.048  -0.051   0.304
    1UNL    C16   20   0.129  -0.110   0.076
    1UNL    C17   21   0.227  -0.024  -0.018
    1UNL    C18   22   0.142   0.071  -0.104
    1UNL    C19   23   0.054  -0.006  -0.212
    1UNL     O3   24   0.129  -0.099  -0.284
    1UNL     H1   25   0.635   0.005  -0.053
    1UNL     H2   26   0.524  -0.122   0.008
    1UNL     H3   27   0.473  -0.037  -0.137
    1UNL     H4   28   0.499   0.121   0.114
    1UNL     H5   29   0.253   0.244   0.146
    1UNL     H6   30   0.261   0.099   0.267
    1UNL     H7   31   0.099   0.271   0.004
    1UNL     H8   32  -0.118   0.189  -0.141
    1UNL     H9   33  -0.129   0.260   0.016
    1UNL    H10   34  -0.188  -0.194   0.233
    1UNL    H11   35  -0.438  -0.287   0.123
    1UNL    H12   36  -0.613  -0.212  -0.046
    1UNL    H13   37  -0.582   0.106  -0.236
    1UNL    H14   38  -0.393   0.136  -0.146
    1UNL    H15   39  -0.005   0.020   0.340
    1UNL    H16   40   0.185  -0.167   0.150
    1UNL    H17   41   0.077  -0.192   0.014
    1UNL    H18   42   0.284  -0.105  -0.074
    1UNL    H19   43   0.203   0.133  -0.164
    1UNL    H20   44   0.008   0.059  -0.284
    1UNL    H21   45  -0.034  -0.054  -0.168
    1UNL    H22   46   0.203  -0.053  -0.325
   0.00000   0.00000   0.00000   0.00000   0.00000   0.00000   0.00000   0.00000   0.00000
Generated with MDTraj, t= 45.0
 46
    1UNL     C1    1   0.542  -0.004   0.004
    1UNL     C2    2   0.439   0.061   0.089
    1UNL     C3    3   0.306   0.049   0.077
    1UNL     C4    4   0.218   0.138   0.168
    1UNL     N1    5   0.080   0.120   0.120
    1UNL     C5    6   0.062   0.157  -0.024
    1UNL     C6    7  -0.094   0.158  -0.051
    1UNL     C7    8  -0.161   0.043   0.005
    1UNL     C8    9  -0.104  -0.035   0.102
    1UNL     N2   10  -0.191  -0.131   0.139
    1UNL     C9   11  -0.313  -0.111   0.067
    1UNL    C10   12  -0.433  -0.180   0.076
    1UNL    C11   13  -0.540  -0.141  -0.000
    1UNL    C12   14  -0.520  -0.022  -0.085
    1UNL     O1   15  -0.617   0.009  -0.176
    1UNL    C13   16  -0.402   0.050  -0.081
    1UNL    C14   17  -0.297   0.003  -0.003
    1UNL    C15   18   0.040  -0.026   0.146
    1UNL     O2   19   0.050  -0.058   0.284
    1UNL    C16   20   0.126  -0.121   0.059
    1UNL    C17   21   0.228  -0.042  -0.018
    1UNL    C18   22   0.144   0.060  -0.109
    1UNL    C19   23   0.067  -0.012  -0.219
    1UNL     O3   24   0.155  -0.084  -0.307
    1UNL     H1   25   0.628   0.058  -0.039
    1UNL     H2   26   0.589  -0.083   0.064
    1UNL     H3   27   0.499  -0.059  -0.076
    1UNL     H4   28   0.477   0.126   0.170
    1UNL     H5   29   0.248   0.241   0.149
    1UNL     H6   30   0.217   0.113   0.277
    1UNL     H7   31   0.103   0.266  -0.031
    1UNL     H8   32  -0.105   0.169  -0.165
    1UNL     H9   33  -0.145   0.245  -0.013
    1UNL    H10   34  -0.184  -0.218   0.192
    1UNL    H11   35  -0.435  -0.263   0.138
    1UNL    H12   36  -0.630  -0.191   0.004
    1UNL    H13   37  -0.576   0.088  -0.227
    1UNL    H14   38  -0.402   0.145  -0.137
    1UNL    H15   39  -0.033  -0.030   0.333
    1UNL    H16   40   0.172  -0.208   0.108
    1UNL    H17   41   0.050  -0.160  -0.014
    1UNL    H18   42   0.305  -0.098  -0.076
    1UNL    H19   43   0.216   0.117  -0.160
    1UNL    H20   44   0.008   0.054  -0.281
    1UNL    H21   45  -0.009  -0.082  -0.190
    1UNL    H22   46   0.216  -0.022  -0.346
   0.00000   0.00000   0.00000   0.00000   0.00000   0.00000   0.00000   0.00000   0.00000
Generated with MDTraj, t= 46.0
 46
    1UNL     C1    1   0.542  -0.014   0.022
    1UNL     C2    2   0.444   0.059   0.100
    1UNL     C3    3   0.312   0.046   0.087
    1UNL     C4    4   0.222   0.139   0.158
    1UNL     N1    5   0.082   0.121   0.116
    1UNL     C5    6   0.061   0.161  -0.027
    1UNL     C6    7  -0.089   0.152  -0.066
    1UNL     C7    8  -0.168   0.029  -0.014
    1UNL     C8    9  -0.107  -0.041   0.086
    1UNL     N2   10  -0.200  -0.138   0.134
    1UNL     C9   11  -0.320  -0.119   0.071
    1UNL    C10   12  -0.447  -0.175   0.095
    1UNL    C11   13  -0.555  -0.126   0.023
    1UNL    C12   14  -0.539  -0.021  -0.073
    1UNL     O1   15  -0.651   0.017  -0.148
    1UNL    C13   16  -0.415   0.032  -0.098
    1UNL    C14   17  -0.302  -0.013  -0.025
    1UNL    C15   18   0.036  -0.029   0.132
    1UNL     O2   19   0.061  -0.061   0.268
    1UNL    C16   20   0.128  -0.115   0.043
    1UNL    C17   21   0.233  -0.025  -0.017
    1UNL    C18   22   0.161   0.081  -0.112
    1UNL    C19   23   0.096   0.002  -0.223
    1UNL     O3   24   0.192  -0.081  -0.286
    1UNL     H1   25   0.650  -0.009   0.056
    1UNL     H2   26   0.515  -0.120   0.037
    1UNL     H3   27   0.531   0.003  -0.081
    1UNL     H4   28   0.484   0.118   0.184
    1UNL     H5   29   0.250   0.242   0.139
    1UNL     H6   30   0.230   0.114   0.264
    1UNL     H7   31   0.089   0.274  -0.024
    1UNL     H8   32  -0.105   0.146  -0.176
    1UNL     H9   33  -0.135   0.244  -0.030
    1UNL    H10   34  -0.180  -0.206   0.207
    1UNL    H11   35  -0.460  -0.263   0.159
    1UNL    H12   36  -0.644  -0.196   0.026
    1UNL    H13   37  -0.621   0.100  -0.196
    1UNL    H14   38  -0.405   0.108  -0.174
    1UNL    H15   39  -0.015  -0.046   0.333
    1UNL    H16   40   0.177  -0.178   0.122
    1UNL    H17   41   0.081  -0.182  -0.029
    1UNL    H18   42   0.300  -0.078  -0.086
    1UNL    H19   43   0.232   0.138  -0.163
    1UNL    H20   44   0.044   0.060  -0.298
    1UNL    H21   45   0.020  -0.064  -0.191
    1UNL    H22   46   0.272  -0.025  -0.309
   0.00000   0.00000   0.00000   0.00000   0.00000   0.00000   0.00000   0.00000   0.00000
Generated with MDTraj, t= 47.0
 46
    1UNL     C1    1   0.534  -0.027   0.050
    1UNL     C2    2   0.430   0.061   0.107
    1UNL     C3    3   0.301   0.065   0.082
    1UNL     C4    4   0.193   0.147   0.160
    1UNL     N1    5   0.064   0.120   0.105
    1UNL     C5    6   0.056   0.152  -0.043
    1UNL     C6    7  -0.089   0.130  -0.087
    1UNL     C7    8  -0.158   0.019  -0.015
    1UNL     C8    9  -0.100  -0.070   0.075
    1UNL     N2   10  -0.190  -0.143   0.140
    1UNL     C9   11  -0.318  -0.125   0.080
    1UNL    C10   12  -0.450  -0.174   0.103
    1UNL    C11   13  -0.553  -0.125   0.024
    1UNL    C12   14  -0.536  -0.019  -0.064
    1UNL     O1   15  -0.643   0.040  -0.131
    1UNL    C13   16  -0.410   0.036  -0.082
    1UNL    C14   17  -0.300  -0.018  -0.009
    1UNL    C15   18   0.039  -0.025   0.122
    1UNL     O2   19   0.045  -0.057   0.268
    1UNL    C16   20   0.139  -0.118   0.048
    1UNL    C17   21   0.242  -0.021  -0.025
    1UNL    C18   22   0.163   0.075  -0.119
    1UNL    C19   23   0.112   0.010  -0.243
    1UNL     O3   24   0.209  -0.069  -0.309
    1UNL     H1   25   0.596  -0.071   0.131
    1UNL     H2   26   0.485  -0.116   0.008
    1UNL     H3   27   0.591   0.021  -0.029
    1UNL     H4   28   0.464   0.112   0.188
    1UNL     H5   29   0.199   0.255   0.157
    1UNL     H6   30   0.190   0.117   0.265
    1UNL     H7   31   0.071   0.266  -0.061
    1UNL     H8   32  -0.094   0.124  -0.193
    1UNL     H9   33  -0.147   0.218  -0.053
    1UNL    H10   34  -0.179  -0.196   0.226
    1UNL    H11   35  -0.468  -0.254   0.178
    1UNL    H12   36  -0.650  -0.166   0.023
    1UNL    H13   37  -0.620   0.132  -0.145
    1UNL    H14   38  -0.404   0.112  -0.153
    1UNL    H15   39  -0.037  -0.042   0.317
    1UNL    H16   40   0.177  -0.184   0.132
    1UNL    H17   41   0.087  -0.182  -0.020
    1UNL    H18   42   0.309  -0.089  -0.077
    1UNL    H19   43   0.235   0.143  -0.157
    1UNL    H20   44   0.078   0.084  -0.314
    1UNL    H21   45   0.031  -0.051  -0.224
    1UNL    H22   46   0.294  -0.012  -0.313
   0.00000   0.00000   0.00000   0.00000   0.00000   0.00000   0.00000   0.00000   0.00000
Generated with MDTraj, t= 48.0
 46
    1UNL     C1    1   0.533  -0.018   0.081
    1UNL     C2    2   0.431   0.065   0.135
    1UNL     C3    3   0.309   0.058   0.089
    1UNL     C4    4   0.202   0.143   0.157
    1UNL     N1    5   0.070   0.113   0.103
    1UNL     C5    6   0.051   0.149  -0.050
    1UNL     C6    7  -0.099   0.137  -0.084
    1UNL     C7    8  -0.168   0.021  -0.017
    1UNL     C8    9  -0.105  -0.052   0.080
    1UNL     N2   10  -0.195  -0.144   0.127
    1UNL     C9   11  -0.317  -0.118   0.073
    1UNL    C10   12  -0.445  -0.166   0.106
    1UNL    C11   13  -0.556  -0.120   0.037
    1UNL    C12   14  -0.543  -0.016  -0.058
    1UNL     O1   15  -0.660   0.032  -0.116
    1UNL    C13   16  -0.419   0.036  -0.085
    1UNL    C14   17  -0.305  -0.008  -0.020
    1UNL    C15   18   0.038  -0.031   0.121
    1UNL     O2   19   0.058  -0.063   0.262
    1UNL    C16   20   0.144  -0.122   0.043
    1UNL    C17   21   0.241  -0.026  -0.023
    1UNL    C18   22   0.168   0.067  -0.130
    1UNL    C19   23   0.122  -0.016  -0.250
    1UNL     O3   24   0.222  -0.054  -0.339
    1UNL     H1   25   0.630   0.026   0.073
    1UNL     H2   26   0.541  -0.103   0.149
    1UNL     H3   27   0.495  -0.057  -0.018
    1UNL     H4   28   0.456   0.129   0.229
    1UNL     H5   29   0.221   0.249   0.156
    1UNL     H6   30   0.196   0.118   0.262
    1UNL     H7   31   0.066   0.261  -0.056
    1UNL     H8   32  -0.118   0.115  -0.183
    1UNL     H9   33  -0.158   0.228  -0.058
    1UNL    H10   34  -0.174  -0.225   0.187
    1UNL    H11   35  -0.458  -0.248   0.166
    1UNL    H12   36  -0.653  -0.162   0.062
    1UNL    H13   37  -0.656   0.120  -0.149
    1UNL    H14   38  -0.405   0.120  -0.159
    1UNL    H15   39  -0.011  -0.003   0.298
    1UNL    H16   40   0.194  -0.184   0.124
    1UNL    H17   41   0.104  -0.188  -0.029
    1UNL    H18   42   0.320  -0.088  -0.065
    1UNL    H19   43   0.245   0.132  -0.161
    1UNL    H20   44   0.053   0.043  -0.308
    1UNL    H21   45   0.081  -0.101  -0.216
    1UNL    H22   46   0.282   0.022  -0.355
   0.00000   0.00000   0.00000   0.00000   0.00000   0.00000   0.00000   0.00000   0.00000
Generated with MDTraj, t= 49.0
 46
    1UNL     C1    1   0.543  -0.034   0.051
    1UNL     C2    2   0.433   0.049   0.118
    1UNL     C3    3   0.307   0.069   0.089
    1UNL     C4    4   0.197   0.156   0.158
    1UNL     N1    5   0.063   0.113   0.109
    1UNL     C5    6   0.049   0.149  -0.037
    1UNL     C6    7  -0.095   0.131  -0.089
    1UNL     C7    8  -0.167   0.022  -0.016
    1UNL     C8    9  -0.113  -0.055   0.079
    1UNL     N2   10  -0.196  -0.151   0.130
    1UNL     C9   11  -0.319  -0.124   0.071
    1UNL    C10   12  -0.448  -0.168   0.105
    1UNL    C11   13  -0.557  -0.111   0.047
    1UNL    C12   14  -0.541  -0.019  -0.064
    1UNL     O1   15  -0.660   0.032  -0.120
    1UNL    C13   16  -0.415   0.032  -0.093
    1UNL    C14   17  -0.306  -0.026  -0.022
    1UNL    C15   18   0.034  -0.035   0.127
    1UNL     O2   19   0.052  -0.060   0.265
    1UNL    C16   20   0.141  -0.113   0.043
    1UNL    C17   21   0.241  -0.020  -0.021
    1UNL    C18   22   0.160   0.081  -0.125
    1UNL    C19   23   0.127   0.016  -0.262
    1UNL     O3   24   0.234  -0.069  -0.302
    1UNL     H1   25   0.623   0.018   0.005
    1UNL     H2   26   0.589  -0.100   0.124
    1UNL     H3   27   0.491  -0.103  -0.023
    1UNL     H4   28   0.468   0.101   0.198
    1UNL     H5   29   0.208   0.262   0.146
    1UNL     H6   30   0.207   0.144   0.265
    1UNL     H7   31   0.059   0.258  -0.045
    1UNL     H8   32  -0.102   0.119  -0.194
    1UNL     H9   33  -0.155   0.220  -0.065
    1UNL    H10   34  -0.180  -0.208   0.213
    1UNL    H11   35  -0.465  -0.253   0.180
    1UNL    H12   36  -0.661  -0.140   0.066
    1UNL    H13   37  -0.642   0.118  -0.160
    1UNL    H14   38  -0.397   0.108  -0.162
    1UNL    H15   39  -0.001   0.002   0.325
    1UNL    H16   40   0.199  -0.185   0.105
    1UNL    H17   41   0.083  -0.170  -0.028
    1UNL    H18   42   0.314  -0.072  -0.080
    1UNL    H19   43   0.224   0.161  -0.157
    1UNL    H20   44   0.112   0.087  -0.342
    1UNL    H21   45   0.051  -0.048  -0.248
    1UNL    H22   46   0.320  -0.028  -0.305
   0.00000   0.00000   0.00000   0.00000   0.00000   0.00000   0.00000   0.00000   0.00000
Generated with MDTraj, t= 50.0
 46
    1UNL     C1    1   0.539  -0.019   0.042
    1UNL     C2    2   0.429   0.059   0.116
    1UNL     C3    3   0.306   0.059   0.081
    1UNL     C4    4   0.206   0.136   0.157
    1UNL     N1    5   0.068   0.115   0.110
    1UNL     C5    6   0.048   0.153  -0.039
    1UNL     C6    7  -0.097   0.132  -0.089
    1UNL     C7    8  -0.165   0.030  -0.005
    1UNL     C8    9  -0.097  -0.058   0.089
    1UNL     N2   10  -0.201  -0.129   0.151
    1UNL     C9   11  -0.319  -0.108   0.083
    1UNL    C10   12  -0.442  -0.171   0.099
    1UNL    C11   13  -0.544  -0.127   0.024
    1UNL    C12   14  -0.532  -0.020  -0.069
    1UNL     O1   15  -0.643   0.022  -0.138
    1UNL    C13   16  -0.410   0.041  -0.095
    1UNL    C14   17  -0.307  -0.001  -0.012
    1UNL    C15   18   0.038  -0.038   0.136
    1UNL     O2   19   0.038  -0.079   0.270
    1UNL    C16   20   0.137  -0.118   0.046
    1UNL    C17   21   0.239  -0.024  -0.025
    1UNL    C18   22   0.162   0.078  -0.124
    1UNL    C19   23   0.112   0.004  -0.239
    1UNL     O3   24   0.210  -0.064  -0.323
    1UNL     H1   25   0.525  -0.025  -0.065
    1UNL     H2   26   0.638   0.025   0.055
    1UNL     H3   27   0.537  -0.121   0.085
    1UNL     H4   28   0.459   0.120   0.205
    1UNL     H5   29   0.238   0.239   0.154
    1UNL     H6   30   0.215   0.113   0.262
    1UNL     H7   31   0.059   0.258  -0.052
    1UNL     H8   32  -0.110   0.092  -0.192
    1UNL     H9   33  -0.154   0.221  -0.092
    1UNL    H10   34  -0.180  -0.193   0.228
    1UNL    H11   35  -0.448  -0.258   0.156
    1UNL    H12   36  -0.642  -0.157   0.042
    1UNL    H13   37  -0.628   0.114  -0.175
    1UNL    H14   38  -0.397   0.133  -0.150
    1UNL    H15   39  -0.015  -0.028   0.335
    1UNL    H16   40   0.181  -0.185   0.120
    1UNL    H17   41   0.091  -0.191  -0.025
    1UNL    H18   42   0.316  -0.072  -0.080
    1UNL    H19   43   0.233   0.152  -0.153
    1UNL    H20   44   0.073   0.082  -0.304
    1UNL    H21   45   0.038  -0.060  -0.207
    1UNL    H22   46   0.286  -0.002  -0.333
   0.00000   0.00000   0.00000   0.00000   0.00000   0.00000   0.00000   0.00000   0.00000
Generated with MDTraj, t= 51.0
 46
    1UNL     C1    1   0.559  -0.011   0.019
    1UNL     C2    2   0.442   0.055   0.096
    1UNL     C3    3   0.314   0.048   0.075
    1UNL     C4    4   0.220   0.134   0.162
    1UNL     N1    5   0.080   0.115   0.121
    1UNL     C5    6   0.057   0.157  -0.021
    1UNL     C6    7  -0.089   0.156  -0.063
    1UNL     C7    8  -0.167   0.044   0.011
    1UNL     C8    9  -0.114  -0.041   0.100
    1UNL     N2   10  -0.196  -0.139   0.139
    1UNL     C9   11  -0.320  -0.119   0.073
    1UNL    C10   12  -0.447  -0.174   0.082
    1UNL    C11   13  -0.551  -0.117   0.020
    1UNL    C12   14  -0.531  -0.019  -0.081
    1UNL     O1   15  -0.640   0.009  -0.169
    1UNL    C13   16  -0.406   0.037  -0.090
    1UNL    C14   17  -0.302  -0.013  -0.014
    1UNL    C15   18   0.031  -0.031   0.140
    1UNL     O2   19   0.045  -0.063   0.283
    1UNL    C16   20   0.132  -0.116   0.055
    1UNL    C17   21   0.232  -0.033  -0.026
    1UNL    C18   22   0.146   0.064  -0.113
    1UNL    C19   23   0.083  -0.011  -0.229
    1UNL     O3   24   0.189  -0.060  -0.310
    1UNL     H1   25   0.527  -0.089  -0.054
    1UNL     H2   26   0.616   0.062  -0.040
    1UNL     H3   27   0.621  -0.058   0.092
    1UNL     H4   28   0.471   0.127   0.176
    1UNL     H5   29   0.244   0.238   0.154
    1UNL     H6   30   0.239   0.109   0.264
    1UNL     H7   31   0.087   0.258  -0.027
    1UNL     H8   32  -0.086   0.153  -0.175
    1UNL     H9   33  -0.131   0.249  -0.045
    1UNL    H10   34  -0.170  -0.216   0.201
    1UNL    H11   35  -0.452  -0.264   0.144
    1UNL    H12   36  -0.648  -0.172   0.009
    1UNL    H13   37  -0.627   0.083  -0.237
    1UNL    H14   38  -0.382   0.114  -0.165
    1UNL    H15   39   0.051   0.019   0.336
    1UNL    H16   40   0.181  -0.186   0.120
    1UNL    H17   41   0.074  -0.185  -0.015
    1UNL    H18   42   0.299  -0.091  -0.083
    1UNL    H19   43   0.221   0.132  -0.152
    1UNL    H20   44   0.014   0.050  -0.287
    1UNL    H21   45   0.038  -0.097  -0.190
    1UNL    H22   46   0.238   0.013  -0.364
   0.00000   0.00000   0.00000   0.00000   0.00000   0.00000   0.00000   0.00000   0.00000
Generated with MDTraj, t= 52.0
 46
    1UNL     C1    1   0.513  -0.027  -0.022
    1UNL     C2    2   0.437   0.058   0.074
    1UNL     C3    3   0.311   0.058   0.078
    1UNL     C4    4   0.226   0.133   0.179
    1UNL     N1    5   0.087   0.125   0.132
    1UNL     C5    6   0.060   0.164  -0.015
    1UNL     C6    7  -0.089   0.159  -0.053
    1UNL     C7    8  -0.162   0.042   0.013
    1UNL     C8    9  -0.109  -0.035   0.113
    1UNL     N2   10  -0.196  -0.137   0.144
    1UNL     C9   11  -0.305  -0.123   0.060
    1UNL    C10   12  -0.429  -0.187   0.064
    1UNL    C11   13  -0.533  -0.140  -0.010
    1UNL    C12   14  -0.518  -0.026  -0.093
    1UNL     O1   15  -0.619   0.015  -0.175
    1UNL    C13   16  -0.388   0.039  -0.101
    1UNL    C14   17  -0.292  -0.002  -0.011
    1UNL    C15   18   0.034  -0.023   0.153
    1UNL     O2   19   0.046  -0.061   0.289
    1UNL    C16   20   0.127  -0.109   0.063
    1UNL    C17   21   0.224  -0.027  -0.021
    1UNL    C18   22   0.150   0.076  -0.107
    1UNL    C19   23   0.071   0.009  -0.221
    1UNL     O3   24   0.145  -0.092  -0.280
    1UNL     H1   25   0.519  -0.132   0.015
    1UNL     H2   26   0.458  -0.034  -0.120
    1UNL     H3   27   0.610   0.009  -0.032
    1UNL     H4   28   0.490   0.110   0.145
    1UNL     H5   29   0.269   0.232   0.184
    1UNL     H6   30   0.229   0.084   0.274
    1UNL     H7   31   0.089   0.264  -0.017
    1UNL     H8   32  -0.098   0.156  -0.165
    1UNL     H9   33  -0.130   0.249  -0.026
    1UNL    H10   34  -0.163  -0.196   0.222
    1UNL    H11   35  -0.437  -0.268   0.140
    1UNL    H12   36  -0.627  -0.180   0.009
    1UNL    H13   37  -0.592   0.100  -0.223
    1UNL    H14   38  -0.364   0.124  -0.156
    1UNL    H15   39  -0.039  -0.023   0.328
    1UNL    H16   40   0.178  -0.186   0.117
    1UNL    H17   41   0.060  -0.171  -0.008
    1UNL    H18   42   0.274  -0.096  -0.083
    1UNL    H19   43   0.229   0.139  -0.149
    1UNL    H20   44   0.056   0.073  -0.309
    1UNL    H21   45  -0.019  -0.034  -0.184
    1UNL    H22   46   0.218  -0.062  -0.339
   0.00000   0.00000   0.00000   0.00000   0.00000   0.00000   0.00000   0.00000   0.00000
Generated with MDTraj, t= 53.0
 46
    1UNL     C1    1   0.537  -0.022  -0.028
    1UNL     C2    2   0.450   0.050   0.067
    1UNL     C3    3   0.322   0.050   0.066
    1UNL     C4    4   0.237   0.129   0.168
    1UNL     N1    5   0.092   0.119   0.132
    1UNL     C5    6   0.060   0.161  -0.006
    1UNL     C6    7  -0.097   0.185  -0.022
    1UNL     C7    8  -0.165   0.061   0.034
    1UNL     C8    9  -0.107  -0.032   0.118
    1UNL     N2   10  -0.196  -0.133   0.142
    1UNL     C9   11  -0.312  -0.112   0.063
    1UNL    C10   12  -0.421  -0.194   0.035
    1UNL    C11   13  -0.516  -0.156  -0.049
    1UNL    C12   14  -0.511  -0.027  -0.114
    1UNL     O1   15  -0.618   0.003  -0.197
    1UNL    C13   16  -0.405   0.056  -0.081
    1UNL    C14   17  -0.300   0.014   0.005
    1UNL    C15   18   0.042  -0.023   0.159
    1UNL     O2   19   0.052  -0.043   0.300
    1UNL    C16   20   0.138  -0.113   0.070
    1UNL    C17   21   0.230  -0.027  -0.023
    1UNL    C18   22   0.137   0.070  -0.106
    1UNL    C19   23   0.040  -0.017  -0.195
    1UNL     O3   24   0.109  -0.111  -0.282
    1UNL     H1   25   0.620  -0.069   0.025
    1UNL     H2   26   0.485  -0.105  -0.082
    1UNL     H3   27   0.581   0.053  -0.093
    1UNL     H4   28   0.503   0.123   0.141
    1UNL     H5   29   0.261   0.234   0.153
    1UNL     H6   30   0.256   0.099   0.270
    1UNL     H7   31   0.104   0.254  -0.023
    1UNL     H8   32  -0.117   0.210  -0.128
    1UNL     H9   33  -0.117   0.275   0.028
    1UNL    H10   34  -0.154  -0.215   0.188
    1UNL    H11   35  -0.433  -0.282   0.087
    1UNL    H12   36  -0.596  -0.222  -0.087
    1UNL    H13   37  -0.611   0.100  -0.219
    1UNL    H14   38  -0.407   0.149  -0.145
    1UNL    H15   39  -0.037  -0.032   0.337
    1UNL    H16   40   0.205  -0.169   0.133
    1UNL    H17   41   0.082  -0.196   0.014
    1UNL    H18   42   0.289  -0.095  -0.079
    1UNL    H19   43   0.201   0.132  -0.170
    1UNL    H20   44  -0.022   0.053  -0.250
    1UNL    H21   45  -0.022  -0.085  -0.140
    1UNL    H22   46   0.163  -0.052  -0.332
   0.00000   0.00000   0.00000   0.00000   0.00000   0.00000   0.00000   0.00000   0.00000
Generated with MDTraj, t= 54.0
 46
    1UNL     C1    1   0.515  -0.030  -0.038
    1UNL     C2    2   0.432   0.051   0.058
    1UNL     C3    3   0.305   0.055   0.066
    1UNL     C4    4   0.230   0.147   0.167
    1UNL     N1    5   0.087   0.124   0.139
    1UNL     C5    6   0.054   0.159  -0.000
    1UNL     C6    7  -0.099   0.190  -0.002
    1UNL     C7    8  -0.163   0.063   0.044
    1UNL     C8    9  -0.103  -0.034   0.122
    1UNL     N2   10  -0.181  -0.152   0.127
    1UNL     C9   11  -0.289  -0.120   0.051
    1UNL    C10   12  -0.407  -0.196   0.035
    1UNL    C11   13  -0.500  -0.146  -0.050
    1UNL    C12   14  -0.492  -0.021  -0.116
    1UNL     O1   15  -0.594   0.015  -0.202
    1UNL    C13   16  -0.377   0.052  -0.095
    1UNL    C14   17  -0.275   0.005  -0.010
    1UNL    C15   18   0.037  -0.017   0.165
    1UNL     O2   19   0.057  -0.035   0.306
    1UNL    C16   20   0.126  -0.116   0.083
    1UNL    C17   21   0.212  -0.038  -0.018
    1UNL    C18   22   0.121   0.061  -0.100
    1UNL    C19   23   0.018  -0.020  -0.188
    1UNL     O3   24   0.085  -0.113  -0.282
    1UNL     H1   25   0.598   0.027  -0.075
    1UNL     H2   26   0.552  -0.121   0.006
    1UNL     H3   27   0.455  -0.045  -0.133
    1UNL     H4   28   0.491   0.107   0.121
    1UNL     H5   29   0.255   0.251   0.145
    1UNL     H6   30   0.259   0.117   0.266
    1UNL     H7   31   0.103   0.249  -0.019
    1UNL     H8   32  -0.131   0.218  -0.101
    1UNL     H9   33  -0.111   0.275   0.064
    1UNL    H10   34  -0.156  -0.227   0.194
    1UNL    H11   35  -0.406  -0.304   0.072
    1UNL    H12   36  -0.584  -0.211  -0.067
    1UNL    H13   37  -0.575   0.106  -0.228
    1UNL    H14   38  -0.363   0.142  -0.144
    1UNL    H15   39   0.048   0.054   0.343
    1UNL    H16   40   0.188  -0.179   0.150
    1UNL    H17   41   0.067  -0.186   0.019
    1UNL    H18   42   0.264  -0.099  -0.087
    1UNL    H19   43   0.186   0.115  -0.170
    1UNL    H20   44  -0.040   0.037  -0.256
    1UNL    H21   45  -0.051  -0.075  -0.124
    1UNL    H22   46   0.154  -0.067  -0.340
   0.00000   0.00000   0.00000   0.00000   0.00000   0.00000   0.00000   0.00000   0.00000
Generated with MDTraj, t= 55.0
 46
    1UNL     C1    1   0.512  -0.035  -0.061
    1UNL     C2    2   0.443   0.050   0.046
    1UNL     C3    3   0.316   0.039   0.067
    1UNL     C4    4   0.246   0.136   0.165
    1UNL     N1    5   0.096   0.123   0.146
    1UNL     C5    6   0.057   0.167  -0.002
    1UNL     C6    7  -0.103   0.192  -0.007
    1UNL     C7    8  -0.163   0.066   0.038
    1UNL     C8    9  -0.107  -0.030   0.113
    1UNL     N2   10  -0.194  -0.127   0.150
    1UNL     C9   11  -0.308  -0.108   0.068
    1UNL    C10   12  -0.407  -0.199   0.035
    1UNL    C11   13  -0.492  -0.164  -0.064
    1UNL    C12   14  -0.483  -0.035  -0.126
    1UNL     O1   15  -0.595  -0.006  -0.207
    1UNL    C13   16  -0.386   0.059  -0.090
    1UNL    C14   17  -0.291   0.017   0.004
    1UNL    C15   18   0.035  -0.017   0.162
    1UNL     O2   19   0.036  -0.054   0.304
    1UNL    C16   20   0.119  -0.114   0.076
    1UNL    C17   21   0.211  -0.034  -0.014
    1UNL    C18   22   0.133   0.071  -0.097
    1UNL    C19   23   0.032   0.001  -0.191
    1UNL     O3   24   0.095  -0.108  -0.261
    1UNL     H1   25   0.552   0.024  -0.143
    1UNL     H2   26   0.587  -0.099  -0.021
    1UNL     H3   27   0.431  -0.095  -0.117
    1UNL     H4   28   0.505   0.123   0.101
    1UNL     H5   29   0.280   0.239   0.143
    1UNL     H6   30   0.271   0.104   0.266
    1UNL     H7   31   0.100   0.261  -0.008
    1UNL     H8   32  -0.129   0.215  -0.106
    1UNL     H9   33  -0.135   0.281   0.051
    1UNL    H10   34  -0.178  -0.214   0.203
    1UNL    H11   35  -0.401  -0.293   0.080
    1UNL    H12   36  -0.584  -0.215  -0.084
    1UNL    H13   37  -0.598   0.086  -0.228
    1UNL    H14   38  -0.386   0.155  -0.140
    1UNL    H15   39   0.029   0.023   0.366
    1UNL    H16   40   0.186  -0.181   0.138
    1UNL    H17   41   0.062  -0.176   0.006
    1UNL    H18   42   0.257  -0.102  -0.083
    1UNL    H19   43   0.205   0.134  -0.154
    1UNL    H20   44  -0.005   0.075  -0.256
    1UNL    H21   45  -0.055  -0.050  -0.142
    1UNL    H22   46   0.176  -0.079  -0.316
   0.00000   0.00000   0.00000   0.00000   0.00000   0.00000   0.00000   0.00000   0.00000
Generated with MDTraj, t= 56.0
 46
    1UNL     C1    1   0.530  -0.012  -0.053
    1UNL     C2    2   0.440   0.036   0.061
    1UNL     C3    3   0.311   0.032   0.073
    1UNL     C4    4   0.234   0.123   0.174
    1UNL     N1    5   0.088   0.123   0.137
    1UNL     C5    6   0.065   0.166  -0.003
    1UNL     C6    7  -0.089   0.180  -0.022
    1UNL     C7    8  -0.166   0.063   0.037
    1UNL     C8    9  -0.111  -0.019   0.135
    1UNL     N2   10  -0.199  -0.130   0.162
    1UNL     C9   11  -0.310  -0.112   0.086
    1UNL    C10   12  -0.422  -0.193   0.052
    1UNL    C11   13  -0.511  -0.147  -0.043
    1UNL    C12   14  -0.495  -0.034  -0.121
    1UNL     O1   15  -0.586  -0.010  -0.225
    1UNL    C13   16  -0.388   0.050  -0.089
    1UNL    C14   17  -0.290   0.007   0.005
    1UNL    C15   18   0.035  -0.013   0.161
    1UNL     O2   19   0.058  -0.048   0.289
    1UNL    C16   20   0.106  -0.117   0.068
    1UNL    C17   21   0.215  -0.041  -0.020
    1UNL    C18   22   0.135   0.067  -0.099
    1UNL    C19   23   0.040   0.005  -0.204
    1UNL     O3   24   0.101  -0.089  -0.287
    1UNL     H1   25   0.485   0.020  -0.149
    1UNL     H2   26   0.632   0.020  -0.047
    1UNL     H3   27   0.528  -0.124  -0.063
    1UNL     H4   28   0.501   0.095   0.135
    1UNL     H5   29   0.262   0.231   0.166
    1UNL     H6   30   0.249   0.079   0.273
    1UNL     H7   31   0.109   0.260  -0.017
    1UNL     H8   32  -0.121   0.194  -0.120
    1UNL     H9   33  -0.120   0.273   0.032
    1UNL    H10   34  -0.192  -0.220   0.212
    1UNL    H11   35  -0.430  -0.290   0.095
    1UNL    H12   36  -0.592  -0.217  -0.066
    1UNL    H13   37  -0.566   0.069  -0.273
    1UNL    H14   38  -0.366   0.145  -0.143
    1UNL    H15   39   0.005   0.002   0.358
    1UNL    H16   40   0.160  -0.189   0.141
    1UNL    H17   41   0.048  -0.175  -0.001
    1UNL    H18   42   0.267  -0.108  -0.087
    1UNL    H19   43   0.215   0.128  -0.145
    1UNL    H20   44  -0.016   0.069  -0.269
    1UNL    H21   45  -0.034  -0.048  -0.136
    1UNL    H22   46   0.166  -0.039  -0.337
   0.00000   0.00000   0.00000   0.00000   0.00000   0.00000   0.00000   0.00000   0.00000
Generated with MDTraj, t= 57.0
 46
    1UNL     C1    1   0.518  -0.038  -0.027
    1UNL     C2    2   0.437   0.057   0.048
    1UNL     C3    3   0.311   0.046   0.069
    1UNL     C4    4   0.237   0.127   0.167
    1UNL     N1    5   0.086   0.125   0.139
    1UNL     C5    6   0.055   0.170  -0.004
    1UNL     C6    7  -0.098   0.169  -0.023
    1UNL     C7    8  -0.157   0.045   0.024
    1UNL     C8    9  -0.106  -0.033   0.124
    1UNL     N2   10  -0.196  -0.133   0.149
    1UNL     C9   11  -0.309  -0.121   0.067
    1UNL    C10   12  -0.435  -0.177   0.069
    1UNL    C11   13  -0.536  -0.127  -0.014
    1UNL    C12   14  -0.507  -0.024  -0.111
    1UNL     O1   15  -0.599  -0.004  -0.211
    1UNL    C13   16  -0.382   0.033  -0.111
    1UNL    C14   17  -0.288  -0.011  -0.011
    1UNL    C15   18   0.042  -0.017   0.164
    1UNL     O2   19   0.058  -0.058   0.300
    1UNL    C16   20   0.120  -0.117   0.070
    1UNL    C17   21   0.221  -0.027  -0.021
    1UNL    C18   22   0.136   0.079  -0.102
    1UNL    C19   23   0.053  -0.007  -0.202
    1UNL     O3   24   0.134  -0.066  -0.294
    1UNL     H1   25   0.461  -0.072  -0.117
    1UNL     H2   26   0.617  -0.001  -0.059
    1UNL     H3   27   0.535  -0.126   0.031
    1UNL     H4   28   0.493   0.122   0.100
    1UNL     H5   29   0.281   0.230   0.178
    1UNL     H6   30   0.240   0.071   0.263
    1UNL     H7   31   0.087   0.268  -0.024
    1UNL     H8   32  -0.125   0.182  -0.126
    1UNL     H9   33  -0.138   0.258   0.030
    1UNL    H10   34  -0.209  -0.209   0.217
    1UNL    H11   35  -0.473  -0.251   0.148
    1UNL    H12   36  -0.636  -0.159  -0.010
    1UNL    H13   37  -0.553   0.043  -0.284
    1UNL    H14   38  -0.365   0.118  -0.167
    1UNL    H15   39  -0.021  -0.057   0.356
    1UNL    H16   40   0.186  -0.195   0.124
    1UNL    H17   41   0.049  -0.174   0.013
    1UNL    H18   42   0.277  -0.088  -0.091
    1UNL    H19   43   0.207   0.140  -0.161
    1UNL    H20   44  -0.014   0.062  -0.252
    1UNL    H21   45  -0.013  -0.099  -0.171
    1UNL    H22   46   0.194  -0.007  -0.338
   0.00000   0.00000   0.00000   0.00000   0.00000   0.00000   0.00000   0.00000   0.00000
Generated with MDTraj, t= 58.0
 46
    1UNL     C1    1   0.537  -0.024   0.001
    1UNL     C2    2   0.446   0.046   0.094
    1UNL     C3    3   0.316   0.048   0.084
    1UNL     C4    4   0.225   0.124   0.178
    1UNL     N1    5   0.084   0.114   0.129
    1UNL     C5    6   0.069   0.163  -0.018
    1UNL     C6    7  -0.079   0.162  -0.056
    1UNL     C7    8  -0.171   0.052   0.006
    1UNL     C8    9  -0.106  -0.034   0.097
    1UNL     N2   10  -0.201  -0.125   0.147
    1UNL     C9   11  -0.315  -0.112   0.077
    1UNL    C10   12  -0.424  -0.195   0.069
    1UNL    C11   13  -0.529  -0.153  -0.015
    1UNL    C12   14  -0.522  -0.029  -0.091
    1UNL     O1   15  -0.635   0.001  -0.168
    1UNL    C13   16  -0.412   0.056  -0.085
    1UNL    C14   17  -0.303   0.007  -0.008
    1UNL    C15   18   0.035  -0.025   0.146
    1UNL     O2   19   0.039  -0.053   0.287
    1UNL    C16   20   0.123  -0.113   0.055
    1UNL    C17   21   0.233  -0.030  -0.021
    1UNL    C18   22   0.154   0.069  -0.109
    1UNL    C19   23   0.076   0.012  -0.232
    1UNL     O3   24   0.150  -0.081  -0.311
    1UNL     H1   25   0.564   0.050  -0.080
    1UNL     H2   26   0.633  -0.068   0.044
    1UNL     H3   27   0.484  -0.098  -0.046
    1UNL     H4   28   0.502   0.106   0.174
    1UNL     H5   29   0.240   0.235   0.181
    1UNL     H6   30   0.234   0.086   0.282
    1UNL     H7   31   0.108   0.259  -0.015
    1UNL     H8   32  -0.095   0.156  -0.167
    1UNL     H9   33  -0.131   0.253  -0.024
    1UNL    H10   34  -0.186  -0.199   0.215
    1UNL    H11   35  -0.445  -0.268   0.135
    1UNL    H12   36  -0.610  -0.226  -0.038
    1UNL    H13   37  -0.617   0.085  -0.222
    1UNL    H14   38  -0.398   0.151  -0.143
    1UNL    H15   39   0.018   0.035   0.325
    1UNL    H16   40   0.175  -0.196   0.112
    1UNL    H17   41   0.061  -0.167  -0.018
    1UNL    H18   42   0.301  -0.080  -0.090
    1UNL    H19   43   0.237   0.130  -0.150
    1UNL    H20   44   0.028   0.083  -0.302
    1UNL    H21   45  -0.014  -0.045  -0.181
    1UNL    H22   46   0.247  -0.055  -0.316
   0.00000   0.00000   0.00000   0.00000   0.00000   0.00000   0.00000   0.00000   0.00000
Generated with MDTraj, t= 59.0
 46
    1UNL     C1    1   0.530  -0.037   0.032
    1UNL     C2    2   0.436   0.048   0.109
    1UNL     C3    3   0.309   0.069   0.079
    1UNL     C4    4   0.214   0.155   0.154
    1UNL     N1    5   0.074   0.119   0.120
    1UNL     C5    6   0.050   0.159  -0.022
    1UNL     C6    7  -0.098   0.155  -0.051
    1UNL     C7    8  -0.167   0.037   0.006
    1UNL     C8    9  -0.107  -0.053   0.090
    1UNL     N2   10  -0.191  -0.150   0.125
    1UNL     C9   11  -0.316  -0.119   0.060
    1UNL    C10   12  -0.437  -0.189   0.067
    1UNL    C11   13  -0.543  -0.141  -0.005
    1UNL    C12   14  -0.531  -0.015  -0.068
    1UNL     O1   15  -0.644   0.032  -0.136
    1UNL    C13   16  -0.414   0.051  -0.083
    1UNL    C14   17  -0.302  -0.008  -0.015
    1UNL    C15   18   0.044  -0.029   0.133
    1UNL     O2   19   0.049  -0.060   0.278
    1UNL    C16   20   0.137  -0.108   0.047
    1UNL    C17   21   0.236  -0.010  -0.028
    1UNL    C18   22   0.150   0.076  -0.118
    1UNL    C19   23   0.093  -0.008  -0.235
    1UNL     O3   24   0.199  -0.092  -0.298
    1UNL     H1   25   0.581   0.027  -0.042
    1UNL     H2   26   0.613  -0.092   0.085
    1UNL     H3   27   0.474  -0.109  -0.024
    1UNL     H4   28   0.476   0.089   0.196
    1UNL     H5   29   0.234   0.264   0.144
    1UNL     H6   30   0.218   0.135   0.264
    1UNL     H7   31   0.078   0.259  -0.031
    1UNL     H8   32  -0.106   0.143  -0.166
    1UNL     H9   33  -0.156   0.243  -0.023
    1UNL    H10   34  -0.182  -0.234   0.184
    1UNL    H11   35  -0.443  -0.289   0.120
    1UNL    H12   36  -0.638  -0.187  -0.004
    1UNL    H13   37  -0.624   0.118  -0.187
    1UNL    H14   38  -0.394   0.138  -0.140
    1UNL    H15   39   0.032   0.023   0.331
    1UNL    H16   40   0.197  -0.176   0.109
    1UNL    H17   41   0.087  -0.178  -0.026
    1UNL    H18   42   0.311  -0.066  -0.086
    1UNL    H19   43   0.218   0.152  -0.160
    1UNL    H20   44   0.045   0.068  -0.304
    1UNL    H21   45   0.005  -0.081  -0.205
    1UNL    H22   46   0.286  -0.039  -0.295
   0.00000   0.00000   0.00000   0.00000   0.00000   0.00000   0.00000   0.00000   0.00000
Generated with MDTraj, t= 60.0
 46
    1UNL     C1    1   0.537  -0.027   0.084
    1UNL     C2    2   0.427   0.063   0.122
    1UNL     C3    3   0.303   0.064   0.083
    1UNL     C4    4   0.206   0.148   0.158
    1UNL     N1    5   0.066   0.118   0.109
    1UNL     C5    6   0.050   0.160  -0.034
    1UNL     C6    7  -0.093   0.151  -0.068
    1UNL     C7    8  -0.160   0.027  -0.022
    1UNL     C8    9  -0.097  -0.053   0.075
    1UNL     N2   10  -0.181  -0.156   0.115
    1UNL     C9   11  -0.307  -0.133   0.058
    1UNL    C10   12  -0.435  -0.176   0.080
    1UNL    C11   13  -0.545  -0.113   0.026
    1UNL    C12   14  -0.530  -0.015  -0.065
    1UNL     O1   15  -0.647   0.043  -0.101
    1UNL    C13   16  -0.407   0.033  -0.094
    1UNL    C14   17  -0.292  -0.018  -0.034
    1UNL    C15   18   0.040  -0.033   0.129
    1UNL     O2   19   0.036  -0.078   0.270
    1UNL    C16   20   0.137  -0.113   0.052
    1UNL    C17   21   0.237  -0.017  -0.024
    1UNL    C18   22   0.159   0.077  -0.123
    1UNL    C19   23   0.097  -0.004  -0.240
    1UNL     O3   24   0.188  -0.077  -0.325
    1UNL     H1   25   0.510  -0.073  -0.010
    1UNL     H2   26   0.634   0.019   0.061
    1UNL     H3   27   0.549  -0.114   0.158
    1UNL     H4   28   0.448   0.126   0.206
    1UNL     H5   29   0.225   0.256   0.143
    1UNL     H6   30   0.216   0.136   0.269
    1UNL     H7   31   0.074   0.261  -0.049
    1UNL     H8   32  -0.121   0.160  -0.180
    1UNL     H9   33  -0.146   0.229  -0.013
    1UNL    H10   34  -0.154  -0.206   0.200
    1UNL    H11   35  -0.446  -0.253   0.154
    1UNL    H12   36  -0.645  -0.134   0.067
    1UNL    H13   37  -0.628   0.124  -0.161
    1UNL    H14   38  -0.391   0.102  -0.174
    1UNL    H15   39  -0.019  -0.008   0.313
    1UNL    H16   40   0.188  -0.178   0.120
    1UNL    H17   41   0.090  -0.184  -0.025
    1UNL    H18   42   0.314  -0.079  -0.073
    1UNL    H19   43   0.229   0.145  -0.171
    1UNL    H20   44   0.038   0.061  -0.316
    1UNL    H21   45   0.021  -0.077  -0.192
    1UNL    H22   46   0.259  -0.022  -0.361
   0.00000   0.00000   0.00000   0.00000   0.00000   0.00000   0.00000   0.00000   0.00000
Generated with MDTraj, t= 61.0
 46
    1UNL     C1    1   0.543  -0.017   0.060
    1UNL     C2    2   0.433   0.058   0.131
    1UNL     C3    3   0.305   0.070   0.092
    1UNL     C4    4   0.197   0.138   0.172
    1UNL     N1    5   0.066   0.113   0.105
    1UNL     C5    6   0.055   0.151  -0.042
    1UNL     C6    7  -0.087   0.124  -0.088
    1UNL     C7    8  -0.166   0.018  -0.022
    1UNL     C8    9  -0.109  -0.066   0.067
    1UNL     N2   10  -0.185  -0.161   0.123
    1UNL     C9   11  -0.318  -0.119   0.075
    1UNL    C10   12  -0.448  -0.174   0.094
    1UNL    C11   13  -0.555  -0.120   0.026
    1UNL    C12   14  -0.543  -0.004  -0.057
    1UNL     O1   15  -0.661   0.039  -0.118
    1UNL    C13   16  -0.418   0.053  -0.076
    1UNL    C14   17  -0.309  -0.011  -0.011
    1UNL    C15   18   0.036  -0.039   0.112
    1UNL     O2   19   0.042  -0.074   0.251
    1UNL    C16   20   0.143  -0.108   0.043
    1UNL    C17   21   0.246  -0.015  -0.022
    1UNL    C18   22   0.172   0.084  -0.123
    1UNL    C19   23   0.121   0.010  -0.244
    1UNL     O3   24   0.217  -0.073  -0.302
    1UNL     H1   25   0.508  -0.119   0.059
    1UNL     H2   26   0.548   0.009  -0.045
    1UNL     H3   27   0.646  -0.019   0.115
    1UNL     H4   28   0.458   0.103   0.232
    1UNL     H5   29   0.217   0.247   0.172
    1UNL     H6   30   0.192   0.113   0.281
    1UNL     H7   31   0.072   0.256  -0.036
    1UNL     H8   32  -0.074   0.102  -0.197
    1UNL     H9   33  -0.150   0.217  -0.087
    1UNL    H10   34  -0.157  -0.233   0.190
    1UNL    H11   35  -0.473  -0.255   0.156
    1UNL    H12   36  -0.654  -0.155   0.042
    1UNL    H13   37  -0.644   0.127  -0.159
    1UNL    H14   38  -0.407   0.141  -0.143
    1UNL    H15   39  -0.027  -0.016   0.288
    1UNL    H16   40   0.199  -0.165   0.114
    1UNL    H17   41   0.096  -0.181  -0.032
    1UNL    H18   42   0.327  -0.077  -0.070
    1UNL    H19   43   0.239   0.162  -0.157
    1UNL    H20   44   0.079   0.078  -0.329
    1UNL    H21   45   0.044  -0.069  -0.214
    1UNL    H22   46   0.255  -0.035  -0.381
   0.00000   0.00000   0.00000   0.00000   0.00000   0.00000   0.00000   0.00000   0.00000
Generated with MDTraj, t= 62.0
 46
    1UNL     C1    1   0.544   0.003   0.027
    1UNL     C2    2   0.437   0.074   0.104
    1UNL     C3    3   0.307   0.044   0.092
    1UNL     C4    4   0.205   0.127   0.166
    1UNL     N1    5   0.072   0.113   0.114
    1UNL     C5    6   0.047   0.150  -0.030
    1UNL     C6    7  -0.097   0.123  -0.082
    1UNL     C7    8  -0.176   0.022  -0.006
    1UNL     C8    9  -0.108  -0.056   0.085
    1UNL     N2   10  -0.208  -0.147   0.132
    1UNL     C9   11  -0.328  -0.118   0.074
    1UNL    C10   12  -0.458  -0.167   0.091
    1UNL    C11   13  -0.566  -0.116   0.021
    1UNL    C12   14  -0.539  -0.008  -0.065
    1UNL     O1   15  -0.652   0.041  -0.125
    1UNL    C13   16  -0.413   0.040  -0.089
    1UNL    C14   17  -0.307  -0.016  -0.022
    1UNL    C15   18   0.038  -0.045   0.128
    1UNL     O2   19   0.058  -0.074   0.269
    1UNL    C16   20   0.125  -0.121   0.033
    1UNL    C17   21   0.238  -0.034  -0.018
    1UNL    C18   22   0.164   0.076  -0.111
    1UNL    C19   23   0.128   0.005  -0.241
    1UNL     O3   24   0.249  -0.054  -0.297
    1UNL     H1   25   0.530  -0.104   0.049
    1UNL     H2   26   0.530   0.005  -0.081
    1UNL     H3   27   0.649   0.024   0.061
    1UNL     H4   28   0.463   0.142   0.172
    1UNL     H5   29   0.235   0.233   0.164
    1UNL     H6   30   0.196   0.101   0.275
    1UNL     H7   31   0.067   0.257  -0.033
    1UNL     H8   32  -0.091   0.090  -0.187
    1UNL     H9   33  -0.155   0.221  -0.084
    1UNL    H10   34  -0.189  -0.211   0.208
    1UNL    H11   35  -0.471  -0.245   0.172
    1UNL    H12   36  -0.666  -0.161   0.024
    1UNL    H13   37  -0.637   0.125  -0.168
    1UNL    H14   38  -0.403   0.122  -0.154
    1UNL    H15   39  -0.005  -0.014   0.311
    1UNL    H16   40   0.166  -0.205   0.088
    1UNL    H17   41   0.067  -0.155  -0.057
    1UNL    H18   42   0.316  -0.095  -0.072
    1UNL    H19   43   0.241   0.146  -0.135
    1UNL    H20   44   0.101   0.083  -0.325
    1UNL    H21   45   0.048  -0.073  -0.232
    1UNL    H22   46   0.303   0.023  -0.331
   0.00000   0.00000   0.00000   0.00000   0.00000   0.00000   0.00000   0.00000   0.00000
Generated with MDTraj, t= 63.0
 46
    1UNL     C1    1   0.532   0.005   0.009
    1UNL     C2    2   0.432   0.067   0.091
    1UNL     C3    3   0.300   0.047   0.089
    1UNL     C4    4   0.200   0.124   0.174
    1UNL     N1    5   0.065   0.106   0.120
    1UNL     C5    6   0.060   0.145  -0.022
    1UNL     C6    7  -0.087   0.136  -0.072
    1UNL     C7    8  -0.161   0.019  -0.015
    1UNL     C8    9  -0.112  -0.062   0.086
    1UNL     N2   10  -0.199  -0.145   0.142
    1UNL     C9   11  -0.320  -0.111   0.081
    1UNL    C10   12  -0.449  -0.156   0.110
    1UNL    C11   13  -0.544  -0.112   0.031
    1UNL    C12   14  -0.532  -0.014  -0.077
    1UNL     O1   15  -0.632   0.029  -0.157
    1UNL    C13   16  -0.404   0.038  -0.099
    1UNL    C14   17  -0.299  -0.013  -0.020
    1UNL    C15   18   0.032  -0.046   0.137
    1UNL     O2   19   0.036  -0.067   0.285
    1UNL    C16   20   0.123  -0.135   0.054
    1UNL    C17   21   0.235  -0.043  -0.012
    1UNL    C18   22   0.161   0.061  -0.107
    1UNL    C19   23   0.112   0.003  -0.238
    1UNL     O3   24   0.219  -0.022  -0.334
    1UNL     H1   25   0.506  -0.104  -0.007
    1UNL     H2   26   0.537   0.044  -0.095
    1UNL     H3   27   0.629   0.001   0.058
    1UNL     H4   28   0.467   0.136   0.175
    1UNL     H5   29   0.219   0.231   0.170
    1UNL     H6   30   0.206   0.093   0.281
    1UNL     H7   31   0.092   0.250  -0.042
    1UNL     H8   32  -0.078   0.141  -0.176
    1UNL     H9   33  -0.127   0.239  -0.040
    1UNL    H10   34  -0.190  -0.212   0.218
    1UNL    H11   35  -0.459  -0.204   0.199
    1UNL    H12   36  -0.644  -0.145   0.049
    1UNL    H13   37  -0.598   0.104  -0.203
    1UNL    H14   38  -0.386   0.117  -0.175
    1UNL    H15   39  -0.047  -0.035   0.328
    1UNL    H16   40   0.170  -0.207   0.123
    1UNL    H17   41   0.069  -0.185  -0.024
    1UNL    H18   42   0.308  -0.112  -0.064
    1UNL    H19   43   0.240   0.127  -0.141
    1UNL    H20   44   0.028   0.069  -0.290
    1UNL    H21   45   0.068  -0.098  -0.222
    1UNL    H22   46   0.300   0.037  -0.312
   0.00000   0.00000   0.00000   0.00000   0.00000   0.00000   0.00000   0.00000   0.00000
Generated with MDTraj, t= 64.0
 46
    1UNL     C1    1   0.541  -0.012   0.002
    1UNL     C2    2   0.450   0.047   0.094
    1UNL     C3    3   0.314   0.051   0.084
    1UNL     C4    4   0.223   0.134   0.177
    1UNL     N1    5   0.078   0.108   0.134
    1UNL     C5    6   0.060   0.161  -0.016
    1UNL     C6    7  -0.092   0.150  -0.054
    1UNL     C7    8  -0.164   0.021  -0.004
    1UNL     C8    9  -0.107  -0.052   0.101
    1UNL     N2   10  -0.213  -0.137   0.149
    1UNL     C9   11  -0.331  -0.109   0.087
    1UNL    C10   12  -0.465  -0.166   0.089
    1UNL    C11   13  -0.558  -0.129  -0.002
    1UNL    C12   14  -0.534  -0.023  -0.091
    1UNL     O1   15  -0.637   0.018  -0.177
    1UNL    C13   16  -0.409   0.040  -0.098
    1UNL    C14   17  -0.306  -0.008  -0.011
    1UNL    C15   18   0.044  -0.040   0.144
    1UNL     O2   19   0.056  -0.080   0.281
    1UNL    C16   20   0.141  -0.118   0.050
    1UNL    C17   21   0.241  -0.017  -0.026
    1UNL    C18   22   0.163   0.088  -0.112
    1UNL    C19   23   0.099   0.015  -0.230
    1UNL     O3   24   0.185  -0.066  -0.311
    1UNL     H1   25   0.556  -0.121   0.031
    1UNL     H2   26   0.497  -0.014  -0.103
    1UNL     H3   27   0.636   0.034   0.007
    1UNL     H4   28   0.494   0.089   0.180
    1UNL     H5   29   0.252   0.239   0.174
    1UNL     H6   30   0.233   0.097   0.282
    1UNL     H7   31   0.083   0.273  -0.009
    1UNL     H8   32  -0.091   0.154  -0.158
    1UNL     H9   33  -0.140   0.249  -0.018
    1UNL    H10   34  -0.190  -0.205   0.220
    1UNL    H11   35  -0.479  -0.243   0.170
    1UNL    H12   36  -0.656  -0.171   0.011
    1UNL    H13   37  -0.618   0.100  -0.224
    1UNL    H14   38  -0.400   0.115  -0.173
    1UNL    H15   39  -0.031  -0.065   0.327
    1UNL    H16   40   0.203  -0.190   0.111
    1UNL    H17   41   0.087  -0.174  -0.020
    1UNL    H18   42   0.309  -0.076  -0.096
    1UNL    H19   43   0.232   0.163  -0.150
    1UNL    H20   44   0.037   0.087  -0.304
    1UNL    H21   45   0.020  -0.051  -0.189
    1UNL    H22   46   0.232  -0.009  -0.375
   0.00000   0.00000   0.00000   0.00000   0.00000   0.00000   0.00000   0.00000   0.00000
Generated with MDTraj, t= 65.0
 46
    1UNL     C1    1   0.523  -0.032   0.005
    1UNL     C2    2   0.437   0.043   0.098
    1UNL     C3    3   0.304   0.049   0.080
    1UNL     C4    4   0.225   0.134   0.180
    1UNL     N1    5   0.083   0.131   0.137
    1UNL     C5    6   0.066   0.172  -0.013
    1UNL     C6    7  -0.093   0.176  -0.035
    1UNL     C7    8  -0.162   0.055   0.018
    1UNL     C8    9  -0.105  -0.032   0.104
    1UNL     N2   10  -0.187  -0.142   0.128
    1UNL     C9   11  -0.306  -0.111   0.060
    1UNL    C10   12  -0.423  -0.188   0.055
    1UNL    C11   13  -0.531  -0.148  -0.018
    1UNL    C12   14  -0.520  -0.025  -0.095
    1UNL     O1   15  -0.627   0.006  -0.170
    1UNL    C13   16  -0.400   0.051  -0.079
    1UNL    C14   17  -0.294   0.005  -0.011
    1UNL    C15   18   0.039  -0.015   0.148
    1UNL     O2   19   0.056  -0.074   0.276
    1UNL    C16   20   0.120  -0.112   0.051
    1UNL    C17   21   0.227  -0.031  -0.025
    1UNL    C18   22   0.146   0.073  -0.110
    1UNL    C19   23   0.069   0.008  -0.235
    1UNL     O3   24   0.146  -0.097  -0.290
    1UNL     H1   25   0.487  -0.138  -0.003
    1UNL     H2   26   0.510   0.010  -0.100
    1UNL     H3   27   0.625  -0.036   0.035
    1UNL     H4   28   0.477   0.086   0.186
    1UNL     H5   29   0.258   0.238   0.186
    1UNL     H6   30   0.244   0.080   0.275
    1UNL     H7   31   0.096   0.283  -0.024
    1UNL     H8   32  -0.108   0.200  -0.137
    1UNL     H9   33  -0.131   0.268   0.023
    1UNL    H10   34  -0.181  -0.225   0.187
    1UNL    H11   35  -0.428  -0.285   0.104
    1UNL    H12   36  -0.627  -0.198  -0.025
    1UNL    H13   37  -0.605   0.093  -0.214
    1UNL    H14   38  -0.385   0.136  -0.143
    1UNL    H15   39  -0.018  -0.043   0.334
    1UNL    H16   40   0.175  -0.188   0.112
    1UNL    H17   41   0.061  -0.166  -0.017
    1UNL    H18   42   0.305  -0.090  -0.082
    1UNL    H19   43   0.223   0.137  -0.152
    1UNL    H20   44   0.034   0.082  -0.322
    1UNL    H21   45  -0.024  -0.039  -0.202
    1UNL    H22   46   0.176  -0.079  -0.379
   0.00000   0.00000   0.00000   0.00000   0.00000   0.00000   0.00000   0.00000   0.00000
Generated with MDTraj, t= 66.0
 46
    1UNL     C1    1   0.528  -0.064   0.003
    1UNL     C2    2   0.448   0.050   0.066
    1UNL     C3    3   0.311   0.055   0.070
    1UNL     C4    4   0.240   0.145   0.164
    1UNL     N1    5   0.091   0.126   0.138
    1UNL     C5    6   0.055   0.165  -0.004
    1UNL     C6    7  -0.101   0.191  -0.010
    1UNL     C7    8  -0.165   0.056   0.021
    1UNL     C8    9  -0.098  -0.033   0.104
    1UNL     N2   10  -0.180  -0.150   0.123
    1UNL     C9   11  -0.291  -0.133   0.048
    1UNL    C10   12  -0.408  -0.206   0.025
    1UNL    C11   13  -0.511  -0.155  -0.052
    1UNL    C12   14  -0.513  -0.023  -0.104
    1UNL     O1   15  -0.623   0.026  -0.174
    1UNL    C13   16  -0.396   0.052  -0.086
    1UNL    C14   17  -0.290  -0.004  -0.014
    1UNL    C15   18   0.039  -0.008   0.162
    1UNL     O2   19   0.051  -0.043   0.301
    1UNL    C16   20   0.128  -0.112   0.079
    1UNL    C17   21   0.217  -0.027  -0.021
    1UNL    C18   22   0.129   0.071  -0.105
    1UNL    C19   23   0.038  -0.008  -0.202
    1UNL     O3   24   0.114  -0.081  -0.295
    1UNL     H1   25   0.474  -0.159   0.019
    1UNL     H2   26   0.515  -0.061  -0.108
    1UNL     H3   27   0.633  -0.080   0.037
    1UNL     H4   28   0.494   0.128   0.138
    1UNL     H5   29   0.273   0.247   0.142
    1UNL     H6   30   0.262   0.109   0.266
    1UNL     H7   31   0.098   0.269  -0.030
    1UNL     H8   32  -0.142   0.225  -0.105
    1UNL     H9   33  -0.126   0.275   0.063
    1UNL    H10   34  -0.159  -0.230   0.182
    1UNL    H11   35  -0.411  -0.301   0.063
    1UNL    H12   36  -0.604  -0.205  -0.059
    1UNL    H13   37  -0.611   0.123  -0.203
    1UNL    H14   38  -0.402   0.157  -0.123
    1UNL    H15   39  -0.014   0.006   0.354
    1UNL    H16   40   0.194  -0.160   0.151
    1UNL    H17   41   0.074  -0.194   0.034
    1UNL    H18   42   0.276  -0.091  -0.093
    1UNL    H19   43   0.199   0.127  -0.168
    1UNL    H20   44  -0.027   0.065  -0.266
    1UNL    H21   45  -0.030  -0.081  -0.154
    1UNL    H22   46   0.083  -0.177  -0.298
   0.00000   0.00000   0.00000   0.00000   0.00000   0.00000   0.00000   0.00000   0.00000
Generated with MDTraj, t= 67.0
 46
    1UNL     C1    1   0.518  -0.049  -0.029
    1UNL     C2    2   0.441   0.031   0.070
    1UNL     C3    3   0.306   0.042   0.077
    1UNL     C4    4   0.240   0.135   0.178
    1UNL     N1    5   0.088   0.128   0.137
    1UNL     C5    6   0.055   0.172  -0.007
    1UNL     C6    7  -0.101   0.189  -0.021
    1UNL     C7    8  -0.160   0.066   0.034
    1UNL     C8    9  -0.102  -0.032   0.111
    1UNL     N2   10  -0.184  -0.134   0.139
    1UNL     C9   11  -0.294  -0.123   0.057
    1UNL    C10   12  -0.402  -0.209   0.013
    1UNL    C11   13  -0.497  -0.167  -0.067
    1UNL    C12   14  -0.502  -0.031  -0.114
    1UNL     O1   15  -0.602   0.020  -0.195
    1UNL    C13   16  -0.398   0.057  -0.079
    1UNL    C14   17  -0.287   0.004  -0.004
    1UNL    C15   18   0.041  -0.011   0.160
    1UNL     O2   19   0.063  -0.036   0.297
    1UNL    C16   20   0.124  -0.115   0.069
    1UNL    C17   21   0.216  -0.028  -0.020
    1UNL    C18   22   0.132   0.077  -0.097
    1UNL    C19   23   0.032  -0.003  -0.182
    1UNL     O3   24   0.079  -0.093  -0.282
    1UNL     H1   25   0.501  -0.155  -0.014
    1UNL     H2   26   0.473  -0.035  -0.128
    1UNL     H3   27   0.631  -0.026  -0.029
    1UNL     H4   28   0.482   0.082   0.145
    1UNL     H5   29   0.276   0.237   0.169
    1UNL     H6   30   0.263   0.087   0.274
    1UNL     H7   31   0.101   0.276  -0.014
    1UNL     H8   32  -0.137   0.212  -0.127
    1UNL     H9   33  -0.140   0.274   0.038
    1UNL    H10   34  -0.165  -0.224   0.185
    1UNL    H11   35  -0.409  -0.316   0.058
    1UNL    H12   36  -0.563  -0.244  -0.107
    1UNL    H13   37  -0.584   0.120  -0.207
    1UNL    H14   38  -0.399   0.158  -0.102
    1UNL    H15   39   0.012   0.026   0.352
    1UNL    H16   40   0.181  -0.179   0.130
    1UNL    H17   41   0.060  -0.185   0.012
    1UNL    H18   42   0.270  -0.088  -0.100
    1UNL    H19   43   0.207   0.131  -0.158
    1UNL    H20   44  -0.039   0.067  -0.237
    1UNL    H21   45  -0.030  -0.067  -0.113
    1UNL    H22   46   0.161  -0.145  -0.251
   0.00000   0.00000   0.00000   0.00000   0.00000   0.00000   0.00000   0.00000   0.00000
Generated with MDTraj, t= 68.0
 46
    1UNL     C1    1   0.516  -0.031  -0.051
    1UNL     C2    2   0.438   0.050   0.038
    1UNL     C3    3   0.306   0.039   0.066
    1UNL     C4    4   0.233   0.127   0.170
    1UNL     N1    5   0.084   0.119   0.150
    1UNL     C5    6   0.060   0.164   0.009
    1UNL     C6    7  -0.091   0.193  -0.006
    1UNL     C7    8  -0.161   0.064   0.033
    1UNL     C8    9  -0.109  -0.025   0.125
    1UNL     N2   10  -0.193  -0.134   0.137
    1UNL     C9   11  -0.301  -0.109   0.065
    1UNL    C10   12  -0.414  -0.190   0.048
    1UNL    C11   13  -0.508  -0.150  -0.043
    1UNL    C12   14  -0.491  -0.029  -0.116
    1UNL     O1   15  -0.575  -0.006  -0.225
    1UNL    C13   16  -0.384   0.049  -0.092
    1UNL    C14   17  -0.288   0.017  -0.002
    1UNL    C15   18   0.032  -0.019   0.166
    1UNL     O2   19   0.054  -0.062   0.296
    1UNL    C16   20   0.120  -0.117   0.073
    1UNL    C17   21   0.212  -0.038  -0.018
    1UNL    C18   22   0.127   0.068  -0.090
    1UNL    C19   23   0.028   0.007  -0.197
    1UNL     O3   24   0.098  -0.088  -0.274
    1UNL     H1   25   0.470  -0.127  -0.075
    1UNL     H2   26   0.518   0.019  -0.147
    1UNL     H3   27   0.621  -0.049  -0.006
    1UNL     H4   28   0.485   0.129   0.106
    1UNL     H5   29   0.266   0.229   0.156
    1UNL     H6   30   0.260   0.089   0.269
    1UNL     H7   31   0.112   0.262   0.009
    1UNL     H8   32  -0.119   0.209  -0.117
    1UNL     H9   33  -0.138   0.277   0.046
    1UNL    H10   34  -0.187  -0.219   0.195
    1UNL    H11   35  -0.409  -0.279   0.101
    1UNL    H12   36  -0.594  -0.208  -0.075
    1UNL    H13   37  -0.541   0.070  -0.281
    1UNL    H14   38  -0.370   0.147  -0.141
    1UNL    H15   39   0.005  -0.009   0.363
    1UNL    H16   40   0.170  -0.190   0.126
    1UNL    H17   41   0.052  -0.175   0.006
    1UNL    H18   42   0.267  -0.099  -0.095
    1UNL    H19   43   0.209   0.123  -0.142
    1UNL    H20   44  -0.005   0.091  -0.263
    1UNL    H21   45  -0.067  -0.040  -0.151
    1UNL    H22   46   0.125  -0.165  -0.218
   0.00000   0.00000   0.00000   0.00000   0.00000   0.00000   0.00000   0.00000   0.00000
Generated with MDTraj, t= 69.0
 46
    1UNL     C1    1   0.518   0.002  -0.061
    1UNL     C2    2   0.442   0.050   0.049
    1UNL     C3    3   0.307   0.037   0.072
    1UNL     C4    4   0.239   0.120   0.171
    1UNL     N1    5   0.098   0.107   0.140
    1UNL     C5    6   0.063   0.161   0.004
    1UNL     C6    7  -0.092   0.183  -0.017
    1UNL     C7    8  -0.156   0.054   0.031
    1UNL     C8    9  -0.112  -0.027   0.136
    1UNL     N2   10  -0.211  -0.122   0.163
    1UNL     C9   11  -0.319  -0.102   0.073
    1UNL    C10   12  -0.437  -0.182   0.062
    1UNL    C11   13  -0.521  -0.143  -0.040
    1UNL    C12   14  -0.488  -0.036  -0.131
    1UNL     O1   15  -0.584  -0.004  -0.227
    1UNL    C13   16  -0.374   0.044  -0.108
    1UNL    C14   17  -0.290   0.008  -0.001
    1UNL    C15   18   0.039  -0.029   0.174
    1UNL     O2   19   0.061  -0.071   0.308
    1UNL    C16   20   0.117  -0.125   0.080
    1UNL    C17   21   0.212  -0.043  -0.012
    1UNL    C18   22   0.133   0.067  -0.094
    1UNL    C19   23   0.036   0.006  -0.209
    1UNL     O3   24   0.114  -0.071  -0.298
    1UNL     H1   25   0.562  -0.100  -0.048
    1UNL     H2   26   0.453  -0.006  -0.149
    1UNL     H3   27   0.604   0.071  -0.079
    1UNL     H4   28   0.490   0.118   0.119
    1UNL     H5   29   0.273   0.220   0.147
    1UNL     H6   30   0.262   0.088   0.272
    1UNL     H7   31   0.103   0.261  -0.010
    1UNL     H8   32  -0.134   0.211  -0.123
    1UNL     H9   33  -0.134   0.263   0.045
    1UNL    H10   34  -0.207  -0.199   0.232
    1UNL    H11   35  -0.464  -0.260   0.131
    1UNL    H12   36  -0.617  -0.185  -0.054
    1UNL    H13   37  -0.549   0.068  -0.281
    1UNL    H14   38  -0.350   0.121  -0.179
    1UNL    H15   39   0.028  -0.004   0.374
    1UNL    H16   40   0.170  -0.194   0.136
    1UNL    H17   41   0.048  -0.184   0.018
    1UNL    H18   42   0.270  -0.110  -0.082
    1UNL    H19   43   0.215   0.121  -0.147
    1UNL    H20   44  -0.009   0.083  -0.270
    1UNL    H21   45  -0.056  -0.056  -0.171
    1UNL    H22   46   0.147  -0.146  -0.252
   0.00000   0.00000   0.00000   0.00000   0.00000   0.00000   0.00000   0.00000   0.00000
Generated with MDTraj, t= 70.0
 46
    1UNL     C1    1   0.518  -0.003  -0.047
    1UNL     C2    2   0.440   0.038   0.071
    1UNL     C3    3   0.303   0.043   0.069
    1UNL     C4    4   0.231   0.122   0.182
    1UNL     N1    5   0.089   0.120   0.139
    1UNL     C5    6   0.065   0.156  -0.003
    1UNL     C6    7  -0.086   0.173  -0.031
    1UNL     C7    8  -0.163   0.058   0.029
    1UNL     C8    9  -0.104  -0.034   0.115
    1UNL     N2   10  -0.198  -0.132   0.145
    1UNL     C9   11  -0.318  -0.107   0.080
    1UNL    C10   12  -0.432  -0.179   0.071
    1UNL    C11   13  -0.521  -0.143  -0.028
    1UNL    C12   14  -0.511  -0.029  -0.112
    1UNL     O1   15  -0.605  -0.004  -0.218
    1UNL    C13   16  -0.401   0.054  -0.088
    1UNL    C14   17  -0.297   0.013   0.001
    1UNL    C15   18   0.040  -0.026   0.159
    1UNL     O2   19   0.039  -0.061   0.297
    1UNL    C16   20   0.134  -0.123   0.079
    1UNL    C17   21   0.222  -0.039  -0.014
    1UNL    C18   22   0.143   0.059  -0.098
    1UNL    C19   23   0.062  -0.003  -0.213
    1UNL     O3   24   0.137  -0.063  -0.315
    1UNL     H1   25   0.605  -0.072  -0.026
    1UNL     H2   26   0.456  -0.061  -0.124
    1UNL     H3   27   0.562   0.083  -0.094
    1UNL     H4   28   0.481   0.084   0.157
    1UNL     H5   29   0.264   0.225   0.187
    1UNL     H6   30   0.246   0.070   0.276
    1UNL     H7   31   0.100   0.257  -0.010
    1UNL     H8   32  -0.118   0.179  -0.139
    1UNL     H9   33  -0.126   0.268   0.012
    1UNL    H10   34  -0.166  -0.208   0.206
    1UNL    H11   35  -0.441  -0.285   0.112
    1UNL    H12   36  -0.608  -0.209  -0.035
    1UNL    H13   37  -0.574   0.072  -0.265
    1UNL    H14   38  -0.390   0.132  -0.159
    1UNL    H15   39  -0.016   0.010   0.339
    1UNL    H16   40   0.199  -0.179   0.143
    1UNL    H17   41   0.078  -0.196   0.027
    1UNL    H18   42   0.284  -0.109  -0.079
    1UNL    H19   43   0.222   0.124  -0.146
    1UNL    H20   44   0.013   0.075  -0.266
    1UNL    H21   45  -0.025  -0.076  -0.189
    1UNL    H22   46   0.205  -0.119  -0.277
   0.00000   0.00000   0.00000   0.00000   0.00000   0.00000   0.00000   0.00000   0.00000
Generated with MDTraj, t= 71.0
 46
    1UNL     C1    1   0.538  -0.030   0.013
    1UNL     C2    2   0.444   0.067   0.076
    1UNL     C3    3   0.308   0.050   0.080
    1UNL     C4    4   0.222   0.126   0.177
    1UNL     N1    5   0.077   0.119   0.131
    1UNL     C5    6   0.057   0.163  -0.014
    1UNL     C6    7  -0.091   0.166  -0.048
    1UNL     C7    8  -0.163   0.048   0.017
    1UNL     C8    9  -0.113  -0.039   0.108
    1UNL     N2   10  -0.196  -0.133   0.142
    1UNL     C9   11  -0.310  -0.123   0.059
    1UNL    C10   12  -0.433  -0.193   0.060
    1UNL    C11   13  -0.534  -0.141  -0.022
    1UNL    C12   14  -0.519  -0.024  -0.099
    1UNL     O1   15  -0.636   0.033  -0.158
    1UNL    C13   16  -0.396   0.031  -0.101
    1UNL    C14   17  -0.288  -0.008  -0.017
    1UNL    C15   18   0.035  -0.030   0.150
    1UNL     O2   19   0.059  -0.061   0.295
    1UNL    C16   20   0.132  -0.113   0.061
    1UNL    C17   21   0.228  -0.029  -0.024
    1UNL    C18   22   0.142   0.072  -0.107
    1UNL    C19   23   0.073   0.012  -0.232
    1UNL     O3   24   0.150  -0.081  -0.304
    1UNL     H1   25   0.615  -0.079   0.081
    1UNL     H2   26   0.474  -0.117  -0.027
    1UNL     H3   27   0.594   0.015  -0.067
    1UNL     H4   28   0.495   0.146   0.142
    1UNL     H5   29   0.266   0.225   0.183
    1UNL     H6   30   0.227   0.081   0.274
    1UNL     H7   31   0.081   0.266  -0.015
    1UNL     H8   32  -0.094   0.164  -0.155
    1UNL     H9   33  -0.137   0.264  -0.017
    1UNL    H10   34  -0.167  -0.215   0.196
    1UNL    H11   35  -0.437  -0.282   0.109
    1UNL    H12   36  -0.626  -0.194  -0.019
    1UNL    H13   37  -0.613   0.115  -0.201
    1UNL    H14   38  -0.372   0.117  -0.165
    1UNL    H15   39   0.004   0.005   0.341
    1UNL    H16   40   0.183  -0.186   0.124
    1UNL    H17   41   0.077  -0.167  -0.007
    1UNL    H18   42   0.284  -0.094  -0.098
    1UNL    H19   43   0.223   0.140  -0.147
    1UNL    H20   44   0.049   0.084  -0.306
    1UNL    H21   45  -0.027  -0.037  -0.212
    1UNL    H22   46   0.183  -0.159  -0.250
   0.00000   0.00000   0.00000   0.00000   0.00000   0.00000   0.00000   0.00000   0.00000
Generated with MDTraj, t= 72.0
 46
    1UNL     C1    1   0.535  -0.043   0.052
    1UNL     C2    2   0.434   0.041   0.128
    1UNL     C3    3   0.310   0.068   0.081
    1UNL     C4    4   0.213   0.143   0.172
    1UNL     N1    5   0.080   0.121   0.112
    1UNL     C5    6   0.052   0.164  -0.028
    1UNL     C6    7  -0.104   0.163  -0.066
    1UNL     C7    8  -0.173   0.046  -0.002
    1UNL     C8    9  -0.097  -0.055   0.071
    1UNL     N2   10  -0.181  -0.157   0.091
    1UNL     C9   11  -0.309  -0.124   0.046
    1UNL    C10   12  -0.429  -0.193   0.069
    1UNL    C11   13  -0.542  -0.132   0.019
    1UNL    C12   14  -0.532  -0.019  -0.067
    1UNL     O1   15  -0.640   0.031  -0.137
    1UNL    C13   16  -0.415   0.053  -0.082
    1UNL    C14   17  -0.302   0.006  -0.008
    1UNL    C15   18   0.043  -0.032   0.124
    1UNL     O2   19   0.053  -0.061   0.263
    1UNL    C16   20   0.145  -0.110   0.046
    1UNL    C17   21   0.243  -0.007  -0.024
    1UNL    C18   22   0.152   0.083  -0.114
    1UNL    C19   23   0.081  -0.005  -0.217
    1UNL     O3   24   0.169  -0.088  -0.294
    1UNL     H1   25   0.642  -0.007   0.058
    1UNL     H2   26   0.534  -0.148   0.092
    1UNL     H3   27   0.519  -0.044  -0.057
    1UNL     H4   28   0.454   0.080   0.219
    1UNL     H5   29   0.227   0.251   0.180
    1UNL     H6   30   0.208   0.108   0.273
    1UNL     H7   31   0.073   0.268  -0.035
    1UNL     H8   32  -0.117   0.161  -0.170
    1UNL     H9   33  -0.152   0.259  -0.030
    1UNL    H10   34  -0.154  -0.231   0.156
    1UNL    H11   35  -0.432  -0.285   0.135
    1UNL    H12   36  -0.638  -0.183   0.023
    1UNL    H13   37  -0.609   0.105  -0.194
    1UNL    H14   38  -0.404   0.147  -0.130
    1UNL    H15   39  -0.015  -0.003   0.302
    1UNL    H16   40   0.197  -0.172   0.120
    1UNL    H17   41   0.100  -0.176  -0.019
    1UNL    H18   42   0.314  -0.074  -0.080
    1UNL    H19   43   0.224   0.147  -0.174
    1UNL    H20   44   0.021   0.053  -0.282
    1UNL    H21   45   0.009  -0.069  -0.164
    1UNL    H22   46   0.231  -0.137  -0.230
   0.00000   0.00000   0.00000   0.00000   0.00000   0.00000   0.00000   0.00000   0.00000
Generated with MDTraj, t= 73.0
 46
    1UNL     C1    1   0.546  -0.034   0.078
    1UNL     C2    2   0.438   0.056   0.124
    1UNL     C3    3   0.308   0.064   0.091
    1UNL     C4    4   0.203   0.148   0.157
    1UNL     N1    5   0.068   0.117   0.115
    1UNL     C5    6   0.061   0.153  -0.033
    1UNL     C6    7  -0.090   0.147  -0.085
    1UNL     C7    8  -0.162   0.034  -0.018
    1UNL     C8    9  -0.103  -0.051   0.073
    1UNL     N2   10  -0.193  -0.143   0.121
    1UNL     C9   11  -0.317  -0.124   0.059
    1UNL    C10   12  -0.434  -0.190   0.065
    1UNL    C11   13  -0.549  -0.142   0.006
    1UNL    C12   14  -0.534  -0.014  -0.059
    1UNL     O1   15  -0.651   0.052  -0.091
    1UNL    C13   16  -0.412   0.035  -0.096
    1UNL    C14   17  -0.298  -0.014  -0.023
    1UNL    C15   18   0.038  -0.038   0.126
    1UNL     O2   19   0.036  -0.074   0.259
    1UNL    C16   20   0.144  -0.117   0.052
    1UNL    C17   21   0.245  -0.017  -0.019
    1UNL    C18   22   0.166   0.081  -0.119
    1UNL    C19   23   0.097   0.013  -0.242
    1UNL     O3   24   0.181  -0.074  -0.314
    1UNL     H1   25   0.643  -0.022   0.134
    1UNL     H2   26   0.516  -0.137   0.092
    1UNL     H3   27   0.574  -0.011  -0.031
    1UNL     H4   28   0.472   0.138   0.196
    1UNL     H5   29   0.220   0.252   0.126
    1UNL     H6   30   0.203   0.155   0.264
    1UNL     H7   31   0.076   0.259  -0.040
    1UNL     H8   32  -0.095   0.146  -0.190
    1UNL     H9   33  -0.140   0.246  -0.065
    1UNL    H10   34  -0.164  -0.220   0.181
    1UNL    H11   35  -0.445  -0.285   0.108
    1UNL    H12   36  -0.637  -0.203  -0.007
    1UNL    H13   37  -0.628   0.145  -0.123
    1UNL    H14   38  -0.410   0.137  -0.139
    1UNL    H15   39  -0.031  -0.017   0.300
    1UNL    H16   40   0.196  -0.163   0.136
    1UNL    H17   41   0.100  -0.189  -0.011
    1UNL    H18   42   0.326  -0.076  -0.069
    1UNL    H19   43   0.244   0.153  -0.159
    1UNL    H20   44   0.073   0.091  -0.311
    1UNL    H21   45   0.009  -0.041  -0.210
    1UNL    H22   46   0.198  -0.153  -0.259
   0.00000   0.00000   0.00000   0.00000   0.00000   0.00000   0.00000   0.00000   0.00000
Generated with MDTraj, t= 74.0
 46
    1UNL     C1    1   0.515  -0.017   0.037
    1UNL     C2    2   0.432   0.064   0.116
    1UNL     C3    3   0.303   0.063   0.088
    1UNL     C4    4   0.204   0.151   0.155
    1UNL     N1    5   0.062   0.114   0.114
    1UNL     C5    6   0.045   0.150  -0.035
    1UNL     C6    7  -0.098   0.137  -0.078
    1UNL     C7    8  -0.166   0.024  -0.010
    1UNL     C8    9  -0.098  -0.063   0.072
    1UNL     N2   10  -0.190  -0.159   0.115
    1UNL     C9   11  -0.315  -0.128   0.057
    1UNL    C10   12  -0.442  -0.176   0.085
    1UNL    C11   13  -0.556  -0.111   0.032
    1UNL    C12   14  -0.534  -0.009  -0.062
    1UNL     O1   15  -0.645   0.052  -0.122
    1UNL    C13   16  -0.409   0.044  -0.082
    1UNL    C14   17  -0.301  -0.014  -0.020
    1UNL    C15   18   0.034  -0.045   0.134
    1UNL     O2   19   0.040  -0.078   0.271
    1UNL    C16   20   0.137  -0.124   0.058
    1UNL    C17   21   0.237  -0.033  -0.015
    1UNL    C18   22   0.158   0.070  -0.110
    1UNL    C19   23   0.123   0.002  -0.240
    1UNL     O3   24   0.235  -0.045  -0.315
    1UNL     H1   25   0.621  -0.021   0.076
    1UNL     H2   26   0.472  -0.117   0.038
    1UNL     H3   27   0.518   0.033  -0.068
    1UNL     H4   28   0.469   0.133   0.188
    1UNL     H5   29   0.221   0.259   0.144
    1UNL     H6   30   0.202   0.141   0.262
    1UNL     H7   31   0.059   0.259  -0.038
    1UNL     H8   32  -0.108   0.129  -0.184
    1UNL     H9   33  -0.152   0.235  -0.064
    1UNL    H10   34  -0.168  -0.231   0.183
    1UNL    H11   35  -0.452  -0.263   0.147
    1UNL    H12   36  -0.651  -0.157   0.051
    1UNL    H13   37  -0.617   0.106  -0.205
    1UNL    H14   38  -0.385   0.131  -0.138
    1UNL    H15   39  -0.009  -0.008   0.319
    1UNL    H16   40   0.185  -0.182   0.132
    1UNL    H17   41   0.081  -0.193  -0.007
    1UNL    H18   42   0.309  -0.088  -0.080
    1UNL    H19   43   0.232   0.152  -0.137
    1UNL    H20   44   0.069   0.067  -0.310
    1UNL    H21   45   0.070  -0.085  -0.214
    1UNL    H22   46   0.258  -0.134  -0.294
   0.00000   0.00000   0.00000   0.00000   0.00000   0.00000   0.00000   0.00000   0.00000
Generated with MDTraj, t= 75.0
 46
    1UNL     C1    1   0.554   0.019   0.028
    1UNL     C2    2   0.438   0.060   0.119
    1UNL     C3    3   0.308   0.045   0.096
    1UNL     C4    4   0.207   0.115   0.186
    1UNL     N1    5   0.072   0.100   0.121
    1UNL     C5    6   0.064   0.140  -0.031
    1UNL     C6    7  -0.085   0.129  -0.073
    1UNL     C7    8  -0.170   0.023  -0.011
    1UNL     C8    9  -0.111  -0.054   0.091
    1UNL     N2   10  -0.205  -0.129   0.148
    1UNL     C9   11  -0.333  -0.113   0.079
    1UNL    C10   12  -0.461  -0.157   0.107
    1UNL    C11   13  -0.562  -0.113   0.029
    1UNL    C12   14  -0.547  -0.017  -0.076
    1UNL     O1   15  -0.656   0.037  -0.151
    1UNL    C13   16  -0.418   0.032  -0.100
    1UNL    C14   17  -0.312  -0.015  -0.021
    1UNL    C15   18   0.039  -0.047   0.131
    1UNL     O2   19   0.053  -0.081   0.267
    1UNL    C16   20   0.131  -0.128   0.036
    1UNL    C17   21   0.243  -0.032  -0.022
    1UNL    C18   22   0.172   0.065  -0.119
    1UNL    C19   23   0.119   0.010  -0.249
    1UNL     O3   24   0.225  -0.030  -0.329
    1UNL     H1   25   0.620   0.106  -0.002
    1UNL     H2   26   0.616  -0.063   0.068
    1UNL     H3   27   0.510  -0.010  -0.071
    1UNL     H4   28   0.455   0.119   0.203
    1UNL     H5   29   0.212   0.224   0.208
    1UNL     H6   30   0.201   0.075   0.286
    1UNL     H7   31   0.088   0.248  -0.047
    1UNL     H8   32  -0.090   0.122  -0.184
    1UNL     H9   33  -0.138   0.228  -0.069
    1UNL    H10   34  -0.199  -0.176   0.238
    1UNL    H11   35  -0.459  -0.248   0.172
    1UNL    H12   36  -0.666  -0.135   0.052
    1UNL    H13   37  -0.630   0.061  -0.246
    1UNL    H14   38  -0.401   0.104  -0.177
    1UNL    H15   39   0.010  -0.010   0.323
    1UNL    H16   40   0.172  -0.196   0.100
    1UNL    H17   41   0.073  -0.189  -0.039
    1UNL    H18   42   0.322  -0.092  -0.069
    1UNL    H19   43   0.249   0.144  -0.151
    1UNL    H20   44   0.074   0.090  -0.311
    1UNL    H21   45   0.052  -0.068  -0.235
    1UNL    H22   46   0.278  -0.093  -0.278
   0.00000   0.00000   0.00000   0.00000   0.00000   0.00000   0.00000   0.00000   0.00000
Generated with MDTraj, t= 76.0
 46
    1UNL     C1    1   0.535  -0.000   0.007
    1UNL     C2    2   0.433   0.073   0.093
    1UNL     C3    3   0.304   0.051   0.090
    1UNL     C4    4   0.207   0.103   0.180
    1UNL     N1    5   0.071   0.098   0.127
    1UNL     C5    6   0.053   0.152  -0.020
    1UNL     C6    7  -0.087   0.130  -0.070
    1UNL     C7    8  -0.163   0.018  -0.007
    1UNL     C8    9  -0.106  -0.061   0.087
    1UNL     N2   10  -0.211  -0.132   0.153
    1UNL     C9   11  -0.333  -0.105   0.097
    1UNL    C10   12  -0.469  -0.152   0.110
    1UNL    C11   13  -0.560  -0.109   0.022
    1UNL    C12   14  -0.530  -0.016  -0.081
    1UNL     O1   15  -0.620   0.019  -0.179
    1UNL    C13   16  -0.405   0.047  -0.084
    1UNL    C14   17  -0.304  -0.009  -0.003
    1UNL    C15   18   0.036  -0.047   0.132
    1UNL     O2   19   0.042  -0.086   0.274
    1UNL    C16   20   0.139  -0.131   0.041
    1UNL    C17   21   0.237  -0.027  -0.027
    1UNL    C18   22   0.157   0.084  -0.110
    1UNL    C19   23   0.114   0.025  -0.246
    1UNL     O3   24   0.223  -0.039  -0.320
    1UNL     H1   25   0.561   0.051  -0.089
    1UNL     H2   26   0.630  -0.045   0.058
    1UNL     H3   27   0.484  -0.087  -0.033
    1UNL     H4   28   0.478   0.144   0.169
    1UNL     H5   29   0.227   0.207   0.215
    1UNL     H6   30   0.203   0.042   0.270
    1UNL     H7   31   0.070   0.264  -0.018
    1UNL     H8   32  -0.098   0.123  -0.184
    1UNL     H9   33  -0.141   0.225  -0.055
    1UNL    H10   34  -0.194  -0.203   0.224
    1UNL    H11   35  -0.487  -0.234   0.168
    1UNL    H12   36  -0.655  -0.157   0.030
    1UNL    H13   37  -0.573   0.040  -0.262
    1UNL    H14   38  -0.378   0.114  -0.166
    1UNL    H15   39  -0.010  -0.014   0.319
    1UNL    H16   40   0.183  -0.196   0.112
    1UNL    H17   41   0.084  -0.201  -0.026
    1UNL    H18   42   0.313  -0.077  -0.083
    1UNL    H19   43   0.233   0.167  -0.132
    1UNL    H20   44   0.073   0.104  -0.311
    1UNL    H21   45   0.036  -0.041  -0.240
    1UNL    H22   46   0.262  -0.115  -0.267
   0.00000   0.00000   0.00000   0.00000   0.00000   0.00000   0.00000   0.00000   0.00000
Generated with MDTraj, t= 77.0
 46
    1UNL     C1    1   0.539  -0.015   0.002
    1UNL     C2    2   0.437   0.037   0.104
    1UNL     C3    3   0.309   0.035   0.082
    1UNL     C4    4   0.218   0.127   0.170
    1UNL     N1    5   0.073   0.115   0.131
    1UNL     C5    6   0.058   0.162  -0.014
    1UNL     C6    7  -0.090   0.156  -0.043
    1UNL     C7    8  -0.162   0.034   0.001
    1UNL     C8    9  -0.110  -0.041   0.099
    1UNL     N2   10  -0.204  -0.133   0.143
    1UNL     C9   11  -0.314  -0.115   0.066
    1UNL    C10   12  -0.438  -0.179   0.075
    1UNL    C11   13  -0.545  -0.133   0.003
    1UNL    C12   14  -0.528  -0.021  -0.090
    1UNL     O1   15  -0.635   0.026  -0.160
    1UNL    C13   16  -0.405   0.038  -0.105
    1UNL    C14   17  -0.300  -0.004  -0.018
    1UNL    C15   18   0.033  -0.029   0.146
    1UNL     O2   19   0.058  -0.075   0.278
    1UNL    C16   20   0.123  -0.121   0.054
    1UNL    C17   21   0.226  -0.035  -0.018
    1UNL    C18   22   0.153   0.076  -0.104
    1UNL    C19   23   0.095   0.012  -0.228
    1UNL     O3   24   0.187  -0.046  -0.322
    1UNL     H1   25   0.493  -0.098  -0.055
    1UNL     H2   26   0.588   0.066  -0.066
    1UNL     H3   27   0.618  -0.065   0.055
    1UNL     H4   28   0.471   0.090   0.183
    1UNL     H5   29   0.240   0.236   0.186
    1UNL     H6   30   0.222   0.083   0.270
    1UNL     H7   31   0.090   0.272  -0.015
    1UNL     H8   32  -0.087   0.166  -0.158
    1UNL     H9   33  -0.142   0.246  -0.009
    1UNL    H10   34  -0.201  -0.208   0.211
    1UNL    H11   35  -0.457  -0.265   0.148
    1UNL    H12   36  -0.647  -0.176   0.001
    1UNL    H13   37  -0.606   0.088  -0.225
    1UNL    H14   38  -0.401   0.121  -0.169
    1UNL    H15   39   0.015  -0.008   0.334
    1UNL    H16   40   0.168  -0.196   0.121
    1UNL    H17   41   0.055  -0.171  -0.014
    1UNL    H18   42   0.289  -0.096  -0.079
    1UNL    H19   43   0.237   0.142  -0.147
    1UNL    H20   44   0.029   0.077  -0.284
    1UNL    H21   45   0.024  -0.055  -0.200
    1UNL    H22   46   0.264  -0.096  -0.280
   0.00000   0.00000   0.00000   0.00000   0.00000   0.00000   0.00000   0.00000   0.00000
Generated with MDTraj, t= 78.0
 46
    1UNL     C1    1   0.532  -0.062   0.016
    1UNL     C2    2   0.446   0.040   0.086
    1UNL     C3    3   0.315   0.052   0.085
    1UNL     C4    4   0.226   0.150   0.165
    1UNL     N1    5   0.083   0.117   0.135
    1UNL     C5    6   0.060   0.166  -0.013
    1UNL     C6    7  -0.092   0.175  -0.032
    1UNL     C7    8  -0.166   0.055   0.009
    1UNL     C8    9  -0.097  -0.035   0.093
    1UNL     N2   10  -0.180  -0.144   0.106
    1UNL     C9   11  -0.302  -0.122   0.050
    1UNL    C10   12  -0.424  -0.202   0.038
    1UNL    C11   13  -0.530  -0.149  -0.031
    1UNL    C12   14  -0.525  -0.018  -0.088
    1UNL     O1   15  -0.637   0.020  -0.158
    1UNL    C13   16  -0.405   0.058  -0.082
    1UNL    C14   17  -0.300   0.006  -0.011
    1UNL    C15   18   0.038  -0.023   0.155
    1UNL     O2   19   0.044  -0.062   0.293
    1UNL    C16   20   0.136  -0.116   0.076
    1UNL    C17   21   0.226  -0.033  -0.009
    1UNL    C18   22   0.144   0.066  -0.100
    1UNL    C19   23   0.059   0.002  -0.218
    1UNL     O3   24   0.144  -0.057  -0.314
    1UNL     H1   25   0.558  -0.135   0.095
    1UNL     H2   26   0.489  -0.113  -0.075
    1UNL     H3   27   0.629  -0.020  -0.015
    1UNL     H4   28   0.513   0.116   0.140
    1UNL     H5   29   0.241   0.254   0.128
    1UNL     H6   30   0.250   0.155   0.273
    1UNL     H7   31   0.099   0.273  -0.025
    1UNL     H8   32  -0.115   0.193  -0.143
    1UNL     H9   33  -0.124   0.267   0.017
    1UNL    H10   34  -0.173  -0.217   0.176
    1UNL    H11   35  -0.427  -0.299   0.082
    1UNL    H12   36  -0.610  -0.206  -0.070
    1UNL    H13   37  -0.632   0.112  -0.183
    1UNL    H14   38  -0.402   0.162  -0.119
    1UNL    H15   39  -0.019  -0.010   0.346
    1UNL    H16   40   0.193  -0.171   0.159
    1UNL    H17   41   0.082  -0.185   0.015
    1UNL    H18   42   0.281  -0.097  -0.073
    1UNL    H19   43   0.223   0.122  -0.161
    1UNL    H20   44  -0.001   0.077  -0.267
    1UNL    H21   45  -0.018  -0.061  -0.196
    1UNL    H22   46   0.158  -0.152  -0.297
   0.00000   0.00000   0.00000   0.00000   0.00000   0.00000   0.00000   0.00000   0.00000
Generated with MDTraj, t= 79.0
 46
    1UNL     C1    1   0.519  -0.053   0.014
    1UNL     C2    2   0.440   0.033   0.101
    1UNL     C3    3   0.313   0.057   0.077
    1UNL     C4    4   0.232   0.144   0.166
    1UNL     N1    5   0.091   0.130   0.128
    1UNL     C5    6   0.052   0.171  -0.007
    1UNL     C6    7  -0.102   0.177  -0.026
    1UNL     C7    8  -0.162   0.057   0.030
    1UNL     C8    9  -0.097  -0.037   0.097
    1UNL     N2   10  -0.177  -0.150   0.120
    1UNL     C9   11  -0.294  -0.128   0.048
    1UNL    C10   12  -0.407  -0.205   0.022
    1UNL    C11   13  -0.501  -0.157  -0.059
    1UNL    C12   14  -0.507  -0.023  -0.107
    1UNL     O1   15  -0.616   0.040  -0.167
    1UNL    C13   16  -0.397   0.060  -0.081
    1UNL    C14   17  -0.291   0.002  -0.009
    1UNL    C15   18   0.049  -0.014   0.149
    1UNL     O2   19   0.062  -0.060   0.283
    1UNL    C16   20   0.129  -0.112   0.060
    1UNL    C17   21   0.221  -0.019  -0.021
    1UNL    C18   22   0.133   0.082  -0.101
    1UNL    C19   23   0.035   0.002  -0.202
    1UNL     O3   24   0.085  -0.101  -0.284
    1UNL     H1   25   0.566  -0.129   0.081
    1UNL     H2   26   0.464  -0.102  -0.063
    1UNL     H3   27   0.601   0.004  -0.038
    1UNL     H4   28   0.494   0.070   0.184
    1UNL     H5   29   0.270   0.248   0.172
    1UNL     H6   30   0.246   0.100   0.267
    1UNL     H7   31   0.083   0.281  -0.020
    1UNL     H8   32  -0.125   0.191  -0.133
    1UNL     H9   33  -0.147   0.265   0.023
    1UNL    H10   34  -0.151  -0.246   0.144
    1UNL    H11   35  -0.410  -0.298   0.075
    1UNL    H12   36  -0.583  -0.224  -0.085
    1UNL    H13   37  -0.619   0.136  -0.146
    1UNL    H14   38  -0.403   0.165  -0.109
    1UNL    H15   39  -0.015  -0.037   0.341
    1UNL    H16   40   0.195  -0.178   0.129
    1UNL    H17   41   0.060  -0.174   0.006
    1UNL    H18   42   0.284  -0.080  -0.078
    1UNL    H19   43   0.202   0.153  -0.156
    1UNL    H20   44  -0.013   0.064  -0.277
    1UNL    H21   45  -0.050  -0.029  -0.156
    1UNL    H22   46   0.104  -0.174  -0.227
   0.00000   0.00000   0.00000   0.00000   0.00000   0.00000   0.00000   0.00000   0.00000
Generated with MDTraj, t= 80.0
 46
    1UNL     C1    1   0.546  -0.044  -0.014
    1UNL     C2    2   0.448   0.046   0.058
    1UNL     C3    3   0.316   0.038   0.065
    1UNL     C4    4   0.235   0.116   0.174
    1UNL     N1    5   0.088   0.121   0.146
    1UNL     C5    6   0.060   0.171   0.007
    1UNL     C6    7  -0.092   0.193   0.003
    1UNL     C7    8  -0.171   0.070   0.043
    1UNL     C8    9  -0.104  -0.023   0.114
    1UNL     N2   10  -0.181  -0.142   0.119
    1UNL     C9   11  -0.306  -0.120   0.058
    1UNL    C10   12  -0.425  -0.195   0.031
    1UNL    C11   13  -0.516  -0.155  -0.059
    1UNL    C12   14  -0.508  -0.029  -0.121
    1UNL     O1   15  -0.609   0.013  -0.210
    1UNL    C13   16  -0.398   0.051  -0.083
    1UNL    C14   17  -0.295   0.010  -0.003
    1UNL    C15   18   0.041  -0.017   0.158
    1UNL     O2   19   0.063  -0.059   0.289
    1UNL    C16   20   0.124  -0.109   0.058
    1UNL    C17   21   0.215  -0.025  -0.028
    1UNL    C18   22   0.130   0.078  -0.098
    1UNL    C19   23   0.036   0.010  -0.202
    1UNL     O3   24   0.096  -0.100  -0.263
    1UNL     H1   25   0.604  -0.101   0.064
    1UNL     H2   26   0.500  -0.113  -0.078
    1UNL     H3   27   0.623   0.012  -0.076
    1UNL     H4   28   0.496   0.118   0.121
    1UNL     H5   29   0.269   0.220   0.176
    1UNL     H6   30   0.261   0.072   0.274
    1UNL     H7   31   0.114   0.273   0.012
    1UNL     H8   32  -0.127   0.221  -0.095
    1UNL     H9   33  -0.120   0.279   0.068
    1UNL    H10   34  -0.148  -0.230   0.160
    1UNL    H11   35  -0.429  -0.298   0.079
    1UNL    H12   36  -0.609  -0.207  -0.071
    1UNL    H13   37  -0.608   0.114  -0.218
    1UNL    H14   38  -0.388   0.145  -0.129
    1UNL    H15   39   0.002  -0.013   0.351
    1UNL    H16   40   0.195  -0.181   0.111
    1UNL    H17   41   0.054  -0.168  -0.005
    1UNL    H18   42   0.272  -0.081  -0.099
    1UNL    H19   43   0.204   0.139  -0.155
    1UNL    H20   44   0.002   0.081  -0.278
    1UNL    H21   45  -0.052  -0.029  -0.164
    1UNL    H22   46   0.119  -0.175  -0.203
   0.00000   0.00000   0.00000   0.00000   0.00000   0.00000   0.00000   0.00000   0.00000
Generated with MDTraj, t= 81.0
 46
    1UNL     C1    1   0.507  -0.006  -0.060
    1UNL     C2    2   0.430   0.055   0.054
    1UNL     C3    3   0.304   0.037   0.074
    1UNL     C4    4   0.239   0.108   0.183
    1UNL     N1    5   0.094   0.113   0.142
    1UNL     C5    6   0.062   0.165   0.003
    1UNL     C6    7  -0.090   0.178  -0.013
    1UNL     C7    8  -0.155   0.055   0.031
    1UNL     C8    9  -0.109  -0.031   0.131
    1UNL     N2   10  -0.195  -0.136   0.143
    1UNL     C9   11  -0.310  -0.101   0.073
    1UNL    C10   12  -0.427  -0.186   0.055
    1UNL    C11   13  -0.516  -0.148  -0.043
    1UNL    C12   14  -0.488  -0.030  -0.123
    1UNL     O1   15  -0.579   0.013  -0.220
    1UNL    C13   16  -0.375   0.046  -0.103
    1UNL    C14   17  -0.286   0.007  -0.005
    1UNL    C15   18   0.030  -0.021   0.173
    1UNL     O2   19   0.045  -0.063   0.314
    1UNL    C16   20   0.111  -0.122   0.086
    1UNL    C17   21   0.204  -0.048  -0.016
    1UNL    C18   22   0.136   0.063  -0.098
    1UNL    C19   23   0.043  -0.002  -0.206
    1UNL     O3   24   0.115  -0.060  -0.314
    1UNL     H1   25   0.583  -0.077  -0.018
    1UNL     H2   26   0.445  -0.058  -0.135
    1UNL     H3   27   0.568   0.069  -0.117
    1UNL     H4   28   0.486   0.121   0.130
    1UNL     H5   29   0.288   0.204   0.197
    1UNL     H6   30   0.244   0.048   0.278
    1UNL     H7   31   0.118   0.264  -0.015
    1UNL     H8   32  -0.112   0.203  -0.112
    1UNL     H9   33  -0.134   0.260   0.049
    1UNL    H10   34  -0.185  -0.206   0.218
    1UNL    H11   35  -0.435  -0.272   0.108
    1UNL    H12   36  -0.614  -0.191  -0.058
    1UNL    H13   37  -0.558   0.110  -0.244
    1UNL    H14   38  -0.355   0.125  -0.177
    1UNL    H15   39  -0.020  -0.015   0.368
    1UNL    H16   40   0.174  -0.188   0.150
    1UNL    H17   41   0.032  -0.188   0.030
    1UNL    H18   42   0.250  -0.113  -0.090
    1UNL    H19   43   0.219   0.106  -0.157
    1UNL    H20   44  -0.027   0.067  -0.253
    1UNL    H21   45  -0.015  -0.075  -0.156
    1UNL    H22   46   0.198  -0.114  -0.288
   0.00000   0.00000   0.00000   0.00000   0.00000   0.00000   0.00000   0.00000   0.00000
Generated with MDTraj, t= 82.0
 46
    1UNL     C1    1   0.501   0.009  -0.086
    1UNL     C2    2   0.443   0.048   0.054
    1UNL     C3    3   0.316   0.038   0.082
    1UNL     C4    4   0.241   0.119   0.185
    1UNL     N1    5   0.091   0.113   0.153
    1UNL     C5    6   0.067   0.146   0.014
    1UNL     C6    7  -0.080   0.171  -0.026
    1UNL     C7    8  -0.157   0.046   0.023
    1UNL     C8    9  -0.111  -0.038   0.120
    1UNL     N2   10  -0.218  -0.121   0.157
    1UNL     C9   11  -0.330  -0.099   0.084
    1UNL    C10   12  -0.444  -0.173   0.061
    1UNL    C11   13  -0.523  -0.142  -0.044
    1UNL    C12   14  -0.500  -0.029  -0.127
    1UNL     O1   15  -0.584  -0.001  -0.228
    1UNL    C13   16  -0.389   0.051  -0.101
    1UNL    C14   17  -0.294   0.011  -0.002
    1UNL    C15   18   0.037  -0.031   0.175
    1UNL     O2   19   0.049  -0.071   0.312
    1UNL    C16   20   0.124  -0.126   0.089
    1UNL    C17   21   0.224  -0.042  -0.008
    1UNL    C18   22   0.141   0.051  -0.092
    1UNL    C19   23   0.048  -0.011  -0.208
    1UNL     O3   24   0.138  -0.038  -0.318
    1UNL     H1   25   0.519  -0.100  -0.093
    1UNL     H2   26   0.440   0.045  -0.177
    1UNL     H3   27   0.599   0.054  -0.097
    1UNL     H4   28   0.495   0.100   0.122
    1UNL     H5   29   0.272   0.222   0.180
    1UNL     H6   30   0.258   0.080   0.288
    1UNL     H7   31   0.124   0.246   0.005
    1UNL     H8   32  -0.106   0.190  -0.124
    1UNL     H9   33  -0.122   0.255   0.034
    1UNL    H10   34  -0.199  -0.204   0.215
    1UNL    H11   35  -0.485  -0.251   0.132
    1UNL    H12   36  -0.612  -0.199  -0.061
    1UNL    H13   37  -0.562   0.091  -0.262
    1UNL    H14   38  -0.370   0.134  -0.161
    1UNL    H15   39  -0.011  -0.011   0.358
    1UNL    H16   40   0.179  -0.197   0.156
    1UNL    H17   41   0.056  -0.198   0.025
    1UNL    H18   42   0.283  -0.112  -0.067
    1UNL    H19   43   0.209   0.114  -0.149
    1UNL    H20   44  -0.025   0.065  -0.226
    1UNL    H21   45  -0.004  -0.100  -0.180
    1UNL    H22   46   0.195  -0.112  -0.281
   0.00000   0.00000   0.00000   0.00000   0.00000   0.00000   0.00000   0.00000   0.00000
Generated with MDTraj, t= 83.0
 46
    1UNL     C1    1   0.531  -0.004  -0.031
    1UNL     C2    2   0.441   0.050   0.071
    1UNL     C3    3   0.311   0.036   0.073
    1UNL     C4    4   0.235   0.113   0.176
    1UNL     N1    5   0.086   0.115   0.148
    1UNL     C5    6   0.060   0.160   0.005
    1UNL     C6    7  -0.093   0.177  -0.028
    1UNL     C7    8  -0.164   0.055   0.026
    1UNL     C8    9  -0.113  -0.036   0.117
    1UNL     N2   10  -0.195  -0.138   0.140
    1UNL     C9   11  -0.307  -0.113   0.065
    1UNL    C10   12  -0.430  -0.180   0.063
    1UNL    C11   13  -0.528  -0.134  -0.025
    1UNL    C12   14  -0.514  -0.019  -0.105
    1UNL     O1   15  -0.606   0.007  -0.215
    1UNL    C13   16  -0.394   0.053  -0.095
    1UNL    C14   17  -0.289   0.002  -0.014
    1UNL    C15   18   0.037  -0.031   0.161
    1UNL     O2   19   0.055  -0.074   0.296
    1UNL    C16   20   0.114  -0.120   0.064
    1UNL    C17   21   0.216  -0.037  -0.023
    1UNL    C18   22   0.138   0.070  -0.098
    1UNL    C19   23   0.059   0.016  -0.224
    1UNL     O3   24   0.135  -0.085  -0.286
    1UNL     H1   25   0.539  -0.114  -0.019
    1UNL     H2   26   0.498   0.028  -0.136
    1UNL     H3   27   0.632   0.032  -0.012
    1UNL     H4   28   0.488   0.125   0.144
    1UNL     H5   29   0.280   0.210   0.163
    1UNL     H6   30   0.247   0.082   0.283
    1UNL     H7   31   0.108   0.264   0.004
    1UNL     H8   32  -0.108   0.186  -0.132
    1UNL     H9   33  -0.139   0.262   0.026
    1UNL    H10   34  -0.184  -0.212   0.211
    1UNL    H11   35  -0.451  -0.253   0.138
    1UNL    H12   36  -0.618  -0.192  -0.033
    1UNL    H13   37  -0.572   0.072  -0.278
    1UNL    H14   38  -0.379   0.147  -0.148
    1UNL    H15   39   0.009  -0.011   0.356
    1UNL    H16   40   0.168  -0.208   0.114
    1UNL    H17   41   0.037  -0.176  -0.001
    1UNL    H18   42   0.271  -0.103  -0.092
    1UNL    H19   43   0.218   0.134  -0.131
    1UNL    H20   44   0.023   0.086  -0.297
    1UNL    H21   45  -0.032  -0.030  -0.189
    1UNL    H22   46   0.197  -0.058  -0.353
   0.00000   0.00000   0.00000   0.00000   0.00000   0.00000   0.00000   0.00000   0.00000
Generated with MDTraj, t= 84.0
 46
    1UNL     C1    1   0.533  -0.045   0.033
    1UNL     C2    2   0.440   0.051   0.090
    1UNL     C3    3   0.308   0.058   0.073
    1UNL     C4    4   0.222   0.133   0.177
    1UNL     N1    5   0.080   0.121   0.129
    1UNL     C5    6   0.052   0.171  -0.010
    1UNL     C6    7  -0.105   0.180  -0.040
    1UNL     C7    8  -0.161   0.054   0.007
    1UNL     C8    9  -0.097  -0.040   0.096
    1UNL     N2   10  -0.183  -0.140   0.125
    1UNL     C9   11  -0.299  -0.119   0.052
    1UNL    C10   12  -0.417  -0.198   0.045
    1UNL    C11   13  -0.525  -0.144  -0.031
    1UNL    C12   14  -0.520  -0.014  -0.091
    1UNL     O1   15  -0.634   0.030  -0.162
    1UNL    C13   16  -0.401   0.054  -0.080
    1UNL    C14   17  -0.289   0.003  -0.019
    1UNL    C15   18   0.046  -0.035   0.144
    1UNL     O2   19   0.049  -0.080   0.281
    1UNL    C16   20   0.135  -0.112   0.051
    1UNL    C17   21   0.226  -0.018  -0.033
    1UNL    C18   22   0.144   0.083  -0.111
    1UNL    C19   23   0.065   0.001  -0.211
    1UNL     O3   24   0.136  -0.093  -0.282
    1UNL     H1   25   0.518  -0.146   0.077
    1UNL     H2   26   0.529  -0.046  -0.079
    1UNL     H3   27   0.637  -0.017   0.059
    1UNL     H4   28   0.484   0.109   0.169
    1UNL     H5   29   0.248   0.235   0.195
    1UNL     H6   30   0.235   0.077   0.272
    1UNL     H7   31   0.094   0.279  -0.001
    1UNL     H8   32  -0.119   0.183  -0.149
    1UNL     H9   33  -0.157   0.263   0.004
    1UNL    H10   34  -0.169  -0.207   0.202
    1UNL    H11   35  -0.432  -0.279   0.112
    1UNL    H12   36  -0.618  -0.200  -0.044
    1UNL    H13   37  -0.617   0.109  -0.212
    1UNL    H14   38  -0.385   0.149  -0.128
    1UNL    H15   39   0.004  -0.011   0.336
    1UNL    H16   40   0.201  -0.192   0.107
    1UNL    H17   41   0.074  -0.179  -0.014
    1UNL    H18   42   0.287  -0.071  -0.108
    1UNL    H19   43   0.210   0.153  -0.158
    1UNL    H20   44   0.014   0.068  -0.280
    1UNL    H21   45  -0.009  -0.065  -0.166
    1UNL    H22   46   0.091  -0.181  -0.305
   0.00000   0.00000   0.00000   0.00000   0.00000   0.00000   0.00000   0.00000   0.00000
Generated with MDTraj, t= 85.0
 46
    1UNL     C1    1   0.528  -0.064   0.045
    1UNL     C2    2   0.439   0.031   0.123
    1UNL     C3    3   0.315   0.063   0.088
    1UNL     C4    4   0.220   0.148   0.173
    1UNL     N1    5   0.077   0.128   0.122
    1UNL     C5    6   0.061   0.164  -0.020
    1UNL     C6    7  -0.092   0.164  -0.057
    1UNL     C7    8  -0.161   0.042  -0.008
    1UNL     C8    9  -0.101  -0.047   0.075
    1UNL     N2   10  -0.183  -0.161   0.100
    1UNL     C9   11  -0.308  -0.135   0.039
    1UNL    C10   12  -0.424  -0.205   0.034
    1UNL    C11   13  -0.532  -0.145  -0.021
    1UNL    C12   14  -0.530  -0.013  -0.071
    1UNL     O1   15  -0.651   0.042  -0.121
    1UNL    C13   16  -0.414   0.055  -0.068
    1UNL    C14   17  -0.293  -0.006  -0.019
    1UNL    C15   18   0.042  -0.018   0.129
    1UNL     O2   19   0.038  -0.049   0.273
    1UNL    C16   20   0.148  -0.098   0.062
    1UNL    C17   21   0.244  -0.010  -0.020
    1UNL    C18   22   0.153   0.079  -0.112
    1UNL    C19   23   0.068  -0.004  -0.219
    1UNL     O3   24   0.148  -0.083  -0.302
    1UNL     H1   25   0.488  -0.166   0.024
    1UNL     H2   26   0.557  -0.019  -0.049
    1UNL     H3   27   0.624  -0.084   0.102
    1UNL     H4   28   0.480   0.080   0.206
    1UNL     H5   29   0.251   0.249   0.159
    1UNL     H6   30   0.219   0.125   0.281
    1UNL     H7   31   0.095   0.274  -0.042
    1UNL     H8   32  -0.119   0.182  -0.166
    1UNL     H9   33  -0.133   0.240   0.001
    1UNL    H10   34  -0.153  -0.242   0.155
    1UNL    H11   35  -0.444  -0.306   0.083
    1UNL    H12   36  -0.631  -0.186  -0.012
    1UNL    H13   37  -0.630   0.127  -0.156
    1UNL    H14   38  -0.410   0.147  -0.120
    1UNL    H15   39   0.021   0.035   0.324
    1UNL    H16   40   0.213  -0.145   0.149
    1UNL    H17   41   0.110  -0.189   0.012
    1UNL    H18   42   0.315  -0.059  -0.088
    1UNL    H19   43   0.217   0.142  -0.170
    1UNL    H20   44   0.015   0.059  -0.291
    1UNL    H21   45   0.001  -0.069  -0.161
    1UNL    H22   46   0.240  -0.081  -0.258
   0.00000   0.00000   0.00000   0.00000   0.00000   0.00000   0.00000   0.00000   0.00000
Generated with MDTraj, t= 86.0
 46
    1UNL     C1    1   0.531  -0.043   0.056
    1UNL     C2    2   0.435   0.054   0.118
    1UNL     C3    3   0.306   0.057   0.086
    1UNL     C4    4   0.220   0.141   0.161
    1UNL     N1    5   0.080   0.121   0.120
    1UNL     C5    6   0.055   0.159  -0.025
    1UNL     C6    7  -0.095   0.162  -0.061
    1UNL     C7    8  -0.165   0.050  -0.001
    1UNL     C8    9  -0.111  -0.040   0.089
    1UNL     N2   10  -0.191  -0.156   0.107
    1UNL     C9   11  -0.313  -0.122   0.048
    1UNL    C10   12  -0.432  -0.198   0.052
    1UNL    C11   13  -0.544  -0.137  -0.002
    1UNL    C12   14  -0.531  -0.017  -0.067
    1UNL     O1   15  -0.647   0.041  -0.109
    1UNL    C13   16  -0.410   0.047  -0.091
    1UNL    C14   17  -0.293  -0.002  -0.023
    1UNL    C15   18   0.034  -0.025   0.138
    1UNL     O2   19   0.042  -0.073   0.275
    1UNL    C16   20   0.121  -0.117   0.056
    1UNL    C17   21   0.230  -0.031  -0.016
    1UNL    C18   22   0.155   0.072  -0.110
    1UNL    C19   23   0.100   0.005  -0.239
    1UNL     O3   24   0.202  -0.069  -0.318
    1UNL     H1   25   0.518  -0.149   0.086
    1UNL     H2   26   0.519  -0.038  -0.050
    1UNL     H3   27   0.640  -0.020   0.078
    1UNL     H4   28   0.475   0.113   0.209
    1UNL     H5   29   0.243   0.246   0.148
    1UNL     H6   30   0.232   0.115   0.267
    1UNL     H7   31   0.089   0.271  -0.033
    1UNL     H8   32  -0.108   0.148  -0.173
    1UNL     H9   33  -0.140   0.252  -0.040
    1UNL    H10   34  -0.178  -0.232   0.174
    1UNL    H11   35  -0.437  -0.290   0.097
    1UNL    H12   36  -0.640  -0.177   0.027
    1UNL    H13   37  -0.627   0.129  -0.145
    1UNL    H14   38  -0.401   0.138  -0.156
    1UNL    H15   39   0.011   0.007   0.322
    1UNL    H16   40   0.166  -0.204   0.114
    1UNL    H17   41   0.060  -0.170  -0.021
    1UNL    H18   42   0.296  -0.095  -0.076
    1UNL    H19   43   0.233   0.136  -0.145
    1UNL    H20   44   0.062   0.097  -0.293
    1UNL    H21   45   0.028  -0.072  -0.211
    1UNL    H22   46   0.194  -0.040  -0.410
   0.00000   0.00000   0.00000   0.00000   0.00000   0.00000   0.00000   0.00000   0.00000
Generated with MDTraj, t= 87.0
 46
    1UNL     C1    1   0.534  -0.028   0.025
    1UNL     C2    2   0.434   0.057   0.101
    1UNL     C3    3   0.300   0.053   0.090
    1UNL     C4    4   0.202   0.136   0.175
    1UNL     N1    5   0.064   0.097   0.126
    1UNL     C5    6   0.052   0.151  -0.023
    1UNL     C6    7  -0.093   0.138  -0.066
    1UNL     C7    8  -0.170   0.037   0.003
    1UNL     C8    9  -0.107  -0.059   0.085
    1UNL     N2   10  -0.194  -0.147   0.137
    1UNL     C9   11  -0.322  -0.109   0.086
    1UNL    C10   12  -0.448  -0.167   0.098
    1UNL    C11   13  -0.555  -0.118   0.020
    1UNL    C12   14  -0.534  -0.016  -0.081
    1UNL     O1   15  -0.639   0.037  -0.159
    1UNL    C13   16  -0.409   0.041  -0.093
    1UNL    C14   17  -0.303  -0.006  -0.013
    1UNL    C15   18   0.035  -0.047   0.131
    1UNL     O2   19   0.038  -0.095   0.266
    1UNL    C16   20   0.135  -0.116   0.037
    1UNL    C17   21   0.238  -0.019  -0.021
    1UNL    C18   22   0.166   0.083  -0.112
    1UNL    C19   23   0.117   0.024  -0.244
    1UNL     O3   24   0.227  -0.046  -0.314
    1UNL     H1   25   0.515  -0.137   0.022
    1UNL     H2   26   0.542   0.010  -0.078
    1UNL     H3   27   0.635  -0.015   0.067
    1UNL     H4   28   0.468   0.117   0.174
    1UNL     H5   29   0.217   0.243   0.165
    1UNL     H6   30   0.206   0.116   0.281
    1UNL     H7   31   0.081   0.264  -0.011
    1UNL     H8   32  -0.091   0.124  -0.176
    1UNL     H9   33  -0.142   0.230  -0.059
    1UNL    H10   34  -0.195  -0.218   0.209
    1UNL    H11   35  -0.464  -0.247   0.177
    1UNL    H12   36  -0.655  -0.157   0.029
    1UNL    H13   37  -0.609   0.120  -0.208
    1UNL    H14   38  -0.396   0.120  -0.158
    1UNL    H15   39  -0.010  -0.028   0.318
    1UNL    H16   40   0.192  -0.197   0.081
    1UNL    H17   41   0.078  -0.168  -0.047
    1UNL    H18   42   0.317  -0.082  -0.066
    1UNL    H19   43   0.247   0.149  -0.135
    1UNL    H20   44   0.090   0.110  -0.314
    1UNL    H21   45   0.040  -0.050  -0.211
    1UNL    H22   46   0.260  -0.110  -0.251
   0.00000   0.00000   0.00000   0.00000   0.00000   0.00000   0.00000   0.00000   0.00000
Generated with MDTraj, t= 88.0
 46
    1UNL     C1    1   0.545   0.021   0.020
    1UNL     C2    2   0.446   0.043   0.119
    1UNL     C3    3   0.316   0.036   0.094
    1UNL     C4    4   0.219   0.104   0.176
    1UNL     N1    5   0.074   0.089   0.122
    1UNL     C5    6   0.052   0.145  -0.018
    1UNL     C6    7  -0.089   0.128  -0.070
    1UNL     C7    8  -0.170   0.020  -0.006
    1UNL     C8    9  -0.108  -0.059   0.087
    1UNL     N2   10  -0.212  -0.129   0.156
    1UNL     C9   11  -0.334  -0.099   0.096
    1UNL    C10   12  -0.468  -0.136   0.114
    1UNL    C11   13  -0.564  -0.102   0.019
    1UNL    C12   14  -0.536  -0.016  -0.090
    1UNL     O1   15  -0.639   0.020  -0.179
    1UNL    C13   16  -0.408   0.024  -0.108
    1UNL    C14   17  -0.308  -0.015  -0.011
    1UNL    C15   18   0.041  -0.055   0.132
    1UNL     O2   19   0.044  -0.085   0.271
    1UNL    C16   20   0.137  -0.132   0.041
    1UNL    C17   21   0.245  -0.031  -0.025
    1UNL    C18   22   0.168   0.080  -0.107
    1UNL    C19   23   0.111   0.023  -0.235
    1UNL     O3   24   0.206  -0.015  -0.335
    1UNL     H1   25   0.533  -0.071  -0.041
    1UNL     H2   26   0.541   0.113  -0.046
    1UNL     H3   27   0.642   0.018   0.068
    1UNL     H4   28   0.484   0.084   0.217
    1UNL     H5   29   0.245   0.210   0.182
    1UNL     H6   30   0.229   0.068   0.277
    1UNL     H7   31   0.069   0.260  -0.005
    1UNL     H8   32  -0.083   0.120  -0.177
    1UNL     H9   33  -0.138   0.223  -0.064
    1UNL    H10   34  -0.204  -0.209   0.217
    1UNL    H11   35  -0.503  -0.179   0.208
    1UNL    H12   36  -0.666  -0.125   0.044
    1UNL    H13   37  -0.601   0.093  -0.240
    1UNL    H14   38  -0.380   0.103  -0.177
    1UNL    H15   39   0.006  -0.011   0.326
    1UNL    H16   40   0.180  -0.206   0.102
    1UNL    H17   41   0.083  -0.190  -0.041
    1UNL    H18   42   0.311  -0.088  -0.093
    1UNL    H19   43   0.241   0.154  -0.137
    1UNL    H20   44   0.061   0.113  -0.287
    1UNL    H21   45   0.056  -0.072  -0.218
    1UNL    H22   46   0.254  -0.102  -0.322
   0.00000   0.00000   0.00000   0.00000   0.00000   0.00000   0.00000   0.00000   0.00000
Generated with MDTraj, t= 89.0
 46
    1UNL     C1    1   0.516  -0.020  -0.001
    1UNL     C2    2   0.431   0.071   0.082
    1UNL     C3    3   0.300   0.044   0.094
    1UNL     C4    4   0.206   0.118   0.186
    1UNL     N1    5   0.069   0.106   0.125
    1UNL     C5    6   0.059   0.153  -0.017
    1UNL     C6    7  -0.083   0.143  -0.060
    1UNL     C7    8  -0.163   0.029   0.005
    1UNL     C8    9  -0.110  -0.054   0.100
    1UNL     N2   10  -0.208  -0.147   0.139
    1UNL     C9   11  -0.325  -0.109   0.076
    1UNL    C10   12  -0.453  -0.159   0.090
    1UNL    C11   13  -0.558  -0.109   0.019
    1UNL    C12   14  -0.528  -0.013  -0.085
    1UNL     O1   15  -0.631   0.023  -0.163
    1UNL    C13   16  -0.399   0.043  -0.100
    1UNL    C14   17  -0.297  -0.006  -0.013
    1UNL    C15   18   0.038  -0.038   0.135
    1UNL     O2   19   0.051  -0.089   0.273
    1UNL    C16   20   0.124  -0.130   0.046
    1UNL    C17   21   0.229  -0.035  -0.015
    1UNL    C18   22   0.157   0.066  -0.106
    1UNL    C19   23   0.113   0.009  -0.238
    1UNL     O3   24   0.230  -0.017  -0.312
    1UNL     H1   25   0.510  -0.127   0.022
    1UNL     H2   26   0.498   0.002  -0.110
    1UNL     H3   27   0.618   0.008   0.016
    1UNL     H4   28   0.477   0.139   0.155
    1UNL     H5   29   0.227   0.224   0.204
    1UNL     H6   30   0.207   0.072   0.283
    1UNL     H7   31   0.088   0.267  -0.021
    1UNL     H8   32  -0.088   0.137  -0.164
    1UNL     H9   33  -0.126   0.240  -0.042
    1UNL    H10   34  -0.205  -0.204   0.223
    1UNL    H11   35  -0.470  -0.218   0.171
    1UNL    H12   36  -0.656  -0.153   0.018
    1UNL    H13   37  -0.605   0.092  -0.234
    1UNL    H14   38  -0.375   0.105  -0.187
    1UNL    H15   39  -0.030  -0.060   0.322
    1UNL    H16   40   0.177  -0.200   0.106
    1UNL    H17   41   0.057  -0.187  -0.019
    1UNL    H18   42   0.307  -0.086  -0.073
    1UNL    H19   43   0.231   0.140  -0.137
    1UNL    H20   44   0.059   0.086  -0.305
    1UNL    H21   45   0.063  -0.086  -0.218
    1UNL    H22   46   0.264  -0.110  -0.284
   0.00000   0.00000   0.00000   0.00000   0.00000   0.00000   0.00000   0.00000   0.00000
Generated with MDTraj, t= 90.0
 46
    1UNL     C1    1   0.546  -0.021   0.018
    1UNL     C2    2   0.442   0.053   0.100
    1UNL     C3    3   0.307   0.042   0.087
    1UNL     C4    4   0.220   0.120   0.173
    1UNL     N1    5   0.078   0.115   0.125
    1UNL     C5    6   0.071   0.155  -0.022
    1UNL     C6    7  -0.089   0.148  -0.058
    1UNL     C7    8  -0.173   0.040   0.005
    1UNL     C8    9  -0.114  -0.043   0.103
    1UNL     N2   10  -0.203  -0.145   0.132
    1UNL     C9   11  -0.317  -0.126   0.055
    1UNL    C10   12  -0.441  -0.198   0.049
    1UNL    C11   13  -0.543  -0.140  -0.019
    1UNL    C12   14  -0.529  -0.007  -0.075
    1UNL     O1   15  -0.648   0.032  -0.139
    1UNL    C13   16  -0.405   0.058  -0.084
    1UNL    C14   17  -0.305  -0.000  -0.013
    1UNL    C15   18   0.033  -0.026   0.145
    1UNL     O2   19   0.049  -0.056   0.284
    1UNL    C16   20   0.120  -0.121   0.058
    1UNL    C17   21   0.229  -0.042  -0.019
    1UNL    C18   22   0.165   0.067  -0.111
    1UNL    C19   23   0.099   0.022  -0.237
    1UNL     O3   24   0.191  -0.052  -0.314
    1UNL     H1   25   0.545  -0.129   0.024
    1UNL     H2   26   0.542   0.011  -0.088
    1UNL     H3   27   0.649   0.004   0.045
    1UNL     H4   28   0.479   0.103   0.181
    1UNL     H5   29   0.261   0.222   0.188
    1UNL     H6   30   0.217   0.077   0.272
    1UNL     H7   31   0.093   0.266  -0.037
    1UNL     H8   32  -0.104   0.156  -0.160
    1UNL     H9   33  -0.125   0.243  -0.019
    1UNL    H10   34  -0.194  -0.212   0.208
    1UNL    H11   35  -0.456  -0.302   0.096
    1UNL    H12   36  -0.642  -0.182  -0.019
    1UNL    H13   37  -0.637   0.119  -0.186
    1UNL    H14   38  -0.385   0.142  -0.140
    1UNL    H15   39  -0.037  -0.040   0.325
    1UNL    H16   40   0.169  -0.185   0.130
    1UNL    H17   41   0.064  -0.181  -0.006
    1UNL    H18   42   0.299  -0.105  -0.077
    1UNL    H19   43   0.241   0.138  -0.147
    1UNL    H20   44   0.084   0.120  -0.297
    1UNL    H21   45   0.011  -0.036  -0.214
    1UNL    H22   46   0.183  -0.148  -0.288
   0.00000   0.00000   0.00000   0.00000   0.00000   0.00000   0.00000   0.00000   0.00000
Generated with MDTraj, t= 91.0
 46
    1UNL     C1    1   0.529  -0.050   0.027
    1UNL     C2    2   0.443   0.037   0.118
    1UNL     C3    3   0.315   0.062   0.085
    1UNL     C4    4   0.223   0.146   0.165
    1UNL     N1    5   0.079   0.121   0.125
    1UNL     C5    6   0.056   0.175  -0.011
    1UNL     C6    7  -0.101   0.175  -0.037
    1UNL     C7    8  -0.155   0.042  -0.001
    1UNL     C8    9  -0.093  -0.055   0.069
    1UNL     N2   10  -0.184  -0.151   0.111
    1UNL     C9   11  -0.297  -0.126   0.041
    1UNL    C10   12  -0.420  -0.196   0.040
    1UNL    C11   13  -0.529  -0.133  -0.017
    1UNL    C12   14  -0.528  -0.011  -0.083
    1UNL     O1   15  -0.641   0.036  -0.148
    1UNL    C13   16  -0.411   0.060  -0.073
    1UNL    C14   17  -0.291   0.000  -0.024
    1UNL    C15   18   0.045  -0.036   0.135
    1UNL     O2   19   0.038  -0.071   0.277
    1UNL    C16   20   0.154  -0.115   0.061
    1UNL    C17   21   0.242  -0.011  -0.022
    1UNL    C18   22   0.140   0.084  -0.109
    1UNL    C19   23   0.059  -0.009  -0.196
    1UNL     O3   24   0.132  -0.083  -0.296
    1UNL     H1   25   0.497  -0.153   0.012
    1UNL     H2   26   0.536  -0.002  -0.070
    1UNL     H3   27   0.633  -0.057   0.069
    1UNL     H4   28   0.484   0.078   0.219
    1UNL     H5   29   0.242   0.256   0.155
    1UNL     H6   30   0.232   0.126   0.270
    1UNL     H7   31   0.088   0.283  -0.011
    1UNL     H8   32  -0.121   0.182  -0.142
    1UNL     H9   33  -0.149   0.252   0.023
    1UNL    H10   34  -0.155  -0.244   0.138
    1UNL    H11   35  -0.423  -0.289   0.084
    1UNL    H12   36  -0.623  -0.186  -0.025
    1UNL    H13   37  -0.619   0.116  -0.198
    1UNL    H14   38  -0.411   0.159  -0.129
    1UNL    H15   39  -0.033  -0.022   0.322
    1UNL    H16   40   0.216  -0.166   0.132
    1UNL    H17   41   0.108  -0.190   0.008
    1UNL    H18   42   0.312  -0.061  -0.089
    1UNL    H19   43   0.196   0.152  -0.175
    1UNL    H20   44  -0.025   0.044  -0.253
    1UNL    H21   45   0.026  -0.085  -0.128
    1UNL    H22   46   0.210  -0.130  -0.269
   0.00000   0.00000   0.00000   0.00000   0.00000   0.00000   0.00000   0.00000   0.00000
Generated with MDTraj, t= 92.0
 46
    1UNL     C1    1   0.532  -0.048   0.032
    1UNL     C2    2   0.437   0.053   0.088
    1UNL     C3    3   0.303   0.053   0.074
    1UNL     C4    4   0.218   0.143   0.166
    1UNL     N1    5   0.075   0.117   0.143
    1UNL     C5    6   0.054   0.159  -0.001
    1UNL     C6    7  -0.100   0.180  -0.024
    1UNL     C7    8  -0.161   0.054   0.021
    1UNL     C8    9  -0.101  -0.038   0.103
    1UNL     N2   10  -0.182  -0.146   0.129
    1UNL     C9   11  -0.292  -0.129   0.043
    1UNL    C10   12  -0.414  -0.204   0.031
    1UNL    C11   13  -0.513  -0.141  -0.036
    1UNL    C12   14  -0.514  -0.012  -0.095
    1UNL     O1   15  -0.626   0.038  -0.155
    1UNL    C13   16  -0.392   0.059  -0.092
    1UNL    C14   17  -0.283  -0.001  -0.024
    1UNL    C15   18   0.043  -0.034   0.146
    1UNL     O2   19   0.059  -0.072   0.282
    1UNL    C16   20   0.131  -0.120   0.049
    1UNL    C17   21   0.226  -0.026  -0.030
    1UNL    C18   22   0.136   0.077  -0.108
    1UNL    C19   23   0.052   0.018  -0.225
    1UNL     O3   24   0.116  -0.094  -0.289
    1UNL     H1   25   0.522  -0.149   0.071
    1UNL     H2   26   0.528  -0.050  -0.073
    1UNL     H3   27   0.636  -0.015   0.062
    1UNL     H4   28   0.472   0.123   0.154
    1UNL     H5   29   0.239   0.250   0.144
    1UNL     H6   30   0.230   0.133   0.273
    1UNL     H7   31   0.099   0.261  -0.001
    1UNL     H8   32  -0.123   0.187  -0.131
    1UNL     H9   33  -0.144   0.255   0.040
    1UNL    H10   34  -0.174  -0.199   0.216
    1UNL    H11   35  -0.429  -0.310   0.053
    1UNL    H12   36  -0.607  -0.190  -0.039
    1UNL    H13   37  -0.606   0.121  -0.197
    1UNL    H14   38  -0.402   0.159  -0.120
    1UNL    H15   39   0.034   0.006   0.340
    1UNL    H16   40   0.172  -0.199   0.105
    1UNL    H17   41   0.069  -0.171  -0.019
    1UNL    H18   42   0.287  -0.087  -0.099
    1UNL    H19   43   0.216   0.138  -0.151
    1UNL    H20   44   0.039   0.098  -0.303
    1UNL    H21   45  -0.043  -0.023  -0.198
    1UNL    H22   46   0.132  -0.161  -0.221
   0.00000   0.00000   0.00000   0.00000   0.00000   0.00000   0.00000   0.00000   0.00000
Generated with MDTraj, t= 93.0
 46
    1UNL     C1    1   0.514  -0.038  -0.031
    1UNL     C2    2   0.452   0.035   0.074
    1UNL     C3    3   0.316   0.039   0.079
    1UNL     C4    4   0.238   0.114   0.183
    1UNL     N1    5   0.094   0.119   0.138
    1UNL     C5    6   0.058   0.169  -0.000
    1UNL     C6    7  -0.102   0.181  -0.026
    1UNL     C7    8  -0.170   0.062   0.030
    1UNL     C8    9  -0.111  -0.032   0.113
    1UNL     N2   10  -0.196  -0.139   0.131
    1UNL     C9   11  -0.311  -0.108   0.062
    1UNL    C10   12  -0.424  -0.197   0.039
    1UNL    C11   13  -0.524  -0.150  -0.038
    1UNL    C12   14  -0.509  -0.026  -0.105
    1UNL     O1   15  -0.611   0.001  -0.196
    1UNL    C13   16  -0.406   0.063  -0.076
    1UNL    C14   17  -0.303   0.019   0.004
    1UNL    C15   18   0.036  -0.028   0.152
    1UNL     O2   19   0.044  -0.062   0.293
    1UNL    C16   20   0.126  -0.123   0.068
    1UNL    C17   21   0.215  -0.031  -0.018
    1UNL    C18   22   0.142   0.081  -0.101
    1UNL    C19   23   0.064   0.009  -0.216
    1UNL     O3   24   0.153  -0.063  -0.301
    1UNL     H1   25   0.498  -0.146  -0.028
    1UNL     H2   26   0.484  -0.001  -0.126
    1UNL     H3   27   0.624  -0.028  -0.028
    1UNL     H4   28   0.513   0.094   0.145
    1UNL     H5   29   0.270   0.219   0.196
    1UNL     H6   30   0.243   0.061   0.278
    1UNL     H7   31   0.101   0.270  -0.002
    1UNL     H8   32  -0.134   0.188  -0.134
    1UNL     H9   33  -0.144   0.260   0.033
    1UNL    H10   34  -0.190  -0.204   0.210
    1UNL    H11   35  -0.419  -0.300   0.084
    1UNL    H12   36  -0.615  -0.208  -0.062
    1UNL    H13   37  -0.588   0.081  -0.241
    1UNL    H14   38  -0.417   0.162  -0.118
    1UNL    H15   39   0.037   0.019   0.350
    1UNL    H16   40   0.176  -0.191   0.125
    1UNL    H17   41   0.062  -0.187   0.010
    1UNL    H18   42   0.267  -0.093  -0.094
    1UNL    H19   43   0.225   0.135  -0.145
    1UNL    H20   44   0.015   0.077  -0.288
    1UNL    H21   45  -0.013  -0.055  -0.183
    1UNL    H22   46   0.199  -0.131  -0.241
   0.00000   0.00000   0.00000   0.00000   0.00000   0.00000   0.00000   0.00000   0.00000
Generated with MDTraj, t= 94.0
 46
    1UNL     C1    1   0.517  -0.017  -0.060
    1UNL     C2    2   0.449   0.031   0.064
    1UNL     C3    3   0.313   0.037   0.073
    1UNL     C4    4   0.231   0.105   0.186
    1UNL     N1    5   0.084   0.117   0.143
    1UNL     C5    6   0.067   0.157   0.005
    1UNL     C6    7  -0.084   0.168  -0.024
    1UNL     C7    8  -0.157   0.043   0.022
    1UNL     C8    9  -0.118  -0.031   0.129
    1UNL     N2   10  -0.213  -0.128   0.168
    1UNL     C9   11  -0.318  -0.114   0.078
    1UNL    C10   12  -0.445  -0.176   0.065
    1UNL    C11   13  -0.532  -0.132  -0.029
    1UNL    C12   14  -0.497  -0.030  -0.124
    1UNL     O1   15  -0.597   0.009  -0.214
    1UNL    C13   16  -0.374   0.024  -0.111
    1UNL    C14   17  -0.287  -0.007  -0.011
    1UNL    C15   18   0.033  -0.021   0.168
    1UNL     O2   19   0.047  -0.061   0.305
    1UNL    C16   20   0.120  -0.118   0.076
    1UNL    C17   21   0.219  -0.041  -0.014
    1UNL    C18   22   0.145   0.067  -0.097
    1UNL    C19   23   0.054   0.016  -0.213
    1UNL     O3   24   0.132  -0.024  -0.320
    1UNL     H1   25   0.489  -0.118  -0.092
    1UNL     H2   26   0.495   0.054  -0.139
    1UNL     H3   27   0.623  -0.019  -0.039
    1UNL     H4   28   0.506   0.086   0.144
    1UNL     H5   29   0.266   0.208   0.206
    1UNL     H6   30   0.230   0.044   0.277
    1UNL     H7   31   0.111   0.256   0.002
    1UNL     H8   32  -0.111   0.181  -0.134
    1UNL     H9   33  -0.136   0.241   0.033
    1UNL    H10   34  -0.182  -0.218   0.207
    1UNL    H11   35  -0.462  -0.250   0.133
    1UNL    H12   36  -0.624  -0.183  -0.043
    1UNL    H13   37  -0.559   0.084  -0.263
    1UNL    H14   38  -0.342   0.107  -0.178
    1UNL    H15   39  -0.023  -0.021   0.360
    1UNL    H16   40   0.181  -0.177   0.134
    1UNL    H17   41   0.062  -0.193   0.024
    1UNL    H18   42   0.277  -0.105  -0.086
    1UNL    H19   43   0.219   0.131  -0.149
    1UNL    H20   44  -0.025   0.080  -0.253
    1UNL    H21   45   0.006  -0.074  -0.190
    1UNL    H22   46   0.216  -0.074  -0.295
   0.00000   0.00000   0.00000   0.00000   0.00000   0.00000   0.00000   0.00000   0.00000
Generated with MDTraj, t= 95.0
 46
    1UNL     C1    1   0.520  -0.023  -0.033
    1UNL     C2    2   0.436   0.061   0.057
    1UNL     C3    3   0.303   0.043   0.081
    1UNL     C4    4   0.235   0.119   0.181
    1UNL     N1    5   0.085   0.109   0.144
    1UNL     C5    6   0.062   0.158   0.005
    1UNL     C6    7  -0.086   0.173  -0.025
    1UNL     C7    8  -0.169   0.060   0.045
    1UNL     C8    9  -0.108  -0.042   0.119
    1UNL     N2   10  -0.199  -0.136   0.148
    1UNL     C9   11  -0.317  -0.106   0.075
    1UNL    C10   12  -0.445  -0.165   0.075
    1UNL    C11   13  -0.531  -0.124  -0.021
    1UNL    C12   14  -0.502  -0.025  -0.114
    1UNL     O1   15  -0.589  -0.009  -0.226
    1UNL    C13   16  -0.379   0.047  -0.107
    1UNL    C14   17  -0.297   0.013   0.002
    1UNL    C15   18   0.040  -0.033   0.161
    1UNL     O2   19   0.053  -0.088   0.295
    1UNL    C16   20   0.121  -0.127   0.066
    1UNL    C17   21   0.219  -0.039  -0.022
    1UNL    C18   22   0.145   0.068  -0.101
    1UNL    C19   23   0.056   0.009  -0.209
    1UNL     O3   24   0.135  -0.043  -0.317
    1UNL     H1   25   0.532  -0.124   0.006
    1UNL     H2   26   0.476  -0.029  -0.135
    1UNL     H3   27   0.618   0.016  -0.037
    1UNL     H4   28   0.483   0.140   0.103
    1UNL     H5   29   0.272   0.223   0.177
    1UNL     H6   30   0.251   0.070   0.279
    1UNL     H7   31   0.102   0.257   0.008
    1UNL     H8   32  -0.125   0.175  -0.132
    1UNL     H9   33  -0.129   0.261   0.017
    1UNL    H10   34  -0.178  -0.231   0.183
    1UNL    H11   35  -0.468  -0.260   0.131
    1UNL    H12   36  -0.625  -0.178  -0.035
    1UNL    H13   37  -0.564   0.068  -0.286
    1UNL    H14   38  -0.364   0.121  -0.176
    1UNL    H15   39  -0.027  -0.074   0.348
    1UNL    H16   40   0.178  -0.201   0.118
    1UNL    H17   41   0.053  -0.184   0.008
    1UNL    H18   42   0.291  -0.098  -0.085
    1UNL    H19   43   0.211   0.138  -0.155
    1UNL    H20   44   0.003   0.091  -0.258
    1UNL    H21   45  -0.025  -0.045  -0.171
    1UNL    H22   46   0.168  -0.130  -0.298
   0.00000   0.00000   0.00000   0.00000   0.00000   0.00000   0.00000   0.00000   0.00000
Generated with MDTraj, t= 96.0
 46
    1UNL     C1    1   0.530  -0.016  -0.020
    1UNL     C2    2   0.446   0.027   0.098
    1UNL     C3    3   0.312   0.037   0.085
    1UNL     C4    4   0.237   0.121   0.175
    1UNL     N1    5   0.087   0.110   0.134
    1UNL     C5    6   0.057   0.171   0.001
    1UNL     C6    7  -0.094   0.176  -0.036
    1UNL     C7    8  -0.172   0.064   0.034
    1UNL     C8    9  -0.106  -0.035   0.104
    1UNL     N2   10  -0.193  -0.139   0.131
    1UNL     C9   11  -0.312  -0.111   0.069
    1UNL    C10   12  -0.425  -0.191   0.050
    1UNL    C11   13  -0.527  -0.147  -0.040
    1UNL    C12   14  -0.514  -0.024  -0.114
    1UNL     O1   15  -0.621   0.015  -0.189
    1UNL    C13   16  -0.402   0.055  -0.090
    1UNL    C14   17  -0.305   0.012   0.005
    1UNL    C15   18   0.042  -0.030   0.146
    1UNL     O2   19   0.065  -0.068   0.281
    1UNL    C16   20   0.122  -0.120   0.047
    1UNL    C17   21   0.223  -0.024  -0.020
    1UNL    C18   22   0.145   0.080  -0.099
    1UNL    C19   23   0.063   0.016  -0.211
    1UNL     O3   24   0.132  -0.088  -0.282
    1UNL     H1   25   0.524  -0.121  -0.045
    1UNL     H2   26   0.506   0.037  -0.116
    1UNL     H3   27   0.634  -0.007  -0.003
    1UNL     H4   28   0.486   0.094   0.183
    1UNL     H5   29   0.265   0.227   0.160
    1UNL     H6   30   0.252   0.085   0.279
    1UNL     H7   31   0.098   0.269   0.010
    1UNL     H8   32  -0.111   0.170  -0.148
    1UNL     H9   33  -0.152   0.265  -0.012
    1UNL    H10   34  -0.180  -0.210   0.204
    1UNL    H11   35  -0.428  -0.286   0.090
    1UNL    H12   36  -0.597  -0.219  -0.075
    1UNL    H13   37  -0.613   0.116  -0.203
    1UNL    H14   38  -0.375   0.144  -0.152
    1UNL    H15   39   0.006  -0.017   0.343
    1UNL    H16   40   0.175  -0.202   0.098
    1UNL    H17   41   0.061  -0.163  -0.027
    1UNL    H18   42   0.294  -0.083  -0.084
    1UNL    H19   43   0.222   0.141  -0.152
    1UNL    H20   44   0.015   0.094  -0.271
    1UNL    H21   45  -0.021  -0.027  -0.164
    1UNL    H22   46   0.115  -0.171  -0.237
   0.00000   0.00000   0.00000   0.00000   0.00000   0.00000   0.00000   0.00000   0.00000
Generated with MDTraj, t= 97.0
 46
    1UNL     C1    1   0.535  -0.047   0.009
    1UNL     C2    2   0.445   0.046   0.088
    1UNL     C3    3   0.311   0.059   0.076
    1UNL     C4    4   0.224   0.136   0.168
    1UNL     N1    5   0.078   0.118   0.132
    1UNL     C5    6   0.054   0.165  -0.002
    1UNL     C6    7  -0.094   0.169  -0.030
    1UNL     C7    8  -0.160   0.043   0.003
    1UNL     C8    9  -0.100  -0.046   0.089
    1UNL     N2   10  -0.179  -0.156   0.107
    1UNL     C9   11  -0.296  -0.130   0.041
    1UNL    C10   12  -0.415  -0.198   0.031
    1UNL    C11   13  -0.522  -0.151  -0.039
    1UNL    C12   14  -0.511  -0.015  -0.092
    1UNL     O1   15  -0.629   0.049  -0.136
    1UNL    C13   16  -0.397   0.053  -0.092
    1UNL    C14   17  -0.290  -0.001  -0.017
    1UNL    C15   18   0.035  -0.022   0.147
    1UNL     O2   19   0.028  -0.051   0.287
    1UNL    C16   20   0.138  -0.113   0.071
    1UNL    C17   21   0.231  -0.022  -0.023
    1UNL    C18   22   0.137   0.074  -0.103
    1UNL    C19   23   0.052   0.003  -0.206
    1UNL     O3   24   0.129  -0.082  -0.283
    1UNL     H1   25   0.490  -0.143  -0.008
    1UNL     H2   26   0.566  -0.006  -0.089
    1UNL     H3   27   0.620  -0.065   0.073
    1UNL     H4   28   0.489   0.121   0.144
    1UNL     H5   29   0.248   0.242   0.165
    1UNL     H6   30   0.227   0.095   0.272
    1UNL     H7   31   0.098   0.260   0.004
    1UNL     H8   32  -0.110   0.197  -0.136
    1UNL     H9   33  -0.138   0.255   0.025
    1UNL    H10   34  -0.159  -0.250   0.146
    1UNL    H11   35  -0.425  -0.304   0.060
    1UNL    H12   36  -0.618  -0.201  -0.033
    1UNL    H13   37  -0.605   0.148  -0.145
    1UNL    H14   38  -0.385   0.152  -0.126
    1UNL    H15   39  -0.016   0.019   0.343
    1UNL    H16   40   0.200  -0.171   0.147
    1UNL    H17   41   0.086  -0.177   0.007
    1UNL    H18   42   0.297  -0.079  -0.097
    1UNL    H19   43   0.216   0.126  -0.164
    1UNL    H20   44   0.014   0.076  -0.282
    1UNL    H21   45  -0.037  -0.046  -0.173
    1UNL    H22   46   0.150  -0.173  -0.243
   0.00000   0.00000   0.00000   0.00000   0.00000   0.00000   0.00000   0.00000   0.00000
Generated with MDTraj, t= 98.0
 46
    1UNL     C1    1   0.532  -0.032   0.038
    1UNL     C2    2   0.439   0.061   0.096
    1UNL     C3    3   0.306   0.060   0.082
    1UNL     C4    4   0.221   0.131   0.175
    1UNL     N1    5   0.081   0.115   0.124
    1UNL     C5    6   0.063   0.165  -0.018
    1UNL     C6    7  -0.088   0.174  -0.047
    1UNL     C7    8  -0.159   0.056   0.006
    1UNL     C8    9  -0.099  -0.041   0.090
    1UNL     N2   10  -0.181  -0.150   0.098
    1UNL     C9   11  -0.304  -0.122   0.033
    1UNL    C10   12  -0.423  -0.197   0.030
    1UNL    C11   13  -0.533  -0.140  -0.026
    1UNL    C12   14  -0.521  -0.013  -0.080
    1UNL     O1   15  -0.642   0.035  -0.124
    1UNL    C13   16  -0.410   0.068  -0.076
    1UNL    C14   17  -0.288   0.006  -0.022
    1UNL    C15   18   0.038  -0.028   0.144
    1UNL     O2   19   0.041  -0.067   0.284
    1UNL    C16   20   0.136  -0.124   0.070
    1UNL    C17   21   0.227  -0.033  -0.012
    1UNL    C18   22   0.144   0.062  -0.104
    1UNL    C19   23   0.070  -0.023  -0.209
    1UNL     O3   24   0.141  -0.078  -0.319
    1UNL     H1   25   0.518  -0.128   0.083
    1UNL     H2   26   0.517  -0.043  -0.069
    1UNL     H3   27   0.631   0.006   0.067
    1UNL     H4   28   0.483   0.147   0.152
    1UNL     H5   29   0.238   0.238   0.183
    1UNL     H6   30   0.233   0.083   0.276
    1UNL     H7   31   0.107   0.260  -0.021
    1UNL     H8   32  -0.111   0.205  -0.149
    1UNL     H9   33  -0.131   0.263   0.010
    1UNL    H10   34  -0.155  -0.240   0.143
    1UNL    H11   35  -0.420  -0.300   0.065
    1UNL    H12   36  -0.626  -0.195  -0.036
    1UNL    H13   37  -0.636   0.119  -0.175
    1UNL    H14   38  -0.421   0.169  -0.117
    1UNL    H15   39   0.034   0.013   0.340
    1UNL    H16   40   0.208  -0.170   0.141
    1UNL    H17   41   0.088  -0.199   0.006
    1UNL    H18   42   0.291  -0.095  -0.083
    1UNL    H19   43   0.220   0.123  -0.159
    1UNL    H20   44  -0.015   0.038  -0.249
    1UNL    H21   45   0.017  -0.108  -0.168
    1UNL    H22   46   0.238  -0.089  -0.289
   0.00000   0.00000   0.00000   0.00000   0.00000   0.00000   0.00000   0.00000   0.00000
Generated with MDTraj, t= 99.0
 46
    1UNL     C1    1   0.538  -0.012   0.006
    1UNL     C2    2   0.444   0.036   0.109
    1UNL     C3    3   0.313   0.051   0.087
    1UNL     C4    4   0.217   0.132   0.175
    1UNL     N1    5   0.078   0.115   0.129
    1UNL     C5    6   0.063   0.155  -0.012
    1UNL     C6    7  -0.091   0.150  -0.050
    1UNL     C7    8  -0.168   0.032   0.001
    1UNL     C8    9  -0.112  -0.049   0.092
    1UNL     N2   10  -0.196  -0.155   0.131
    1UNL     C9   11  -0.323  -0.127   0.057
    1UNL    C10   12  -0.447  -0.191   0.066
    1UNL    C11   13  -0.547  -0.129  -0.012
    1UNL    C12   14  -0.536  -0.009  -0.082
    1UNL     O1   15  -0.642   0.047  -0.156
    1UNL    C13   16  -0.410   0.050  -0.080
    1UNL    C14   17  -0.300  -0.008  -0.018
    1UNL    C15   18   0.036  -0.027   0.142
    1UNL     O2   19   0.052  -0.075   0.276
    1UNL    C16   20   0.136  -0.113   0.056
    1UNL    C17   21   0.232  -0.022  -0.018
    1UNL    C18   22   0.160   0.082  -0.109
    1UNL    C19   23   0.099   0.015  -0.234
    1UNL     O3   24   0.180  -0.075  -0.308
    1UNL     H1   25   0.543  -0.119  -0.006
    1UNL     H2   26   0.524   0.023  -0.092
    1UNL     H3   27   0.642   0.008   0.038
    1UNL     H4   28   0.480   0.105   0.187
    1UNL     H5   29   0.240   0.239   0.176
    1UNL     H6   30   0.217   0.101   0.284
    1UNL     H7   31   0.087   0.256  -0.012
    1UNL     H8   32  -0.097   0.145  -0.156
    1UNL     H9   33  -0.137   0.254  -0.028
    1UNL    H10   34  -0.188  -0.197   0.225
    1UNL    H11   35  -0.462  -0.284   0.113
    1UNL    H12   36  -0.643  -0.177  -0.021
    1UNL    H13   37  -0.606   0.098  -0.227
    1UNL    H14   38  -0.387   0.148  -0.121
    1UNL    H15   39   0.014  -0.006   0.333
    1UNL    H16   40   0.207  -0.174   0.113
    1UNL    H17   41   0.082  -0.177  -0.022
    1UNL    H18   42   0.308  -0.082  -0.079
    1UNL    H19   43   0.238   0.157  -0.139
    1UNL    H20   44   0.075   0.095  -0.309
    1UNL    H21   45  -0.001  -0.024  -0.208
    1UNL    H22   46   0.176  -0.161  -0.265
   0.00000   0.00000   0.00000   0.00000   0.00000   0.00000   0.00000   0.00000   0.00000
