1TPCN00281
11
    1res  C1    1   -0.501   0.126  -0.128
    1res  C2    2   -0.291  -0.041   0.031
    1res  C3    3   -0.179   0.112  -0.163
    1res  C4    4   -0.003  -0.122  -0.101
    1res  C5    5    0.141   0.055   0.026
    1res  C6    6    0.162   0.193   0.196
    1res  C7    7    0.304   0.062   0.091
    1res  C8    8    0.496   0.124   0.239
    1res  C9    9    0.541  -0.091   0.010
    1res  C10   10   -0.108   0.131   0.126
    1res  C11   11   -0.127  -0.334   0.059
  10.00000  10.00000  10.00000
