[ moleculetype ]
; name        nrexcl
res           1

[ atoms ]
;    nr  type resnr resid  atom  cgnr     charge       mass
      1 SC4       1 res   C1        1      0.000     54.000
      2 SC5       1 res   C2        2      0.000     54.000
      3 SC4       1 res   C3        3      0.000     54.000
      4 TC3       1 res   C4        4      0.000     36.000
      5 SC4       1 res   C5        5      0.000     54.000
      6 SC4       1 res   C6        6      0.000     54.000
      7 SN6       1 res   C7        7      0.000     54.000
      8 TN6       1 res   C8        8      0.000     36.000
      9 SN4a      1 res   C9        9      0.000     54.000
     10 TP1       1 res   C10      10      0.000     36.000
     11 TN6       1 res   C11      11      0.000     36.000
     12 TN6       1 res   C12      12      0.000     36.000
     13 TN6       1 res   C13      13      0.000     36.000
     14 SC4       1 res   C14      14      0.000     54.000
     15 TC3       1 res   C15      15      0.000     36.000
     16 SN6       1 res   C16      16      0.000     54.000
     17 SN4a      1 res   C17      17      0.000     54.000
     18 TP1       1 res   C18      18      0.000     36.000
     19 TN6       1 res   C19      19      0.000     36.000
     20 TN6       1 res   C20      20      0.000     36.000
     21 TN6       1 res   C21      21      0.000     36.000
     22 SP2       1 res   C22      22      0.000     54.000
     23 SN6       1 res   C23      23      0.000     54.000

[ bonds ]
;  ai    aj   funct      b0(nm)        k
    1     2     1      0.28177    20000
    1    23     1      0.30309    20000
    2     3     1      0.27993    20000
    2    16     1      0.33703    20000
    2    22     1      0.39026    20000
    2    23     1      0.28400    20000
    3     4     1      0.39489    20000
    3     5     1      0.30916    20000
    3    16     1      0.28318    20000
    4     5     1      0.37794    20000
    5     6     1      0.25603    20000
    5    15     1      0.30442    20000
    6     7     1      0.33027    20000
    6    14     1      0.35579    20000
    6    15     1      0.36455    20000
    7     8     1      0.25538    20000
    8     9     1      0.27774    20000
    8    14     1      0.24271    20000
    9    10     1      0.32027    20000
    9    11     1      0.28371    20000
    9    13     1      0.30486    20000
   11    12     1      0.25160    20000
   12    13     1      0.23743    20000
   16    17     1      0.30411    20000
   17    18     1      0.28961    20000
   17    19     1      0.28687    20000
   17    21     1      0.26525    20000
   19    20     1      0.22358    20000
   20    21     1      0.27961    20000
