[ moleculetype ]
; name        nrexcl
res           1

[ atoms ]
;    nr  type resnr resid  atom  cgnr     charge       mass
      1 P2        1 res   C1        1      0.000     72.000
      2 SC3       1 res   C2        2      0.000     54.000
      3 SC4       1 res   C3        3      0.000     54.000
      4 TC3       1 res   C4        4      0.000     36.000
      5 SC4       1 res   C5        5      0.000     54.000
      6 SC5       1 res   C6        6      0.000     54.000
      7 SC4       1 res   C7        7      0.000     54.000
      8 TC3       1 res   C8        8      0.000     36.000
      9 SN4a      1 res   C9        9      0.000     54.000
     10 SN4a      1 res   C10      10      0.000     54.000
     11 TN3r      1 res   C11      11      0.000     36.000
     12 SN4a      1 res   C12      12      0.000     54.000
     13 N4a       1 res   C13      13      0.000     72.000
     14 SP1       1 res   C14      14      0.000     54.000
     15 SP2       1 res   C15      15      0.000     54.000
     16 TN6       1 res   C16      16      0.000     36.000
     17 TN6       1 res   C17      17      0.000     36.000
     18 TN6       1 res   C18      18      0.000     36.000
     19 TN6       1 res   C19      19      0.000     36.000
     20 TN6       1 res   C20      20      0.000     36.000
     21 SN4a      1 res   C21      21      0.000     54.000
     22 TP1       1 res   C22      22      0.000     36.000
     23 TN6       1 res   C23      23      0.000     36.000
     24 TN6       1 res   C24      24      0.000     36.000
     25 TN6       1 res   C25      25      0.000     36.000
     26 TN6       1 res   C26      26      0.000     36.000
     27 SN6       1 res   C27      27      0.000     54.000
     28 TC4       1 res   C28      28      0.000     36.000
     29 P1        1 res   C29      29      0.000     72.000

[ bonds ]
;  ai    aj   funct      b0(nm)        k
    1     2     1      0.35537    20000
    2     3     1      0.31637    20000
    2    28     1      0.39531    20000
    3     4     1      0.30687    20000
    3     5     1      0.29143    20000
    3    28     1      0.41049    20000
    4     5     1      0.41223    20000
    5     6     1      0.27904    20000
    5    27     1      0.29366    20000
    6     7     1      0.29086    20000
    6     8     1      0.28400    20000
    6     9     1      0.34128    20000
    6    27     1      0.37598    20000
    7     8     1      0.29164    20000
    9    10     1      0.25396    20000
   10    11     1      0.29174    20000
   10    19     1      0.29306    20000
   10    26     1      0.27025    20000
   11    12     1      0.27801    20000
   12    13     1      0.32051    20000
   12    16     1      0.28745    20000
   12    18     1      0.29163    20000
   13    14     1      0.28366    20000
   14    15     1      0.31959    20000
   16    17     1      0.23460    20000
   17    18     1      0.24042    20000
   19    20     1      0.22261    20000
   20    21     1      0.30023    20000
   20    26     1      0.24479    20000
   21    22     1      0.27729    20000
   21    23     1      0.27579    20000
   21    25     1      0.29608    20000
   23    24     1      0.25041    20000
   24    25     1      0.24199    20000
   28    29     1      0.36722    20000
