[ moleculetype ]
; name        nrexcl
res           1

[ atoms ]
;    nr  type resnr resid  atom  cgnr     charge       mass
      1 SC2       1 res   C1        1      0.000     54.000
      2 TN4a      1 res   C2        2      0.000     36.000
      3 TN6a      1 res   C3        3      0.000     36.000
      4 TC5       1 res   C4        4      0.000     36.000
      5 TN2a      1 res   C5        5      0.000     36.000
      6 TN2a      1 res   C6        6      0.000     36.000
      7 SC4       1 res   C7        7      0.000     54.000
      8 TN6a      1 res   C8        8      0.000     36.000
      9 TC5       1 res   C9        9      0.000     36.000

[ bonds ]
;  ai    aj   funct      b0(nm)        k
    1     2     1      0.29419    20000
    1     7     1      0.31542    20000
    2     3     1      0.27028    20000
    2     4     1      0.20456    20000
    3     4     1      0.23158    20000
    4     5     1      0.24933    20000
    4     6     1      0.25052    20000
    6     7     1      0.27536    20000
    7     8     1      0.24420    20000
    7     9     1      0.29918    20000
    8     9     1      0.26269    20000
