[ moleculetype ]
; name        nrexcl
res           1

[ atoms ]
;    nr  type resnr resid  atom  cgnr     charge       mass
      1 SN4a      1 res   C1        1      0.000     54.000
      2 SC3       1 res   C2        2      0.000     54.000
      3 TC4       1 res   C3        3      0.000     36.000
      4 SC4       1 res   C4        4      0.000     54.000
      5 TC3       1 res   C5        5      0.000     36.000
      6 SC4       1 res   C6        6      0.000     54.000
      7 SC4       1 res   C7        7      0.000     54.000
      8 TN6       1 res   C8        8      0.000     36.000
      9 SN4a      1 res   C9        9      0.000     54.000
     10 TP1       1 res   C10      10      0.000     36.000
     11 TN6       1 res   C11      11      0.000     36.000
     12 SN4a      1 res   C12      12      0.000     54.000
     13 TP1       1 res   C13      13      0.000     36.000
     14 TN6       1 res   C14      14      0.000     36.000
     15 TN6       1 res   C15      15      0.000     36.000
     16 TN6       1 res   C16      16      0.000     36.000
     17 TN6       1 res   C17      17      0.000     36.000
     18 TN6       1 res   C18      18      0.000     36.000
     19 SN4a      1 res   C19      19      0.000     54.000
     20 TP1       1 res   C20      20      0.000     36.000
     21 TN6       1 res   C21      21      0.000     36.000
     22 TN6       1 res   C22      22      0.000     36.000
     23 TN6       1 res   C23      23      0.000     36.000
     24 TC3       1 res   C24      24      0.000     36.000
     25 TC3       1 res   C25      25      0.000     36.000
     26 TC4       1 res   C26      26      0.000     36.000
     27 TC3       1 res   C27      27      0.000     36.000
     28 TN4a      1 res   C28      28      0.000     36.000
     29 SN6       1 res   C29      29      0.000     54.000
     30 SC4       1 res   C30      30      0.000     54.000

[ bonds ]
;  ai    aj   funct      b0(nm)        k
    1     2     1      0.35601    20000
    2     3     1      0.26735    20000
    2    26     1      0.34662    20000
    2    27     1      0.36446    20000
    3     4     1      0.29784    20000
    3    26     1      0.29884    20000
    4     5     1      0.23878    20000
    4     6     1      0.20729    20000
    4    25     1      0.29933    20000
    5     6     1      0.32409    20000
    6     7     1      0.38908    20000
    6    24     1      0.27982    20000
    7     8     1      0.24684    20000
    8     9     1      0.30222    20000
    8    24     1      0.26117    20000
    9    10     1      0.28070    20000
    9    11     1      0.26687    20000
    9    18     1      0.25857    20000
   11    12     1      0.30582    20000
   11    17     1      0.20767    20000
   12    13     1      0.27617    20000
   12    14     1      0.28902    20000
   12    16     1      0.30238    20000
   14    15     1      0.24372    20000
   15    16     1      0.23272    20000
   17    18     1      0.20646    20000
   18    19     1      0.30848    20000
   19    20     1      0.25422    20000
   19    21     1      0.24755    20000
   19    23     1      0.29165    20000
   21    22     1      0.26273    20000
   22    23     1      0.26680    20000
   25    26     1      0.28996    20000
   27    28     1      0.25776    20000
   28    29     1      0.25280    20000
   28    30     1      0.29995    20000
   29    30     1      0.28902    20000
