1TPCN04267
22
    1res  C1    1   -0.877  -0.229   0.310
    1res  C2    2   -0.599  -0.269   0.169
    1res  C3    3   -0.370  -0.218  -0.028
    1res  C4    4   -0.648   0.018  -0.096
    1res  C5    5   -0.908   0.189  -0.002
    1res  C6    6   -0.865   0.020  -0.262
    1res  C7    7   -0.693  -0.025  -0.397
    1res  C8    8   -0.472   0.013  -0.295
    1res  C9    9   -0.236  -0.086   0.192
    1res  C10   10   -0.022  -0.185   0.145
    1res  C11   11   -0.117   0.095  -0.110
    1res  C12   12    0.090   0.100   0.140
    1res  C13   13    0.238   0.270  -0.024
    1res  C14   14    0.392   0.136  -0.218
    1res  C15   15    0.599   0.152  -0.084
    1res  C16   16    0.853   0.079  -0.080
    1res  C17   17    1.023   0.193  -0.235
    1res  C18   18    1.064  -0.073  -0.007
    1res  C19   19    0.918  -0.198  -0.211
    1res  C20   20    0.745  -0.155  -0.038
    1res  C21   21    0.540   0.293   0.113
    1res  C22   22    0.311  -0.049   0.168
  10.00000  10.00000  10.00000
