1TPCN04100
18
    1res  C1    1    1.017   0.236   0.072
    1res  C2    2    0.673   0.152   0.038
    1res  C3    3    0.811  -0.145   0.013
    1res  C4    4    0.703  -0.103  -0.177
    1res  C5    5    0.499   0.051  -0.062
    1res  C6    6    0.229   0.093   0.069
    1res  C7    7    0.077  -0.095   0.183
    1res  C8    8   -0.040  -0.305  -0.005
    1res  C9    9   -0.191  -0.154   0.152
    1res  C10   10   -0.237   0.117   0.187
    1res  C11   11   -0.419  -0.186   0.003
    1res  C12   12   -0.563   0.117   0.024
    1res  C13   13   -0.805   0.253   0.049
    1res  C14   14   -0.650   0.243  -0.211
    1res  C15   15   -0.668  -0.091  -0.250
    1res  C16   16   -0.315  -0.005  -0.214
    1res  C17   17    0.307  -0.235  -0.105
    1res  C18   18    0.351  -0.247   0.196
  10.00000  10.00000  10.00000
