[ moleculetype ]
; name        nrexcl
res           1

[ atoms ]
;    nr  type resnr resid  atom  cgnr     charge       mass
      1 SN4a      1 res   C1        1      0.000     54.000
      2 SN6       1 res   C2        2      0.000     54.000
      3 TN6       1 res   C3        3      0.000     36.000
      4 TN4a      1 res   C4        4      0.000     36.000
      5 TN6       1 res   C5        5      0.000     36.000
      6 SC3       1 res   C6        6      0.000     54.000
      7 SC4       1 res   C7        7      0.000     54.000
      8 TC3       1 res   C8        8      0.000     36.000
      9 SC4       1 res   C9        9      0.000     54.000
     10 TC3       1 res   C10      10      0.000     36.000
     11 SC4       1 res   C11      11      0.000     54.000
     12 SC5       1 res   C12      12      0.000     54.000
     13 SC4       1 res   C13      13      0.000     54.000
     14 TC3       1 res   C14      14      0.000     36.000
     15 SP2       1 res   C15      15      0.000     54.000
     16 TC3       1 res   C16      16      0.000     36.000
     17 TC4       1 res   C17      17      0.000     36.000
     18 TP1       1 res   C18      18      0.000     36.000

[ bonds ]
;  ai    aj   funct      b0(nm)        k
    1     2     1      0.35536    20000
    2     3     1      0.32883    20000
    2     5     1      0.22485    20000
    3     4     1      0.22284    20000
    4     5     1      0.28035    20000
    5     6     1      0.30291    20000
    6     7     1      0.26712    20000
    6    17     1      0.37943    20000
    7     8     1      0.30565    20000
    7     9     1      0.27659    20000
    7    17     1      0.39396    20000
    8     9     1      0.26447    20000
    9    10     1      0.27787    20000
    9    11     1      0.27461    20000
   10    11     1      0.39884    20000
   11    12     1      0.33631    20000
   11    16     1      0.30089    20000
   12    13     1      0.27923    20000
   12    14     1      0.27961    20000
   12    15     1      0.35948    20000
   12    16     1      0.36404    20000
   13    14     1      0.30286    20000
   17    18     1      0.30390    20000
