[ moleculetype ]
; name        nrexcl
res           1

[ atoms ]
;    nr  type  resnr resid  atom  cgnr     charge       mass
      1 TC5       1 res   C1        1      0.000     36.000
      2 TC5       1 res   C2        2      0.000     36.000
      3 TC5       1 res   C3        3      0.000     36.000
      4 SX4e      1 res   C4        4      0.000     54.000

[ constraints ]
;  ai    aj   funct      b0(nm)
    1     2     1      0.25612
    1     3     1      0.28727
    2     3     1      0.29732
    2     4     1      0.23936

[ bonds ]
;  ai    aj   funct      b0(nm)          k(kJ/mol/nm^2)

[ angles ]
;  ai    aj    ak  funct     th0(deg)        k(kJ/mol/rad^2)
    1     2     3     1     62.01522          5130.89
    1     2     4     1    145.86201          1570.90
    1     3     2     1     51.93006          7459.32
    2     1     3     1     66.05472          6098.43
    3     2     4     1     84.29706          2070.02

[ dihedrals ]
;  ai    aj    ak    al  funct   phi0(deg)        k(kJ/mol)   mult
    1     3     2     4     1     -0.12975       10.777      1
    3     1     2     4     1    179.21273       17.123      1
