[ moleculetype ]
; name        nrexcl
res           1

[ atoms ]
;    nr  type  resnr resid  atom  cgnr     charge       mass
      1 TN6a      1 res   C1        1      0.000     36.000
      2 TC5       1 res   C2        2      0.000     36.000
      3 TC5e      1 res   C3        3      0.000     36.000
      4 TN6a      1 res   C4        4      0.000     36.000
      5 TC5       1 res   C5        5      0.000     36.000

[ constraints ]
;  ai    aj   funct      b0(nm)
    1     2     1      0.25693
    3     5     1      0.24713
    2     3     1      0.24710
    4     5     1      0.25710
    3     4     1      0.25037
    1     3     1      0.25023

[ bonds ]
;  ai    aj   funct      b0(nm)          k(kJ/mol/nm^2)

[ angles ]
;  ai    aj    ak  funct     th0(deg)        k(kJ/mol/rad^2)
    1     2     3     1     59.49276         12101.21
    1     3     2     1     62.20772         11107.82
    1     3     4     1    176.11530          2962.13
    1     3     5     1    117.61730          1507.01
    2     1     3     1     58.29952         10856.51
    2     3     4     1    117.60306          1611.38
    2     3     5     1    173.44246           699.11
    3     4     5     1     58.26899          9817.95
    3     5     4     1     59.50138         14558.94
    4     3     5     1     62.22962         12170.39

[ dihedrals ]
;  ai    aj    ak    al  funct   phi0(deg)        k(kJ/mol)   mult
    1     2     3     4     1      0.03859        7.802      1
    1     2     3     5     1     58.15377        1.447      1
    1     3     4     5     1    113.62120        1.623      1
    1     3     5     4     1      0.93591        7.088      1
    2     1     3     4     1   -107.67409        3.781      1
    2     1     3     5     1     -0.01445       12.304      1
    2     3     4     5     1     -0.83001       11.575      1
    2     3     5     4     1    -88.74505        3.347      1
