[ moleculetype ]
; name        nrexcl
res           1

[ atoms ]
;    nr  type resnr resid  atom  cgnr     charge       mass
      1 C4        1 res   C1        1      0.000     72.000
      2 SC3       1 res   C2        2      0.000     54.000
      3 TC3       1 res   C3        3      0.000     36.000
      4 TC4       1 res   C4        4      0.000     36.000
      5 TN6a      1 res   C5        5      0.000     36.000
      6 SC5       1 res   C6        6      0.000     54.000
      7 TN6a      1 res   C7        7      0.000     36.000
      8 SN6       1 res   C8        8      0.000     54.000

[ bonds ]
;  ai    aj   funct      b0(nm)        k
    1     2     1      0.39227    20000
    1     3     1      0.30007    20000
    2     3     1      0.36901    20000
    3     4     1      0.29842    20000
    3     6     1      0.38166    20000
    4     5     1      0.24131    20000
    5     6     1      0.23602    20000
    6     7     1      0.28136    20000
    6     8     1      0.26532    20000
    7     8     1      0.24086    20000
