[ moleculetype ]
; name        nrexcl
res           1

[ atoms ]
;    nr  type  resnr resid  atom  cgnr     charge       mass
      1 SX2       1 res   C1        1      0.000     54.000
      2 SN6       1 res   C2        2      0.000     54.000
      3 TC5       1 res   C3        3      0.000     36.000

[ bonds ]
;  ai    aj   funct      b0(nm)          k(kJ/mol/nm^2)
    1     2     1      0.31782         157961.3
    1     3     1      0.30870         155446.1
    2     3     1      0.32895         121059.3

[ angles ]
;  ai    aj    ak  funct     th0(deg)        k(kJ/mol/rad^2)
    1     2     3     1     56.98555          8510.88
    1     3     2     1     59.69634          6612.19
    2     1     3     1     63.31811          8127.18

[ dihedrals ]
;  ai    aj    ak    al  funct   phi0(deg)        k(kJ/mol)   mult
