1TPCN05965
28
    1res  C1    1    0.999  -0.150  -0.236
    1res  C2    2    0.613  -0.136  -0.068
    1res  C3    3    0.273  -0.115  -0.053
    1res  C4    4    0.159   0.100  -0.196
    1res  C5    5   -0.121   0.189  -0.251
    1res  C6    6   -0.319   0.224  -0.046
    1res  C7    7   -0.417   0.032  -0.341
    1res  C8    8   -0.651   0.144  -0.252
    1res  C9    9   -0.710   0.193   0.082
    1res  C10   10   -0.765  -0.094  -0.191
    1res  C11   11   -0.901  -0.175   0.026
    1res  C12   12   -1.027  -0.046   0.212
    1res  C13   13   -1.003  -0.278   0.334
    1res  C14   14   -0.801  -0.377   0.269
    1res  C15   15   -0.599  -0.224   0.003
    1res  C16   16   -0.378   0.516   0.011
    1res  C17   17   -0.334   0.420  -0.278
    1res  C18   18    0.070   0.248   0.030
    1res  C19   19    0.288   0.286   0.044
    1res  C20   20    0.401   0.190  -0.142
    1res  C21   21    0.479  -0.281   0.092
    1res  C22   22    0.678  -0.232   0.219
    1res  C23   23    0.788  -0.101   0.082
    1res  C24   24    0.925  -0.079   0.251
    1res  C25   25    1.123  -0.295   0.379
    1res  C26   26    1.267  -0.097   0.322
    1res  C27   27    1.179   0.124   0.262
    1res  C28   28    1.096   0.021   0.077
  10.00000  10.00000  10.00000
