1TPCN03232
16
    1res  C1    1   -0.364  -0.345   0.029
    1res  C2    2   -0.019  -0.201  -0.100
    1res  C3    3   -0.087  -0.389  -0.240
    1res  C4    4    0.063  -0.021   0.015
    1res  C5    5    0.366  -0.038  -0.010
    1res  C6    6    0.645   0.095   0.072
    1res  C7    7    0.535  -0.048  -0.223
    1res  C8    8    0.390   0.148  -0.239
    1res  C9    9    0.191   0.074  -0.203
    1res  C10   10   -0.175  -0.044   0.070
    1res  C11   11   -0.377  -0.006   0.204
    1res  C12   12   -0.261   0.213   0.238
    1res  C13   13   -0.069   0.329   0.090
    1res  C14   14   -0.015   0.087   0.282
    1res  C15   15   -0.319   0.535   0.048
    1res  C16   16   -0.485   0.326   0.157
  10.00000  10.00000  10.00000
