[ moleculetype ]
; name        nrexcl
res           1

[ atoms ]
;    nr  type resnr resid  atom  cgnr     charge       mass
      1 SC4       1 res   C1        1      0.000     54.000
      2 SC2       1 res   C2        2      0.000     54.000
      3 TN4a      1 res   C3        3      0.000     36.000
      4 TC5       1 res   C4        4      0.000     36.000
      5 SC3       1 res   C5        5      0.000     54.000
      6 TN4a      1 res   C6        6      0.000     36.000
      7 TC3       1 res   C7        7      0.000     36.000
      8 SC4       1 res   C8        8      0.000     54.000
      9 SC4       1 res   C9        9      0.000     54.000
     10 TC3       1 res   C10      10      0.000     36.000
     11 TN6       1 res   C11      11      0.000     36.000
     12 SN4a      1 res   C12      12      0.000     54.000
     13 TP1       1 res   C13      13      0.000     36.000
     14 TN6       1 res   C14      14      0.000     36.000
     15 TN6       1 res   C15      15      0.000     36.000
     16 SN4a      1 res   C16      16      0.000     54.000
     17 TN3r      1 res   C17      17      0.000     36.000
     18 SN4a      1 res   C18      18      0.000     54.000
     19 TN6       1 res   C19      19      0.000     36.000
     20 TN6       1 res   C20      20      0.000     36.000
     21 TN6       1 res   C21      21      0.000     36.000
     22 TN6       1 res   C22      22      0.000     36.000
     23 TN6       1 res   C23      23      0.000     36.000
     24 TN6       1 res   C24      24      0.000     36.000
     25 TN6       1 res   C25      25      0.000     36.000
     26 TN4a      1 res   C26      26      0.000     36.000
     27 TC4       1 res   C27      27      0.000     36.000
     28 TN6       1 res   C28      28      0.000     36.000
     29 TN6       1 res   C29      29      0.000     36.000
     30 TN6       1 res   C30      30      0.000     36.000
     31 SC4       1 res   C31      31      0.000     54.000
     32 TC3       1 res   C32      32      0.000     36.000
     33 SN6       1 res   C33      33      0.000     54.000

[ bonds ]
;  ai    aj   funct      b0(nm)        k
    1     2     1      0.27515    20000
    2     3     1      0.23677    20000
    3     4     1      0.24893    20000
    3    33     1      0.25254    20000
    4     5     1      0.21295    20000
    4     6     1      0.25125    20000
    4    33     1      0.27944    20000
    5     6     1      0.25665    20000
    5     7     1      0.34735    20000
    5     8     1      0.25372    20000
    7     8     1      0.30159    20000
    8     9     1      0.35864    20000
    8    32     1      0.26104    20000
    9    10     1      0.26746    20000
    9    31     1      0.40459    20000
    9    32     1      0.32758    20000
   10    11     1      0.24170    20000
   11    12     1      0.28908    20000
   11    31     1      0.24083    20000
   12    13     1      0.30142    20000
   12    14     1      0.25920    20000
   12    25     1      0.22788    20000
   14    15     1      0.22085    20000
   15    16     1      0.32029    20000
   15    25     1      0.21026    20000
   16    17     1      0.23449    20000
   16    22     1      0.27219    20000
   16    24     1      0.26907    20000
   17    18     1      0.30931    20000
   18    19     1      0.26404    20000
   18    21     1      0.31414    20000
   19    20     1      0.22180    20000
   20    21     1      0.24500    20000
   22    23     1      0.21185    20000
   23    24     1      0.22712    20000
   25    26     1      0.22487    20000
   26    27     1      0.32036    20000
   26    30     1      0.26259    20000
   27    28     1      0.24921    20000
   28    29     1      0.23726    20000
   29    30     1      0.25326    20000
