[ moleculetype ]
; name        nrexcl
res           1

[ atoms ]
;    nr  type  resnr resid  atom  cgnr     charge       mass
      1 N4a       1 res   C1        1      0.000     72.000
      2 TC5       1 res   C2        2      0.000     36.000
      3 TN4a      1 res   C3        3      0.000     36.000
      4 TN6       1 res   C4        4      0.000     36.000
      5 TN4a      1 res   C5        5      0.000     36.000
      6 TP1       1 res   C6        6      0.000     36.000
      7 TN6       1 res   C7        7      0.000     36.000
      8 TN6       1 res   C8        8      0.000     36.000
      9 TN6       1 res   C9        9      0.000     36.000
     10 SC3       1 res   C10      10      0.000     54.000
     11 TC5       1 res   C11      11      0.000     36.000
     12 TN2a      1 res   C12      12      0.000     36.000

[ bonds ]
;  ai    aj   funct      b0(nm)          k(kJ/mol/nm^2)
    1     2     1      0.32787          37508.4
    2     3     1      0.25820          57638.2
    2    10     1      0.29541          95102.3
    3     4     1      0.19871          11636.7
    3    10     1      0.30253          70117.8
    4     5     1      0.23287          30866.5
    4     9     1      0.21617          15638.5
    5     6     1      0.20715          81316.8
    5     7     1      0.23366          23299.1
    7     8     1      0.21670          22066.6
    8     9     1      0.23514           9606.7
   10    11     1      0.20483         158484.4
   11    12     1      0.26117          62698.1

[ angles ]
;  ai    aj    ak  funct     th0(deg)        k(kJ/mol/rad^2)
    1     2     3     1    153.69692           495.88
    1     2    10     1     89.92261           731.16
    2     3     4     1    132.93453            24.43
    2     3    10     1     63.01142          3015.58
    2    10     3     1     51.14501          3837.20
    2    10    11     1    151.74234          1348.94
    3     2    10     1     65.84349          3842.53
    3     4     5     1    123.77525            37.60
    3     4     9     1    125.13821            10.73
    3    10    11     1    103.66463          1180.42
    4     3    10     1    137.28769            97.28
    4     5     6     1    143.46869           527.36
    4     5     7     1    116.31866           329.02
    4     9     8     1     99.61121           123.37
    5     4     9     1     86.38230            66.90
    5     7     8     1     88.96420            76.45
    6     5     7     1     96.92976           310.87
    7     8     9     1     96.90616            34.83
   10    11    12     1    109.37022          1301.16

[ dihedrals ]
;  ai    aj    ak    al  funct   phi0(deg)        k(kJ/mol)   mult
    1     2     3     4     1     43.90281       30.174      1
    1     2     3     4     1    -95.64690       18.574      2
    1     2     3     4     1    112.56949        7.502      3
    1     2     3    10     1    174.34082       26.797      1
    1     2     3    10     1    169.65941       18.520      2
    1     2     3    10     1    166.96416        8.839      3
    1     2    10     3     1     -2.23175       16.384      1
    1     2    10     3     1    175.62195       15.027      2
    1     2    10     3     1     -6.32979       12.945      3
    1     2    10    11     1     23.66322       21.516      1
    1     2    10    11     1   -132.19638       18.102      2
    1     2    10    11     1     73.11302       13.337      3
    2     3     4     5     1    -58.77625       15.249      1
    2     3     4     5     1    158.01537       18.845      2
    2     3     4     5     1    -75.47356        7.384      3
    2     3     4     9     1   -155.19823       17.052      1
    2     3     4     9     1    -26.27138       15.047      2
    2     3     4     9     1   -118.35974        2.539      3
    2     3    10    11     1     15.03840       11.425      1
    2     3    10    11     1   -149.94442       11.029      2
    2     3    10    11     1     45.02797       10.389      3
    2    10     3     4     1    -57.47707       28.086      1
    2    10     3     4     1     64.75783       19.165      2
    2    10     3     4     1   -174.54746        8.071      3
    2    10    11    12     1    172.98511       18.389      1
    2    10    11    12     1    165.95571       16.564      2
    2    10    11    12     1    158.88370       13.787      3
    3     2    10    11     1   -150.64738       18.374      1
    3     2    10    11     1   -121.50568       16.409      2
    3     2    10    11     1    -92.84229       13.488      3
    3     4     5     6     1   -107.72037       25.682      1
    3     4     5     6     1    -79.16301        5.320      2
    3     4     5     6     1   -105.32514       12.229      3
    3     4     5     7     1     42.05602       24.178      1
    3     4     5     7     1   -133.52323        7.297      2
    3     4     5     7     1      0.63407       12.451      3
    3     4     9     8     1    -30.18859       28.576      1
    3     4     9     8     1    125.37397       10.915      2
    3     4     9     8     1     51.06823        5.003      3
    3    10    11    12     1   -164.36660       12.221      1
    3    10    11    12     1   -148.70685       11.721      2
    3    10    11    12     1   -132.99050       10.916      3
    4     3     2    10     1     54.31711       17.533      1
    4     3     2    10     1    -73.64522       13.783      2
    4     3     2    10     1    151.47805        9.067      3
    4     3    10    11     1    136.51353       28.352      1
    4     3    10    11     1     91.72034       18.277      2
    4     3    10    11     1     38.72875        6.571      3
    4     5     7     8     1    174.94623       25.804      1
    4     5     7     8     1    169.43353       18.314      2
    4     5     7     8     1    161.40562        8.715      3
    4     9     8     7     1    167.06837        9.323      1
    4     9     8     7     1     -4.48677       16.812      2
    4     9     8     7     1    -11.71228       12.925      3
    5     4     3    10     1   -136.87689       16.210      1
    5     4     3    10     1    -10.37026       19.825      2
    5     4     3    10     1     72.85010        1.548      3
    5     4     9     8     1   -159.23215       17.088      1
    5     4     9     8     1    -88.23762        4.757      2
    5     4     9     8     1     13.83107       12.691      3
    5     7     8     9     1    177.04575       19.270      1
    5     7     8     9     1    -29.86811        2.009      2
    5     7     8     9     1    -14.71967       16.418      3
    6     5     4     9     1     16.20649       27.982      1
    6     5     4     9     1   -148.41708       18.997      2
    6     5     4     9     1     42.24299        7.965      3
    6     5     7     8     1    -17.27038       27.028      1
    6     5     7     8     1    145.88850       19.040      2
    6     5     7     8     1    -49.27227        9.026      3
    7     5     4     9     1    167.34644       24.779      1
    7     5     4     9     1    154.55629       18.640      2
    7     5     4     9     1    141.23112       10.709      3
    9     4     3    10     1    128.79091       15.577      1
    9     4     3    10     1    179.27773       12.972      2
    9     4     3    10     1    -37.08602        5.243      3
