[ moleculetype ]
; name        nrexcl
res           1

[ atoms ]
;    nr  type  resnr resid  atom  cgnr     charge       mass
      1 SC2       1 res   C1        1      0.000     54.000
      2 P1        1 res   C2        2      0.000     72.000
      3 SC4       1 res   C3        3      0.000     54.000
      4 TN3r      1 res   C4        4      0.000     36.000
      5 SN4a      1 res   C5        5      0.000     54.000
      6 TN3r      1 res   C6        6      0.000     36.000
      7 SN4a      1 res   C7        7      0.000     54.000
      8 TP1       1 res   C8        8      0.000     36.000
      9 SP4       1 res   C9        9      0.000     54.000
     10 TN6       1 res   C10      10      0.000     36.000
     11 SP4       1 res   C11      11      0.000     54.000
     12 TN6       1 res   C12      12      0.000     36.000

[ constraints ]
;  ai    aj   funct      b0(nm)
    5    11     1      0.27759
    7     9     1      0.26038
    3     4     1      0.25538
    7     8     1      0.28600
    5     6     1      0.28627
    9    10     1      0.28244
    6     7     1      0.28449
    7    10     1      0.26588

[ bonds ]
;  ai    aj   funct      b0(nm)          k(kJ/mol/nm^2)
    1     2     1      0.33070           7950.7
    2     3     1      0.29907          19365.4
   11    12     1      0.28300          18173.0
    4     5     1      0.23995          11397.3
    5    12     1      0.26114          12794.9

[ angles ]
;  ai    aj    ak  funct     th0(deg)        k(kJ/mol/rad^2)
    1     2     3     1    147.43131            21.81
    2     3     4     1    124.88368           175.32
    3     4     5     1    114.49365            20.66
    4     5     6     1    147.27200           113.10
    4     5    11     1    114.08456           135.18
    4     5    12     1    110.68185           270.45
    5     6     7     1    132.58576           182.55
    5    11    12     1     55.48025           921.37
    5    12    11     1     61.29881           685.97
    6     5    11     1     63.46243          1508.68
    6     5    12     1     96.35566           110.70
    6     7     8     1    136.20659           111.08
    6     7     9     1    136.61458            89.19
    6     7    10     1     74.54411           146.44
    7     9    10     1     58.49760          1420.23
    7    10     9     1     56.57849          2412.85
    8     7     9     1     83.77431           571.86
    8     7    10     1    146.77315           411.84
    9     7    10     1     64.92393          1468.57
   11     5    12     1     63.22230          1198.20

[ dihedrals ]
;  ai    aj    ak    al  funct   phi0(deg)        k(kJ/mol)   mult
    1     2     3     4     1    121.71375       13.889      1
    2     3     4     5     1   -112.82144       16.829      1
    3     4     5     6     1     15.36202       27.489      1
    3     4     5    11     1    -61.52124       28.933      1
    3     4     5    12     1   -133.95645       26.109      1
    4     5     6     7     1    113.85801       25.598      1
    4     5    11    12     1     80.87575       14.318      1
    4     5    12    11     1    -67.79998       15.004      1
    5     6     7     8     1   -161.92159       31.074      1
    5     6     7     9     1     -0.31780       25.591      1
    5     6     7    10     1      5.08584       27.545      1
    6     5    11    12     1    -61.31987       18.953      1
    6     5    12    11     1    128.33304       13.522      1
    6     7     9    10     1   -174.32157       23.696      1
    6     7    10     9     1      6.77682       20.967      1
    7     6     5    11     1   -150.63008       20.842      1
    7     6     5    12     1    -95.62768       20.097      1
    8     7     9    10     1     -2.98413       17.185      1
    8     7    10     9     1    172.48829       25.803      1
