1TPCN05731
13
    1res  C1    1   -0.447   0.085   0.256
    1res  C2    2   -0.495  -0.115   0.044
    1res  C3    3   -0.295   0.074   0.019
    1res  C4    4   -0.325   0.069  -0.225
    1res  C5    5   -0.040   0.222  -0.021
    1res  C6    6    0.163   0.092  -0.205
    1res  C7    7    0.158  -0.120   0.131
    1res  C8    8    0.281   0.152   0.227
    1res  C9    9    0.521   0.168   0.085
    1res  C10   10    0.542  -0.101   0.125
    1res  C11   11    0.260  -0.149  -0.159
    1res  C12   12   -0.082  -0.095  -0.272
    1res  C13   13   -0.291  -0.256  -0.191
  10.00000  10.00000  10.00000
