1TPCN00001
22
    1res  C1    1   -0.377  -0.066   0.348
    1res  C2    2   -0.410  -0.091   0.050
    1res  C3    3   -0.419   0.140   0.132
    1res  C4    4   -0.582   0.155  -0.021
    1res  C5    5   -0.728   0.291  -0.134
    1res  C6    6   -0.760   0.474  -0.239
    1res  C7    7   -0.910   0.189  -0.248
    1res  C8    8   -0.762   0.004  -0.318
    1res  C9    9   -0.705  -0.044  -0.081
    1res  C10   10   -0.161   0.071   0.074
    1res  C11   11   -0.022  -0.105  -0.007
    1res  C12   12    0.265  -0.137  -0.083
    1res  C13   13    0.351  -0.080   0.187
    1res  C14   14    0.462  -0.243   0.476
    1res  C15   15    0.542  -0.312   0.029
    1res  C16   16    0.561  -0.084  -0.117
    1res  C17   17    0.621   0.186  -0.148
    1res  C18   18    0.597   0.456   0.009
    1res  C19   19    0.791   0.387  -0.213
    1res  C20   20    0.954   0.244  -0.129
    1res  C21   21    0.864   0.018  -0.162
    1res  C22   22   -0.438  -0.416   0.089
  10.00000  10.00000  10.00000
