[ moleculetype ]
; name        nrexcl
res           1

[ atoms ]
;    nr  type resnr resid  atom  cgnr     charge       mass
      1 SN6a      1 res   C1        1      0.000     54.000
      2 TN2a      1 res   C2        2      0.000     36.000
      3 TN6a      1 res   C3        3      0.000     36.000
      4 SC2       1 res   C4        4      0.000     54.000

[ bonds ]
;  ai    aj   funct      b0(nm)        k
    1     2     1      0.30929    20000
    1     3     1      0.27351    20000
    2     3     1      0.16198    20000
    3     4     1      0.27617    20000
