[ moleculetype ]
; name        nrexcl
res           1

[ atoms ]
;    nr  type  resnr resid  atom  cgnr     charge       mass
      1 TC6       1 res   C1        1      0.000     36.000
      2 TC5       1 res   C2        2      0.000     36.000
      3 TC5       1 res   C3        3      0.000     36.000
      4 P6        1 res   C4        4      0.000     72.000

[ constraints ]
;  ai    aj   funct      b0(nm)
    1     2     1      0.24182
    1     3     1      0.25669
    2     3     1      0.25053

[ bonds ]
;  ai    aj   funct      b0(nm)          k(kJ/mol/nm^2)
    3     4     1      0.28968           3073.0

[ angles ]
;  ai    aj    ak  funct     th0(deg)        k(kJ/mol/rad^2)
    1     2     3     1     62.81426          6445.04
    1     3     2     1     56.93335          5122.54
    1     3     4     1     76.89309            51.65
    2     1     3     1     60.25239          4635.15
    2     3     4     1    132.54766            56.21

[ dihedrals ]
;  ai    aj    ak    al  funct   phi0(deg)        k(kJ/mol)   mult
    1     2     3     4     1   -176.40749       23.867      1
    2     1     3     4     1      1.80015       17.759      1
