[ moleculetype ]
; name        nrexcl
res           1

[ atoms ]
;    nr  type  resnr resid  atom  cgnr     charge       mass
      1 SC4       1 res   C1        1      0.000     54.000
      2 TN4a      1 res   C2        2      0.000     36.000
      3 SP4       1 res   C3        3      0.000     54.000
      4 TN4a      1 res   C4        4      0.000     36.000
      5 TP1       1 res   C5        5      0.000     36.000
      6 SP4       1 res   C6        6      0.000     54.000
      7 TC5       1 res   C7        7      0.000     36.000
      8 TC3       1 res   C8        8      0.000     36.000
      9 SN6       1 res   C9        9      0.000     54.000

[ constraints ]
;  ai    aj   funct      b0(nm)
    1     2     1      0.37873
    4     5     1      0.21818
    7     9     1      0.28126
    1     7     1      0.28252
    7     8     1      0.23652
    8     9     1      0.30662
    2     7     1      0.22331
    4     6     1      0.27733

[ bonds ]
;  ai    aj   funct      b0(nm)          k(kJ/mol/nm^2)
    2     3     1      0.32776          11360.7
    3     4     1      0.28440           6922.1
    3     6     1      0.30573          17621.2

[ angles ]
;  ai    aj    ak  funct     th0(deg)        k(kJ/mol/rad^2)
    1     2     3     1    103.35381           129.39
    1     2     7     1     47.83423          1945.84
    1     7     2     1     96.31842           940.92
    1     7     8     1    104.53960          1167.55
    1     7     9     1    162.17541           207.68
    2     1     7     1     35.84765          4468.85
    2     3     4     1     85.00975           261.47
    2     3     6     1    125.69069           226.56
    2     7     8     1    157.09834           993.30
    2     7     9     1     85.84454           896.18
    3     2     7     1     90.32802           158.54
    3     4     5     1    116.87583            40.61
    3     4     6     1     65.81689          1407.04
    3     6     4     1     58.16239           472.69
    4     3     6     1     56.02078           635.48
    5     4     6     1    105.34307           393.99
    7     8     9     1     60.75075          1681.27
    7     9     8     1     47.19274          3332.58
    8     7     9     1     72.05655          1338.61

[ dihedrals ]
;  ai    aj    ak    al  funct   phi0(deg)        k(kJ/mol)   mult
    1     2     3     4     1   -148.77845       24.635      1
    1     2     3     6     1   -108.11187       24.251      1
    1     2     7     8     1     21.69730       20.286      1
    1     2     7     9     1     19.15628       11.415      1
    1     7     2     3     1     70.70352       13.523      1
    1     7     8     9     1     19.99674       12.180      1
    1     7     9     8     1    -99.80879       19.426      1
    2     1     7     8     1     -8.76389       10.070      1
    2     1     7     9     1    -86.76943       21.468      1
    2     3     4     5     1   -131.02818       17.061      1
    2     3     4     6     1    -34.12024       19.516      1
    2     3     6     4     1    133.34376       24.947      1
    2     7     8     9     1    178.12419       20.332      1
    2     7     9     8     1     -1.95984       10.796      1
    3     2     1     7     1   -103.05668       14.424      1
    3     2     7     8     1    -87.74382       21.638      1
    3     2     7     9     1    -96.51040       16.038      1
    3     6     4     5     1    -58.13973       20.136      1
    4     3     2     7     1   -101.39550       22.914      1
    5     4     3     6     1     87.82616       15.565      1
    6     3     2     7     1    -65.90674       25.226      1
