[ moleculetype ]
; name        nrexcl
res           1

[ atoms ]
;    nr  type  resnr resid  atom  cgnr     charge       mass
      1 SP2       1 res   C1        1      0.000     54.000
      2 TC3       1 res   C2        2      0.000     36.000
      3 TC5       1 res   C3        3      0.000     36.000
      4 TC3       1 res   C4        4      0.000     36.000
      5 TN6d      1 res   C5        5      0.000     36.000
      6 SN6       1 res   C6        6      0.000     54.000
      7 TC5       1 res   C7        7      0.000     36.000
      8 TC5       1 res   C8        8      0.000     36.000
      9 TC5       1 res   C9        9      0.000     36.000
     10 TC5       1 res   C10      10      0.000     36.000
     11 TN6d      1 res   C11      11      0.000     36.000
     12 TC3       1 res   C12      12      0.000     36.000

[ bonds ]
;  ai    aj   funct      b0(nm)          k(kJ/mol/nm^2)
    1     2     1      0.26809          32476.9
    2     3     1      0.23588          53001.1
    2     7     1      0.25993         128281.5
    3     4     1      0.27064          50296.6
    3     5     1      0.26502          57918.2
    3     7     1      0.21837         184710.9
    3    12     1      0.30560         115235.4
    4     5     1      0.25113          62106.8
    5     6     1      0.32538          58065.1
    6     7     1      0.26982          92484.3
    7     8     1      0.19135         216418.2
    7    11     1      0.22103         108474.6
    7    12     1      0.24588         122427.7
    8     9     1      0.24844         247111.5
    8    10     1      0.24894         215415.7
    8    11     1      0.21833         119839.9
    9    10     1      0.29001         129994.1

[ angles ]
;  ai    aj    ak  funct     th0(deg)        k(kJ/mol/rad^2)
    1     2     3     1    145.29763           319.94
    1     2     7     1     96.11453           493.17
    2     3     4     1    103.96424          1039.27
    2     3     5     1    158.84648           713.11
    2     3     7     1     69.70609          2201.73
    2     3    12     1     70.40789          2145.60
    2     7     3     1     58.31554          2559.26
    2     7     6     1    138.17217          1052.33
    2     7     8     1    111.07077           762.64
    2     7    11     1     95.36734           697.39
    2     7    12     1     77.66134          1644.32
    3     2     7     1     51.97827          5164.68
    3     4     5     1     60.91431          2413.21
    3     5     4     1     63.19423          1825.28
    3     5     6     1     65.34632          4019.58
    3     7     6     1     82.06450          2509.10
    3     7     8     1    115.48086           919.85
    3     7    11     1    152.26514           581.96
    3     7    12     1     82.11263          3287.85
    3    12     7     1     45.04844          8979.00
    4     3     5     1     55.89136          3230.55
    4     3     7     1    136.35936           408.44
    4     3    12     1     84.00718           493.55
    4     5     6     1    110.59300           329.54
    5     3     7     1    121.80561           769.99
    5     3    12     1    102.13234           334.18
    5     6     7     1     90.03514          3342.48
    6     7     8     1     96.55349           953.86
    6     7    11     1    125.33001           444.16
    6     7    12     1     85.12531           729.08
    7     3    12     1     52.83886          5032.10
    7     8     9     1    126.97583           989.22
    7     8    10     1    158.97032           812.40
    7     8    11     1     64.90606          3481.43
    7    11     8     1     51.63734          4156.46
    8     7    11     1     63.45652          3337.03
    8     7    12     1    162.03943           982.07
    8     9    10     1     54.41520          6698.70
    8    10     9     1     54.25011          8697.02
    9     8    10     1     71.33465          4854.11
    9     8    11     1    163.36112           513.51
   10     8    11     1     95.51032          1262.22
   11     7    12     1    101.29339           892.07
