1TPCN00209
12
    1res  C1    1    0.226   0.265  -0.113
    1res  C2    2   -0.049   0.193  -0.071
    1res  C3    3   -0.154  -0.026   0.061
    1res  C4    4   -0.375  -0.027  -0.057
    1res  C5    5   -0.241  -0.237  -0.082
    1res  C6    6    0.014  -0.256   0.137
    1res  C7    7    0.047   0.020   0.099
    1res  C8    8    0.209  -0.028   0.029
    1res  C9    9    0.251  -0.176  -0.169
    1res  C10   10    0.452  -0.015  -0.030
    1res  C11   11    0.223   0.139   0.181
    1res  C12   12   -0.137   0.158   0.211
  10.00000  10.00000  10.00000
