1TPCN05900
22
    1res  C1    1   -0.837  -0.120  -0.213
    1res  C2    2   -0.795   0.023  -0.459
    1res  C3    3   -0.887   0.125  -0.077
    1res  C4    4   -0.706  -0.034   0.074
    1res  C5    5   -0.577   0.211   0.132
    1res  C6    6   -0.420  -0.016   0.182
    1res  C7    7   -0.353  -0.207  -0.066
    1res  C8    8   -0.255   0.073  -0.063
    1res  C9    9   -0.019  -0.018  -0.135
    1res  C10   10    0.089  -0.189   0.102
    1res  C11   11    0.298  -0.068   0.046
    1res  C12   12    0.499  -0.245   0.183
    1res  C13   13    0.497  -0.401   0.472
    1res  C14   14    0.744  -0.222   0.356
    1res  C15   15    0.666   0.021   0.248
    1res  C16   16    0.617  -0.084   0.053
    1res  C17   17    0.842   0.001  -0.108
    1res  C18   18    0.959   0.208  -0.222
    1res  C19   19    0.766   0.118  -0.380
    1res  C20   20    0.635   0.186  -0.160
    1res  C21   21    0.248   0.165  -0.008
    1res  C22   22   -0.115   0.190   0.148
  10.00000  10.00000  10.00000
