1TPCN00012
14
    1res  C1    1    0.029   0.007  -0.235
    1res  C2    2   -0.125   0.048   0.082
    1res  C3    3   -0.413   0.015  -0.107
    1res  C4    4   -0.416  -0.174  -0.208
    1res  C5    5   -0.677   0.008  -0.130
    1res  C6    6   -0.666   0.034   0.079
    1res  C7    7   -0.467   0.153   0.140
    1res  C8    8   -0.122   0.032   0.331
    1res  C9    9    0.174  -0.088   0.095
    1res  C10   10    0.450  -0.069  -0.110
    1res  C11   11    0.696  -0.229  -0.118
    1res  C12   12    0.694   0.049   0.016
    1res  C13   13    0.477   0.103   0.112
    1res  C14   14    0.375   0.205  -0.070
  10.00000  10.00000  10.00000
