1TPCN05108
33
    1res  C1    1   -0.583   0.265  -0.251
    1res  C2    2   -0.728  -0.018  -0.195
    1res  C3    3   -0.828  -0.069   0.004
    1res  C4    4   -0.700  -0.202   0.110
    1res  C5    5   -0.627  -0.438   0.076
    1res  C6    6   -0.391  -0.266   0.032
    1res  C7    7   -0.121  -0.135   0.186
    1res  C8    8    0.054  -0.089  -0.009
    1res  C9    9   -0.003   0.189  -0.148
    1res  C10   10    0.116   0.300   0.060
    1res  C11   11    0.275   0.119   0.258
    1res  C12   12    0.370   0.300  -0.092
    1res  C13   13    0.571   0.052   0.102
    1res  C14   14    0.769   0.240   0.272
    1res  C15   15    0.816   0.480   0.143
    1res  C16   16    0.894   0.258   0.003
    1res  C17   17    0.788   0.051  -0.007
    1res  C18   18    1.033  -0.096  -0.094
    1res  C19   19    1.137  -0.305  -0.190
    1res  C20   20    0.988  -0.264  -0.377
    1res  C21   21    0.790  -0.147  -0.309
    1res  C22   22    0.448   0.040  -0.126
    1res  C23   23   -0.322  -0.014  -0.116
    1res  C24   24   -0.336   0.142   0.102
    1res  C25   25   -0.331  -0.517   0.083
    1res  C26   26   -0.417  -0.671   0.274
    1res  C27   27   -0.515  -0.622  -0.061
    1res  C28   28   -0.660   0.042   0.249
    1res  C29   29   -0.881  -0.005   0.355
    1res  C30   30   -0.991   0.021   0.154
    1res  C31   31   -0.955  -0.036  -0.245
    1res  C32   32   -1.010   0.199  -0.235
    1res  C33   33   -0.825   0.325  -0.331
  10.00000  10.00000  10.00000
