[ moleculetype ]
; name        nrexcl
res           1

[ atoms ]
;    nr  type resnr resid  atom  cgnr     charge       mass
      1 TC4       1 res   C1        1      0.000     36.000
      2 SP2       1 res   C2        2      0.000     54.000
      3 SC3       1 res   C3        3      0.000     54.000
      4 SC4       1 res   C4        4      0.000     54.000
      5 TN6       1 res   C5        5      0.000     36.000
      6 TN6       1 res   C6        6      0.000     36.000
      7 TC5       1 res   C7        7      0.000     36.000
      8 TC3       1 res   C8        8      0.000     36.000
      9 TC3       1 res   C9        9      0.000     36.000
     10 TC3       1 res   C10      10      0.000     36.000
     11 TP1       1 res   C11      11      0.000     36.000
     12 TN6       1 res   C12      12      0.000     36.000
     13 TN4a      1 res   C13      13      0.000     36.000
     14 TP1       1 res   C14      14      0.000     36.000
     15 TN6       1 res   C15      15      0.000     36.000
     16 TN6       1 res   C16      16      0.000     36.000
     17 TN6       1 res   C17      17      0.000     36.000

[ bonds ]
;  ai    aj   funct      b0(nm)        k
    1     2     1      0.30425    20000
    1     3     1      0.33628    20000
    1     4     1      0.40145    20000
    3     4     1      0.29033    20000
    4     5     1      0.38683    20000
    4     7     1      0.27830    20000
    5     6     1      0.23225    20000
    6     7     1      0.28216    20000
    7     8     1      0.25408    20000
    7     9     1      0.24615    20000
    7    10     1      0.27851    20000
    8     9     1      0.28515    20000
    8    10     1      0.27823    20000
   10    11     1      0.28683    20000
   10    12     1      0.22601    20000
   12    13     1      0.26611    20000
   12    17     1      0.24204    20000
   13    14     1      0.22470    20000
   13    15     1      0.25945    20000
   15    16     1      0.21230    20000
   16    17     1      0.21986    20000
