1TPCN03091
17
    1res  C1    1   -0.447   0.182   0.161
    1res  C2    2   -0.262   0.375   0.016
    1res  C3    3   -0.445   0.024  -0.136
    1res  C4    4   -0.160   0.059  -0.092
    1res  C5    5   -0.360  -0.096   0.201
    1res  C6    6   -0.143  -0.126   0.278
    1res  C7    7   -0.137  -0.200   0.006
    1res  C8    8    0.038  -0.360   0.096
    1res  C9    9    0.010  -0.278  -0.175
    1res  C10   10    0.100  -0.089   0.100
    1res  C11   11    0.338  -0.237   0.161
    1res  C12   12    0.284  -0.045  -0.024
    1res  C13   13    0.243   0.184  -0.154
    1res  C14   14    0.163   0.326   0.001
    1res  C15   15    0.462   0.302  -0.080
    1res  C16   16    0.564   0.130  -0.153
    1res  C17   17    0.498  -0.078  -0.131
  10.00000  10.00000  10.00000
