1TPCN04026
13
    1res  C1    1    0.304   0.162  -0.024
    1res  C2    2    0.154  -0.195  -0.120
    1res  C3    3    0.494  -0.051  -0.231
    1res  C4    4    0.535  -0.036   0.033
    1res  C5    5    0.786  -0.090   0.155
    1res  C6    6    0.704   0.155   0.110
    1res  C7    7    0.001   0.001  -0.092
    1res  C8    8   -0.057   0.154   0.128
    1res  C9    9   -0.336   0.166  -0.028
    1res  C10   10   -0.550   0.318  -0.079
    1res  C11   11   -0.563   0.051   0.196
    1res  C12   12   -0.319  -0.100  -0.049
    1res  C13   13   -0.521  -0.386  -0.037
  10.00000  10.00000  10.00000
