[ moleculetype ]
; name        nrexcl
res           1

[ atoms ]
;    nr  type resnr resid  atom  cgnr     charge       mass
      1 SC4       1 res   C1        1      0.000     54.000
      2 TC3       1 res   C2        2      0.000     36.000
      3 TC5       1 res   C3        3      0.000     36.000
      4 SN4a      1 res   C4        4      0.000     54.000
      5 SN4a      1 res   C5        5      0.000     54.000
      6 TN3r      1 res   C6        6      0.000     36.000
      7 SN4a      1 res   C7        7      0.000     54.000
      8 TP1       1 res   C8        8      0.000     36.000
      9 TN6       1 res   C9        9      0.000     36.000
     10 TN4a      1 res   C10      10      0.000     36.000
     11 TC4       1 res   C11      11      0.000     36.000
     12 TN6       1 res   C12      12      0.000     36.000
     13 TN6       1 res   C13      13      0.000     36.000
     14 TN6       1 res   C14      14      0.000     36.000
     15 TN6       1 res   C15      15      0.000     36.000
     16 TN6       1 res   C16      16      0.000     36.000
     17 TN6       1 res   C17      17      0.000     36.000
     18 TN6       1 res   C18      18      0.000     36.000
     19 TN6       1 res   C19      19      0.000     36.000
     20 TC3       1 res   C20      20      0.000     36.000
     21 SC4       1 res   C21      21      0.000     54.000
     22 TC3       1 res   C22      22      0.000     36.000
     23 SC4       1 res   C23      23      0.000     54.000
     24 SC4       1 res   C24      24      0.000     54.000
     25 SN6       1 res   C25      25      0.000     54.000
     26 TN6       1 res   C26      26      0.000     36.000
     27 TC4       1 res   C27      27      0.000     36.000
     28 TP1       1 res   C28      28      0.000     36.000
     29 TC3       1 res   C29      29      0.000     36.000

[ bonds ]
;  ai    aj   funct      b0(nm)        k
    1     2     1      0.31631    20000
    1     3     1      0.29603    20000
    2     3     1      0.25240    20000
    3     4     1      0.28828    20000
    3    20     1      0.25680    20000
    3    21     1      0.29548    20000
    4     5     1      0.33301    20000
    5     6     1      0.28974    20000
    5    17     1      0.28752    20000
    5    19     1      0.30332    20000
    6     7     1      0.29628    20000
    7     8     1      0.29649    20000
    7     9     1      0.26328    20000
    7    16     1      0.27200    20000
    9    10     1      0.21935    20000
    9    15     1      0.21219    20000
   10    11     1      0.32190    20000
   10    14     1      0.23190    20000
   11    12     1      0.26986    20000
   12    13     1      0.23591    20000
   13    14     1      0.24460    20000
   15    16     1      0.21601    20000
   17    18     1      0.21321    20000
   18    19     1      0.22184    20000
   20    21     1      0.31128    20000
   21    22     1      0.34628    20000
   21    23     1      0.26700    20000
   22    23     1      0.38041    20000
   23    24     1      0.26197    20000
   23    29     1      0.28132    20000
   24    25     1      0.29426    20000
   24    27     1      0.38652    20000
   24    29     1      0.31767    20000
   25    26     1      0.27966    20000
   26    27     1      0.29946    20000
   27    28     1      0.28705    20000
