1TPCN03918
17
    1res  C1    1   -0.082   0.262  -0.068
    1res  C2    2   -0.060  -0.072  -0.024
    1res  C3    3    0.244   0.171   0.030
    1res  C4    4    0.355  -0.018  -0.140
    1res  C5    5    0.241   0.088  -0.444
    1res  C6    6    0.465  -0.168  -0.022
    1res  C7    7    0.362  -0.188   0.187
    1res  C8    8    0.310   0.106   0.416
    1res  C9    9   -0.077  -0.300   0.236
    1res  C10   10   -0.317  -0.096   0.079
    1res  C11   11   -0.365   0.096   0.241
    1res  C12   12   -0.084  -0.113  -0.293
    1res  C13   13   -0.300   0.013  -0.400
    1res  C14   14   -0.486  -0.117  -0.209
    1res  C15   15   -0.537   0.129  -0.135
    1res  C16   16   -0.619  -0.055  -0.128
    1res  C17   17   -0.132   0.185  -0.341
  10.00000  10.00000  10.00000
