1TPCN05608
28
    1res  C1    1   -0.403  -0.289   0.123
    1res  C2    2   -0.547  -0.169   0.407
    1res  C3    3   -0.493   0.071   0.294
    1res  C4    4   -0.316   0.183   0.043
    1res  C5    5   -0.136   0.386   0.045
    1res  C6    6    0.081   0.309   0.302
    1res  C7    7    0.134   0.393   0.035
    1res  C8    8    0.109   0.016   0.027
    1res  C9    9    0.395   0.261   0.136
    1res  C10   10    0.501   0.012   0.040
    1res  C11   11    0.750  -0.099   0.115
    1res  C12   12    0.729   0.124  -0.093
    1res  C13   13    0.545  -0.021  -0.293
    1res  C14   14    0.733  -0.214  -0.403
    1res  C15   15    0.985  -0.358  -0.289
    1res  C16   16    0.775  -0.370  -0.572
    1res  C17   17    0.662  -0.536  -0.412
    1res  C18   18    0.531  -0.372  -0.248
    1res  C19   19    0.385   0.288  -0.166
    1res  C20   20   -0.216   0.147   0.367
    1res  C21   21   -0.663   0.041   0.175
    1res  C22   22   -0.876  -0.066   0.014
    1res  C23   23   -1.010  -0.317  -0.042
    1res  C24   24   -0.988  -0.016  -0.219
    1res  C25   25   -0.798  -0.098  -0.311
    1res  C26   26   -0.625  -0.016  -0.162
    1res  C27   27   -0.815   0.036   0.349
    1res  C28   28   -0.795  -0.219   0.359
  10.00000  10.00000  10.00000
