[ moleculetype ]
; name        nrexcl
res           1

[ atoms ]
;    nr  type resnr resid  atom  cgnr     charge       mass
      1 C4        1 res   C1        1      0.000     72.000
      2 SC3       1 res   C2        2      0.000     54.000
      3 TC3       1 res   C3        3      0.000     36.000
      4 SC5       1 res   C4        4      0.000     54.000
      5 SN6       1 res   C5        5      0.000     54.000
      6 TN6a      1 res   C6        6      0.000     36.000
      7 TN6a      1 res   C7        7      0.000     36.000
      8 SN6       1 res   C8        8      0.000     54.000

[ bonds ]
;  ai    aj   funct      b0(nm)        k
    1     2     1      0.42642    20000
    1     3     1      0.27534    20000
    2     3     1      0.37111    20000
    3     4     1      0.37538    20000
    3     8     1      0.28837    20000
    4     5     1      0.26568    20000
    4     6     1      0.28184    20000
    4     7     1      0.23725    20000
    5     6     1      0.23986    20000
    7     8     1      0.23429    20000
