1TPCN02911
8
    1res  C1    1   -0.087  -0.247  -0.131
    1res  C2    2   -0.293   0.029   0.120
    1res  C3    3   -0.031   0.022  -0.143
    1res  C4    4    0.269   0.083   0.074
    1res  C5    5    0.465  -0.095   0.065
    1res  C6    6    0.261  -0.179  -0.029
    1res  C7    7    0.124   0.267   0.035
    1res  C8    8   -0.081   0.298  -0.074
  10.00000  10.00000  10.00000
