[ moleculetype ]
; name        nrexcl
res           1

[ atoms ]
;    nr  type resnr resid  atom  cgnr     charge       mass
      1 TC4       1 res   C1        1      0.000     36.000
      2 TC3       1 res   C2        2      0.000     36.000
      3 TC5       1 res   C3        3      0.000     36.000
      4 SP2       1 res   C4        4      0.000     54.000
      5 TC3       1 res   C5        5      0.000     36.000
      6 SC4       1 res   C6        6      0.000     54.000
      7 TC3       1 res   C7        7      0.000     36.000
      8 SC4       1 res   C8        8      0.000     54.000
      9 SC4       1 res   C9        9      0.000     54.000
     10 TC3       1 res   C10      10      0.000     36.000
     11 TN6       1 res   C11      11      0.000     36.000
     12 SN4a      1 res   C12      12      0.000     54.000
     13 TN6       1 res   C13      13      0.000     36.000
     14 TN6       1 res   C14      14      0.000     36.000
     15 TN6       1 res   C15      15      0.000     36.000
     16 SN4a      1 res   C16      16      0.000     54.000
     17 TP1       1 res   C17      17      0.000     36.000
     18 TN6       1 res   C18      18      0.000     36.000
     19 TN6       1 res   C19      19      0.000     36.000
     20 TN6       1 res   C20      20      0.000     36.000
     21 SN4a      1 res   C21      21      0.000     54.000
     22 TP1       1 res   C22      22      0.000     36.000
     23 TN6       1 res   C23      23      0.000     36.000
     24 TN6       1 res   C24      24      0.000     36.000
     25 TN6       1 res   C25      25      0.000     36.000
     26 SC4       1 res   C26      26      0.000     54.000
     27 TC3       1 res   C27      27      0.000     36.000
     28 SN6       1 res   C28      28      0.000     54.000

[ bonds ]
;  ai    aj   funct      b0(nm)        k
    1     2     1      0.29832    20000
    1    28     1      0.27114    20000
    2     3     1      0.24611    20000
    3     4     1      0.31182    20000
    3     5     1      0.28493    20000
    3     6     1      0.25456    20000
    3    28     1      0.26333    20000
    5     6     1      0.28125    20000
    6     7     1      0.40161    20000
    6     8     1      0.29654    20000
    7     8     1      0.32810    20000
    8     9     1      0.30710    20000
    8    27     1      0.32321    20000
    9    10     1      0.29050    20000
    9    26     1      0.35560    20000
    9    27     1      0.27009    20000
   10    11     1      0.24601    20000
   11    12     1      0.29986    20000
   11    26     1      0.24953    20000
   12    13     1      0.28146    20000
   12    15     1      0.28795    20000
   13    14     1      0.25973    20000
   14    15     1      0.23704    20000
   15    16     1      0.26428    20000
   16    17     1      0.29642    20000
   16    18     1      0.25661    20000
   16    20     1      0.27234    20000
   18    19     1      0.26830    20000
   19    20     1      0.21847    20000
   20    21     1      0.23301    20000
   21    22     1      0.30762    20000
   21    23     1      0.30088    20000
   21    25     1      0.24221    20000
   23    24     1      0.24753    20000
   24    25     1      0.27586    20000
