[ moleculetype ]
; name        nrexcl
res           1

[ atoms ]
;    nr  type resnr resid  atom  cgnr     charge       mass
      1 SC4       1 res   C1        1      0.000     54.000
      2 TN6a      1 res   C2        2      0.000     36.000
      3 SC4       1 res   C3        3      0.000     54.000
      4 TC4       1 res   C4        4      0.000     36.000
      5 TP1       1 res   C5        5      0.000     36.000
      6 SC3       1 res   C6        6      0.000     54.000
      7 N3r       1 res   C7        7      0.000     72.000
      8 SP2       1 res   C8        8      0.000     54.000

[ bonds ]
;  ai    aj   funct      b0(nm)        k
    1     2     1      0.34482    20000
    1     3     1      0.34689    20000
    1     7     1      0.37919    20000
    2     3     1      0.28290    20000
    3     4     1      0.29273    20000
    3     6     1      0.27642    20000
    4     5     1      0.28651    20000
    4     6     1      0.32514    20000
    7     8     1      0.31636    20000
