1TPCN05136
38
    1res  C1    1   -0.608  -0.532  -0.290
    1res  C2    2   -0.488  -0.356  -0.081
    1res  C3    3   -0.492  -0.155  -0.044
    1res  C4    4   -0.307  -0.085   0.035
    1res  C5    5   -0.030   0.044   0.112
    1res  C6    6    0.144   0.136  -0.068
    1res  C7    7    0.268  -0.010  -0.272
    1res  C8    8    0.373  -0.134  -0.041
    1res  C9    9    0.430   0.208   0.073
    1res  C10   10    0.618   0.036  -0.194
    1res  C11   11    0.782   0.134   0.015
    1res  C12   12    0.734   0.354   0.089
    1res  C13   13    0.897   0.473  -0.038
    1res  C14   14    0.954   0.204  -0.148
    1res  C15   15    0.920   0.087   0.197
    1res  C16   16    1.085  -0.068   0.310
    1res  C17   17    1.228  -0.282   0.444
    1res  C18   18    1.247  -0.186   0.091
    1res  C19   19    1.367  -0.010   0.124
    1res  C20   20    1.302   0.136   0.307
    1res  C21   21    0.738  -0.112  -0.002
    1res  C22   22   -0.100  -0.016  -0.226
    1res  C23   23   -0.420   0.104   0.187
    1res  C24   24   -0.539   0.216   0.023
    1res  C25   25   -0.632   0.004  -0.027
    1res  C26   26   -0.844  -0.199  -0.040
    1res  C27   27   -0.908  -0.455   0.084
    1res  C28   28   -1.122  -0.232   0.058
    1res  C29   29   -1.059  -0.069  -0.118
    1res  C30   30   -0.924   0.045   0.015
    1res  C31   31   -0.985   0.320   0.055
    1res  C32   32   -0.870   0.574   0.166
    1res  C33   33   -1.051   0.572  -0.083
    1res  C34   34   -1.228   0.402  -0.131
    1res  C35   35   -1.071   0.266  -0.221
    1res  C36   36   -0.439  -0.445   0.150
    1res  C37   37   -0.509  -0.652   0.078
    1res  C38   38   -0.415  -0.672  -0.153
  10.00000  10.00000  10.00000
