[ moleculetype ]
; name        nrexcl
res           1

[ atoms ]
;    nr  type resnr resid  atom  cgnr     charge       mass
      1 TC4       1 res   C1        1      0.000     36.000
      2 TN4a      1 res   C2        2      0.000     36.000
      3 TN6       1 res   C3        3      0.000     36.000
      4 TN6       1 res   C4        4      0.000     36.000
      5 SC3       1 res   C5        5      0.000     54.000
      6 SC4       1 res   C6        6      0.000     54.000
      7 TC3       1 res   C7        7      0.000     36.000
      8 SC4       1 res   C8        8      0.000     54.000
      9 TC3       1 res   C9        9      0.000     36.000
     10 SC4       1 res   C10      10      0.000     54.000
     11 TC5       1 res   C11      11      0.000     36.000
     12 TN6a      1 res   C12      12      0.000     36.000
     13 SC4       1 res   C13      13      0.000     54.000
     14 TC3       1 res   C14      14      0.000     36.000
     15 SN4a      1 res   C15      15      0.000     54.000
     16 SN4a      1 res   C16      16      0.000     54.000
     17 TP1       1 res   C17      17      0.000     36.000
     18 TN6       1 res   C18      18      0.000     36.000
     19 TN6       1 res   C19      19      0.000     36.000
     20 TN6       1 res   C20      20      0.000     36.000
     21 TC3       1 res   C21      21      0.000     36.000
     22 SC4       1 res   C22      22      0.000     54.000
     23 TN4a      1 res   C23      23      0.000     36.000
     24 TN6       1 res   C24      24      0.000     36.000
     25 TN6       1 res   C25      25      0.000     36.000
     26 SN4a      1 res   C26      26      0.000     54.000
     27 TP1       1 res   C27      27      0.000     36.000
     28 TN6       1 res   C28      28      0.000     36.000
     29 TN6       1 res   C29      29      0.000     36.000
     30 TN6       1 res   C30      30      0.000     36.000
     31 SN4a      1 res   C31      31      0.000     54.000
     32 TP1       1 res   C32      32      0.000     36.000
     33 TN6       1 res   C33      33      0.000     36.000
     34 TN6       1 res   C34      34      0.000     36.000
     35 TN6       1 res   C35      35      0.000     36.000
     36 TN6       1 res   C36      36      0.000     36.000
     37 TN6       1 res   C37      37      0.000     36.000
     38 TN6       1 res   C38      38      0.000     36.000

[ bonds ]
;  ai    aj   funct      b0(nm)        k
    1     2     1      0.29829    20000
    1    38     1      0.27420    20000
    2     3     1      0.20429    20000
    2    36     1      0.25238    20000
    3     4     1      0.21286    20000
    3    25     1      0.21194    20000
    4     5     1      0.31474    20000
    4    23     1      0.26742    20000
    5     6     1      0.26644    20000
    5    22     1      0.34982    20000
    6     7     1      0.28082    20000
    6     8     1      0.35472    20000
    6    22     1      0.32787    20000
    7     8     1      0.28274    20000
    8     9     1      0.36462    20000
    8    10     1      0.33581    20000
    9    10     1      0.36949    20000
   10    11     1      0.28307    20000
   10    21     1      0.27042    20000
   11    12     1      0.23652    20000
   11    14     1      0.24739    20000
   11    15     1      0.23345    20000
   11    21     1      0.25097    20000
   12    13     1      0.23852    20000
   13    14     1      0.29664    20000
   15    16     1      0.25355    20000
   16    17     1      0.28979    20000
   16    18     1      0.29710    20000
   16    20     1      0.29756    20000
   18    19     1      0.21613    20000
   19    20     1      0.24274    20000
   23    24     1      0.23143    20000
   24    25     1      0.23663    20000
   25    26     1      0.29433    20000
   26    27     1      0.29130    20000
   26    28     1      0.29597    20000
   26    30     1      0.26335    20000
   28    29     1      0.24762    20000
   29    30     1      0.22174    20000
   30    31     1      0.28392    20000
   31    32     1      0.29991    20000
   31    33     1      0.29498    20000
   31    35     1      0.29414    20000
   33    34     1      0.25030    20000
   34    35     1      0.22607    20000
   36    37     1      0.23037    20000
   37    38     1      0.25054    20000
