[ moleculetype ]
; name        nrexcl
res           1

[ atoms ]
;    nr  type  resnr resid  atom  cgnr     charge       mass
      1 C4        1 res   C1        1      0.000     72.000
      2 SN1       1 res   C2        2      0.000     54.000
      3 SC4       1 res   C3        3      0.000     54.000
      4 TC5       1 res   C4        4      0.000     36.000
      5 TC5       1 res   C5        5      0.000     36.000
      6 TN6d      1 res   C6        6      0.000     36.000
      7 TN6       1 res   C7        7      0.000     36.000
      8 SC3       1 res   C8        8      0.000     54.000
      9 TP1       1 res   C9        9      0.000     36.000
     10 N4a       1 res   C10      10      0.000     72.000

[ bonds ]
;  ai    aj   funct      b0(nm)          k(kJ/mol/nm^2)
    1     2     1      0.33765          13736.9
    1     8     1      0.35022          77652.5
    2     3     1      0.28920          83501.0
    2     6     1      0.28125          32013.3
    2     7     1      0.37544          37589.4
    3     4     1      0.27044         217646.5
    3     5     1      0.31085         296213.9
    3     6     1      0.22542         161277.0
    3     8     1      0.37622         103755.4
    4     5     1      0.28995         366489.2
    7     8     1      0.27416          98456.2
    8     9     1      0.26187          25481.0
    8    10     1      0.47150          37469.2

[ angles ]
;  ai    aj    ak  funct     th0(deg)        k(kJ/mol/rad^2)
    1     2     3     1    110.98446          1511.20
    1     2     6     1    130.37451           583.46
    1     2     7     1     88.59839           658.28
    1     8     3     1     90.76496           837.44
    1     8     7     1    105.46078           326.70
    1     8     9     1    125.52066           464.36
    1     8    10     1     72.62961           477.42
    2     1     8     1     70.49141          2320.13
    2     3     4     1    145.91624           250.46
    2     3     5     1    126.67311           792.35
    2     3     6     1     64.88871          1252.13
    2     3     8     1     71.93640          2931.07
    2     6     3     1     68.60744          1569.54
    2     7     8     1     73.52528          2153.52
    3     2     6     1     46.50359          5950.73
    3     2     7     1     64.91628           875.84
    3     4     5     1     67.27769         10280.98
    3     5     4     1     53.36368         13357.82
    3     8     7     1     65.88967          1424.15
    3     8     9     1     64.11581          1856.17
    3     8    10     1     63.49294          1090.08
    4     3     5     1     59.35863         12664.64
    4     3     6     1    137.59427          1585.46
    4     3     8     1    124.25004           593.88
    5     3     6     1     78.93526          2205.13
    5     3     8     1    144.94063           348.75
    6     2     7     1     43.41435           875.43
    6     3     8     1     86.25664          1483.72
    7     8     9     1    105.81475           367.41
    7     8    10     1    128.99456           625.13
    9     8    10     1     53.25149           816.70
