[ moleculetype ]
; name        nrexcl
res           1

[ atoms ]
;    nr  type  resnr resid  atom  cgnr     charge       mass
      1 TC5       1 res   C1        1      0.000     36.000
      2 SP4       1 res   C2        2      0.000     54.000
      3 TN5       1 res   C3        3      0.000     36.000
      4 N5        1 res   C4        4      0.000     72.000
      5 SN1       1 res   C5        5      0.000     54.000
      6 C1        1 res   C6        6      0.000     72.000
      7 C1        1 res   C7        7      0.000     72.000

[ constraints ]
;  ai    aj   funct      b0(nm)
    1     2     1      0.18738
    1     3     1      0.26480

[ bonds ]
;  ai    aj   funct      b0(nm)          k(kJ/mol/nm^2)
    4     5     1      0.34059           6518.5
    1     4     1      0.33989           4928.9
    5     7     1      0.38402           5401.6
    5     6     1      0.43820          17976.8

[ angles ]
;  ai    aj    ak  funct     th0(deg)        k(kJ/mol/rad^2)
    1     4     5     1    105.34014           181.32
    2     1     3     1    138.72560           411.61
    2     1     4     1    105.41748           245.74
    3     1     4     1    110.64375           165.98
    4     5     6     1     86.48607           135.83
    4     5     7     1    107.04683            28.96
    6     5     7     1    115.90842            21.71

[ dihedrals ]
;  ai    aj    ak    al  funct   phi0(deg)        k(kJ/mol)   mult
    1     4     5     6     1   -161.38231       26.799      1
    1     4     5     7     1    -48.67348       21.979      1
    2     1     4     5     1    132.53820       20.388      1
    3     1     4     5     1    -65.45877       22.727      1
