[ moleculetype ]
; name        nrexcl
res           1

[ atoms ]
;    nr  type  resnr resid  atom  cgnr     charge       mass
      1 TC5       1 res   C1        1      0.000     36.000
      2 SN3r      1 res   C2        2      0.000     54.000
      3 SC2       1 res   C3        3      0.000     54.000
      4 N6a       1 res   C4        4      0.000     72.000
      5 TN4a      1 res   C5        5      0.000     36.000
      6 TC4       1 res   C6        6      0.000     36.000
      7 TN6       1 res   C7        7      0.000     36.000
      8 TN6       1 res   C8        8      0.000     36.000
      9 TN6       1 res   C9        9      0.000     36.000

[ bonds ]
;  ai    aj   funct      b0(nm)          k(kJ/mol/nm^2)
    2     5     1      0.26765          12885.4
    5     6     1      0.30509          40542.1
    5     9     1      0.23824          23492.9
    6     7     1      0.28546          12325.9
    7     8     1      0.26597           9111.1
    8     9     1      0.24795           9031.1

[ angles ]
;  ai    aj    ak  funct     th0(deg)        k(kJ/mol/rad^2)
    2     5     6     1    102.20769           147.98
    2     5     9     1    110.59365            40.11
    5     6     7     1     58.31752           181.68
    5     9     8     1     83.40182           159.93
    6     5     9     1    107.42370            60.28
    6     7     8     1     82.11304            78.89
    7     8     9     1     88.13274            70.94
