[ moleculetype ]
; name        nrexcl
res           1

[ atoms ]
;    nr  type  resnr resid  atom  cgnr     charge       mass
      1 N4a       1 res   C1        1      0.000     72.000
      2 TC5       1 res   C2        2      0.000     36.000
      3 TN4a      1 res   C3        3      0.000     36.000
      4 TC4       1 res   C4        4      0.000     36.000
      5 TC5       1 res   C5        5      0.000     36.000
      6 TN6d      1 res   C6        6      0.000     36.000
      7 TC3       1 res   C7        7      0.000     36.000
      8 TC5       1 res   C8        8      0.000     36.000
      9 TN6d      1 res   C9        9      0.000     36.000
     10 TC5       1 res   C10      10      0.000     36.000
     11 TC5       1 res   C11      11      0.000     36.000
     12 TC5       1 res   C12      12      0.000     36.000
     13 TC3       1 res   C13      13      0.000     36.000

[ constraints ]
;  ai    aj   funct      b0(nm)
    1     2     1      0.32302
   10    11     1      0.24961
    3     5     1      0.23308
    2     3     1      0.26632
   11    12     1      0.29207
    5    13     1      0.22816
    2     5     1      0.26020
    3     4     1      0.21429
    7     8     1      0.24680
    5     6     1      0.22350
    8    10     1      0.18421
    8    13     1      0.26913
    6     7     1      0.30402
    9    10     1      0.21823
   10    12     1      0.25069
    6    13     1      0.30013
    8     9     1      0.21843

[ bonds ]
;  ai    aj   funct      b0(nm)          k(kJ/mol/nm^2)

[ angles ]
;  ai    aj    ak  funct     th0(deg)        k(kJ/mol/rad^2)
    1     2     3     1    160.11001           510.82
    1     2     5     1    109.82776           848.28
    2     3     4     1     95.87460           303.41
    2     3     5     1     62.37321          2460.98
    2     5     3     1     65.10463          2281.98
    2     5     6     1    158.22761           819.33
    2     5    13     1    116.37895           687.59
    3     2     5     1     52.52215          3960.64
    3     5     6     1     93.86508          1046.22
    3     5    13     1    159.55420           302.17
    4     3     5     1     83.67590           963.14
    5     6     7     1    119.59747           232.79
    5     6    13     1     48.98181          1349.72
    5    13     6     1     47.62956          2241.03
    5    13     8     1    120.75072           212.86
    6     5    13     1     83.38849           571.66
    6     7     8     1     88.04368          1793.44
    6    13     8     1     84.91405          2132.75
    7     6    13     1     83.56514          1576.26
    7     8     9     1    163.60154           535.42
    7     8    10     1    128.33766          1132.60
    7     8    13     1    102.48767          2686.78
    8     9    10     1     49.89873          6531.76
    8    10     9     1     65.10693          3250.25
    8    10    11     1    160.80820          1597.75
    8    10    12     1    126.75207          1783.38
    9     8    10     1     64.99429          3572.00
    9     8    13     1     65.09819          1061.07
    9    10    11     1     96.37336          1481.25
    9    10    12     1    166.47933          1103.77
   10     8    13     1    128.47300          1095.74
   10    11    12     1     54.45214         10644.95
   10    12    11     1     54.11351          8187.70
   11    10    12     1     71.43436          7854.81

[ dihedrals ]
;  ai    aj    ak    al  funct   phi0(deg)        k(kJ/mol)   mult
    1     2     3     4     1    116.19903       29.643      1
    1     2     3     5     1   -165.21816       28.769      1
    1     2     5     3     1      6.05238       15.063      1
    1     2     5     6     1      3.63693       25.207      1
    1     2     5    13     1   -152.97589       19.651      1
    2     3     5     6     1      0.14281       10.789      1
    2     3     5    13     1    -75.26430       20.261      1
    2     5     3     4     1    -77.96225       10.744      1
    2     5     6     7     1    -24.06221       26.091      1
    2     5     6    13     1     16.34856       21.699      1
    2     5    13     6     1     -5.17432       10.040      1
    2     5    13     8     1     34.58610       20.180      1
    3     2     5     6     1    179.95892       22.847      1
    3     2     5    13     1     21.07125       11.515      1
    3     5     6     7     1    -22.59139       22.639      1
    3     5     6    13     1     19.02699       11.490      1
    3     5    13     6     1   -104.75523       22.712      1
    3     5    13     8     1    -58.32259       21.582      1
    4     3     2     5     1    100.94338        7.060      1
    4     3     5     6     1    101.89428       10.796      1
    4     3     5    13     1     25.83462       22.468      1
    5     6     7     8     1   -147.46380       19.577      1
    5     6    13     8     1     35.83293       18.399      1
    5    13     6     7     1    -36.21584       20.373      1
    5    13     8     7     1    152.11557       20.441      1
    5    13     8     9     1    -19.11568       23.483      1
    5    13     8    10     1    -31.10247       21.142      1
    6     5    13     8     1   -139.20457       19.771      1
    6     7     8     9     1   -154.51486       27.520      1
    6     7     8    10     1      2.01848       16.372      1
    6     7     8    13     1    176.28624       14.981      1
    6    13     8     7     1   -177.12027       15.694      1
    6    13     8     9     1     12.82077       17.078      1
    6    13     8    10     1     -1.83531       16.331      1
    7     6     5    13     1    139.06485       21.025      1
    7     6    13     8     1    178.00449       12.189      1
    7     8     9    10     1    -19.68597       26.275      1
    7     8    10     9     1      7.95022       15.037      1
    7     8    10    11     1      5.72480       27.241      1
    7     8    10    12     1   -170.79463       15.595      1
    8     7     6    13     1   -178.01250       13.582      1
    8     9    10    11     1     -1.91163        9.327      1
    8     9    10    12     1     -1.77121       30.173      1
    8    10    11    12     1      4.43739       22.768      1
    8    10    12    11     1     -1.88933       12.217      1
    9     8    10    11     1    177.57883       22.886      1
    9     8    10    12     1      0.94747       12.948      1
    9    10     8    13     1   -168.04283       12.252      1
    9    10    11    12     1     -0.94486       11.526      1
    9    10    12    11     1    175.98958       30.887      1
   10     9     8    13     1     10.89893       11.524      1
   11    10     8    13     1   -168.40769       22.852      1
   12    10     8    13     1     15.11360       15.692      1
