[ moleculetype ]
; name        nrexcl
res           1

[ atoms ]
;    nr  type  resnr resid  atom  cgnr     charge       mass
      1 TC5       1 res   C1        1      0.000     36.000
      2 SN6       1 res   C2        2      0.000     54.000
      3 SN4a      1 res   C3        3      0.000     54.000
      4 TP1       1 res   C4        4      0.000     36.000
      5 SP4       1 res   C5        5      0.000     54.000
      6 TN6       1 res   C6        6      0.000     36.000
      7 TN4a      1 res   C7        7      0.000     36.000
      8 TC5       1 res   C8        8      0.000     36.000
      9 TN6a      1 res   C9        9      0.000     36.000
     10 SN6d      1 res   C10      10      0.000     54.000
     11 TC3       1 res   C11      11      0.000     36.000
     12 TC5       1 res   C12      12      0.000     36.000
     13 SN6       1 res   C13      13      0.000     54.000
     14 SN6       1 res   C14      14      0.000     54.000

[ constraints ]
;  ai    aj   funct      b0(nm)
   10    11     1      0.35255
    3     5     1      0.27159
    2     3     1      0.35289
   11    12     1      0.24282
   12    14     1      0.29095
   10    12     1      0.25350
   13    14     1      0.29552
    3     4     1      0.29339
    7     8     1      0.25710
    2     8     1      0.23452
    5     6     1      0.29052
    8    10     1      0.20915
    9    10     1      0.31110
   12    13     1      0.28831
    2     7     1      0.25615
    8     9     1      0.27764

[ bonds ]
;  ai    aj   funct      b0(nm)          k(kJ/mol/nm^2)
    1     2     1      0.26310          19413.9
    3     6     1      0.24977          11761.6

[ angles ]
;  ai    aj    ak  funct     th0(deg)        k(kJ/mol/rad^2)
    1     2     3     1    110.32228            66.68
    1     2     7     1    150.82965           186.86
    1     2     8     1     88.86435           182.86
    2     3     4     1    108.48537           167.72
    2     3     5     1    103.21314            75.71
    2     3     6     1    102.47050           261.29
    2     7     8     1     54.35420          4220.01
    2     8     7     1     62.60857          2503.49
    2     8     9     1    126.22202           882.42
    2     8    10     1    134.99351          1037.64
    3     2     7     1     85.68395            48.20
    3     2     8     1    116.27205           106.02
    3     5     6     1     52.66704           538.95
    3     6     5     1     59.76050          1111.95
    4     3     5     1     75.53949           473.38
    4     3     6     1    135.02009           307.79
    5     3     6     1     67.56962           790.57
    7     2     8     1     63.03714          1979.25
    7     8     9     1     65.43842          1900.81
    7     8    10     1    134.71466           638.05
    8     9    10     1     41.10745          7124.52
    8    10     9     1     60.82823          2224.75
    8    10    11     1    115.19676           883.91
    8    10    12     1    155.49882           835.54
    9     8    10     1     78.06425          1921.39
    9    10    11     1     57.55587          2142.11
    9    10    12     1    100.38627          1306.22
   10    11    12     1     45.97567          4303.85
   10    12    11     1     90.49438          2522.87
   10    12    13     1    149.29122          1564.56
   10    12    14     1     89.60713          1052.42
   11    10    12     1     43.52991          4882.20
   11    12    13     1    117.53604          1632.77
   11    12    14     1    168.28252           212.37
   12    13    14     1     59.77051          7618.80
   12    14    13     1     58.88186         13275.49
   13    12    14     1     61.34761          7047.05

[ dihedrals ]
;  ai    aj    ak    al  funct   phi0(deg)        k(kJ/mol)   mult
    1     2     3     4     1   -106.67169       27.670      1
    1     2     3     5     1    175.21782       27.910      1
    1     2     3     6     1    103.56664       29.306      1
    1     2     7     8     1   -167.96797       20.377      1
    1     2     8     7     1      6.02723       14.854      1
    1     2     8     9     1     18.95645       14.924      1
    1     2     8    10     1    131.31278       15.664      1
    2     3     5     6     1     84.57133       16.400      1
    2     3     6     5     1    -79.36836       19.072      1
    2     7     8     9     1     12.19921       10.764      1
    2     7     8    10     1     53.90315        7.852      1
    2     8     9    10     1    -41.20413        9.982      1
    2     8    10     9     1     49.70947       10.755      1
    2     8    10    11     1     35.09600       17.532      1
    2     8    10    12     1     20.96384       21.725      1
    3     2     7     8     1     56.71060       10.037      1
    3     2     8     7     1   -106.19147       19.178      1
    3     2     8     9     1    -94.24581       16.352      1
    3     2     8    10     1     18.49768       19.105      1
    4     3     2     7     1     49.24292       27.357      1
    4     3     2     8     1    -11.94503       31.066      1
    4     3     5     6     1    -17.98311       17.768      1
    4     3     6     5     1    153.61140       21.458      1
    5     3     2     7     1    -29.95372       26.492      1
    5     3     2     8     1    -90.74461       27.348      1
    6     3     2     7     1   -101.39616       27.560      1
    6     3     2     8     1   -162.46038       31.503      1
    7     2     8     9     1   -166.90223       11.480      1
    7     2     8    10     1    -51.11656       11.474      1
    7     8     9    10     1    -27.95696        9.307      1
    7     8    10     9     1    142.15412       10.773      1
    7     8    10    11     1    129.40307       15.621      1
    7     8    10    12     1    111.54343       23.901      1
    8     9    10    11     1    -14.95734       14.941      1
    8     9    10    12     1    -10.94858       12.181      1
    8    10    11    12     1     10.42923       14.317      1
    8    10    12    11     1   -155.23839       24.251      1
    8    10    12    13     1      3.44310       23.936      1
    8    10    12    14     1     20.65543       24.647      1
    9     8    10    11     1    168.11383       14.248      1
    9     8    10    12     1    149.18853       22.019      1
    9    10    11    12     1     -5.98195       17.803      1
    9    10    12    11     1    174.90458       14.361      1
    9    10    12    13     1    -25.34408       16.264      1
    9    10    12    14     1    -10.34900       18.711      1
   10    11    12    13     1     11.02491       11.478      1
   10    11    12    14     1     87.90172       10.547      1
   10    12    13    14     1   -162.89599       22.152      1
   10    12    14    13     1      8.95001       14.293      1
   11    10    12    13     1    -18.16998       17.717      1
   11    10    12    14     1     -2.15901       17.695      1
   11    12    13    14     1     -2.89485       19.675      1
   11    12    14    13     1     95.19992       10.126      1
