1TPCN04886
37
    1res  C1    1    0.928   0.442   0.080
    1res  C2    2    0.931   0.369  -0.174
    1res  C3    3    1.148   0.237   0.021
    1res  C4    4    0.867   0.107   0.069
    1res  C5    5    1.005   0.065   0.259
    1res  C6    6    0.607   0.122   0.283
    1res  C7    7    0.554  -0.211   0.113
    1res  C8    8    0.302   0.012   0.281
    1res  C9    9    0.248  -0.214   0.071
    1res  C10   10    0.095  -0.060  -0.060
    1res  C11   11   -0.178   0.008  -0.108
    1res  C12   12   -0.417  -0.033  -0.168
    1res  C13   13   -0.623   0.124  -0.126
    1res  C14   14   -0.764   0.229  -0.360
    1res  C15   15   -0.770   0.500  -0.442
    1res  C16   16   -0.789   0.778  -0.555
    1res  C17   17   -1.048   0.532  -0.465
    1res  C18   18   -1.003   0.649  -0.242
    1res  C19   19   -0.821   0.572  -0.158
    1res  C20   20   -0.919   0.101  -0.134
    1res  C21   21   -0.793   0.129   0.075
    1res  C22   22   -0.681  -0.060   0.051
    1res  C23   23   -0.547  -0.275   0.218
    1res  C24   24   -0.566  -0.481   0.362
    1res  C25   25   -0.739  -0.319   0.433
    1res  C26   26   -0.696  -0.102   0.409
    1res  C27   27   -0.291  -0.166  -0.288
    1res  C28   28   -0.171  -0.251  -0.118
    1res  C29   29    0.007  -0.475  -0.035
    1res  C30   30    0.254  -0.620  -0.068
    1res  C31   31   -0.038  -0.746   0.060
    1res  C32   32   -0.213  -0.725  -0.105
    1res  C33   33   -0.288  -0.515  -0.079
    1res  C34   34    0.105   0.152   0.067
    1res  C35   35    0.492   0.043  -0.060
    1res  C36   36    0.807  -0.170   0.137
    1res  C37   37    1.033  -0.109  -0.046
  10.00000  10.00000  10.00000
