1TPCN00814
12
    1res  C1    1    0.471   0.118  -0.094
    1res  C2    2    0.185  -0.075  -0.081
    1res  C3    3   -0.017   0.109  -0.062
    1res  C4    4    0.102   0.289   0.014
    1res  C5    5   -0.080   0.188   0.096
    1res  C6    6   -0.093   0.341   0.294
    1res  C7    7   -0.270   0.115   0.241
    1res  C8    8   -0.271   0.080  -0.161
    1res  C9    9   -0.260  -0.215  -0.156
    1res  C10   10   -0.042  -0.357  -0.115
    1res  C11   11   -0.040  -0.097  -0.099
    1res  C12   12    0.050  -0.133   0.216
  10.00000  10.00000  10.00000
