1TPCN01962
13
    1res  C1    1   -0.339  -0.219   0.212
    1res  C2    2   -0.188   0.025   0.137
    1res  C3    3    0.011  -0.108   0.267
    1res  C4    4    0.121   0.031   0.141
    1res  C5    5    0.381   0.125   0.005
    1res  C6    6    0.650   0.157   0.094
    1res  C7    7    0.583  -0.012  -0.162
    1res  C8    8    0.332  -0.007  -0.254
    1res  C9    9    0.268  -0.110  -0.039
    1res  C10   10   -0.010   0.199  -0.021
    1res  C11   11   -0.246  -0.013  -0.085
    1res  C12   12   -0.374   0.103  -0.276
    1res  C13   13   -0.542   0.055  -0.108
  10.00000  10.00000  10.00000
