[ moleculetype ]
; name        nrexcl
res           1

[ atoms ]
;    nr  type resnr resid  atom  cgnr     charge       mass
      1 TC4       1 res   C1        1      0.000     36.000
      2 TC3       1 res   C2        2      0.000     36.000
      3 TN4a      1 res   C3        3      0.000     36.000
      4 TN4a      1 res   C4        4      0.000     36.000
      5 SC3       1 res   C5        5      0.000     54.000
      6 SC3       1 res   C6        6      0.000     54.000
      7 TC5       1 res   C7        7      0.000     36.000
      8 TC3       1 res   C8        8      0.000     36.000
      9 SC4       1 res   C9        9      0.000     54.000
     10 SN6       1 res   C10      10      0.000     54.000
     11 SN6       1 res   C11      11      0.000     54.000
     12 SN4a      1 res   C12      12      0.000     54.000
     13 TN6       1 res   C13      13      0.000     36.000
     14 TN6       1 res   C14      14      0.000     36.000
     15 TN6       1 res   C15      15      0.000     36.000
     16 TC3       1 res   C16      16      0.000     36.000

[ bonds ]
;  ai    aj   funct      b0(nm)        k
    1     2     1      0.31770    20000
    1     4     1      0.27487    20000
    2     3     1      0.24215    20000
    3     4     1      0.28468    20000
    3     5     1      0.21430    20000
    5     6     1      0.30853    20000
    6     7     1      0.29387    20000
    6    16     1      0.31005    20000
    7     8     1      0.27972    20000
    7     9     1      0.30669    20000
    7    16     1      0.27934    20000
    8     9     1      0.39538    20000
    9    10     1      0.34751    20000
    9    11     1      0.27468    20000
   10    11     1      0.28242    20000
   11    12     1      0.34906    20000
   12    13     1      0.27504    20000
   12    15     1      0.28847    20000
   13    14     1      0.26941    20000
   14    15     1      0.23199    20000
