[ moleculetype ]
; name        nrexcl
res           1

[ atoms ]
;    nr  type resnr resid  atom  cgnr     charge       mass
      1 SC4       1 res   C1        1      0.000     54.000
      2 TC3       1 res   C2        2      0.000     36.000
      3 SC5       1 res   C3        3      0.000     54.000
      4 SP2       1 res   C4        4      0.000     54.000
      5 TC3       1 res   C5        5      0.000     36.000
      6 SC4       1 res   C6        6      0.000     54.000
      7 TC3       1 res   C7        7      0.000     36.000
      8 SC4       1 res   C8        8      0.000     54.000
      9 SC4       1 res   C9        9      0.000     54.000
     10 TC3       1 res   C10      10      0.000     36.000
     11 TN6       1 res   C11      11      0.000     36.000
     12 SN4a      1 res   C12      12      0.000     54.000
     13 SP2       1 res   C13      13      0.000     54.000
     14 TN6       1 res   C14      14      0.000     36.000
     15 TN6       1 res   C15      15      0.000     36.000
     16 TN6       1 res   C16      16      0.000     36.000
     17 SN4a      1 res   C17      17      0.000     54.000
     18 TP1       1 res   C18      18      0.000     36.000
     19 TN6       1 res   C19      19      0.000     36.000
     20 TN6       1 res   C20      20      0.000     36.000
     21 TN6       1 res   C21      21      0.000     36.000
     22 SC4       1 res   C22      22      0.000     54.000
     23 TC3       1 res   C23      23      0.000     36.000

[ bonds ]
;  ai    aj   funct      b0(nm)        k
    1     2     1      0.29797    20000
    1     3     1      0.28570    20000
    2     3     1      0.29611    20000
    3     4     1      0.32320    20000
    3     5     1      0.37238    20000
    3     6     1      0.33537    20000
    5     6     1      0.27592    20000
    6     7     1      0.38406    20000
    6     8     1      0.26388    20000
    7     8     1      0.26188    20000
    8     9     1      0.33564    20000
    8    23     1      0.28652    20000
    9    10     1      0.27729    20000
    9    22     1      0.31871    20000
    9    23     1      0.32023    20000
   10    11     1      0.24782    20000
   11    12     1      0.30859    20000
   11    22     1      0.24627    20000
   12    13     1      0.24156    20000
   12    14     1      0.28970    20000
   12    16     1      0.25689    20000
   14    15     1      0.23332    20000
   15    16     1      0.20427    20000
   16    17     1      0.25721    20000
   17    18     1      0.30779    20000
   17    19     1      0.28683    20000
   17    21     1      0.26970    20000
   19    20     1      0.25595    20000
   20    21     1      0.24960    20000
