[ moleculetype ]
; name        nrexcl
res           1

[ atoms ]
;    nr  type resnr resid  atom  cgnr     charge       mass
      1 TC4       1 res   C1        1      0.000     36.000
      2 TN4a      1 res   C2        2      0.000     36.000
      3 TN6       1 res   C3        3      0.000     36.000
      4 TN6       1 res   C4        4      0.000     36.000
      5 TN4a      1 res   C5        5      0.000     36.000
      6 TN6       1 res   C6        6      0.000     36.000
      7 SN6       1 res   C7        7      0.000     54.000
      8 TC4       1 res   C8        8      0.000     36.000
      9 TN4a      1 res   C9        9      0.000     36.000
     10 TN6       1 res   C10      10      0.000     36.000
     11 SN4a      1 res   C11      11      0.000     54.000
     12 SN4a      1 res   C12      12      0.000     54.000
     13 SC5       1 res   C13      13      0.000     54.000
     14 TC3       1 res   C14      14      0.000     36.000
     15 SC4       1 res   C15      15      0.000     54.000
     16 SC4       1 res   C16      16      0.000     54.000
     17 TC3       1 res   C17      17      0.000     36.000
     18 SC4       1 res   C18      18      0.000     54.000
     19 SC4       1 res   C19      19      0.000     54.000
     20 SN6       1 res   C20      20      0.000     54.000
     21 SN6       1 res   C21      21      0.000     54.000
     22 SN4a      1 res   C22      22      0.000     54.000
     23 TP1       1 res   C23      23      0.000     36.000
     24 TN6       1 res   C24      24      0.000     36.000
     25 TN6       1 res   C25      25      0.000     36.000
     26 TN6       1 res   C26      26      0.000     36.000
     27 TP1       1 res   C27      27      0.000     36.000
     28 TP1       1 res   C28      28      0.000     36.000
     29 SN6       1 res   C29      29      0.000     54.000
     30 TC3       1 res   C30      30      0.000     36.000
     31 TN6       1 res   C31      31      0.000     36.000
     32 TN6       1 res   C32      32      0.000     36.000
     33 TN6       1 res   C33      33      0.000     36.000
     34 TN6       1 res   C34      34      0.000     36.000
     35 TN6       1 res   C35      35      0.000     36.000
     36 TN6       1 res   C36      36      0.000     36.000
     37 TN6       1 res   C37      37      0.000     36.000

[ bonds ]
;  ai    aj   funct      b0(nm)        k
    1     2     1      0.25227    20000
    1    37     1      0.29074    20000
    2     3     1      0.19946    20000
    2    35     1      0.25155    20000
    3     4     1      0.20863    20000
    3    34     1      0.23926    20000
    4     5     1      0.24750    20000
    5     6     1      0.28999    20000
    6     7     1      0.27170    20000
    6    34     1      0.22596    20000
    7     8     1      0.34279    20000
    7    33     1      0.25935    20000
    8     9     1      0.27685    20000
    9    10     1      0.23321    20000
    9    33     1      0.26245    20000
   10    11     1      0.25571    20000
   10    32     1      0.21234    20000
   11    12     1      0.35458    20000
   11    31     1      0.27507    20000
   12    13     1      0.31356    20000
   13    14     1      0.28471    20000
   13    15     1      0.27622    20000
   13    16     1      0.30295    20000
   13    30     1      0.35561    20000
   14    15     1      0.29724    20000
   16    17     1      0.34849    20000
   16    18     1      0.26019    20000
   16    30     1      0.30947    20000
   17    18     1      0.38119    20000
   18    19     1      0.26029    20000
   18    29     1      0.31106    20000
   19    20     1      0.30122    20000
   19    21     1      0.29019    20000
   19    29     1      0.31836    20000
   20    21     1      0.25741    20000
   21    22     1      0.27978    20000
   21    27     1      0.27141    20000
   21    28     1      0.25497    20000
   22    23     1      0.29412    20000
   22    24     1      0.29685    20000
   22    26     1      0.28403    20000
   24    25     1      0.24429    20000
   25    26     1      0.24074    20000
   31    32     1      0.25250    20000
   35    36     1      0.24304    20000
   36    37     1      0.24390    20000
