1TPCN01089
8
    1res  C1    1    0.007  -0.275   0.112
    1res  C2    2   -0.239  -0.283   0.184
    1res  C3    3   -0.213  -0.116  -0.027
    1res  C4    4    0.136  -0.002   0.019
    1res  C5    5    0.414  -0.152  -0.151
    1res  C6    6    0.052   0.163  -0.236
    1res  C7    7   -0.120   0.210  -0.020
    1res  C8    8   -0.249   0.125   0.232
  10.00000  10.00000  10.00000
