1TPCN05452
40
    1res  C1    1    1.396   0.337  -0.075
    1res  C2    2    1.155   0.398   0.150
    1res  C3    3    1.230   0.184   0.349
    1res  C4    4    0.981   0.168   0.466
    1res  C5    5    1.091  -0.189   0.309
    1res  C6    6    0.852  -0.116   0.144
    1res  C7    7    0.643  -0.168   0.168
    1res  C8    8    0.553   0.076   0.083
    1res  C9    9    0.345  -0.078   0.029
    1res  C10   10    0.126  -0.004  -0.052
    1res  C11   11    0.143   0.051   0.254
    1res  C12   12   -0.087   0.112   0.298
    1res  C13   13   -0.039   0.141  -0.011
    1res  C14   14   -0.164   0.168  -0.171
    1res  C15   15   -0.360   0.129  -0.230
    1res  C16   16   -0.617  -0.012  -0.162
    1res  C17   17   -0.842   0.155  -0.195
    1res  C18   18   -0.821   0.046   0.166
    1res  C19   19   -1.042   0.099   0.019
    1res  C20   20   -1.159  -0.013  -0.205
    1res  C21   21   -1.118  -0.200   0.081
    1res  C22   22   -1.416  -0.171   0.026
    1res  C23   23   -1.637  -0.337  -0.007
    1res  C24   24   -1.610  -0.171   0.232
    1res  C25   25   -1.442   0.181   0.154
    1res  C26   26   -1.247  -0.080   0.295
    1res  C27   27   -0.598   0.322  -0.030
    1res  C28   28   -0.304   0.329  -0.425
    1res  C29   29   -0.168   0.147  -0.531
    1res  C30   30   -0.034   0.197  -0.340
    1res  C31   31    0.439  -0.272   0.025
    1res  C32   32    1.072  -0.016   0.056
    1res  C33   33    1.173  -0.015  -0.134
    1res  C34   34    1.385  -0.160  -0.148
    1res  C35   35    1.652  -0.282  -0.106
    1res  C36   36    1.522  -0.375  -0.322
    1res  C37   37    1.545  -0.117  -0.431
    1res  C38   38    1.316  -0.112  -0.360
    1res  C39   39    1.179  -0.252   0.058
    1res  C40   40    1.414   0.086   0.223
  10.00000  10.00000  10.00000
