1TPCN01750
16
    1res  C1    1    0.071  -0.133  -0.430
    1res  C2    2    0.280  -0.274  -0.386
    1res  C3    3    0.405  -0.206  -0.176
    1res  C4    4    0.481  -0.014   0.024
    1res  C5    5    0.546  -0.093   0.329
    1res  C6    6    0.219   0.036  -0.229
    1res  C7    7    0.132   0.127   0.009
    1res  C8    8   -0.027   0.015  -0.137
    1res  C9    9   -0.133  -0.105  -0.218
    1res  C10   10   -0.250   0.165  -0.189
    1res  C11   11   -0.340   0.088   0.004
    1res  C12   12   -0.503   0.206   0.126
    1res  C13   13   -0.531   0.306   0.315
    1res  C14   14   -0.697   0.064   0.162
    1res  C15   15   -0.508  -0.104   0.261
    1res  C16   16   -0.406  -0.111   0.046
  10.00000  10.00000  10.00000
