[ moleculetype ]
; name        nrexcl
res           1

[ atoms ]
;    nr  type  resnr resid  atom  cgnr     charge       mass
      1 TN3r      1 res   C1        1      0.000     36.000
      2 TC3       1 res   C2        2      0.000     36.000
      3 TN6d      1 res   C3        3      0.000     36.000
      4 TC3       1 res   C4        4      0.000     36.000
      5 TC5       1 res   C5        5      0.000     36.000
      6 TN6d      1 res   C6        6      0.000     36.000
      7 TC5       1 res   C7        7      0.000     36.000
      8 TC5       1 res   C8        8      0.000     36.000
      9 TC5       1 res   C9        9      0.000     36.000
     10 TC3       1 res   C10      10      0.000     36.000
     11 SP2       1 res   C11      11      0.000     54.000
     12 TC3       1 res   C12      12      0.000     36.000
     13 TC5       1 res   C13      13      0.000     36.000

[ constraints ]
;  ai    aj   funct      b0(nm)
    1     2     1      0.25296
    2    13     1      0.28088
   10    11     1      0.29945
    2     3     1      0.23267
    4     5     1      0.24970
    5    10     1      0.27834
    7     9     1      0.24982
    5     7     1      0.18473
   10    13     1      0.25820
    3     4     1      0.30165
    7     8     1      0.24981
    5     6     1      0.21698
   12    13     1      0.28703
    3    13     1      0.26904
    6     7     1      0.21682
   10    12     1      0.24964
    8     9     1      0.29124

[ bonds ]
;  ai    aj   funct      b0(nm)          k(kJ/mol/nm^2)

[ angles ]
;  ai    aj    ak  funct     th0(deg)        k(kJ/mol/rad^2)
    1     2     3     1    161.83549            97.32
    1     2    13     1    115.29393           319.82
    2     3     4     1    119.43383           143.77
    2     3    13     1     67.63080          2010.57
    2    13     3     1     50.00387          2118.43
    2    13    10     1    147.56724           259.02
    2    13    12     1     99.36564           781.79
    3     2    13     1     62.36484          1491.89
    3     4     5     1     98.23433           351.59
    3    13    10     1    121.03442           205.59
    3    13    12     1    114.07492            70.44
    4     3    13     1     71.43741           612.34
    4     5     6     1    163.03574           231.61
    4     5     7     1    119.39613           744.59
    4     5    10     1    119.97028           595.45
    5     6     7     1     50.41561          3621.07
    5     7     6     1     64.84100          3054.65
    5     7     8     1    160.96771          1610.38
    5     7     9     1    126.91446          1788.09
    5    10    11     1     76.34309           479.43
    5    10    12     1    137.76824           950.67
    5    10    13     1     71.26611           759.17
    6     5     7     1     64.74330          3966.01
    6     5    10     1     59.54379           222.66
    6     7     8     1     96.61791          1381.00
    6     7     9     1    166.55674          1012.37
    7     5    10     1    119.89110           391.92
    7     8     9     1     54.34775          8326.34
    7     9     8     1     54.34013          9329.98
    8     7     9     1     71.31212          7397.96
   10    12    13     1     56.98604          2746.83
   10    13    12     1     54.18359          3283.05
   11    10    12     1     85.19097           289.92
   11    10    13     1     80.17246           463.46
   12    10    13     1     68.83052          1708.53

[ dihedrals ]
;  ai    aj    ak    al  funct   phi0(deg)        k(kJ/mol)   mult
    1     2     3     4     1    -53.51108       17.417      1
    1     2     3    13     1   -120.91083       16.637      1
    1     2    13     3     1     11.18644       23.821      1
    1     2    13    10     1    103.63750       23.243      1
    1     2    13    12     1    131.57111       19.709      1
    2     3     4     5     1     96.75103       17.966      1
    2     3    13    10     1     41.63784       12.841      1
    2     3    13    12     1    114.15132       16.084      1
    2    13     3     4     1     35.60801       17.692      1
    2    13    10     5     1     50.30403       18.047      1
    2    13    10    11     1    130.74919       21.344      1
    2    13    10    12     1   -143.38425       22.613      1
    2    13    12    10     1     19.98881       16.415      1
    3     2    13    10     1    -86.83758       16.082      1
    3     2    13    12     1    -53.81252       17.342      1
    3     4     5     6     1    128.69040       21.785      1
    3     4     5     7     1     21.79441       21.839      1
    3     4     5    10     1   -151.86929       24.602      1
    3    13    10     5     1    121.10524       17.289      1
    3    13    10    11     1   -162.22996       21.554      1
    3    13    10    12     1    -73.35254       18.530      1
    3    13    12    10     1     64.80262       11.989      1
    4     3     2    13     1   -143.34325       13.981      1
    4     3    13    10     1   -101.04452       12.702      1
    4     3    13    12     1    -31.94182       14.136      1
    4     5     6     7     1     62.64694       23.441      1
    4     5     7     6     1    -16.75784       14.312      1
    4     5     7     8     1    -15.98813       21.714      1
    4     5     7     9     1    162.12372       16.266      1
    4     5    10    11     1    105.65803       24.412      1
    4     5    10    12     1    173.60220       26.570      1
    4     5    10    13     1   -172.41951       22.381      1
    5     4     3    13     1    137.11930       15.751      1
    5     6     7     8     1      0.91421        8.582      1
    5     6     7     9     1     -2.87249       27.521      1
    5     7     8     9     1      0.68481       21.031      1
    5     7     9     8     1      0.89797       11.480      1
    5    10    12    13     1   -161.60946       15.664      1
    5    10    13    12     1     10.82238       11.448      1
    6     5     7     8     1   -179.95700       21.700      1
    6     5     7     9     1      3.96705       13.616      1
    6     5    10    11     1    -89.78840       27.720      1
    6     5    10    12     1    -22.44320       26.918      1
    6     5    10    13     1     -5.08199       25.447      1
    6     7     5    10     1    157.24506       17.131      1
    6     7     8     9     1      1.98304       12.161      1
    6     7     9     8     1   -175.88183       29.978      1
    7     5    10    11     1    -66.00763       19.567      1
    7     5    10    12     1      0.02276       23.879      1
    7     5    10    13     1     16.12791       20.890      1
    7     6     5    10     1    -18.90374       14.390      1
    8     7     5    10     1    161.25722       24.025      1
    9     7     5    10     1    -20.05905       20.372      1
   11    10    12    13     1    -98.97041        8.564      1
   11    10    13    12     1     89.79394       10.738      1
