[ moleculetype ]
; name        nrexcl
res           1

[ atoms ]
;    nr  type resnr resid  atom  cgnr     charge       mass
      1 TC4       1 res   C1        1      0.000     36.000
      2 TC3       1 res   C2        2      0.000     36.000
      3 SN4a      1 res   C3        3      0.000     54.000
      4 TC5       1 res   C4        4      0.000     36.000
      5 TC5       1 res   C5        5      0.000     36.000
      6 TC5       1 res   C6        6      0.000     36.000
      7 TC5       1 res   C7        7      0.000     36.000
      8 SC4       1 res   C8        8      0.000     54.000
      9 SN6       1 res   C9        9      0.000     54.000
     10 TN6       1 res   C10      10      0.000     36.000
     11 SC3       1 res   C11      11      0.000     54.000
     12 SN4a      1 res   C12      12      0.000     54.000
     13 SN3r      1 res   C13      13      0.000     54.000
     14 SN4a      1 res   C14      14      0.000     54.000
     15 SN4a      1 res   C15      15      0.000     54.000
     16 TC5       1 res   C16      16      0.000     36.000
     17 TC5       1 res   C17      17      0.000     36.000
     18 TC5       1 res   C18      18      0.000     36.000
     19 N3r       1 res   C19      19      0.000     72.000
     20 SN4a      1 res   C20      20      0.000     54.000
     21 TN4a      1 res   C21      21      0.000     36.000

[ bonds ]
;  ai    aj   funct      b0(nm)        k
    1     2     1      0.27578    20000
    1    10     1      0.25834    20000
    2     3     1      0.27067    20000
    2     7     1      0.25297    20000
    2    11     1      0.29155    20000
    3     4     1      0.24667    20000
    4     5     1      0.25806    20000
    4     6     1      0.30221    20000
    5     6     1      0.29088    20000
    7     8     1      0.25003    20000
    7     9     1      0.27637    20000
    7    10     1      0.29549    20000
    7    11     1      0.26981    20000
    8     9     1      0.29383    20000
    8    11     1      0.42340    20000
    9    11     1      0.34520    20000
    9    19     1      0.40237    20000
   11    12     1      0.40193    20000
   11    13     1      0.28133    20000
   13    14     1      0.36916    20000
   13    15     1      0.28237    20000
   13    19     1      0.35471    20000
   15    16     1      0.25136    20000
   16    17     1      0.25819    20000
   16    18     1      0.30219    20000
   17    18     1      0.29082    20000
   19    20     1      0.39913    20000
   19    21     1      0.26275    20000
