[ moleculetype ]
; name        nrexcl
res           1

[ atoms ]
;    nr  type resnr resid  atom  cgnr     charge       mass
      1 SC4       1 res   C1        1      0.000     54.000
      2 TC3       1 res   C2        2      0.000     36.000
      3 SC5       1 res   C3        3      0.000     54.000
      4 SN4a      1 res   C4        4      0.000     54.000
      5 SN4a      1 res   C5        5      0.000     54.000
      6 TN3r      1 res   C6        6      0.000     36.000
      7 SN4a      1 res   C7        7      0.000     54.000
      8 TP1       1 res   C8        8      0.000     36.000
      9 TN6       1 res   C9        9      0.000     36.000
     10 TN6       1 res   C10      10      0.000     36.000
     11 TN6       1 res   C11      11      0.000     36.000
     12 TN6       1 res   C12      12      0.000     36.000
     13 TN6       1 res   C13      13      0.000     36.000
     14 SN4a      1 res   C14      14      0.000     54.000
     15 TP1       1 res   C15      15      0.000     36.000
     16 TN6       1 res   C16      16      0.000     36.000
     17 TN6       1 res   C17      17      0.000     36.000
     18 TN6       1 res   C18      18      0.000     36.000
     19 SN4a      1 res   C19      19      0.000     54.000
     20 TP1       1 res   C20      20      0.000     36.000
     21 TN6       1 res   C21      21      0.000     36.000
     22 TN6       1 res   C22      22      0.000     36.000
     23 TN6       1 res   C23      23      0.000     36.000
     24 TN6       1 res   C24      24      0.000     36.000
     25 TC3       1 res   C25      25      0.000     36.000
     26 SC4       1 res   C26      26      0.000     54.000
     27 TC3       1 res   C27      27      0.000     36.000
     28 SC4       1 res   C28      28      0.000     54.000
     29 SC4       1 res   C29      29      0.000     54.000
     30 TC3       1 res   C30      30      0.000     36.000
     31 TN6       1 res   C31      31      0.000     36.000
     32 TC4       1 res   C32      32      0.000     36.000
     33 TN4a      1 res   C33      33      0.000     36.000
     34 TC3       1 res   C34      34      0.000     36.000

[ bonds ]
;  ai    aj   funct      b0(nm)        k
    1     2     1      0.29478    20000
    1     3     1      0.28171    20000
    2     3     1      0.27149    20000
    3     4     1      0.34712    20000
    3    25     1      0.32125    20000
    3    26     1      0.37371    20000
    4     5     1      0.31389    20000
    5     6     1      0.28687    20000
    5    12     1      0.28277    20000
    5    24     1      0.24960    20000
    6     7     1      0.28397    20000
    7     8     1      0.31943    20000
    7     9     1      0.30180    20000
    7    11     1      0.25466    20000
    9    10     1      0.27275    20000
   10    11     1      0.22256    20000
   12    13     1      0.24190    20000
   13    14     1      0.26532    20000
   13    24     1      0.23991    20000
   14    15     1      0.23736    20000
   14    16     1      0.28604    20000
   14    18     1      0.26651    20000
   16    17     1      0.20981    20000
   17    18     1      0.20942    20000
   18    19     1      0.29583    20000
   19    20     1      0.31768    20000
   19    21     1      0.27723    20000
   19    23     1      0.25498    20000
   21    22     1      0.24563    20000
   22    23     1      0.24703    20000
   25    26     1      0.26669    20000
   26    27     1      0.30486    20000
   26    28     1      0.34547    20000
   27    28     1      0.33791    20000
   28    29     1      0.34107    20000
   28    34     1      0.28048    20000
   29    30     1      0.30386    20000
   29    32     1      0.39329    20000
   29    34     1      0.37781    20000
   30    31     1      0.27126    20000
   31    32     1      0.29164    20000
   32    33     1      0.26921    20000
