1TPCN05901
27
    1res  C1    1    1.370  -0.068   0.140
    1res  C2    2    1.109  -0.083  -0.087
    1res  C3    3    0.922   0.020   0.120
    1res  C4    4    0.830   0.142  -0.099
    1res  C5    5    0.589   0.273   0.040
    1res  C6    6    0.679   0.333  -0.244
    1res  C7    7    0.478   0.226  -0.376
    1res  C8    8    0.380   0.173  -0.075
    1res  C9    9    0.401  -0.025   0.030
    1res  C10   10    0.211  -0.122   0.004
    1res  C11   11   -0.077   0.001  -0.103
    1res  C12   12   -0.236   0.153   0.135
    1res  C13   13   -0.321  -0.200   0.158
    1res  C14   14   -0.476   0.032   0.138
    1res  C15   15   -0.532   0.169  -0.106
    1res  C16   16   -0.596  -0.152  -0.084
    1res  C17   17   -0.882   0.064  -0.070
    1res  C18   18   -1.135   0.199  -0.101
    1res  C19   19   -1.119  -0.081  -0.019
    1res  C20   20   -0.904   0.022   0.284
    1res  C21   21   -0.770  -0.232   0.120
    1res  C22   22    0.043   0.093   0.181
    1res  C23   23    0.046  -0.197   0.267
    1res  C24   24    0.374  -0.261  -0.180
    1res  C25   25    0.499  -0.384  -0.025
    1res  C26   26    0.552  -0.179   0.115
    1res  C27   27    0.890  -0.066  -0.206
  10.00000  10.00000  10.00000
