[ moleculetype ]
; name        nrexcl
res           1

[ atoms ]
;    nr  type  resnr resid  atom  cgnr     charge       mass
      1 TC5       1 res   C1        1      0.000     36.000
      2 SC5       1 res   C2        2      0.000     54.000
      3 SC5       1 res   C3        3      0.000     54.000
      4 TN4a      1 res   C4        4      0.000     36.000
      5 SC5       1 res   C5        5      0.000     54.000
      6 TN6d      1 res   C6        6      0.000     36.000
      7 TC5       1 res   C7        7      0.000     36.000
      8 TC5       1 res   C8        8      0.000     36.000
      9 TC5       1 res   C9        9      0.000     36.000
     10 SN1       1 res   C10      10      0.000     54.000
     11 SP3       1 res   C11      11      0.000     54.000

[ constraints ]
;  ai    aj   funct      b0(nm)
    3     5     1      0.30155
    2     3     1      0.22863
    4     5     1      0.25490
    5    10     1      0.27412
    7     9     1      0.24887
    2     5     1      0.31965
    3     4     1      0.29024
    7     8     1      0.24837
    3     7     1      0.27965
    6     7     1      0.17966
    3     6     1      0.17922
    2    10     1      0.45866
    8     9     1      0.28905

[ bonds ]
;  ai    aj   funct      b0(nm)          k(kJ/mol/nm^2)
    1     2     1      0.28723          19015.5
   10    11     1      0.36842           6678.0

[ angles ]
;  ai    aj    ak  funct     th0(deg)        k(kJ/mol/rad^2)
    1     2     3     1    100.00647          1114.24
    1     2     5     1    107.80486          1087.84
    1     2    10     1     77.20065           987.94
    2     3     4     1     70.60489          2730.65
    2     3     5     1     72.68932          6193.87
    2     3     6     1    133.26348           325.23
    2     3     7     1    111.24612          1699.57
    2     5     3     1     43.06743         12613.32
    2     5     4     1     62.72074          2265.65
    2     5    10     1    100.90655          1757.03
    2    10     5     1     43.16277          7453.45
    2    10    11     1     76.10377           375.40
    3     2     5     1     64.24321          5607.61
    3     2    10     1     87.35804          2204.83
    3     4     5     1     66.81956          2163.56
    3     5     4     1     62.20829          3098.47
    3     5    10     1    121.75227          1518.23
    3     6     7     1    102.39884          2472.44
    3     7     6     1     38.74480          5288.37
    3     7     8     1    139.79199          1740.45
    3     7     9     1    148.27264          1949.64
    4     3     5     1     50.97205          2809.49
    4     3     6     1    154.79078           267.61
    4     3     7     1    135.60484           967.02
    4     5    10     1    152.82931           884.78
    5     2    10     1     35.93062          3848.60
    5     3     6     1    121.25761           906.54
    5     3     7     1     86.22566          2285.15
    5    10    11     1    118.09610           325.76
    6     3     7     1     38.85630          7480.88
    6     7     8     1    101.33850          1947.61
    6     7     9     1    170.66577          1001.10
    7     8     9     1     54.53783          7603.66
    7     9     8     1     54.36978         13089.83
    8     7     9     1     71.09238          5506.38

[ dihedrals ]
;  ai    aj    ak    al  funct   phi0(deg)        k(kJ/mol)   mult
    1     2     3     4     1    -21.92309        7.778      1
    1     2     3     5     1    -74.98384        7.011      1
    1     2     3     6     1    169.12105        9.977      1
    1     2     3     7     1   -153.79326        7.792      1
    1     2     5     3     1     86.98508        7.007      1
    1     2     5     4     1      9.82852        7.819      1
    1     2     5    10     1   -146.06240        7.820      1
    1     2    10     5     1     33.85499        7.799      1
    1     2    10    11     1   -135.69041       12.145      1
    2     3     4     5     1     96.99902        4.023      1
    2     3     5     4     1   -100.99893        5.530      1
    2     3     5    10     1    110.17964        7.708      1
    2     3     6     7     1   -113.81825       13.635      1
    2     3     7     6     1     47.86877       13.652      1
    2     3     7     8     1     48.05105       13.649      1
    2     3     7     9     1   -133.65446       20.332      1
    2     5     3     4     1    100.99893        5.530      1
    2     5     3     6     1    -50.25526        9.341      1
    2     5     3     7     1    -66.02630        6.244      1
    2     5     4     3     1   -131.00846        2.455      1
    2     5    10    11     1   -167.37456       13.575      1
    2    10     5     3     1   -139.92173        4.676      1
    2    10     5     4     1    131.08498       11.447      1
    3     2     5     4     1    102.98543        5.488      1
    3     2     5    10     1    -54.26591        6.248      1
    3     2    10     5     1    131.75692        4.762      1
    3     2    10    11     1    -34.21323       11.409      1
    3     4     5    10     1    -74.95990       14.204      1
    3     5     2    10     1     54.26591        6.248      1
    3     5    10    11     1   -125.09393       15.631      1
    3     6     7     8     1      2.89715       11.447      1
    3     6     7     9     1      2.05267       30.096      1
    3     7     8     9     1     -1.75631       16.366      1
    3     7     9     8     1      1.28324       18.353      1
    4     3     2     5     1   -125.98535        4.738      1
    4     3     2    10     1    -96.11460        4.760      1
    4     3     5    10     1     30.99066        7.086      1
    4     3     6     7     1     88.99101       15.639      1
    4     3     7     6     1    -37.02022       15.735      1
    4     3     7     8     1    -34.04557       13.664      1
    4     3     7     9     1    143.10916       22.282      1
    4     5     2    10     1    -21.13213        7.055      1
    4     5     3     6     1     29.05231       11.508      1
    4     5     3     7     1     12.03762        6.336      1
    4     5    10    11     1    143.20238       16.981      1
    5     2     3     6     1     63.03731        8.507      1
    5     2     3     7     1    100.97773        5.532      1
    5     2    10    11     1     12.37731       13.554      1
    5     3     2    10     1   -151.02955        3.953      1
    5     3     6     7     1    153.06282       14.353      1
    5     3     7     6     1    -22.95814       12.907      1
    5     3     7     8     1    -20.98275       12.942      1
    5     3     7     9     1    156.13522       19.077      1
    5     4     3     6     1    -97.51972       10.652      1
    5     4     3     7     1   -162.92602        8.564      1
    6     3     2    10     1     92.01245        9.221      1
    6     3     5    10     1   -120.07426       13.606      1
    6     3     7     8     1   -175.90072       13.663      1
    6     3     7     9     1     -1.74691       17.740      1
    6     7     8     9     1     -0.07385       10.739      1
    6     7     9     8     1    179.48881       31.737      1
    7     3     2    10     1    129.05408        6.999      1
    7     3     5    10     1   -136.97348        8.526      1
