[ moleculetype ]
; name        nrexcl
res           1

[ atoms ]
;    nr  type resnr resid  atom  cgnr     charge       mass
      1 TC4       1 res   C1        1      0.000     36.000
      2 TN4a      1 res   C2        2      0.000     36.000
      3 TN6       1 res   C3        3      0.000     36.000
      4 TN6       1 res   C4        4      0.000     36.000
      5 TN4a      1 res   C5        5      0.000     36.000
      6 TN6       1 res   C6        6      0.000     36.000
      7 TC3       1 res   C7        7      0.000     36.000
      8 TC4       1 res   C8        8      0.000     36.000
      9 TN4a      1 res   C9        9      0.000     36.000
     10 TN6       1 res   C10      10      0.000     36.000
     11 SN4a      1 res   C11      11      0.000     54.000
     12 SN4a      1 res   C12      12      0.000     54.000
     13 SC5       1 res   C13      13      0.000     54.000
     14 TC3       1 res   C14      14      0.000     36.000
     15 SC4       1 res   C15      15      0.000     54.000
     16 SC4       1 res   C16      16      0.000     54.000
     17 TC3       1 res   C17      17      0.000     36.000
     18 SC4       1 res   C18      18      0.000     54.000
     19 SC4       1 res   C19      19      0.000     54.000
     20 SN6       1 res   C20      20      0.000     54.000
     21 TN6       1 res   C21      21      0.000     36.000
     22 SN4a      1 res   C22      22      0.000     54.000
     23 TN3r      1 res   C23      23      0.000     36.000
     24 SN4a      1 res   C24      24      0.000     54.000
     25 TP1       1 res   C25      25      0.000     36.000
     26 TN6       1 res   C26      26      0.000     36.000
     27 TN6       1 res   C27      27      0.000     36.000
     28 TN6       1 res   C28      28      0.000     36.000
     29 TN6       1 res   C29      29      0.000     36.000
     30 TN6       1 res   C30      30      0.000     36.000
     31 TN6       1 res   C31      31      0.000     36.000
     32 TC4       1 res   C32      32      0.000     36.000
     33 TP1       1 res   C33      33      0.000     36.000
     34 SN6       1 res   C34      34      0.000     54.000
     35 SN6       1 res   C35      35      0.000     54.000
     36 TN6       1 res   C36      36      0.000     36.000
     37 TN6       1 res   C37      37      0.000     36.000
     38 TN6       1 res   C38      38      0.000     36.000
     39 TN6       1 res   C39      39      0.000     36.000
     40 TN4a      1 res   C40      40      0.000     36.000
     41 TN6       1 res   C41      41      0.000     36.000
     42 TP1       1 res   C42      42      0.000     36.000
     43 TN6       1 res   C43      43      0.000     36.000
     44 TN6       1 res   C44      44      0.000     36.000
     45 TN6       1 res   C45      45      0.000     36.000
     46 TN6       1 res   C46      46      0.000     36.000
     47 TN6       1 res   C47      47      0.000     36.000

[ bonds ]
;  ai    aj   funct      b0(nm)        k
    1     2     1      0.29638    20000
    1    47     1      0.26690    20000
    2     3     1      0.21651    20000
    2    45     1      0.22941    20000
    3     4     1      0.23861    20000
    3    44     1      0.23061    20000
    4     5     1      0.22953    20000
    5     6     1      0.26387    20000
    6     7     1      0.25516    20000
    6    44     1      0.24672    20000
    7     8     1      0.28888    20000
    7    38     1      0.24153    20000
    7    39     1      0.22478    20000
    8     9     1      0.24580    20000
    9    10     1      0.20543    20000
    9    38     1      0.25392    20000
   10    11     1      0.29198    20000
   10    37     1      0.24285    20000
   11    12     1      0.36664    20000
   11    36     1      0.26257    20000
   12    13     1      0.29358    20000
   13    14     1      0.29240    20000
   13    15     1      0.30559    20000
   13    16     1      0.40004    20000
   13    35     1      0.38804    20000
   14    15     1      0.29250    20000
   16    17     1      0.30583    20000
   16    18     1      0.34031    20000
   16    35     1      0.28189    20000
   17    18     1      0.30900    20000
   18    19     1      0.35067    20000
   18    34     1      0.28385    20000
   19    20     1      0.29099    20000
   19    32     1      0.38858    20000
   19    34     1      0.32194    20000
   20    21     1      0.26564    20000
   21    22     1      0.29874    20000
   21    32     1      0.26952    20000
   22    23     1      0.28215    20000
   22    29     1      0.23195    20000
   22    31     1      0.29848    20000
   23    24     1      0.33433    20000
   24    25     1      0.31005    20000
   24    26     1      0.27683    20000
   24    28     1      0.26708    20000
   26    27     1      0.22860    20000
   27    28     1      0.25150    20000
   29    30     1      0.26713    20000
   30    31     1      0.24730    20000
   32    33     1      0.27452    20000
   36    37     1      0.22851    20000
   39    40     1      0.26645    20000
   39    43     1      0.22711    20000
   40    41     1      0.23569    20000
   41    42     1      0.25216    20000
   41    43     1      0.29280    20000
   45    46     1      0.22111    20000
   46    47     1      0.28253    20000
