1TPCN05606
28
    1res  C1    1   -1.092   0.283  -0.220
    1res  C2    2   -0.763   0.362   0.015
    1res  C3    3   -0.864   0.078   0.088
    1res  C4    4   -0.639   0.071  -0.050
    1res  C5    5   -0.597  -0.037   0.396
    1res  C6    6   -0.580  -0.175  -0.086
    1res  C7    7   -0.480  -0.367   0.196
    1res  C8    8   -0.439   0.016  -0.264
    1res  C9    9   -0.267   0.210  -0.023
    1res  C10   10   -0.241  -0.063  -0.035
    1res  C11   11    0.041   0.074  -0.248
    1res  C12   12    0.139   0.061   0.006
    1res  C13   13    0.287  -0.135  -0.053
    1res  C14   14    0.455  -0.355   0.132
    1res  C15   15    0.360  -0.269   0.361
    1res  C16   16    0.481  -0.066   0.300
    1res  C17   17    0.562  -0.128   0.082
    1res  C18   18    0.632  -0.025  -0.198
    1res  C19   19    0.670  -0.227  -0.352
    1res  C20   20    0.867  -0.001  -0.291
    1res  C21   21    0.829   0.221  -0.195
    1res  C22   22    0.721   0.128  -0.002
    1res  C23   23    0.894   0.318   0.185
    1res  C24   24    1.051   0.311   0.390
    1res  C25   25    1.000   0.102   0.360
    1res  C26   26    0.762   0.128   0.331
    1res  C27   27    0.130  -0.303  -0.134
    1res  C28   28   -0.166  -0.213  -0.266
  10.00000  10.00000  10.00000
