1TPCN03055
14
    1res  C1    1    0.307   0.218   0.294
    1res  C2    2    0.340   0.095   0.072
    1res  C3    3    0.289  -0.046  -0.129
    1res  C4    4    0.375  -0.251  -0.039
    1res  C5    5    0.180  -0.223   0.181
    1res  C6    6    0.062   0.013   0.115
    1res  C7    7   -0.087  -0.114  -0.084
    1res  C8    8   -0.283  -0.132   0.005
    1res  C9    9   -0.335   0.145  -0.069
    1res  C10   10   -0.525   0.186   0.123
    1res  C11   11   -0.155   0.130   0.087
    1res  C12   12   -0.361  -0.280  -0.254
    1res  C13   13    0.066   0.209  -0.065
    1res  C14   14    0.135   0.107  -0.359
  10.00000  10.00000  10.00000
