1TPCN04378
46
    1res  C1    1    0.533  -0.062   0.356
    1res  C2    2    0.520  -0.152   0.074
    1res  C3    3    0.444  -0.221  -0.108
    1res  C4    4    0.229  -0.242  -0.127
    1res  C5    5   -0.061  -0.304  -0.016
    1res  C6    6   -0.169  -0.121   0.173
    1res  C7    7   -0.219   0.048  -0.148
    1res  C8    8   -0.397  -0.158  -0.113
    1res  C9    9   -0.455  -0.002   0.202
    1res  C10   10   -0.553   0.128  -0.057
    1res  C11   11   -0.778  -0.095   0.130
    1res  C12   12   -0.946  -0.310   0.195
    1res  C13   13   -0.890  -0.263  -0.082
    1res  C14   14   -1.004   0.077  -0.027
    1res  C15   15   -1.315   0.139  -0.063
    1res  C16   16   -1.421   0.196   0.138
    1res  C17   17   -1.741   0.164   0.051
    1res  C18   18   -1.961   0.269  -0.143
    1res  C19   19   -1.979   0.159   0.156
    1res  C20   20   -1.841   0.312   0.311
    1res  C21   21   -1.667   0.148   0.316
    1res  C22   22   -1.442   0.344  -0.114
    1res  C23   23   -1.361   0.272  -0.325
    1res  C24   24   -1.192   0.157  -0.294
    1res  C25   25   -0.719   0.002  -0.213
    1res  C26   26    0.109  -0.011   0.060
    1res  C27   27    0.292  -0.452  -0.292
    1res  C28   28    0.366  -0.295  -0.467
    1res  C29   29    0.464  -0.136  -0.307
    1res  C30   30    0.685  -0.126  -0.077
    1res  C31   31    0.776  -0.080   0.217
    1res  C32   32    0.938  -0.181   0.035
    1res  C33   33    1.169  -0.284   0.117
    1res  C34   34    1.242  -0.361  -0.108
    1res  C35   35    1.211  -0.134  -0.151
    1res  C36   36    1.305   0.034  -0.216
    1res  C37   37    1.464   0.224  -0.317
    1res  C38   38    1.483   0.266  -0.059
    1res  C39   39    1.738   0.281   0.043
    1res  C40   40    2.037   0.164   0.044
    1res  C41   41    1.836   0.385   0.222
    1res  C42   42    1.726   0.209   0.359
    1res  C43   43    1.549   0.228   0.247
    1res  C44   44    1.288   0.295   0.024
    1res  C45   45    1.149   0.226  -0.171
    1res  C46   46    0.986  -0.161  -0.192
  10.00000  10.00000  10.00000
