[ moleculetype ]
; name        nrexcl
res           1

[ atoms ]
;    nr  type resnr resid  atom  cgnr     charge       mass
      1 SN3r      1 res   C1        1      0.000     54.000
      2 SN4a      1 res   C2        2      0.000     54.000
      3 SC3       1 res   C3        3      0.000     54.000
      4 TC3       1 res   C4        4      0.000     36.000
      5 SC4       1 res   C5        5      0.000     54.000
      6 TC3       1 res   C6        6      0.000     36.000
      7 SC4       1 res   C7        7      0.000     54.000
      8 TC5       1 res   C8        8      0.000     36.000
      9 TC4       1 res   C9        9      0.000     36.000
     10 TC4       1 res   C10      10      0.000     36.000
     11 TC3       1 res   C11      11      0.000     36.000
     12 SP2       1 res   C12      12      0.000     54.000
     13 TC3       1 res   C13      13      0.000     36.000
     14 SC4       1 res   C14      14      0.000     54.000

[ bonds ]
;  ai    aj   funct      b0(nm)        k
    1     2     1      0.46576    20000
    2     3     1      0.21224    20000
    2    14     1      0.35373    20000
    3     4     1      0.35731    20000
    3     5     1      0.31331    20000
    3    14     1      0.31791    20000
    4     5     1      0.28578    20000
    5     6     1      0.37876    20000
    5     7     1      0.31028    20000
    6     7     1      0.39772    20000
    7     8     1      0.26613    20000
    7    13     1      0.30769    20000
    8     9     1      0.27388    20000
    8    11     1      0.29155    20000
    8    12     1      0.26182    20000
    8    13     1      0.27928    20000
    9    10     1      0.26890    20000
   10    11     1      0.30950    20000
