[ moleculetype ]
; name        nrexcl
res           1

[ atoms ]
;    nr  type  resnr resid  atom  cgnr     charge       mass
      1 TN6a      1 res   C1        1      0.000     36.000
      2 TX3       1 res   C2        2      0.000     36.000
      3 TC5       1 res   C3        3      0.000     36.000
      4 TX3       1 res   C4        4      0.000     36.000

[ constraints ]
;  ai    aj   funct      b0(nm)
    1     2     1      0.23769
    2     3     1      0.27873
    1     4     1      0.29451
    3     4     1      0.27707

[ bonds ]
;  ai    aj   funct      b0(nm)          k(kJ/mol/nm^2)

[ angles ]
;  ai    aj    ak  funct     th0(deg)        k(kJ/mol/rad^2)
    1     2     3     1     75.30397          8926.43
    1     4     3     1     67.32010          8194.61
    2     1     4     1    111.34973          8510.48
    2     3     4     1    104.91056          9733.77

[ dihedrals ]
;  ai    aj    ak    al  funct   phi0(deg)        k(kJ/mol)   mult
    1     2     3     4     1   -179.98670       12.265      1
    1     4     3     2     1    179.97253       10.817      1
    2     1     4     3     1   -179.99985       12.285      1
    3     2     1     4     1   -179.99846       12.267      1
