[ moleculetype ]
; name        nrexcl
res           1

[ atoms ]
;    nr  type  resnr resid  atom  cgnr     charge       mass
      1 P1        1 res   C1        1      0.000     72.000
      2 TC3       1 res   C2        2      0.000     36.000
      3 TC5       1 res   C3        3      0.000     36.000
      4 TN2a      1 res   C4        4      0.000     36.000
      5 SN4a      1 res   C5        5      0.000     54.000
      6 TN3r      1 res   C6        6      0.000     36.000
      7 SN4a      1 res   C7        7      0.000     54.000
      8 TN6       1 res   C8        8      0.000     36.000
      9 TN6       1 res   C9        9      0.000     36.000
     10 TN6       1 res   C10      10      0.000     36.000
     11 TN6       1 res   C11      11      0.000     36.000
     12 TN6       1 res   C12      12      0.000     36.000
     13 TN6       1 res   C13      13      0.000     36.000
     14 TC3       1 res   C14      14      0.000     36.000

[ bonds ]
;  ai    aj   funct      b0(nm)          k(kJ/mol/nm^2)
    1     2     1      0.26771          41762.9
    2     3     1      0.23268          32237.4
    2    14     1      0.28090          54215.3
    3     4     1      0.23568          48697.2
    3    14     1      0.29418          62407.7
    4     5     1      0.34232          33739.1
    5     6     1      0.23198          25672.3
    5    11     1      0.26647          16630.6
    5    13     1      0.28786          19228.3
    6     7     1      0.29364           2276.7
    7     8     1      0.28298          28385.4
    7    10     1      0.30129          14721.7
    8     9     1      0.23082          11675.3
    9    10     1      0.22967          11732.3
   11    12     1      0.26655          31217.6
   12    13     1      0.21364          22227.8

[ angles ]
;  ai    aj    ak  funct     th0(deg)        k(kJ/mol/rad^2)
    1     2     3     1    157.34701           166.73
    1     2    14     1     92.56280           917.62
    2     3     4     1    146.41262           618.03
    2     3    14     1     63.13192          2573.38
    2    14     3     1     47.66850          1539.68
    3     2    14     1     69.19920          1189.02
    3     4     5     1    143.93617            23.84
    4     3    14     1     85.97788           811.82
    4     5     6     1    124.26134           223.77
    4     5    11     1    123.19111           103.60
    4     5    13     1     50.33932           540.52
    5     6     7     1    109.61829            15.26
    5    11    12     1     60.57264           752.56
    5    13    12     1     62.79915           367.59
    6     5    11     1     68.53054           402.37
    6     5    13     1    130.22229            22.22
    6     7     8     1    140.94123            25.47
    6     7    10     1     79.13411            74.72
    7     8     9     1     78.21404           670.32
    7    10     9     1     74.52864           631.55
    8     7    10     1     83.15323           334.60
    8     9    10     1    114.77446           418.94
   11     5    13     1     82.87890           411.11
   11    12    13     1     99.12411           369.93
