1TPCN00293
14
    1res  C1    1    0.710  -0.036  -0.017
    1res  C2    2    0.541   0.146  -0.160
    1res  C3    3    0.361   0.163   0.017
    1res  C4    4    0.176   0.065   0.126
    1res  C5    5   -0.120   0.028   0.204
    1res  C6    6   -0.400   0.093   0.169
    1res  C7    7   -0.575   0.172   0.019
    1res  C8    8   -0.522   0.231  -0.242
    1res  C9    9   -0.639   0.028  -0.258
    1res  C10   10   -0.593  -0.123  -0.104
    1res  C11   11   -0.297  -0.187   0.275
    1res  C12   12   -0.188  -0.280   0.078
    1res  C13   13    0.038  -0.200   0.102
    1res  C14   14    0.358  -0.081  -0.155
  10.00000  10.00000  10.00000
