[ moleculetype ]
; name        nrexcl
res           1

[ atoms ]
;    nr  type resnr resid  atom  cgnr     charge       mass
      1 SN6       1 res   C1        1      0.000     54.000
      2 TC3       1 res   C2        2      0.000     36.000
      3 SC5       1 res   C3        3      0.000     54.000
      4 SP2       1 res   C4        4      0.000     54.000
      5 TC3       1 res   C5        5      0.000     36.000
      6 SC4       1 res   C6        6      0.000     54.000
      7 TC3       1 res   C7        7      0.000     36.000
      8 SC4       1 res   C8        8      0.000     54.000
      9 SC4       1 res   C9        9      0.000     54.000
     10 TC3       1 res   C10      10      0.000     36.000
     11 TN6       1 res   C11      11      0.000     36.000
     12 TC4       1 res   C12      12      0.000     36.000
     13 TN3r      1 res   C13      13      0.000     36.000
     14 SN4a      1 res   C14      14      0.000     54.000
     15 TP1       1 res   C15      15      0.000     36.000
     16 TN6       1 res   C16      16      0.000     36.000
     17 TN6       1 res   C17      17      0.000     36.000
     18 SN4a      1 res   C18      18      0.000     54.000
     19 TN6       1 res   C19      19      0.000     36.000
     20 TN6       1 res   C20      20      0.000     36.000
     21 TN6       1 res   C21      21      0.000     36.000
     22 TN6       1 res   C22      22      0.000     36.000
     23 SN4a      1 res   C23      23      0.000     54.000
     24 TP1       1 res   C24      24      0.000     36.000
     25 TN6       1 res   C25      25      0.000     36.000
     26 TN6       1 res   C26      26      0.000     36.000
     27 TN6       1 res   C27      27      0.000     36.000
     28 TC3       1 res   C28      28      0.000     36.000

[ bonds ]
;  ai    aj   funct      b0(nm)        k
    1     2     1      0.29472    20000
    1     3     1      0.30938    20000
    2     3     1      0.28646    20000
    3     4     1      0.36987    20000
    3     5     1      0.35683    20000
    3     6     1      0.38919    20000
    5     6     1      0.26727    20000
    6     7     1      0.30064    20000
    6     8     1      0.34568    20000
    7     8     1      0.33855    20000
    8     9     1      0.30139    20000
    8    28     1      0.28614    20000
    9    10     1      0.25666    20000
    9    12     1      0.29111    20000
    9    28     1      0.30562    20000
   10    11     1      0.26768    20000
   11    12     1      0.30000    20000
   12    13     1      0.27502    20000
   13    14     1      0.31691    20000
   14    15     1      0.29365    20000
   14    16     1      0.29766    20000
   14    22     1      0.26223    20000
   16    17     1      0.21224    20000
   17    18     1      0.30711    20000
   17    22     1      0.20941    20000
   18    19     1      0.28903    20000
   18    21     1      0.28192    20000
   19    20     1      0.25639    20000
   20    21     1      0.24444    20000
   22    23     1      0.31961    20000
   23    24     1      0.23361    20000
   23    25     1      0.26238    20000
   23    27     1      0.30148    20000
   25    26     1      0.22156    20000
   26    27     1      0.24852    20000
