[ moleculetype ]
; name        nrexcl
res           1

[ atoms ]
;    nr  type  resnr resid  atom  cgnr     charge       mass
      1 TC5       1 res   C1        1      0.000     36.000
      2 TP1d      1 res   C2        2      0.000     36.000
      3 SN4a      1 res   C3        3      0.000     54.000
      4 TP1       1 res   C4        4      0.000     36.000
      5 TN6       1 res   C5        5      0.000     36.000
      6 TN6       1 res   C6        6      0.000     36.000
      7 TN6       1 res   C7        7      0.000     36.000
      8 SN4a      1 res   C8        8      0.000     54.000
      9 N4a       1 res   C9        9      0.000     72.000
     10 SP2       1 res   C10      10      0.000     54.000
     11 TN6       1 res   C11      11      0.000     36.000
     12 TN6       1 res   C12      12      0.000     36.000
     13 TN6       1 res   C13      13      0.000     36.000
     14 TC3       1 res   C14      14      0.000     36.000
     15 SC4       1 res   C15      15      0.000     54.000
     16 TC3       1 res   C16      16      0.000     36.000

[ bonds ]
;  ai    aj   funct      b0(nm)          k(kJ/mol/nm^2)
    1     2     1      0.27019          69242.8
    1    14     1      0.28016           8039.8
    2     3     1      0.31004           1811.0
    3     4     1      0.31170          69501.5
    3     5     1      0.25102          51634.2
    3     7     1      0.27068          52442.7
    5     6     1      0.22180          27373.5
    6     7     1      0.24836          80475.1
    7     8     1      0.30467          35341.8
    8     9     1      0.39859           8379.2
    8    11     1      0.29265          41325.5
    8    13     1      0.29348          20052.0
   11    12     1      0.23480          22867.2
   12    13     1      0.21554          16746.5
   14    15     1      0.34824          41376.0
   14    16     1      0.28114          70066.4
   15    16     1      0.31580          46867.5

[ angles ]
;  ai    aj    ak  funct     th0(deg)        k(kJ/mol/rad^2)
    1     2     3     1    110.49032             8.81
    1    14    15     1    145.79855            40.07
    1    14    16     1     94.30105            54.08
    2     1    14     1     74.76557            91.28
    2     3     4     1    116.07884            19.96
    2     3     5     1    143.79122            59.80
    2     3     7     1     64.95399            81.12
    3     5     6     1     86.21378           813.01
    3     7     6     1     77.01678          1712.57
    3     7     8     1    125.91726           248.71
    4     3     5     1     64.05543          2197.01
    4     3     7     1     85.19272           629.37
    5     3     7     1     88.12972          1802.57
    5     6     7     1    101.04191           649.97
    6     7     8     1    115.24910            32.08
    7     8     9     1    100.93244            92.39
    7     8    11     1    108.43657           200.28
    7     8    13     1     56.34722           397.04
    8    11    12     1     72.43171          1369.30
    8    13    12     1     74.68234          1063.75
    9     8    11     1     54.96931           836.21
    9     8    13     1    117.39946           237.41
   11     8    13     1     77.78648           645.37
   11    12    13     1    109.70922           246.51
   14    15    16     1     49.77005          6347.83
   14    16    15     1     71.11575          1560.02
   15    14    16     1     59.11429          1554.92
