[ moleculetype ]
; name        nrexcl
res           1

[ atoms ]
;    nr  type  resnr resid  atom  cgnr     charge       mass
      1 TN6d      1 res   C1        1      0.000     36.000
      2 SX3       1 res   C2        2      0.000     54.000
      3 TX3       1 res   C3        3      0.000     36.000
      4 SX3       1 res   C4        4      0.000     54.000

[ constraints ]
;  ai    aj   funct      b0(nm)
    1     2     1      0.33331
    2     3     1      0.28312
    1     4     1      0.33324
    3     4     1      0.28322

[ bonds ]
;  ai    aj   funct      b0(nm)          k(kJ/mol/nm^2)

[ angles ]
;  ai    aj    ak  funct     th0(deg)        k(kJ/mol/rad^2)
    1     2     3     1    107.22941          3034.50
    1     4     3     1    107.23422          2237.60
    2     1     4     1     65.70110          8102.00
    2     3     4     1     79.36009          5385.26

[ dihedrals ]
;  ai    aj    ak    al  funct   phi0(deg)        k(kJ/mol)   mult
    1     2     3     4     1   -179.98176        9.344      1
    1     4     3     2     1    179.98525        9.358      1
    2     1     4     3     1   -179.99480        9.343      1
    3     2     1     4     1    179.98680        9.336      1
