[ moleculetype ]
; name        nrexcl
res           1

[ atoms ]
;    nr  type resnr resid  atom  cgnr     charge       mass
      1 TC5       1 res   C1        1      0.000     36.000
      2 P1        1 res   C2        2      0.000     72.000
      3 SC4       1 res   C3        3      0.000     54.000
      4 TC3       1 res   C4        4      0.000     36.000
      5 SC4       1 res   C5        5      0.000     54.000
      6 TC4       1 res   C6        6      0.000     36.000
      7 SP2       1 res   C7        7      0.000     54.000
      8 SC3       1 res   C8        8      0.000     54.000

[ bonds ]
;  ai    aj   funct      b0(nm)        k
    1     2     1      0.27926    20000
    2     3     1      0.36556    20000
    3     4     1      0.30815    20000
    3     5     1      0.34627    20000
    4     5     1      0.27977    20000
    5     6     1      0.30934    20000
    5     8     1      0.28131    20000
    6     7     1      0.29629    20000
    6     8     1      0.32332    20000
