[ moleculetype ]
; name        nrexcl
res           1

[ atoms ]
;    nr  type  resnr resid  atom  cgnr     charge       mass
      1 TC5       1 res   C1        1      0.000     36.000
      2 TC6       1 res   C2        2      0.000     36.000
      3 TC5       1 res   C3        3      0.000     36.000
      4 SN4a      1 res   C4        4      0.000     54.000

[ constraints ]
;  ai    aj   funct      b0(nm)
    1     2     1      0.24199
    1     3     1      0.24981
    2     3     1      0.25773
    3     4     1      0.26521

[ bonds ]
;  ai    aj   funct      b0(nm)          k(kJ/mol/nm^2)

[ angles ]
;  ai    aj    ak  funct     th0(deg)        k(kJ/mol/rad^2)
    1     2     3     1     59.89460          4661.45
    1     3     2     1     56.92057         10165.24
    1     3     4     1    149.47027           300.94
    2     1     3     1     63.18482          5577.95
    2     3     4     1     94.60417           492.13

[ dihedrals ]
;  ai    aj    ak    al  funct   phi0(deg)        k(kJ/mol)   mult
    1     2     3     4     1      2.27544       20.390      1
    2     1     3     4     1   -177.15282       26.699      1
