Generated with MDTraj, t= 0.0
 55
    1UNL     C1    1  -0.092   0.469  -0.091
    1UNL     O1    2  -0.054   0.345  -0.042
    1UNL     C2    3  -0.164   0.267  -0.024
    1UNL     O2    4  -0.278   0.301  -0.049
    1UNL     C3    5  -0.142   0.129   0.036
    1UNL     O3    6  -0.172   0.139   0.175
    1UNL     C4    7  -0.235   0.021  -0.032
    1UNL     C5    8  -0.156  -0.079  -0.124
    1UNL     C6    9  -0.252  -0.176  -0.196
    1UNL     C7   10  -0.317  -0.275  -0.099
    1UNL     C8   11  -0.212  -0.355  -0.023
    1UNL     N1   12  -0.111  -0.268   0.043
    1UNL     C9   13  -0.132  -0.215   0.182
    1UNL    C10   14  -0.031  -0.101   0.199
    1UNL    C11   15   0.027  -0.067   0.058
    1UNL    C12   16   0.179  -0.070   0.067
    1UNL    C13   17   0.268  -0.176   0.063
    1UNL    C14   18   0.403  -0.152   0.078
    1UNL    C15   19   0.449  -0.022   0.097
    1UNL    C16   20   0.359   0.087   0.102
    1UNL    C17   21   0.223   0.062   0.088
    1UNL     N2   22   0.114   0.152   0.079
    1UNL    C18   23   0.005   0.082   0.009
    1UNL    C19   24   0.032   0.090  -0.145
    1UNL    C20   25  -0.074   0.008  -0.224
    1UNL     O4   26   0.430   0.206   0.119
    1UNL    C21   27   0.566   0.166   0.126
    1UNL     O5   28   0.579   0.025   0.112
    1UNL    C22   29  -0.050  -0.162  -0.041
    1UNL     H1   30  -0.169   0.511  -0.026
    1UNL     H2   31  -0.005   0.535  -0.094
    1UNL     H3   32  -0.133   0.457  -0.192
    1UNL     H4   33  -0.255   0.190   0.185
    1UNL     H5   34  -0.311   0.073  -0.090
    1UNL     H6   35  -0.288  -0.033   0.047
    1UNL     H7   36  -0.328  -0.118  -0.250
    1UNL     H8   37  -0.197  -0.231  -0.273
    1UNL     H9   38  -0.381  -0.221  -0.027
    1UNL    H10   39  -0.385  -0.342  -0.152
    1UNL    H11   40  -0.158  -0.422  -0.091
    1UNL    H12   41  -0.257  -0.419   0.054
    1UNL    H13   42  -0.116  -0.296   0.254
    1UNL    H14   43  -0.235  -0.182   0.192
    1UNL    H15   44  -0.076  -0.012   0.245
    1UNL    H16   45   0.051  -0.130   0.265
    1UNL    H17   46   0.231  -0.276   0.049
    1UNL    H18   47   0.475  -0.232   0.075
    1UNL    H19   48   0.127   0.248   0.045
    1UNL    H20   49   0.033   0.195  -0.176
    1UNL    H21   50   0.133   0.052  -0.165
    1UNL    H22   51  -0.027  -0.055  -0.300
    1UNL    H23   52  -0.143   0.075  -0.277
    1UNL    H24   53   0.607   0.197   0.223
    1UNL    H25   54   0.622   0.216   0.045
    1UNL    H26   55   0.022  -0.210  -0.110
   0.00000   0.00000   0.00000   0.00000   0.00000   0.00000   0.00000   0.00000   0.00000
Generated with MDTraj, t= 1.0
 55
    1UNL     C1    1  -0.083   0.487  -0.043
    1UNL     O1    2  -0.048   0.352  -0.006
    1UNL     C2    3  -0.154   0.271  -0.034
    1UNL     O2    4  -0.256   0.301  -0.097
    1UNL     C3    5  -0.143   0.129   0.030
    1UNL     O3    6  -0.151   0.133   0.169
    1UNL     C4    7  -0.237   0.021  -0.035
    1UNL     C5    8  -0.164  -0.090  -0.121
    1UNL     C6    9  -0.271  -0.191  -0.185
    1UNL     C7   10  -0.335  -0.279  -0.077
    1UNL     C8   11  -0.230  -0.360  -0.004
    1UNL     N1   12  -0.117  -0.274   0.048
    1UNL     C9   13  -0.119  -0.215   0.191
    1UNL    C10   14  -0.012  -0.103   0.187
    1UNL    C11   15   0.032  -0.071   0.045
    1UNL    C12   16   0.183  -0.066   0.049
    1UNL    C13   17   0.273  -0.166   0.050
    1UNL    C14   18   0.411  -0.142   0.066
    1UNL    C15   19   0.457  -0.016   0.097
    1UNL    C16   20   0.357   0.089   0.102
    1UNL    C17   21   0.225   0.064   0.069
    1UNL     N2   22   0.121   0.153   0.040
    1UNL    C18   23   0.003   0.078  -0.011
    1UNL    C19   24   0.009   0.088  -0.169
    1UNL    C20   25  -0.084  -0.007  -0.233
    1UNL     O4   26   0.416   0.208   0.142
    1UNL    C21   27   0.556   0.170   0.159
    1UNL     O5   28   0.580   0.029   0.129
    1UNL    C22   29  -0.058  -0.171  -0.037
    1UNL     H1   30  -0.177   0.514   0.011
    1UNL     H2   31   0.011   0.543  -0.032
    1UNL     H3   32  -0.128   0.500  -0.143
    1UNL     H4   33  -0.211   0.201   0.199
    1UNL     H5   34  -0.306   0.071  -0.101
    1UNL     H6   35  -0.291  -0.030   0.041
    1UNL     H7   36  -0.349  -0.134  -0.240
    1UNL     H8   37  -0.231  -0.253  -0.256
    1UNL     H9   38  -0.389  -0.211  -0.012
    1UNL    H10   39  -0.414  -0.340  -0.121
    1UNL    H11   40  -0.177  -0.419  -0.080
    1UNL    H12   41  -0.273  -0.418   0.082
    1UNL    H13   42  -0.104  -0.298   0.260
    1UNL    H14   43  -0.216  -0.167   0.208
    1UNL    H15   44  -0.040  -0.010   0.234
    1UNL    H16   45   0.073  -0.141   0.236
    1UNL    H17   46   0.234  -0.260   0.023
    1UNL    H18   47   0.492  -0.214   0.071
    1UNL    H19   48   0.127   0.254   0.045
    1UNL    H20   49  -0.002   0.189  -0.206
    1UNL    H21   50   0.116   0.069  -0.191
    1UNL    H22   51  -0.034  -0.062  -0.301
    1UNL    H23   52  -0.163   0.044  -0.299
    1UNL    H24   53   0.573   0.212   0.262
    1UNL    H25   54   0.625   0.215   0.088
    1UNL    H26   55   0.001  -0.220  -0.115
   0.00000   0.00000   0.00000   0.00000   0.00000   0.00000   0.00000   0.00000   0.00000
Generated with MDTraj, t= 2.0
 55
    1UNL     C1    1  -0.103   0.484  -0.037
    1UNL     O1    2  -0.088   0.363   0.032
    1UNL     C2    3  -0.161   0.268  -0.033
    1UNL     O2    4  -0.239   0.284  -0.128
    1UNL     C3    5  -0.136   0.130   0.020
    1UNL     O3    6  -0.152   0.133   0.162
    1UNL     C4    7  -0.239   0.019  -0.028
    1UNL     C5    8  -0.169  -0.085  -0.122
    1UNL     C6    9  -0.275  -0.185  -0.178
    1UNL     C7   10  -0.335  -0.269  -0.066
    1UNL     C8   11  -0.233  -0.352   0.017
    1UNL     N1   12  -0.113  -0.262   0.045
    1UNL     C9   13  -0.105  -0.207   0.185
    1UNL    C10   14  -0.001  -0.097   0.187
    1UNL    C11   15   0.042  -0.067   0.036
    1UNL    C12   16   0.194  -0.074   0.030
    1UNL    C13   17   0.280  -0.180   0.037
    1UNL    C14   18   0.408  -0.153   0.064
    1UNL    C15   19   0.457  -0.027   0.106
    1UNL    C16   20   0.368   0.084   0.096
    1UNL    C17   21   0.235   0.056   0.059
    1UNL     N2   22   0.128   0.146   0.037
    1UNL    C18   23   0.007   0.080  -0.014
    1UNL    C19   24   0.012   0.086  -0.172
    1UNL    C20   25  -0.103   0.005  -0.235
    1UNL     O4   26   0.423   0.207   0.119
    1UNL    C21   27   0.550   0.172   0.170
    1UNL     O5   28   0.574   0.030   0.164
    1UNL    C22   29  -0.053  -0.163  -0.044
    1UNL     H1   30  -0.204   0.520  -0.014
    1UNL     H2   31  -0.028   0.553   0.008
    1UNL     H3   32  -0.092   0.483  -0.147
    1UNL     H4   33  -0.231   0.178   0.183
    1UNL     H5   34  -0.320   0.057  -0.086
    1UNL     H6   35  -0.269  -0.026   0.064
    1UNL     H7   36  -0.359  -0.136  -0.236
    1UNL     H8   37  -0.233  -0.246  -0.247
    1UNL     H9   38  -0.392  -0.198  -0.010
    1UNL    H10   39  -0.416  -0.324  -0.113
    1UNL    H11   40  -0.191  -0.426  -0.055
    1UNL    H12   41  -0.268  -0.388   0.117
    1UNL    H13   42  -0.092  -0.287   0.257
    1UNL    H14   43  -0.209  -0.170   0.195
    1UNL    H15   44  -0.019  -0.003   0.231
    1UNL    H16   45   0.076  -0.136   0.241
    1UNL    H17   46   0.244  -0.286   0.023
    1UNL    H18   47   0.474  -0.235   0.080
    1UNL    H19   48   0.124   0.237   0.081
    1UNL    H20   49   0.011   0.189  -0.197
    1UNL    H21   50   0.114   0.057  -0.207
    1UNL    H22   51  -0.072  -0.057  -0.311
    1UNL    H23   52  -0.179   0.073  -0.291
    1UNL    H24   53   0.556   0.206   0.280
    1UNL    H25   54   0.621   0.237   0.117
    1UNL    H26   55  -0.001  -0.227  -0.116
   0.00000   0.00000   0.00000   0.00000   0.00000   0.00000   0.00000   0.00000   0.00000
Generated with MDTraj, t= 3.0
 55
    1UNL     C1    1  -0.153   0.487  -0.039
    1UNL     O1    2  -0.130   0.373   0.040
    1UNL     C2    3  -0.163   0.268  -0.037
    1UNL     O2    4  -0.215   0.272  -0.148
    1UNL     C3    5  -0.128   0.133   0.026
    1UNL     O3    6  -0.127   0.144   0.174
    1UNL     C4    7  -0.229   0.023  -0.017
    1UNL     C5    8  -0.172  -0.080  -0.120
    1UNL     C6    9  -0.283  -0.181  -0.175
    1UNL     C7   10  -0.334  -0.283  -0.065
    1UNL     C8   11  -0.215  -0.354  -0.001
    1UNL     N1   12  -0.105  -0.258   0.041
    1UNL     C9   13  -0.114  -0.205   0.183
    1UNL    C10   14  -0.007  -0.101   0.186
    1UNL    C11   15   0.041  -0.060   0.038
    1UNL    C12   16   0.190  -0.072   0.039
    1UNL    C13   17   0.269  -0.182   0.054
    1UNL    C14   18   0.397  -0.159   0.091
    1UNL    C15   19   0.447  -0.030   0.109
    1UNL    C16   20   0.362   0.083   0.098
    1UNL    C17   21   0.228   0.061   0.059
    1UNL     N2   22   0.128   0.162   0.032
    1UNL    C18   23   0.016   0.091  -0.023
    1UNL    C19   24   0.024   0.088  -0.176
    1UNL    C20   25  -0.100   0.003  -0.235
    1UNL     O4   26   0.443   0.205   0.123
    1UNL    C21   27   0.567   0.151   0.154
    1UNL     O5   28   0.578   0.010   0.149
    1UNL    C22   29  -0.052  -0.159  -0.046
    1UNL     H1   30  -0.255   0.485  -0.076
    1UNL     H2   31  -0.175   0.583   0.019
    1UNL     H3   32  -0.074   0.506  -0.117
    1UNL     H4   33  -0.150   0.236   0.201
    1UNL     H5   34  -0.313   0.075  -0.051
    1UNL     H6   35  -0.246  -0.035   0.071
    1UNL     H7   36  -0.363  -0.114  -0.215
    1UNL     H8   37  -0.250  -0.232  -0.264
    1UNL     H9   38  -0.402  -0.227  -0.005
    1UNL    H10   39  -0.403  -0.349  -0.113
    1UNL    H11   40  -0.167  -0.408  -0.088
    1UNL    H12   41  -0.245  -0.418   0.087
    1UNL    H13   42  -0.098  -0.293   0.246
    1UNL    H14   43  -0.215  -0.169   0.211
    1UNL    H15   44  -0.046  -0.023   0.241
    1UNL    H16   45   0.083  -0.128   0.224
    1UNL    H17   46   0.222  -0.272   0.047
    1UNL    H18   47   0.459  -0.249   0.101
    1UNL    H19   48   0.097   0.224   0.105
    1UNL    H20   49   0.023   0.186  -0.215
    1UNL    H21   50   0.121   0.039  -0.203
    1UNL    H22   51  -0.065  -0.062  -0.321
    1UNL    H23   52  -0.167   0.079  -0.285
    1UNL    H24   53   0.595   0.170   0.264
    1UNL    H25   54   0.629   0.212   0.090
    1UNL    H26   55   0.012  -0.221  -0.112
   0.00000   0.00000   0.00000   0.00000   0.00000   0.00000   0.00000   0.00000   0.00000
Generated with MDTraj, t= 4.0
 55
    1UNL     C1    1  -0.212   0.494  -0.045
    1UNL     O1    2  -0.163   0.395   0.032
    1UNL     C2    3  -0.159   0.280  -0.042
    1UNL     O2    4  -0.181   0.278  -0.161
    1UNL     C3    5  -0.131   0.144   0.033
    1UNL     O3    6  -0.152   0.165   0.170
    1UNL     C4    7  -0.230   0.030  -0.021
    1UNL     C5    8  -0.162  -0.072  -0.118
    1UNL     C6    9  -0.272  -0.170  -0.168
    1UNL     C7   10  -0.316  -0.285  -0.062
    1UNL     C8   11  -0.204  -0.366  -0.017
    1UNL     N1   12  -0.103  -0.267   0.031
    1UNL     C9   13  -0.093  -0.232   0.183
    1UNL    C10   14  -0.032  -0.091   0.190
    1UNL    C11   15   0.036  -0.059   0.048
    1UNL    C12   16   0.179  -0.071   0.062
    1UNL    C13   17   0.259  -0.185   0.069
    1UNL    C14   18   0.400  -0.171   0.095
    1UNL    C15   19   0.455  -0.040   0.110
    1UNL    C16   20   0.370   0.075   0.089
    1UNL    C17   21   0.233   0.061   0.069
    1UNL     N2   22   0.127   0.159   0.056
    1UNL    C18   23   0.011   0.092  -0.005
    1UNL    C19   24   0.029   0.090  -0.157
    1UNL    C20   25  -0.086   0.008  -0.230
    1UNL     O4   26   0.447   0.190   0.110
    1UNL    C21   27   0.578   0.136   0.135
    1UNL     O5   28   0.589  -0.006   0.129
    1UNL    C22   29  -0.048  -0.157  -0.046
    1UNL     H1   30  -0.316   0.481  -0.067
    1UNL     H2   31  -0.214   0.593   0.012
    1UNL     H3   32  -0.145   0.515  -0.130
    1UNL     H4   33  -0.179   0.262   0.184
    1UNL     H5   34  -0.303   0.082  -0.072
    1UNL     H6   35  -0.263  -0.027   0.064
    1UNL     H7   36  -0.362  -0.113  -0.189
    1UNL     H8   37  -0.239  -0.201  -0.272
    1UNL     H9   38  -0.361  -0.239   0.024
    1UNL    H10   39  -0.400  -0.332  -0.106
    1UNL    H11   40  -0.175  -0.424  -0.109
    1UNL    H12   41  -0.231  -0.424   0.077
    1UNL    H13   42  -0.028  -0.301   0.240
    1UNL    H14   43  -0.194  -0.243   0.230
    1UNL    H15   44  -0.096  -0.010   0.211
    1UNL    H16   45   0.037  -0.103   0.265
    1UNL    H17   46   0.218  -0.289   0.067
    1UNL    H18   47   0.458  -0.259   0.094
    1UNL    H19   48   0.150   0.245   0.011
    1UNL    H20   49   0.020   0.191  -0.188
    1UNL    H21   50   0.128   0.044  -0.182
    1UNL    H22   51  -0.034  -0.057  -0.319
    1UNL    H23   52  -0.151   0.084  -0.277
    1UNL    H24   53   0.609   0.187   0.234
    1UNL    H25   54   0.640   0.165   0.054
    1UNL    H26   55   0.015  -0.215  -0.115
   0.00000   0.00000   0.00000   0.00000   0.00000   0.00000   0.00000   0.00000   0.00000
Generated with MDTraj, t= 5.0
 55
    1UNL     C1    1  -0.230   0.490  -0.043
    1UNL     O1    2  -0.202   0.383   0.033
    1UNL     C2    3  -0.173   0.268  -0.044
    1UNL     O2    4  -0.169   0.273  -0.163
    1UNL     C3    5  -0.131   0.139   0.033
    1UNL     O3    6  -0.150   0.175   0.171
    1UNL     C4    7  -0.224   0.021  -0.021
    1UNL     C5    8  -0.148  -0.073  -0.117
    1UNL     C6    9  -0.250  -0.173  -0.187
    1UNL     C7   10  -0.315  -0.274  -0.089
    1UNL     C8   11  -0.209  -0.354  -0.015
    1UNL     N1   12  -0.101  -0.270   0.047
    1UNL     C9   13  -0.109  -0.222   0.189
    1UNL    C10   14  -0.051  -0.080   0.193
    1UNL    C11   15   0.029  -0.057   0.056
    1UNL    C12   16   0.177  -0.071   0.076
    1UNL    C13   17   0.251  -0.187   0.082
    1UNL    C14   18   0.393  -0.170   0.090
    1UNL    C15   19   0.455  -0.044   0.095
    1UNL    C16   20   0.371   0.070   0.095
    1UNL    C17   21   0.233   0.055   0.086
    1UNL     N2   22   0.138   0.158   0.073
    1UNL    C18   23   0.018   0.100   0.003
    1UNL    C19   24   0.046   0.100  -0.148
    1UNL    C20   25  -0.072   0.023  -0.219
    1UNL     O4   26   0.451   0.188   0.104
    1UNL    C21   27   0.585   0.132   0.099
    1UNL     O5   28   0.591  -0.014   0.108
    1UNL    C22   29  -0.044  -0.160  -0.038
    1UNL     H1   30  -0.309   0.476  -0.113
    1UNL     H2   31  -0.221   0.588   0.014
    1UNL     H3   32  -0.143   0.508  -0.106
    1UNL     H4   33  -0.117   0.262   0.182
    1UNL     H5   34  -0.305   0.069  -0.066
    1UNL     H6   35  -0.253  -0.038   0.063
    1UNL     H7   36  -0.314  -0.122  -0.257
    1UNL     H8   37  -0.180  -0.238  -0.256
    1UNL     H9   38  -0.375  -0.212  -0.025
    1UNL    H10   39  -0.391  -0.335  -0.133
    1UNL    H11   40  -0.167  -0.414  -0.101
    1UNL    H12   41  -0.256  -0.421   0.063
    1UNL    H13   42  -0.065  -0.304   0.254
    1UNL    H14   43  -0.215  -0.203   0.222
    1UNL    H15   44  -0.128  -0.006   0.217
    1UNL    H16   45   0.025  -0.080   0.268
    1UNL    H17   46   0.211  -0.285   0.097
    1UNL    H18   47   0.463  -0.255   0.091
    1UNL    H19   48   0.170   0.246   0.037
    1UNL    H20   49   0.052   0.201  -0.183
    1UNL    H21   50   0.143   0.051  -0.166
    1UNL    H22   51  -0.042  -0.034  -0.315
    1UNL    H23   52  -0.143   0.102  -0.258
    1UNL    H24   53   0.635   0.183   0.189
    1UNL    H25   54   0.635   0.152   0.010
    1UNL    H26   55   0.029  -0.211  -0.104
   0.00000   0.00000   0.00000   0.00000   0.00000   0.00000   0.00000   0.00000   0.00000
Generated with MDTraj, t= 6.0
 55
    1UNL     C1    1  -0.237   0.481  -0.036
    1UNL     O1    2  -0.190   0.377   0.039
    1UNL     C2    3  -0.155   0.269  -0.040
    1UNL     O2    4  -0.145   0.278  -0.158
    1UNL     C3    5  -0.134   0.134   0.031
    1UNL     O3    6  -0.182   0.141   0.166
    1UNL     C4    7  -0.218   0.031  -0.042
    1UNL     C5    8  -0.142  -0.078  -0.119
    1UNL     C6    9  -0.242  -0.174  -0.194
    1UNL     C7   10  -0.318  -0.264  -0.094
    1UNL     C8   11  -0.209  -0.357  -0.018
    1UNL     N1   12  -0.129  -0.255   0.056
    1UNL     C9   13  -0.151  -0.184   0.190
    1UNL    C10   14  -0.030  -0.082   0.209
    1UNL    C11   15   0.032  -0.064   0.070
    1UNL    C12   16   0.183  -0.072   0.076
    1UNL    C13   17   0.258  -0.185   0.082
    1UNL    C14   18   0.391  -0.168   0.082
    1UNL    C15   19   0.454  -0.041   0.088
    1UNL    C16   20   0.378   0.079   0.087
    1UNL    C17   21   0.237   0.060   0.082
    1UNL     N2   22   0.131   0.156   0.082
    1UNL    C18   23   0.015   0.084   0.013
    1UNL    C19   24   0.051   0.086  -0.135
    1UNL    C20   25  -0.055   0.007  -0.217
    1UNL     O4   26   0.455   0.192   0.095
    1UNL    C21   27   0.588   0.143   0.092
    1UNL     O5   28   0.586  -0.002   0.090
    1UNL    C22   29  -0.050  -0.165  -0.026
    1UNL     H1   30  -0.272   0.451  -0.132
    1UNL     H2   31  -0.291   0.561   0.026
    1UNL     H3   32  -0.150   0.540  -0.063
    1UNL     H4   33  -0.164   0.236   0.205
    1UNL     H5   34  -0.281   0.085  -0.111
    1UNL     H6   35  -0.279  -0.014   0.031
    1UNL     H7   36  -0.312  -0.115  -0.251
    1UNL     H8   37  -0.185  -0.240  -0.272
    1UNL     H9   38  -0.379  -0.208  -0.025
    1UNL    H10   39  -0.388  -0.316  -0.155
    1UNL    H11   40  -0.135  -0.397  -0.090
    1UNL    H12   41  -0.258  -0.443   0.033
    1UNL    H13   42  -0.142  -0.259   0.276
    1UNL    H14   43  -0.254  -0.139   0.208
    1UNL    H15   44  -0.068   0.017   0.236
    1UNL    H16   45   0.047  -0.113   0.286
    1UNL    H17   46   0.217  -0.282   0.080
    1UNL    H18   47   0.445  -0.257   0.101
    1UNL    H19   48   0.134   0.256   0.067
    1UNL    H20   49   0.067   0.188  -0.167
    1UNL    H21   50   0.150   0.044  -0.145
    1UNL    H22   51  -0.016  -0.053  -0.294
    1UNL    H23   52  -0.129   0.072  -0.280
    1UNL    H24   53   0.653   0.162   0.185
    1UNL    H25   54   0.627   0.192   0.009
    1UNL    H26   55   0.026  -0.222  -0.085
   0.00000   0.00000   0.00000   0.00000   0.00000   0.00000   0.00000   0.00000   0.00000
Generated with MDTraj, t= 7.0
 55
    1UNL     C1    1  -0.197   0.499  -0.010
    1UNL     O1    2  -0.207   0.373   0.046
    1UNL     C2    3  -0.154   0.278  -0.037
    1UNL     O2    4  -0.130   0.297  -0.154
    1UNL     C3    5  -0.129   0.136   0.019
    1UNL     O3    6  -0.161   0.138   0.159
    1UNL     C4    7  -0.214   0.021  -0.045
    1UNL     C5    8  -0.134  -0.090  -0.127
    1UNL     C6    9  -0.230  -0.195  -0.198
    1UNL     C7   10  -0.331  -0.264  -0.108
    1UNL     C8   11  -0.250  -0.334   0.010
    1UNL     N1   12  -0.145  -0.252   0.065
    1UNL     C9   13  -0.143  -0.193   0.199
    1UNL    C10   14  -0.027  -0.091   0.208
    1UNL    C11   15   0.029  -0.068   0.063
    1UNL    C12   16   0.181  -0.082   0.072
    1UNL    C13   17   0.275  -0.190   0.067
    1UNL    C14   18   0.409  -0.159   0.076
    1UNL    C15   19   0.449  -0.032   0.082
    1UNL    C16   20   0.363   0.078   0.100
    1UNL    C17   21   0.226   0.056   0.089
    1UNL     N2   22   0.122   0.152   0.081
    1UNL    C18   23   0.017   0.084   0.001
    1UNL    C19   24   0.063   0.071  -0.148
    1UNL    C20   25  -0.039  -0.014  -0.223
    1UNL     O4   26   0.436   0.196   0.104
    1UNL    C21   27   0.571   0.157   0.091
    1UNL     O5   28   0.575   0.018   0.081
    1UNL    C22   29  -0.052  -0.170  -0.022
    1UNL     H1   30  -0.279   0.511  -0.081
    1UNL     H2   31  -0.205   0.586   0.066
    1UNL     H3   32  -0.117   0.506  -0.081
    1UNL     H4   33  -0.231   0.202   0.181
    1UNL     H5   34  -0.292   0.064  -0.106
    1UNL     H6   35  -0.270  -0.014   0.040
    1UNL     H7   36  -0.283  -0.136  -0.274
    1UNL     H8   37  -0.169  -0.279  -0.247
    1UNL     H9   38  -0.390  -0.182  -0.071
    1UNL    H10   39  -0.395  -0.331  -0.161
    1UNL    H11   40  -0.212  -0.428  -0.033
    1UNL    H12   41  -0.312  -0.367   0.095
    1UNL    H13   42  -0.140  -0.261   0.291
    1UNL    H14   43  -0.248  -0.147   0.208
    1UNL    H15   44  -0.047   0.007   0.259
    1UNL    H16   45   0.064  -0.130   0.273
    1UNL    H17   46   0.235  -0.293   0.050
    1UNL    H18   47   0.493  -0.229   0.088
    1UNL    H19   48   0.148   0.248   0.054
    1UNL    H20   49   0.068   0.172  -0.192
    1UNL    H21   50   0.163   0.039  -0.163
    1UNL    H22   51   0.006  -0.086  -0.279
    1UNL    H23   52  -0.093   0.043  -0.310
    1UNL    H24   53   0.635   0.182   0.184
    1UNL    H25   54   0.617   0.195   0.007
    1UNL    H26   55   0.025  -0.233  -0.074
   0.00000   0.00000   0.00000   0.00000   0.00000   0.00000   0.00000   0.00000   0.00000
Generated with MDTraj, t= 8.0
 55
    1UNL     C1    1  -0.176   0.489  -0.007
    1UNL     O1    2  -0.173   0.366   0.057
    1UNL     C2    3  -0.140   0.267  -0.029
    1UNL     O2    4  -0.117   0.289  -0.148
    1UNL     C3    5  -0.141   0.122   0.016
    1UNL     O3    6  -0.182   0.120   0.152
    1UNL     C4    7  -0.230   0.019  -0.058
    1UNL     C5    8  -0.146  -0.091  -0.131
    1UNL     C6    9  -0.255  -0.190  -0.190
    1UNL     C7   10  -0.336  -0.264  -0.082
    1UNL     C8   11  -0.246  -0.336   0.016
    1UNL     N1   12  -0.143  -0.250   0.062
    1UNL     C9   13  -0.162  -0.167   0.182
    1UNL    C10   14  -0.035  -0.091   0.198
    1UNL    C11   15   0.030  -0.072   0.060
    1UNL    C12   16   0.183  -0.073   0.072
    1UNL    C13   17   0.274  -0.176   0.049
    1UNL    C14   18   0.410  -0.151   0.063
    1UNL    C15   19   0.456  -0.022   0.092
    1UNL    C16   20   0.367   0.085   0.095
    1UNL    C17   21   0.230   0.060   0.096
    1UNL     N2   22   0.119   0.149   0.075
    1UNL    C18   23   0.010   0.069  -0.001
    1UNL    C19   24   0.056   0.063  -0.145
    1UNL    C20   25  -0.043  -0.024  -0.227
    1UNL     O4   26   0.441   0.205   0.104
    1UNL    C21   27   0.582   0.169   0.109
    1UNL     O5   28   0.585   0.029   0.093
    1UNL    C22   29  -0.052  -0.171  -0.034
    1UNL     H1   30  -0.255   0.468  -0.082
    1UNL     H2   31  -0.223   0.582   0.044
    1UNL     H3   32  -0.095   0.509  -0.075
    1UNL     H4   33  -0.150   0.200   0.202
    1UNL     H5   34  -0.292   0.076  -0.128
    1UNL     H6   35  -0.306  -0.023   0.008
    1UNL     H7   36  -0.328  -0.132  -0.251
    1UNL     H8   37  -0.201  -0.268  -0.248
    1UNL     H9   38  -0.395  -0.196  -0.020
    1UNL    H10   39  -0.403  -0.332  -0.130
    1UNL    H11   40  -0.193  -0.425  -0.016
    1UNL    H12   41  -0.316  -0.375   0.092
    1UNL    H13   42  -0.179  -0.243   0.268
    1UNL    H14   43  -0.249  -0.092   0.186
    1UNL    H15   44  -0.044   0.013   0.247
    1UNL    H16   45   0.042  -0.151   0.262
    1UNL    H17   46   0.229  -0.266   0.026
    1UNL    H18   47   0.481  -0.230   0.066
    1UNL    H19   48   0.135   0.247   0.043
    1UNL    H20   49   0.069   0.163  -0.190
    1UNL    H21   50   0.148   0.013  -0.149
    1UNL    H22   51   0.003  -0.080  -0.301
    1UNL    H23   52  -0.103   0.050  -0.288
    1UNL    H24   53   0.621   0.204   0.212
    1UNL    H25   54   0.653   0.196   0.035
    1UNL    H26   55   0.012  -0.229  -0.105
   0.00000   0.00000   0.00000   0.00000   0.00000   0.00000   0.00000   0.00000   0.00000
Generated with MDTraj, t= 9.0
 55
    1UNL     C1    1  -0.156   0.497  -0.003
    1UNL     O1    2  -0.156   0.373   0.047
    1UNL     C2    3  -0.157   0.270  -0.040
    1UNL     O2    4  -0.168   0.291  -0.161
    1UNL     C3    5  -0.135   0.131   0.020
    1UNL     O3    6  -0.169   0.147   0.159
    1UNL     C4    7  -0.223   0.015  -0.046
    1UNL     C5    8  -0.144  -0.088  -0.131
    1UNL     C6    9  -0.252  -0.186  -0.200
    1UNL     C7   10  -0.330  -0.276  -0.097
    1UNL     C8   11  -0.236  -0.342   0.012
    1UNL     N1   12  -0.132  -0.254   0.067
    1UNL     C9   13  -0.124  -0.195   0.204
    1UNL    C10   14  -0.025  -0.080   0.206
    1UNL    C11   15   0.025  -0.069   0.055
    1UNL    C12   16   0.179  -0.074   0.058
    1UNL    C13   17   0.270  -0.178   0.057
    1UNL    C14   18   0.403  -0.163   0.084
    1UNL    C15   19   0.454  -0.032   0.093
    1UNL    C16   20   0.363   0.072   0.097
    1UNL    C17   21   0.227   0.053   0.074
    1UNL     N2   22   0.129   0.150   0.064
    1UNL    C18   23   0.017   0.078  -0.000
    1UNL    C19   24   0.044   0.077  -0.155
    1UNL    C20   25  -0.054  -0.020  -0.237
    1UNL     O4   26   0.423   0.195   0.110
    1UNL    C21   27   0.560   0.168   0.123
    1UNL     O5   28   0.581   0.023   0.100
    1UNL    C22   29  -0.051  -0.164  -0.034
    1UNL     H1   30  -0.232   0.494  -0.081
    1UNL     H2   31  -0.191   0.575   0.072
    1UNL     H3   32  -0.063   0.530  -0.047
    1UNL     H4   33  -0.124   0.228   0.198
    1UNL     H5   34  -0.309   0.052  -0.104
    1UNL     H6   35  -0.271  -0.040   0.039
    1UNL     H7   36  -0.327  -0.118  -0.254
    1UNL     H8   37  -0.199  -0.250  -0.269
    1UNL     H9   38  -0.405  -0.214  -0.044
    1UNL    H10   39  -0.382  -0.360  -0.138
    1UNL    H11   40  -0.199  -0.437  -0.025
    1UNL    H12   41  -0.293  -0.378   0.097
    1UNL    H13   42  -0.092  -0.282   0.274
    1UNL    H14   43  -0.230  -0.159   0.229
    1UNL    H15   44  -0.068   0.024   0.235
    1UNL    H16   45   0.060  -0.113   0.277
    1UNL    H17   46   0.237  -0.284   0.073
    1UNL    H18   47   0.464  -0.251   0.080
    1UNL    H19   48   0.163   0.244   0.034
    1UNL    H20   49   0.023   0.176  -0.197
    1UNL    H21   50   0.144   0.052  -0.171
    1UNL    H22   51   0.002  -0.095  -0.294
    1UNL    H23   52  -0.106   0.032  -0.312
    1UNL    H24   53   0.599   0.192   0.230
    1UNL    H25   54   0.615   0.224   0.051
    1UNL    H26   55   0.026  -0.216  -0.099
   0.00000   0.00000   0.00000   0.00000   0.00000   0.00000   0.00000   0.00000   0.00000
Generated with MDTraj, t= 10.0
 55
    1UNL     C1    1  -0.150   0.486  -0.052
    1UNL     O1    2  -0.110   0.372   0.016
    1UNL     C2    3  -0.166   0.260  -0.036
    1UNL     O2    4  -0.225   0.260  -0.143
    1UNL     C3    5  -0.140   0.131   0.032
    1UNL     O3    6  -0.173   0.155   0.169
    1UNL     C4    7  -0.231   0.017  -0.022
    1UNL     C5    8  -0.150  -0.085  -0.113
    1UNL     C6    9  -0.260  -0.174  -0.184
    1UNL     C7   10  -0.330  -0.271  -0.084
    1UNL     C8   11  -0.213  -0.353  -0.023
    1UNL     N1   12  -0.112  -0.267   0.041
    1UNL     C9   13  -0.134  -0.214   0.175
    1UNL    C10   14  -0.030  -0.094   0.199
    1UNL    C11   15   0.032  -0.059   0.054
    1UNL    C12   16   0.181  -0.058   0.063
    1UNL    C13   17   0.262  -0.167   0.061
    1UNL    C14   18   0.400  -0.156   0.091
    1UNL    C15   19   0.450  -0.030   0.107
    1UNL    C16   20   0.371   0.083   0.090
    1UNL    C17   21   0.235   0.067   0.073
    1UNL     N2   22   0.127   0.163   0.065
    1UNL    C18   23   0.008   0.092   0.001
    1UNL    C19   24   0.024   0.096  -0.150
    1UNL    C20   25  -0.085   0.002  -0.221
    1UNL     O4   26   0.453   0.191   0.115
    1UNL    C21   27   0.582   0.147   0.123
    1UNL     O5   28   0.586   0.006   0.131
    1UNL    C22   29  -0.039  -0.163  -0.041
    1UNL     H1   30  -0.258   0.495  -0.052
    1UNL     H2   31  -0.105   0.585  -0.025
    1UNL     H3   32  -0.114   0.476  -0.153
    1UNL     H4   33  -0.119   0.224   0.203
    1UNL     H5   34  -0.316   0.056  -0.084
    1UNL     H6   35  -0.277  -0.031   0.068
    1UNL     H7   36  -0.337  -0.098  -0.225
    1UNL     H8   37  -0.213  -0.230  -0.261
    1UNL     H9   38  -0.393  -0.239   0.002
    1UNL    H10   39  -0.387  -0.345  -0.138
    1UNL    H11   40  -0.163  -0.429  -0.081
    1UNL    H12   41  -0.256  -0.416   0.052
    1UNL    H13   42  -0.122  -0.301   0.249
    1UNL    H14   43  -0.246  -0.187   0.172
    1UNL    H15   44  -0.086  -0.020   0.262
    1UNL    H16   45   0.060  -0.136   0.256
    1UNL    H17   46   0.217  -0.261   0.059
    1UNL    H18   47   0.464  -0.244   0.104
    1UNL    H19   48   0.149   0.260   0.036
    1UNL    H20   49   0.011   0.199  -0.182
    1UNL    H21   50   0.122   0.067  -0.176
    1UNL    H22   51  -0.038  -0.065  -0.299
    1UNL    H23   52  -0.153   0.051  -0.275
    1UNL    H24   53   0.634   0.178   0.221
    1UNL    H25   54   0.620   0.196   0.034
    1UNL    H26   55   0.028  -0.218  -0.114
   0.00000   0.00000   0.00000   0.00000   0.00000   0.00000   0.00000   0.00000   0.00000
Generated with MDTraj, t= 11.0
 55
    1UNL     C1    1  -0.133   0.488  -0.099
    1UNL     O1    2  -0.086   0.377  -0.031
    1UNL     C2    3  -0.174   0.274  -0.041
    1UNL     O2    4  -0.274   0.276  -0.106
    1UNL     C3    5  -0.136   0.144   0.037
    1UNL     O3    6  -0.142   0.167   0.179
    1UNL     C4    7  -0.232   0.026   0.004
    1UNL     C5    8  -0.166  -0.068  -0.105
    1UNL     C6    9  -0.261  -0.170  -0.181
    1UNL     C7   10  -0.309  -0.282  -0.093
    1UNL     C8   11  -0.192  -0.368  -0.040
    1UNL     N1   12  -0.085  -0.282   0.031
    1UNL     C9   13  -0.102  -0.235   0.172
    1UNL    C10   14  -0.037  -0.100   0.189
    1UNL    C11   15   0.032  -0.058   0.056
    1UNL    C12   16   0.173  -0.076   0.077
    1UNL    C13   17   0.260  -0.184   0.080
    1UNL    C14   18   0.401  -0.173   0.093
    1UNL    C15   19   0.444  -0.040   0.106
    1UNL    C16   20   0.357   0.074   0.105
    1UNL    C17   21   0.223   0.056   0.083
    1UNL     N2   22   0.131   0.157   0.064
    1UNL    C18   23   0.014   0.093   0.003
    1UNL    C19   24   0.024   0.097  -0.150
    1UNL    C20   25  -0.103   0.030  -0.209
    1UNL     O4   26   0.433   0.194   0.116
    1UNL    C21   27   0.565   0.153   0.137
    1UNL     O5   28   0.574   0.014   0.124
    1UNL    C22   29  -0.048  -0.152  -0.050
    1UNL     H1   30  -0.221   0.537  -0.059
    1UNL     H2   31  -0.058   0.567  -0.123
    1UNL     H3   32  -0.150   0.450  -0.197
    1UNL     H4   33  -0.064   0.231   0.199
    1UNL     H5   34  -0.326   0.072  -0.042
    1UNL     H6   35  -0.260  -0.034   0.092
    1UNL     H7   36  -0.348  -0.103  -0.222
    1UNL     H8   37  -0.201  -0.209  -0.258
    1UNL     H9   38  -0.357  -0.247   0.001
    1UNL    H10   39  -0.377  -0.358  -0.133
    1UNL    H11   40  -0.150  -0.427  -0.120
    1UNL    H12   41  -0.217  -0.449   0.024
    1UNL    H13   42  -0.046  -0.316   0.230
    1UNL    H14   43  -0.210  -0.250   0.206
    1UNL    H15   44  -0.109  -0.030   0.224
    1UNL    H16   45   0.031  -0.107   0.281
    1UNL    H17   46   0.218  -0.284   0.062
    1UNL    H18   47   0.466  -0.256   0.089
    1UNL    H19   48   0.166   0.242   0.023
    1UNL    H20   49   0.044   0.198  -0.179
    1UNL    H21   50   0.110   0.042  -0.186
    1UNL    H22   51  -0.081  -0.020  -0.306
    1UNL    H23   52  -0.179   0.099  -0.240
    1UNL    H24   53   0.586   0.187   0.244
    1UNL    H25   54   0.637   0.199   0.071
    1UNL    H26   55   0.016  -0.189  -0.135
   0.00000   0.00000   0.00000   0.00000   0.00000   0.00000   0.00000   0.00000   0.00000
Generated with MDTraj, t= 12.0
 55
    1UNL     C1    1  -0.094   0.460  -0.116
    1UNL     O1    2  -0.067   0.342  -0.058
    1UNL     C2    3  -0.185   0.270  -0.028
    1UNL     O2    4  -0.295   0.309  -0.050
    1UNL     C3    5  -0.145   0.133   0.040
    1UNL     O3    6  -0.166   0.135   0.182
    1UNL     C4    7  -0.242   0.023  -0.015
    1UNL     C5    8  -0.165  -0.074  -0.118
    1UNL     C6    9  -0.270  -0.170  -0.181
    1UNL     C7   10  -0.319  -0.272  -0.081
    1UNL     C8   11  -0.203  -0.359  -0.034
    1UNL     N1   12  -0.093  -0.272   0.027
    1UNL     C9   13  -0.088  -0.230   0.174
    1UNL    C10   14  -0.028  -0.094   0.185
    1UNL    C11   15   0.031  -0.061   0.043
    1UNL    C12   16   0.184  -0.067   0.058
    1UNL    C13   17   0.264  -0.180   0.066
    1UNL    C14   18   0.398  -0.160   0.081
    1UNL    C15   19   0.446  -0.029   0.113
    1UNL    C16   20   0.361   0.087   0.116
    1UNL    C17   21   0.222   0.068   0.090
    1UNL     N2   22   0.122   0.161   0.063
    1UNL    C18   23   0.004   0.088   0.005
    1UNL    C19   24   0.021   0.093  -0.151
    1UNL    C20   25  -0.095   0.025  -0.222
    1UNL     O4   26   0.446   0.201   0.128
    1UNL    C21   27   0.579   0.156   0.140
    1UNL     O5   28   0.575   0.014   0.138
    1UNL    C22   29  -0.050  -0.155  -0.055
    1UNL     H1   30  -0.173   0.527  -0.078
    1UNL     H2   31  -0.001   0.518  -0.114
    1UNL     H3   32  -0.103   0.437  -0.220
    1UNL     H4   33  -0.107   0.215   0.208
    1UNL     H5   34  -0.333   0.063  -0.074
    1UNL     H6   35  -0.278  -0.033   0.071
    1UNL     H7   36  -0.362  -0.111  -0.219
    1UNL     H8   37  -0.214  -0.220  -0.255
    1UNL     H9   38  -0.358  -0.242   0.020
    1UNL    H10   39  -0.389  -0.343  -0.126
    1UNL    H11   40  -0.153  -0.411  -0.113
    1UNL    H12   41  -0.223  -0.441   0.030
    1UNL    H13   42  -0.048  -0.317   0.237
    1UNL    H14   43  -0.195  -0.224   0.208
    1UNL    H15   44  -0.080  -0.016   0.236
    1UNL    H16   45   0.052  -0.113   0.257
    1UNL    H17   46   0.215  -0.275   0.052
    1UNL    H18   47   0.466  -0.244   0.102
    1UNL    H19   48   0.132   0.240   0.000
    1UNL    H20   49   0.034   0.192  -0.186
    1UNL    H21   50   0.114   0.044  -0.183
    1UNL    H22   51  -0.064  -0.030  -0.310
    1UNL    H23   52  -0.170   0.110  -0.261
    1UNL    H24   53   0.618   0.208   0.230
    1UNL    H25   54   0.644   0.182   0.057
    1UNL    H26   55   0.022  -0.196  -0.130
   0.00000   0.00000   0.00000   0.00000   0.00000   0.00000   0.00000   0.00000   0.00000
Generated with MDTraj, t= 13.0
 55
    1UNL     C1    1  -0.103   0.470  -0.111
    1UNL     O1    2  -0.057   0.342  -0.060
    1UNL     C2    3  -0.166   0.273  -0.013
    1UNL     O2    4  -0.277   0.311  -0.028
    1UNL     C3    5  -0.132   0.132   0.042
    1UNL     O3    6  -0.145   0.137   0.188
    1UNL     C4    7  -0.227   0.026  -0.023
    1UNL     C5    8  -0.161  -0.085  -0.119
    1UNL     C6    9  -0.263  -0.174  -0.195
    1UNL     C7   10  -0.327  -0.278  -0.102
    1UNL     C8   11  -0.222  -0.359  -0.021
    1UNL     N1   12  -0.120  -0.267   0.037
    1UNL     C9   13  -0.135  -0.212   0.179
    1UNL    C10   14  -0.018  -0.105   0.195
    1UNL    C11   15   0.031  -0.072   0.053
    1UNL    C12   16   0.182  -0.074   0.059
    1UNL    C13   17   0.279  -0.176   0.051
    1UNL    C14   18   0.410  -0.149   0.074
    1UNL    C15   19   0.450  -0.020   0.100
    1UNL    C16   20   0.356   0.090   0.099
    1UNL    C17   21   0.223   0.059   0.079
    1UNL     N2   22   0.121   0.152   0.063
    1UNL    C18   23   0.008   0.081   0.002
    1UNL    C19   24   0.032   0.083  -0.157
    1UNL    C20   25  -0.078   0.002  -0.230
    1UNL     O4   26   0.422   0.213   0.118
    1UNL    C21   27   0.551   0.167   0.161
    1UNL     O5   28   0.573   0.027   0.133
    1UNL    C22   29  -0.053  -0.166  -0.042
    1UNL     H1   30  -0.136   0.548  -0.039
    1UNL     H2   31  -0.025   0.517  -0.171
    1UNL     H3   32  -0.185   0.457  -0.181
    1UNL     H4   33  -0.079   0.209   0.209
    1UNL     H5   34  -0.310   0.086  -0.075
    1UNL     H6   35  -0.267  -0.034   0.062
    1UNL     H7   36  -0.344  -0.101  -0.231
    1UNL     H8   37  -0.211  -0.228  -0.271
    1UNL     H9   38  -0.390  -0.226  -0.027
    1UNL    H10   39  -0.378  -0.365  -0.150
    1UNL    H11   40  -0.171  -0.434  -0.080
    1UNL    H12   41  -0.252  -0.418   0.062
    1UNL    H13   42  -0.124  -0.297   0.251
    1UNL    H14   43  -0.237  -0.172   0.201
    1UNL    H15   44  -0.054  -0.020   0.252
    1UNL    H16   45   0.068  -0.138   0.242
    1UNL    H17   46   0.246  -0.274   0.028
    1UNL    H18   47   0.484  -0.223   0.087
    1UNL    H19   48   0.117   0.254   0.044
    1UNL    H20   49   0.039   0.178  -0.200
    1UNL    H21   50   0.129   0.039  -0.185
    1UNL    H22   51  -0.027  -0.058  -0.306
    1UNL    H23   52  -0.155   0.074  -0.287
    1UNL    H24   53   0.563   0.168   0.270
    1UNL    H25   54   0.619   0.243   0.120
    1UNL    H26   55   0.006  -0.227  -0.116
   0.00000   0.00000   0.00000   0.00000   0.00000   0.00000   0.00000   0.00000   0.00000
Generated with MDTraj, t= 14.0
 55
    1UNL     C1    1  -0.096   0.473  -0.077
    1UNL     O1    2  -0.052   0.343  -0.051
    1UNL     C2    3  -0.161   0.262  -0.027
    1UNL     O2    4  -0.273   0.302  -0.045
    1UNL     C3    5  -0.141   0.125   0.032
    1UNL     O3    6  -0.176   0.134   0.173
    1UNL     C4    7  -0.231   0.014  -0.035
    1UNL     C5    8  -0.159  -0.088  -0.126
    1UNL     C6    9  -0.258  -0.179  -0.193
    1UNL     C7   10  -0.335  -0.262  -0.092
    1UNL     C8   11  -0.244  -0.343   0.005
    1UNL     N1   12  -0.115  -0.263   0.036
    1UNL     C9   13  -0.136  -0.210   0.174
    1UNL    C10   14  -0.015  -0.107   0.188
    1UNL    C11   15   0.035  -0.067   0.049
    1UNL    C12   16   0.186  -0.070   0.052
    1UNL    C13   17   0.279  -0.171   0.048
    1UNL    C14   18   0.411  -0.143   0.081
    1UNL    C15   19   0.459  -0.014   0.106
    1UNL    C16   20   0.362   0.086   0.113
    1UNL    C17   21   0.228   0.059   0.082
    1UNL     N2   22   0.113   0.146   0.068
    1UNL    C18   23   0.004   0.077   0.001
    1UNL    C19   24   0.030   0.085  -0.155
    1UNL    C20   25  -0.075  -0.004  -0.231
    1UNL     O4   26   0.423   0.204   0.150
    1UNL    C21   27   0.564   0.172   0.134
    1UNL     O5   28   0.587   0.036   0.118
    1UNL    C22   29  -0.048  -0.168  -0.051
    1UNL     H1   30  -0.126   0.527   0.018
    1UNL     H2   31  -0.008   0.525  -0.111
    1UNL     H3   32  -0.183   0.483  -0.145
    1UNL     H4   33  -0.187   0.225   0.189
    1UNL     H5   34  -0.309   0.053  -0.108
    1UNL     H6   35  -0.276  -0.039   0.053
    1UNL     H7   36  -0.341  -0.124  -0.246
    1UNL     H8   37  -0.202  -0.246  -0.256
    1UNL     H9   38  -0.393  -0.200  -0.020
    1UNL    H10   39  -0.395  -0.335  -0.153
    1UNL    H11   40  -0.202  -0.428  -0.044
    1UNL    H12   41  -0.283  -0.383   0.095
    1UNL    H13   42  -0.117  -0.285   0.254
    1UNL    H14   43  -0.239  -0.172   0.183
    1UNL    H15   44  -0.056  -0.016   0.230
    1UNL    H16   45   0.057  -0.144   0.249
    1UNL    H17   46   0.248  -0.278   0.043
    1UNL    H18   47   0.483  -0.224   0.071
    1UNL    H19   48   0.121   0.249   0.050
    1UNL    H20   49   0.022   0.185  -0.188
    1UNL    H21   50   0.130   0.057  -0.188
    1UNL    H22   51  -0.021  -0.078  -0.299
    1UNL    H23   52  -0.142   0.057  -0.293
    1UNL    H24   53   0.624   0.208   0.217
    1UNL    H25   54   0.602   0.224   0.043
    1UNL    H26   55   0.016  -0.221  -0.126
   0.00000   0.00000   0.00000   0.00000   0.00000   0.00000   0.00000   0.00000   0.00000
Generated with MDTraj, t= 15.0
 55
    1UNL     C1    1  -0.082   0.471  -0.072
    1UNL     O1    2  -0.051   0.348  -0.008
    1UNL     C2    3  -0.157   0.262  -0.026
    1UNL     O2    4  -0.267   0.299  -0.067
    1UNL     C3    5  -0.141   0.121   0.028
    1UNL     O3    6  -0.189   0.130   0.168
    1UNL     C4    7  -0.237   0.013  -0.043
    1UNL     C5    8  -0.157  -0.085  -0.131
    1UNL     C6    9  -0.242  -0.187  -0.210
    1UNL     C7   10  -0.317  -0.284  -0.114
    1UNL     C8   11  -0.222  -0.349  -0.013
    1UNL     N1   12  -0.145  -0.234   0.059
    1UNL     C9   13  -0.111  -0.224   0.201
    1UNL    C10   14  -0.031  -0.096   0.206
    1UNL    C11   15   0.025  -0.063   0.064
    1UNL    C12   16   0.180  -0.067   0.060
    1UNL    C13   17   0.262  -0.176   0.047
    1UNL    C14   18   0.400  -0.150   0.064
    1UNL    C15   19   0.447  -0.021   0.090
    1UNL    C16   20   0.365   0.086   0.083
    1UNL    C17   21   0.227   0.065   0.080
    1UNL     N2   22   0.112   0.156   0.083
    1UNL    C18   23   0.007   0.083   0.015
    1UNL    C19   24   0.034   0.086  -0.141
    1UNL    C20   25  -0.060  -0.001  -0.226
    1UNL     O4   26   0.428   0.210   0.104
    1UNL    C21   27   0.561   0.167   0.142
    1UNL     O5   28   0.579   0.030   0.113
    1UNL    C22   29  -0.063  -0.158  -0.025
    1UNL     H1   30  -0.188   0.496  -0.041
    1UNL     H2   31  -0.023   0.548  -0.028
    1UNL     H3   32  -0.086   0.470  -0.183
    1UNL     H4   33  -0.207   0.221   0.181
    1UNL     H5   34  -0.315   0.066  -0.100
    1UNL     H6   35  -0.288  -0.048   0.039
    1UNL     H7   36  -0.313  -0.130  -0.269
    1UNL     H8   37  -0.178  -0.251  -0.270
    1UNL     H9   38  -0.389  -0.221  -0.057
    1UNL    H10   39  -0.363  -0.373  -0.164
    1UNL    H11   40  -0.149  -0.409  -0.067
    1UNL    H12   41  -0.263  -0.412   0.062
    1UNL    H13   42  -0.059  -0.318   0.229
    1UNL    H14   43  -0.195  -0.207   0.267
    1UNL    H15   44  -0.089  -0.017   0.243
    1UNL    H16   45   0.048  -0.109   0.276
    1UNL    H17   46   0.224  -0.272   0.049
    1UNL    H18   47   0.468  -0.232   0.060
    1UNL    H19   48   0.128   0.246   0.034
    1UNL    H20   49   0.033   0.181  -0.190
    1UNL    H21   50   0.139   0.061  -0.157
    1UNL    H22   51  -0.002  -0.082  -0.290
    1UNL    H23   52  -0.108   0.060  -0.296
    1UNL    H24   53   0.577   0.198   0.244
    1UNL    H25   54   0.646   0.209   0.078
    1UNL    H26   55   0.013  -0.224  -0.073
   0.00000   0.00000   0.00000   0.00000   0.00000   0.00000   0.00000   0.00000   0.00000
Generated with MDTraj, t= 16.0
 55
    1UNL     C1    1  -0.092   0.486  -0.063
    1UNL     O1    2  -0.074   0.365   0.012
    1UNL     C2    3  -0.162   0.269  -0.034
    1UNL     O2    4  -0.256   0.293  -0.113
    1UNL     C3    5  -0.144   0.131   0.028
    1UNL     O3    6  -0.184   0.142   0.162
    1UNL     C4    7  -0.230   0.013  -0.043
    1UNL     C5    8  -0.142  -0.087  -0.132
    1UNL     C6    9  -0.229  -0.194  -0.203
    1UNL     C7   10  -0.323  -0.276  -0.109
    1UNL     C8   11  -0.235  -0.351  -0.011
    1UNL     N1   12  -0.133  -0.252   0.051
    1UNL     C9   13  -0.083  -0.246   0.194
    1UNL    C10   14  -0.032  -0.099   0.204
    1UNL    C11   15   0.022  -0.059   0.068
    1UNL    C12   16   0.169  -0.069   0.080
    1UNL    C13   17   0.256  -0.178   0.066
    1UNL    C14   18   0.394  -0.158   0.078
    1UNL    C15   19   0.439  -0.026   0.088
    1UNL    C16   20   0.358   0.086   0.111
    1UNL    C17   21   0.218   0.064   0.100
    1UNL     N2   22   0.107   0.160   0.093
    1UNL    C18   23   0.004   0.088   0.012
    1UNL    C19   24   0.040   0.095  -0.139
    1UNL    C20   25  -0.054   0.006  -0.223
    1UNL     O4   26   0.428   0.201   0.127
    1UNL    C21   27   0.564   0.166   0.091
    1UNL     O5   28   0.574   0.021   0.085
    1UNL    C22   29  -0.050  -0.160  -0.028
    1UNL     H1   30  -0.196   0.513  -0.035
    1UNL     H2   31  -0.026   0.556  -0.023
    1UNL     H3   32  -0.090   0.477  -0.172
    1UNL     H4   33  -0.153   0.231   0.190
    1UNL     H5   34  -0.307   0.066  -0.102
    1UNL     H6   35  -0.285  -0.050   0.032
    1UNL     H7   36  -0.293  -0.149  -0.272
    1UNL     H8   37  -0.155  -0.252  -0.262
    1UNL     H9   38  -0.393  -0.220  -0.043
    1UNL    H10   39  -0.379  -0.348  -0.173
    1UNL    H11   40  -0.186  -0.434  -0.063
    1UNL    H12   41  -0.288  -0.389   0.073
    1UNL    H13   42  -0.003  -0.319   0.210
    1UNL    H14   43  -0.151  -0.264   0.274
    1UNL    H15   44  -0.102  -0.026   0.231
    1UNL    H16   45   0.044  -0.081   0.283
    1UNL    H17   46   0.219  -0.282   0.050
    1UNL    H18   47   0.459  -0.241   0.057
    1UNL    H19   48   0.114   0.252   0.050
    1UNL    H20   49   0.047   0.198  -0.171
    1UNL    H21   50   0.140   0.063  -0.157
    1UNL    H22   51   0.008  -0.046  -0.306
    1UNL    H23   52  -0.127   0.063  -0.270
    1UNL    H24   53   0.631   0.198   0.170
    1UNL    H25   54   0.593   0.218  -0.008
    1UNL    H26   55   0.019  -0.232  -0.078
   0.00000   0.00000   0.00000   0.00000   0.00000   0.00000   0.00000   0.00000   0.00000
Generated with MDTraj, t= 17.0
 55
    1UNL     C1    1  -0.130   0.487  -0.049
    1UNL     O1    2  -0.096   0.368   0.012
    1UNL     C2    3  -0.155   0.267  -0.046
    1UNL     O2    4  -0.213   0.263  -0.155
    1UNL     C3    5  -0.133   0.139   0.034
    1UNL     O3    6  -0.167   0.172   0.169
    1UNL     C4    7  -0.224   0.022  -0.021
    1UNL     C5    8  -0.146  -0.075  -0.118
    1UNL     C6    9  -0.254  -0.168  -0.185
    1UNL     C7   10  -0.321  -0.276  -0.100
    1UNL     C8   11  -0.219  -0.368  -0.035
    1UNL     N1   12  -0.120  -0.271   0.038
    1UNL     C9   13  -0.148  -0.232   0.177
    1UNL    C10   14  -0.048  -0.110   0.202
    1UNL    C11   15   0.025  -0.072   0.065
    1UNL    C12   16   0.179  -0.076   0.092
    1UNL    C13   17   0.267  -0.183   0.088
    1UNL    C14   18   0.405  -0.152   0.073
    1UNL    C15   19   0.453  -0.022   0.086
    1UNL    C16   20   0.354   0.085   0.099
    1UNL    C17   21   0.217   0.058   0.110
    1UNL     N2   22   0.116   0.148   0.102
    1UNL    C18   23   0.011   0.083   0.022
    1UNL    C19   24   0.048   0.088  -0.128
    1UNL    C20   25  -0.065   0.010  -0.212
    1UNL     O4   26   0.426   0.208   0.099
    1UNL    C21   27   0.562   0.168   0.098
    1UNL     O5   28   0.581   0.025   0.080
    1UNL    C22   29  -0.049  -0.169  -0.038
    1UNL     H1   30  -0.237   0.503  -0.019
    1UNL     H2   31  -0.063   0.556  -0.008
    1UNL     H3   32  -0.128   0.485  -0.158
    1UNL     H4   33  -0.104   0.251   0.192
    1UNL     H5   34  -0.310   0.069  -0.073
    1UNL     H6   35  -0.272  -0.029   0.064
    1UNL     H7   36  -0.316  -0.102  -0.233
    1UNL     H8   37  -0.206  -0.215  -0.273
    1UNL     H9   38  -0.367  -0.220  -0.017
    1UNL    H10   39  -0.409  -0.330  -0.145
    1UNL    H11   40  -0.158  -0.415  -0.114
    1UNL    H12   41  -0.256  -0.447   0.028
    1UNL    H13   42  -0.117  -0.311   0.244
    1UNL    H14   43  -0.252  -0.216   0.191
    1UNL    H15   44  -0.104  -0.020   0.241
    1UNL    H16   45   0.032  -0.116   0.281
    1UNL    H17   46   0.229  -0.280   0.069
    1UNL    H18   47   0.486  -0.225   0.077
    1UNL    H19   48   0.143   0.241   0.069
    1UNL    H20   49   0.054   0.191  -0.164
    1UNL    H21   50   0.144   0.054  -0.145
    1UNL    H22   51  -0.032  -0.055  -0.289
    1UNL    H23   52  -0.130   0.085  -0.254
    1UNL    H24   53   0.614   0.194   0.188
    1UNL    H25   54   0.602   0.222   0.003
    1UNL    H26   55   0.031  -0.222  -0.097
   0.00000   0.00000   0.00000   0.00000   0.00000   0.00000   0.00000   0.00000   0.00000
Generated with MDTraj, t= 18.0
 55
    1UNL     C1    1  -0.143   0.490  -0.057
    1UNL     O1    2  -0.141   0.380   0.037
    1UNL     C2    3  -0.157   0.264  -0.036
    1UNL     O2    4  -0.174   0.261  -0.158
    1UNL     C3    5  -0.138   0.133   0.039
    1UNL     O3    6  -0.163   0.153   0.175
    1UNL     C4    7  -0.232   0.024  -0.020
    1UNL     C5    8  -0.156  -0.069  -0.121
    1UNL     C6    9  -0.266  -0.174  -0.187
    1UNL     C7   10  -0.317  -0.288  -0.095
    1UNL     C8   11  -0.208  -0.364  -0.022
    1UNL     N1   12  -0.114  -0.265   0.045
    1UNL     C9   13  -0.126  -0.220   0.183
    1UNL    C10   14  -0.041  -0.093   0.201
    1UNL    C11   15   0.025  -0.066   0.062
    1UNL    C12   16   0.176  -0.074   0.080
    1UNL    C13   17   0.261  -0.185   0.078
    1UNL    C14   18   0.396  -0.162   0.081
    1UNL    C15   19   0.449  -0.028   0.087
    1UNL    C16   20   0.360   0.089   0.103
    1UNL    C17   21   0.227   0.057   0.090
    1UNL     N2   22   0.127   0.150   0.081
    1UNL    C18   23   0.010   0.086   0.006
    1UNL    C19   24   0.042   0.103  -0.144
    1UNL    C20   25  -0.073   0.018  -0.219
    1UNL     O4   26   0.433   0.202   0.104
    1UNL    C21   27   0.566   0.156   0.095
    1UNL     O5   28   0.581   0.015   0.107
    1UNL    C22   29  -0.052  -0.160  -0.039
    1UNL     H1   30  -0.236   0.480  -0.122
    1UNL     H2   31  -0.135   0.580  -0.004
    1UNL     H3   32  -0.056   0.479  -0.121
    1UNL     H4   33  -0.097   0.213   0.210
    1UNL     H5   34  -0.325   0.075  -0.055
    1UNL     H6   35  -0.273  -0.039   0.057
    1UNL     H7   36  -0.332  -0.124  -0.246
    1UNL     H8   37  -0.213  -0.217  -0.275
    1UNL     H9   38  -0.400  -0.252  -0.032
    1UNL    H10   39  -0.370  -0.358  -0.163
    1UNL    H11   40  -0.146  -0.429  -0.087
    1UNL    H12   41  -0.251  -0.431   0.052
    1UNL    H13   42  -0.084  -0.301   0.239
    1UNL    H14   43  -0.229  -0.197   0.199
    1UNL    H15   44  -0.104  -0.001   0.234
    1UNL    H16   45   0.041  -0.103   0.279
    1UNL    H17   46   0.224  -0.285   0.066
    1UNL    H18   47   0.462  -0.243   0.082
    1UNL    H19   48   0.136   0.243   0.038
    1UNL    H20   49   0.044   0.207  -0.175
    1UNL    H21   50   0.135   0.064  -0.166
    1UNL    H22   51  -0.029  -0.042  -0.285
    1UNL    H23   52  -0.143   0.085  -0.269
    1UNL    H24   53   0.608   0.203   0.181
    1UNL    H25   54   0.611   0.182  -0.007
    1UNL    H26   55   0.021  -0.203  -0.110
   0.00000   0.00000   0.00000   0.00000   0.00000   0.00000   0.00000   0.00000   0.00000
Generated with MDTraj, t= 19.0
 55
    1UNL     C1    1  -0.176   0.504  -0.025
    1UNL     O1    2  -0.156   0.384   0.047
    1UNL     C2    3  -0.173   0.283  -0.041
    1UNL     O2    4  -0.206   0.283  -0.155
    1UNL     C3    5  -0.144   0.138   0.019
    1UNL     O3    6  -0.176   0.139   0.155
    1UNL     C4    7  -0.230   0.024  -0.047
    1UNL     C5    8  -0.150  -0.079  -0.131
    1UNL     C6    9  -0.259  -0.190  -0.181
    1UNL     C7   10  -0.324  -0.278  -0.068
    1UNL     C8   11  -0.213  -0.357   0.004
    1UNL     N1   12  -0.107  -0.262   0.049
    1UNL     C9   13  -0.101  -0.220   0.191
    1UNL    C10   14  -0.030  -0.086   0.198
    1UNL    C11   15   0.032  -0.059   0.053
    1UNL    C12   16   0.180  -0.065   0.061
    1UNL    C13   17   0.257  -0.186   0.076
    1UNL    C14   18   0.395  -0.167   0.077
    1UNL    C15   19   0.449  -0.037   0.096
    1UNL    C16   20   0.375   0.085   0.086
    1UNL    C17   21   0.237   0.065   0.070
    1UNL     N2   22   0.135   0.157   0.061
    1UNL    C18   23   0.010   0.087  -0.001
    1UNL    C19   24   0.033   0.092  -0.160
    1UNL    C20   25  -0.071   0.004  -0.231
    1UNL     O4   26   0.452   0.194   0.117
    1UNL    C21   27   0.584   0.140   0.131
    1UNL     O5   28   0.585  -0.004   0.123
    1UNL    C22   29  -0.046  -0.154  -0.041
    1UNL     H1   30  -0.221   0.480  -0.129
    1UNL     H2   31  -0.232   0.571   0.033
    1UNL     H3   32  -0.072   0.539  -0.032
    1UNL     H4   33  -0.125   0.208   0.197
    1UNL     H5   34  -0.301   0.076  -0.112
    1UNL     H6   35  -0.299  -0.016   0.026
    1UNL     H7   36  -0.330  -0.134  -0.232
    1UNL     H8   37  -0.223  -0.234  -0.277
    1UNL     H9   38  -0.382  -0.213  -0.003
    1UNL    H10   39  -0.402  -0.343  -0.113
    1UNL    H11   40  -0.177  -0.448  -0.046
    1UNL    H12   41  -0.253  -0.389   0.102
    1UNL    H13   42  -0.040  -0.298   0.231
    1UNL    H14   43  -0.201  -0.207   0.226
    1UNL    H15   44  -0.100  -0.006   0.227
    1UNL    H16   45   0.057  -0.090   0.278
    1UNL    H17   46   0.206  -0.285   0.089
    1UNL    H18   47   0.465  -0.251   0.089
    1UNL    H19   48   0.169   0.234  -0.001
    1UNL    H20   49   0.028   0.192  -0.202
    1UNL    H21   50   0.127   0.058  -0.190
    1UNL    H22   51  -0.023  -0.059  -0.303
    1UNL    H23   52  -0.145   0.062  -0.284
    1UNL    H24   53   0.626   0.173   0.221
    1UNL    H25   54   0.646   0.174   0.042
    1UNL    H26   55   0.030  -0.197  -0.108
   0.00000   0.00000   0.00000   0.00000   0.00000   0.00000   0.00000   0.00000   0.00000
Generated with MDTraj, t= 20.0
 55
    1UNL     C1    1  -0.212   0.496  -0.009
    1UNL     O1    2  -0.140   0.377   0.036
    1UNL     C2    3  -0.162   0.273  -0.052
    1UNL     O2    4  -0.198   0.274  -0.164
    1UNL     C3    5  -0.130   0.141   0.023
    1UNL     O3    6  -0.138   0.159   0.166
    1UNL     C4    7  -0.225   0.023  -0.022
    1UNL     C5    8  -0.155  -0.081  -0.123
    1UNL     C6    9  -0.265  -0.187  -0.176
    1UNL     C7   10  -0.322  -0.281  -0.073
    1UNL     C8   11  -0.217  -0.352   0.003
    1UNL     N1   12  -0.109  -0.262   0.054
    1UNL     C9   13  -0.126  -0.201   0.184
    1UNL    C10   14  -0.014  -0.095   0.191
    1UNL    C11   15   0.034  -0.058   0.045
    1UNL    C12   16   0.184  -0.070   0.048
    1UNL    C13   17   0.266  -0.183   0.057
    1UNL    C14   18   0.403  -0.168   0.083
    1UNL    C15   19   0.452  -0.035   0.095
    1UNL    C16   20   0.367   0.072   0.082
    1UNL    C17   21   0.234   0.061   0.050
    1UNL     N2   22   0.128   0.160   0.052
    1UNL    C18   23   0.014   0.085  -0.009
    1UNL    C19   24   0.039   0.090  -0.162
    1UNL    C20   25  -0.083   0.014  -0.226
    1UNL     O4   26   0.435   0.190   0.117
    1UNL    C21   27   0.568   0.145   0.146
    1UNL     O5   28   0.578  -0.001   0.150
    1UNL    C22   29  -0.042  -0.161  -0.048
    1UNL     H1   30  -0.319   0.467  -0.039
    1UNL     H2   31  -0.207   0.571   0.063
    1UNL     H3   32  -0.146   0.524  -0.095
    1UNL     H4   33  -0.073   0.230   0.205
    1UNL     H5   34  -0.314   0.062  -0.068
    1UNL     H6   35  -0.270  -0.024   0.065
    1UNL     H7   36  -0.335  -0.123  -0.223
    1UNL     H8   37  -0.232  -0.236  -0.270
    1UNL     H9   38  -0.376  -0.217  -0.004
    1UNL    H10   39  -0.396  -0.348  -0.120
    1UNL    H11   40  -0.162  -0.427  -0.056
    1UNL    H12   41  -0.275  -0.406   0.083
    1UNL    H13   42  -0.115  -0.273   0.260
    1UNL    H14   43  -0.224  -0.158   0.178
    1UNL    H15   44  -0.052  -0.010   0.241
    1UNL    H16   45   0.083  -0.126   0.254
    1UNL    H17   46   0.213  -0.272   0.068
    1UNL    H18   47   0.472  -0.246   0.074
    1UNL    H19   48   0.165   0.246   0.004
    1UNL    H20   49   0.047   0.191  -0.196
    1UNL    H21   50   0.133   0.046  -0.192
    1UNL    H22   51  -0.070  -0.046  -0.325
    1UNL    H23   52  -0.151   0.090  -0.248
    1UNL    H24   53   0.609   0.183   0.234
    1UNL    H25   54   0.630   0.185   0.060
    1UNL    H26   55   0.036  -0.203  -0.114
   0.00000   0.00000   0.00000   0.00000   0.00000   0.00000   0.00000   0.00000   0.00000
Generated with MDTraj, t= 21.0
 55
    1UNL     C1    1  -0.181   0.500  -0.042
    1UNL     O1    2  -0.153   0.381   0.031
    1UNL     C2    3  -0.169   0.268  -0.044
    1UNL     O2    4  -0.203   0.262  -0.158
    1UNL     C3    5  -0.133   0.136   0.028
    1UNL     O3    6  -0.148   0.153   0.166
    1UNL     C4    7  -0.232   0.024  -0.014
    1UNL     C5    8  -0.163  -0.080  -0.116
    1UNL     C6    9  -0.283  -0.162  -0.174
    1UNL     C7   10  -0.347  -0.265  -0.068
    1UNL     C8   11  -0.232  -0.352  -0.010
    1UNL     N1   12  -0.119  -0.270   0.044
    1UNL     C9   13  -0.108  -0.224   0.177
    1UNL    C10   14  -0.007  -0.102   0.185
    1UNL    C11   15   0.038  -0.070   0.042
    1UNL    C12   16   0.195  -0.070   0.048
    1UNL    C13   17   0.276  -0.180   0.067
    1UNL    C14   18   0.410  -0.161   0.084
    1UNL    C15   19   0.462  -0.033   0.108
    1UNL    C16   20   0.380   0.080   0.092
    1UNL    C17   21   0.244   0.063   0.063
    1UNL     N2   22   0.132   0.155   0.049
    1UNL    C18   23   0.018   0.082  -0.011
    1UNL    C19   24   0.021   0.094  -0.161
    1UNL    C20   25  -0.088   0.004  -0.230
    1UNL     O4   26   0.442   0.193   0.134
    1UNL    C21   27   0.574   0.155   0.151
    1UNL     O5   28   0.593   0.014   0.135
    1UNL    C22   29  -0.049  -0.163  -0.047
    1UNL     H1   30  -0.290   0.523  -0.017
    1UNL     H2   31  -0.111   0.572  -0.013
    1UNL     H3   32  -0.163   0.477  -0.149
    1UNL     H4   33  -0.102   0.226   0.199
    1UNL     H5   34  -0.330   0.057  -0.042
    1UNL     H6   35  -0.252  -0.031   0.078
    1UNL     H7   36  -0.357  -0.091  -0.214
    1UNL     H8   37  -0.253  -0.202  -0.271
    1UNL     H9   38  -0.398  -0.211   0.010
    1UNL    H10   39  -0.418  -0.326  -0.127
    1UNL    H11   40  -0.199  -0.420  -0.091
    1UNL    H12   41  -0.272  -0.416   0.075
    1UNL    H13   42  -0.064  -0.307   0.223
    1UNL    H14   43  -0.208  -0.212   0.213
    1UNL    H15   44  -0.043  -0.004   0.229
    1UNL    H16   45   0.082  -0.114   0.253
    1UNL    H17   46   0.244  -0.287   0.068
    1UNL    H18   47   0.474  -0.252   0.084
    1UNL    H19   48   0.154   0.248   0.011
    1UNL    H20   49   0.017   0.195  -0.193
    1UNL    H21   50   0.120   0.061  -0.195
    1UNL    H22   51  -0.042  -0.064  -0.316
    1UNL    H23   52  -0.163   0.060  -0.277
    1UNL    H24   53   0.600   0.180   0.248
    1UNL    H25   54   0.647   0.210   0.082
    1UNL    H26   55   0.013  -0.208  -0.127
   0.00000   0.00000   0.00000   0.00000   0.00000   0.00000   0.00000   0.00000   0.00000
Generated with MDTraj, t= 22.0
 55
    1UNL     C1    1  -0.143   0.493  -0.059
    1UNL     O1    2  -0.105   0.384   0.019
    1UNL     C2    3  -0.162   0.272  -0.033
    1UNL     O2    4  -0.215   0.268  -0.142
    1UNL     C3    5  -0.129   0.134   0.033
    1UNL     O3    6  -0.152   0.149   0.179
    1UNL     C4    7  -0.227   0.018  -0.016
    1UNL     C5    8  -0.160  -0.080  -0.118
    1UNL     C6    9  -0.264  -0.173  -0.184
    1UNL     C7   10  -0.328  -0.281  -0.081
    1UNL     C8   11  -0.213  -0.357  -0.017
    1UNL     N1   12  -0.109  -0.266   0.043
    1UNL     C9   13  -0.090  -0.229   0.187
    1UNL    C10   14  -0.033  -0.090   0.193
    1UNL    C11   15   0.025  -0.062   0.049
    1UNL    C12   16   0.177  -0.073   0.058
    1UNL    C13   17   0.259  -0.183   0.048
    1UNL    C14   18   0.398  -0.157   0.070
    1UNL    C15   19   0.449  -0.031   0.090
    1UNL    C16   20   0.360   0.081   0.105
    1UNL    C17   21   0.224   0.055   0.090
    1UNL     N2   22   0.130   0.157   0.072
    1UNL    C18   23   0.015   0.091  -0.000
    1UNL    C19   24   0.021   0.098  -0.156
    1UNL    C20   25  -0.088   0.007  -0.224
    1UNL     O4   26   0.427   0.198   0.107
    1UNL    C21   27   0.559   0.154   0.138
    1UNL     O5   28   0.573   0.014   0.129
    1UNL    C22   29  -0.047  -0.158  -0.042
    1UNL     H1   30  -0.248   0.464  -0.087
    1UNL     H2   31  -0.140   0.579   0.001
    1UNL     H3   32  -0.075   0.507  -0.143
    1UNL     H4   33  -0.089   0.212   0.230
    1UNL     H5   34  -0.313   0.052  -0.068
    1UNL     H6   35  -0.266  -0.032   0.073
    1UNL     H7   36  -0.341  -0.112  -0.240
    1UNL     H8   37  -0.220  -0.224  -0.268
    1UNL     H9   38  -0.389  -0.226  -0.011
    1UNL    H10   39  -0.383  -0.355  -0.141
    1UNL    H11   40  -0.162  -0.424  -0.088
    1UNL    H12   41  -0.268  -0.423   0.059
    1UNL    H13   42  -0.028  -0.303   0.222
    1UNL    H14   43  -0.182  -0.230   0.242
    1UNL    H15   44  -0.110  -0.010   0.223
    1UNL    H16   45   0.040  -0.077   0.268
    1UNL    H17   46   0.219  -0.278   0.028
    1UNL    H18   47   0.467  -0.237   0.077
    1UNL    H19   48   0.154   0.249   0.036
    1UNL    H20   49   0.005   0.193  -0.195
    1UNL    H21   50   0.124   0.069  -0.185
    1UNL    H22   51  -0.026  -0.064  -0.289
    1UNL    H23   52  -0.165   0.053  -0.290
    1UNL    H24   53   0.592   0.194   0.229
    1UNL    H25   54   0.638   0.186   0.059
    1UNL    H26   55   0.029  -0.194  -0.113
   0.00000   0.00000   0.00000   0.00000   0.00000   0.00000   0.00000   0.00000   0.00000
Generated with MDTraj, t= 23.0
 55
    1UNL     C1    1  -0.093   0.493  -0.057
    1UNL     O1    2  -0.077   0.364   0.008
    1UNL     C2    3  -0.163   0.269  -0.039
    1UNL     O2    4  -0.250   0.294  -0.123
    1UNL     C3    5  -0.148   0.131   0.029
    1UNL     O3    6  -0.184   0.155   0.168
    1UNL     C4    7  -0.235   0.006  -0.017
    1UNL     C5    8  -0.159  -0.086  -0.119
    1UNL     C6    9  -0.252  -0.185  -0.185
    1UNL     C7   10  -0.312  -0.290  -0.089
    1UNL     C8   11  -0.200  -0.363  -0.027
    1UNL     N1   12  -0.098  -0.268   0.037
    1UNL     C9   13  -0.116  -0.226   0.177
    1UNL    C10   14  -0.041  -0.095   0.197
    1UNL    C11   15   0.025  -0.059   0.063
    1UNL    C12   16   0.174  -0.068   0.086
    1UNL    C13   17   0.258  -0.177   0.079
    1UNL    C14   18   0.396  -0.155   0.077
    1UNL    C15   19   0.447  -0.028   0.098
    1UNL    C16   20   0.359   0.085   0.107
    1UNL    C17   21   0.219   0.067   0.106
    1UNL     N2   22   0.117   0.158   0.079
    1UNL    C18   23   0.002   0.088   0.006
    1UNL    C19   24   0.026   0.090  -0.143
    1UNL    C20   25  -0.087   0.015  -0.219
    1UNL     O4   26   0.436   0.202   0.115
    1UNL    C21   27   0.576   0.155   0.111
    1UNL     O5   28   0.577   0.016   0.084
    1UNL    C22   29  -0.046  -0.160  -0.049
    1UNL     H1   30  -0.200   0.501  -0.081
    1UNL     H2   31  -0.064   0.573   0.006
    1UNL     H3   32  -0.031   0.503  -0.145
    1UNL     H4   33  -0.156   0.246   0.195
    1UNL     H5   34  -0.320   0.035  -0.073
    1UNL     H6   35  -0.271  -0.049   0.068
    1UNL     H7   36  -0.326  -0.137  -0.261
    1UNL     H8   37  -0.194  -0.242  -0.254
    1UNL     H9   38  -0.350  -0.233  -0.006
    1UNL    H10   39  -0.390  -0.346  -0.142
    1UNL    H11   40  -0.156  -0.427  -0.107
    1UNL    H12   41  -0.238  -0.437   0.053
    1UNL    H13   42  -0.073  -0.289   0.247
    1UNL    H14   43  -0.221  -0.213   0.194
    1UNL    H15   44  -0.119  -0.019   0.211
    1UNL    H16   45   0.022  -0.096   0.279
    1UNL    H17   46   0.216  -0.267   0.031
    1UNL    H18   47   0.475  -0.229   0.063
    1UNL    H19   48   0.132   0.246   0.035
    1UNL    H20   49   0.041   0.191  -0.168
    1UNL    H21   50   0.120   0.035  -0.163
    1UNL    H22   51  -0.055  -0.040  -0.309
    1UNL    H23   52  -0.165   0.099  -0.249
    1UNL    H24   53   0.626   0.162   0.203
    1UNL    H25   54   0.645   0.218   0.040
    1UNL    H26   55   0.021  -0.190  -0.130
   0.00000   0.00000   0.00000   0.00000   0.00000   0.00000   0.00000   0.00000   0.00000
Generated with MDTraj, t= 24.0
 55
    1UNL     C1    1  -0.079   0.480  -0.080
    1UNL     O1    2  -0.066   0.364   0.000
    1UNL     C2    3  -0.158   0.270  -0.029
    1UNL     O2    4  -0.255   0.294  -0.103
    1UNL     C3    5  -0.142   0.132   0.040
    1UNL     O3    6  -0.173   0.151   0.184
    1UNL     C4    7  -0.231   0.018  -0.016
    1UNL     C5    8  -0.154  -0.085  -0.118
    1UNL     C6    9  -0.242  -0.173  -0.206
    1UNL     C7   10  -0.310  -0.281  -0.119
    1UNL     C8   11  -0.205  -0.360  -0.043
    1UNL     N1   12  -0.120  -0.273   0.044
    1UNL     C9   13  -0.145  -0.223   0.188
    1UNL    C10   14  -0.032  -0.109   0.211
    1UNL    C11   15   0.024  -0.071   0.067
    1UNL    C12   16   0.173  -0.073   0.080
    1UNL    C13   17   0.268  -0.178   0.071
    1UNL    C14   18   0.400  -0.155   0.088
    1UNL    C15   19   0.442  -0.022   0.090
    1UNL    C16   20   0.352   0.089   0.098
    1UNL    C17   21   0.214   0.066   0.100
    1UNL     N2   22   0.105   0.155   0.095
    1UNL    C18   23   0.005   0.081   0.023
    1UNL    C19   24   0.042   0.083  -0.135
    1UNL    C20   25  -0.065   0.003  -0.214
    1UNL     O4   26   0.421   0.208   0.087
    1UNL    C21   27   0.561   0.174   0.090
    1UNL     O5   28   0.569   0.029   0.097
    1UNL    C22   29  -0.052  -0.170  -0.028
    1UNL     H1   30  -0.136   0.557  -0.026
    1UNL     H2   31   0.021   0.517  -0.098
    1UNL     H3   32  -0.123   0.469  -0.180
    1UNL     H4   33  -0.135   0.233   0.210
    1UNL     H5   34  -0.315   0.056  -0.068
    1UNL     H6   35  -0.264  -0.039   0.067
    1UNL     H7   36  -0.323  -0.112  -0.266
    1UNL     H8   37  -0.183  -0.209  -0.288
    1UNL     H9   38  -0.384  -0.231  -0.059
    1UNL    H10   39  -0.361  -0.353  -0.186
    1UNL    H11   40  -0.136  -0.415  -0.111
    1UNL    H12   41  -0.249  -0.449   0.014
    1UNL    H13   42  -0.135  -0.296   0.262
    1UNL    H14   43  -0.244  -0.185   0.207
    1UNL    H15   44  -0.076  -0.031   0.257
    1UNL    H16   45   0.051  -0.142   0.266
    1UNL    H17   46   0.236  -0.279   0.050
    1UNL    H18   47   0.472  -0.236   0.078
    1UNL    H19   48   0.115   0.245   0.047
    1UNL    H20   49   0.049   0.186  -0.160
    1UNL    H21   50   0.142   0.042  -0.155
    1UNL    H22   51  -0.011  -0.059  -0.284
    1UNL    H23   52  -0.137   0.075  -0.278
    1UNL    H24   53   0.618   0.220   0.169
    1UNL    H25   54   0.610   0.206  -0.011
    1UNL    H26   55   0.021  -0.216  -0.094
   0.00000   0.00000   0.00000   0.00000   0.00000   0.00000   0.00000   0.00000   0.00000
Generated with MDTraj, t= 25.0
 55
    1UNL     C1    1  -0.079   0.466  -0.067
    1UNL     O1    2  -0.048   0.339  -0.022
    1UNL     C2    3  -0.159   0.256  -0.029
    1UNL     O2    4  -0.266   0.285  -0.085
    1UNL     C3    5  -0.141   0.121   0.038
    1UNL     O3    6  -0.182   0.146   0.174
    1UNL     C4    7  -0.227   0.013  -0.028
    1UNL     C5    8  -0.144  -0.087  -0.122
    1UNL     C6    9  -0.240  -0.173  -0.205
    1UNL     C7   10  -0.328  -0.250  -0.105
    1UNL     C8   11  -0.236  -0.345  -0.028
    1UNL     N1   12  -0.119  -0.270   0.041
    1UNL     C9   13  -0.131  -0.226   0.182
    1UNL    C10   14  -0.037  -0.098   0.202
    1UNL    C11   15   0.025  -0.074   0.060
    1UNL    C12   16   0.178  -0.069   0.074
    1UNL    C13   17   0.268  -0.178   0.082
    1UNL    C14   18   0.400  -0.147   0.087
    1UNL    C15   19   0.444  -0.013   0.095
    1UNL    C16   20   0.354   0.091   0.106
    1UNL    C17   21   0.220   0.059   0.106
    1UNL     N2   22   0.106   0.151   0.091
    1UNL    C18   23   0.004   0.074   0.018
    1UNL    C19   24   0.037   0.085  -0.144
    1UNL    C20   25  -0.064   0.006  -0.221
    1UNL     O4   26   0.428   0.212   0.118
    1UNL    C21   27   0.560   0.182   0.095
    1UNL     O5   28   0.575   0.040   0.076
    1UNL    C22   29  -0.044  -0.173  -0.033
    1UNL     H1   30  -0.136   0.520   0.009
    1UNL     H2   31   0.019   0.517  -0.073
    1UNL     H3   32  -0.130   0.482  -0.165
    1UNL     H4   33  -0.145   0.228   0.194
    1UNL     H5   34  -0.310   0.048  -0.083
    1UNL     H6   35  -0.257  -0.051   0.052
    1UNL     H7   36  -0.291  -0.101  -0.283
    1UNL     H8   37  -0.186  -0.236  -0.272
    1UNL     H9   38  -0.374  -0.181  -0.037
    1UNL    H10   39  -0.411  -0.297  -0.161
    1UNL    H11   40  -0.191  -0.415  -0.102
    1UNL    H12   41  -0.284  -0.424   0.041
    1UNL    H13   42  -0.101  -0.309   0.239
    1UNL    H14   43  -0.229  -0.199   0.220
    1UNL    H15   44  -0.082  -0.009   0.249
    1UNL    H16   45   0.041  -0.133   0.259
    1UNL    H17   46   0.229  -0.278   0.091
    1UNL    H18   47   0.473  -0.224   0.080
    1UNL    H19   48   0.110   0.247   0.050
    1UNL    H20   49   0.034   0.187  -0.177
    1UNL    H21   50   0.141   0.055  -0.150
    1UNL    H22   51  -0.016  -0.051  -0.302
    1UNL    H23   52  -0.136   0.075  -0.272
    1UNL    H24   53   0.613   0.213   0.182
    1UNL    H25   54   0.602   0.230  -0.002
    1UNL    H26   55   0.029  -0.228  -0.092
   0.00000   0.00000   0.00000   0.00000   0.00000   0.00000   0.00000   0.00000   0.00000
Generated with MDTraj, t= 26.0
 55
    1UNL     C1    1  -0.096   0.483  -0.090
    1UNL     O1    2  -0.054   0.370  -0.017
    1UNL     C2    3  -0.153   0.272  -0.024
    1UNL     O2    4  -0.261   0.293  -0.072
    1UNL     C3    5  -0.141   0.130   0.036
    1UNL     O3    6  -0.171   0.146   0.170
    1UNL     C4    7  -0.234   0.023  -0.029
    1UNL     C5    8  -0.161  -0.089  -0.121
    1UNL     C6    9  -0.256  -0.189  -0.194
    1UNL     C7   10  -0.313  -0.289  -0.104
    1UNL     C8   11  -0.219  -0.367  -0.016
    1UNL     N1   12  -0.114  -0.270   0.053
    1UNL     C9   13  -0.149  -0.203   0.183
    1UNL    C10   14  -0.038  -0.100   0.195
    1UNL    C11   15   0.025  -0.072   0.062
    1UNL    C12   16   0.180  -0.076   0.070
    1UNL    C13   17   0.276  -0.171   0.039
    1UNL    C14   18   0.416  -0.148   0.063
    1UNL    C15   19   0.453  -0.017   0.091
    1UNL    C16   20   0.358   0.088   0.098
    1UNL    C17   21   0.225   0.054   0.091
    1UNL     N2   22   0.114   0.141   0.083
    1UNL    C18   23   0.006   0.079   0.014
    1UNL    C19   24   0.029   0.087  -0.144
    1UNL    C20   25  -0.076   0.002  -0.219
    1UNL     O4   26   0.426   0.213   0.122
    1UNL    C21   27   0.559   0.169   0.130
    1UNL     O5   28   0.578   0.029   0.110
    1UNL    C22   29  -0.053  -0.168  -0.036
    1UNL     H1   30  -0.203   0.501  -0.084
    1UNL     H2   31  -0.042   0.573  -0.047
    1UNL     H3   32  -0.070   0.481  -0.198
    1UNL     H4   33  -0.123   0.226   0.194
    1UNL     H5   34  -0.300   0.079  -0.088
    1UNL     H6   35  -0.292  -0.033   0.041
    1UNL     H7   36  -0.333  -0.137  -0.261
    1UNL     H8   37  -0.190  -0.232  -0.268
    1UNL     H9   38  -0.380  -0.234  -0.040
    1UNL    H10   39  -0.374  -0.359  -0.164
    1UNL    H11   40  -0.168  -0.446  -0.077
    1UNL    H12   41  -0.278  -0.431   0.058
    1UNL    H13   42  -0.161  -0.265   0.270
    1UNL    H14   43  -0.247  -0.159   0.180
    1UNL    H15   44  -0.074   0.003   0.229
    1UNL    H16   45   0.031  -0.129   0.266
    1UNL    H17   46   0.251  -0.273   0.006
    1UNL    H18   47   0.492  -0.223   0.035
    1UNL    H19   48   0.150   0.236   0.060
    1UNL    H20   49   0.024   0.194  -0.164
    1UNL    H21   50   0.127   0.053  -0.166
    1UNL    H22   51  -0.033  -0.054  -0.306
    1UNL    H23   52  -0.135   0.073  -0.259
    1UNL    H24   53   0.597   0.179   0.229
    1UNL    H25   54   0.622   0.223   0.051
    1UNL    H26   55   0.008  -0.224  -0.107
   0.00000   0.00000   0.00000   0.00000   0.00000   0.00000   0.00000   0.00000   0.00000
Generated with MDTraj, t= 27.0
 55
    1UNL     C1    1  -0.091   0.469  -0.071
    1UNL     O1    2  -0.066   0.349  -0.009
    1UNL     C2    3  -0.171   0.262  -0.038
    1UNL     O2    4  -0.267   0.278  -0.104
    1UNL     C3    5  -0.149   0.127   0.028
    1UNL     O3    6  -0.168   0.140   0.169
    1UNL     C4    7  -0.238   0.014  -0.029
    1UNL     C5    8  -0.160  -0.079  -0.126
    1UNL     C6    9  -0.258  -0.178  -0.180
    1UNL     C7   10  -0.322  -0.274  -0.075
    1UNL     C8   11  -0.209  -0.347  -0.004
    1UNL     N1   12  -0.093  -0.261   0.044
    1UNL     C9   13  -0.097  -0.224   0.189
    1UNL    C10   14  -0.022  -0.093   0.192
    1UNL    C11   15   0.028  -0.061   0.045
    1UNL    C12   16   0.181  -0.059   0.046
    1UNL    C13   17   0.260  -0.165   0.049
    1UNL    C14   18   0.396  -0.151   0.072
    1UNL    C15   19   0.442  -0.022   0.097
    1UNL    C16   20   0.361   0.094   0.105
    1UNL    C17   21   0.222   0.072   0.077
    1UNL     N2   22   0.110   0.156   0.071
    1UNL    C18   23  -0.006   0.085  -0.002
    1UNL    C19   24   0.019   0.099  -0.160
    1UNL    C20   25  -0.091   0.015  -0.227
    1UNL     O4   26   0.439   0.205   0.139
    1UNL    C21   27   0.570   0.146   0.157
    1UNL     O5   28   0.577   0.009   0.117
    1UNL    C22   29  -0.050  -0.162  -0.044
    1UNL     H1   30  -0.166   0.528  -0.023
    1UNL     H2   31   0.008   0.526  -0.077
    1UNL     H3   32  -0.124   0.453  -0.175
    1UNL     H4   33  -0.106   0.216   0.200
    1UNL     H5   34  -0.314   0.063  -0.082
    1UNL     H6   35  -0.288  -0.042   0.049
    1UNL     H7   36  -0.339  -0.110  -0.222
    1UNL     H8   37  -0.216  -0.224  -0.270
    1UNL     H9   38  -0.379  -0.222   0.000
    1UNL    H10   39  -0.385  -0.345  -0.132
    1UNL    H11   40  -0.170  -0.428  -0.073
    1UNL    H12   41  -0.247  -0.400   0.087
    1UNL    H13   42  -0.058  -0.301   0.257
    1UNL    H14   43  -0.202  -0.228   0.215
    1UNL    H15   44  -0.082  -0.017   0.249
    1UNL    H16   45   0.071  -0.103   0.249
    1UNL    H17   46   0.217  -0.259   0.041
    1UNL    H18   47   0.461  -0.233   0.070
    1UNL    H19   48   0.123   0.254   0.043
    1UNL    H20   49   0.006   0.203  -0.194
    1UNL    H21   50   0.118   0.067  -0.176
    1UNL    H22   51  -0.035  -0.054  -0.294
    1UNL    H23   52  -0.155   0.075  -0.279
    1UNL    H24   53   0.609   0.153   0.255
    1UNL    H25   54   0.636   0.197   0.079
    1UNL    H26   55   0.014  -0.216  -0.113
   0.00000   0.00000   0.00000   0.00000   0.00000   0.00000   0.00000   0.00000   0.00000
Generated with MDTraj, t= 28.0
 55
    1UNL     C1    1  -0.136   0.494  -0.068
    1UNL     O1    2  -0.093   0.376  -0.005
    1UNL     C2    3  -0.172   0.271  -0.048
    1UNL     O2    4  -0.259   0.271  -0.128
    1UNL     C3    5  -0.134   0.142   0.034
    1UNL     O3    6  -0.132   0.167   0.174
    1UNL     C4    7  -0.231   0.033  -0.013
    1UNL     C5    8  -0.172  -0.069  -0.116
    1UNL     C6    9  -0.285  -0.156  -0.178
    1UNL     C7   10  -0.324  -0.277  -0.080
    1UNL     C8   11  -0.208  -0.367  -0.018
    1UNL     N1   12  -0.101  -0.276   0.037
    1UNL     C9   13  -0.083  -0.246   0.183
    1UNL    C10   14  -0.026  -0.100   0.195
    1UNL    C11   15   0.028  -0.069   0.047
    1UNL    C12   16   0.186  -0.079   0.048
    1UNL    C13   17   0.276  -0.182   0.063
    1UNL    C14   18   0.408  -0.161   0.084
    1UNL    C15   19   0.452  -0.033   0.106
    1UNL    C16   20   0.368   0.082   0.096
    1UNL    C17   21   0.231   0.054   0.065
    1UNL     N2   22   0.127   0.141   0.060
    1UNL    C18   23   0.009   0.088  -0.006
    1UNL    C19   24   0.025   0.088  -0.161
    1UNL    C20   25  -0.104   0.015  -0.226
    1UNL     O4   26   0.425   0.202   0.126
    1UNL    C21   27   0.561   0.166   0.151
    1UNL     O5   28   0.576   0.020   0.148
    1UNL    C22   29  -0.058  -0.164  -0.041
    1UNL     H1   30  -0.219   0.542  -0.027
    1UNL     H2   31  -0.046   0.565  -0.072
    1UNL     H3   32  -0.159   0.466  -0.170
    1UNL     H4   33  -0.037   0.205   0.197
    1UNL     H5   34  -0.315   0.081  -0.056
    1UNL     H6   35  -0.276  -0.018   0.071
    1UNL     H7   36  -0.374  -0.092  -0.196
    1UNL     H8   37  -0.255  -0.192  -0.279
    1UNL     H9   38  -0.386  -0.242   0.001
    1UNL    H10   39  -0.374  -0.350  -0.150
    1UNL    H11   40  -0.173  -0.431  -0.104
    1UNL    H12   41  -0.246  -0.436   0.060
    1UNL    H13   42  -0.005  -0.319   0.209
    1UNL    H14   43  -0.171  -0.273   0.241
    1UNL    H15   44  -0.100  -0.031   0.227
    1UNL    H16   45   0.061  -0.106   0.274
    1UNL    H17   46   0.236  -0.287   0.049
    1UNL    H18   47   0.473  -0.248   0.104
    1UNL    H19   48   0.138   0.241   0.040
    1UNL    H20   49   0.030   0.191  -0.198
    1UNL    H21   50   0.116   0.041  -0.178
    1UNL    H22   51  -0.071  -0.045  -0.308
    1UNL    H23   52  -0.176   0.085  -0.268
    1UNL    H24   53   0.576   0.197   0.250
    1UNL    H25   54   0.638   0.215   0.084
    1UNL    H26   55   0.014  -0.201  -0.113
   0.00000   0.00000   0.00000   0.00000   0.00000   0.00000   0.00000   0.00000   0.00000
Generated with MDTraj, t= 29.0
 55
    1UNL     C1    1  -0.154   0.485  -0.055
    1UNL     O1    2  -0.119   0.374   0.018
    1UNL     C2    3  -0.170   0.263  -0.040
    1UNL     O2    4  -0.234   0.256  -0.141
    1UNL     C3    5  -0.133   0.133   0.035
    1UNL     O3    6  -0.133   0.162   0.172
    1UNL     C4    7  -0.238   0.024  -0.008
    1UNL     C5    8  -0.170  -0.070  -0.112
    1UNL     C6    9  -0.278  -0.165  -0.170
    1UNL     C7   10  -0.323  -0.269  -0.066
    1UNL     C8   11  -0.209  -0.355  -0.012
    1UNL     N1   12  -0.088  -0.277   0.025
    1UNL     C9   13  -0.119  -0.227   0.159
    1UNL    C10   14  -0.035  -0.101   0.178
    1UNL    C11   15   0.027  -0.065   0.041
    1UNL    C12   16   0.181  -0.070   0.052
    1UNL    C13   17   0.267  -0.177   0.083
    1UNL    C14   18   0.405  -0.160   0.104
    1UNL    C15   19   0.461  -0.033   0.112
    1UNL    C16   20   0.372   0.082   0.094
    1UNL    C17   21   0.236   0.062   0.056
    1UNL     N2   22   0.126   0.155   0.044
    1UNL    C18   23   0.008   0.083  -0.013
    1UNL    C19   24   0.016   0.098  -0.165
    1UNL    C20   25  -0.105   0.014  -0.223
    1UNL     O4   26   0.452   0.197   0.120
    1UNL    C21   27   0.581   0.157   0.145
    1UNL     O5   28   0.584   0.014   0.154
    1UNL    C22   29  -0.049  -0.161  -0.056
    1UNL     H1   30  -0.253   0.484  -0.087
    1UNL     H2   31  -0.127   0.576   0.007
    1UNL     H3   32  -0.087   0.480  -0.139
    1UNL     H4   33  -0.087   0.238   0.193
    1UNL     H5   34  -0.326   0.075  -0.042
    1UNL     H6   35  -0.271  -0.034   0.076
    1UNL     H7   36  -0.365  -0.109  -0.201
    1UNL     H8   37  -0.235  -0.219  -0.260
    1UNL     H9   38  -0.361  -0.217   0.020
    1UNL    H10   39  -0.404  -0.337  -0.107
    1UNL    H11   40  -0.178  -0.423  -0.096
    1UNL    H12   41  -0.249  -0.421   0.065
    1UNL    H13   42  -0.092  -0.310   0.230
    1UNL    H14   43  -0.224  -0.203   0.172
    1UNL    H15   44  -0.097  -0.025   0.221
    1UNL    H16   45   0.053  -0.130   0.254
    1UNL    H17   46   0.226  -0.272   0.081
    1UNL    H18   47   0.470  -0.242   0.124
    1UNL    H19   48   0.152   0.241  -0.009
    1UNL    H20   49   0.013   0.208  -0.177
    1UNL    H21   50   0.110   0.067  -0.198
    1UNL    H22   51  -0.092  -0.036  -0.311
    1UNL    H23   52  -0.184   0.093  -0.248
    1UNL    H24   53   0.630   0.206   0.225
    1UNL    H25   54   0.638   0.184   0.053
    1UNL    H26   55   0.008  -0.202  -0.138
   0.00000   0.00000   0.00000   0.00000   0.00000   0.00000   0.00000   0.00000   0.00000
Generated with MDTraj, t= 30.0
 55
    1UNL     C1    1  -0.166   0.498  -0.032
    1UNL     O1    2  -0.132   0.379   0.035
    1UNL     C2    3  -0.168   0.270  -0.036
    1UNL     O2    4  -0.204   0.279  -0.153
    1UNL     C3    5  -0.138   0.135   0.029
    1UNL     O3    6  -0.161   0.143   0.171
    1UNL     C4    7  -0.239   0.026  -0.036
    1UNL     C5    8  -0.159  -0.076  -0.122
    1UNL     C6    9  -0.250  -0.184  -0.187
    1UNL     C7   10  -0.307  -0.289  -0.090
    1UNL     C8   11  -0.205  -0.354   0.001
    1UNL     N1   12  -0.102  -0.265   0.049
    1UNL     C9   13  -0.102  -0.213   0.194
    1UNL    C10   14  -0.022  -0.083   0.199
    1UNL    C11   15   0.025  -0.056   0.052
    1UNL    C12   16   0.177  -0.069   0.053
    1UNL    C13   17   0.261  -0.183   0.072
    1UNL    C14   18   0.398  -0.169   0.092
    1UNL    C15   19   0.444  -0.036   0.102
    1UNL    C16   20   0.363   0.077   0.076
    1UNL    C17   21   0.229   0.063   0.053
    1UNL     N2   22   0.128   0.164   0.052
    1UNL    C18   23   0.009   0.089  -0.004
    1UNL    C19   24   0.022   0.092  -0.156
    1UNL    C20   25  -0.076   0.003  -0.224
    1UNL     O4   26   0.442   0.192   0.103
    1UNL    C21   27   0.569   0.142   0.132
    1UNL     O5   28   0.570   0.004   0.138
    1UNL    C22   29  -0.054  -0.150  -0.038
    1UNL     H1   30  -0.263   0.493  -0.068
    1UNL     H2   31  -0.148   0.584   0.041
    1UNL     H3   32  -0.094   0.504  -0.113
    1UNL     H4   33  -0.108   0.222   0.215
    1UNL     H5   34  -0.309   0.080  -0.099
    1UNL     H6   35  -0.297  -0.019   0.042
    1UNL     H7   36  -0.339  -0.132  -0.222
    1UNL     H8   37  -0.190  -0.239  -0.268
    1UNL     H9   38  -0.386  -0.243  -0.031
    1UNL    H10   39  -0.351  -0.372  -0.152
    1UNL    H11   40  -0.169  -0.451  -0.043
    1UNL    H12   41  -0.251  -0.384   0.093
    1UNL    H13   42  -0.065  -0.287   0.271
    1UNL    H14   43  -0.209  -0.195   0.213
    1UNL    H15   44  -0.086  -0.001   0.248
    1UNL    H16   45   0.068  -0.093   0.268
    1UNL    H17   46   0.215  -0.283   0.069
    1UNL    H18   47   0.479  -0.241   0.100
    1UNL    H19   48   0.151   0.263   0.026
    1UNL    H20   49   0.012   0.197  -0.185
    1UNL    H21   50   0.123   0.066  -0.174
    1UNL    H22   51  -0.039  -0.055  -0.301
    1UNL    H23   52  -0.148   0.078  -0.277
    1UNL    H24   53   0.608   0.174   0.227
    1UNL    H25   54   0.643   0.178   0.056
    1UNL    H26   55   0.017  -0.199  -0.103
   0.00000   0.00000   0.00000   0.00000   0.00000   0.00000   0.00000   0.00000   0.00000
Generated with MDTraj, t= 31.0
 55
    1UNL     C1    1  -0.174   0.501  -0.023
    1UNL     O1    2  -0.143   0.371   0.035
    1UNL     C2    3  -0.161   0.268  -0.044
    1UNL     O2    4  -0.195   0.284  -0.162
    1UNL     C3    5  -0.135   0.129   0.016
    1UNL     O3    6  -0.174   0.140   0.152
    1UNL     C4    7  -0.230   0.025  -0.052
    1UNL     C5    8  -0.151  -0.084  -0.118
    1UNL     C6    9  -0.259  -0.174  -0.186
    1UNL     C7   10  -0.326  -0.276  -0.084
    1UNL     C8   11  -0.210  -0.355  -0.007
    1UNL     N1   12  -0.116  -0.265   0.056
    1UNL     C9   13  -0.144  -0.193   0.182
    1UNL    C10   14  -0.037  -0.089   0.205
    1UNL    C11   15   0.025  -0.065   0.067
    1UNL    C12   16   0.180  -0.070   0.077
    1UNL    C13   17   0.267  -0.179   0.063
    1UNL    C14   18   0.401  -0.157   0.072
    1UNL    C15   19   0.451  -0.025   0.081
    1UNL    C16   20   0.369   0.082   0.103
    1UNL    C17   21   0.229   0.058   0.099
    1UNL     N2   22   0.124   0.151   0.086
    1UNL    C18   23   0.020   0.083   0.006
    1UNL    C19   24   0.047   0.071  -0.144
    1UNL    C20   25  -0.064  -0.011  -0.224
    1UNL     O4   26   0.444   0.195   0.118
    1UNL    C21   27   0.585   0.156   0.113
    1UNL     O5   28   0.588   0.018   0.091
    1UNL    C22   29  -0.051  -0.159  -0.030
    1UNL     H1   30  -0.278   0.513  -0.024
    1UNL     H2   31  -0.121   0.581   0.039
    1UNL     H3   32  -0.132   0.500  -0.125
    1UNL     H4   33  -0.120   0.215   0.191
    1UNL     H5   34  -0.281   0.083  -0.132
    1UNL     H6   35  -0.307  -0.008   0.018
    1UNL     H7   36  -0.335  -0.110  -0.229
    1UNL     H8   37  -0.195  -0.240  -0.257
    1UNL     H9   38  -0.399  -0.226  -0.020
    1UNL    H10   39  -0.384  -0.347  -0.149
    1UNL    H11   40  -0.145  -0.431  -0.057
    1UNL    H12   41  -0.250  -0.416   0.071
    1UNL    H13   42  -0.141  -0.277   0.258
    1UNL    H14   43  -0.247  -0.151   0.184
    1UNL    H15   44  -0.079   0.005   0.256
    1UNL    H16   45   0.039  -0.120   0.279
    1UNL    H17   46   0.225  -0.278   0.058
    1UNL    H18   47   0.463  -0.245   0.048
    1UNL    H19   48   0.150   0.246   0.053
    1UNL    H20   49   0.054   0.172  -0.178
    1UNL    H21   50   0.147   0.026  -0.156
    1UNL    H22   51  -0.011  -0.083  -0.291
    1UNL    H23   52  -0.125   0.052  -0.296
    1UNL    H24   53   0.637   0.183   0.205
    1UNL    H25   54   0.645   0.200   0.028
    1UNL    H26   55   0.031  -0.201  -0.087
   0.00000   0.00000   0.00000   0.00000   0.00000   0.00000   0.00000   0.00000   0.00000
Generated with MDTraj, t= 32.0
 55
    1UNL     C1    1  -0.157   0.489  -0.045
    1UNL     O1    2  -0.132   0.369   0.034
    1UNL     C2    3  -0.145   0.257  -0.036
    1UNL     O2    4  -0.169   0.263  -0.158
    1UNL     C3    5  -0.132   0.127   0.032
    1UNL     O3    6  -0.165   0.151   0.170
    1UNL     C4    7  -0.229   0.013  -0.035
    1UNL     C5    8  -0.143  -0.081  -0.124
    1UNL     C6    9  -0.227  -0.185  -0.205
    1UNL     C7   10  -0.321  -0.265  -0.116
    1UNL     C8   11  -0.249  -0.333   0.003
    1UNL     N1   12  -0.130  -0.270   0.062
    1UNL     C9   13  -0.144  -0.201   0.190
    1UNL    C10   14  -0.031  -0.098   0.208
    1UNL    C11   15   0.028  -0.065   0.067
    1UNL    C12   16   0.178  -0.074   0.077
    1UNL    C13   17   0.266  -0.181   0.065
    1UNL    C14   18   0.403  -0.156   0.064
    1UNL    C15   19   0.446  -0.027   0.085
    1UNL    C16   20   0.358   0.079   0.100
    1UNL    C17   21   0.223   0.058   0.107
    1UNL     N2   22   0.115   0.146   0.099
    1UNL    C18   23   0.010   0.080   0.015
    1UNL    C19   24   0.051   0.090  -0.133
    1UNL    C20   25  -0.058   0.005  -0.219
    1UNL     O4   26   0.421   0.200   0.109
    1UNL    C21   27   0.560   0.172   0.093
    1UNL     O5   28   0.578   0.029   0.073
    1UNL    C22   29  -0.050  -0.166  -0.033
    1UNL     H1   30  -0.254   0.480  -0.088
    1UNL     H2   31  -0.154   0.578   0.027
    1UNL     H3   32  -0.077   0.499  -0.122
    1UNL     H4   33  -0.112   0.223   0.204
    1UNL     H5   34  -0.303   0.071  -0.093
    1UNL     H6   35  -0.279  -0.041   0.048
    1UNL     H7   36  -0.276  -0.131  -0.287
    1UNL     H8   37  -0.151  -0.270  -0.229
    1UNL     H9   38  -0.397  -0.195  -0.078
    1UNL    H10   39  -0.382  -0.338  -0.175
    1UNL    H11   40  -0.200  -0.429  -0.024
    1UNL    H12   41  -0.313  -0.362   0.082
    1UNL    H13   42  -0.136  -0.282   0.267
    1UNL    H14   43  -0.244  -0.151   0.199
    1UNL    H15   44  -0.066  -0.010   0.257
    1UNL    H16   45   0.043  -0.138   0.278
    1UNL    H17   46   0.232  -0.277   0.038
    1UNL    H18   47   0.471  -0.234   0.047
    1UNL    H19   48   0.120   0.247   0.102
    1UNL    H20   49   0.055   0.191  -0.164
    1UNL    H21   50   0.154   0.046  -0.135
    1UNL    H22   51   0.010  -0.067  -0.287
    1UNL    H23   52  -0.116   0.069  -0.288
    1UNL    H24   53   0.618   0.205   0.180
    1UNL    H25   54   0.598   0.228   0.003
    1UNL    H26   55   0.025  -0.210  -0.096
   0.00000   0.00000   0.00000   0.00000   0.00000   0.00000   0.00000   0.00000   0.00000
Generated with MDTraj, t= 33.0
 55
    1UNL     C1    1  -0.119   0.487  -0.042
    1UNL     O1    2  -0.127   0.373   0.039
    1UNL     C2    3  -0.155   0.264  -0.036
    1UNL     O2    4  -0.184   0.270  -0.155
    1UNL     C3    5  -0.148   0.129   0.034
    1UNL     O3    6  -0.195   0.145   0.167
    1UNL     C4    7  -0.231   0.019  -0.046
    1UNL     C5    8  -0.136  -0.092  -0.126
    1UNL     C6    9  -0.234  -0.184  -0.204
    1UNL     C7   10  -0.329  -0.260  -0.109
    1UNL     C8   11  -0.244  -0.342  -0.018
    1UNL     N1   12  -0.152  -0.259   0.057
    1UNL     C9   13  -0.125  -0.228   0.199
    1UNL    C10   14  -0.045  -0.092   0.209
    1UNL    C11   15   0.021  -0.069   0.073
    1UNL    C12   16   0.178  -0.076   0.085
    1UNL    C13   17   0.272  -0.175   0.069
    1UNL    C14   18   0.414  -0.149   0.070
    1UNL    C15   19   0.459  -0.019   0.076
    1UNL    C16   20   0.361   0.085   0.101
    1UNL    C17   21   0.222   0.062   0.099
    1UNL     N2   22   0.113   0.151   0.086
    1UNL    C18   23   0.002   0.081   0.025
    1UNL    C19   24   0.036   0.080  -0.129
    1UNL    C20   25  -0.042  -0.017  -0.216
    1UNL     O4   26   0.437   0.206   0.104
    1UNL    C21   27   0.571   0.173   0.090
    1UNL     O5   28   0.585   0.029   0.076
    1UNL    C22   29  -0.053  -0.170  -0.027
    1UNL     H1   30  -0.207   0.489  -0.103
    1UNL     H2   31  -0.119   0.571   0.032
    1UNL     H3   32  -0.024   0.485  -0.100
    1UNL     H4   33  -0.173   0.246   0.191
    1UNL     H5   34  -0.302   0.073  -0.113
    1UNL     H6   35  -0.284  -0.026   0.041
    1UNL     H7   36  -0.296  -0.116  -0.260
    1UNL     H8   37  -0.171  -0.258  -0.268
    1UNL     H9   38  -0.381  -0.191  -0.040
    1UNL    H10   39  -0.411  -0.320  -0.155
    1UNL    H11   40  -0.178  -0.410  -0.074
    1UNL    H12   41  -0.296  -0.395   0.058
    1UNL    H13   42  -0.061  -0.305   0.250
    1UNL    H14   43  -0.227  -0.215   0.248
    1UNL    H15   44  -0.110  -0.017   0.236
    1UNL    H16   45   0.034  -0.091   0.282
    1UNL    H17   46   0.231  -0.276   0.042
    1UNL    H18   47   0.498  -0.224   0.065
    1UNL    H19   48   0.117   0.251   0.087
    1UNL    H20   49   0.042   0.180  -0.161
    1UNL    H21   50   0.144   0.046  -0.139
    1UNL    H22   51   0.036  -0.085  -0.275
    1UNL    H23   52  -0.092   0.039  -0.299
    1UNL    H24   53   0.621   0.197   0.185
    1UNL    H25   54   0.612   0.226   0.000
    1UNL    H26   55   0.025  -0.220  -0.081
   0.00000   0.00000   0.00000   0.00000   0.00000   0.00000   0.00000   0.00000   0.00000
Generated with MDTraj, t= 34.0
 55
    1UNL     C1    1  -0.115   0.494  -0.026
    1UNL     O1    2  -0.090   0.372   0.033
    1UNL     C2    3  -0.152   0.274  -0.042
    1UNL     O2    4  -0.206   0.286  -0.149
    1UNL     C3    5  -0.139   0.131   0.026
    1UNL     O3    6  -0.172   0.159   0.162
    1UNL     C4    7  -0.232   0.016  -0.027
    1UNL     C5    8  -0.153  -0.084  -0.120
    1UNL     C6    9  -0.241  -0.192  -0.198
    1UNL     C7   10  -0.314  -0.281  -0.104
    1UNL     C8   11  -0.210  -0.352  -0.009
    1UNL     N1   12  -0.108  -0.266   0.053
    1UNL     C9   13  -0.105  -0.228   0.195
    1UNL    C10   14  -0.045  -0.086   0.202
    1UNL    C11   15   0.021  -0.058   0.061
    1UNL    C12   16   0.172  -0.074   0.071
    1UNL    C13   17   0.259  -0.185   0.068
    1UNL    C14   18   0.392  -0.161   0.080
    1UNL    C15   19   0.434  -0.027   0.101
    1UNL    C16   20   0.349   0.090   0.104
    1UNL    C17   21   0.213   0.056   0.098
    1UNL     N2   22   0.114   0.155   0.070
    1UNL    C18   23   0.007   0.080   0.006
    1UNL    C19   24   0.035   0.071  -0.149
    1UNL    C20   25  -0.072  -0.001  -0.225
    1UNL     O4   26   0.424   0.205   0.108
    1UNL    C21   27   0.558   0.163   0.100
    1UNL     O5   28   0.570   0.023   0.092
    1UNL    C22   29  -0.046  -0.159  -0.035
    1UNL     H1   30  -0.220   0.513  -0.012
    1UNL     H2   31  -0.057   0.564   0.033
    1UNL     H3   32  -0.084   0.495  -0.132
    1UNL     H4   33  -0.130   0.238   0.182
    1UNL     H5   34  -0.313   0.072  -0.082
    1UNL     H6   35  -0.270  -0.037   0.062
    1UNL     H7   36  -0.303  -0.135  -0.264
    1UNL     H8   37  -0.169  -0.260  -0.258
    1UNL     H9   38  -0.391  -0.228  -0.044
    1UNL    H10   39  -0.368  -0.366  -0.148
    1UNL    H11   40  -0.152  -0.433  -0.053
    1UNL    H12   41  -0.269  -0.383   0.075
    1UNL    H13   42  -0.045  -0.303   0.252
    1UNL    H14   43  -0.206  -0.218   0.247
    1UNL    H15   44  -0.119  -0.011   0.227
    1UNL    H16   45   0.024  -0.080   0.277
    1UNL    H17   46   0.232  -0.284   0.052
    1UNL    H18   47   0.456  -0.242   0.088
    1UNL    H19   48   0.103   0.253   0.052
    1UNL    H20   49   0.059   0.170  -0.179
    1UNL    H21   50   0.134   0.021  -0.161
    1UNL    H22   51  -0.033  -0.046  -0.317
    1UNL    H23   52  -0.144   0.078  -0.267
    1UNL    H24   53   0.611   0.201   0.189
    1UNL    H25   54   0.597   0.196   0.001
    1UNL    H26   55   0.022  -0.204  -0.104
   0.00000   0.00000   0.00000   0.00000   0.00000   0.00000   0.00000   0.00000   0.00000
Generated with MDTraj, t= 35.0
 55
    1UNL     C1    1  -0.117   0.490  -0.064
    1UNL     O1    2  -0.082   0.374   0.008
    1UNL     C2    3  -0.170   0.267  -0.035
    1UNL     O2    4  -0.250   0.283  -0.121
    1UNL     C3    5  -0.141   0.130   0.033
    1UNL     O3    6  -0.170   0.154   0.172
    1UNL     C4    7  -0.235   0.023  -0.023
    1UNL     C5    8  -0.167  -0.074  -0.115
    1UNL     C6    9  -0.277  -0.169  -0.172
    1UNL     C7   10  -0.318  -0.278  -0.078
    1UNL     C8   11  -0.194  -0.367  -0.034
    1UNL     N1   12  -0.095  -0.276   0.035
    1UNL     C9   13  -0.118  -0.224   0.168
    1UNL    C10   14  -0.029  -0.105   0.196
    1UNL    C11   15   0.032  -0.061   0.051
    1UNL    C12   16   0.181  -0.065   0.071
    1UNL    C13   17   0.261  -0.178   0.075
    1UNL    C14   18   0.394  -0.157   0.110
    1UNL    C15   19   0.446  -0.025   0.111
    1UNL    C16   20   0.364   0.091   0.098
    1UNL    C17   21   0.228   0.065   0.080
    1UNL     N2   22   0.116   0.152   0.063
    1UNL    C18   23   0.011   0.085  -0.001
    1UNL    C19   24   0.028   0.075  -0.166
    1UNL    C20   25  -0.095  -0.004  -0.230
    1UNL     O4   26   0.446   0.207   0.100
    1UNL    C21   27   0.575   0.156   0.132
    1UNL     O5   28   0.582   0.014   0.123
    1UNL    C22   29  -0.052  -0.157  -0.046
    1UNL     H1   30  -0.210   0.528  -0.022
    1UNL     H2   31  -0.041   0.561  -0.040
    1UNL     H3   32  -0.123   0.478  -0.173
    1UNL     H4   33  -0.111   0.237   0.193
    1UNL     H5   34  -0.327   0.067  -0.073
    1UNL     H6   35  -0.262  -0.030   0.071
    1UNL     H7   36  -0.365  -0.112  -0.200
    1UNL     H8   37  -0.230  -0.219  -0.261
    1UNL     H9   38  -0.358  -0.235   0.017
    1UNL    H10   39  -0.398  -0.338  -0.122
    1UNL    H11   40  -0.146  -0.400  -0.125
    1UNL    H12   41  -0.216  -0.445   0.037
    1UNL    H13   42  -0.099  -0.304   0.243
    1UNL    H14   43  -0.227  -0.195   0.188
    1UNL    H15   44  -0.081  -0.018   0.243
    1UNL    H16   45   0.040  -0.125   0.267
    1UNL    H17   46   0.207  -0.276   0.065
    1UNL    H18   47   0.467  -0.240   0.104
    1UNL    H19   48   0.129   0.244   0.028
    1UNL    H20   49   0.032   0.175  -0.203
    1UNL    H21   50   0.128   0.033  -0.189
    1UNL    H22   51  -0.072  -0.079  -0.297
    1UNL    H23   52  -0.161   0.072  -0.290
    1UNL    H24   53   0.588   0.176   0.240
    1UNL    H25   54   0.654   0.199   0.069
    1UNL    H26   55   0.016  -0.190  -0.122
   0.00000   0.00000   0.00000   0.00000   0.00000   0.00000   0.00000   0.00000   0.00000
Generated with MDTraj, t= 36.0
 55
    1UNL     C1    1  -0.126   0.471  -0.099
    1UNL     O1    2  -0.079   0.364  -0.025
    1UNL     C2    3  -0.173   0.263  -0.034
    1UNL     O2    4  -0.277   0.268  -0.089
    1UNL     C3    5  -0.137   0.137   0.048
    1UNL     O3    6  -0.126   0.168   0.187
    1UNL     C4    7  -0.231   0.014  -0.001
    1UNL     C5    8  -0.167  -0.076  -0.116
    1UNL     C6    9  -0.269  -0.170  -0.190
    1UNL     C7   10  -0.324  -0.278  -0.090
    1UNL     C8   11  -0.211  -0.354  -0.016
    1UNL     N1   12  -0.099  -0.271   0.029
    1UNL     C9   13  -0.096  -0.227   0.172
    1UNL    C10   14  -0.013  -0.097   0.180
    1UNL    C11   15   0.038  -0.059   0.038
    1UNL    C12   16   0.181  -0.072   0.045
    1UNL    C13   17   0.267  -0.177   0.063
    1UNL    C14   18   0.401  -0.158   0.103
    1UNL    C15   19   0.450  -0.028   0.127
    1UNL    C16   20   0.363   0.077   0.100
    1UNL    C17   21   0.229   0.060   0.074
    1UNL     N2   22   0.127   0.155   0.047
    1UNL    C18   23   0.008   0.091  -0.006
    1UNL    C19   24   0.011   0.105  -0.162
    1UNL    C20   25  -0.109   0.023  -0.219
    1UNL     O4   26   0.433   0.197   0.110
    1UNL    C21   27   0.562   0.154   0.150
    1UNL     O5   28   0.578   0.009   0.161
    1UNL    C22   29  -0.055  -0.163  -0.054
    1UNL     H1   30  -0.233   0.484  -0.077
    1UNL     H2   31  -0.075   0.556  -0.062
    1UNL     H3   32  -0.107   0.466  -0.208
    1UNL     H4   33  -0.049   0.240   0.186
    1UNL     H5   34  -0.327   0.066  -0.033
    1UNL     H6   35  -0.257  -0.049   0.088
    1UNL     H7   36  -0.355  -0.111  -0.225
    1UNL     H8   37  -0.215  -0.219  -0.271
    1UNL     H9   38  -0.405  -0.235  -0.024
    1UNL    H10   39  -0.370  -0.358  -0.148
    1UNL    H11   40  -0.160  -0.421  -0.084
    1UNL    H12   41  -0.249  -0.401   0.072
    1UNL    H13   42  -0.055  -0.300   0.246
    1UNL    H14   43  -0.203  -0.211   0.211
    1UNL    H15   44  -0.076  -0.018   0.212
    1UNL    H16   45   0.073  -0.094   0.248
    1UNL    H17   46   0.226  -0.275   0.059
    1UNL    H18   47   0.470  -0.238   0.117
    1UNL    H19   48   0.150   0.245   0.014
    1UNL    H20   49  -0.003   0.209  -0.191
    1UNL    H21   50   0.107   0.070  -0.198
    1UNL    H22   51  -0.077  -0.026  -0.304
    1UNL    H23   52  -0.193   0.098  -0.245
    1UNL    H24   53   0.587   0.199   0.248
    1UNL    H25   54   0.624   0.193   0.070
    1UNL    H26   55  -0.004  -0.212  -0.135
   0.00000   0.00000   0.00000   0.00000   0.00000   0.00000   0.00000   0.00000   0.00000
Generated with MDTraj, t= 37.0
 55
    1UNL     C1    1  -0.128   0.470  -0.111
    1UNL     O1    2  -0.073   0.363  -0.049
    1UNL     C2    3  -0.179   0.273  -0.038
    1UNL     O2    4  -0.292   0.284  -0.075
    1UNL     C3    5  -0.135   0.139   0.035
    1UNL     O3    6  -0.150   0.158   0.175
    1UNL     C4    7  -0.234   0.025  -0.013
    1UNL     C5    8  -0.168  -0.075  -0.114
    1UNL     C6    9  -0.280  -0.169  -0.173
    1UNL     C7   10  -0.328  -0.265  -0.062
    1UNL     C8   11  -0.216  -0.352  -0.020
    1UNL     N1   12  -0.091  -0.280   0.026
    1UNL     C9   13  -0.086  -0.238   0.168
    1UNL    C10   14  -0.024  -0.097   0.180
    1UNL    C11   15   0.039  -0.063   0.043
    1UNL    C12   16   0.189  -0.070   0.050
    1UNL    C13   17   0.277  -0.178   0.051
    1UNL    C14   18   0.409  -0.157   0.075
    1UNL    C15   19   0.458  -0.032   0.106
    1UNL    C16   20   0.368   0.079   0.107
    1UNL    C17   21   0.232   0.059   0.071
    1UNL     N2   22   0.130   0.158   0.048
    1UNL    C18   23   0.007   0.087   0.004
    1UNL    C19   24   0.008   0.097  -0.156
    1UNL    C20   25  -0.101   0.012  -0.226
    1UNL     O4   26   0.433   0.197   0.145
    1UNL    C21   27   0.561   0.152   0.178
    1UNL     O5   28   0.585   0.013   0.150
    1UNL    C22   29  -0.049  -0.163  -0.051
    1UNL     H1   30  -0.198   0.511  -0.035
    1UNL     H2   31  -0.058   0.545  -0.133
    1UNL     H3   32  -0.186   0.446  -0.205
    1UNL     H4   33  -0.089   0.234   0.204
    1UNL     H5   34  -0.320   0.086  -0.058
    1UNL     H6   35  -0.275  -0.024   0.078
    1UNL     H7   36  -0.361  -0.099  -0.202
    1UNL     H8   37  -0.248  -0.235  -0.250
    1UNL     H9   38  -0.355  -0.200   0.026
    1UNL    H10   39  -0.422  -0.312  -0.087
    1UNL    H11   40  -0.186  -0.401  -0.111
    1UNL    H12   41  -0.238  -0.425   0.056
    1UNL    H13   42  -0.031  -0.318   0.224
    1UNL    H14   43  -0.189  -0.231   0.214
    1UNL    H15   44  -0.082  -0.019   0.219
    1UNL    H16   45   0.069  -0.105   0.249
    1UNL    H17   46   0.243  -0.279   0.045
    1UNL    H18   47   0.468  -0.246   0.075
    1UNL    H19   48   0.146   0.246   0.001
    1UNL    H20   49  -0.011   0.205  -0.175
    1UNL    H21   50   0.104   0.072  -0.196
    1UNL    H22   51  -0.053  -0.047  -0.302
    1UNL    H23   52  -0.179   0.069  -0.271
    1UNL    H24   53   0.577   0.179   0.286
    1UNL    H25   54   0.634   0.210   0.125
    1UNL    H26   55   0.014  -0.200  -0.130
   0.00000   0.00000   0.00000   0.00000   0.00000   0.00000   0.00000   0.00000   0.00000
Generated with MDTraj, t= 38.0
 55
    1UNL     C1    1  -0.104   0.466  -0.104
    1UNL     O1    2  -0.058   0.347  -0.054
    1UNL     C2    3  -0.170   0.266  -0.034
    1UNL     O2    4  -0.283   0.295  -0.069
    1UNL     C3    5  -0.141   0.139   0.041
    1UNL     O3    6  -0.148   0.157   0.176
    1UNL     C4    7  -0.243   0.022  -0.009
    1UNL     C5    8  -0.170  -0.074  -0.112
    1UNL     C6    9  -0.264  -0.176  -0.177
    1UNL     C7   10  -0.313  -0.289  -0.091
    1UNL     C8   11  -0.198  -0.366  -0.025
    1UNL     N1   12  -0.099  -0.266   0.042
    1UNL     C9   13  -0.113  -0.222   0.186
    1UNL    C10   14  -0.021  -0.100   0.200
    1UNL    C11   15   0.034  -0.058   0.054
    1UNL    C12   16   0.183  -0.066   0.052
    1UNL    C13   17   0.265  -0.175   0.038
    1UNL    C14   18   0.400  -0.156   0.052
    1UNL    C15   19   0.448  -0.032   0.094
    1UNL    C16   20   0.359   0.085   0.107
    1UNL    C17   21   0.224   0.065   0.071
    1UNL     N2   22   0.118   0.159   0.058
    1UNL    C18   23   0.009   0.096  -0.004
    1UNL    C19   24   0.018   0.091  -0.160
    1UNL    C20   25  -0.097   0.010  -0.224
    1UNL     O4   26   0.428   0.198   0.160
    1UNL    C21   27   0.562   0.155   0.158
    1UNL     O5   28   0.571   0.018   0.139
    1UNL    C22   29  -0.048  -0.149  -0.037
    1UNL     H1   30  -0.142   0.525  -0.017
    1UNL     H2   31  -0.026   0.522  -0.146
    1UNL     H3   32  -0.187   0.456  -0.181
    1UNL     H4   33  -0.073   0.207   0.200
    1UNL     H5   34  -0.341   0.065  -0.049
    1UNL     H6   35  -0.267  -0.025   0.090
    1UNL     H7   36  -0.352  -0.125  -0.225
    1UNL     H8   37  -0.203  -0.218  -0.252
    1UNL     H9   38  -0.387  -0.247  -0.017
    1UNL    H10   39  -0.380  -0.350  -0.151
    1UNL    H11   40  -0.137  -0.419  -0.095
    1UNL    H12   41  -0.232  -0.438   0.048
    1UNL    H13   42  -0.077  -0.304   0.255
    1UNL    H14   43  -0.221  -0.199   0.204
    1UNL    H15   44  -0.063  -0.010   0.248
    1UNL    H16   45   0.074  -0.132   0.259
    1UNL    H17   46   0.224  -0.276   0.013
    1UNL    H18   47   0.469  -0.243   0.057
    1UNL    H19   48   0.130   0.254   0.020
    1UNL    H20   49   0.026   0.193  -0.207
    1UNL    H21   50   0.113   0.048  -0.177
    1UNL    H22   51  -0.069  -0.053  -0.310
    1UNL    H23   52  -0.163   0.073  -0.265
    1UNL    H24   53   0.606   0.180   0.260
    1UNL    H25   54   0.625   0.209   0.091
    1UNL    H26   55   0.025  -0.186  -0.108
   0.00000   0.00000   0.00000   0.00000   0.00000   0.00000   0.00000   0.00000   0.00000
Generated with MDTraj, t= 39.0
 55
    1UNL     C1    1  -0.087   0.464  -0.098
    1UNL     O1    2  -0.063   0.347  -0.021
    1UNL     C2    3  -0.165   0.270  -0.023
    1UNL     O2    4  -0.273   0.305  -0.068
    1UNL     C3    5  -0.143   0.132   0.029
    1UNL     O3    6  -0.179   0.136   0.177
    1UNL     C4    7  -0.240   0.019  -0.035
    1UNL     C5    8  -0.160  -0.077  -0.123
    1UNL     C6    9  -0.256  -0.181  -0.192
    1UNL     C7   10  -0.322  -0.275  -0.085
    1UNL     C8   11  -0.212  -0.358  -0.013
    1UNL     N1   12  -0.108  -0.265   0.037
    1UNL     C9   13  -0.127  -0.223   0.180
    1UNL    C10   14  -0.033  -0.109   0.196
    1UNL    C11   15   0.029  -0.063   0.058
    1UNL    C12   16   0.180  -0.073   0.068
    1UNL    C13   17   0.267  -0.173   0.070
    1UNL    C14   18   0.404  -0.149   0.076
    1UNL    C15   19   0.455  -0.020   0.095
    1UNL    C16   20   0.361   0.087   0.099
    1UNL    C17   21   0.224   0.060   0.085
    1UNL     N2   22   0.116   0.153   0.080
    1UNL    C18   23   0.005   0.090   0.004
    1UNL    C19   24   0.033   0.085  -0.149
    1UNL    C20   25  -0.077   0.014  -0.223
    1UNL     O4   26   0.432   0.206   0.110
    1UNL    C21   27   0.565   0.163   0.138
    1UNL     O5   28   0.582   0.027   0.113
    1UNL    C22   29  -0.044  -0.161  -0.048
    1UNL     H1   30  -0.187   0.510  -0.072
    1UNL     H2   31  -0.016   0.541  -0.085
    1UNL     H3   32  -0.095   0.438  -0.208
    1UNL     H4   33  -0.205   0.217   0.209
    1UNL     H5   34  -0.321   0.080  -0.088
    1UNL     H6   35  -0.290  -0.041   0.045
    1UNL     H7   36  -0.333  -0.123  -0.248
    1UNL     H8   37  -0.199  -0.234  -0.263
    1UNL     H9   38  -0.384  -0.216  -0.012
    1UNL    H10   39  -0.403  -0.335  -0.126
    1UNL    H11   40  -0.169  -0.438  -0.070
    1UNL    H12   41  -0.249  -0.400   0.081
    1UNL    H13   42  -0.105  -0.306   0.253
    1UNL    H14   43  -0.233  -0.191   0.189
    1UNL    H15   44  -0.084  -0.012   0.238
    1UNL    H16   45   0.057  -0.139   0.262
    1UNL    H17   46   0.233  -0.269   0.061
    1UNL    H18   47   0.474  -0.225   0.083
    1UNL    H19   48   0.120   0.251   0.056
    1UNL    H20   49   0.050   0.190  -0.187
    1UNL    H21   50   0.126   0.035  -0.153
    1UNL    H22   51  -0.040  -0.049  -0.305
    1UNL    H23   52  -0.144   0.077  -0.276
    1UNL    H24   53   0.602   0.187   0.245
    1UNL    H25   54   0.623   0.222   0.071
    1UNL    H26   55   0.014  -0.218  -0.120
   0.00000   0.00000   0.00000   0.00000   0.00000   0.00000   0.00000   0.00000   0.00000
Generated with MDTraj, t= 40.0
 55
    1UNL     C1    1  -0.092   0.473  -0.057
    1UNL     O1    2  -0.058   0.343  -0.013
    1UNL     C2    3  -0.159   0.259  -0.031
    1UNL     O2    4  -0.266   0.298  -0.085
    1UNL     C3    5  -0.137   0.129   0.038
    1UNL     O3    6  -0.167   0.147   0.176
    1UNL     C4    7  -0.231   0.017  -0.036
    1UNL     C5    8  -0.153  -0.079  -0.134
    1UNL     C6    9  -0.250  -0.183  -0.209
    1UNL     C7   10  -0.323  -0.283  -0.113
    1UNL     C8   11  -0.236  -0.355  -0.014
    1UNL     N1   12  -0.129  -0.269   0.038
    1UNL     C9   13  -0.143  -0.202   0.178
    1UNL    C10   14  -0.035  -0.103   0.204
    1UNL    C11   15   0.029  -0.079   0.065
    1UNL    C12   16   0.177  -0.072   0.085
    1UNL    C13   17   0.273  -0.173   0.077
    1UNL    C14   18   0.406  -0.141   0.096
    1UNL    C15   19   0.454  -0.017   0.102
    1UNL    C16   20   0.361   0.087   0.102
    1UNL    C17   21   0.221   0.060   0.101
    1UNL     N2   22   0.113   0.145   0.092
    1UNL    C18   23   0.011   0.078   0.018
    1UNL    C19   24   0.043   0.090  -0.132
    1UNL    C20   25  -0.055   0.008  -0.223
    1UNL     O4   26   0.422   0.213   0.097
    1UNL    C21   27   0.561   0.173   0.076
    1UNL     O5   28   0.583   0.033   0.100
    1UNL    C22   29  -0.051  -0.171  -0.048
    1UNL     H1   30  -0.192   0.497  -0.013
    1UNL     H2   31  -0.025   0.548  -0.032
    1UNL     H3   32  -0.109   0.467  -0.167
    1UNL     H4   33  -0.241   0.201   0.183
    1UNL     H5   34  -0.297   0.063  -0.119
    1UNL     H6   35  -0.300  -0.029   0.038
    1UNL     H7   36  -0.325  -0.120  -0.258
    1UNL     H8   37  -0.202  -0.236  -0.288
    1UNL     H9   38  -0.400  -0.229  -0.051
    1UNL    H10   39  -0.392  -0.351  -0.162
    1UNL    H11   40  -0.190  -0.436  -0.066
    1UNL    H12   41  -0.294  -0.393   0.073
    1UNL    H13   42  -0.144  -0.289   0.250
    1UNL    H14   43  -0.239  -0.152   0.189
    1UNL    H15   44  -0.062  -0.004   0.257
    1UNL    H16   45   0.051  -0.150   0.266
    1UNL    H17   46   0.239  -0.279   0.064
    1UNL    H18   47   0.482  -0.222   0.103
    1UNL    H19   48   0.124   0.242   0.073
    1UNL    H20   49   0.047   0.200  -0.153
    1UNL    H21   50   0.140   0.046  -0.146
    1UNL    H22   51  -0.003  -0.066  -0.282
    1UNL    H23   52  -0.111   0.071  -0.302
    1UNL    H24   53   0.620   0.238   0.151
    1UNL    H25   54   0.592   0.197  -0.023
    1UNL    H26   55   0.021  -0.229  -0.104
   0.00000   0.00000   0.00000   0.00000   0.00000   0.00000   0.00000   0.00000   0.00000
Generated with MDTraj, t= 41.0
 55
    1UNL     C1    1  -0.086   0.477  -0.041
    1UNL     O1    2  -0.058   0.348   0.007
    1UNL     C2    3  -0.156   0.267  -0.027
    1UNL     O2    4  -0.258   0.300  -0.088
    1UNL     C3    5  -0.141   0.130   0.028
    1UNL     O3    6  -0.188   0.137   0.161
    1UNL     C4    7  -0.230   0.022  -0.055
    1UNL     C5    8  -0.138  -0.089  -0.123
    1UNL     C6    9  -0.232  -0.182  -0.202
    1UNL     C7   10  -0.314  -0.282  -0.117
    1UNL     C8   11  -0.220  -0.352  -0.015
    1UNL     N1   12  -0.126  -0.264   0.052
    1UNL     C9   13  -0.144  -0.209   0.191
    1UNL    C10   14  -0.044  -0.098   0.213
    1UNL    C11   15   0.025  -0.068   0.067
    1UNL    C12   16   0.171  -0.071   0.083
    1UNL    C13   17   0.262  -0.176   0.085
    1UNL    C14   18   0.397  -0.154   0.077
    1UNL    C15   19   0.441  -0.021   0.080
    1UNL    C16   20   0.354   0.090   0.090
    1UNL    C17   21   0.221   0.062   0.100
    1UNL     N2   22   0.110   0.156   0.094
    1UNL    C18   23   0.007   0.087   0.019
    1UNL    C19   24   0.045   0.092  -0.134
    1UNL    C20   25  -0.034  -0.016  -0.222
    1UNL     O4   26   0.422   0.212   0.091
    1UNL    C21   27   0.562   0.171   0.096
    1UNL     O5   28   0.569   0.029   0.069
    1UNL    C22   29  -0.047  -0.166  -0.027
    1UNL     H1   30  -0.152   0.527   0.033
    1UNL     H2   31  -0.002   0.533  -0.064
    1UNL     H3   32  -0.148   0.458  -0.131
    1UNL     H4   33  -0.267   0.189   0.165
    1UNL     H5   34  -0.277   0.080  -0.142
    1UNL     H6   35  -0.315  -0.027  -0.004
    1UNL     H7   36  -0.297  -0.132  -0.268
    1UNL     H8   37  -0.165  -0.244  -0.261
    1UNL     H9   38  -0.403  -0.236  -0.070
    1UNL    H10   39  -0.365  -0.356  -0.176
    1UNL    H11   40  -0.155  -0.416  -0.073
    1UNL    H12   41  -0.282  -0.408   0.058
    1UNL    H13   42  -0.135  -0.292   0.266
    1UNL    H14   43  -0.247  -0.178   0.190
    1UNL    H15   44  -0.084  -0.005   0.252
    1UNL    H16   45   0.035  -0.134   0.292
    1UNL    H17   46   0.226  -0.271   0.116
    1UNL    H18   47   0.453  -0.243   0.086
    1UNL    H19   48   0.110   0.258   0.076
    1UNL    H20   49   0.039   0.196  -0.177
    1UNL    H21   50   0.150   0.061  -0.133
    1UNL    H22   51   0.022  -0.091  -0.273
    1UNL    H23   52  -0.092   0.033  -0.316
    1UNL    H24   53   0.596   0.197   0.204
    1UNL    H25   54   0.617   0.224   0.023
    1UNL    H26   55   0.033  -0.215  -0.082
   0.00000   0.00000   0.00000   0.00000   0.00000   0.00000   0.00000   0.00000   0.00000
Generated with MDTraj, t= 42.0
 55
    1UNL     C1    1  -0.092   0.472  -0.049
    1UNL     O1    2  -0.052   0.347  -0.008
    1UNL     C2    3  -0.159   0.268  -0.025
    1UNL     O2    4  -0.262   0.297  -0.079
    1UNL     C3    5  -0.145   0.130   0.025
    1UNL     O3    6  -0.203   0.139   0.157
    1UNL     C4    7  -0.238   0.021  -0.054
    1UNL     C5    8  -0.147  -0.082  -0.125
    1UNL     C6    9  -0.221  -0.192  -0.200
    1UNL     C7   10  -0.304  -0.284  -0.106
    1UNL     C8   11  -0.208  -0.361  -0.010
    1UNL     N1   12  -0.123  -0.265   0.057
    1UNL     C9   13  -0.155  -0.191   0.183
    1UNL    C10   14  -0.041  -0.088   0.207
    1UNL    C11   15   0.027  -0.060   0.071
    1UNL    C12   16   0.178  -0.069   0.086
    1UNL    C13   17   0.265  -0.173   0.057
    1UNL    C14   18   0.403  -0.157   0.057
    1UNL    C15   19   0.447  -0.023   0.079
    1UNL    C16   20   0.356   0.080   0.099
    1UNL    C17   21   0.220   0.063   0.097
    1UNL     N2   22   0.110   0.158   0.093
    1UNL    C18   23   0.007   0.084   0.017
    1UNL    C19   24   0.043   0.085  -0.133
    1UNL    C20   25  -0.062   0.005  -0.218
    1UNL     O4   26   0.436   0.201   0.126
    1UNL    C21   27   0.566   0.166   0.088
    1UNL     O5   28   0.576   0.028   0.089
    1UNL    C22   29  -0.051  -0.162  -0.028
    1UNL     H1   30  -0.201   0.486  -0.026
    1UNL     H2   31  -0.031   0.547  -0.007
    1UNL     H3   32  -0.080   0.463  -0.159
    1UNL     H4   33  -0.293   0.180   0.150
    1UNL     H5   34  -0.320   0.056  -0.123
    1UNL     H6   35  -0.289  -0.041   0.022
    1UNL     H7   36  -0.279  -0.159  -0.278
    1UNL     H8   37  -0.147  -0.262  -0.242
    1UNL     H9   38  -0.382  -0.230  -0.050
    1UNL    H10   39  -0.367  -0.347  -0.166
    1UNL    H11   40  -0.148  -0.433  -0.065
    1UNL    H12   41  -0.270  -0.412   0.069
    1UNL    H13   42  -0.172  -0.265   0.263
    1UNL    H14   43  -0.245  -0.135   0.171
    1UNL    H15   44  -0.083  -0.001   0.255
    1UNL    H16   45   0.043  -0.128   0.272
    1UNL    H17   46   0.230  -0.274   0.043
    1UNL    H18   47   0.481  -0.233   0.041
    1UNL    H19   48   0.122   0.258   0.062
    1UNL    H20   49   0.044   0.187  -0.176
    1UNL    H21   50   0.142   0.039  -0.149
    1UNL    H22   51   0.000  -0.049  -0.289
    1UNL    H23   52  -0.136   0.068  -0.285
    1UNL    H24   53   0.639   0.208   0.167
    1UNL    H25   54   0.575   0.205  -0.010
    1UNL    H26   55   0.015  -0.218  -0.094
   0.00000   0.00000   0.00000   0.00000   0.00000   0.00000   0.00000   0.00000   0.00000
Generated with MDTraj, t= 43.0
 55
    1UNL     C1    1  -0.106   0.472  -0.093
    1UNL     O1    2  -0.056   0.355  -0.029
    1UNL     C2    3  -0.162   0.266  -0.027
    1UNL     O2    4  -0.271   0.290  -0.066
    1UNL     C3    5  -0.137   0.127   0.038
    1UNL     O3    6  -0.162   0.145   0.177
    1UNL     C4    7  -0.228   0.023  -0.035
    1UNL     C5    8  -0.146  -0.084  -0.124
    1UNL     C6    9  -0.240  -0.180  -0.204
    1UNL     C7   10  -0.324  -0.261  -0.105
    1UNL     C8   11  -0.232  -0.346  -0.016
    1UNL     N1   12  -0.123  -0.274   0.047
    1UNL     C9   13  -0.137  -0.220   0.184
    1UNL    C10   14  -0.029  -0.115   0.204
    1UNL    C11   15   0.025  -0.070   0.067
    1UNL    C12   16   0.177  -0.071   0.075
    1UNL    C13   17   0.267  -0.177   0.069
    1UNL    C14   18   0.406  -0.147   0.063
    1UNL    C15   19   0.450  -0.017   0.089
    1UNL    C16   20   0.357   0.089   0.096
    1UNL    C17   21   0.219   0.060   0.082
    1UNL     N2   22   0.113   0.152   0.079
    1UNL    C18   23   0.008   0.081   0.019
    1UNL    C19   24   0.039   0.088  -0.134
    1UNL    C20   25  -0.063   0.005  -0.219
    1UNL     O4   26   0.430   0.204   0.119
    1UNL    C21   27   0.567   0.170   0.129
    1UNL     O5   28   0.577   0.035   0.098
    1UNL    C22   29  -0.050  -0.166  -0.037
    1UNL     H1   30  -0.206   0.500  -0.050
    1UNL     H2   31  -0.035   0.553  -0.094
    1UNL     H3   32  -0.122   0.430  -0.194
    1UNL     H4   33  -0.259   0.177   0.184
    1UNL     H5   34  -0.304   0.065  -0.104
    1UNL     H6   35  -0.283  -0.024   0.050
    1UNL     H7   36  -0.297  -0.125  -0.270
    1UNL     H8   37  -0.190  -0.257  -0.263
    1UNL     H9   38  -0.388  -0.190  -0.052
    1UNL    H10   39  -0.401  -0.321  -0.151
    1UNL    H11   40  -0.187  -0.429  -0.073
    1UNL    H12   41  -0.296  -0.393   0.064
    1UNL    H13   42  -0.112  -0.296   0.258
    1UNL    H14   43  -0.240  -0.195   0.200
    1UNL    H15   44  -0.063  -0.023   0.254
    1UNL    H16   45   0.049  -0.158   0.258
    1UNL    H17   46   0.230  -0.281   0.060
    1UNL    H18   47   0.477  -0.229   0.062
    1UNL    H19   48   0.138   0.251   0.050
    1UNL    H20   49   0.024   0.190  -0.171
    1UNL    H21   50   0.138   0.048  -0.172
    1UNL    H22   51  -0.005  -0.053  -0.297
    1UNL    H23   52  -0.120   0.080  -0.275
    1UNL    H24   53   0.592   0.183   0.241
    1UNL    H25   54   0.619   0.240   0.069
    1UNL    H26   55   0.014  -0.218  -0.108
   0.00000   0.00000   0.00000   0.00000   0.00000   0.00000   0.00000   0.00000   0.00000
Generated with MDTraj, t= 44.0
 55
    1UNL     C1    1  -0.096   0.457  -0.110
    1UNL     O1    2  -0.066   0.330  -0.065
    1UNL     C2    3  -0.176   0.256  -0.028
    1UNL     O2    4  -0.284   0.298  -0.042
    1UNL     C3    5  -0.140   0.125   0.044
    1UNL     O3    6  -0.159   0.149   0.184
    1UNL     C4    7  -0.234   0.023  -0.021
    1UNL     C5    8  -0.164  -0.076  -0.124
    1UNL     C6    9  -0.276  -0.165  -0.189
    1UNL     C7   10  -0.329  -0.269  -0.092
    1UNL     C8   11  -0.216  -0.348  -0.023
    1UNL     N1   12  -0.116  -0.264   0.040
    1UNL     C9   13  -0.119  -0.218   0.177
    1UNL    C10   14  -0.014  -0.109   0.192
    1UNL    C11   15   0.035  -0.066   0.049
    1UNL    C12   16   0.189  -0.072   0.055
    1UNL    C13   17   0.280  -0.173   0.052
    1UNL    C14   18   0.412  -0.151   0.083
    1UNL    C15   19   0.451  -0.022   0.106
    1UNL    C16   20   0.361   0.086   0.113
    1UNL    C17   21   0.231   0.056   0.087
    1UNL     N2   22   0.125   0.145   0.075
    1UNL    C18   23   0.006   0.080   0.005
    1UNL    C19   24   0.022   0.097  -0.155
    1UNL    C20   25  -0.089   0.015  -0.235
    1UNL     O4   26   0.432   0.206   0.130
    1UNL    C21   27   0.571   0.169   0.138
    1UNL     O5   28   0.584   0.028   0.138
    1UNL    C22   29  -0.051  -0.156  -0.048
    1UNL     H1   30  -0.126   0.526  -0.027
    1UNL     H2   31  -0.005   0.491  -0.159
    1UNL     H3   32  -0.178   0.436  -0.180
    1UNL     H4   33  -0.257   0.180   0.206
    1UNL     H5   34  -0.313   0.080  -0.073
    1UNL     H6   35  -0.292  -0.037   0.052
    1UNL     H7   36  -0.356  -0.107  -0.223
    1UNL     H8   37  -0.244  -0.210  -0.283
    1UNL     H9   38  -0.390  -0.221  -0.015
    1UNL    H10   39  -0.408  -0.328  -0.135
    1UNL    H11   40  -0.160  -0.410  -0.095
    1UNL    H12   41  -0.259  -0.418   0.054
    1UNL    H13   42  -0.112  -0.300   0.246
    1UNL    H14   43  -0.216  -0.179   0.199
    1UNL    H15   44  -0.053  -0.025   0.246
    1UNL    H16   45   0.067  -0.143   0.242
    1UNL    H17   46   0.243  -0.269   0.046
    1UNL    H18   47   0.473  -0.232   0.114
    1UNL    H19   48   0.117   0.249   0.067
    1UNL    H20   49   0.014   0.199  -0.190
    1UNL    H21   50   0.129   0.070  -0.189
    1UNL    H22   51  -0.051  -0.044  -0.328
    1UNL    H23   52  -0.150   0.089  -0.278
    1UNL    H24   53   0.615   0.238   0.218
    1UNL    H25   54   0.613   0.202   0.049
    1UNL    H26   55   0.015  -0.191  -0.128
   0.00000   0.00000   0.00000   0.00000   0.00000   0.00000   0.00000   0.00000   0.00000
Generated with MDTraj, t= 45.0
 55
    1UNL     C1    1  -0.116   0.471  -0.122
    1UNL     O1    2  -0.071   0.349  -0.080
    1UNL     C2    3  -0.168   0.280  -0.014
    1UNL     O2    4  -0.277   0.322   0.003
    1UNL     C3    5  -0.132   0.135   0.032
    1UNL     O3    6  -0.142   0.154   0.169
    1UNL     C4    7  -0.233   0.031  -0.021
    1UNL     C5    8  -0.170  -0.070  -0.119
    1UNL     C6    9  -0.263  -0.177  -0.178
    1UNL     C7   10  -0.313  -0.290  -0.082
    1UNL     C8   11  -0.194  -0.367  -0.017
    1UNL     N1   12  -0.096  -0.273   0.030
    1UNL     C9   13  -0.103  -0.231   0.173
    1UNL    C10   14  -0.029  -0.092   0.189
    1UNL    C11   15   0.030  -0.063   0.044
    1UNL    C12   16   0.180  -0.074   0.060
    1UNL    C13   17   0.267  -0.179   0.061
    1UNL    C14   18   0.402  -0.156   0.079
    1UNL    C15   19   0.451  -0.027   0.114
    1UNL    C16   20   0.359   0.081   0.100
    1UNL    C17   21   0.224   0.061   0.076
    1UNL     N2   22   0.120   0.148   0.060
    1UNL    C18   23   0.010   0.086  -0.005
    1UNL    C19   24   0.013   0.095  -0.169
    1UNL    C20   25  -0.099   0.008  -0.233
    1UNL     O4   26   0.433   0.198   0.118
    1UNL    C21   27   0.558   0.153   0.171
    1UNL     O5   28   0.577   0.016   0.143
    1UNL    C22   29  -0.052  -0.154  -0.052
    1UNL     H1   30  -0.165   0.527  -0.038
    1UNL     H2   31  -0.026   0.526  -0.155
    1UNL     H3   32  -0.190   0.450  -0.198
    1UNL     H4   33  -0.235   0.200   0.191
    1UNL     H5   34  -0.323   0.075  -0.065
    1UNL     H6   35  -0.273  -0.023   0.068
    1UNL     H7   36  -0.349  -0.127  -0.217
    1UNL     H8   37  -0.224  -0.209  -0.272
    1UNL     H9   38  -0.386  -0.251  -0.012
    1UNL    H10   39  -0.378  -0.361  -0.130
    1UNL    H11   40  -0.152  -0.439  -0.089
    1UNL    H12   41  -0.228  -0.428   0.071
    1UNL    H13   42  -0.076  -0.317   0.230
    1UNL    H14   43  -0.204  -0.216   0.203
    1UNL    H15   44  -0.090  -0.020   0.229
    1UNL    H16   45   0.048  -0.102   0.257
    1UNL    H17   46   0.226  -0.284   0.056
    1UNL    H18   47   0.476  -0.237   0.084
    1UNL    H19   48   0.145   0.240   0.018
    1UNL    H20   49   0.017   0.197  -0.205
    1UNL    H21   50   0.114   0.059  -0.213
    1UNL    H22   51  -0.044  -0.068  -0.303
    1UNL    H23   52  -0.168   0.052  -0.297
    1UNL    H24   53   0.540   0.161   0.283
    1UNL    H25   54   0.635   0.224   0.155
    1UNL    H26   55   0.021  -0.189  -0.126
   0.00000   0.00000   0.00000   0.00000   0.00000   0.00000   0.00000   0.00000   0.00000
Generated with MDTraj, t= 46.0
 55
    1UNL     C1    1  -0.128   0.469  -0.126
    1UNL     O1    2  -0.088   0.337  -0.106
    1UNL     C2    3  -0.178   0.270  -0.025
    1UNL     O2    4  -0.283   0.319   0.014
    1UNL     C3    5  -0.141   0.132   0.032
    1UNL     O3    6  -0.154   0.147   0.168
    1UNL     C4    7  -0.239   0.023  -0.019
    1UNL     C5    8  -0.167  -0.074  -0.118
    1UNL     C6    9  -0.270  -0.173  -0.182
    1UNL     C7   10  -0.315  -0.274  -0.077
    1UNL     C8   11  -0.195  -0.351  -0.019
    1UNL     N1   12  -0.083  -0.275   0.029
    1UNL     C9   13  -0.096  -0.230   0.169
    1UNL    C10   14  -0.012  -0.101   0.183
    1UNL    C11   15   0.032  -0.056   0.043
    1UNL    C12   16   0.178  -0.061   0.058
    1UNL    C13   17   0.263  -0.178   0.057
    1UNL    C14   18   0.397  -0.163   0.097
    1UNL    C15   19   0.447  -0.031   0.118
    1UNL    C16   20   0.364   0.085   0.107
    1UNL    C17   21   0.230   0.067   0.072
    1UNL     N2   22   0.124   0.166   0.056
    1UNL    C18   23   0.005   0.096  -0.004
    1UNL    C19   24   0.019   0.098  -0.158
    1UNL    C20   25  -0.095   0.018  -0.221
    1UNL     O4   26   0.446   0.197   0.136
    1UNL    C21   27   0.575   0.140   0.150
    1UNL     O5   28   0.576   0.003   0.159
    1UNL    C22   29  -0.048  -0.157  -0.058
    1UNL     H1   30  -0.147   0.515  -0.028
    1UNL     H2   31  -0.050   0.530  -0.176
    1UNL     H3   32  -0.222   0.466  -0.176
    1UNL     H4   33  -0.237   0.185   0.184
    1UNL     H5   34  -0.323   0.075  -0.064
    1UNL     H6   35  -0.290  -0.033   0.060
    1UNL     H7   36  -0.341  -0.123  -0.247
    1UNL     H8   37  -0.222  -0.233  -0.253
    1UNL     H9   38  -0.372  -0.234   0.004
    1UNL    H10   39  -0.390  -0.339  -0.120
    1UNL    H11   40  -0.160  -0.421  -0.098
    1UNL    H12   41  -0.235  -0.421   0.058
    1UNL    H13   42  -0.061  -0.294   0.245
    1UNL    H14   43  -0.200  -0.220   0.194
    1UNL    H15   44  -0.069  -0.023   0.230
    1UNL    H16   45   0.071  -0.125   0.243
    1UNL    H17   46   0.226  -0.275   0.045
    1UNL    H18   47   0.467  -0.242   0.101
    1UNL    H19   48   0.138   0.258   0.008
    1UNL    H20   49   0.038   0.201  -0.190
    1UNL    H21   50   0.121   0.051  -0.177
    1UNL    H22   51  -0.059  -0.066  -0.294
    1UNL    H23   52  -0.162   0.082  -0.266
    1UNL    H24   53   0.633   0.181   0.238
    1UNL    H25   54   0.622   0.176   0.062
    1UNL    H26   55   0.011  -0.202  -0.140
   0.00000   0.00000   0.00000   0.00000   0.00000   0.00000   0.00000   0.00000   0.00000
Generated with MDTraj, t= 47.0
 55
    1UNL     C1    1  -0.161   0.452  -0.150
    1UNL     O1    2  -0.091   0.349  -0.100
    1UNL     C2    3  -0.171   0.271  -0.023
    1UNL     O2    4  -0.287   0.301   0.009
    1UNL     C3    5  -0.133   0.134   0.043
    1UNL     O3    6  -0.148   0.151   0.183
    1UNL     C4    7  -0.226   0.028  -0.019
    1UNL     C5    8  -0.153  -0.072  -0.116
    1UNL     C6    9  -0.258  -0.153  -0.194
    1UNL     C7   10  -0.319  -0.262  -0.108
    1UNL     C8   11  -0.212  -0.350  -0.039
    1UNL     N1   12  -0.107  -0.267   0.037
    1UNL     C9   13  -0.122  -0.214   0.176
    1UNL    C10   14  -0.020  -0.103   0.202
    1UNL    C11   15   0.031  -0.065   0.057
    1UNL    C12   16   0.187  -0.076   0.057
    1UNL    C13   17   0.271  -0.191   0.076
    1UNL    C14   18   0.409  -0.166   0.088
    1UNL    C15   19   0.457  -0.035   0.108
    1UNL    C16   20   0.370   0.077   0.091
    1UNL    C17   21   0.236   0.054   0.064
    1UNL     N2   22   0.132   0.156   0.065
    1UNL    C18   23   0.015   0.092   0.011
    1UNL    C19   24   0.028   0.087  -0.144
    1UNL    C20   25  -0.084   0.019  -0.220
    1UNL     O4   26   0.435   0.201   0.127
    1UNL    C21   27   0.567   0.156   0.154
    1UNL     O5   28   0.585   0.016   0.138
    1UNL    C22   29  -0.047  -0.160  -0.042
    1UNL     H1   30  -0.139   0.537  -0.086
    1UNL     H2   31  -0.124   0.477  -0.251
    1UNL     H3   32  -0.265   0.435  -0.144
    1UNL     H4   33  -0.240   0.175   0.207
    1UNL     H5   34  -0.300   0.087  -0.075
    1UNL     H6   35  -0.294  -0.016   0.052
    1UNL     H7   36  -0.334  -0.087  -0.237
    1UNL     H8   37  -0.214  -0.195  -0.277
    1UNL     H9   38  -0.379  -0.212  -0.036
    1UNL    H10   39  -0.393  -0.321  -0.161
    1UNL    H11   40  -0.168  -0.423  -0.111
    1UNL    H12   41  -0.263  -0.420   0.030
    1UNL    H13   42  -0.108  -0.295   0.241
    1UNL    H14   43  -0.223  -0.180   0.197
    1UNL    H15   44  -0.075  -0.024   0.265
    1UNL    H16   45   0.067  -0.143   0.253
    1UNL    H17   46   0.227  -0.286   0.110
    1UNL    H18   47   0.475  -0.250   0.112
    1UNL    H19   48   0.151   0.254   0.035
    1UNL    H20   49   0.047   0.192  -0.178
    1UNL    H21   50   0.129   0.041  -0.164
    1UNL    H22   51  -0.041  -0.044  -0.299
    1UNL    H23   52  -0.164   0.080  -0.256
    1UNL    H24   53   0.584   0.191   0.261
    1UNL    H25   54   0.639   0.204   0.089
    1UNL    H26   55   0.027  -0.212  -0.107
   0.00000   0.00000   0.00000   0.00000   0.00000   0.00000   0.00000   0.00000   0.00000
Generated with MDTraj, t= 48.0
 55
    1UNL     C1    1  -0.139   0.445  -0.152
    1UNL     O1    2  -0.092   0.321  -0.109
    1UNL     C2    3  -0.169   0.269  -0.015
    1UNL     O2    4  -0.279   0.316   0.021
    1UNL     C3    5  -0.136   0.132   0.046
    1UNL     O3    6  -0.175   0.144   0.183
    1UNL     C4    7  -0.226   0.026  -0.025
    1UNL     C5    8  -0.150  -0.072  -0.127
    1UNL     C6    9  -0.242  -0.169  -0.202
    1UNL     C7   10  -0.324  -0.255  -0.102
    1UNL     C8   11  -0.225  -0.341  -0.024
    1UNL     N1   12  -0.103  -0.271   0.034
    1UNL     C9   13  -0.128  -0.223   0.177
    1UNL    C10   14  -0.036  -0.099   0.197
    1UNL    C11   15   0.030  -0.065   0.055
    1UNL    C12   16   0.183  -0.072   0.075
    1UNL    C13   17   0.271  -0.172   0.057
    1UNL    C14   18   0.407  -0.156   0.072
    1UNL    C15   19   0.455  -0.026   0.099
    1UNL    C16   20   0.370   0.086   0.116
    1UNL    C17   21   0.229   0.067   0.099
    1UNL     N2   22   0.114   0.152   0.093
    1UNL    C18   23   0.011   0.084   0.009
    1UNL    C19   24   0.042   0.092  -0.148
    1UNL    C20   25  -0.071   0.015  -0.226
    1UNL     O4   26   0.441   0.202   0.139
    1UNL    C21   27   0.580   0.156   0.122
    1UNL     O5   28   0.590   0.009   0.121
    1UNL    C22   29  -0.041  -0.156  -0.043
    1UNL     H1   30  -0.185   0.487  -0.062
    1UNL     H2   31  -0.057   0.517  -0.182
    1UNL     H3   32  -0.216   0.442  -0.223
    1UNL     H4   33  -0.265   0.197   0.198
    1UNL     H5   34  -0.314   0.070  -0.072
    1UNL     H6   35  -0.279  -0.027   0.051
    1UNL     H7   36  -0.313  -0.111  -0.257
    1UNL     H8   37  -0.193  -0.230  -0.270
    1UNL     H9   38  -0.387  -0.200  -0.037
    1UNL    H10   39  -0.389  -0.312  -0.168
    1UNL    H11   40  -0.194  -0.426  -0.089
    1UNL    H12   41  -0.275  -0.392   0.060
    1UNL    H13   42  -0.116  -0.300   0.248
    1UNL    H14   43  -0.234  -0.198   0.190
    1UNL    H15   44  -0.089  -0.007   0.231
    1UNL    H16   45   0.038  -0.127   0.282
    1UNL    H17   46   0.235  -0.274   0.057
    1UNL    H18   47   0.464  -0.246   0.077
    1UNL    H19   48   0.120   0.253   0.074
    1UNL    H20   49   0.054   0.198  -0.186
    1UNL    H21   50   0.138   0.036  -0.159
    1UNL    H22   51  -0.028  -0.043  -0.299
    1UNL    H23   52  -0.150   0.085  -0.261
    1UNL    H24   53   0.634   0.201   0.210
    1UNL    H25   54   0.620   0.193   0.026
    1UNL    H26   55   0.033  -0.205  -0.110
   0.00000   0.00000   0.00000   0.00000   0.00000   0.00000   0.00000   0.00000   0.00000
Generated with MDTraj, t= 49.0
 55
    1UNL     C1    1  -0.121   0.458  -0.144
    1UNL     O1    2  -0.078   0.331  -0.103
    1UNL     C2    3  -0.162   0.276  -0.015
    1UNL     O2    4  -0.262   0.333   0.028
    1UNL     C3    5  -0.142   0.134   0.037
    1UNL     O3    6  -0.176   0.141   0.175
    1UNL     C4    7  -0.236   0.028  -0.036
    1UNL     C5    8  -0.152  -0.074  -0.125
    1UNL     C6    9  -0.242  -0.172  -0.205
    1UNL     C7   10  -0.299  -0.283  -0.109
    1UNL     C8   11  -0.200  -0.356  -0.018
    1UNL     N1   12  -0.113  -0.255   0.046
    1UNL     C9   13  -0.139  -0.208   0.179
    1UNL    C10   14  -0.040  -0.094   0.198
    1UNL    C11   15   0.024  -0.070   0.066
    1UNL    C12   16   0.180  -0.079   0.081
    1UNL    C13   17   0.265  -0.182   0.055
    1UNL    C14   18   0.400  -0.147   0.060
    1UNL    C15   19   0.443  -0.024   0.088
    1UNL    C16   20   0.358   0.083   0.109
    1UNL    C17   21   0.221   0.053   0.102
    1UNL     N2   22   0.111   0.138   0.104
    1UNL    C18   23   0.006   0.083   0.015
    1UNL    C19   24   0.045   0.090  -0.133
    1UNL    C20   25  -0.053   0.005  -0.223
    1UNL     O4   26   0.429   0.205   0.123
    1UNL    C21   27   0.566   0.155   0.135
    1UNL     O5   28   0.578   0.020   0.089
    1UNL    C22   29  -0.046  -0.159  -0.035
    1UNL     H1   30  -0.166   0.508  -0.056
    1UNL     H2   31  -0.035   0.524  -0.180
    1UNL     H3   32  -0.195   0.459  -0.219
    1UNL     H4   33  -0.248   0.194   0.197
    1UNL     H5   34  -0.319   0.078  -0.084
    1UNL     H6   35  -0.295  -0.025   0.036
    1UNL     H7   36  -0.316  -0.120  -0.260
    1UNL     H8   37  -0.182  -0.223  -0.276
    1UNL     H9   38  -0.361  -0.225  -0.046
    1UNL    H10   39  -0.361  -0.360  -0.157
    1UNL    H11   40  -0.134  -0.426  -0.074
    1UNL    H12   41  -0.256  -0.416   0.055
    1UNL    H13   42  -0.123  -0.291   0.241
    1UNL    H14   43  -0.246  -0.182   0.185
    1UNL    H15   44  -0.087  -0.004   0.237
    1UNL    H16   45   0.047  -0.124   0.277
    1UNL    H17   46   0.218  -0.273   0.024
    1UNL    H18   47   0.481  -0.218   0.060
    1UNL    H19   48   0.133   0.235   0.087
    1UNL    H20   49   0.044   0.202  -0.159
    1UNL    H21   50   0.146   0.044  -0.142
    1UNL    H22   51  -0.009  -0.071  -0.273
    1UNL    H23   52  -0.104   0.083  -0.281
    1UNL    H24   53   0.603   0.144   0.240
    1UNL    H25   54   0.621   0.227   0.071
    1UNL    H26   55   0.025  -0.205  -0.106
   0.00000   0.00000   0.00000   0.00000   0.00000   0.00000   0.00000   0.00000   0.00000
Generated with MDTraj, t= 50.0
 55
    1UNL     C1    1  -0.100   0.464  -0.119
    1UNL     O1    2  -0.066   0.331  -0.088
    1UNL     C2    3  -0.169   0.272  -0.023
    1UNL     O2    4  -0.276   0.318   0.014
    1UNL     C3    5  -0.146   0.127   0.029
    1UNL     O3    6  -0.172   0.130   0.175
    1UNL     C4    7  -0.236   0.018  -0.043
    1UNL     C5    8  -0.152  -0.077  -0.131
    1UNL     C6    9  -0.245  -0.177  -0.210
    1UNL     C7   10  -0.321  -0.269  -0.108
    1UNL     C8   11  -0.223  -0.352  -0.023
    1UNL     N1   12  -0.118  -0.264   0.044
    1UNL     C9   13  -0.136  -0.213   0.185
    1UNL    C10   14  -0.033  -0.099   0.200
    1UNL    C11   15   0.024  -0.066   0.065
    1UNL    C12   16   0.177  -0.073   0.075
    1UNL    C13   17   0.268  -0.179   0.066
    1UNL    C14   18   0.401  -0.141   0.078
    1UNL    C15   19   0.449  -0.014   0.097
    1UNL    C16   20   0.360   0.095   0.118
    1UNL    C17   21   0.222   0.059   0.107
    1UNL     N2   22   0.110   0.145   0.098
    1UNL    C18   23   0.003   0.081   0.013
    1UNL    C19   24   0.043   0.085  -0.138
    1UNL    C20   25  -0.051   0.002  -0.225
    1UNL     O4   26   0.440   0.203   0.130
    1UNL    C21   27   0.576   0.163   0.106
    1UNL     O5   28   0.578   0.026   0.091
    1UNL    C22   29  -0.047  -0.157  -0.034
    1UNL     H1   30  -0.057   0.536  -0.046
    1UNL     H2   31  -0.058   0.490  -0.223
    1UNL     H3   32  -0.203   0.484  -0.123
    1UNL     H4   33  -0.253   0.197   0.192
    1UNL     H5   34  -0.311   0.051  -0.110
    1UNL     H6   35  -0.296  -0.026   0.036
    1UNL     H7   36  -0.323  -0.123  -0.253
    1UNL     H8   37  -0.192  -0.220  -0.295
    1UNL     H9   38  -0.385  -0.219  -0.039
    1UNL    H10   39  -0.387  -0.334  -0.168
    1UNL    H11   40  -0.166  -0.415  -0.094
    1UNL    H12   41  -0.270  -0.418   0.049
    1UNL    H13   42  -0.118  -0.293   0.252
    1UNL    H14   43  -0.239  -0.176   0.192
    1UNL    H15   44  -0.075  -0.008   0.250
    1UNL    H16   45   0.043  -0.139   0.276
    1UNL    H17   46   0.236  -0.286   0.058
    1UNL    H18   47   0.473  -0.222   0.082
    1UNL    H19   48   0.142   0.229   0.057
    1UNL    H20   49   0.043   0.196  -0.167
    1UNL    H21   50   0.151   0.055  -0.135
    1UNL    H22   51   0.006  -0.066  -0.283
    1UNL    H23   52  -0.114   0.057  -0.294
    1UNL    H24   53   0.635   0.185   0.195
    1UNL    H25   54   0.619   0.204   0.012
    1UNL    H26   55   0.021  -0.203  -0.109
   0.00000   0.00000   0.00000   0.00000   0.00000   0.00000   0.00000   0.00000   0.00000
Generated with MDTraj, t= 51.0
 55
    1UNL     C1    1  -0.104   0.471  -0.099
    1UNL     O1    2  -0.058   0.340  -0.064
    1UNL     C2    3  -0.172   0.274  -0.017
    1UNL     O2    4  -0.287   0.306  -0.011
    1UNL     C3    5  -0.140   0.129   0.031
    1UNL     O3    6  -0.165   0.137   0.176
    1UNL     C4    7  -0.228   0.021  -0.039
    1UNL     C5    8  -0.147  -0.084  -0.124
    1UNL     C6    9  -0.240  -0.176  -0.204
    1UNL     C7   10  -0.326  -0.259  -0.111
    1UNL     C8   11  -0.235  -0.349  -0.022
    1UNL     N1   12  -0.121  -0.269   0.046
    1UNL     C9   13  -0.141  -0.216   0.187
    1UNL    C10   14  -0.031  -0.106   0.196
    1UNL    C11   15   0.031  -0.077   0.057
    1UNL    C12   16   0.187  -0.071   0.076
    1UNL    C13   17   0.275  -0.175   0.070
    1UNL    C14   18   0.408  -0.159   0.092
    1UNL    C15   19   0.455  -0.025   0.105
    1UNL    C16   20   0.364   0.083   0.090
    1UNL    C17   21   0.230   0.064   0.080
    1UNL     N2   22   0.115   0.151   0.090
    1UNL    C18   23   0.011   0.078   0.008
    1UNL    C19   24   0.037   0.085  -0.151
    1UNL    C20   25  -0.070   0.010  -0.226
    1UNL     O4   26   0.429   0.209   0.096
    1UNL    C21   27   0.561   0.173   0.118
    1UNL     O5   28   0.582   0.030   0.123
    1UNL    C22   29  -0.046  -0.170  -0.031
    1UNL     H1   30  -0.108   0.535  -0.010
    1UNL     H2   31  -0.033   0.520  -0.176
    1UNL     H3   32  -0.200   0.474  -0.143
    1UNL     H4   33  -0.241   0.197   0.188
    1UNL     H5   34  -0.303   0.064  -0.098
    1UNL     H6   35  -0.286  -0.029   0.040
    1UNL     H7   36  -0.287  -0.116  -0.275
    1UNL     H8   37  -0.178  -0.244  -0.266
    1UNL     H9   38  -0.391  -0.195  -0.055
    1UNL    H10   39  -0.395  -0.330  -0.161
    1UNL    H11   40  -0.196  -0.439  -0.074
    1UNL    H12   41  -0.294  -0.388   0.058
    1UNL    H13   42  -0.131  -0.297   0.256
    1UNL    H14   43  -0.240  -0.168   0.192
    1UNL    H15   44  -0.081  -0.014   0.241
    1UNL    H16   45   0.039  -0.134   0.271
    1UNL    H17   46   0.235  -0.270   0.070
    1UNL    H18   47   0.479  -0.236   0.101
    1UNL    H19   48   0.107   0.245   0.058
    1UNL    H20   49   0.044   0.195  -0.175
    1UNL    H21   50   0.142   0.046  -0.159
    1UNL    H22   51  -0.034  -0.045  -0.321
    1UNL    H23   52  -0.142   0.077  -0.264
    1UNL    H24   53   0.591   0.224   0.207
    1UNL    H25   54   0.634   0.196   0.036
    1UNL    H26   55   0.031  -0.218  -0.097
   0.00000   0.00000   0.00000   0.00000   0.00000   0.00000   0.00000   0.00000   0.00000
Generated with MDTraj, t= 52.0
 55
    1UNL     C1    1  -0.097   0.472  -0.089
    1UNL     O1    2  -0.056   0.351  -0.029
    1UNL     C2    3  -0.172   0.275  -0.021
    1UNL     O2    4  -0.283   0.299  -0.050
    1UNL     C3    5  -0.144   0.133   0.028
    1UNL     O3    6  -0.165   0.128   0.170
    1UNL     C4    7  -0.240   0.024  -0.037
    1UNL     C5    8  -0.156  -0.089  -0.127
    1UNL     C6    9  -0.265  -0.180  -0.190
    1UNL     C7   10  -0.319  -0.277  -0.089
    1UNL     C8   11  -0.215  -0.358  -0.019
    1UNL     N1   12  -0.108  -0.269   0.048
    1UNL     C9   13  -0.129  -0.206   0.181
    1UNL    C10   14  -0.021  -0.093   0.201
    1UNL    C11   15   0.027  -0.063   0.049
    1UNL    C12   16   0.178  -0.069   0.059
    1UNL    C13   17   0.268  -0.177   0.073
    1UNL    C14   18   0.403  -0.153   0.091
    1UNL    C15   19   0.456  -0.024   0.106
    1UNL    C16   20   0.364   0.084   0.096
    1UNL    C17   21   0.226   0.064   0.068
    1UNL     N2   22   0.117   0.158   0.060
    1UNL    C18   23   0.005   0.084  -0.003
    1UNL    C19   24   0.022   0.097  -0.159
    1UNL    C20   25  -0.084   0.007  -0.228
    1UNL     O4   26   0.433   0.203   0.128
    1UNL    C21   27   0.570   0.167   0.131
    1UNL     O5   28   0.586   0.019   0.123
    1UNL    C22   29  -0.049  -0.169  -0.043
    1UNL     H1   30  -0.199   0.499  -0.065
    1UNL     H2   31  -0.025   0.547  -0.044
    1UNL     H3   32  -0.077   0.473  -0.191
    1UNL     H4   33  -0.103   0.189   0.199
    1UNL     H5   34  -0.316   0.069  -0.093
    1UNL     H6   35  -0.294  -0.027   0.042
    1UNL     H7   36  -0.338  -0.128  -0.243
    1UNL     H8   37  -0.201  -0.238  -0.260
    1UNL     H9   38  -0.374  -0.230  -0.008
    1UNL    H10   39  -0.396  -0.338  -0.142
    1UNL    H11   40  -0.161  -0.416  -0.095
    1UNL    H12   41  -0.251  -0.433   0.047
    1UNL    H13   42  -0.117  -0.281   0.258
    1UNL    H14   43  -0.229  -0.162   0.187
    1UNL    H15   44  -0.052  -0.016   0.273
    1UNL    H16   45   0.054  -0.135   0.260
    1UNL    H17   46   0.223  -0.276   0.102
    1UNL    H18   47   0.472  -0.241   0.102
    1UNL    H19   48   0.143   0.243   0.013
    1UNL    H20   49   0.021   0.209  -0.168
    1UNL    H21   50   0.126   0.055  -0.186
    1UNL    H22   51  -0.044  -0.057  -0.320
    1UNL    H23   52  -0.153   0.077  -0.269
    1UNL    H24   53   0.623   0.187   0.220
    1UNL    H25   54   0.620   0.221   0.045
    1UNL    H26   55   0.021  -0.231  -0.107
   0.00000   0.00000   0.00000   0.00000   0.00000   0.00000   0.00000   0.00000   0.00000
Generated with MDTraj, t= 53.0
 55
    1UNL     C1    1  -0.097   0.484  -0.067
    1UNL     O1    2  -0.064   0.362  -0.004
    1UNL     C2    3  -0.159   0.268  -0.042
    1UNL     O2    4  -0.240   0.280  -0.129
    1UNL     C3    5  -0.146   0.133   0.030
    1UNL     O3    6  -0.154   0.158   0.172
    1UNL     C4    7  -0.247   0.020  -0.011
    1UNL     C5    8  -0.169  -0.076  -0.115
    1UNL     C6    9  -0.273  -0.177  -0.183
    1UNL     C7   10  -0.317  -0.287  -0.074
    1UNL     C8   11  -0.208  -0.366  -0.007
    1UNL     N1   12  -0.101  -0.270   0.042
    1UNL     C9   13  -0.096  -0.237   0.188
    1UNL    C10   14  -0.035  -0.097   0.196
    1UNL    C11   15   0.021  -0.065   0.052
    1UNL    C12   16   0.172  -0.069   0.055
    1UNL    C13   17   0.265  -0.175   0.040
    1UNL    C14   18   0.402  -0.152   0.057
    1UNL    C15   19   0.444  -0.025   0.092
    1UNL    C16   20   0.360   0.091   0.098
    1UNL    C17   21   0.225   0.061   0.073
    1UNL     N2   22   0.122   0.157   0.067
    1UNL    C18   23   0.003   0.082   0.004
    1UNL    C19   24   0.017   0.098  -0.154
    1UNL    C20   25  -0.094   0.011  -0.216
    1UNL     O4   26   0.429   0.211   0.124
    1UNL    C21   27   0.560   0.161   0.152
    1UNL     O5   28   0.572   0.014   0.139
    1UNL    C22   29  -0.055  -0.160  -0.051
    1UNL     H1   30  -0.194   0.520  -0.035
    1UNL     H2   31  -0.014   0.555  -0.034
    1UNL     H3   32  -0.085   0.475  -0.171
    1UNL     H4   33  -0.075   0.209   0.184
    1UNL     H5   34  -0.329   0.067  -0.059
    1UNL     H6   35  -0.287  -0.042   0.066
    1UNL     H7   36  -0.355  -0.115  -0.209
    1UNL     H8   37  -0.226  -0.222  -0.272
    1UNL     H9   38  -0.375  -0.234   0.002
    1UNL    H10   39  -0.388  -0.362  -0.115
    1UNL    H11   40  -0.162  -0.421  -0.090
    1UNL    H12   41  -0.235  -0.438   0.066
    1UNL    H13   42  -0.027  -0.308   0.235
    1UNL    H14   43  -0.188  -0.245   0.244
    1UNL    H15   44  -0.105  -0.033   0.234
    1UNL    H16   45   0.032  -0.082   0.275
    1UNL    H17   46   0.223  -0.273   0.039
    1UNL    H18   47   0.468  -0.232   0.060
    1UNL    H19   48   0.146   0.249   0.028
    1UNL    H20   49  -0.002   0.204  -0.181
    1UNL    H21   50   0.123   0.062  -0.189
    1UNL    H22   51  -0.030  -0.053  -0.289
    1UNL    H23   52  -0.169   0.066  -0.274
    1UNL    H24   53   0.593   0.181   0.251
    1UNL    H25   54   0.633   0.207   0.077
    1UNL    H26   55   0.012  -0.216  -0.122
   0.00000   0.00000   0.00000   0.00000   0.00000   0.00000   0.00000   0.00000   0.00000
Generated with MDTraj, t= 54.0
 55
    1UNL     C1    1  -0.129   0.494  -0.067
    1UNL     O1    2  -0.125   0.381   0.018
    1UNL     C2    3  -0.160   0.268  -0.050
    1UNL     O2    4  -0.197   0.271  -0.166
    1UNL     C3    5  -0.135   0.134   0.037
    1UNL     O3    6  -0.154   0.159   0.182
    1UNL     C4    7  -0.234   0.030  -0.005
    1UNL     C5    8  -0.164  -0.074  -0.113
    1UNL     C6    9  -0.278  -0.169  -0.167
    1UNL     C7   10  -0.335  -0.273  -0.066
    1UNL     C8   11  -0.222  -0.358  -0.009
    1UNL     N1   12  -0.105  -0.272   0.034
    1UNL     C9   13  -0.095  -0.242   0.177
    1UNL    C10   14  -0.029  -0.104   0.190
    1UNL    C11   15   0.026  -0.072   0.048
    1UNL    C12   16   0.185  -0.079   0.060
    1UNL    C13   17   0.273  -0.181   0.059
    1UNL    C14   18   0.410  -0.156   0.071
    1UNL    C15   19   0.450  -0.022   0.100
    1UNL    C16   20   0.362   0.086   0.105
    1UNL    C17   21   0.231   0.055   0.077
    1UNL     N2   22   0.120   0.143   0.067
    1UNL    C18   23   0.005   0.087  -0.004
    1UNL    C19   24   0.022   0.093  -0.161
    1UNL    C20   25  -0.096   0.007  -0.229
    1UNL     O4   26   0.430   0.199   0.140
    1UNL    C21   27   0.564   0.159   0.147
    1UNL     O5   28   0.582   0.025   0.109
    1UNL    C22   29  -0.051  -0.163  -0.050
    1UNL     H1   30  -0.220   0.550  -0.054
    1UNL     H2   31  -0.041   0.559  -0.038
    1UNL     H3   32  -0.114   0.465  -0.169
    1UNL     H4   33  -0.085   0.237   0.197
    1UNL     H5   34  -0.318   0.077  -0.053
    1UNL     H6   35  -0.268  -0.016   0.083
    1UNL     H7   36  -0.357  -0.103  -0.206
    1UNL     H8   37  -0.232  -0.227  -0.245
    1UNL     H9   38  -0.396  -0.229   0.016
    1UNL    H10   39  -0.402  -0.339  -0.125
    1UNL    H11   40  -0.187  -0.447  -0.062
    1UNL    H12   41  -0.263  -0.394   0.082
    1UNL    H13   42  -0.033  -0.320   0.226
    1UNL    H14   43  -0.194  -0.246   0.219
    1UNL    H15   44  -0.091  -0.032   0.235
    1UNL    H16   45   0.045  -0.103   0.261
    1UNL    H17   46   0.236  -0.278   0.036
    1UNL    H18   47   0.490  -0.231   0.087
    1UNL    H19   48   0.135   0.236   0.029
    1UNL    H20   49   0.012   0.197  -0.201
    1UNL    H21   50   0.127   0.047  -0.181
    1UNL    H22   51  -0.057  -0.063  -0.304
    1UNL    H23   52  -0.170   0.075  -0.286
    1UNL    H24   53   0.590   0.175   0.249
    1UNL    H25   54   0.641   0.212   0.079
    1UNL    H26   55   0.024  -0.200  -0.127
   0.00000   0.00000   0.00000   0.00000   0.00000   0.00000   0.00000   0.00000   0.00000
Generated with MDTraj, t= 55.0
 55
    1UNL     C1    1  -0.188   0.489  -0.032
    1UNL     O1    2  -0.133   0.379   0.028
    1UNL     C2    3  -0.161   0.264  -0.043
    1UNL     O2    4  -0.213   0.265  -0.154
    1UNL     C3    5  -0.132   0.133   0.024
    1UNL     O3    6  -0.150   0.151   0.162
    1UNL     C4    7  -0.228   0.023  -0.024
    1UNL     C5    8  -0.161  -0.078  -0.120
    1UNL     C6    9  -0.265  -0.168  -0.184
    1UNL     C7   10  -0.327  -0.272  -0.095
    1UNL     C8   11  -0.221  -0.350  -0.013
    1UNL     N1   12  -0.115  -0.260   0.055
    1UNL     C9   13  -0.128  -0.202   0.188
    1UNL    C10   14  -0.016  -0.092   0.198
    1UNL    C11   15   0.033  -0.060   0.056
    1UNL    C12   16   0.184  -0.069   0.062
    1UNL    C13   17   0.272  -0.177   0.061
    1UNL    C14   18   0.407  -0.165   0.084
    1UNL    C15   19   0.452  -0.035   0.103
    1UNL    C16   20   0.365   0.079   0.100
    1UNL    C17   21   0.230   0.064   0.074
    1UNL     N2   22   0.130   0.156   0.060
    1UNL    C18   23   0.015   0.083   0.001
    1UNL    C19   24   0.044   0.081  -0.151
    1UNL    C20   25  -0.075   0.001  -0.217
    1UNL     O4   26   0.441   0.190   0.105
    1UNL    C21   27   0.575   0.149   0.118
    1UNL     O5   28   0.578   0.008   0.128
    1UNL    C22   29  -0.047  -0.159  -0.036
    1UNL     H1   30  -0.273   0.455  -0.091
    1UNL     H2   31  -0.223   0.554   0.053
    1UNL     H3   32  -0.114   0.539  -0.094
    1UNL     H4   33  -0.126   0.241   0.195
    1UNL     H5   34  -0.308   0.075  -0.075
    1UNL     H6   35  -0.264  -0.028   0.061
    1UNL     H7   36  -0.344  -0.094  -0.217
    1UNL     H8   37  -0.217  -0.213  -0.269
    1UNL     H9   38  -0.388  -0.212  -0.021
    1UNL    H10   39  -0.391  -0.342  -0.151
    1UNL    H11   40  -0.172  -0.429  -0.069
    1UNL    H12   41  -0.270  -0.402   0.066
    1UNL    H13   42  -0.105  -0.290   0.256
    1UNL    H14   43  -0.229  -0.167   0.206
    1UNL    H15   44  -0.054  -0.001   0.253
    1UNL    H16   45   0.061  -0.123   0.259
    1UNL    H17   46   0.236  -0.283   0.055
    1UNL    H18   47   0.471  -0.249   0.102
    1UNL    H19   48   0.153   0.248   0.024
    1UNL    H20   49   0.053   0.186  -0.190
    1UNL    H21   50   0.146   0.033  -0.171
    1UNL    H22   51  -0.043  -0.066  -0.295
    1UNL    H23   52  -0.142   0.072  -0.287
    1UNL    H24   53   0.621   0.189   0.206
    1UNL    H25   54   0.644   0.187   0.033
    1UNL    H26   55   0.021  -0.203  -0.116
   0.00000   0.00000   0.00000   0.00000   0.00000   0.00000   0.00000   0.00000   0.00000
Generated with MDTraj, t= 56.0
 55
    1UNL     C1    1  -0.198   0.499  -0.010
    1UNL     O1    2  -0.152   0.376   0.045
    1UNL     C2    3  -0.172   0.273  -0.036
    1UNL     O2    4  -0.214   0.281  -0.152
    1UNL     C3    5  -0.140   0.133   0.025
    1UNL     O3    6  -0.174   0.141   0.160
    1UNL     C4    7  -0.224   0.020  -0.046
    1UNL     C5    8  -0.143  -0.087  -0.126
    1UNL     C6    9  -0.235  -0.188  -0.199
    1UNL     C7   10  -0.320  -0.275  -0.100
    1UNL     C8   11  -0.222  -0.347   0.000
    1UNL     N1   12  -0.112  -0.264   0.064
    1UNL     C9   13  -0.134  -0.188   0.187
    1UNL    C10   14  -0.025  -0.074   0.196
    1UNL    C11   15   0.028  -0.048   0.058
    1UNL    C12   16   0.182  -0.059   0.074
    1UNL    C13   17   0.256  -0.180   0.085
    1UNL    C14   18   0.395  -0.171   0.097
    1UNL    C15   19   0.453  -0.049   0.099
    1UNL    C16   20   0.374   0.067   0.085
    1UNL    C17   21   0.236   0.065   0.080
    1UNL     N2   22   0.139   0.164   0.059
    1UNL    C18   23   0.010   0.093  -0.003
    1UNL    C19   24   0.035   0.087  -0.157
    1UNL    C20   25  -0.060  -0.005  -0.222
    1UNL     O4   26   0.457   0.183   0.086
    1UNL    C21   27   0.588   0.144   0.112
    1UNL     O5   28   0.587   0.000   0.108
    1UNL    C22   29  -0.044  -0.162  -0.028
    1UNL     H1   30  -0.225   0.480  -0.115
    1UNL     H2   31  -0.295   0.514   0.044
    1UNL     H3   32  -0.123   0.581  -0.006
    1UNL     H4   33  -0.151   0.227   0.196
    1UNL     H5   34  -0.292   0.074  -0.109
    1UNL     H6   35  -0.280  -0.035   0.031
    1UNL     H7   36  -0.305  -0.123  -0.262
    1UNL     H8   37  -0.172  -0.246  -0.261
    1UNL     H9   38  -0.398  -0.221  -0.038
    1UNL    H10   39  -0.368  -0.353  -0.161
    1UNL    H11   40  -0.165  -0.422  -0.054
    1UNL    H12   41  -0.276  -0.404   0.073
    1UNL    H13   42  -0.121  -0.260   0.273
    1UNL    H14   43  -0.238  -0.152   0.188
    1UNL    H15   44  -0.071   0.021   0.239
    1UNL    H16   45   0.059  -0.098   0.260
    1UNL    H17   46   0.196  -0.263   0.102
    1UNL    H18   47   0.451  -0.256   0.125
    1UNL    H19   48   0.164   0.253   0.025
    1UNL    H20   49   0.031   0.194  -0.194
    1UNL    H21   50   0.138   0.051  -0.182
    1UNL    H22   51  -0.027  -0.056  -0.311
    1UNL    H23   52  -0.141   0.061  -0.279
    1UNL    H24   53   0.634   0.173   0.203
    1UNL    H25   54   0.648   0.197   0.029
    1UNL    H26   55   0.036  -0.204  -0.096
   0.00000   0.00000   0.00000   0.00000   0.00000   0.00000   0.00000   0.00000   0.00000
Generated with MDTraj, t= 57.0
 55
    1UNL     C1    1  -0.173   0.499  -0.020
    1UNL     O1    2  -0.153   0.380   0.049
    1UNL     C2    3  -0.153   0.274  -0.037
    1UNL     O2    4  -0.172   0.285  -0.158
    1UNL     C3    5  -0.137   0.132   0.027
    1UNL     O3    6  -0.183   0.141   0.160
    1UNL     C4    7  -0.227   0.021  -0.044
    1UNL     C5    8  -0.143  -0.087  -0.123
    1UNL     C6    9  -0.238  -0.193  -0.192
    1UNL     C7   10  -0.317  -0.276  -0.092
    1UNL     C8   11  -0.219  -0.350  -0.002
    1UNL     N1   12  -0.119  -0.268   0.060
    1UNL     C9   13  -0.136  -0.193   0.179
    1UNL    C10   14  -0.037  -0.082   0.198
    1UNL    C11   15   0.024  -0.061   0.057
    1UNL    C12   16   0.176  -0.068   0.076
    1UNL    C13   17   0.260  -0.179   0.073
    1UNL    C14   18   0.396  -0.167   0.091
    1UNL    C15   19   0.451  -0.036   0.097
    1UNL    C16   20   0.368   0.076   0.096
    1UNL    C17   21   0.232   0.066   0.087
    1UNL     N2   22   0.126   0.161   0.077
    1UNL    C18   23   0.013   0.087   0.009
    1UNL    C19   24   0.035   0.088  -0.146
    1UNL    C20   25  -0.059  -0.010  -0.224
    1UNL     O4   26   0.441   0.189   0.096
    1UNL    C21   27   0.578   0.151   0.082
    1UNL     O5   28   0.582   0.010   0.097
    1UNL    C22   29  -0.051  -0.165  -0.025
    1UNL     H1   30  -0.077   0.541  -0.054
    1UNL     H2   31  -0.246   0.470  -0.099
    1UNL     H3   32  -0.216   0.570   0.053
    1UNL     H4   33  -0.142   0.230   0.203
    1UNL     H5   34  -0.297   0.070  -0.107
    1UNL     H6   35  -0.282  -0.022   0.044
    1UNL     H7   36  -0.302  -0.128  -0.261
    1UNL     H8   37  -0.176  -0.260  -0.246
    1UNL     H9   38  -0.390  -0.209  -0.033
    1UNL    H10   39  -0.369  -0.357  -0.144
    1UNL    H11   40  -0.163  -0.424  -0.059
    1UNL    H12   41  -0.269  -0.409   0.073
    1UNL    H13   42  -0.132  -0.263   0.268
    1UNL    H14   43  -0.239  -0.155   0.170
    1UNL    H15   44  -0.082   0.009   0.237
    1UNL    H16   45   0.051  -0.117   0.266
    1UNL    H17   46   0.213  -0.281   0.080
    1UNL    H18   47   0.465  -0.253   0.081
    1UNL    H19   48   0.142   0.256   0.050
    1UNL    H20   49   0.003   0.190  -0.187
    1UNL    H21   50   0.140   0.077  -0.174
    1UNL    H22   51  -0.010  -0.080  -0.292
    1UNL    H23   52  -0.121   0.048  -0.295
    1UNL    H24   53   0.625   0.205   0.160
    1UNL    H25   54   0.627   0.180  -0.017
    1UNL    H26   55   0.027  -0.227  -0.079
   0.00000   0.00000   0.00000   0.00000   0.00000   0.00000   0.00000   0.00000   0.00000
Generated with MDTraj, t= 58.0
 55
    1UNL     C1    1  -0.140   0.495  -0.038
    1UNL     O1    2  -0.139   0.377   0.036
    1UNL     C2    3  -0.143   0.265  -0.044
    1UNL     O2    4  -0.145   0.274  -0.163
    1UNL     C3    5  -0.139   0.129   0.025
    1UNL     O3    6  -0.156   0.154   0.167
    1UNL     C4    7  -0.236   0.013  -0.027
    1UNL     C5    8  -0.153  -0.080  -0.114
    1UNL     C6    9  -0.255  -0.176  -0.188
    1UNL     C7   10  -0.327  -0.272  -0.098
    1UNL     C8   11  -0.228  -0.352  -0.018
    1UNL     N1   12  -0.133  -0.263   0.052
    1UNL     C9   13  -0.148  -0.209   0.190
    1UNL    C10   14  -0.040  -0.101   0.211
    1UNL    C11   15   0.023  -0.070   0.073
    1UNL    C12   16   0.178  -0.080   0.084
    1UNL    C13   17   0.274  -0.179   0.064
    1UNL    C14   18   0.409  -0.151   0.072
    1UNL    C15   19   0.446  -0.015   0.085
    1UNL    C16   20   0.353   0.088   0.093
    1UNL    C17   21   0.222   0.054   0.101
    1UNL     N2   22   0.117   0.149   0.083
    1UNL    C18   23   0.014   0.075   0.012
    1UNL    C19   24   0.052   0.071  -0.134
    1UNL    C20   25  -0.062  -0.011  -0.215
    1UNL     O4   26   0.421   0.207   0.097
    1UNL    C21   27   0.565   0.165   0.103
    1UNL     O5   28   0.579   0.030   0.076
    1UNL    C22   29  -0.065  -0.160  -0.031
    1UNL     H1   30  -0.117   0.578   0.031
    1UNL     H2   31  -0.075   0.477  -0.124
    1UNL     H3   32  -0.243   0.509  -0.071
    1UNL     H4   33  -0.098   0.219   0.194
    1UNL     H5   34  -0.316   0.055  -0.086
    1UNL     H6   35  -0.285  -0.044   0.055
    1UNL     H7   36  -0.333  -0.111  -0.238
    1UNL     H8   37  -0.198  -0.226  -0.266
    1UNL     H9   38  -0.397  -0.218  -0.026
    1UNL    H10   39  -0.386  -0.334  -0.167
    1UNL    H11   40  -0.164  -0.413  -0.083
    1UNL    H12   41  -0.269  -0.431   0.046
    1UNL    H13   42  -0.138  -0.303   0.253
    1UNL    H14   43  -0.249  -0.173   0.219
    1UNL    H15   44  -0.083  -0.009   0.244
    1UNL    H16   45   0.047  -0.138   0.286
    1UNL    H17   46   0.254  -0.281   0.045
    1UNL    H18   47   0.486  -0.223   0.075
    1UNL    H19   48   0.142   0.241   0.047
    1UNL    H20   49   0.059   0.178  -0.175
    1UNL    H21   50   0.149   0.024  -0.148
    1UNL    H22   51  -0.019  -0.078  -0.293
    1UNL    H23   52  -0.124   0.049  -0.269
    1UNL    H24   53   0.593   0.192   0.203
    1UNL    H25   54   0.628   0.217   0.027
    1UNL    H26   55   0.007  -0.219  -0.096
   0.00000   0.00000   0.00000   0.00000   0.00000   0.00000   0.00000   0.00000   0.00000
Generated with MDTraj, t= 59.0
 55
    1UNL     C1    1  -0.113   0.494  -0.054
    1UNL     O1    2  -0.112   0.370   0.021
    1UNL     C2    3  -0.160   0.264  -0.046
    1UNL     O2    4  -0.196   0.275  -0.159
    1UNL     C3    5  -0.138   0.128   0.034
    1UNL     O3    6  -0.179   0.150   0.171
    1UNL     C4    7  -0.229   0.017  -0.033
    1UNL     C5    8  -0.150  -0.079  -0.124
    1UNL     C6    9  -0.260  -0.174  -0.192
    1UNL     C7   10  -0.330  -0.266  -0.086
    1UNL     C8   11  -0.230  -0.349  -0.004
    1UNL     N1   12  -0.127  -0.261   0.051
    1UNL     C9   13  -0.127  -0.221   0.195
    1UNL    C10   14  -0.033  -0.099   0.205
    1UNL    C11   15   0.027  -0.074   0.063
    1UNL    C12   16   0.179  -0.076   0.072
    1UNL    C13   17   0.271  -0.183   0.052
    1UNL    C14   18   0.411  -0.152   0.066
    1UNL    C15   19   0.452  -0.022   0.093
    1UNL    C16   20   0.359   0.082   0.120
    1UNL    C17   21   0.221   0.051   0.099
    1UNL     N2   22   0.112   0.145   0.088
    1UNL    C18   23   0.007   0.075   0.010
    1UNL    C19   24   0.041   0.079  -0.138
    1UNL    C20   25  -0.066   0.004  -0.225
    1UNL     O4   26   0.427   0.206   0.128
    1UNL    C21   27   0.564   0.171   0.097
    1UNL     O5   28   0.582   0.032   0.080
    1UNL    C22   29  -0.056  -0.165  -0.035
    1UNL     H1   30  -0.207   0.552  -0.044
    1UNL     H2   31  -0.021   0.545  -0.033
    1UNL     H3   32  -0.106   0.472  -0.160
    1UNL     H4   33  -0.111   0.213   0.214
    1UNL     H5   34  -0.308   0.068  -0.091
    1UNL     H6   35  -0.275  -0.037   0.048
    1UNL     H7   36  -0.323  -0.117  -0.266
    1UNL     H8   37  -0.194  -0.248  -0.244
    1UNL     H9   38  -0.385  -0.198  -0.015
    1UNL    H10   39  -0.403  -0.334  -0.132
    1UNL    H11   40  -0.185  -0.434  -0.055
    1UNL    H12   41  -0.275  -0.398   0.084
    1UNL    H13   42  -0.102  -0.308   0.263
    1UNL    H14   43  -0.235  -0.206   0.219
    1UNL    H15   44  -0.082  -0.005   0.238
    1UNL    H16   45   0.062  -0.116   0.270
    1UNL    H17   46   0.235  -0.279   0.021
    1UNL    H18   47   0.487  -0.231   0.059
    1UNL    H19   48   0.136   0.243   0.067
    1UNL    H20   49   0.052   0.185  -0.175
    1UNL    H21   50   0.135   0.026  -0.155
    1UNL    H22   51  -0.015  -0.060  -0.299
    1UNL    H23   52  -0.118   0.071  -0.279
    1UNL    H24   53   0.630   0.202   0.176
    1UNL    H25   54   0.575   0.237   0.007
    1UNL    H26   55   0.021  -0.228  -0.091
   0.00000   0.00000   0.00000   0.00000   0.00000   0.00000   0.00000   0.00000   0.00000
Generated with MDTraj, t= 60.0
 55
    1UNL     C1    1  -0.109   0.486  -0.066
    1UNL     O1    2  -0.073   0.361  -0.007
    1UNL     C2    3  -0.162   0.263  -0.034
    1UNL     O2    4  -0.254   0.272  -0.109
    1UNL     C3    5  -0.138   0.135   0.036
    1UNL     O3    6  -0.169   0.153   0.170
    1UNL     C4    7  -0.230   0.017  -0.024
    1UNL     C5    8  -0.155  -0.083  -0.120
    1UNL     C6    9  -0.243  -0.188  -0.193
    1UNL     C7   10  -0.314  -0.285  -0.095
    1UNL     C8   11  -0.212  -0.359  -0.008
    1UNL     N1   12  -0.107  -0.272   0.055
    1UNL     C9   13  -0.144  -0.203   0.189
    1UNL    C10   14  -0.045  -0.094   0.206
    1UNL    C11   15   0.022  -0.062   0.061
    1UNL    C12   16   0.174  -0.067   0.064
    1UNL    C13   17   0.255  -0.178   0.051
    1UNL    C14   18   0.393  -0.156   0.064
    1UNL    C15   19   0.449  -0.027   0.082
    1UNL    C16   20   0.364   0.088   0.089
    1UNL    C17   21   0.223   0.069   0.083
    1UNL     N2   22   0.117   0.160   0.075
    1UNL    C18   23   0.003   0.090   0.007
    1UNL    C19   24   0.029   0.091  -0.144
    1UNL    C20   25  -0.079   0.011  -0.219
    1UNL     O4   26   0.445   0.203   0.106
    1UNL    C21   27   0.571   0.155   0.139
    1UNL     O5   28   0.583   0.015   0.107
    1UNL    C22   29  -0.046  -0.162  -0.033
    1UNL     H1   30  -0.198   0.488  -0.133
    1UNL     H2   31  -0.117   0.553   0.017
    1UNL     H3   32  -0.019   0.524  -0.114
    1UNL     H4   33  -0.098   0.218   0.216
    1UNL     H5   34  -0.311   0.070  -0.082
    1UNL     H6   35  -0.272  -0.032   0.059
    1UNL     H7   36  -0.321  -0.130  -0.246
    1UNL     H8   37  -0.182  -0.240  -0.276
    1UNL     H9   38  -0.377  -0.228  -0.022
    1UNL    H10   39  -0.377  -0.357  -0.149
    1UNL    H11   40  -0.159  -0.433  -0.069
    1UNL    H12   41  -0.259  -0.421   0.072
    1UNL    H13   42  -0.144  -0.273   0.276
    1UNL    H14   43  -0.253  -0.177   0.185
    1UNL    H15   44  -0.086   0.005   0.249
    1UNL    H16   45   0.040  -0.129   0.266
    1UNL    H17   46   0.221  -0.284   0.040
    1UNL    H18   47   0.452  -0.241   0.091
    1UNL    H19   48   0.127   0.257   0.040
    1UNL    H20   49   0.044   0.191  -0.189
    1UNL    H21   50   0.122   0.035  -0.162
    1UNL    H22   51  -0.027  -0.042  -0.295
    1UNL    H23   52  -0.140   0.081  -0.270
    1UNL    H24   53   0.576   0.169   0.248
    1UNL    H25   54   0.637   0.226   0.082
    1UNL    H26   55   0.031  -0.208  -0.102
   0.00000   0.00000   0.00000   0.00000   0.00000   0.00000   0.00000   0.00000   0.00000
Generated with MDTraj, t= 61.0
 55
    1UNL     C1    1  -0.107   0.480  -0.099
    1UNL     O1    2  -0.062   0.355  -0.038
    1UNL     C2    3  -0.167   0.269  -0.029
    1UNL     O2    4  -0.283   0.293  -0.049
    1UNL     C3    5  -0.141   0.135   0.026
    1UNL     O3    6  -0.171   0.149   0.164
    1UNL     C4    7  -0.240   0.027  -0.025
    1UNL     C5    8  -0.164  -0.078  -0.115
    1UNL     C6    9  -0.263  -0.175  -0.179
    1UNL     C7   10  -0.320  -0.277  -0.085
    1UNL     C8   11  -0.206  -0.363  -0.022
    1UNL     N1   12  -0.096  -0.275   0.044
    1UNL     C9   13  -0.105  -0.222   0.181
    1UNL    C10   14  -0.032  -0.092   0.188
    1UNL    C11   15   0.029  -0.056   0.051
    1UNL    C12   16   0.184  -0.071   0.054
    1UNL    C13   17   0.264  -0.180   0.069
    1UNL    C14   18   0.398  -0.165   0.102
    1UNL    C15   19   0.450  -0.034   0.114
    1UNL    C16   20   0.359   0.080   0.103
    1UNL    C17   21   0.226   0.065   0.067
    1UNL     N2   22   0.122   0.159   0.061
    1UNL    C18   23   0.003   0.094   0.001
    1UNL    C19   24   0.019   0.100  -0.151
    1UNL    C20   25  -0.090   0.010  -0.224
    1UNL     O4   26   0.435   0.201   0.130
    1UNL    C21   27   0.572   0.153   0.117
    1UNL     O5   28   0.582   0.011   0.124
    1UNL    C22   29  -0.043  -0.164  -0.040
    1UNL     H1   30  -0.099   0.487  -0.211
    1UNL     H2   31  -0.212   0.494  -0.080
    1UNL     H3   32  -0.058   0.566  -0.052
    1UNL     H4   33  -0.107   0.223   0.199
    1UNL     H5   34  -0.312   0.084  -0.089
    1UNL     H6   35  -0.291  -0.019   0.059
    1UNL     H7   36  -0.354  -0.123  -0.215
    1UNL     H8   37  -0.213  -0.217  -0.275
    1UNL     H9   38  -0.367  -0.226   0.001
    1UNL    H10   39  -0.392  -0.347  -0.133
    1UNL    H11   40  -0.161  -0.427  -0.099
    1UNL    H12   41  -0.247  -0.435   0.054
    1UNL    H13   42  -0.058  -0.306   0.236
    1UNL    H14   43  -0.208  -0.214   0.225
    1UNL    H15   44  -0.102  -0.010   0.219
    1UNL    H16   45   0.054  -0.094   0.251
    1UNL    H17   46   0.221  -0.273   0.064
    1UNL    H18   47   0.460  -0.252   0.114
    1UNL    H19   48   0.128   0.263   0.049
    1UNL    H20   49   0.036   0.201  -0.190
    1UNL    H21   50   0.122   0.060  -0.170
    1UNL    H22   51  -0.052  -0.046  -0.299
    1UNL    H23   52  -0.161   0.071  -0.281
    1UNL    H24   53   0.622   0.216   0.196
    1UNL    H25   54   0.609   0.174   0.013
    1UNL    H26   55   0.035  -0.196  -0.117
   0.00000   0.00000   0.00000   0.00000   0.00000   0.00000   0.00000   0.00000   0.00000
Generated with MDTraj, t= 62.0
 55
    1UNL     C1    1  -0.107   0.460  -0.124
    1UNL     O1    2  -0.063   0.338  -0.080
    1UNL     C2    3  -0.166   0.265  -0.028
    1UNL     O2    4  -0.283   0.299  -0.021
    1UNL     C3    5  -0.133   0.136   0.042
    1UNL     O3    6  -0.147   0.165   0.181
    1UNL     C4    7  -0.234   0.026  -0.005
    1UNL     C5    8  -0.170  -0.072  -0.111
    1UNL     C6    9  -0.278  -0.154  -0.177
    1UNL     C7   10  -0.331  -0.269  -0.082
    1UNL     C8   11  -0.211  -0.359  -0.037
    1UNL     N1   12  -0.103  -0.276   0.027
    1UNL     C9   13  -0.098  -0.249   0.172
    1UNL    C10   14  -0.039  -0.103   0.186
    1UNL    C11   15   0.034  -0.067   0.048
    1UNL    C12   16   0.182  -0.070   0.060
    1UNL    C13   17   0.269  -0.183   0.074
    1UNL    C14   18   0.403  -0.152   0.109
    1UNL    C15   19   0.453  -0.023   0.113
    1UNL    C16   20   0.367   0.087   0.085
    1UNL    C17   21   0.231   0.060   0.067
    1UNL     N2   22   0.124   0.154   0.066
    1UNL    C18   23   0.012   0.086   0.000
    1UNL    C19   24   0.024   0.092  -0.153
    1UNL    C20   25  -0.100   0.025  -0.214
    1UNL     O4   26   0.433   0.204   0.102
    1UNL    C21   27   0.566   0.159   0.151
    1UNL     O5   28   0.579   0.020   0.140
    1UNL    C22   29  -0.050  -0.164  -0.050
    1UNL     H1   30  -0.029   0.507  -0.194
    1UNL     H2   31  -0.198   0.461  -0.182
    1UNL     H3   32  -0.109   0.523  -0.033
    1UNL     H4   33  -0.237   0.207   0.179
    1UNL     H5   34  -0.320   0.070  -0.060
    1UNL     H6   35  -0.278  -0.027   0.083
    1UNL     H7   36  -0.356  -0.084  -0.210
    1UNL     H8   37  -0.240  -0.209  -0.273
    1UNL     H9   38  -0.379  -0.232   0.009
    1UNL    H10   39  -0.400  -0.338  -0.136
    1UNL    H11   40  -0.167  -0.415  -0.121
    1UNL    H12   41  -0.240  -0.439   0.038
    1UNL    H13   42  -0.037  -0.317   0.230
    1UNL    H14   43  -0.201  -0.265   0.209
    1UNL    H15   44  -0.107  -0.028   0.198
    1UNL    H16   45   0.034  -0.104   0.264
    1UNL    H17   46   0.228  -0.288   0.073
    1UNL    H18   47   0.478  -0.229   0.120
    1UNL    H19   48   0.139   0.240   0.010
    1UNL    H20   49   0.051   0.189  -0.193
    1UNL    H21   50   0.121   0.040  -0.179
    1UNL    H22   51  -0.075  -0.036  -0.294
    1UNL    H23   52  -0.167   0.095  -0.266
    1UNL    H24   53   0.574   0.185   0.261
    1UNL    H25   54   0.642   0.213   0.093
    1UNL    H26   55   0.011  -0.205  -0.135
   0.00000   0.00000   0.00000   0.00000   0.00000   0.00000   0.00000   0.00000   0.00000
Generated with MDTraj, t= 63.0
 55
    1UNL     C1    1  -0.120   0.450  -0.156
    1UNL     O1    2  -0.071   0.345  -0.083
    1UNL     C2    3  -0.167   0.275  -0.009
    1UNL     O2    4  -0.282   0.317   0.011
    1UNL     C3    5  -0.130   0.133   0.043
    1UNL     O3    6  -0.140   0.142   0.190
    1UNL     C4    7  -0.230   0.023  -0.017
    1UNL     C5    8  -0.162  -0.073  -0.122
    1UNL     C6    9  -0.270  -0.171  -0.185
    1UNL     C7   10  -0.321  -0.274  -0.079
    1UNL     C8   11  -0.215  -0.361  -0.015
    1UNL     N1   12  -0.105  -0.270   0.033
    1UNL     C9   13  -0.124  -0.217   0.171
    1UNL    C10   14  -0.018  -0.105   0.189
    1UNL    C11   15   0.032  -0.071   0.041
    1UNL    C12   16   0.182  -0.071   0.049
    1UNL    C13   17   0.268  -0.177   0.050
    1UNL    C14   18   0.395  -0.149   0.087
    1UNL    C15   19   0.447  -0.023   0.119
    1UNL    C16   20   0.365   0.086   0.113
    1UNL    C17   21   0.231   0.057   0.080
    1UNL     N2   22   0.124   0.150   0.055
    1UNL    C18   23   0.011   0.081  -0.003
    1UNL    C19   24   0.026   0.094  -0.164
    1UNL    C20   25  -0.093   0.023  -0.229
    1UNL     O4   26   0.437   0.207   0.129
    1UNL    C21   27   0.572   0.157   0.143
    1UNL     O5   28   0.576   0.015   0.146
    1UNL    C22   29  -0.053  -0.158  -0.053
    1UNL     H1   30  -0.038   0.531  -0.149
    1UNL     H2   31  -0.125   0.430  -0.264
    1UNL     H3   32  -0.204   0.491  -0.101
    1UNL     H4   33  -0.213   0.196   0.207
    1UNL     H5   34  -0.317   0.077  -0.056
    1UNL     H6   35  -0.274  -0.049   0.060
    1UNL     H7   36  -0.359  -0.119  -0.228
    1UNL     H8   37  -0.222  -0.231  -0.270
    1UNL     H9   38  -0.370  -0.220   0.001
    1UNL    H10   39  -0.398  -0.343  -0.121
    1UNL    H11   40  -0.176  -0.436  -0.087
    1UNL    H12   41  -0.251  -0.427   0.070
    1UNL    H13   42  -0.123  -0.291   0.248
    1UNL    H14   43  -0.221  -0.167   0.188
    1UNL    H15   44  -0.067  -0.019   0.220
    1UNL    H16   45   0.066  -0.130   0.246
    1UNL    H17   46   0.228  -0.275   0.046
    1UNL    H18   47   0.469  -0.227   0.087
    1UNL    H19   48   0.136   0.251   0.041
    1UNL    H20   49   0.029   0.197  -0.195
    1UNL    H21   50   0.124   0.052  -0.206
    1UNL    H22   51  -0.056  -0.039  -0.315
    1UNL    H23   52  -0.170   0.082  -0.274
    1UNL    H24   53   0.621   0.189   0.239
    1UNL    H25   54   0.627   0.203   0.062
    1UNL    H26   55   0.011  -0.203  -0.134
   0.00000   0.00000   0.00000   0.00000   0.00000   0.00000   0.00000   0.00000   0.00000
Generated with MDTraj, t= 64.0
 55
    1UNL     C1    1  -0.131   0.477  -0.126
    1UNL     O1    2  -0.092   0.343  -0.107
    1UNL     C2    3  -0.182   0.277  -0.024
    1UNL     O2    4  -0.293   0.318   0.009
    1UNL     C3    5  -0.144   0.135   0.036
    1UNL     O3    6  -0.179   0.131   0.171
    1UNL     C4    7  -0.227   0.031  -0.035
    1UNL     C5    8  -0.150  -0.078  -0.125
    1UNL     C6    9  -0.254  -0.177  -0.190
    1UNL     C7   10  -0.316  -0.271  -0.088
    1UNL     C8   11  -0.221  -0.348  -0.004
    1UNL     N1   12  -0.123  -0.252   0.055
    1UNL     C9   13  -0.124  -0.202   0.190
    1UNL    C10   14  -0.012  -0.099   0.202
    1UNL    C11   15   0.038  -0.065   0.052
    1UNL    C12   16   0.188  -0.079   0.047
    1UNL    C13   17   0.277  -0.181   0.045
    1UNL    C14   18   0.409  -0.156   0.062
    1UNL    C15   19   0.455  -0.028   0.093
    1UNL    C16   20   0.368   0.079   0.105
    1UNL    C17   21   0.234   0.057   0.083
    1UNL     N2   22   0.125   0.154   0.074
    1UNL    C18   23   0.014   0.081   0.006
    1UNL    C19   24   0.039   0.092  -0.152
    1UNL    C20   25  -0.067   0.005  -0.233
    1UNL     O4   26   0.441   0.195   0.136
    1UNL    C21   27   0.571   0.146   0.170
    1UNL     O5   28   0.585   0.016   0.118
    1UNL    C22   29  -0.051  -0.162  -0.039
    1UNL     H1   30  -0.054   0.533  -0.191
    1UNL     H2   31  -0.223   0.474  -0.179
    1UNL     H3   32  -0.134   0.523  -0.029
    1UNL     H4   33  -0.257   0.191   0.181
    1UNL     H5   34  -0.310   0.076  -0.092
    1UNL     H6   35  -0.279  -0.026   0.048
    1UNL     H7   36  -0.342  -0.127  -0.244
    1UNL     H8   37  -0.201  -0.239  -0.266
    1UNL     H9   38  -0.369  -0.209  -0.018
    1UNL    H10   39  -0.394  -0.338  -0.134
    1UNL    H11   40  -0.162  -0.423  -0.061
    1UNL    H12   41  -0.267  -0.415   0.075
    1UNL    H13   42  -0.105  -0.291   0.248
    1UNL    H14   43  -0.219  -0.171   0.236
    1UNL    H15   44  -0.046  -0.004   0.248
    1UNL    H16   45   0.069  -0.127   0.255
    1UNL    H17   46   0.250  -0.285   0.029
    1UNL    H18   47   0.482  -0.238   0.070
    1UNL    H19   48   0.140   0.243   0.029
    1UNL    H20   49   0.022   0.191  -0.191
    1UNL    H21   50   0.140   0.043  -0.177
    1UNL    H22   51  -0.023  -0.053  -0.324
    1UNL    H23   52  -0.142   0.075  -0.265
    1UNL    H24   53   0.592   0.157   0.280
    1UNL    H25   54   0.648   0.203   0.126
    1UNL    H26   55   0.014  -0.233  -0.096
   0.00000   0.00000   0.00000   0.00000   0.00000   0.00000   0.00000   0.00000   0.00000
Generated with MDTraj, t= 65.0
 55
    1UNL     C1    1  -0.123   0.466  -0.121
    1UNL     O1    2  -0.079   0.338  -0.086
    1UNL     C2    3  -0.178   0.272  -0.018
    1UNL     O2    4  -0.291   0.302   0.010
    1UNL     C3    5  -0.143   0.126   0.031
    1UNL     O3    6  -0.166   0.128   0.175
    1UNL     C4    7  -0.227   0.020  -0.041
    1UNL     C5    8  -0.139  -0.087  -0.124
    1UNL     C6    9  -0.230  -0.186  -0.199
    1UNL     C7   10  -0.326  -0.269  -0.107
    1UNL     C8   11  -0.235  -0.343  -0.007
    1UNL     N1   12  -0.127  -0.253   0.057
    1UNL     C9   13  -0.139  -0.190   0.192
    1UNL    C10   14  -0.020  -0.093   0.204
    1UNL    C11   15   0.035  -0.057   0.057
    1UNL    C12   16   0.183  -0.065   0.069
    1UNL    C13   17   0.266  -0.174   0.042
    1UNL    C14   18   0.406  -0.156   0.058
    1UNL    C15   19   0.446  -0.028   0.093
    1UNL    C16   20   0.361   0.086   0.110
    1UNL    C17   21   0.223   0.066   0.093
    1UNL     N2   22   0.122   0.165   0.069
    1UNL    C18   23   0.011   0.091   0.006
    1UNL    C19   24   0.048   0.095  -0.146
    1UNL    C20   25  -0.052   0.004  -0.224
    1UNL     O4   26   0.439   0.195   0.143
    1UNL    C21   27   0.575   0.149   0.127
    1UNL     O5   28   0.575   0.008   0.111
    1UNL    C22   29  -0.042  -0.166  -0.030
    1UNL     H1   30  -0.135   0.470  -0.235
    1UNL     H2   31  -0.217   0.480  -0.077
    1UNL     H3   32  -0.052   0.542  -0.096
    1UNL     H4   33  -0.234   0.207   0.189
    1UNL     H5   34  -0.313   0.063  -0.101
    1UNL     H6   35  -0.277  -0.030   0.041
    1UNL     H7   36  -0.291  -0.118  -0.272
    1UNL     H8   37  -0.179  -0.258  -0.264
    1UNL     H9   38  -0.402  -0.213  -0.057
    1UNL    H10   39  -0.383  -0.350  -0.163
    1UNL    H11   40  -0.182  -0.433  -0.050
    1UNL    H12   41  -0.290  -0.393   0.079
    1UNL    H13   42  -0.143  -0.260   0.272
    1UNL    H14   43  -0.240  -0.148   0.192
    1UNL    H15   44  -0.037   0.000   0.265
    1UNL    H16   45   0.060  -0.137   0.253
    1UNL    H17   46   0.222  -0.258  -0.012
    1UNL    H18   47   0.475  -0.233   0.040
    1UNL    H19   48   0.136   0.256   0.031
    1UNL    H20   49   0.024   0.196  -0.176
    1UNL    H21   50   0.150   0.052  -0.179
    1UNL    H22   51   0.007  -0.075  -0.286
    1UNL    H23   52  -0.115   0.065  -0.289
    1UNL    H24   53   0.632   0.178   0.220
    1UNL    H25   54   0.635   0.196   0.054
    1UNL    H26   55   0.033  -0.232  -0.081
   0.00000   0.00000   0.00000   0.00000   0.00000   0.00000   0.00000   0.00000   0.00000
Generated with MDTraj, t= 66.0
 55
    1UNL     C1    1  -0.104   0.460  -0.118
    1UNL     O1    2  -0.056   0.344  -0.064
    1UNL     C2    3  -0.166   0.270  -0.011
    1UNL     O2    4  -0.280   0.307  -0.008
    1UNL     C3    5  -0.143   0.128   0.034
    1UNL     O3    6  -0.194   0.126   0.166
    1UNL     C4    7  -0.229   0.023  -0.044
    1UNL     C5    8  -0.148  -0.085  -0.125
    1UNL     C6    9  -0.244  -0.171  -0.199
    1UNL     C7   10  -0.329  -0.263  -0.106
    1UNL     C8   11  -0.231  -0.352  -0.017
    1UNL     N1   12  -0.124  -0.267   0.048
    1UNL     C9   13  -0.149  -0.195   0.180
    1UNL    C10   14  -0.033  -0.099   0.200
    1UNL    C11   15   0.034  -0.068   0.065
    1UNL    C12   16   0.185  -0.070   0.074
    1UNL    C13   17   0.271  -0.179   0.078
    1UNL    C14   18   0.410  -0.157   0.082
    1UNL    C15   19   0.458  -0.028   0.090
    1UNL    C16   20   0.365   0.079   0.102
    1UNL    C17   21   0.228   0.057   0.099
    1UNL     N2   22   0.132   0.151   0.089
    1UNL    C18   23   0.008   0.084   0.021
    1UNL    C19   24   0.041   0.091  -0.131
    1UNL    C20   25  -0.056   0.003  -0.219
    1UNL     O4   26   0.427   0.203   0.100
    1UNL    C21   27   0.562   0.174   0.114
    1UNL     O5   28   0.588   0.033   0.097
    1UNL    C22   29  -0.046  -0.168  -0.037
    1UNL     H1   30  -0.200   0.440  -0.177
    1UNL     H2   31  -0.118   0.530  -0.042
    1UNL     H3   32  -0.034   0.489  -0.196
    1UNL     H4   33  -0.256   0.192   0.173
    1UNL     H5   34  -0.308   0.077  -0.106
    1UNL     H6   35  -0.290  -0.032   0.023
    1UNL     H7   36  -0.317  -0.108  -0.267
    1UNL     H8   37  -0.191  -0.230  -0.274
    1UNL     H9   38  -0.400  -0.221  -0.038
    1UNL    H10   39  -0.392  -0.337  -0.164
    1UNL    H11   40  -0.183  -0.438  -0.072
    1UNL    H12   41  -0.285  -0.404   0.068
    1UNL    H13   42  -0.156  -0.273   0.252
    1UNL    H14   43  -0.243  -0.142   0.170
    1UNL    H15   44  -0.074  -0.008   0.245
    1UNL    H16   45   0.047  -0.140   0.269
    1UNL    H17   46   0.239  -0.279   0.067
    1UNL    H18   47   0.484  -0.239   0.072
    1UNL    H19   48   0.151   0.236   0.041
    1UNL    H20   49   0.039   0.195  -0.166
    1UNL    H21   50   0.146   0.049  -0.138
    1UNL    H22   51   0.003  -0.063  -0.290
    1UNL    H23   52  -0.127   0.065  -0.284
    1UNL    H24   53   0.605   0.205   0.214
    1UNL    H25   54   0.612   0.230   0.041
    1UNL    H26   55   0.016  -0.221  -0.114
   0.00000   0.00000   0.00000   0.00000   0.00000   0.00000   0.00000   0.00000   0.00000
Generated with MDTraj, t= 67.0
 55
    1UNL     C1    1  -0.068   0.471  -0.078
    1UNL     O1    2  -0.041   0.333  -0.075
    1UNL     C2    3  -0.156   0.266  -0.031
    1UNL     O2    4  -0.264   0.314  -0.019
    1UNL     C3    5  -0.139   0.127   0.033
    1UNL     O3    6  -0.180   0.148   0.172
    1UNL     C4    7  -0.230   0.014  -0.025
    1UNL     C5    8  -0.158  -0.082  -0.122
    1UNL     C6    9  -0.251  -0.177  -0.198
    1UNL     C7   10  -0.324  -0.283  -0.117
    1UNL     C8   11  -0.225  -0.355  -0.028
    1UNL     N1   12  -0.118  -0.275   0.041
    1UNL     C9   13  -0.128  -0.224   0.182
    1UNL    C10   14  -0.039  -0.103   0.208
    1UNL    C11   15   0.021  -0.068   0.067
    1UNL    C12   16   0.171  -0.068   0.081
    1UNL    C13   17   0.258  -0.169   0.089
    1UNL    C14   18   0.395  -0.154   0.100
    1UNL    C15   19   0.451  -0.021   0.100
    1UNL    C16   20   0.355   0.088   0.098
    1UNL    C17   21   0.220   0.066   0.103
    1UNL     N2   22   0.116   0.155   0.088
    1UNL    C18   23   0.006   0.084   0.015
    1UNL    C19   24   0.044   0.082  -0.142
    1UNL    C20   25  -0.068   0.009  -0.221
    1UNL     O4   26   0.423   0.208   0.100
    1UNL    C21   27   0.554   0.177   0.083
    1UNL     O5   28   0.580   0.033   0.095
    1UNL    C22   29  -0.047  -0.165  -0.040
    1UNL     H1   30  -0.175   0.488  -0.117
    1UNL     H2   31  -0.057   0.505   0.021
    1UNL     H3   32  -0.010   0.520  -0.157
    1UNL     H4   33  -0.238   0.227   0.165
    1UNL     H5   34  -0.309   0.063  -0.087
    1UNL     H6   35  -0.283  -0.042   0.050
    1UNL     H7   36  -0.331  -0.127  -0.265
    1UNL     H8   37  -0.189  -0.231  -0.271
    1UNL     H9   38  -0.394  -0.239  -0.049
    1UNL    H10   39  -0.385  -0.366  -0.166
    1UNL    H11   40  -0.169  -0.431  -0.088
    1UNL    H12   41  -0.282  -0.413   0.049
    1UNL    H13   42  -0.097  -0.308   0.241
    1UNL    H14   43  -0.232  -0.194   0.189
    1UNL    H15   44  -0.096  -0.019   0.244
    1UNL    H16   45   0.044  -0.133   0.290
    1UNL    H17   46   0.214  -0.271   0.081
    1UNL    H18   47   0.448  -0.245   0.095
    1UNL    H19   48   0.146   0.247   0.061
    1UNL    H20   49   0.060   0.187  -0.176
    1UNL    H21   50   0.139   0.025  -0.147
    1UNL    H22   51  -0.024  -0.064  -0.295
    1UNL    H23   52  -0.138   0.079  -0.288
    1UNL    H24   53   0.611   0.227   0.170
    1UNL    H25   54   0.580   0.213  -0.012
    1UNL    H26   55   0.031  -0.209  -0.107
   0.00000   0.00000   0.00000   0.00000   0.00000   0.00000   0.00000   0.00000   0.00000
Generated with MDTraj, t= 68.0
 55
    1UNL     C1    1  -0.066   0.472  -0.093
    1UNL     O1    2  -0.039   0.351  -0.031
    1UNL     C2    3  -0.154   0.276  -0.021
    1UNL     O2    4  -0.263   0.318  -0.043
    1UNL     C3    5  -0.144   0.132   0.035
    1UNL     O3    6  -0.176   0.140   0.175
    1UNL     C4    7  -0.235   0.025  -0.034
    1UNL     C5    8  -0.160  -0.087  -0.122
    1UNL     C6    9  -0.256  -0.185  -0.189
    1UNL     C7   10  -0.312  -0.286  -0.084
    1UNL     C8   11  -0.194  -0.365  -0.027
    1UNL     N1   12  -0.104  -0.269   0.033
    1UNL     C9   13  -0.136  -0.228   0.175
    1UNL    C10   14  -0.045  -0.104   0.207
    1UNL    C11   15   0.021  -0.064   0.067
    1UNL    C12   16   0.170  -0.061   0.078
    1UNL    C13   17   0.257  -0.171   0.074
    1UNL    C14   18   0.391  -0.153   0.090
    1UNL    C15   19   0.433  -0.024   0.091
    1UNL    C16   20   0.353   0.089   0.093
    1UNL    C17   21   0.216   0.071   0.086
    1UNL     N2   22   0.110   0.162   0.081
    1UNL    C18   23   0.008   0.086   0.010
    1UNL    C19   24   0.030   0.083  -0.146
    1UNL    C20   25  -0.065  -0.010  -0.220
    1UNL     O4   26   0.426   0.206   0.102
    1UNL    C21   27   0.559   0.165   0.105
    1UNL     O5   28   0.572   0.021   0.101
    1UNL    C22   29  -0.046  -0.156  -0.042
    1UNL     H1   30  -0.081   0.456  -0.207
    1UNL     H2   31  -0.153   0.507  -0.041
    1UNL     H3   32   0.016   0.544  -0.093
    1UNL     H4   33  -0.227   0.231   0.188
    1UNL     H5   34  -0.304   0.073  -0.103
    1UNL     H6   35  -0.307  -0.025   0.035
    1UNL     H7   36  -0.339  -0.125  -0.231
    1UNL     H8   37  -0.225  -0.248  -0.276
    1UNL     H9   38  -0.354  -0.240   0.003
    1UNL    H10   39  -0.398  -0.354  -0.114
    1UNL    H11   40  -0.140  -0.424  -0.106
    1UNL    H12   41  -0.222  -0.440   0.052
    1UNL    H13   42  -0.114  -0.308   0.244
    1UNL    H14   43  -0.241  -0.199   0.177
    1UNL    H15   44  -0.089  -0.016   0.266
    1UNL    H16   45   0.041  -0.146   0.275
    1UNL    H17   46   0.206  -0.260   0.061
    1UNL    H18   47   0.466  -0.228   0.063
    1UNL    H19   48   0.131   0.252   0.035
    1UNL    H20   49   0.034   0.189  -0.184
    1UNL    H21   50   0.130   0.044  -0.151
    1UNL    H22   51  -0.014  -0.085  -0.288
    1UNL    H23   52  -0.128   0.052  -0.299
    1UNL    H24   53   0.597   0.202   0.209
    1UNL    H25   54   0.612   0.193   0.016
    1UNL    H26   55   0.038  -0.200  -0.103
   0.00000   0.00000   0.00000   0.00000   0.00000   0.00000   0.00000   0.00000   0.00000
Generated with MDTraj, t= 69.0
 55
    1UNL     C1    1  -0.104   0.470  -0.089
    1UNL     O1    2  -0.074   0.348  -0.027
    1UNL     C2    3  -0.176   0.263  -0.031
    1UNL     O2    4  -0.276   0.281  -0.095
    1UNL     C3    5  -0.149   0.135   0.036
    1UNL     O3    6  -0.183   0.158   0.181
    1UNL     C4    7  -0.242   0.020  -0.018
    1UNL     C5    8  -0.162  -0.074  -0.122
    1UNL     C6    9  -0.252  -0.182  -0.193
    1UNL     C7   10  -0.325  -0.279  -0.101
    1UNL     C8   11  -0.216  -0.352  -0.011
    1UNL     N1   12  -0.121  -0.250   0.046
    1UNL     C9   13  -0.125  -0.205   0.190
    1UNL    C10   14  -0.021  -0.090   0.202
    1UNL    C11   15   0.029  -0.063   0.059
    1UNL    C12   16   0.183  -0.078   0.051
    1UNL    C13   17   0.278  -0.182   0.056
    1UNL    C14   18   0.416  -0.162   0.069
    1UNL    C15   19   0.459  -0.029   0.093
    1UNL    C16   20   0.371   0.080   0.096
    1UNL    C17   21   0.229   0.050   0.083
    1UNL     N2   22   0.120   0.146   0.080
    1UNL    C18   23   0.006   0.083   0.013
    1UNL    C19   24   0.030   0.093  -0.142
    1UNL    C20   25  -0.084   0.023  -0.220
    1UNL     O4   26   0.438   0.196   0.122
    1UNL    C21   27   0.578   0.162   0.136
    1UNL     O5   28   0.590   0.020   0.110
    1UNL    C22   29  -0.053  -0.150  -0.040
    1UNL     H1   30  -0.090   0.466  -0.204
    1UNL     H2   31  -0.205   0.488  -0.060
    1UNL     H3   32  -0.041   0.553  -0.055
    1UNL     H4   33  -0.216   0.257   0.200
    1UNL     H5   34  -0.335   0.057  -0.055
    1UNL     H6   35  -0.285  -0.045   0.067
    1UNL     H7   36  -0.324  -0.157  -0.270
    1UNL     H8   37  -0.183  -0.250  -0.252
    1UNL     H9   38  -0.398  -0.224  -0.045
    1UNL    H10   39  -0.392  -0.356  -0.151
    1UNL    H11   40  -0.156  -0.433  -0.060
    1UNL    H12   41  -0.257  -0.405   0.076
    1UNL    H13   42  -0.094  -0.289   0.249
    1UNL    H14   43  -0.221  -0.168   0.228
    1UNL    H15   44  -0.067   0.005   0.254
    1UNL    H16   45   0.062  -0.115   0.275
    1UNL    H17   46   0.233  -0.283   0.037
    1UNL    H18   47   0.485  -0.244   0.059
    1UNL    H19   48   0.153   0.233   0.034
    1UNL    H20   49   0.039   0.205  -0.156
    1UNL    H21   50   0.125   0.048  -0.159
    1UNL    H22   51  -0.048  -0.029  -0.315
    1UNL    H23   52  -0.162   0.096  -0.259
    1UNL    H24   53   0.624   0.185   0.241
    1UNL    H25   54   0.633   0.203   0.053
    1UNL    H26   55   0.017  -0.209  -0.105
   0.00000   0.00000   0.00000   0.00000   0.00000   0.00000   0.00000   0.00000   0.00000
Generated with MDTraj, t= 70.0
 55
    1UNL     C1    1  -0.157   0.482  -0.086
    1UNL     O1    2  -0.109   0.378  -0.005
    1UNL     C2    3  -0.171   0.262  -0.038
    1UNL     O2    4  -0.255   0.252  -0.127
    1UNL     C3    5  -0.131   0.138   0.035
    1UNL     O3    6  -0.132   0.155   0.179
    1UNL     C4    7  -0.227   0.024  -0.021
    1UNL     C5    8  -0.155  -0.074  -0.120
    1UNL     C6    9  -0.255  -0.174  -0.180
    1UNL     C7   10  -0.331  -0.248  -0.076
    1UNL     C8   11  -0.242  -0.345  -0.002
    1UNL     N1   12  -0.121  -0.269   0.047
    1UNL     C9   13  -0.121  -0.216   0.187
    1UNL    C10   14  -0.019  -0.104   0.189
    1UNL    C11   15   0.030  -0.065   0.046
    1UNL    C12   16   0.189  -0.066   0.059
    1UNL    C13   17   0.265  -0.177   0.044
    1UNL    C14   18   0.401  -0.155   0.052
    1UNL    C15   19   0.453  -0.030   0.086
    1UNL    C16   20   0.368   0.083   0.113
    1UNL    C17   21   0.235   0.066   0.096
    1UNL     N2   22   0.129   0.149   0.070
    1UNL    C18   23   0.014   0.085  -0.002
    1UNL    C19   24   0.038   0.086  -0.154
    1UNL    C20   25  -0.074   0.004  -0.227
    1UNL     O4   26   0.441   0.200   0.142
    1UNL    C21   27   0.571   0.153   0.144
    1UNL     O5   28   0.579   0.009   0.123
    1UNL    C22   29  -0.056  -0.164  -0.041
    1UNL     H1   30  -0.191   0.445  -0.191
    1UNL     H2   31  -0.242   0.518  -0.034
    1UNL     H3   32  -0.089   0.565  -0.098
    1UNL     H4   33  -0.073   0.232   0.208
    1UNL     H5   34  -0.317   0.057  -0.070
    1UNL     H6   35  -0.268  -0.027   0.070
    1UNL     H7   36  -0.324  -0.139  -0.253
    1UNL     H8   37  -0.209  -0.263  -0.238
    1UNL     H9   38  -0.372  -0.178  -0.004
    1UNL    H10   39  -0.429  -0.290  -0.114
    1UNL    H11   40  -0.199  -0.423  -0.071
    1UNL    H12   41  -0.282  -0.406   0.080
    1UNL    H13   42  -0.087  -0.292   0.257
    1UNL    H14   43  -0.220  -0.185   0.220
    1UNL    H15   44  -0.056  -0.019   0.256
    1UNL    H16   45   0.068  -0.131   0.255
    1UNL    H17   46   0.236  -0.272   0.008
    1UNL    H18   47   0.477  -0.226   0.025
    1UNL    H19   48   0.134   0.251   0.064
    1UNL    H20   49   0.021   0.195  -0.181
    1UNL    H21   50   0.138   0.049  -0.163
    1UNL    H22   51  -0.024  -0.071  -0.301
    1UNL    H23   52  -0.139   0.071  -0.286
    1UNL    H24   53   0.624   0.158   0.246
    1UNL    H25   54   0.636   0.204   0.076
    1UNL    H26   55   0.012  -0.211  -0.116
   0.00000   0.00000   0.00000   0.00000   0.00000   0.00000   0.00000   0.00000   0.00000
Generated with MDTraj, t= 71.0
 55
    1UNL     C1    1  -0.158   0.493  -0.044
    1UNL     O1    2  -0.111   0.379   0.020
    1UNL     C2    3  -0.151   0.271  -0.049
    1UNL     O2    4  -0.206   0.257  -0.158
    1UNL     C3    5  -0.132   0.139   0.028
    1UNL     O3    6  -0.153   0.171   0.160
    1UNL     C4    7  -0.240   0.031  -0.025
    1UNL     C5    8  -0.173  -0.076  -0.111
    1UNL     C6    9  -0.272  -0.179  -0.170
    1UNL     C7   10  -0.326  -0.289  -0.068
    1UNL     C8   11  -0.207  -0.360  -0.012
    1UNL     N1   12  -0.108  -0.264   0.046
    1UNL     C9   13  -0.109  -0.214   0.188
    1UNL    C10   14  -0.014  -0.087   0.191
    1UNL    C11   15   0.025  -0.061   0.048
    1UNL    C12   16   0.180  -0.074   0.044
    1UNL    C13   17   0.268  -0.179   0.062
    1UNL    C14   18   0.406  -0.159   0.074
    1UNL    C15   19   0.459  -0.032   0.096
    1UNL    C16   20   0.368   0.081   0.091
    1UNL    C17   21   0.231   0.054   0.070
    1UNL     N2   22   0.126   0.151   0.065
    1UNL    C18   23   0.007   0.088  -0.006
    1UNL    C19   24   0.017   0.090  -0.162
    1UNL    C20   25  -0.101   0.012  -0.218
    1UNL     O4   26   0.438   0.193   0.125
    1UNL    C21   27   0.568   0.147   0.154
    1UNL     O5   28   0.586   0.004   0.127
    1UNL    C22   29  -0.060  -0.156  -0.033
    1UNL     H1   30  -0.113   0.505  -0.149
    1UNL     H2   31  -0.261   0.474  -0.064
    1UNL     H3   32  -0.158   0.579   0.019
    1UNL     H4   33  -0.106   0.249   0.177
    1UNL     H5   34  -0.317   0.083  -0.080
    1UNL     H6   35  -0.290  -0.013   0.058
    1UNL     H7   36  -0.355  -0.128  -0.211
    1UNL     H8   37  -0.237  -0.240  -0.259
    1UNL     H9   38  -0.388  -0.240   0.008
    1UNL    H10   39  -0.396  -0.367  -0.107
    1UNL    H11   40  -0.147  -0.411  -0.091
    1UNL    H12   41  -0.230  -0.436   0.063
    1UNL    H13   42  -0.069  -0.289   0.257
    1UNL    H14   43  -0.208  -0.184   0.218
    1UNL    H15   44  -0.060  -0.005   0.239
    1UNL    H16   45   0.075  -0.095   0.259
    1UNL    H17   46   0.227  -0.277   0.037
    1UNL    H18   47   0.470  -0.247   0.073
    1UNL    H19   48   0.138   0.235   0.008
    1UNL    H20   49   0.005   0.200  -0.184
    1UNL    H21   50   0.108   0.041  -0.190
    1UNL    H22   51  -0.062  -0.055  -0.305
    1UNL    H23   52  -0.168   0.084  -0.264
    1UNL    H24   53   0.600   0.167   0.260
    1UNL    H25   54   0.648   0.198   0.102
    1UNL    H26   55   0.009  -0.194  -0.112
   0.00000   0.00000   0.00000   0.00000   0.00000   0.00000   0.00000   0.00000   0.00000
Generated with MDTraj, t= 72.0
 55
    1UNL     C1    1  -0.125   0.502  -0.016
    1UNL     O1    2  -0.157   0.384   0.042
    1UNL     C2    3  -0.168   0.275  -0.040
    1UNL     O2    4  -0.200   0.288  -0.156
    1UNL     C3    5  -0.136   0.139   0.023
    1UNL     O3    6  -0.150   0.165   0.168
    1UNL     C4    7  -0.233   0.027  -0.039
    1UNL     C5    8  -0.170  -0.086  -0.127
    1UNL     C6    9  -0.272  -0.189  -0.172
    1UNL     C7   10  -0.316  -0.287  -0.060
    1UNL     C8   11  -0.199  -0.367   0.001
    1UNL     N1   12  -0.099  -0.268   0.044
    1UNL     C9   13  -0.107  -0.222   0.180
    1UNL    C10   14  -0.029  -0.085   0.188
    1UNL    C11   15   0.031  -0.056   0.045
    1UNL    C12   16   0.181  -0.069   0.060
    1UNL    C13   17   0.263  -0.186   0.085
    1UNL    C14   18   0.396  -0.168   0.113
    1UNL    C15   19   0.446  -0.039   0.111
    1UNL    C16   20   0.370   0.077   0.088
    1UNL    C17   21   0.230   0.062   0.061
    1UNL     N2   22   0.128   0.152   0.039
    1UNL    C18   23   0.009   0.089  -0.011
    1UNL    C19   24   0.020   0.090  -0.169
    1UNL    C20   25  -0.096   0.002  -0.234
    1UNL     O4   26   0.441   0.197   0.094
    1UNL    C21   27   0.570   0.149   0.118
    1UNL     O5   28   0.575   0.004   0.143
    1UNL    C22   29  -0.053  -0.159  -0.044
    1UNL     H1   30  -0.025   0.486  -0.070
    1UNL     H2   31  -0.195   0.526  -0.092
    1UNL     H3   32  -0.131   0.575   0.063
    1UNL     H4   33  -0.080   0.241   0.195
    1UNL     H5   34  -0.292   0.096  -0.101
    1UNL     H6   35  -0.299  -0.012   0.030
    1UNL     H7   36  -0.366  -0.150  -0.206
    1UNL     H8   37  -0.231  -0.241  -0.263
    1UNL     H9   38  -0.360  -0.233   0.028
    1UNL    H10   39  -0.402  -0.350  -0.092
    1UNL    H11   40  -0.156  -0.426  -0.081
    1UNL    H12   41  -0.222  -0.428   0.088
    1UNL    H13   42  -0.060  -0.298   0.245
    1UNL    H14   43  -0.209  -0.197   0.208
    1UNL    H15   44  -0.088  -0.007   0.225
    1UNL    H16   45   0.042  -0.092   0.268
    1UNL    H17   46   0.217  -0.284   0.067
    1UNL    H18   47   0.464  -0.249   0.116
    1UNL    H19   48   0.150   0.240  -0.005
    1UNL    H20   49   0.017   0.195  -0.204
    1UNL    H21   50   0.114   0.041  -0.185
    1UNL    H22   51  -0.061  -0.049  -0.328
    1UNL    H23   52  -0.167   0.072  -0.280
    1UNL    H24   53   0.619   0.206   0.197
    1UNL    H25   54   0.641   0.160   0.037
    1UNL    H26   55   0.013  -0.207  -0.120
   0.00000   0.00000   0.00000   0.00000   0.00000   0.00000   0.00000   0.00000   0.00000
Generated with MDTraj, t= 73.0
 55
    1UNL     C1    1  -0.164   0.494  -0.033
    1UNL     O1    2  -0.122   0.386   0.042
    1UNL     C2    3  -0.143   0.265  -0.031
    1UNL     O2    4  -0.169   0.268  -0.149
    1UNL     C3    5  -0.130   0.130   0.036
    1UNL     O3    6  -0.159   0.151   0.173
    1UNL     C4    7  -0.229   0.028  -0.031
    1UNL     C5    8  -0.164  -0.078  -0.123
    1UNL     C6    9  -0.260  -0.178  -0.183
    1UNL     C7   10  -0.330  -0.275  -0.083
    1UNL     C8   11  -0.224  -0.357  -0.007
    1UNL     N1   12  -0.113  -0.268   0.041
    1UNL     C9   13  -0.122  -0.234   0.181
    1UNL    C10   14  -0.035  -0.107   0.198
    1UNL    C11   15   0.022  -0.062   0.059
    1UNL    C12   16   0.174  -0.072   0.062
    1UNL    C13   17   0.255  -0.174   0.099
    1UNL    C14   18   0.390  -0.157   0.113
    1UNL    C15   19   0.443  -0.025   0.104
    1UNL    C16   20   0.366   0.088   0.074
    1UNL    C17   21   0.227   0.062   0.067
    1UNL     N2   22   0.114   0.159   0.050
    1UNL    C18   23   0.008   0.083  -0.001
    1UNL    C19   24   0.036   0.080  -0.157
    1UNL    C20   25  -0.080   0.004  -0.227
    1UNL     O4   26   0.453   0.204   0.069
    1UNL    C21   27   0.581   0.156   0.108
    1UNL     O5   28   0.579   0.015   0.130
    1UNL    C22   29  -0.058  -0.155  -0.040
    1UNL     H1   30  -0.091   0.492  -0.122
    1UNL     H2   31  -0.261   0.483  -0.078
    1UNL     H3   32  -0.165   0.581   0.030
    1UNL     H4   33  -0.099   0.222   0.194
    1UNL     H5   34  -0.305   0.085  -0.083
    1UNL     H6   35  -0.274  -0.022   0.051
    1UNL     H7   36  -0.335  -0.120  -0.237
    1UNL     H8   37  -0.213  -0.238  -0.259
    1UNL     H9   38  -0.391  -0.217  -0.008
    1UNL    H10   39  -0.405  -0.344  -0.125
    1UNL    H11   40  -0.184  -0.432  -0.075
    1UNL    H12   41  -0.273  -0.406   0.075
    1UNL    H13   42  -0.071  -0.311   0.244
    1UNL    H14   43  -0.225  -0.216   0.209
    1UNL    H15   44  -0.096  -0.026   0.250
    1UNL    H16   45   0.040  -0.126   0.265
    1UNL    H17   46   0.201  -0.262   0.112
    1UNL    H18   47   0.459  -0.241   0.130
    1UNL    H19   48   0.137   0.243  -0.000
    1UNL    H20   49   0.048   0.181  -0.193
    1UNL    H21   50   0.135   0.035  -0.157
    1UNL    H22   51  -0.048  -0.062  -0.305
    1UNL    H23   52  -0.136   0.072  -0.294
    1UNL    H24   53   0.615   0.197   0.202
    1UNL    H25   54   0.649   0.178   0.024
    1UNL    H26   55   0.022  -0.201  -0.103
   0.00000   0.00000   0.00000   0.00000   0.00000   0.00000   0.00000   0.00000   0.00000
Generated with MDTraj, t= 74.0
 55
    1UNL     C1    1  -0.168   0.498  -0.045
    1UNL     O1    2  -0.142   0.381   0.024
    1UNL     C2    3  -0.160   0.268  -0.049
    1UNL     O2    4  -0.204   0.257  -0.159
    1UNL     C3    5  -0.128   0.136   0.025
    1UNL     O3    6  -0.165   0.158   0.162
    1UNL     C4    7  -0.225   0.033  -0.029
    1UNL     C5    8  -0.155  -0.072  -0.118
    1UNL     C6    9  -0.256  -0.166  -0.192
    1UNL     C7   10  -0.322  -0.265  -0.089
    1UNL     C8   11  -0.220  -0.349  -0.011
    1UNL     N1   12  -0.119  -0.263   0.048
    1UNL     C9   13  -0.144  -0.201   0.183
    1UNL    C10   14  -0.034  -0.095   0.202
    1UNL    C11   15   0.027  -0.063   0.065
    1UNL    C12   16   0.184  -0.086   0.082
    1UNL    C13   17   0.276  -0.193   0.080
    1UNL    C14   18   0.411  -0.168   0.087
    1UNL    C15   19   0.461  -0.037   0.092
    1UNL    C16   20   0.369   0.072   0.110
    1UNL    C17   21   0.234   0.044   0.104
    1UNL     N2   22   0.128   0.142   0.078
    1UNL    C18   23   0.017   0.086   0.011
    1UNL    C19   24   0.048   0.073  -0.146
    1UNL    C20   25  -0.066   0.006  -0.219
    1UNL     O4   26   0.431   0.195   0.121
    1UNL    C21   27   0.563   0.165   0.088
    1UNL     O5   28   0.589   0.023   0.085
    1UNL    C22   29  -0.056  -0.156  -0.033
    1UNL     H1   30  -0.130   0.474  -0.152
    1UNL     H2   31  -0.272   0.526  -0.052
    1UNL     H3   32  -0.115   0.574   0.011
    1UNL     H4   33  -0.148   0.255   0.172
    1UNL     H5   34  -0.302   0.093  -0.072
    1UNL     H6   35  -0.264  -0.021   0.060
    1UNL     H7   36  -0.333  -0.107  -0.245
    1UNL     H8   37  -0.212  -0.226  -0.264
    1UNL     H9   38  -0.393  -0.215  -0.014
    1UNL    H10   39  -0.393  -0.330  -0.141
    1UNL    H11   40  -0.180  -0.428  -0.073
    1UNL    H12   41  -0.272  -0.395   0.071
    1UNL    H13   42  -0.130  -0.279   0.263
    1UNL    H14   43  -0.247  -0.166   0.196
    1UNL    H15   44  -0.070  -0.007   0.262
    1UNL    H16   45   0.042  -0.130   0.262
    1UNL    H17   46   0.245  -0.298   0.055
    1UNL    H18   47   0.483  -0.243   0.065
    1UNL    H19   48   0.161   0.235   0.062
    1UNL    H20   49   0.057   0.171  -0.179
    1UNL    H21   50   0.144   0.021  -0.156
    1UNL    H22   51  -0.030  -0.050  -0.299
    1UNL    H23   52  -0.129   0.074  -0.279
    1UNL    H24   53   0.627   0.206   0.165
    1UNL    H25   54   0.571   0.205  -0.020
    1UNL    H26   55   0.005  -0.216  -0.104
   0.00000   0.00000   0.00000   0.00000   0.00000   0.00000   0.00000   0.00000   0.00000
Generated with MDTraj, t= 75.0
 55
    1UNL     C1    1  -0.143   0.489  -0.064
    1UNL     O1    2  -0.118   0.372   0.009
    1UNL     C2    3  -0.165   0.253  -0.052
    1UNL     O2    4  -0.210   0.253  -0.166
    1UNL     C3    5  -0.150   0.135   0.041
    1UNL     O3    6  -0.179   0.162   0.179
    1UNL     C4    7  -0.228   0.022  -0.036
    1UNL     C5    8  -0.138  -0.081  -0.113
    1UNL     C6    9  -0.228  -0.180  -0.191
    1UNL     C7   10  -0.316  -0.273  -0.105
    1UNL     C8   11  -0.226  -0.344  -0.004
    1UNL     N1   12  -0.117  -0.264   0.060
    1UNL     C9   13  -0.136  -0.210   0.197
    1UNL    C10   14  -0.036  -0.095   0.214
    1UNL    C11   15   0.024  -0.054   0.077
    1UNL    C12   16   0.175  -0.061   0.078
    1UNL    C13   17   0.254  -0.169   0.033
    1UNL    C14   18   0.392  -0.152   0.027
    1UNL    C15   19   0.445  -0.029   0.062
    1UNL    C16   20   0.365   0.085   0.096
    1UNL    C17   21   0.223   0.063   0.108
    1UNL     N2   22   0.121   0.156   0.098
    1UNL    C18   23   0.003   0.090   0.029
    1UNL    C19   24   0.043   0.092  -0.124
    1UNL    C20   25  -0.050  -0.000  -0.208
    1UNL     O4   26   0.446   0.198   0.120
    1UNL    C21   27   0.577   0.137   0.130
    1UNL     O5   28   0.579   0.001   0.077
    1UNL    C22   29  -0.045  -0.157  -0.019
    1UNL     H1   30  -0.068   0.497  -0.151
    1UNL     H2   31  -0.245   0.494  -0.097
    1UNL     H3   32  -0.122   0.564   0.011
    1UNL     H4   33  -0.181   0.268   0.179
    1UNL     H5   34  -0.289   0.067  -0.110
    1UNL     H6   35  -0.293  -0.024   0.043
    1UNL     H7   36  -0.298  -0.133  -0.263
    1UNL     H8   37  -0.166  -0.242  -0.244
    1UNL     H9   38  -0.403  -0.208  -0.064
    1UNL    H10   39  -0.382  -0.337  -0.167
    1UNL    H11   40  -0.177  -0.423  -0.056
    1UNL    H12   41  -0.279  -0.395   0.074
    1UNL    H13   42  -0.131  -0.299   0.267
    1UNL    H14   43  -0.242  -0.181   0.210
    1UNL    H15   44  -0.073  -0.017   0.273
    1UNL    H16   45   0.042  -0.127   0.280
    1UNL    H17   46   0.207  -0.248  -0.017
    1UNL    H18   47   0.459  -0.232  -0.006
    1UNL    H19   48   0.118   0.257   0.090
    1UNL    H20   49   0.030   0.192  -0.150
    1UNL    H21   50   0.146   0.056  -0.129
    1UNL    H22   51   0.004  -0.061  -0.273
    1UNL    H23   52  -0.107   0.060  -0.281
    1UNL    H24   53   0.591   0.133   0.238
    1UNL    H25   54   0.652   0.193   0.062
    1UNL    H26   55   0.029  -0.213  -0.079
   0.00000   0.00000   0.00000   0.00000   0.00000   0.00000   0.00000   0.00000   0.00000
Generated with MDTraj, t= 76.0
 55
    1UNL     C1    1  -0.107   0.490  -0.069
    1UNL     O1    2  -0.104   0.377   0.022
    1UNL     C2    3  -0.155   0.269  -0.037
    1UNL     O2    4  -0.213   0.268  -0.141
    1UNL     C3    5  -0.140   0.128   0.029
    1UNL     O3    6  -0.166   0.142   0.171
    1UNL     C4    7  -0.242   0.025  -0.035
    1UNL     C5    8  -0.165  -0.080  -0.116
    1UNL     C6    9  -0.248  -0.190  -0.192
    1UNL     C7   10  -0.316  -0.282  -0.091
    1UNL     C8   11  -0.217  -0.356  -0.001
    1UNL     N1   12  -0.114  -0.263   0.053
    1UNL     C9   13  -0.136  -0.194   0.189
    1UNL    C10   14  -0.023  -0.091   0.205
    1UNL    C11   15   0.025  -0.060   0.059
    1UNL    C12   16   0.178  -0.069   0.058
    1UNL    C13   17   0.265  -0.172   0.052
    1UNL    C14   18   0.404  -0.156   0.057
    1UNL    C15   19   0.454  -0.027   0.082
    1UNL    C16   20   0.358   0.075   0.119
    1UNL    C17   21   0.219   0.062   0.104
    1UNL     N2   22   0.117   0.154   0.082
    1UNL    C18   23   0.004   0.082   0.014
    1UNL    C19   24   0.025   0.092  -0.140
    1UNL    C20   25  -0.072  -0.007  -0.220
    1UNL     O4   26   0.431   0.189   0.150
    1UNL    C21   27   0.570   0.160   0.114
    1UNL     O5   28   0.583   0.023   0.074
    1UNL    C22   29  -0.062  -0.156  -0.033
    1UNL     H1   30  -0.033   0.485  -0.155
    1UNL     H2   31  -0.208   0.500  -0.106
    1UNL     H3   32  -0.076   0.575  -0.011
    1UNL     H4   33  -0.172   0.241   0.171
    1UNL     H5   34  -0.304   0.089  -0.093
    1UNL     H6   35  -0.297  -0.022   0.049
    1UNL     H7   36  -0.315  -0.138  -0.261
    1UNL     H8   37  -0.191  -0.257  -0.250
    1UNL     H9   38  -0.401  -0.223  -0.039
    1UNL    H10   39  -0.378  -0.350  -0.151
    1UNL    H11   40  -0.160  -0.429  -0.055
    1UNL    H12   41  -0.264  -0.412   0.078
    1UNL    H13   42  -0.147  -0.276   0.266
    1UNL    H14   43  -0.237  -0.150   0.183
    1UNL    H15   44  -0.052  -0.010   0.260
    1UNL    H16   45   0.056  -0.138   0.265
    1UNL    H17   46   0.223  -0.269   0.019
    1UNL    H18   47   0.466  -0.236   0.021
    1UNL    H19   48   0.135   0.233   0.020
    1UNL    H20   49   0.004   0.190  -0.166
    1UNL    H21   50   0.126   0.058  -0.160
    1UNL    H22   51  -0.018  -0.075  -0.281
    1UNL    H23   52  -0.124   0.053  -0.294
    1UNL    H24   53   0.628   0.171   0.204
    1UNL    H25   54   0.597   0.232   0.026
    1UNL    H26   55   0.009  -0.199  -0.107
   0.00000   0.00000   0.00000   0.00000   0.00000   0.00000   0.00000   0.00000   0.00000
Generated with MDTraj, t= 77.0
 55
    1UNL     C1    1  -0.099   0.490  -0.020
    1UNL     O1    2  -0.070   0.354   0.015
    1UNL     C2    3  -0.151   0.259  -0.043
    1UNL     O2    4  -0.226   0.284  -0.137
    1UNL     C3    5  -0.134   0.132   0.029
    1UNL     O3    6  -0.152   0.150   0.172
    1UNL     C4    7  -0.239   0.026  -0.028
    1UNL     C5    8  -0.172  -0.081  -0.117
    1UNL     C6    9  -0.274  -0.176  -0.187
    1UNL     C7   10  -0.336  -0.262  -0.076
    1UNL     C8   11  -0.229  -0.352  -0.015
    1UNL     N1   12  -0.118  -0.277   0.040
    1UNL     C9   13  -0.120  -0.227   0.179
    1UNL    C10   14  -0.036  -0.098   0.192
    1UNL    C11   15   0.024  -0.072   0.055
    1UNL    C12   16   0.181  -0.079   0.069
    1UNL    C13   17   0.278  -0.179   0.073
    1UNL    C14   18   0.411  -0.152   0.106
    1UNL    C15   19   0.453  -0.021   0.108
    1UNL    C16   20   0.362   0.084   0.084
    1UNL    C17   21   0.226   0.056   0.085
    1UNL     N2   22   0.121   0.145   0.058
    1UNL    C18   23   0.008   0.075  -0.009
    1UNL    C19   24   0.031   0.065  -0.165
    1UNL    C20   25  -0.095   0.002  -0.226
    1UNL     O4   26   0.431   0.208   0.072
    1UNL    C21   27   0.558   0.183   0.129
    1UNL     O5   28   0.578   0.046   0.135
    1UNL    C22   29  -0.062  -0.164  -0.038
    1UNL     H1   30  -0.089   0.523  -0.128
    1UNL     H2   31  -0.192   0.513   0.028
    1UNL     H3   32  -0.016   0.534   0.028
    1UNL     H4   33  -0.112   0.235   0.194
    1UNL     H5   34  -0.308   0.077  -0.094
    1UNL     H6   35  -0.289  -0.006   0.060
    1UNL     H7   36  -0.350  -0.128  -0.243
    1UNL     H8   37  -0.216  -0.232  -0.256
    1UNL     H9   38  -0.377  -0.189   0.002
    1UNL    H10   39  -0.427  -0.315  -0.109
    1UNL    H11   40  -0.194  -0.419  -0.091
    1UNL    H12   41  -0.271  -0.405   0.069
    1UNL    H13   42  -0.078  -0.308   0.245
    1UNL    H14   43  -0.229  -0.208   0.199
    1UNL    H15   44  -0.110  -0.020   0.228
    1UNL    H16   45   0.045  -0.116   0.262
    1UNL    H17   46   0.254  -0.281   0.047
    1UNL    H18   47   0.486  -0.228   0.107
    1UNL    H19   48   0.129   0.247   0.066
    1UNL    H20   49   0.041   0.164  -0.199
    1UNL    H21   50   0.113  -0.002  -0.185
    1UNL    H22   51  -0.055  -0.060  -0.305
    1UNL    H23   52  -0.158   0.067  -0.281
    1UNL    H24   53   0.565   0.231   0.223
    1UNL    H25   54   0.629   0.232   0.051
    1UNL    H26   55   0.001  -0.215  -0.116
   0.00000   0.00000   0.00000   0.00000   0.00000   0.00000   0.00000   0.00000   0.00000
Generated with MDTraj, t= 78.0
 55
    1UNL     C1    1  -0.083   0.494  -0.039
    1UNL     O1    2  -0.072   0.362   0.029
    1UNL     C2    3  -0.157   0.277  -0.021
    1UNL     O2    4  -0.240   0.292  -0.108
    1UNL     C3    5  -0.132   0.131   0.029
    1UNL     O3    6  -0.127   0.142   0.180
    1UNL     C4    7  -0.238   0.025  -0.021
    1UNL     C5    8  -0.177  -0.088  -0.116
    1UNL     C6    9  -0.281  -0.182  -0.175
    1UNL     C7   10  -0.330  -0.280  -0.068
    1UNL     C8   11  -0.213  -0.362  -0.014
    1UNL     N1   12  -0.103  -0.272   0.033
    1UNL     C9   13  -0.108  -0.225   0.175
    1UNL    C10   14  -0.023  -0.098   0.178
    1UNL    C11   15   0.029  -0.068   0.032
    1UNL    C12   16   0.184  -0.072   0.033
    1UNL    C13   17   0.262  -0.172   0.096
    1UNL    C14   18   0.388  -0.147   0.149
    1UNL    C15   19   0.439  -0.018   0.138
    1UNL    C16   20   0.361   0.087   0.088
    1UNL    C17   21   0.228   0.056   0.041
    1UNL     N2   22   0.123   0.152   0.009
    1UNL    C18   23   0.005   0.079  -0.026
    1UNL    C19   24   0.004   0.076  -0.183
    1UNL    C20   25  -0.115  -0.007  -0.231
    1UNL     O4   26   0.439   0.204   0.091
    1UNL    C21   27   0.570   0.166   0.124
    1UNL     O5   28   0.567   0.033   0.156
    1UNL    C22   29  -0.056  -0.162  -0.057
    1UNL     H1   30  -0.089   0.490  -0.152
    1UNL     H2   31  -0.173   0.541  -0.003
    1UNL     H3   32   0.005   0.551  -0.022
    1UNL     H4   33  -0.096   0.239   0.197
    1UNL     H5   34  -0.306   0.090  -0.078
    1UNL     H6   35  -0.284  -0.012   0.064
    1UNL     H7   36  -0.356  -0.127  -0.220
    1UNL     H8   37  -0.238  -0.239  -0.258
    1UNL     H9   38  -0.381  -0.226   0.017
    1UNL    H10   39  -0.405  -0.347  -0.111
    1UNL    H11   40  -0.172  -0.413  -0.100
    1UNL    H12   41  -0.253  -0.426   0.064
    1UNL    H13   42  -0.061  -0.306   0.239
    1UNL    H14   43  -0.213  -0.205   0.207
    1UNL    H15   44  -0.087  -0.011   0.219
    1UNL    H16   45   0.060  -0.123   0.245
    1UNL    H17   46   0.216  -0.267   0.102
    1UNL    H18   47   0.457  -0.227   0.178
    1UNL    H19   48   0.120   0.238   0.061
    1UNL    H20   49  -0.000   0.172  -0.230
    1UNL    H21   50   0.097   0.031  -0.198
    1UNL    H22   51  -0.097  -0.071  -0.318
    1UNL    H23   52  -0.187   0.053  -0.274
    1UNL    H24   53   0.601   0.235   0.196
    1UNL    H25   54   0.638   0.194   0.037
    1UNL    H26   55   0.007  -0.204  -0.138
   0.00000   0.00000   0.00000   0.00000   0.00000   0.00000   0.00000   0.00000   0.00000
Generated with MDTraj, t= 79.0
 55
    1UNL     C1    1  -0.107   0.493  -0.062
    1UNL     O1    2  -0.067   0.374  -0.000
    1UNL     C2    3  -0.159   0.273  -0.038
    1UNL     O2    4  -0.249   0.280  -0.118
    1UNL     C3    5  -0.137   0.146   0.033
    1UNL     O3    6  -0.144   0.174   0.172
    1UNL     C4    7  -0.243   0.027  -0.001
    1UNL     C5    8  -0.190  -0.078  -0.109
    1UNL     C6    9  -0.294  -0.177  -0.159
    1UNL     C7   10  -0.317  -0.291  -0.054
    1UNL     C8   11  -0.188  -0.371  -0.021
    1UNL     N1   12  -0.078  -0.280   0.035
    1UNL     C9   13  -0.087  -0.225   0.172
    1UNL    C10   14  -0.021  -0.086   0.181
    1UNL    C11   15   0.029  -0.064   0.036
    1UNL    C12   16   0.187  -0.070   0.026
    1UNL    C13   17   0.269  -0.173   0.058
    1UNL    C14   18   0.390  -0.163   0.117
    1UNL    C15   19   0.440  -0.032   0.118
    1UNL    C16   20   0.364   0.082   0.084
    1UNL    C17   21   0.237   0.061   0.034
    1UNL     N2   22   0.128   0.155   0.023
    1UNL    C18   23   0.005   0.081  -0.018
    1UNL    C19   24  -0.004   0.088  -0.167
    1UNL    C20   25  -0.121   0.001  -0.227
    1UNL     O4   26   0.440   0.202   0.114
    1UNL    C21   27   0.565   0.147   0.164
    1UNL     O5   28   0.563   0.008   0.166
    1UNL    C22   29  -0.060  -0.159  -0.051
    1UNL     H1   30  -0.050   0.507  -0.158
    1UNL     H2   31  -0.217   0.495  -0.071
    1UNL     H3   32  -0.070   0.569   0.002
    1UNL     H4   33  -0.125   0.262   0.189
    1UNL     H5   34  -0.332   0.077  -0.038
    1UNL     H6   35  -0.268  -0.023   0.089
    1UNL     H7   36  -0.379  -0.128  -0.189
    1UNL     H8   37  -0.258  -0.222  -0.251
    1UNL     H9   38  -0.347  -0.242   0.043
    1UNL    H10   39  -0.401  -0.353  -0.084
    1UNL    H11   40  -0.156  -0.418  -0.113
    1UNL    H12   41  -0.212  -0.441   0.059
    1UNL    H13   42  -0.046  -0.302   0.241
    1UNL    H14   43  -0.195  -0.223   0.201
    1UNL    H15   44  -0.080  -0.008   0.209
    1UNL    H16   45   0.067  -0.091   0.252
    1UNL    H17   46   0.224  -0.275   0.043
    1UNL    H18   47   0.448  -0.244   0.150
    1UNL    H19   48   0.126   0.230   0.091
    1UNL    H20   49  -0.010   0.195  -0.182
    1UNL    H21   50   0.086   0.054  -0.201
    1UNL    H22   51  -0.096  -0.060  -0.315
    1UNL    H23   52  -0.192   0.059  -0.273
    1UNL    H24   53   0.574   0.189   0.259
    1UNL    H25   54   0.652   0.200   0.114
    1UNL    H26   55   0.005  -0.197  -0.134
   0.00000   0.00000   0.00000   0.00000   0.00000   0.00000   0.00000   0.00000   0.00000
Generated with MDTraj, t= 80.0
 55
    1UNL     C1    1  -0.146   0.481  -0.098
    1UNL     O1    2  -0.117   0.385  -0.002
    1UNL     C2    3  -0.174   0.273  -0.044
    1UNL     O2    4  -0.249   0.248  -0.135
    1UNL     C3    5  -0.132   0.143   0.036
    1UNL     O3    6  -0.124   0.182   0.176
    1UNL     C4    7  -0.235   0.026  -0.004
    1UNL     C5    8  -0.167  -0.071  -0.109
    1UNL     C6    9  -0.274  -0.165  -0.162
    1UNL     C7   10  -0.329  -0.265  -0.055
    1UNL     C8   11  -0.217  -0.345  -0.002
    1UNL     N1   12  -0.095  -0.269   0.046
    1UNL     C9   13  -0.077  -0.231   0.187
    1UNL    C10   14  -0.029  -0.087   0.185
    1UNL    C11   15   0.032  -0.067   0.033
    1UNL    C12   16   0.182  -0.069   0.030
    1UNL    C13   17   0.266  -0.175   0.028
    1UNL    C14   18   0.400  -0.156   0.053
    1UNL    C15   19   0.450  -0.036   0.100
    1UNL    C16   20   0.370   0.079   0.108
    1UNL    C17   21   0.238   0.059   0.070
    1UNL     N2   22   0.131   0.148   0.050
    1UNL    C18   23   0.010   0.085  -0.014
    1UNL    C19   24   0.016   0.083  -0.169
    1UNL    C20   25  -0.107   0.011  -0.226
    1UNL     O4   26   0.439   0.193   0.153
    1UNL    C21   27   0.568   0.134   0.188
    1UNL     O5   28   0.579   0.000   0.142
    1UNL    C22   29  -0.048  -0.162  -0.049
    1UNL     H1   30  -0.106   0.440  -0.196
    1UNL     H2   31  -0.255   0.495  -0.108
    1UNL     H3   32  -0.094   0.573  -0.075
    1UNL     H4   33  -0.089   0.278   0.177
    1UNL     H5   34  -0.316   0.078  -0.049
    1UNL     H6   35  -0.273  -0.023   0.088
    1UNL     H7   36  -0.355  -0.112  -0.202
    1UNL     H8   37  -0.236  -0.214  -0.251
    1UNL     H9   38  -0.388  -0.207   0.023
    1UNL    H10   39  -0.397  -0.330  -0.109
    1UNL    H11   40  -0.182  -0.415  -0.077
    1UNL    H12   41  -0.251  -0.401   0.087
    1UNL    H13   42  -0.004  -0.298   0.236
    1UNL    H14   43  -0.168  -0.259   0.246
    1UNL    H15   44  -0.103  -0.015   0.209
    1UNL    H16   45   0.056  -0.064   0.256
    1UNL    H17   46   0.233  -0.268   0.001
    1UNL    H18   47   0.464  -0.245   0.059
    1UNL    H19   48   0.110   0.205   0.130
    1UNL    H20   49   0.009   0.187  -0.198
    1UNL    H21   50   0.104   0.034  -0.194
    1UNL    H22   51  -0.090  -0.051  -0.313
    1UNL    H23   52  -0.178   0.080  -0.260
    1UNL    H24   53   0.582   0.146   0.293
    1UNL    H25   54   0.637   0.202   0.133
    1UNL    H26   55   0.009  -0.215  -0.130
   0.00000   0.00000   0.00000   0.00000   0.00000   0.00000   0.00000   0.00000   0.00000
Generated with MDTraj, t= 81.0
 55
    1UNL     C1    1  -0.188   0.485  -0.081
    1UNL     O1    2  -0.128   0.383  -0.002
    1UNL     C2    3  -0.173   0.261  -0.052
    1UNL     O2    4  -0.237   0.241  -0.155
    1UNL     C3    5  -0.138   0.140   0.032
    1UNL     O3    6  -0.163   0.165   0.170
    1UNL     C4    7  -0.234   0.026  -0.019
    1UNL     C5    8  -0.159  -0.069  -0.116
    1UNL     C6    9  -0.269  -0.166  -0.186
    1UNL     C7   10  -0.326  -0.256  -0.071
    1UNL     C8   11  -0.233  -0.340   0.010
    1UNL     N1   12  -0.109  -0.256   0.062
    1UNL     C9   13  -0.108  -0.192   0.199
    1UNL    C10   14   0.003  -0.091   0.200
    1UNL    C11   15   0.038  -0.064   0.046
    1UNL    C12   16   0.191  -0.071   0.035
    1UNL    C13   17   0.282  -0.176   0.022
    1UNL    C14   18   0.419  -0.159   0.057
    1UNL    C15   19   0.463  -0.035   0.092
    1UNL    C16   20   0.373   0.073   0.111
    1UNL    C17   21   0.236   0.053   0.069
    1UNL     N2   22   0.135   0.150   0.065
    1UNL    C18   23   0.009   0.086  -0.002
    1UNL    C19   24   0.031   0.090  -0.159
    1UNL    C20   25  -0.089   0.013  -0.223
    1UNL     O4   26   0.441   0.182   0.162
    1UNL    C21   27   0.579   0.131   0.163
    1UNL     O5   28   0.589  -0.005   0.123
    1UNL    C22   29  -0.052  -0.162  -0.038
    1UNL     H1   30  -0.167   0.454  -0.187
    1UNL     H2   31  -0.298   0.492  -0.067
    1UNL     H3   32  -0.145   0.581  -0.057
    1UNL     H4   33  -0.115   0.248   0.205
    1UNL     H5   34  -0.321   0.065  -0.065
    1UNL     H6   35  -0.273  -0.026   0.073
    1UNL     H7   36  -0.347  -0.113  -0.239
    1UNL     H8   37  -0.236  -0.225  -0.268
    1UNL     H9   38  -0.382  -0.182  -0.008
    1UNL    H10   39  -0.402  -0.320  -0.113
    1UNL    H11   40  -0.192  -0.428  -0.040
    1UNL    H12   41  -0.281  -0.378   0.102
    1UNL    H13   42  -0.095  -0.266   0.278
    1UNL    H14   43  -0.209  -0.151   0.225
    1UNL    H15   44  -0.034   0.006   0.256
    1UNL    H16   45   0.095  -0.125   0.252
    1UNL    H17   46   0.239  -0.271  -0.020
    1UNL    H18   47   0.484  -0.240   0.047
    1UNL    H19   48   0.105   0.190   0.153
    1UNL    H20   49   0.026   0.191  -0.194
    1UNL    H21   50   0.123   0.038  -0.169
    1UNL    H22   51  -0.067  -0.049  -0.307
    1UNL    H23   52  -0.165   0.085  -0.257
    1UNL    H24   53   0.609   0.138   0.268
    1UNL    H25   54   0.633   0.196   0.089
    1UNL    H26   55   0.012  -0.215  -0.111
   0.00000   0.00000   0.00000   0.00000   0.00000   0.00000   0.00000   0.00000   0.00000
Generated with MDTraj, t= 82.0
 55
    1UNL     C1    1  -0.173   0.499  -0.025
    1UNL     O1    2  -0.136   0.383   0.036
    1UNL     C2    3  -0.163   0.275  -0.043
    1UNL     O2    4  -0.202   0.272  -0.158
    1UNL     C3    5  -0.140   0.135   0.020
    1UNL     O3    6  -0.156   0.153   0.158
    1UNL     C4    7  -0.230   0.025  -0.038
    1UNL     C5    8  -0.147  -0.087  -0.116
    1UNL     C6    9  -0.245  -0.184  -0.190
    1UNL     C7   10  -0.319  -0.275  -0.090
    1UNL     C8   11  -0.223  -0.347   0.010
    1UNL     N1   12  -0.113  -0.255   0.066
    1UNL     C9   13  -0.143  -0.192   0.192
    1UNL    C10   14  -0.032  -0.084   0.208
    1UNL    C11   15   0.029  -0.063   0.061
    1UNL    C12   16   0.180  -0.066   0.065
    1UNL    C13   17   0.259  -0.181   0.064
    1UNL    C14   18   0.394  -0.163   0.072
    1UNL    C15   19   0.451  -0.037   0.090
    1UNL    C16   20   0.366   0.078   0.087
    1UNL    C17   21   0.228   0.068   0.082
    1UNL     N2   22   0.121   0.152   0.055
    1UNL    C18   23   0.010   0.083  -0.006
    1UNL    C19   24   0.041   0.082  -0.159
    1UNL    C20   25  -0.063  -0.013  -0.225
    1UNL     O4   26   0.449   0.193   0.103
    1UNL    C21   27   0.581   0.142   0.134
    1UNL     O5   28   0.583   0.003   0.110
    1UNL    C22   29  -0.045  -0.168  -0.028
    1UNL     H1   30  -0.108   0.512  -0.113
    1UNL     H2   31  -0.279   0.498  -0.059
    1UNL     H3   32  -0.168   0.575   0.051
    1UNL     H4   33  -0.113   0.233   0.188
    1UNL     H5   34  -0.301   0.072  -0.105
    1UNL     H6   35  -0.293  -0.017   0.043
    1UNL     H7   36  -0.311  -0.129  -0.258
    1UNL     H8   37  -0.201  -0.242  -0.266
    1UNL     H9   38  -0.389  -0.209  -0.032
    1UNL    H10   39  -0.375  -0.347  -0.146
    1UNL    H11   40  -0.172  -0.437  -0.027
    1UNL    H12   41  -0.275  -0.376   0.103
    1UNL    H13   42  -0.138  -0.267   0.271
    1UNL    H14   43  -0.239  -0.138   0.192
    1UNL    H15   44  -0.076   0.021   0.238
    1UNL    H16   45   0.042  -0.124   0.282
    1UNL    H17   46   0.229  -0.282   0.057
    1UNL    H18   47   0.469  -0.244   0.069
    1UNL    H19   48   0.126   0.252   0.045
    1UNL    H20   49   0.031   0.185  -0.188
    1UNL    H21   50   0.138   0.038  -0.176
    1UNL    H22   51  -0.014  -0.085  -0.282
    1UNL    H23   52  -0.136   0.038  -0.294
    1UNL    H24   53   0.592   0.155   0.245
    1UNL    H25   54   0.652   0.188   0.061
    1UNL    H26   55   0.022  -0.228  -0.093
   0.00000   0.00000   0.00000   0.00000   0.00000   0.00000   0.00000   0.00000   0.00000
Generated with MDTraj, t= 83.0
 55
    1UNL     C1    1  -0.126   0.502   0.005
    1UNL     O1    2  -0.150   0.374   0.057
    1UNL     C2    3  -0.152   0.278  -0.039
    1UNL     O2    4  -0.146   0.294  -0.159
    1UNL     C3    5  -0.136   0.129   0.021
    1UNL     O3    6  -0.180   0.133   0.157
    1UNL     C4    7  -0.230   0.032  -0.056
    1UNL     C5    8  -0.157  -0.093  -0.134
    1UNL     C6    9  -0.256  -0.191  -0.193
    1UNL     C7   10  -0.319  -0.280  -0.089
    1UNL     C8   11  -0.216  -0.354  -0.001
    1UNL     N1   12  -0.109  -0.266   0.058
    1UNL     C9   13  -0.141  -0.201   0.187
    1UNL    C10   14  -0.040  -0.077   0.205
    1UNL    C11   15   0.028  -0.064   0.062
    1UNL    C12   16   0.178  -0.074   0.081
    1UNL    C13   17   0.260  -0.181   0.111
    1UNL    C14   18   0.394  -0.158   0.130
    1UNL    C15   19   0.444  -0.027   0.107
    1UNL    C16   20   0.361   0.086   0.089
    1UNL    C17   21   0.225   0.060   0.085
    1UNL     N2   22   0.117   0.158   0.062
    1UNL    C18   23   0.006   0.083   0.000
    1UNL    C19   24   0.034   0.079  -0.161
    1UNL    C20   25  -0.066  -0.018  -0.236
    1UNL     O4   26   0.440   0.198   0.071
    1UNL    C21   27   0.575   0.151   0.053
    1UNL     O5   28   0.576   0.018   0.106
    1UNL    C22   29  -0.050  -0.161  -0.033
    1UNL     H1   30  -0.037   0.500  -0.059
    1UNL     H2   31  -0.209   0.528  -0.063
    1UNL     H3   32  -0.131   0.575   0.082
    1UNL     H4   33  -0.278   0.166   0.171
    1UNL     H5   34  -0.289   0.092  -0.129
    1UNL     H6   35  -0.306  -0.000   0.012
    1UNL     H7   36  -0.332  -0.134  -0.252
    1UNL     H8   37  -0.218  -0.244  -0.274
    1UNL     H9   38  -0.378  -0.214  -0.022
    1UNL    H10   39  -0.383  -0.353  -0.136
    1UNL    H11   40  -0.160  -0.429  -0.060
    1UNL    H12   41  -0.268  -0.409   0.082
    1UNL    H13   42  -0.135  -0.270   0.269
    1UNL    H14   43  -0.240  -0.154   0.182
    1UNL    H15   44  -0.087   0.008   0.239
    1UNL    H16   45   0.044  -0.099   0.278
    1UNL    H17   46   0.214  -0.279   0.126
    1UNL    H18   47   0.465  -0.236   0.141
    1UNL    H19   48   0.091   0.225   0.133
    1UNL    H20   49   0.027   0.179  -0.196
    1UNL    H21   50   0.139   0.048  -0.176
    1UNL    H22   51  -0.009  -0.095  -0.281
    1UNL    H23   52  -0.119   0.033  -0.321
    1UNL    H24   53   0.638   0.216   0.121
    1UNL    H25   54   0.593   0.144  -0.055
    1UNL    H26   55   0.029  -0.212  -0.091
   0.00000   0.00000   0.00000   0.00000   0.00000   0.00000   0.00000   0.00000   0.00000
Generated with MDTraj, t= 84.0
 55
    1UNL     C1    1  -0.124   0.497  -0.010
    1UNL     O1    2  -0.132   0.373   0.052
    1UNL     C2    3  -0.136   0.266  -0.037
    1UNL     O2    4  -0.141   0.277  -0.157
    1UNL     C3    5  -0.143   0.125   0.023
    1UNL     O3    6  -0.174   0.143   0.159
    1UNL     C4    7  -0.237   0.026  -0.046
    1UNL     C5    8  -0.158  -0.085  -0.123
    1UNL     C6    9  -0.242  -0.183  -0.195
    1UNL     C7   10  -0.323  -0.282  -0.110
    1UNL     C8   11  -0.231  -0.352  -0.008
    1UNL     N1   12  -0.130  -0.262   0.053
    1UNL     C9   13  -0.157  -0.201   0.184
    1UNL    C10   14  -0.053  -0.092   0.206
    1UNL    C11   15   0.023  -0.068   0.077
    1UNL    C12   16   0.173  -0.073   0.097
    1UNL    C13   17   0.267  -0.183   0.121
    1UNL    C14   18   0.400  -0.151   0.110
    1UNL    C15   19   0.447  -0.023   0.093
    1UNL    C16   20   0.360   0.081   0.070
    1UNL    C17   21   0.219   0.059   0.082
    1UNL     N2   22   0.119   0.156   0.071
    1UNL    C18   23   0.008   0.074   0.014
    1UNL    C19   24   0.042   0.074  -0.144
    1UNL    C20   25  -0.058  -0.009  -0.221
    1UNL     O4   26   0.433   0.202   0.050
    1UNL    C21   27   0.569   0.172   0.075
    1UNL     O5   28   0.584   0.029   0.094
    1UNL    C22   29  -0.054  -0.164  -0.030
    1UNL     H1   30  -0.025   0.519  -0.051
    1UNL     H2   31  -0.194   0.495  -0.096
    1UNL     H3   32  -0.164   0.568   0.058
    1UNL     H4   33  -0.165   0.231   0.195
    1UNL     H5   34  -0.311   0.076  -0.114
    1UNL     H6   35  -0.298  -0.029   0.019
    1UNL     H7   36  -0.301  -0.140  -0.279
    1UNL     H8   37  -0.173  -0.233  -0.255
    1UNL     H9   38  -0.393  -0.227  -0.045
    1UNL    H10   39  -0.373  -0.354  -0.174
    1UNL    H11   40  -0.174  -0.429  -0.064
    1UNL    H12   41  -0.288  -0.403   0.074
    1UNL    H13   42  -0.152  -0.268   0.268
    1UNL    H14   43  -0.262  -0.173   0.187
    1UNL    H15   44  -0.092  -0.002   0.242
    1UNL    H16   45   0.022  -0.114   0.290
    1UNL    H17   46   0.228  -0.285   0.125
    1UNL    H18   47   0.473  -0.231   0.117
    1UNL    H19   48   0.095   0.204   0.157
    1UNL    H20   49   0.042   0.173  -0.181
    1UNL    H21   50   0.148   0.036  -0.151
    1UNL    H22   51  -0.006  -0.063  -0.300
    1UNL    H23   52  -0.120   0.063  -0.281
    1UNL    H24   53   0.608   0.225   0.168
    1UNL    H25   54   0.625   0.202  -0.011
    1UNL    H26   55   0.030  -0.214  -0.081
   0.00000   0.00000   0.00000   0.00000   0.00000   0.00000   0.00000   0.00000   0.00000
Generated with MDTraj, t= 85.0
 55
    1UNL     C1    1  -0.138   0.489  -0.061
    1UNL     O1    2  -0.133   0.377   0.018
    1UNL     C2    3  -0.162   0.266  -0.049
    1UNL     O2    4  -0.205   0.267  -0.162
    1UNL     C3    5  -0.132   0.129   0.028
    1UNL     O3    6  -0.158   0.144   0.173
    1UNL     C4    7  -0.226   0.026  -0.042
    1UNL     C5    8  -0.147  -0.083  -0.123
    1UNL     C6    9  -0.241  -0.182  -0.186
    1UNL     C7   10  -0.327  -0.260  -0.083
    1UNL     C8   11  -0.232  -0.346  -0.001
    1UNL     N1   12  -0.122  -0.266   0.055
    1UNL     C9   13  -0.141  -0.200   0.191
    1UNL    C10   14  -0.035  -0.097   0.201
    1UNL    C11   15   0.025  -0.062   0.066
    1UNL    C12   16   0.178  -0.075   0.080
    1UNL    C13   17   0.265  -0.181   0.068
    1UNL    C14   18   0.402  -0.155   0.061
    1UNL    C15   19   0.452  -0.025   0.084
    1UNL    C16   20   0.360   0.079   0.116
    1UNL    C17   21   0.224   0.061   0.108
    1UNL     N2   22   0.124   0.163   0.084
    1UNL    C18   23   0.012   0.090   0.011
    1UNL    C19   24   0.045   0.085  -0.147
    1UNL    C20   25  -0.054  -0.006  -0.226
    1UNL     O4   26   0.433   0.188   0.136
    1UNL    C21   27   0.565   0.155   0.093
    1UNL     O5   28   0.587   0.013   0.091
    1UNL    C22   29  -0.051  -0.163  -0.033
    1UNL     H1   30  -0.087   0.483  -0.158
    1UNL     H2   31  -0.246   0.510  -0.082
    1UNL     H3   32  -0.108   0.574  -0.002
    1UNL     H4   33  -0.183   0.239   0.186
    1UNL     H5   34  -0.301   0.067  -0.112
    1UNL     H6   35  -0.287  -0.027   0.031
    1UNL     H7   36  -0.303  -0.136  -0.265
    1UNL     H8   37  -0.187  -0.246  -0.250
    1UNL     H9   38  -0.383  -0.190  -0.019
    1UNL    H10   39  -0.393  -0.330  -0.134
    1UNL    H11   40  -0.188  -0.425  -0.067
    1UNL    H12   41  -0.286  -0.404   0.079
    1UNL    H13   42  -0.139  -0.277   0.266
    1UNL    H14   43  -0.242  -0.161   0.205
    1UNL    H15   44  -0.074   0.001   0.252
    1UNL    H16   45   0.046  -0.124   0.272
    1UNL    H17   46   0.221  -0.273   0.047
    1UNL    H18   47   0.466  -0.238   0.034
    1UNL    H19   48   0.079   0.197   0.170
    1UNL    H20   49   0.031   0.184  -0.177
    1UNL    H21   50   0.152   0.056  -0.172
    1UNL    H22   51   0.002  -0.082  -0.290
    1UNL    H23   52  -0.103   0.059  -0.299
    1UNL    H24   53   0.650   0.212   0.143
    1UNL    H25   54   0.581   0.186  -0.007
    1UNL    H26   55   0.019  -0.219  -0.098
   0.00000   0.00000   0.00000   0.00000   0.00000   0.00000   0.00000   0.00000   0.00000
Generated with MDTraj, t= 86.0
 55
    1UNL     C1    1  -0.162   0.489  -0.081
    1UNL     O1    2  -0.100   0.379  -0.019
    1UNL     C2    3  -0.165   0.259  -0.058
    1UNL     O2    4  -0.237   0.256  -0.158
    1UNL     C3    5  -0.138   0.135   0.029
    1UNL     O3    6  -0.159   0.168   0.167
    1UNL     C4    7  -0.236   0.023  -0.017
    1UNL     C5    8  -0.161  -0.077  -0.112
    1UNL     C6    9  -0.258  -0.180  -0.177
    1UNL     C7   10  -0.324  -0.284  -0.087
    1UNL     C8   11  -0.214  -0.356  -0.002
    1UNL     N1   12  -0.121  -0.253   0.057
    1UNL     C9   13  -0.120  -0.203   0.198
    1UNL    C10   14  -0.016  -0.087   0.210
    1UNL    C11   15   0.030  -0.057   0.062
    1UNL    C12   16   0.183  -0.066   0.061
    1UNL    C13   17   0.264  -0.175   0.034
    1UNL    C14   18   0.406  -0.155   0.030
    1UNL    C15   19   0.462  -0.033   0.071
    1UNL    C16   20   0.372   0.078   0.097
    1UNL    C17   21   0.234   0.065   0.086
    1UNL     N2   22   0.126   0.157   0.079
    1UNL    C18   23   0.011   0.091   0.011
    1UNL    C19   24   0.030   0.092  -0.147
    1UNL    C20   25  -0.093   0.015  -0.224
    1UNL     O4   26   0.444   0.181   0.157
    1UNL    C21   27   0.571   0.130   0.178
    1UNL     O5   28   0.598   0.007   0.110
    1UNL    C22   29  -0.056  -0.152  -0.026
    1UNL     H1   30  -0.164   0.486  -0.190
    1UNL     H2   31  -0.269   0.488  -0.046
    1UNL     H3   32  -0.122   0.585  -0.049
    1UNL     H4   33  -0.208   0.260   0.171
    1UNL     H5   34  -0.326   0.052  -0.074
    1UNL     H6   35  -0.272  -0.039   0.072
    1UNL     H7   36  -0.330  -0.127  -0.240
    1UNL     H8   37  -0.207  -0.233  -0.256
    1UNL     H9   38  -0.398  -0.233  -0.024
    1UNL    H10   39  -0.372  -0.359  -0.150
    1UNL    H11   40  -0.155  -0.433  -0.058
    1UNL    H12   41  -0.252  -0.421   0.081
    1UNL    H13   42  -0.096  -0.294   0.251
    1UNL    H14   43  -0.220  -0.165   0.218
    1UNL    H15   44  -0.075   0.003   0.258
    1UNL    H16   45   0.068  -0.119   0.275
    1UNL    H17   46   0.230  -0.278   0.007
    1UNL    H18   47   0.483  -0.228   0.013
    1UNL    H19   48   0.081   0.189   0.166
    1UNL    H20   49   0.033   0.193  -0.177
    1UNL    H21   50   0.131   0.046  -0.174
    1UNL    H22   51  -0.046  -0.047  -0.311
    1UNL    H23   52  -0.156   0.087  -0.275
    1UNL    H24   53   0.583   0.102   0.288
    1UNL    H25   54   0.656   0.190   0.166
    1UNL    H26   55   0.000  -0.212  -0.100
   0.00000   0.00000   0.00000   0.00000   0.00000   0.00000   0.00000   0.00000   0.00000
Generated with MDTraj, t= 87.0
 55
    1UNL     C1    1  -0.131   0.480  -0.105
    1UNL     O1    2  -0.110   0.385  -0.010
    1UNL     C2    3  -0.178   0.273  -0.039
    1UNL     O2    4  -0.272   0.266  -0.116
    1UNL     C3    5  -0.130   0.141   0.025
    1UNL     O3    6  -0.132   0.153   0.166
    1UNL     C4    7  -0.227   0.021  -0.012
    1UNL     C5    8  -0.167  -0.077  -0.120
    1UNL     C6    9  -0.285  -0.183  -0.167
    1UNL     C7   10  -0.322  -0.270  -0.045
    1UNL     C8   11  -0.202  -0.347   0.002
    1UNL     N1   12  -0.089  -0.258   0.038
    1UNL     C9   13  -0.093  -0.220   0.184
    1UNL    C10   14  -0.008  -0.087   0.183
    1UNL    C11   15   0.037  -0.051   0.034
    1UNL    C12   16   0.189  -0.065   0.034
    1UNL    C13   17   0.267  -0.182   0.031
    1UNL    C14   18   0.405  -0.168   0.066
    1UNL    C15   19   0.451  -0.042   0.112
    1UNL    C16   20   0.366   0.075   0.116
    1UNL    C17   21   0.231   0.059   0.068
    1UNL     N2   22   0.131   0.163   0.043
    1UNL    C18   23   0.011   0.094  -0.014
    1UNL    C19   24   0.010   0.104  -0.171
    1UNL    C20   25  -0.108   0.015  -0.227
    1UNL     O4   26   0.436   0.182   0.154
    1UNL    C21   27   0.563   0.141   0.173
    1UNL     O5   28   0.573  -0.004   0.168
    1UNL    C22   29  -0.046  -0.151  -0.053
    1UNL     H1   30  -0.106   0.441  -0.203
    1UNL     H2   31  -0.240   0.509  -0.107
    1UNL     H3   32  -0.071   0.570  -0.091
    1UNL     H4   33  -0.195   0.228   0.192
    1UNL     H5   34  -0.323   0.057  -0.050
    1UNL     H6   35  -0.246  -0.052   0.074
    1UNL     H7   36  -0.374  -0.148  -0.216
    1UNL     H8   37  -0.242  -0.246  -0.247
    1UNL     H9   38  -0.354  -0.203   0.034
    1UNL    H10   39  -0.405  -0.338  -0.067
    1UNL    H11   40  -0.164  -0.422  -0.072
    1UNL    H12   41  -0.215  -0.425   0.083
    1UNL    H13   42  -0.042  -0.297   0.240
    1UNL    H14   43  -0.199  -0.212   0.204
    1UNL    H15   44  -0.073  -0.014   0.219
    1UNL    H16   45   0.078  -0.105   0.255
    1UNL    H17   46   0.221  -0.276   0.020
    1UNL    H18   47   0.468  -0.257   0.050
    1UNL    H19   48   0.100   0.226   0.119
    1UNL    H20   49   0.001   0.209  -0.201
    1UNL    H21   50   0.105   0.060  -0.211
    1UNL    H22   51  -0.064  -0.038  -0.320
    1UNL    H23   52  -0.190   0.075  -0.269
    1UNL    H24   53   0.619   0.174   0.267
    1UNL    H25   54   0.614   0.175   0.087
    1UNL    H26   55   0.015  -0.190  -0.134
   0.00000   0.00000   0.00000   0.00000   0.00000   0.00000   0.00000   0.00000   0.00000
Generated with MDTraj, t= 88.0
 55
    1UNL     C1    1  -0.115   0.484  -0.073
    1UNL     O1    2  -0.064   0.364  -0.036
    1UNL     C2    3  -0.160   0.268  -0.038
    1UNL     O2    4  -0.267   0.273  -0.093
    1UNL     C3    5  -0.127   0.142   0.038
    1UNL     O3    6  -0.116   0.166   0.178
    1UNL     C4    7  -0.227   0.024   0.007
    1UNL     C5    8  -0.179  -0.073  -0.115
    1UNL     C6    9  -0.298  -0.168  -0.158
    1UNL     C7   10  -0.331  -0.288  -0.061
    1UNL     C8   11  -0.212  -0.365  -0.025
    1UNL     N1   12  -0.097  -0.274   0.022
    1UNL     C9   13  -0.074  -0.241   0.166
    1UNL    C10   14  -0.010  -0.103   0.175
    1UNL    C11   15   0.035  -0.064   0.031
    1UNL    C12   16   0.187  -0.071   0.036
    1UNL    C13   17   0.264  -0.179   0.077
    1UNL    C14   18   0.393  -0.161   0.118
    1UNL    C15   19   0.440  -0.031   0.128
    1UNL    C16   20   0.369   0.081   0.076
    1UNL    C17   21   0.237   0.063   0.036
    1UNL     N2   22   0.133   0.152   0.009
    1UNL    C18   23   0.011   0.088  -0.025
    1UNL    C19   24  -0.002   0.095  -0.179
    1UNL    C20   25  -0.127   0.023  -0.220
    1UNL     O4   26   0.440   0.203   0.108
    1UNL    C21   27   0.547   0.164   0.188
    1UNL     O5   28   0.559   0.016   0.194
    1UNL    C22   29  -0.052  -0.155  -0.058
    1UNL     H1   30  -0.123   0.479  -0.179
    1UNL     H2   31  -0.218   0.498  -0.029
    1UNL     H3   32  -0.052   0.567  -0.048
    1UNL     H4   33  -0.109   0.260   0.195
    1UNL     H5   34  -0.330   0.057  -0.018
    1UNL     H6   35  -0.233  -0.039   0.099
    1UNL     H7   36  -0.381  -0.103  -0.165
    1UNL     H8   37  -0.291  -0.209  -0.262
    1UNL     H9   38  -0.362  -0.243   0.031
    1UNL    H10   39  -0.411  -0.353  -0.100
    1UNL    H11   40  -0.178  -0.435  -0.106
    1UNL    H12   41  -0.228  -0.454   0.043
    1UNL    H13   42  -0.011  -0.321   0.201
    1UNL    H14   43  -0.168  -0.245   0.221
    1UNL    H15   44  -0.067  -0.034   0.227
    1UNL    H16   45   0.089  -0.104   0.230
    1UNL    H17   46   0.220  -0.279   0.082
    1UNL    H18   47   0.454  -0.241   0.148
    1UNL    H19   48   0.123   0.242   0.059
    1UNL    H20   49   0.004   0.200  -0.221
    1UNL    H21   50   0.083   0.039  -0.220
    1UNL    H22   51  -0.118  -0.035  -0.317
    1UNL    H23   52  -0.198   0.109  -0.247
    1UNL    H24   53   0.521   0.186   0.297
    1UNL    H25   54   0.642   0.199   0.152
    1UNL    H26   55   0.010  -0.189  -0.142
   0.00000   0.00000   0.00000   0.00000   0.00000   0.00000   0.00000   0.00000   0.00000
Generated with MDTraj, t= 89.0
 55
    1UNL     C1    1  -0.087   0.493  -0.067
    1UNL     O1    2  -0.056   0.367  -0.006
    1UNL     C2    3  -0.153   0.274  -0.025
    1UNL     O2    4  -0.261   0.297  -0.070
    1UNL     C3    5  -0.121   0.135   0.027
    1UNL     O3    6  -0.118   0.153   0.173
    1UNL     C4    7  -0.226   0.029  -0.007
    1UNL     C5    8  -0.179  -0.080  -0.119
    1UNL     C6    9  -0.300  -0.174  -0.153
    1UNL     C7   10  -0.335  -0.283  -0.053
    1UNL     C8   11  -0.212  -0.371  -0.024
    1UNL     N1   12  -0.101  -0.282   0.024
    1UNL     C9   13  -0.087  -0.242   0.162
    1UNL    C10   14  -0.009  -0.111   0.162
    1UNL    C11   15   0.038  -0.074   0.016
    1UNL    C12   16   0.189  -0.076   0.034
    1UNL    C13   17   0.265  -0.174   0.090
    1UNL    C14   18   0.390  -0.151   0.135
    1UNL    C15   19   0.435  -0.017   0.136
    1UNL    C16   20   0.354   0.093   0.100
    1UNL    C17   21   0.235   0.060   0.046
    1UNL     N2   22   0.130   0.150   0.015
    1UNL    C18   23   0.010   0.081  -0.032
    1UNL    C19   24   0.006   0.083  -0.190
    1UNL    C20   25  -0.122   0.003  -0.242
    1UNL     O4   26   0.417   0.214   0.115
    1UNL    C21   27   0.551   0.172   0.152
    1UNL     O5   28   0.558   0.027   0.184
    1UNL    C22   29  -0.056  -0.171  -0.066
    1UNL     H1   30  -0.140   0.467  -0.154
    1UNL     H2   31  -0.153   0.556  -0.002
    1UNL     H3   32  -0.003   0.548  -0.103
    1UNL     H4   33  -0.095   0.238   0.202
    1UNL     H5   34  -0.312   0.087  -0.054
    1UNL     H6   35  -0.263  -0.013   0.085
    1UNL     H7   36  -0.389  -0.117  -0.167
    1UNL     H8   37  -0.280  -0.214  -0.257
    1UNL     H9   38  -0.369  -0.238   0.036
    1UNL    H10   39  -0.418  -0.345  -0.095
    1UNL    H11   40  -0.174  -0.441  -0.101
    1UNL    H12   41  -0.235  -0.450   0.050
    1UNL    H13   42  -0.044  -0.322   0.222
    1UNL    H14   43  -0.187  -0.236   0.202
    1UNL    H15   44  -0.052  -0.011   0.209
    1UNL    H16   45   0.073  -0.126   0.235
    1UNL    H17   46   0.211  -0.268   0.098
    1UNL    H18   47   0.453  -0.238   0.160
    1UNL    H19   48   0.155   0.223  -0.054
    1UNL    H20   49   0.006   0.195  -0.222
    1UNL    H21   50   0.097   0.042  -0.232
    1UNL    H22   51  -0.108  -0.056  -0.337
    1UNL    H23   52  -0.216   0.068  -0.271
    1UNL    H24   53   0.577   0.226   0.246
    1UNL    H25   54   0.625   0.175   0.070
    1UNL    H26   55   0.003  -0.219  -0.143
   0.00000   0.00000   0.00000   0.00000   0.00000   0.00000   0.00000   0.00000   0.00000
Generated with MDTraj, t= 90.0
 55
    1UNL     C1    1  -0.079   0.480  -0.050
    1UNL     O1    2  -0.054   0.347  -0.015
    1UNL     C2    3  -0.158   0.268  -0.040
    1UNL     O2    4  -0.264   0.289  -0.093
    1UNL     C3    5  -0.139   0.131   0.027
    1UNL     O3    6  -0.161   0.165   0.162
    1UNL     C4    7  -0.239   0.014  -0.021
    1UNL     C5    8  -0.170  -0.081  -0.120
    1UNL     C6    9  -0.271  -0.181  -0.180
    1UNL     C7   10  -0.334  -0.280  -0.072
    1UNL     C8   11  -0.217  -0.367  -0.016
    1UNL     N1   12  -0.108  -0.275   0.040
    1UNL     C9   13  -0.102  -0.227   0.180
    1UNL    C10   14  -0.028  -0.092   0.187
    1UNL    C11   15   0.030  -0.069   0.047
    1UNL    C12   16   0.179  -0.069   0.059
    1UNL    C13   17   0.269  -0.179   0.066
    1UNL    C14   18   0.402  -0.148   0.079
    1UNL    C15   19   0.449  -0.020   0.107
    1UNL    C16   20   0.362   0.091   0.091
    1UNL    C17   21   0.225   0.059   0.074
    1UNL     N2   22   0.123   0.150   0.053
    1UNL    C18   23   0.012   0.078  -0.010
    1UNL    C19   24   0.025   0.086  -0.160
    1UNL    C20   25  -0.100   0.018  -0.227
    1UNL     O4   26   0.432   0.215   0.103
    1UNL    C21   27   0.551   0.165   0.161
    1UNL     O5   28   0.570   0.023   0.150
    1UNL    C22   29  -0.055  -0.166  -0.053
    1UNL     H1   30  -0.087   0.478  -0.155
    1UNL     H2   31  -0.174   0.514   0.001
    1UNL     H3   32   0.006   0.545  -0.026
    1UNL     H4   33  -0.134   0.264   0.175
    1UNL     H5   34  -0.330   0.054  -0.075
    1UNL     H6   35  -0.275  -0.043   0.062
    1UNL     H7   36  -0.345  -0.119  -0.226
    1UNL     H8   37  -0.223  -0.234  -0.267
    1UNL     H9   38  -0.373  -0.225   0.010
    1UNL    H10   39  -0.412  -0.346  -0.118
    1UNL    H11   40  -0.183  -0.435  -0.096
    1UNL    H12   41  -0.246  -0.437   0.063
    1UNL    H13   42  -0.044  -0.305   0.232
    1UNL    H14   43  -0.196  -0.226   0.234
    1UNL    H15   44  -0.091  -0.007   0.223
    1UNL    H16   45   0.059  -0.081   0.256
    1UNL    H17   46   0.231  -0.276   0.048
    1UNL    H18   47   0.474  -0.225   0.100
    1UNL    H19   48   0.154   0.233   0.001
    1UNL    H20   49   0.013   0.196  -0.197
    1UNL    H21   50   0.125   0.051  -0.183
    1UNL    H22   51  -0.069  -0.046  -0.312
    1UNL    H23   52  -0.182   0.091  -0.275
    1UNL    H24   53   0.572   0.198   0.265
    1UNL    H25   54   0.637   0.200   0.099
    1UNL    H26   55   0.010  -0.208  -0.128
   0.00000   0.00000   0.00000   0.00000   0.00000   0.00000   0.00000   0.00000   0.00000
Generated with MDTraj, t= 91.0
 55
    1UNL     C1    1  -0.119   0.480  -0.096
    1UNL     O1    2  -0.093   0.383   0.003
    1UNL     C2    3  -0.163   0.267  -0.035
    1UNL     O2    4  -0.242   0.261  -0.128
    1UNL     C3    5  -0.135   0.136   0.031
    1UNL     O3    6  -0.172   0.152   0.169
    1UNL     C4    7  -0.229   0.016  -0.035
    1UNL     C5    8  -0.147  -0.081  -0.120
    1UNL     C6    9  -0.245  -0.180  -0.193
    1UNL     C7   10  -0.314  -0.278  -0.095
    1UNL     C8   11  -0.213  -0.357  -0.015
    1UNL     N1   12  -0.123  -0.261   0.051
    1UNL     C9   13  -0.141  -0.210   0.188
    1UNL    C10   14  -0.031  -0.103   0.212
    1UNL    C11   15   0.026  -0.066   0.065
    1UNL    C12   16   0.177  -0.071   0.080
    1UNL    C13   17   0.261  -0.174   0.054
    1UNL    C14   18   0.397  -0.151   0.049
    1UNL    C15   19   0.445  -0.025   0.080
    1UNL    C16   20   0.362   0.083   0.121
    1UNL    C17   21   0.225   0.057   0.107
    1UNL     N2   22   0.116   0.155   0.094
    1UNL    C18   23   0.006   0.091   0.013
    1UNL    C19   24   0.035   0.102  -0.140
    1UNL    C20   25  -0.063   0.013  -0.218
    1UNL     O4   26   0.438   0.192   0.151
    1UNL    C21   27   0.569   0.151   0.113
    1UNL     O5   28   0.572   0.015   0.082
    1UNL    C22   29  -0.047  -0.164  -0.035
    1UNL     H1   30  -0.082   0.439  -0.186
    1UNL     H2   31  -0.232   0.497  -0.092
    1UNL     H3   32  -0.060   0.572  -0.078
    1UNL     H4   33  -0.137   0.240   0.210
    1UNL     H5   34  -0.311   0.068  -0.091
    1UNL     H6   35  -0.276  -0.036   0.047
    1UNL     H7   36  -0.313  -0.131  -0.265
    1UNL     H8   37  -0.175  -0.240  -0.256
    1UNL     H9   38  -0.370  -0.224  -0.022
    1UNL    H10   39  -0.371  -0.359  -0.149
    1UNL    H11   40  -0.149  -0.418  -0.080
    1UNL    H12   41  -0.273  -0.419   0.052
    1UNL    H13   42  -0.126  -0.283   0.271
    1UNL    H14   43  -0.238  -0.161   0.196
    1UNL    H15   44  -0.056  -0.017   0.259
    1UNL    H16   45   0.049  -0.157   0.272
    1UNL    H17   46   0.234  -0.276   0.021
    1UNL    H18   47   0.470  -0.224   0.020
    1UNL    H19   48   0.134   0.256   0.078
    1UNL    H20   49   0.019   0.214  -0.162
    1UNL    H21   50   0.133   0.064  -0.172
    1UNL    H22   51  -0.023  -0.053  -0.301
    1UNL    H23   52  -0.143   0.079  -0.269
    1UNL    H24   53   0.627   0.154   0.203
    1UNL    H25   54   0.626   0.229   0.052
    1UNL    H26   55   0.021  -0.218  -0.100
   0.00000   0.00000   0.00000   0.00000   0.00000   0.00000   0.00000   0.00000   0.00000
Generated with MDTraj, t= 92.0
 55
    1UNL     C1    1  -0.152   0.485  -0.071
    1UNL     O1    2  -0.111   0.374   0.006
    1UNL     C2    3  -0.156   0.264  -0.053
    1UNL     O2    4  -0.207   0.253  -0.163
    1UNL     C3    5  -0.141   0.139   0.037
    1UNL     O3    6  -0.193   0.171   0.170
    1UNL     C4    7  -0.217   0.016  -0.029
    1UNL     C5    8  -0.131  -0.079  -0.122
    1UNL     C6    9  -0.220  -0.175  -0.203
    1UNL     C7   10  -0.313  -0.263  -0.116
    1UNL     C8   11  -0.223  -0.345  -0.016
    1UNL     N1   12  -0.135  -0.254   0.057
    1UNL     C9   13  -0.143  -0.220   0.200
    1UNL    C10   14  -0.048  -0.104   0.223
    1UNL    C11   15   0.023  -0.070   0.082
    1UNL    C12   16   0.171  -0.077   0.095
    1UNL    C13   17   0.257  -0.176   0.058
    1UNL    C14   18   0.398  -0.158   0.042
    1UNL    C15   19   0.445  -0.035   0.067
    1UNL    C16   20   0.358   0.073   0.100
    1UNL    C17   21   0.220   0.054   0.124
    1UNL     N2   22   0.113   0.150   0.119
    1UNL    C18   23   0.012   0.081   0.034
    1UNL    C19   24   0.048   0.099  -0.118
    1UNL    C20   25  -0.044   0.015  -0.215
    1UNL     O4   26   0.438   0.194   0.119
    1UNL    C21   27   0.578   0.157   0.099
    1UNL     O5   28   0.576   0.020   0.063
    1UNL    C22   29  -0.045  -0.166  -0.021
    1UNL     H1   30  -0.096   0.479  -0.161
    1UNL     H2   31  -0.265   0.470  -0.082
    1UNL     H3   32  -0.130   0.583  -0.021
    1UNL     H4   33  -0.162   0.259   0.177
    1UNL     H5   34  -0.300   0.051  -0.090
    1UNL     H6   35  -0.265  -0.035   0.061
    1UNL     H7   36  -0.280  -0.115  -0.278
    1UNL     H8   37  -0.157  -0.235  -0.270
    1UNL     H9   38  -0.373  -0.198  -0.056
    1UNL    H10   39  -0.367  -0.337  -0.183
    1UNL    H11   40  -0.162  -0.406  -0.081
    1UNL    H12   41  -0.277  -0.400   0.058
    1UNL    H13   42  -0.107  -0.310   0.257
    1UNL    H14   43  -0.242  -0.181   0.228
    1UNL    H15   44  -0.107  -0.022   0.259
    1UNL    H16   45   0.033  -0.132   0.295
    1UNL    H17   46   0.225  -0.274   0.043
    1UNL    H18   47   0.465  -0.243   0.025
    1UNL    H19   48   0.124   0.250   0.097
    1UNL    H20   49   0.043   0.205  -0.156
    1UNL    H21   50   0.149   0.054  -0.128
    1UNL    H22   51   0.008  -0.039  -0.304
    1UNL    H23   52  -0.119   0.081  -0.263
    1UNL    H24   53   0.637   0.178   0.184
    1UNL    H25   54   0.611   0.223   0.012
    1UNL    H26   55   0.034  -0.220  -0.072
   0.00000   0.00000   0.00000   0.00000   0.00000   0.00000   0.00000   0.00000   0.00000
Generated with MDTraj, t= 93.0
 55
    1UNL     C1    1  -0.144   0.493  -0.038
    1UNL     O1    2  -0.149   0.380   0.042
    1UNL     C2    3  -0.150   0.267  -0.039
    1UNL     O2    4  -0.154   0.279  -0.160
    1UNL     C3    5  -0.134   0.133   0.025
    1UNL     O3    6  -0.168   0.153   0.162
    1UNL     C4    7  -0.227   0.019  -0.044
    1UNL     C5    8  -0.140  -0.081  -0.128
    1UNL     C6    9  -0.238  -0.182  -0.201
    1UNL     C7   10  -0.321  -0.266  -0.101
    1UNL     C8   11  -0.232  -0.353  -0.011
    1UNL     N1   12  -0.124  -0.265   0.047
    1UNL     C9   13  -0.134  -0.225   0.194
    1UNL    C10   14  -0.065  -0.088   0.210
    1UNL    C11   15   0.024  -0.064   0.077
    1UNL    C12   16   0.175  -0.078   0.104
    1UNL    C13   17   0.264  -0.184   0.094
    1UNL    C14   18   0.401  -0.159   0.089
    1UNL    C15   19   0.446  -0.029   0.091
    1UNL    C16   20   0.360   0.079   0.102
    1UNL    C17   21   0.221   0.054   0.106
    1UNL     N2   22   0.118   0.150   0.091
    1UNL    C18   23   0.011   0.076   0.016
    1UNL    C19   24   0.054   0.079  -0.135
    1UNL    C20   25  -0.048   0.004  -0.227
    1UNL     O4   26   0.426   0.200   0.090
    1UNL    C21   27   0.566   0.165   0.074
    1UNL     O5   28   0.571   0.023   0.073
    1UNL    C22   29  -0.047  -0.163  -0.031
    1UNL     H1   30  -0.067   0.485  -0.109
    1UNL     H2   31  -0.251   0.510  -0.072
    1UNL     H3   32  -0.115   0.574   0.033
    1UNL     H4   33  -0.154   0.246   0.181
    1UNL     H5   34  -0.307   0.066  -0.100
    1UNL     H6   35  -0.283  -0.033   0.041
    1UNL     H7   36  -0.309  -0.120  -0.266
    1UNL     H8   37  -0.189  -0.241  -0.281
    1UNL     H9   38  -0.382  -0.197  -0.047
    1UNL    H10   39  -0.383  -0.336  -0.166
    1UNL    H11   40  -0.177  -0.429  -0.066
    1UNL    H12   41  -0.290  -0.400   0.065
    1UNL    H13   42  -0.079  -0.304   0.252
    1UNL    H14   43  -0.243  -0.228   0.218
    1UNL    H15   44  -0.134   0.003   0.231
    1UNL    H16   45   0.005  -0.089   0.292
    1UNL    H17   46   0.221  -0.287   0.112
    1UNL    H18   47   0.457  -0.246   0.066
    1UNL    H19   48   0.138   0.237   0.043
    1UNL    H20   49   0.048   0.186  -0.160
    1UNL    H21   50   0.160   0.046  -0.157
    1UNL    H22   51   0.010  -0.067  -0.300
    1UNL    H23   52  -0.111   0.062  -0.294
    1UNL    H24   53   0.619   0.223   0.146
    1UNL    H25   54   0.578   0.185  -0.038
    1UNL    H26   55   0.028  -0.208  -0.094
   0.00000   0.00000   0.00000   0.00000   0.00000   0.00000   0.00000   0.00000   0.00000
Generated with MDTraj, t= 94.0
 55
    1UNL     C1    1  -0.141   0.500  -0.018
    1UNL     O1    2  -0.156   0.376   0.054
    1UNL     C2    3  -0.142   0.274  -0.034
    1UNL     O2    4  -0.137   0.298  -0.152
    1UNL     C3    5  -0.138   0.131   0.024
    1UNL     O3    6  -0.166   0.131   0.164
    1UNL     C4    7  -0.238   0.034  -0.049
    1UNL     C5    8  -0.158  -0.082  -0.120
    1UNL     C6    9  -0.266  -0.183  -0.181
    1UNL     C7   10  -0.320  -0.293  -0.083
    1UNL     C8   11  -0.206  -0.363  -0.013
    1UNL     N1   12  -0.113  -0.268   0.049
    1UNL     C9   13  -0.145  -0.204   0.178
    1UNL    C10   14  -0.038  -0.101   0.194
    1UNL    C11   15   0.024  -0.063   0.057
    1UNL    C12   16   0.170  -0.068   0.077
    1UNL    C13   17   0.257  -0.172   0.104
    1UNL    C14   18   0.391  -0.150   0.117
    1UNL    C15   19   0.446  -0.023   0.107
    1UNL    C16   20   0.361   0.084   0.078
    1UNL    C17   21   0.223   0.062   0.075
    1UNL     N2   22   0.121   0.152   0.066
    1UNL    C18   23   0.009   0.086  -0.003
    1UNL    C19   24   0.040   0.075  -0.158
    1UNL    C20   25  -0.069  -0.007  -0.228
    1UNL     O4   26   0.440   0.203   0.078
    1UNL    C21   27   0.572   0.147   0.081
    1UNL     O5   28   0.578   0.017   0.120
    1UNL    C22   29  -0.050  -0.163  -0.038
    1UNL     H1   30  -0.040   0.523  -0.029
    1UNL     H2   31  -0.200   0.489  -0.111
    1UNL     H3   32  -0.190   0.583   0.037
    1UNL     H4   33  -0.134   0.226   0.190
    1UNL     H5   34  -0.309   0.092  -0.110
    1UNL     H6   35  -0.302  -0.009   0.030
    1UNL     H7   36  -0.338  -0.120  -0.247
    1UNL     H8   37  -0.216  -0.242  -0.257
    1UNL     H9   38  -0.380  -0.232  -0.018
    1UNL    H10   39  -0.389  -0.361  -0.142
    1UNL    H11   40  -0.145  -0.428  -0.073
    1UNL    H12   41  -0.238  -0.428   0.065
    1UNL    H13   42  -0.136  -0.289   0.253
    1UNL    H14   43  -0.252  -0.175   0.176
    1UNL    H15   44  -0.069  -0.004   0.242
    1UNL    H16   45   0.049  -0.126   0.255
    1UNL    H17   46   0.223  -0.269   0.117
    1UNL    H18   47   0.466  -0.226   0.137
    1UNL    H19   48   0.152   0.243   0.034
    1UNL    H20   49   0.047   0.172  -0.204
    1UNL    H21   50   0.149   0.040  -0.172
    1UNL    H22   51  -0.032  -0.084  -0.304
    1UNL    H23   52  -0.123   0.059  -0.296
    1UNL    H24   53   0.610   0.209   0.161
    1UNL    H25   54   0.629   0.171  -0.012
    1UNL    H26   55   0.009  -0.218  -0.110
   0.00000   0.00000   0.00000   0.00000   0.00000   0.00000   0.00000   0.00000   0.00000
Generated with MDTraj, t= 95.0
 55
    1UNL     C1    1  -0.171   0.496  -0.008
    1UNL     O1    2  -0.150   0.371   0.047
    1UNL     C2    3  -0.161   0.273  -0.049
    1UNL     O2    4  -0.195   0.292  -0.162
    1UNL     C3    5  -0.133   0.137   0.014
    1UNL     O3    6  -0.154   0.143   0.154
    1UNL     C4    7  -0.228   0.027  -0.036
    1UNL     C5    8  -0.160  -0.078  -0.124
    1UNL     C6    9  -0.255  -0.187  -0.181
    1UNL     C7   10  -0.328  -0.282  -0.080
    1UNL     C8   11  -0.231  -0.356   0.005
    1UNL     N1   12  -0.121  -0.264   0.052
    1UNL     C9   13  -0.115  -0.198   0.192
    1UNL    C10   14  -0.021  -0.083   0.194
    1UNL    C11   15   0.036  -0.058   0.048
    1UNL    C12   16   0.185  -0.072   0.056
    1UNL    C13   17   0.261  -0.180   0.087
    1UNL    C14   18   0.397  -0.166   0.101
    1UNL    C15   19   0.455  -0.034   0.105
    1UNL    C16   20   0.368   0.079   0.078
    1UNL    C17   21   0.242   0.054   0.048
    1UNL     N2   22   0.135   0.153   0.057
    1UNL    C18   23   0.016   0.086  -0.007
    1UNL    C19   24   0.034   0.082  -0.167
    1UNL    C20   25  -0.083  -0.000  -0.229
    1UNL     O4   26   0.442   0.195   0.091
    1UNL    C21   27   0.572   0.149   0.138
    1UNL     O5   28   0.581   0.009   0.144
    1UNL    C22   29  -0.054  -0.160  -0.042
    1UNL     H1   30  -0.091   0.521  -0.070
    1UNL     H2   31  -0.270   0.488  -0.058
    1UNL     H3   32  -0.182   0.570   0.073
    1UNL     H4   33  -0.115   0.227   0.172
    1UNL     H5   34  -0.308   0.080  -0.091
    1UNL     H6   35  -0.276  -0.017   0.047
    1UNL     H7   36  -0.340  -0.137  -0.244
    1UNL     H8   37  -0.198  -0.235  -0.260
    1UNL     H9   38  -0.399  -0.221  -0.027
    1UNL    H10   39  -0.388  -0.343  -0.154
    1UNL    H11   40  -0.190  -0.442  -0.047
    1UNL    H12   41  -0.275  -0.398   0.092
    1UNL    H13   42  -0.086  -0.284   0.261
    1UNL    H14   43  -0.215  -0.165   0.224
    1UNL    H15   44  -0.056   0.002   0.234
    1UNL    H16   45   0.066  -0.104   0.259
    1UNL    H17   46   0.206  -0.276   0.099
    1UNL    H18   47   0.458  -0.248   0.131
    1UNL    H19   48   0.155   0.248   0.033
    1UNL    H20   49   0.052   0.179  -0.208
    1UNL    H21   50   0.132   0.028  -0.195
    1UNL    H22   51  -0.040  -0.059  -0.310
    1UNL    H23   52  -0.155   0.063  -0.284
    1UNL    H24   53   0.596   0.199   0.234
    1UNL    H25   54   0.640   0.207   0.071
    1UNL    H26   55   0.015  -0.215  -0.103
   0.00000   0.00000   0.00000   0.00000   0.00000   0.00000   0.00000   0.00000   0.00000
Generated with MDTraj, t= 96.0
 55
    1UNL     C1    1  -0.196   0.480  -0.053
    1UNL     O1    2  -0.127   0.382   0.009
    1UNL     C2    3  -0.169   0.262  -0.049
    1UNL     O2    4  -0.238   0.253  -0.148
    1UNL     C3    5  -0.129   0.134   0.023
    1UNL     O3    6  -0.140   0.158   0.163
    1UNL     C4    7  -0.224   0.018  -0.022
    1UNL     C5    8  -0.156  -0.082  -0.121
    1UNL     C6    9  -0.274  -0.176  -0.177
    1UNL     C7   10  -0.346  -0.256  -0.063
    1UNL     C8   11  -0.236  -0.338   0.012
    1UNL     N1   12  -0.111  -0.263   0.049
    1UNL     C9   13  -0.111  -0.203   0.182
    1UNL    C10   14  -0.011  -0.087   0.188
    1UNL    C11   15   0.043  -0.062   0.037
    1UNL    C12   16   0.191  -0.066   0.040
    1UNL    C13   17   0.275  -0.184   0.041
    1UNL    C14   18   0.411  -0.169   0.058
    1UNL    C15   19   0.457  -0.042   0.098
    1UNL    C16   20   0.371   0.071   0.107
    1UNL    C17   21   0.235   0.061   0.068
    1UNL     N2   22   0.135   0.161   0.054
    1UNL    C18   23   0.018   0.091  -0.007
    1UNL    C19   24   0.030   0.102  -0.162
    1UNL    C20   25  -0.082   0.006  -0.230
    1UNL     O4   26   0.442   0.188   0.154
    1UNL    C21   27   0.580   0.147   0.163
    1UNL     O5   28   0.586   0.004   0.150
    1UNL    C22   29  -0.051  -0.167  -0.046
    1UNL     H1   30  -0.208   0.460  -0.156
    1UNL     H2   31  -0.294   0.489   0.003
    1UNL     H3   32  -0.141   0.574  -0.039
    1UNL     H4   33  -0.106   0.256   0.166
    1UNL     H5   34  -0.306   0.075  -0.069
    1UNL     H6   35  -0.262  -0.037   0.058
    1UNL     H7   36  -0.340  -0.109  -0.245
    1UNL     H8   37  -0.236  -0.246  -0.252
    1UNL     H9   38  -0.399  -0.184   0.000
    1UNL    H10   39  -0.425  -0.322  -0.109
    1UNL    H11   40  -0.209  -0.421  -0.050
    1UNL    H12   41  -0.281  -0.377   0.101
    1UNL    H13   42  -0.087  -0.280   0.261
    1UNL    H14   43  -0.215  -0.168   0.192
    1UNL    H15   44  -0.056   0.007   0.233
    1UNL    H16   45   0.075  -0.119   0.244
    1UNL    H17   46   0.234  -0.283   0.039
    1UNL    H18   47   0.469  -0.256   0.089
    1UNL    H19   48   0.152   0.256   0.024
    1UNL    H20   49   0.024   0.201  -0.201
    1UNL    H21   50   0.136   0.069  -0.189
    1UNL    H22   51  -0.034  -0.061  -0.290
    1UNL    H23   52  -0.140   0.075  -0.297
    1UNL    H24   53   0.633   0.186   0.256
    1UNL    H25   54   0.625   0.200   0.079
    1UNL    H26   55   0.020  -0.222  -0.105
   0.00000   0.00000   0.00000   0.00000   0.00000   0.00000   0.00000   0.00000   0.00000
Generated with MDTraj, t= 97.0
 55
    1UNL     C1    1  -0.156   0.481  -0.103
    1UNL     O1    2  -0.106   0.385  -0.013
    1UNL     C2    3  -0.168   0.266  -0.045
    1UNL     O2    4  -0.246   0.256  -0.138
    1UNL     C3    5  -0.131   0.144   0.043
    1UNL     O3    6  -0.144   0.173   0.179
    1UNL     C4    7  -0.227   0.025  -0.004
    1UNL     C5    8  -0.162  -0.075  -0.113
    1UNL     C6    9  -0.279  -0.169  -0.172
    1UNL     C7   10  -0.323  -0.282  -0.075
    1UNL     C8   11  -0.204  -0.360  -0.011
    1UNL     N1   12  -0.110  -0.262   0.045
    1UNL     C9   13  -0.106  -0.224   0.188
    1UNL    C10   14  -0.019  -0.094   0.197
    1UNL    C11   15   0.034  -0.059   0.053
    1UNL    C12   16   0.182  -0.072   0.054
    1UNL    C13   17   0.270  -0.178   0.029
    1UNL    C14   18   0.409  -0.158   0.038
    1UNL    C15   19   0.456  -0.033   0.089
    1UNL    C16   20   0.369   0.076   0.099
    1UNL    C17   21   0.226   0.063   0.071
    1UNL     N2   22   0.127   0.163   0.061
    1UNL    C18   23   0.005   0.097   0.001
    1UNL    C19   24   0.022   0.096  -0.153
    1UNL    C20   25  -0.094   0.009  -0.219
    1UNL     O4   26   0.439   0.183   0.155
    1UNL    C21   27   0.568   0.137   0.186
    1UNL     O5   28   0.583   0.004   0.130
    1UNL    C22   29  -0.053  -0.158  -0.044
    1UNL     H1   30  -0.129   0.453  -0.202
    1UNL     H2   31  -0.267   0.487  -0.097
    1UNL     H3   32  -0.117   0.584  -0.081
    1UNL     H4   33  -0.100   0.258   0.177
    1UNL     H5   34  -0.315   0.072  -0.049
    1UNL     H6   35  -0.249  -0.033   0.084
    1UNL     H7   36  -0.368  -0.105  -0.204
    1UNL     H8   37  -0.248  -0.205  -0.273
    1UNL     H9   38  -0.386  -0.240   0.006
    1UNL    H10   39  -0.379  -0.357  -0.136
    1UNL    H11   40  -0.160  -0.422  -0.088
    1UNL    H12   41  -0.254  -0.418   0.066
    1UNL    H13   42  -0.048  -0.306   0.238
    1UNL    H14   43  -0.206  -0.213   0.237
    1UNL    H15   44  -0.084  -0.001   0.233
    1UNL    H16   45   0.069  -0.100   0.256
    1UNL    H17   46   0.232  -0.276   0.013
    1UNL    H18   47   0.469  -0.245   0.027
    1UNL    H19   48   0.154   0.248   0.012
    1UNL    H20   49   0.025   0.198  -0.185
    1UNL    H21   50   0.122   0.052  -0.180
    1UNL    H22   51  -0.056  -0.040  -0.301
    1UNL    H23   52  -0.164   0.087  -0.252
    1UNL    H24   53   0.549   0.133   0.301
    1UNL    H25   54   0.650   0.195   0.149
    1UNL    H26   55   0.004  -0.209  -0.120
   0.00000   0.00000   0.00000   0.00000   0.00000   0.00000   0.00000   0.00000   0.00000
Generated with MDTraj, t= 98.0
 55
    1UNL     C1    1  -0.078   0.470  -0.093
    1UNL     O1    2  -0.079   0.359  -0.010
    1UNL     C2    3  -0.172   0.266  -0.039
    1UNL     O2    4  -0.256   0.286  -0.123
    1UNL     C3    5  -0.146   0.137   0.031
    1UNL     O3    6  -0.176   0.172   0.173
    1UNL     C4    7  -0.237   0.016  -0.010
    1UNL     C5    8  -0.170  -0.066  -0.116
    1UNL     C6    9  -0.266  -0.178  -0.167
    1UNL     C7   10  -0.310  -0.282  -0.064
    1UNL     C8   11  -0.188  -0.362  -0.018
    1UNL     N1   12  -0.084  -0.268   0.032
    1UNL     C9   13  -0.084  -0.238   0.176
    1UNL    C10   14  -0.032  -0.099   0.191
    1UNL    C11   15   0.023  -0.057   0.049
    1UNL    C12   16   0.171  -0.072   0.070
    1UNL    C13   17   0.255  -0.177   0.053
    1UNL    C14   18   0.393  -0.157   0.082
    1UNL    C15   19   0.442  -0.033   0.108
    1UNL    C16   20   0.352   0.079   0.111
    1UNL    C17   21   0.220   0.063   0.091
    1UNL     N2   22   0.120   0.159   0.072
    1UNL    C18   23   0.006   0.091   0.001
    1UNL    C19   24   0.018   0.096  -0.159
    1UNL    C20   25  -0.108   0.026  -0.223
    1UNL     O4   26   0.434   0.198   0.129
    1UNL    C21   27   0.565   0.148   0.131
    1UNL     O5   28   0.575   0.006   0.118
    1UNL    C22   29  -0.048  -0.149  -0.049
    1UNL     H1   30  -0.019   0.447  -0.180
    1UNL     H2   31  -0.180   0.498  -0.129
    1UNL     H3   32  -0.037   0.557  -0.035
    1UNL     H4   33  -0.127   0.253   0.193
    1UNL     H5   34  -0.331   0.056  -0.041
    1UNL     H6   35  -0.245  -0.052   0.078
    1UNL     H7   36  -0.357  -0.126  -0.208
    1UNL     H8   37  -0.227  -0.230  -0.262
    1UNL     H9   38  -0.338  -0.224   0.028
    1UNL    H10   39  -0.391  -0.350  -0.101
    1UNL    H11   40  -0.156  -0.406  -0.113
    1UNL    H12   41  -0.217  -0.438   0.055
    1UNL    H13   42  -0.028  -0.315   0.234
    1UNL    H14   43  -0.187  -0.250   0.216
    1UNL    H15   44  -0.095  -0.017   0.231
    1UNL    H16   45   0.051  -0.106   0.261
    1UNL    H17   46   0.221  -0.283   0.045
    1UNL    H18   47   0.469  -0.234   0.067
    1UNL    H19   48   0.138   0.252   0.031
    1UNL    H20   49   0.012   0.200  -0.193
    1UNL    H21   50   0.115   0.063  -0.197
    1UNL    H22   51  -0.073  -0.019  -0.312
    1UNL    H23   52  -0.179   0.097  -0.255
    1UNL    H24   53   0.617   0.177   0.228
    1UNL    H25   54   0.612   0.174   0.038
    1UNL    H26   55   0.020  -0.179  -0.126
   0.00000   0.00000   0.00000   0.00000   0.00000   0.00000   0.00000   0.00000   0.00000
Generated with MDTraj, t= 99.0
 55
    1UNL     C1    1  -0.076   0.483  -0.069
    1UNL     O1    2  -0.050   0.362  -0.002
    1UNL     C2    3  -0.146   0.270  -0.028
    1UNL     O2    4  -0.245   0.305  -0.089
    1UNL     C3    5  -0.135   0.130   0.032
    1UNL     O3    6  -0.152   0.148   0.169
    1UNL     C4    7  -0.240   0.020  -0.020
    1UNL     C5    8  -0.162  -0.084  -0.120
    1UNL     C6    9  -0.260  -0.174  -0.191
    1UNL     C7   10  -0.325  -0.286  -0.103
    1UNL     C8   11  -0.210  -0.369  -0.038
    1UNL     N1   12  -0.119  -0.277   0.037
    1UNL     C9   13  -0.129  -0.237   0.180
    1UNL    C10   14  -0.044  -0.113   0.203
    1UNL    C11   15   0.021  -0.072   0.065
    1UNL    C12   16   0.174  -0.071   0.086
    1UNL    C13   17   0.256  -0.176   0.101
    1UNL    C14   18   0.391  -0.145   0.115
    1UNL    C15   19   0.443  -0.014   0.112
    1UNL    C16   20   0.358   0.099   0.089
    1UNL    C17   21   0.221   0.060   0.094
    1UNL     N2   22   0.118   0.153   0.066
    1UNL    C18   23   0.009   0.076  -0.000
    1UNL    C19   24   0.022   0.082  -0.149
    1UNL    C20   25  -0.087   0.003  -0.227
    1UNL     O4   26   0.427   0.211   0.063
    1UNL    C21   27   0.563   0.176   0.100
    1UNL     O5   28   0.572   0.032   0.114
    1UNL    C22   29  -0.058  -0.166  -0.034
    1UNL     H1   30  -0.113   0.460  -0.167
    1UNL     H2   31  -0.155   0.544  -0.021
    1UNL     H3   32   0.016   0.545  -0.070
    1UNL     H4   33  -0.078   0.211   0.201
    1UNL     H5   34  -0.315   0.070  -0.074
    1UNL     H6   35  -0.281  -0.025   0.075
    1UNL     H7   36  -0.338  -0.120  -0.249
    1UNL     H8   37  -0.196  -0.223  -0.277
    1UNL     H9   38  -0.391  -0.238  -0.026
    1UNL    H10   39  -0.375  -0.352  -0.178
    1UNL    H11   40  -0.152  -0.426  -0.113
    1UNL    H12   41  -0.250  -0.444   0.031
    1UNL    H13   42  -0.109  -0.325   0.243
    1UNL    H14   43  -0.235  -0.221   0.210
    1UNL    H15   44  -0.095  -0.036   0.242
    1UNL    H16   45   0.036  -0.127   0.277
    1UNL    H17   46   0.217  -0.271   0.123
    1UNL    H18   47   0.454  -0.228   0.144
    1UNL    H19   48   0.134   0.239   0.013
    1UNL    H20   49   0.043   0.187  -0.180
    1UNL    H21   50   0.119   0.040  -0.169
    1UNL    H22   51  -0.059  -0.047  -0.318
    1UNL    H23   52  -0.145   0.077  -0.264
    1UNL    H24   53   0.596   0.197   0.207
    1UNL    H25   54   0.630   0.213   0.027
    1UNL    H26   55   0.017  -0.199  -0.102
   0.00000   0.00000   0.00000   0.00000   0.00000   0.00000   0.00000   0.00000   0.00000
