[ moleculetype ]
; name        nrexcl
res           1

[ atoms ]
;    nr  type  resnr resid  atom  cgnr     charge       mass
      1 C4        1 res   C1        1      0.000     72.000
      2 SN1       1 res   C2        2      0.000     54.000
      3 SC4       1 res   C3        3      0.000     54.000
      4 TC5       1 res   C4        4      0.000     36.000
      5 TC5       1 res   C5        5      0.000     36.000
      6 TN6d      1 res   C6        6      0.000     36.000
      7 TN6       1 res   C7        7      0.000     36.000
      8 SC3       1 res   C8        8      0.000     54.000
      9 TP1       1 res   C9        9      0.000     36.000
     10 N4a       1 res   C10      10      0.000     72.000

[ constraints ]
;  ai    aj   funct      b0(nm)
    1     8     1      0.34784
    3     5     1      0.31124
    2     3     1      0.25477
    4     5     1      0.28905
    3     8     1      0.37478
    3     4     1      0.27062
    7     8     1      0.28233
    2     7     1      0.39120
    3     6     1      0.22445
    8     9     1      0.33709

[ bonds ]
;  ai    aj   funct      b0(nm)          k(kJ/mol/nm^2)
    1     2     1      0.34804           7396.9
    2     6     1      0.30070           7417.0
    8    10     1      0.38553           6656.0

[ angles ]
;  ai    aj    ak  funct     th0(deg)        k(kJ/mol/rad^2)
    1     2     3     1    121.60878           815.55
    1     2     6     1    118.57578           454.36
    1     2     7     1     81.40426           736.24
    1     8     3     1     93.84924           670.54
    1     8     7     1     99.71316           295.35
    1     8     9     1     76.76486           435.59
    1     8    10     1    133.50252           249.45
    2     1     8     1     68.88836          2124.53
    2     3     4     1    132.51302           259.51
    2     3     5     1    133.62443           315.90
    2     3     6     1     77.51260           274.66
    2     3     8     1     74.69366          2533.31
    2     6     3     1     55.81298           560.17
    2     7     8     1     69.42085          1463.50
    3     2     6     1     46.67485          1693.61
    3     2     7     1     58.28628           800.04
    3     4     5     1     67.48119          9154.48
    3     5     4     1     53.43272         15264.73
    3     8     7     1     59.58789          1258.55
    3     8     9     1     69.89876          2254.52
    3     8    10     1     65.71351           329.58
    4     3     5     1     59.08608          8591.33
    4     3     6     1    137.15651          1235.94
    4     3     8     1    121.99999           353.33
    5     3     6     1     79.01451          1661.09
    5     3     8     1    144.44626           227.67
    6     2     7     1     38.72982           818.20
    6     3     8     1     90.26234           584.89
    7     8     9     1    128.69183           951.87
    7     8    10     1    103.25365           210.98
    9     8    10     1     57.64403           834.58

[ dihedrals ]
;  ai    aj    ak    al  funct   phi0(deg)        k(kJ/mol)   mult
    1     2     3     4     1    -67.85146       10.702      1
    1     2     3     5     1     19.65789       12.188      1
    1     2     3     6     1     80.89007       11.523      1
    1     2     3     8     1    174.10969        9.291      1
    1     2     6     3     1    -71.05254        9.959      1
    1     2     7     8     1   -134.11626        9.261      1
    1     8     3     2     1   -174.15467        7.826      1
    1     8     3     4     1     55.03575       14.392      1
    1     8     3     5     1    -26.01925        9.352      1
    1     8     3     6     1    -96.05469       13.681      1
    1     8     7     2     1    133.94840        7.815      1
    2     1     8     3     1    175.95037        6.306      1
    2     1     8     7     1   -124.84433        8.504      1
    2     1     8     9     1    107.96866        6.273      1
    2     1     8    10     1    116.01061       13.636      1
    2     3     4     5     1    -56.99222       14.298      1
    2     3     5     4     1     58.86777       14.351      1
    2     3     8     7     1     85.08550        9.982      1
    2     3     8     9     1    -99.99353        9.269      1
    2     3     8    10     1    -38.16531       12.129      1
    2     6     3     4     1    -38.87260       19.807      1
    2     6     3     5     1    -39.99771       10.755      1
    2     6     3     8     1    105.71693        4.743      1
    2     7     8     3     1   -138.94346        3.948      1
    2     7     8     9     1   -146.01902       14.965      1
    2     7     8    10     1    -83.15760       12.757      1
    3     2     1     8     1   -173.09803       10.049      1
    3     2     7     8     1     89.98771        9.256      1
    3     6     2     7     1    -86.14471       12.248      1
    4     3     2     6     1     31.02236       14.334      1
    4     3     2     7     1    -16.00492       10.771      1
    4     3     8     7     1    -42.37170       13.592      1
    4     3     8     9     1    132.04671       15.053      1
    4     3     8    10     1   -166.72457       17.048      1
    4     5     3     6     1     -0.10661       15.088      1
    4     5     3     8     1    -74.22597       15.000      1
    5     3     2     6     1    120.89371       11.475      1
    5     3     2     7     1     72.83040        9.991      1
    5     3     8     7     1   -126.16116       13.571      1
    5     3     8     9     1     46.95910       11.468      1
    5     3     8    10     1    110.16569       13.579      1
    5     4     3     6     1   -179.24901       19.811      1
    5     4     3     8     1     39.95074       12.219      1
    6     2     1     8     1    133.99793       10.785      1
    6     2     3     8     1    -86.92686       10.039      1
    6     2     7     8     1     29.98768       13.648      1
    6     3     2     7     1    132.99106        8.562      1
    6     3     8     7     1    162.75079       14.321      1
    6     3     8     9     1    -21.01159       14.413      1
    6     3     8    10     1     41.01819       15.775      1
    7     2     1     8     1    144.01727        6.299      1
    7     2     3     8     1   -133.05900        3.996      1
