[ moleculetype ]
; name        nrexcl
res           1

[ atoms ]
;    nr  type  resnr resid  atom  cgnr     charge       mass
      1 TC3       1 res   C1        1      0.000     36.000
      2 TC5       1 res   C2        2      0.000     36.000
      3 TC3       1 res   C3        3      0.000     36.000
      4 TN6d      1 res   C4        4      0.000     36.000
      5 SC3       1 res   C5        5      0.000     54.000
      6 TN6a      1 res   C6        6      0.000     36.000
      7 TC5       1 res   C7        7      0.000     36.000
      8 TC5       1 res   C8        8      0.000     36.000
      9 TC5       1 res   C9        9      0.000     36.000
     10 SN6a      1 res   C10      10      0.000     54.000

[ constraints ]
;  ai    aj   funct      b0(nm)
    1     2     1      0.29777
    2     3     1      0.29221
    2     6     1      0.22098
    7     9     1      0.25010
    5     7     1      0.36254
    3     4     1      0.24705
    7     8     1      0.24982
    5     6     1      0.32377
    6     7     1      0.18269
    6    10     1      0.25556
    2     4     1      0.28000
    2    10     1      0.27766
    8     9     1      0.29137

[ bonds ]
;  ai    aj   funct      b0(nm)          k(kJ/mol/nm^2)
    4     5     1      0.26906           5711.7

[ angles ]
;  ai    aj    ak  funct     th0(deg)        k(kJ/mol/rad^2)
    1     2     3     1     67.12960           820.87
    1     2     4     1    103.95485           183.06
    1     2     6     1    135.69257           699.39
    1     2    10     1     77.98130           933.05
    2     3     4     1     61.90772          1439.11
    2     4     3     1     67.00064          2280.35
    2     4     5     1     73.84534           766.70
    2     6     5     1     71.80175          2305.28
    2     6     7     1    157.51971          1080.69
    2     6    10     1     70.85194          2043.94
    2    10     6     1     48.74020          4801.64
    3     2     4     1     51.09190          2804.07
    3     2     6     1     94.35794           122.13
    3     2    10     1     83.02031           723.88
    3     4     5     1    133.60328            89.24
    4     2     6     1     90.68827            60.12
    4     2    10     1    124.14395           149.36
    4     5     6     1     73.31118           295.81
    4     5     7     1     92.85228           111.36
    5     6     7     1     86.72624          3108.46
    5     6    10     1    141.91894          1747.36
    5     7     6     1     63.07371          4163.11
    5     7     8     1    168.09130           520.17
    5     7     9     1     98.93545          1380.42
    6     2    10     1     60.40775          2397.88
    6     5     7     1     30.20000         18881.43
    6     7     8     1    125.99172          1834.28
    6     7     9     1    161.00008          1110.84
    7     6    10     1    130.01176          1436.31
    7     8     9     1     54.39121          8718.64
    7     9     8     1     54.30179          8812.12
    8     7     9     1     71.30698          4489.96

[ dihedrals ]
;  ai    aj    ak    al  funct   phi0(deg)        k(kJ/mol)   mult
    1     2     3     4     1     51.53838       16.981      1
    1     2     4     3     1   -132.11355       13.542      1
    1     2     4     5     1     15.88684       11.429      1
    1     2     6     5     1     21.03533       14.381      1
    1     2     6     7     1     18.54387       25.540      1
    1     2     6    10     1   -166.95131       19.520      1
    1     2    10     6     1      7.73924       16.275      1
    2     3     4     5     1    147.44532       19.699      1
    2     4     5     6     1    149.07503       11.995      1
    2     4     5     7     1    129.54375       15.852      1
    2     6     5     4     1   -137.18949       13.947      1
    2     6     5     7     1      1.98526       10.833      1
    2     6     7     5     1   -177.95531       21.777      1
    2     6     7     8     1      2.71267       24.979      1
    2     6     7     9     1   -172.55337       25.288      1
    2    10     6     5     1   -168.66471       17.043      1
    2    10     6     7     1      2.90436       15.807      1
    3     2     4     5     1    -28.79750       18.055      1
    3     2     6     5     1     82.99595        8.547      1
    3     2     6     7     1     77.73945       23.458      1
    3     2     6    10     1   -104.13389        9.234      1
    3     2    10     6     1     75.47364       14.128      1
    3     4     2     6     1     85.72128       12.787      1
    3     4     2    10     1    148.59081       16.055      1
    3     4     5     6     1    177.91403       21.393      1
    3     4     5     7     1    155.78643       21.698      1
    4     2     6     5     1    138.07419       11.325      1
    4     2     6     7     1    130.75987       24.094      1
    4     2     6    10     1    -49.22572        8.559      1
    4     2    10     6     1    101.34936       15.883      1
    4     3     2     6     1    -85.88538       14.778      1
    4     3     2    10     1    -27.94261       16.137      1
    4     5     6     7     1     43.28949       19.915      1
    4     5     6    10     1   -143.46808       21.843      1
    4     5     7     6     1   -141.77977       17.419      1
    4     5     7     8     1     51.35141       33.608      1
    4     5     7     9     1     42.91209       18.121      1
    5     4     2     6     1   -125.57275       16.069      1
    5     4     2    10     1    -65.07625        8.504      1
    5     6     2    10     1      7.83702       12.163      1
    5     6     7     8     1     -3.16442       15.631      1
    5     6     7     9     1    179.46121       27.003      1
    5     7     6    10     1      2.32017       16.457      1
    5     7     8     9     1    178.73042       29.786      1
    5     7     9     8     1     -2.08724       13.516      1
    6     5     7     8     1      3.60102       30.493      1
    6     5     7     9     1     -1.96088       12.203      1
    6     7     8     9     1      0.59313       15.636      1
    6     7     9     8     1     -2.55705       25.102      1
    7     5     6    10     1     -4.29294       20.434      1
    7     6     2    10     1      0.01404       25.397      1
    8     7     6    10     1   -178.02975       18.988      1
    9     7     6    10     1      2.93039       28.573      1
