Generated with MDTraj, t= 0.0
 47
    1UNL     C1    1   0.575  -0.172   0.014
    1UNL     C2    2   0.466  -0.121   0.107
    1UNL     C3    3   0.514   0.002   0.184
    1UNL     O1    4   0.630  -0.026   0.259
    1UNL     C4    5   0.336  -0.094   0.034
    1UNL     C5    6   0.221  -0.164   0.067
    1UNL     C6    7   0.102  -0.139   0.001
    1UNL     C7    8   0.096  -0.045  -0.099
    1UNL     C8    9  -0.034  -0.013  -0.166
    1UNL     O2   10  -0.096   0.102  -0.111
    1UNL     C9   11  -0.231   0.110  -0.150
    1UNL     O3   12  -0.303  -0.010  -0.122
    1UNL    C10   13  -0.312  -0.036   0.018
    1UNL    C11   14  -0.375  -0.172   0.042
    1UNL     O4   15  -0.507  -0.173  -0.004
    1UNL    C12   16  -0.393   0.077   0.085
    1UNL     O5   17  -0.419   0.057   0.223
    1UNL    C13   18  -0.322   0.212   0.064
    1UNL     O6   19  -0.403   0.315   0.118
    1UNL    C14   20  -0.300   0.235  -0.087
    1UNL     O7   21  -0.423   0.264  -0.149
    1UNL    C15   22   0.210   0.026  -0.131
    1UNL    C16   23   0.329   0.002  -0.066
    1UNL     H1   24   0.666  -0.194   0.069
    1UNL     H2   25   0.599  -0.097  -0.062
    1UNL     H3   26   0.544  -0.263  -0.038
    1UNL     H4   27   0.446  -0.200   0.182
    1UNL     H5   28   0.536   0.084   0.115
    1UNL     H6   29   0.435   0.038   0.252
    1UNL     H7   30   0.660   0.053   0.310
    1UNL     H8   31   0.224  -0.238   0.145
    1UNL     H9   32   0.013  -0.193   0.028
    1UNL    H10   33  -0.104  -0.097  -0.157
    1UNL    H11   34  -0.019   0.005  -0.273
    1UNL    H12   35  -0.233   0.121  -0.260
    1UNL    H13   36  -0.209  -0.033   0.057
    1UNL    H14   37  -0.375  -0.199   0.148
    1UNL    H15   38  -0.319  -0.250  -0.012
    1UNL    H16   39  -0.510  -0.135  -0.094
    1UNL    H17   40  -0.490   0.084   0.034
    1UNL    H18   41  -0.474  -0.023   0.235
    1UNL    H19   42  -0.226   0.212   0.118
    1UNL    H20   43  -0.435   0.285   0.206
    1UNL    H21   44  -0.234   0.322  -0.101
    1UNL    H22   45  -0.474   0.324  -0.089
    1UNL    H23   46   0.205   0.102  -0.207
    1UNL    H24   47   0.417   0.058  -0.092
   0.00000   0.00000   0.00000   0.00000   0.00000   0.00000   0.00000   0.00000   0.00000
Generated with MDTraj, t= 1.0
 47
    1UNL     C1    1   0.571  -0.190   0.022
    1UNL     C2    2   0.467  -0.129   0.107
    1UNL     C3    3   0.532  -0.001   0.174
    1UNL     O1    4   0.631  -0.023   0.265
    1UNL     C4    5   0.338  -0.108   0.030
    1UNL     C5    6   0.216  -0.169   0.062
    1UNL     C6    7   0.103  -0.140  -0.015
    1UNL     C7    8   0.102  -0.036  -0.111
    1UNL     C8    9  -0.027   0.002  -0.176
    1UNL     O2   10  -0.101   0.109  -0.105
    1UNL     C9   11  -0.240   0.109  -0.140
    1UNL     O3   12  -0.297  -0.014  -0.105
    1UNL    C10   13  -0.308  -0.026   0.038
    1UNL    C11   14  -0.359  -0.171   0.061
    1UNL     O4   15  -0.469  -0.199  -0.016
    1UNL    C12   16  -0.414   0.074   0.088
    1UNL     O5   17  -0.435   0.066   0.229
    1UNL    C13   18  -0.346   0.214   0.066
    1UNL     O6   19  -0.447   0.311   0.115
    1UNL    C14   20  -0.307   0.238  -0.078
    1UNL     O7   21  -0.408   0.287  -0.166
    1UNL    C15   22   0.220   0.021  -0.147
    1UNL    C16   23   0.333  -0.008  -0.069
    1UNL     H1   24   0.658  -0.228   0.080
    1UNL     H2   25   0.625  -0.129  -0.040
    1UNL     H3   26   0.540  -0.258  -0.060
    1UNL     H4   27   0.453  -0.196   0.192
    1UNL     H5   28   0.571   0.069   0.098
    1UNL     H6   29   0.445   0.049   0.219
    1UNL     H7   30   0.606   0.042   0.340
    1UNL     H8   31   0.207  -0.240   0.143
    1UNL     H9   32   0.015  -0.191   0.004
    1UNL    H10   33  -0.092  -0.084  -0.186
    1UNL    H11   34  -0.009   0.031  -0.276
    1UNL    H12   35  -0.248   0.120  -0.252
    1UNL    H13   36  -0.201  -0.026   0.070
    1UNL    H14   37  -0.369  -0.198   0.165
    1UNL    H15   38  -0.279  -0.239   0.034
    1UNL    H16   39  -0.459  -0.152  -0.099
    1UNL    H17   40  -0.500   0.076   0.023
    1UNL    H18   41  -0.477   0.145   0.275
    1UNL    H19   42  -0.263   0.238   0.137
    1UNL    H20   43  -0.441   0.317   0.216
    1UNL    H21   44  -0.230   0.316  -0.094
    1UNL    H22   45  -0.470   0.351  -0.121
    1UNL    H23   46   0.215   0.102  -0.228
    1UNL    H24   47   0.427   0.041  -0.086
   0.00000   0.00000   0.00000   0.00000   0.00000   0.00000   0.00000   0.00000   0.00000
Generated with MDTraj, t= 2.0
 47
    1UNL     C1    1   0.567  -0.211   0.021
    1UNL     C2    2   0.461  -0.130   0.103
    1UNL     C3    3   0.521  -0.003   0.166
    1UNL     O1    4   0.619  -0.036   0.260
    1UNL     C4    5   0.337  -0.100   0.021
    1UNL     C5    6   0.213  -0.158   0.058
    1UNL     C6    7   0.096  -0.120  -0.002
    1UNL     C7    8   0.097  -0.026  -0.104
    1UNL     C8    9  -0.036   0.002  -0.160
    1UNL     O2   10  -0.085   0.121  -0.094
    1UNL     C9   11  -0.222   0.118  -0.135
    1UNL     O3   12  -0.287  -0.010  -0.104
    1UNL    C10   13  -0.304  -0.024   0.034
    1UNL    C11   14  -0.354  -0.169   0.067
    1UNL     O4   15  -0.447  -0.207  -0.021
    1UNL    C12   16  -0.410   0.079   0.087
    1UNL     O5   17  -0.441   0.064   0.226
    1UNL    C13   18  -0.351   0.222   0.069
    1UNL     O6   19  -0.450   0.326   0.103
    1UNL    C14   20  -0.307   0.239  -0.078
    1UNL     O7   21  -0.415   0.245  -0.165
    1UNL    C15   22   0.217   0.035  -0.136
    1UNL    C16   23   0.335  -0.004  -0.078
    1UNL     H1   24   0.672  -0.192   0.051
    1UNL     H2   25   0.588  -0.193  -0.078
    1UNL     H3   26   0.548  -0.317  -0.005
    1UNL     H4   27   0.443  -0.190   0.193
    1UNL     H5   28   0.574   0.049   0.084
    1UNL     H6   29   0.449   0.069   0.211
    1UNL     H7   30   0.669  -0.120   0.253
    1UNL     H8   31   0.210  -0.226   0.142
    1UNL     H9   32  -0.003  -0.181   0.011
    1UNL    H10   33  -0.102  -0.080  -0.140
    1UNL    H11   34  -0.028   0.020  -0.261
    1UNL    H12   35  -0.221   0.122  -0.251
    1UNL    H13   36  -0.208  -0.020   0.093
    1UNL    H14   37  -0.387  -0.160   0.169
    1UNL    H15   38  -0.276  -0.242   0.077
    1UNL    H16   39  -0.435  -0.171  -0.115
    1UNL    H17   40  -0.499   0.069   0.029
    1UNL    H18   41  -0.533   0.083   0.263
    1UNL    H19   42  -0.266   0.239   0.145
    1UNL    H20   43  -0.497   0.287   0.183
    1UNL    H21   44  -0.244   0.330  -0.091
    1UNL    H22   45  -0.470   0.321  -0.136
    1UNL    H23   46   0.224   0.098  -0.214
    1UNL    H24   47   0.422   0.057  -0.106
   0.00000   0.00000   0.00000   0.00000   0.00000   0.00000   0.00000   0.00000   0.00000
Generated with MDTraj, t= 3.0
 47
    1UNL     C1    1   0.562  -0.213   0.011
    1UNL     C2    2   0.467  -0.142   0.110
    1UNL     C3    3   0.538  -0.022   0.163
    1UNL     O1    4   0.644  -0.053   0.265
    1UNL     C4    5   0.342  -0.103   0.033
    1UNL     C5    6   0.212  -0.140   0.075
    1UNL     C6    7   0.096  -0.104   0.010
    1UNL     C7    8   0.101  -0.011  -0.090
    1UNL     C8    9  -0.028   0.015  -0.169
    1UNL     O2   10  -0.097   0.122  -0.110
    1UNL     C9   11  -0.232   0.110  -0.148
    1UNL     O3   12  -0.299  -0.014  -0.119
    1UNL    C10   13  -0.312  -0.023   0.020
    1UNL    C11   14  -0.356  -0.166   0.065
    1UNL     O4   15  -0.467  -0.207  -0.010
    1UNL    C12   16  -0.409   0.084   0.085
    1UNL     O5   17  -0.429   0.053   0.216
    1UNL    C13   18  -0.349   0.227   0.061
    1UNL     O6   19  -0.444   0.323   0.102
    1UNL    C14   20  -0.321   0.231  -0.088
    1UNL     O7   21  -0.445   0.236  -0.147
    1UNL    C15   22   0.226   0.041  -0.126
    1UNL    C16   23   0.347  -0.000  -0.064
    1UNL     H1   24   0.647  -0.273   0.050
    1UNL     H2   25   0.620  -0.145  -0.047
    1UNL     H3   26   0.521  -0.277  -0.066
    1UNL     H4   27   0.447  -0.203   0.198
    1UNL     H5   28   0.584   0.040   0.083
    1UNL     H6   29   0.467   0.050   0.209
    1UNL     H7   30   0.720   0.005   0.262
    1UNL     H8   31   0.204  -0.220   0.147
    1UNL     H9   32   0.002  -0.139   0.032
    1UNL    H10   33  -0.089  -0.069  -0.149
    1UNL    H11   34  -0.017   0.032  -0.270
    1UNL    H12   35  -0.238   0.108  -0.265
    1UNL    H13   36  -0.211  -0.005   0.066
    1UNL    H14   37  -0.377  -0.177   0.172
    1UNL    H15   38  -0.263  -0.224   0.052
    1UNL    H16   39  -0.464  -0.196  -0.107
    1UNL    H17   40  -0.505   0.087   0.034
    1UNL    H18   41  -0.500   0.113   0.245
    1UNL    H19   42  -0.253   0.240   0.128
    1UNL    H20   43  -0.404   0.396   0.151
    1UNL    H21   44  -0.260   0.324  -0.109
    1UNL    H22   45  -0.489   0.303  -0.094
    1UNL    H23   46   0.231   0.117  -0.210
    1UNL    H24   47   0.440   0.036  -0.095
   0.00000   0.00000   0.00000   0.00000   0.00000   0.00000   0.00000   0.00000   0.00000
Generated with MDTraj, t= 4.0
 47
    1UNL     C1    1   0.538  -0.197   0.008
    1UNL     C2    2   0.464  -0.124   0.118
    1UNL     C3    3   0.553  -0.023   0.179
    1UNL     O1    4   0.672  -0.073   0.246
    1UNL     C4    5   0.331  -0.084   0.054
    1UNL     C5    6   0.207  -0.125   0.093
    1UNL     C6    7   0.095  -0.083   0.023
    1UNL     C7    8   0.095  -0.005  -0.088
    1UNL     C8    9  -0.025   0.020  -0.164
    1UNL     O2   10  -0.111   0.119  -0.107
    1UNL     C9   11  -0.239   0.104  -0.151
    1UNL     O3   12  -0.295  -0.018  -0.116
    1UNL    C10   13  -0.299  -0.043   0.023
    1UNL    C11   14  -0.363  -0.182   0.045
    1UNL     O4   15  -0.491  -0.176  -0.013
    1UNL    C12   16  -0.390   0.065   0.088
    1UNL     O5   17  -0.393   0.064   0.220
    1UNL    C13   18  -0.347   0.214   0.053
    1UNL     O6   19  -0.429   0.308   0.110
    1UNL    C14   20  -0.327   0.226  -0.099
    1UNL     O7   21  -0.454   0.236  -0.169
    1UNL    C15   22   0.221   0.041  -0.129
    1UNL    C16   23   0.330  -0.001  -0.059
    1UNL     H1   24   0.631  -0.244   0.040
    1UNL     H2   25   0.570  -0.120  -0.072
    1UNL     H3   26   0.499  -0.295  -0.023
    1UNL     H4   27   0.441  -0.196   0.198
    1UNL     H5   28   0.579   0.052   0.101
    1UNL     H6   29   0.500   0.041   0.251
    1UNL     H7   30   0.668  -0.173   0.244
    1UNL     H8   31   0.187  -0.191   0.175
    1UNL     H9   32  -0.001  -0.132   0.034
    1UNL    H10   33  -0.080  -0.070  -0.171
    1UNL    H11   34  -0.004   0.059  -0.256
    1UNL    H12   35  -0.248   0.096  -0.267
    1UNL    H13   36  -0.196  -0.032   0.063
    1UNL    H14   37  -0.351  -0.202   0.155
    1UNL    H15   38  -0.301  -0.260  -0.008
    1UNL    H16   39  -0.488  -0.146  -0.109
    1UNL    H17   40  -0.484   0.045   0.035
    1UNL    H18   41  -0.445   0.145   0.245
    1UNL    H19   42  -0.244   0.210   0.111
    1UNL    H20   43  -0.387   0.395   0.101
    1UNL    H21   44  -0.267   0.312  -0.142
    1UNL    H22   45  -0.516   0.289  -0.110
    1UNL    H23   46   0.244   0.091  -0.223
    1UNL    H24   47   0.434   0.031  -0.085
   0.00000   0.00000   0.00000   0.00000   0.00000   0.00000   0.00000   0.00000   0.00000
Generated with MDTraj, t= 5.0
 47
    1UNL     C1    1   0.532  -0.214   0.013
    1UNL     C2    2   0.457  -0.122   0.114
    1UNL     C3    3   0.554  -0.017   0.181
    1UNL     O1    4   0.663  -0.072   0.245
    1UNL     C4    5   0.333  -0.074   0.044
    1UNL     C5    6   0.212  -0.122   0.099
    1UNL     C6    7   0.092  -0.084   0.038
    1UNL     C7    8   0.096  -0.008  -0.077
    1UNL     C8    9  -0.034   0.005  -0.152
    1UNL     O2   10  -0.104   0.121  -0.116
    1UNL     C9   11  -0.238   0.109  -0.160
    1UNL     O3   12  -0.292  -0.023  -0.123
    1UNL    C10   13  -0.308  -0.048   0.017
    1UNL    C11   14  -0.381  -0.183   0.025
    1UNL     O4   15  -0.504  -0.173  -0.034
    1UNL    C12   16  -0.383   0.074   0.097
    1UNL     O5   17  -0.365   0.062   0.235
    1UNL    C13   18  -0.336   0.209   0.051
    1UNL     O6   19  -0.416   0.313   0.112
    1UNL    C14   20  -0.328   0.219  -0.099
    1UNL     O7   21  -0.453   0.220  -0.161
    1UNL    C15   22   0.216   0.050  -0.125
    1UNL    C16   23   0.332   0.019  -0.063
    1UNL     H1   24   0.615  -0.256   0.063
    1UNL     H2   25   0.570  -0.136  -0.067
    1UNL     H3   26   0.474  -0.298  -0.019
    1UNL     H4   27   0.431  -0.192   0.195
    1UNL     H5   28   0.591   0.059   0.112
    1UNL     H6   29   0.501   0.039   0.258
    1UNL     H7   30   0.735  -0.081   0.174
    1UNL     H8   31   0.205  -0.189   0.184
    1UNL     H9   32  -0.013  -0.120   0.069
    1UNL    H10   33  -0.101  -0.071  -0.117
    1UNL    H11   34  -0.037   0.004  -0.256
    1UNL    H12   35  -0.243   0.105  -0.277
    1UNL    H13   36  -0.211  -0.044   0.069
    1UNL    H14   37  -0.387  -0.211   0.133
    1UNL    H15   38  -0.314  -0.262  -0.020
    1UNL    H16   39  -0.492  -0.121  -0.113
    1UNL    H17   40  -0.492   0.071   0.071
    1UNL    H18   41  -0.379   0.143   0.291
    1UNL    H19   42  -0.234   0.234   0.101
    1UNL    H20   43  -0.434   0.391   0.052
    1UNL    H21   44  -0.285   0.321  -0.116
    1UNL    H22   45  -0.512   0.253  -0.091
    1UNL    H23   46   0.220   0.117  -0.206
    1UNL    H24   47   0.429   0.049  -0.091
   0.00000   0.00000   0.00000   0.00000   0.00000   0.00000   0.00000   0.00000   0.00000
Generated with MDTraj, t= 6.0
 47
    1UNL     C1    1   0.538  -0.223   0.013
    1UNL     C2    2   0.462  -0.129   0.115
    1UNL     C3    3   0.549  -0.010   0.156
    1UNL     O1    4   0.649  -0.024   0.252
    1UNL     C4    5   0.337  -0.082   0.056
    1UNL     C5    6   0.213  -0.135   0.095
    1UNL     C6    7   0.095  -0.097   0.034
    1UNL     C7    8   0.098  -0.016  -0.078
    1UNL     C8    9  -0.025   0.001  -0.163
    1UNL     O2   10  -0.105   0.109  -0.111
    1UNL     C9   11  -0.240   0.112  -0.164
    1UNL     O3   12  -0.300  -0.013  -0.137
    1UNL    C10   13  -0.317  -0.033   0.004
    1UNL    C11   14  -0.386  -0.163   0.031
    1UNL     O4   15  -0.509  -0.178  -0.033
    1UNL    C12   16  -0.391   0.079   0.085
    1UNL     O5   17  -0.384   0.040   0.226
    1UNL    C13   18  -0.317   0.217   0.059
    1UNL     O6   19  -0.407   0.317   0.121
    1UNL    C14   20  -0.321   0.227  -0.095
    1UNL     O7   21  -0.459   0.221  -0.134
    1UNL    C15   22   0.224   0.035  -0.117
    1UNL    C16   23   0.342   0.002  -0.050
    1UNL     H1   24   0.617  -0.270   0.070
    1UNL     H2   25   0.577  -0.160  -0.075
    1UNL     H3   26   0.458  -0.276  -0.033
    1UNL     H4   27   0.456  -0.188   0.209
    1UNL     H5   28   0.610   0.023   0.072
    1UNL     H6   29   0.488   0.071   0.192
    1UNL     H7   30   0.724  -0.080   0.225
    1UNL     H8   31   0.204  -0.224   0.155
    1UNL     H9   32   0.008  -0.136   0.064
    1UNL    H10   33  -0.090  -0.088  -0.158
    1UNL    H11   34  -0.002   0.030  -0.261
    1UNL    H12   35  -0.227   0.137  -0.274
    1UNL    H13   36  -0.220  -0.047   0.050
    1UNL    H14   37  -0.401  -0.197   0.136
    1UNL    H15   38  -0.315  -0.245   0.000
    1UNL    H16   39  -0.504  -0.139  -0.126
    1UNL    H17   40  -0.499   0.078   0.049
    1UNL    H18   41  -0.390   0.118   0.282
    1UNL    H19   42  -0.212   0.217   0.104
    1UNL    H20   43  -0.375   0.406   0.085
    1UNL    H21   44  -0.280   0.321  -0.138
    1UNL    H22   45  -0.517   0.262  -0.070
    1UNL    H23   46   0.230   0.089  -0.218
    1UNL    H24   47   0.439   0.030  -0.095
   0.00000   0.00000   0.00000   0.00000   0.00000   0.00000   0.00000   0.00000   0.00000
Generated with MDTraj, t= 7.0
 47
    1UNL     C1    1   0.544  -0.224   0.056
    1UNL     C2    2   0.459  -0.110   0.113
    1UNL     C3    3   0.550   0.014   0.141
    1UNL     O1    4   0.637  -0.003   0.263
    1UNL     C4    5   0.334  -0.089   0.033
    1UNL     C5    6   0.219  -0.154   0.074
    1UNL     C6    7   0.100  -0.118   0.014
    1UNL     C7    8   0.099  -0.044  -0.104
    1UNL     C8    9  -0.033  -0.006  -0.166
    1UNL     O2   10  -0.097   0.107  -0.105
    1UNL     C9   11  -0.237   0.108  -0.143
    1UNL     O3   12  -0.303  -0.013  -0.125
    1UNL    C10   13  -0.307  -0.043   0.018
    1UNL    C11   14  -0.382  -0.173   0.043
    1UNL     O4   15  -0.500  -0.164  -0.031
    1UNL    C12   16  -0.401   0.067   0.083
    1UNL     O5   17  -0.414   0.036   0.222
    1UNL    C13   18  -0.332   0.207   0.064
    1UNL     O6   19  -0.402   0.301   0.146
    1UNL    C14   20  -0.308   0.233  -0.083
    1UNL     O7   21  -0.420   0.274  -0.161
    1UNL    C15   22   0.211   0.024  -0.141
    1UNL    C16   23   0.331  -0.002  -0.073
    1UNL     H1   24   0.643  -0.211   0.106
    1UNL     H2   25   0.555  -0.211  -0.055
    1UNL     H3   26   0.485  -0.316   0.051
    1UNL     H4   27   0.435  -0.138   0.219
    1UNL     H5   28   0.602   0.049   0.052
    1UNL     H6   29   0.479   0.088   0.176
    1UNL     H7   30   0.702  -0.068   0.237
    1UNL     H8   31   0.225  -0.228   0.152
    1UNL     H9   32   0.003  -0.159   0.052
    1UNL    H10   33  -0.102  -0.093  -0.151
    1UNL    H11   34  -0.015   0.017  -0.271
    1UNL    H12   35  -0.234   0.137  -0.250
    1UNL    H13   36  -0.206  -0.041   0.058
    1UNL    H14   37  -0.401  -0.198   0.147
    1UNL    H15   38  -0.343  -0.272   0.014
    1UNL    H16   39  -0.493  -0.116  -0.115
    1UNL    H17   40  -0.501   0.073   0.026
    1UNL    H18   41  -0.437   0.125   0.259
    1UNL    H19   42  -0.236   0.204   0.122
    1UNL    H20   43  -0.358   0.387   0.142
    1UNL    H21   44  -0.244   0.322  -0.083
    1UNL    H22   45  -0.469   0.346  -0.109
    1UNL    H23   46   0.215   0.094  -0.215
    1UNL    H24   47   0.421   0.047  -0.107
   0.00000   0.00000   0.00000   0.00000   0.00000   0.00000   0.00000   0.00000   0.00000
Generated with MDTraj, t= 8.0
 47
    1UNL     C1    1   0.555  -0.212   0.077
    1UNL     C2    2   0.456  -0.105   0.119
    1UNL     C3    3   0.520   0.033   0.141
    1UNL     O1    4   0.630   0.023   0.237
    1UNL     C4    5   0.329  -0.093   0.036
    1UNL     C5    6   0.215  -0.165   0.072
    1UNL     C6    7   0.100  -0.145  -0.004
    1UNL     C7    8   0.100  -0.060  -0.116
    1UNL     C8    9  -0.033  -0.009  -0.181
    1UNL     O2   10  -0.090   0.092  -0.097
    1UNL     C9   11  -0.222   0.109  -0.133
    1UNL     O3   12  -0.301  -0.007  -0.112
    1UNL    C10   13  -0.328  -0.039   0.023
    1UNL    C11   14  -0.386  -0.172   0.018
    1UNL     O4   15  -0.507  -0.189  -0.046
    1UNL    C12   16  -0.410   0.075   0.090
    1UNL     O5   17  -0.437   0.048   0.223
    1UNL    C13   18  -0.330   0.208   0.084
    1UNL     O6   19  -0.396   0.314   0.137
    1UNL    C14   20  -0.281   0.236  -0.062
    1UNL     O7   21  -0.391   0.280  -0.136
    1UNL    C15   22   0.218   0.005  -0.154
    1UNL    C16   23   0.332  -0.008  -0.075
    1UNL     H1   24   0.632  -0.229   0.158
    1UNL     H2   25   0.612  -0.197  -0.015
    1UNL     H3   26   0.503  -0.302   0.051
    1UNL     H4   27   0.412  -0.134   0.219
    1UNL     H5   28   0.560   0.069   0.046
    1UNL     H6   29   0.444   0.100   0.180
    1UNL     H7   30   0.699  -0.042   0.205
    1UNL     H8   31   0.219  -0.245   0.145
    1UNL     H9   32   0.001  -0.195   0.015
    1UNL    H10   33  -0.106  -0.095  -0.187
    1UNL    H11   34  -0.018   0.045  -0.278
    1UNL    H12   35  -0.215   0.129  -0.240
    1UNL    H13   36  -0.229  -0.041   0.069
    1UNL    H14   37  -0.409  -0.210   0.116
    1UNL    H15   38  -0.311  -0.241  -0.016
    1UNL    H16   39  -0.512  -0.125  -0.120
    1UNL    H17   40  -0.510   0.068   0.040
    1UNL    H18   41  -0.478   0.124   0.275
    1UNL    H19   42  -0.244   0.187   0.148
    1UNL    H20   43  -0.327   0.381   0.145
    1UNL    H21   44  -0.208   0.318  -0.059
    1UNL    H22   45  -0.446   0.346  -0.088
    1UNL    H23   46   0.215   0.083  -0.236
    1UNL    H24   47   0.422   0.027  -0.120
   0.00000   0.00000   0.00000   0.00000   0.00000   0.00000   0.00000   0.00000   0.00000
Generated with MDTraj, t= 9.0
 47
    1UNL     C1    1   0.567  -0.199   0.062
    1UNL     C2    2   0.461  -0.112   0.116
    1UNL     C3    3   0.515   0.035   0.140
    1UNL     O1    4   0.618   0.043   0.231
    1UNL     C4    5   0.334  -0.097   0.036
    1UNL     C5    6   0.221  -0.160   0.081
    1UNL     C6    7   0.102  -0.147   0.013
    1UNL     C7    8   0.094  -0.076  -0.102
    1UNL     C8    9  -0.029  -0.024  -0.166
    1UNL     O2   10  -0.085   0.098  -0.110
    1UNL     C9   11  -0.222   0.107  -0.140
    1UNL     O3   12  -0.302  -0.010  -0.128
    1UNL    C10   13  -0.329  -0.044   0.011
    1UNL    C11   14  -0.406  -0.172   0.021
    1UNL     O4   15  -0.523  -0.165  -0.064
    1UNL    C12   16  -0.403   0.071   0.087
    1UNL     O5   17  -0.439   0.049   0.222
    1UNL    C13   18  -0.316   0.202   0.087
    1UNL     O6   19  -0.384   0.311   0.137
    1UNL    C14   20  -0.276   0.235  -0.063
    1UNL     O7   21  -0.401   0.283  -0.113
    1UNL    C15   22   0.211  -0.005  -0.138
    1UNL    C16   23   0.332  -0.021  -0.078
    1UNL     H1   24   0.648  -0.216   0.140
    1UNL     H2   25   0.620  -0.157  -0.020
    1UNL     H3   26   0.543  -0.300   0.038
    1UNL     H4   27   0.422  -0.153   0.212
    1UNL     H5   28   0.563   0.070   0.047
    1UNL     H6   29   0.434   0.101   0.176
    1UNL     H7   30   0.701  -0.016   0.224
    1UNL     H8   31   0.227  -0.226   0.165
    1UNL     H9   32   0.026  -0.200   0.054
    1UNL    H10   33  -0.111  -0.101  -0.159
    1UNL    H11   34  -0.002  -0.004  -0.277
    1UNL    H12   35  -0.217   0.125  -0.245
    1UNL    H13   36  -0.230  -0.032   0.059
    1UNL    H14   37  -0.428  -0.189   0.124
    1UNL    H15   38  -0.344  -0.256  -0.006
    1UNL    H16   39  -0.485  -0.108  -0.136
    1UNL    H17   40  -0.494   0.104   0.036
    1UNL    H18   41  -0.465   0.131   0.267
    1UNL    H19   42  -0.229   0.186   0.145
    1UNL    H20   43  -0.328   0.382   0.180
    1UNL    H21   44  -0.201   0.315  -0.063
    1UNL    H22   45  -0.459   0.310  -0.041
    1UNL    H23   46   0.210   0.057  -0.223
    1UNL    H24   47   0.427   0.028  -0.110
   0.00000   0.00000   0.00000   0.00000   0.00000   0.00000   0.00000   0.00000   0.00000
Generated with MDTraj, t= 10.0
 47
    1UNL     C1    1   0.572  -0.182   0.030
    1UNL     C2    2   0.477  -0.100   0.103
    1UNL     C3    3   0.529   0.041   0.153
    1UNL     O1    4   0.620   0.028   0.256
    1UNL     C4    5   0.339  -0.086   0.036
    1UNL     C5    6   0.230  -0.138   0.104
    1UNL     C6    7   0.106  -0.135   0.041
    1UNL     C7    8   0.090  -0.072  -0.086
    1UNL     C8    9  -0.045  -0.037  -0.142
    1UNL     O2   10  -0.100   0.082  -0.079
    1UNL     C9   11  -0.224   0.110  -0.138
    1UNL     O3   12  -0.308  -0.004  -0.135
    1UNL    C10   13  -0.331  -0.047   0.000
    1UNL    C11   14  -0.428  -0.162   0.012
    1UNL     O4   15  -0.541  -0.128  -0.067
    1UNL    C12   16  -0.395   0.066   0.081
    1UNL     O5   17  -0.413   0.030   0.219
    1UNL    C13   18  -0.308   0.195   0.069
    1UNL     O6   19  -0.354   0.291   0.156
    1UNL    C14   20  -0.288   0.236  -0.077
    1UNL     O7   21  -0.406   0.278  -0.148
    1UNL    C15   22   0.201  -0.017  -0.146
    1UNL    C16   23   0.327  -0.029  -0.090
    1UNL     H1   24   0.678  -0.197   0.073
    1UNL     H2   25   0.580  -0.151  -0.069
    1UNL     H3   26   0.544  -0.286   0.040
    1UNL     H4   27   0.451  -0.149   0.199
    1UNL     H5   28   0.568   0.099   0.065
    1UNL     H6   29   0.439   0.087   0.200
    1UNL     H7   30   0.680  -0.042   0.224
    1UNL     H8   31   0.246  -0.204   0.192
    1UNL     H9   32   0.014  -0.177   0.096
    1UNL    H10   33  -0.125  -0.116  -0.134
    1UNL    H11   34  -0.042  -0.011  -0.257
    1UNL    H12   35  -0.211   0.128  -0.240
    1UNL    H13   36  -0.229  -0.076   0.034
    1UNL    H14   37  -0.453  -0.178   0.118
    1UNL    H15   38  -0.387  -0.261  -0.015
    1UNL    H16   39  -0.505  -0.100  -0.154
    1UNL    H17   40  -0.491   0.077   0.033
    1UNL    H18   41  -0.394   0.102   0.278
    1UNL    H19   42  -0.213   0.157   0.094
    1UNL    H20   43  -0.393   0.377   0.119
    1UNL    H21   44  -0.228   0.328  -0.080
    1UNL    H22   45  -0.484   0.301  -0.090
    1UNL    H23   46   0.179   0.032  -0.241
    1UNL    H24   47   0.415  -0.003  -0.139
   0.00000   0.00000   0.00000   0.00000   0.00000   0.00000   0.00000   0.00000   0.00000
Generated with MDTraj, t= 11.0
 47
    1UNL     C1    1   0.588  -0.164  -0.004
    1UNL     C2    2   0.484  -0.106   0.102
    1UNL     C3    3   0.523   0.030   0.175
    1UNL     O1    4   0.642   0.019   0.261
    1UNL     C4    5   0.354  -0.089   0.045
    1UNL     C5    6   0.235  -0.115   0.120
    1UNL     C6    7   0.114  -0.109   0.055
    1UNL     C7    8   0.103  -0.068  -0.082
    1UNL     C8    9  -0.030  -0.046  -0.143
    1UNL     O2   10  -0.094   0.075  -0.102
    1UNL     C9   11  -0.233   0.105  -0.152
    1UNL     O3   12  -0.332  -0.006  -0.133
    1UNL    C10   13  -0.350  -0.045   0.002
    1UNL    C11   14  -0.456  -0.147  -0.003
    1UNL     O4   15  -0.571  -0.113  -0.075
    1UNL    C12   16  -0.397   0.068   0.093
    1UNL     O5   17  -0.397   0.015   0.232
    1UNL    C13   18  -0.302   0.191   0.073
    1UNL     O6   19  -0.365   0.302   0.135
    1UNL    C14   20  -0.289   0.229  -0.078
    1UNL     O7   21  -0.420   0.259  -0.131
    1UNL    C15   22   0.215  -0.029  -0.141
    1UNL    C16   23   0.335  -0.038  -0.080
    1UNL     H1   24   0.671  -0.219   0.044
    1UNL     H2   25   0.609  -0.085  -0.073
    1UNL     H3   26   0.542  -0.254  -0.046
    1UNL     H4   27   0.471  -0.184   0.178
    1UNL     H5   28   0.545   0.104   0.096
    1UNL     H6   29   0.440   0.067   0.239
    1UNL     H7   30   0.724  -0.016   0.225
    1UNL     H8   31   0.247  -0.144   0.222
    1UNL     H9   32   0.031  -0.142   0.107
    1UNL    H10   33  -0.109  -0.126  -0.124
    1UNL    H11   34  -0.029  -0.034  -0.261
    1UNL    H12   35  -0.225   0.114  -0.255
    1UNL    H13   36  -0.258  -0.097   0.038
    1UNL    H14   37  -0.493  -0.186   0.096
    1UNL    H15   38  -0.418  -0.244  -0.045
    1UNL    H16   39  -0.557  -0.057  -0.155
    1UNL    H17   40  -0.491   0.111   0.066
    1UNL    H18   41  -0.382   0.089   0.298
    1UNL    H19   42  -0.203   0.179   0.101
    1UNL    H20   43  -0.431   0.347   0.080
    1UNL    H21   44  -0.221   0.316  -0.081
    1UNL    H22   45  -0.410   0.328  -0.204
    1UNL    H23   46   0.210   0.014  -0.242
    1UNL    H24   47   0.425  -0.016  -0.143
   0.00000   0.00000   0.00000   0.00000   0.00000   0.00000   0.00000   0.00000   0.00000
Generated with MDTraj, t= 12.0
 47
    1UNL     C1    1   0.598  -0.145   0.008
    1UNL     C2    2   0.487  -0.117   0.109
    1UNL     C3    3   0.524   0.012   0.184
    1UNL     O1    4   0.649   0.005   0.251
    1UNL     C4    5   0.352  -0.085   0.032
    1UNL     C5    6   0.238  -0.102   0.110
    1UNL     C6    7   0.112  -0.100   0.053
    1UNL     C7    8   0.100  -0.064  -0.082
    1UNL     C8    9  -0.031  -0.038  -0.141
    1UNL     O2   10  -0.097   0.073  -0.080
    1UNL     C9   11  -0.225   0.103  -0.136
    1UNL     O3   12  -0.317  -0.005  -0.136
    1UNL    C10   13  -0.345  -0.053  -0.000
    1UNL    C11   14  -0.460  -0.158  -0.012
    1UNL     O4   15  -0.573  -0.098  -0.068
    1UNL    C12   16  -0.402   0.063   0.090
    1UNL     O5   17  -0.418   0.038   0.242
    1UNL    C13   18  -0.316   0.192   0.075
    1UNL     O6   19  -0.377   0.303   0.132
    1UNL    C14   20  -0.287   0.222  -0.074
    1UNL     O7   21  -0.407   0.248  -0.143
    1UNL    C15   22   0.218  -0.034  -0.156
    1UNL    C16   23   0.346  -0.041  -0.100
    1UNL     H1   24   0.679  -0.194   0.057
    1UNL     H2   25   0.612  -0.055  -0.052
    1UNL     H3   26   0.565  -0.231  -0.052
    1UNL     H4   27   0.469  -0.203   0.175
    1UNL     H5   28   0.525   0.101   0.120
    1UNL     H6   29   0.448   0.033   0.260
    1UNL     H7   30   0.728   0.037   0.198
    1UNL     H8   31   0.262  -0.119   0.216
    1UNL     H9   32   0.031  -0.144   0.117
    1UNL    H10   33  -0.109  -0.122  -0.134
    1UNL    H11   34  -0.021  -0.010  -0.256
    1UNL    H12   35  -0.216   0.129  -0.238
    1UNL    H13   36  -0.251  -0.091   0.049
    1UNL    H14   37  -0.483  -0.205   0.089
    1UNL    H15   38  -0.442  -0.251  -0.074
    1UNL    H16   39  -0.551  -0.031  -0.136
    1UNL    H17   40  -0.506   0.085   0.076
    1UNL    H18   41  -0.423   0.125   0.291
    1UNL    H19   42  -0.225   0.172   0.122
    1UNL    H20   43  -0.449   0.336   0.075
    1UNL    H21   44  -0.228   0.315  -0.079
    1UNL    H22   45  -0.454   0.162  -0.141
    1UNL    H23   46   0.200  -0.028  -0.259
    1UNL    H24   47   0.434  -0.023  -0.154
   0.00000   0.00000   0.00000   0.00000   0.00000   0.00000   0.00000   0.00000   0.00000
Generated with MDTraj, t= 13.0
 47
    1UNL     C1    1   0.621  -0.150   0.006
    1UNL     C2    2   0.502  -0.107   0.095
    1UNL     C3    3   0.534   0.025   0.175
    1UNL     O1    4   0.641  -0.004   0.260
    1UNL     C4    5   0.358  -0.108   0.031
    1UNL     C5    6   0.240  -0.114   0.104
    1UNL     C6    7   0.114  -0.102   0.048
    1UNL     C7    8   0.103  -0.057  -0.077
    1UNL     C8    9  -0.031  -0.016  -0.134
    1UNL     O2   10  -0.107   0.083  -0.062
    1UNL     C9   11  -0.233   0.099  -0.132
    1UNL     O3   12  -0.326  -0.009  -0.128
    1UNL    C10   13  -0.356  -0.046   0.013
    1UNL    C11   14  -0.447  -0.163   0.004
    1UNL     O4   15  -0.554  -0.141  -0.077
    1UNL    C12   16  -0.415   0.069   0.088
    1UNL     O5   17  -0.439   0.052   0.226
    1UNL    C13   18  -0.320   0.197   0.073
    1UNL     O6   19  -0.385   0.298   0.131
    1UNL    C14   20  -0.285   0.235  -0.080
    1UNL     O7   21  -0.402   0.281  -0.144
    1UNL    C15   22   0.217  -0.043  -0.157
    1UNL    C16   23   0.340  -0.061  -0.102
    1UNL     H1   24   0.698  -0.189   0.064
    1UNL     H2   25   0.643  -0.075  -0.072
    1UNL     H3   26   0.599  -0.247  -0.042
    1UNL     H4   27   0.476  -0.184   0.169
    1UNL     H5   28   0.544   0.116   0.117
    1UNL     H6   29   0.457   0.054   0.247
    1UNL     H7   30   0.718   0.009   0.196
    1UNL     H8   31   0.245  -0.144   0.206
    1UNL     H9   32   0.032  -0.118   0.116
    1UNL    H10   33  -0.099  -0.109  -0.138
    1UNL    H11   34  -0.018   0.028  -0.242
    1UNL    H12   35  -0.216   0.114  -0.236
    1UNL    H13   36  -0.249  -0.073   0.039
    1UNL    H14   37  -0.487  -0.190   0.104
    1UNL    H15   38  -0.386  -0.252  -0.026
    1UNL    H16   39  -0.528  -0.066  -0.137
    1UNL    H17   40  -0.511   0.090   0.040
    1UNL    H18   41  -0.459   0.140   0.261
    1UNL    H19   42  -0.227   0.184   0.118
    1UNL    H20   43  -0.460   0.320   0.065
    1UNL    H21   44  -0.209   0.313  -0.093
    1UNL    H22   45  -0.466   0.209  -0.137
    1UNL    H23   46   0.202  -0.022  -0.267
    1UNL    H24   47   0.425  -0.053  -0.169
   0.00000   0.00000   0.00000   0.00000   0.00000   0.00000   0.00000   0.00000   0.00000
Generated with MDTraj, t= 14.0
 47
    1UNL     C1    1   0.601  -0.165  -0.003
    1UNL     C2    2   0.492  -0.117   0.095
    1UNL     C3    3   0.530   0.020   0.162
    1UNL     O1    4   0.630  -0.005   0.256
    1UNL     C4    5   0.353  -0.095   0.028
    1UNL     C5    6   0.244  -0.113   0.105
    1UNL     C6    7   0.115  -0.093   0.050
    1UNL     C7    8   0.099  -0.061  -0.082
    1UNL     C8    9  -0.037  -0.035  -0.138
    1UNL     O2   10  -0.087   0.087  -0.078
    1UNL     C9   11  -0.219   0.116  -0.121
    1UNL     O3   12  -0.318   0.007  -0.117
    1UNL    C10   13  -0.344  -0.030   0.020
    1UNL    C11   14  -0.427  -0.162   0.025
    1UNL     O4   15  -0.517  -0.173  -0.079
    1UNL    C12   16  -0.421   0.079   0.083
    1UNL     O5   17  -0.468   0.037   0.208
    1UNL    C13   18  -0.334   0.207   0.083
    1UNL     O6   19  -0.409   0.310   0.119
    1UNL    C14   20  -0.277   0.244  -0.058
    1UNL     O7   21  -0.384   0.272  -0.134
    1UNL    C15   22   0.210  -0.041  -0.159
    1UNL    C16   23   0.333  -0.052  -0.102
    1UNL     H1   24   0.672  -0.216   0.051
    1UNL     H2   25   0.644  -0.091  -0.076
    1UNL     H3   26   0.558  -0.247  -0.061
    1UNL     H4   27   0.467  -0.184   0.177
    1UNL     H5   28   0.570   0.096   0.096
    1UNL     H6   29   0.451   0.074   0.215
    1UNL     H7   30   0.703  -0.065   0.234
    1UNL     H8   31   0.263  -0.139   0.210
    1UNL     H9   32   0.026  -0.118   0.104
    1UNL    H10   33  -0.104  -0.122  -0.104
    1UNL    H11   34  -0.024  -0.021  -0.252
    1UNL    H12   35  -0.206   0.128  -0.228
    1UNL    H13   36  -0.243  -0.039   0.066
    1UNL    H14   37  -0.476  -0.159   0.123
    1UNL    H15   38  -0.363  -0.249   0.037
    1UNL    H16   39  -0.473  -0.129  -0.154
    1UNL    H17   40  -0.519   0.098   0.032
    1UNL    H18   41  -0.506   0.110   0.258
    1UNL    H19   42  -0.258   0.202   0.159
    1UNL    H20   43  -0.468   0.336   0.045
    1UNL    H21   44  -0.216   0.335  -0.052
    1UNL    H22   45  -0.436   0.186  -0.144
    1UNL    H23   46   0.197  -0.032  -0.261
    1UNL    H24   47   0.420  -0.044  -0.170
   0.00000   0.00000   0.00000   0.00000   0.00000   0.00000   0.00000   0.00000   0.00000
Generated with MDTraj, t= 15.0
 47
    1UNL     C1    1   0.592  -0.180  -0.001
    1UNL     C2    2   0.486  -0.132   0.098
    1UNL     C3    3   0.535   0.009   0.155
    1UNL     O1    4   0.648   0.003   0.244
    1UNL     C4    5   0.351  -0.109   0.027
    1UNL     C5    6   0.236  -0.127   0.110
    1UNL     C6    7   0.111  -0.095   0.062
    1UNL     C7    8   0.100  -0.058  -0.074
    1UNL     C8    9  -0.035  -0.020  -0.134
    1UNL     O2   10  -0.090   0.099  -0.080
    1UNL     C9   11  -0.224   0.117  -0.124
    1UNL     O3   12  -0.312   0.006  -0.119
    1UNL    C10   13  -0.332  -0.029   0.015
    1UNL    C11   14  -0.398  -0.169   0.022
    1UNL     O4   15  -0.494  -0.182  -0.079
    1UNL    C12   16  -0.423   0.071   0.085
    1UNL     O5   17  -0.473   0.043   0.223
    1UNL    C13   18  -0.353   0.208   0.080
    1UNL     O6   19  -0.438   0.314   0.127
    1UNL    C14   20  -0.290   0.242  -0.065
    1UNL     O7   21  -0.389   0.291  -0.153
    1UNL    C15   22   0.212  -0.033  -0.151
    1UNL    C16   23   0.344  -0.053  -0.101
    1UNL     H1   24   0.685  -0.191   0.045
    1UNL     H2   25   0.599  -0.108  -0.086
    1UNL     H3   26   0.552  -0.271  -0.042
    1UNL     H4   27   0.470  -0.197   0.185
    1UNL     H5   28   0.537   0.078   0.071
    1UNL     H6   29   0.453   0.054   0.211
    1UNL     H7   30   0.712  -0.066   0.218
    1UNL     H8   31   0.242  -0.153   0.212
    1UNL     H9   32   0.028  -0.088   0.139
    1UNL    H10   33  -0.104  -0.109  -0.117
    1UNL    H11   34  -0.007   0.003  -0.241
    1UNL    H12   35  -0.210   0.126  -0.235
    1UNL    H13   36  -0.236  -0.029   0.070
    1UNL    H14   37  -0.437  -0.184   0.122
    1UNL    H15   38  -0.321  -0.244   0.019
    1UNL    H16   39  -0.454  -0.150  -0.164
    1UNL    H17   40  -0.523   0.086   0.032
    1UNL    H18   41  -0.502   0.132   0.260
    1UNL    H19   42  -0.277   0.197   0.157
    1UNL    H20   43  -0.432   0.390   0.066
    1UNL    H21   44  -0.208   0.314  -0.061
    1UNL    H22   45  -0.469   0.230  -0.144
    1UNL    H23   46   0.191  -0.003  -0.257
    1UNL    H24   47   0.429  -0.033  -0.154
   0.00000   0.00000   0.00000   0.00000   0.00000   0.00000   0.00000   0.00000   0.00000
Generated with MDTraj, t= 16.0
 47
    1UNL     C1    1   0.583  -0.212   0.015
    1UNL     C2    2   0.487  -0.125   0.100
    1UNL     C3    3   0.546   0.010   0.159
    1UNL     O1    4   0.669  -0.011   0.225
    1UNL     C4    5   0.353  -0.093   0.040
    1UNL     C5    6   0.234  -0.133   0.102
    1UNL     C6    7   0.112  -0.101   0.051
    1UNL     C7    8   0.101  -0.040  -0.073
    1UNL     C8    9  -0.032   0.002  -0.130
    1UNL     O2   10  -0.107   0.102  -0.062
    1UNL     C9   11  -0.229   0.123  -0.134
    1UNL     O3   12  -0.298  -0.001  -0.124
    1UNL    C10   13  -0.327  -0.029   0.016
    1UNL    C11   14  -0.388  -0.171   0.010
    1UNL     O4   15  -0.504  -0.179  -0.070
    1UNL    C12   16  -0.420   0.074   0.086
    1UNL     O5   17  -0.457   0.047   0.223
    1UNL    C13   18  -0.352   0.211   0.073
    1UNL     O6   19  -0.446   0.302   0.134
    1UNL    C14   20  -0.304   0.249  -0.074
    1UNL     O7   21  -0.409   0.285  -0.162
    1UNL    C15   22   0.214  -0.025  -0.141
    1UNL    C16   23   0.338  -0.048  -0.085
    1UNL     H1   24   0.674  -0.212   0.072
    1UNL     H2   25   0.614  -0.180  -0.086
    1UNL     H3   26   0.535  -0.307   0.010
    1UNL     H4   27   0.459  -0.180   0.192
    1UNL     H5   28   0.550   0.081   0.075
    1UNL     H6   29   0.463   0.049   0.220
    1UNL     H7   30   0.742  -0.018   0.155
    1UNL     H8   31   0.238  -0.185   0.198
    1UNL     H9   32   0.026  -0.105   0.106
    1UNL    H10   33  -0.103  -0.087  -0.122
    1UNL    H11   34  -0.017   0.037  -0.234
    1UNL    H12   35  -0.215   0.136  -0.246
    1UNL    H13   36  -0.227  -0.036   0.060
    1UNL    H14   37  -0.407  -0.204   0.110
    1UNL    H15   38  -0.314  -0.242  -0.022
    1UNL    H16   39  -0.503  -0.153  -0.164
    1UNL    H17   40  -0.511   0.082   0.020
    1UNL    H18   41  -0.478   0.129   0.274
    1UNL    H19   42  -0.258   0.205   0.131
    1UNL    H20   43  -0.505   0.345   0.065
    1UNL    H21   44  -0.237   0.336  -0.082
    1UNL    H22   45  -0.479   0.215  -0.167
    1UNL    H23   46   0.206  -0.000  -0.245
    1UNL    H24   47   0.427  -0.040  -0.157
   0.00000   0.00000   0.00000   0.00000   0.00000   0.00000   0.00000   0.00000   0.00000
Generated with MDTraj, t= 17.0
 47
    1UNL     C1    1   0.533  -0.230   0.024
    1UNL     C2    2   0.479  -0.125   0.110
    1UNL     C3    3   0.567  -0.002   0.134
    1UNL     O1    4   0.677  -0.021   0.214
    1UNL     C4    5   0.344  -0.078   0.056
    1UNL     C5    6   0.231  -0.122   0.121
    1UNL     C6    7   0.111  -0.090   0.059
    1UNL     C7    8   0.105  -0.029  -0.068
    1UNL     C8    9  -0.022   0.004  -0.145
    1UNL     O2   10  -0.087   0.117  -0.088
    1UNL     C9   11  -0.226   0.120  -0.131
    1UNL     O3   12  -0.304  -0.006  -0.127
    1UNL    C10   13  -0.332  -0.051   0.008
    1UNL    C11   14  -0.412  -0.177   0.012
    1UNL     O4   15  -0.520  -0.159  -0.074
    1UNL    C12   16  -0.406   0.066   0.082
    1UNL     O5   17  -0.434   0.030   0.216
    1UNL    C13   18  -0.338   0.209   0.076
    1UNL     O6   19  -0.432   0.315   0.119
    1UNL    C14   20  -0.310   0.237  -0.072
    1UNL     O7   21  -0.429   0.246  -0.139
    1UNL    C15   22   0.223   0.013  -0.131
    1UNL    C16   23   0.347  -0.012  -0.070
    1UNL     H1   24   0.606  -0.290   0.086
    1UNL     H2   25   0.608  -0.197  -0.046
    1UNL     H3   26   0.458  -0.282  -0.030
    1UNL     H4   27   0.456  -0.167   0.211
    1UNL     H5   28   0.594   0.043   0.036
    1UNL     H6   29   0.511   0.075   0.194
    1UNL     H7   30   0.745  -0.092   0.193
    1UNL     H8   31   0.249  -0.155   0.222
    1UNL     H9   32   0.018  -0.093   0.125
    1UNL    H10   33  -0.098  -0.076  -0.152
    1UNL    H11   34  -0.008   0.045  -0.241
    1UNL    H12   35  -0.225   0.142  -0.246
    1UNL    H13   36  -0.238  -0.066   0.060
    1UNL    H14   37  -0.444  -0.192   0.116
    1UNL    H15   38  -0.354  -0.267  -0.012
    1UNL    H16   39  -0.499  -0.168  -0.171
    1UNL    H17   40  -0.507   0.071   0.035
    1UNL    H18   41  -0.470   0.102   0.269
    1UNL    H19   42  -0.245   0.217   0.138
    1UNL    H20   43  -0.494   0.330   0.046
    1UNL    H21   44  -0.254   0.331  -0.081
    1UNL    H22   45  -0.455   0.154  -0.150
    1UNL    H23   46   0.221   0.072  -0.222
    1UNL    H24   47   0.436   0.008  -0.121
   0.00000   0.00000   0.00000   0.00000   0.00000   0.00000   0.00000   0.00000   0.00000
Generated with MDTraj, t= 18.0
 47
    1UNL     C1    1   0.516  -0.254   0.071
    1UNL     C2    2   0.479  -0.109   0.114
    1UNL     C3    3   0.591  -0.007   0.129
    1UNL     O1    4   0.699  -0.050   0.214
    1UNL     C4    5   0.352  -0.058   0.059
    1UNL     C5    6   0.234  -0.108   0.110
    1UNL     C6    7   0.110  -0.083   0.048
    1UNL     C7    8   0.101  -0.007  -0.066
    1UNL     C8    9  -0.024   0.014  -0.149
    1UNL     O2   10  -0.118   0.106  -0.085
    1UNL     C9   11  -0.246   0.110  -0.143
    1UNL     O3   12  -0.315  -0.009  -0.134
    1UNL    C10   13  -0.331  -0.050   0.001
    1UNL    C11   14  -0.417  -0.178   0.003
    1UNL     O4   15  -0.533  -0.159  -0.077
    1UNL    C12   16  -0.409   0.063   0.083
    1UNL     O5   17  -0.401   0.021   0.218
    1UNL    C13   18  -0.334   0.205   0.064
    1UNL     O6   19  -0.397   0.313   0.128
    1UNL    C14   20  -0.322   0.231  -0.085
    1UNL     O7   21  -0.449   0.244  -0.142
    1UNL    C15   22   0.224   0.037  -0.120
    1UNL    C16   23   0.347   0.009  -0.065
    1UNL     H1   24   0.627  -0.263   0.101
    1UNL     H2   25   0.522  -0.272  -0.032
    1UNL     H3   26   0.452  -0.328   0.110
    1UNL     H4   27   0.440  -0.118   0.219
    1UNL     H5   28   0.643   0.012   0.031
    1UNL     H6   29   0.548   0.092   0.158
    1UNL     H7   30   0.755  -0.103   0.156
    1UNL     H8   31   0.229  -0.158   0.207
    1UNL     H9   32   0.028  -0.111   0.104
    1UNL    H10   33  -0.087  -0.074  -0.149
    1UNL    H11   34  -0.004   0.046  -0.245
    1UNL    H12   35  -0.240   0.131  -0.257
    1UNL    H13   36  -0.237  -0.060   0.054
    1UNL    H14   37  -0.451  -0.204   0.106
    1UNL    H15   38  -0.350  -0.264  -0.022
    1UNL    H16   39  -0.498  -0.147  -0.167
    1UNL    H17   40  -0.515   0.071   0.055
    1UNL    H18   41  -0.452   0.092   0.268
    1UNL    H19   42  -0.234   0.193   0.120
    1UNL    H20   43  -0.491   0.302   0.114
    1UNL    H21   44  -0.263   0.324  -0.096
    1UNL    H22   45  -0.480   0.155  -0.168
    1UNL    H23   46   0.213   0.090  -0.214
    1UNL    H24   47   0.435   0.038  -0.119
   0.00000   0.00000   0.00000   0.00000   0.00000   0.00000   0.00000   0.00000   0.00000
Generated with MDTraj, t= 19.0
 47
    1UNL     C1    1   0.493  -0.252   0.100
    1UNL     C2    2   0.464  -0.106   0.132
    1UNL     C3    3   0.578  -0.013   0.103
    1UNL     O1    4   0.701  -0.040   0.179
    1UNL     C4    5   0.333  -0.058   0.068
    1UNL     C5    6   0.209  -0.098   0.123
    1UNL     C6    7   0.093  -0.083   0.039
    1UNL     C7    8   0.104  -0.012  -0.081
    1UNL     C8    9  -0.019   0.018  -0.163
    1UNL     O2   10  -0.104   0.113  -0.093
    1UNL     C9   11  -0.231   0.107  -0.147
    1UNL     O3   12  -0.295  -0.019  -0.134
    1UNL    C10   13  -0.321  -0.047   0.004
    1UNL    C11   14  -0.404  -0.169  -0.011
    1UNL     O4   15  -0.525  -0.152  -0.070
    1UNL    C12   16  -0.400   0.059   0.093
    1UNL     O5   17  -0.387   0.023   0.230
    1UNL    C13   18  -0.341   0.195   0.069
    1UNL     O6   19  -0.406   0.291   0.146
    1UNL    C14   20  -0.318   0.228  -0.084
    1UNL     O7   21  -0.437   0.252  -0.154
    1UNL    C15   22   0.224   0.035  -0.118
    1UNL    C16   23   0.338   0.011  -0.052
    1UNL     H1   24   0.575  -0.290   0.169
    1UNL     H2   25   0.540  -0.245   0.007
    1UNL     H3   26   0.407  -0.315   0.091
    1UNL     H4   27   0.456  -0.106   0.243
    1UNL     H5   28   0.596  -0.008  -0.006
    1UNL     H6   29   0.556   0.092   0.130
    1UNL     H7   30   0.694  -0.129   0.215
    1UNL     H8   31   0.203  -0.139   0.222
    1UNL     H9   32  -0.008  -0.101   0.084
    1UNL    H10   33  -0.068  -0.071  -0.193
    1UNL    H11   34   0.008   0.075  -0.244
    1UNL    H12   35  -0.218   0.127  -0.262
    1UNL    H13   36  -0.228  -0.076   0.052
    1UNL    H14   37  -0.414  -0.225   0.085
    1UNL    H15   38  -0.353  -0.250  -0.072
    1UNL    H16   39  -0.506  -0.130  -0.164
    1UNL    H17   40  -0.500   0.054   0.050
    1UNL    H18   41  -0.436   0.092   0.281
    1UNL    H19   42  -0.233   0.186   0.114
    1UNL    H20   43  -0.504   0.271   0.142
    1UNL    H21   44  -0.257   0.322  -0.093
    1UNL    H22   45  -0.496   0.170  -0.156
    1UNL    H23   46   0.218   0.093  -0.207
    1UNL    H24   47   0.443   0.041  -0.089
   0.00000   0.00000   0.00000   0.00000   0.00000   0.00000   0.00000   0.00000   0.00000
Generated with MDTraj, t= 20.0
 47
    1UNL     C1    1   0.492  -0.247   0.150
    1UNL     C2    2   0.464  -0.098   0.139
    1UNL     C3    3   0.582  -0.027   0.093
    1UNL     O1    4   0.687  -0.036   0.190
    1UNL     C4    5   0.340  -0.069   0.051
    1UNL     C5    6   0.211  -0.100   0.108
    1UNL     C6    7   0.093  -0.079   0.040
    1UNL     C7    8   0.098  -0.020  -0.091
    1UNL     C8    9  -0.023   0.002  -0.173
    1UNL     O2   10  -0.093   0.112  -0.107
    1UNL     C9   11  -0.228   0.133  -0.143
    1UNL     O3   12  -0.299   0.010  -0.148
    1UNL    C10   13  -0.313  -0.044  -0.013
    1UNL    C11   14  -0.382  -0.177  -0.007
    1UNL     O4   15  -0.508  -0.176  -0.069
    1UNL    C12   16  -0.392   0.058   0.088
    1UNL     O5   17  -0.389   0.016   0.226
    1UNL    C13   18  -0.342   0.198   0.081
    1UNL     O6   19  -0.432   0.298   0.142
    1UNL    C14   20  -0.319   0.242  -0.061
    1UNL     O7   21  -0.444   0.255  -0.122
    1UNL    C15   22   0.216   0.030  -0.133
    1UNL    C16   23   0.331  -0.006  -0.070
    1UNL     H1   24   0.585  -0.269   0.200
    1UNL     H2   25   0.511  -0.275   0.048
    1UNL     H3   26   0.411  -0.309   0.185
    1UNL     H4   27   0.445  -0.063   0.244
    1UNL     H5   28   0.625  -0.072   0.003
    1UNL     H6   29   0.556   0.075   0.063
    1UNL     H7   30   0.761  -0.098   0.162
    1UNL     H8   31   0.194  -0.132   0.210
    1UNL     H9   32  -0.001  -0.114   0.080
    1UNL    H10   33  -0.091  -0.079  -0.166
    1UNL    H11   34   0.013   0.023  -0.267
    1UNL    H12   35  -0.218   0.170  -0.253
    1UNL    H13   36  -0.211  -0.044   0.022
    1UNL    H14   37  -0.405  -0.215   0.094
    1UNL    H15   38  -0.320  -0.258  -0.053
    1UNL    H16   39  -0.500  -0.145  -0.164
    1UNL    H17   40  -0.492   0.054   0.049
    1UNL    H18   41  -0.428   0.071   0.293
    1UNL    H19   42  -0.249   0.214   0.150
    1UNL    H20   43  -0.504   0.326   0.080
    1UNL    H21   44  -0.274   0.346  -0.061
    1UNL    H22   45  -0.503   0.178  -0.108
    1UNL    H23   46   0.215   0.086  -0.228
    1UNL    H24   47   0.417   0.024  -0.115
   0.00000   0.00000   0.00000   0.00000   0.00000   0.00000   0.00000   0.00000   0.00000
Generated with MDTraj, t= 21.0
 47
    1UNL     C1    1   0.486  -0.241   0.172
    1UNL     C2    2   0.454  -0.095   0.131
    1UNL     C3    3   0.576  -0.011   0.084
    1UNL     O1    4   0.683  -0.031   0.173
    1UNL     C4    5   0.329  -0.093   0.045
    1UNL     C5    6   0.197  -0.100   0.105
    1UNL     C6    7   0.082  -0.074   0.038
    1UNL     C7    8   0.094  -0.008  -0.084
    1UNL     C8    9  -0.027   0.028  -0.157
    1UNL     O2   10  -0.104   0.119  -0.083
    1UNL     C9   11  -0.231   0.127  -0.141
    1UNL     O3   12  -0.294   0.002  -0.136
    1UNL    C10   13  -0.308  -0.041  -0.004
    1UNL    C11   14  -0.359  -0.180  -0.000
    1UNL     O4   15  -0.485  -0.195  -0.076
    1UNL    C12   16  -0.395   0.056   0.073
    1UNL     O5   17  -0.396   0.007   0.207
    1UNL    C13   18  -0.333   0.202   0.075
    1UNL     O6   19  -0.417   0.291   0.153
    1UNL    C14   20  -0.312   0.248  -0.068
    1UNL     O7   21  -0.439   0.280  -0.123
    1UNL    C15   22   0.215   0.008  -0.147
    1UNL    C16   23   0.331  -0.031  -0.079
    1UNL     H1   24   0.571  -0.267   0.222
    1UNL     H2   25   0.499  -0.287   0.072
    1UNL     H3   26   0.406  -0.302   0.213
    1UNL     H4   27   0.424  -0.053   0.229
    1UNL     H5   28   0.613  -0.053  -0.009
    1UNL     H6   29   0.570   0.097   0.070
    1UNL     H7   30   0.655  -0.059   0.266
    1UNL     H8   31   0.199  -0.133   0.210
    1UNL     H9   32  -0.014  -0.098   0.075
    1UNL    H10   33  -0.082  -0.064  -0.171
    1UNL    H11   34  -0.010   0.081  -0.244
    1UNL    H12   35  -0.217   0.155  -0.252
    1UNL    H13   36  -0.214  -0.026   0.051
    1UNL    H14   37  -0.374  -0.211   0.103
    1UNL    H15   38  -0.293  -0.255  -0.046
    1UNL    H16   39  -0.485  -0.173  -0.170
    1UNL    H17   40  -0.496   0.054   0.036
    1UNL    H18   41  -0.430   0.083   0.263
    1UNL    H19   42  -0.234   0.186   0.134
    1UNL    H20   43  -0.486   0.325   0.096
    1UNL    H21   44  -0.244   0.337  -0.081
    1UNL    H22   45  -0.494   0.201  -0.119
    1UNL    H23   46   0.218   0.053  -0.242
    1UNL    H24   47   0.435  -0.004  -0.107
   0.00000   0.00000   0.00000   0.00000   0.00000   0.00000   0.00000   0.00000   0.00000
Generated with MDTraj, t= 22.0
 47
    1UNL     C1    1   0.462  -0.257   0.141
    1UNL     C2    2   0.455  -0.102   0.144
    1UNL     C3    3   0.580  -0.027   0.088
    1UNL     O1    4   0.685  -0.009   0.183
    1UNL     C4    5   0.327  -0.069   0.062
    1UNL     C5    6   0.202  -0.071   0.114
    1UNL     C6    7   0.090  -0.045   0.040
    1UNL     C7    8   0.097  -0.015  -0.093
    1UNL     C8    9  -0.024   0.013  -0.172
    1UNL     O2   10  -0.093   0.125  -0.116
    1UNL     C9   11  -0.234   0.128  -0.139
    1UNL     O3   12  -0.288   0.000  -0.128
    1UNL    C10   13  -0.308  -0.044   0.005
    1UNL    C11   14  -0.360  -0.186  -0.002
    1UNL     O4   15  -0.472  -0.182  -0.089
    1UNL    C12   16  -0.404   0.052   0.082
    1UNL     O5   17  -0.422   0.006   0.213
    1UNL    C13   18  -0.344   0.200   0.087
    1UNL     O6   19  -0.419   0.293   0.165
    1UNL    C14   20  -0.317   0.240  -0.053
    1UNL     O7   21  -0.435   0.267  -0.117
    1UNL    C15   22   0.228  -0.018  -0.151
    1UNL    C16   23   0.335  -0.044  -0.077
    1UNL     H1   24   0.535  -0.308   0.192
    1UNL     H2   25   0.482  -0.276   0.034
    1UNL     H3   26   0.367  -0.303   0.166
    1UNL     H4   27   0.437  -0.077   0.249
    1UNL     H5   28   0.630  -0.075   0.004
    1UNL     H6   29   0.552   0.066   0.043
    1UNL     H7   30   0.770  -0.005   0.137
    1UNL     H8   31   0.192  -0.080   0.217
    1UNL     H9   32  -0.017  -0.062   0.073
    1UNL    H10   33  -0.100  -0.065  -0.164
    1UNL    H11   34  -0.002   0.034  -0.273
    1UNL    H12   35  -0.253   0.155  -0.248
    1UNL    H13   36  -0.215  -0.045   0.062
    1UNL    H14   37  -0.401  -0.222   0.091
    1UNL    H15   38  -0.278  -0.246  -0.039
    1UNL    H16   39  -0.462  -0.111  -0.160
    1UNL    H17   40  -0.502   0.052   0.030
    1UNL    H18   41  -0.430   0.095   0.262
    1UNL    H19   42  -0.243   0.188   0.141
    1UNL    H20   43  -0.503   0.308   0.114
    1UNL    H21   44  -0.259   0.336  -0.048
    1UNL    H22   45  -0.425   0.309  -0.205
    1UNL    H23   46   0.251  -0.004  -0.260
    1UNL    H24   47   0.433  -0.026  -0.127
   0.00000   0.00000   0.00000   0.00000   0.00000   0.00000   0.00000   0.00000   0.00000
Generated with MDTraj, t= 23.0
 47
    1UNL     C1    1   0.494  -0.247   0.136
    1UNL     C2    2   0.455  -0.103   0.138
    1UNL     C3    3   0.586  -0.025   0.105
    1UNL     O1    4   0.695  -0.048   0.193
    1UNL     C4    5   0.338  -0.065   0.050
    1UNL     C5    6   0.223  -0.032   0.111
    1UNL     C6    7   0.110   0.006   0.046
    1UNL     C7    8   0.103   0.004  -0.089
    1UNL     C8    9  -0.027   0.026  -0.155
    1UNL     O2   10  -0.103   0.114  -0.077
    1UNL     C9   11  -0.233   0.125  -0.135
    1UNL     O3   12  -0.304  -0.000  -0.146
    1UNL    C10   13  -0.324  -0.044  -0.009
    1UNL    C11   14  -0.380  -0.190  -0.014
    1UNL     O4   15  -0.493  -0.192  -0.089
    1UNL    C12   16  -0.408   0.054   0.085
    1UNL     O5   17  -0.414   0.001   0.215
    1UNL    C13   18  -0.345   0.193   0.089
    1UNL     O6   19  -0.421   0.292   0.163
    1UNL    C14   20  -0.318   0.240  -0.059
    1UNL     O7   21  -0.431   0.272  -0.135
    1UNL    C15   22   0.214  -0.040  -0.163
    1UNL    C16   23   0.332  -0.070  -0.095
    1UNL     H1   24   0.580  -0.283   0.192
    1UNL     H2   25   0.513  -0.260   0.029
    1UNL     H3   26   0.410  -0.303   0.168
    1UNL     H4   27   0.439  -0.078   0.244
    1UNL     H5   28   0.618  -0.049   0.005
    1UNL     H6   29   0.573   0.082   0.093
    1UNL     H7   30   0.712   0.038   0.235
    1UNL     H8   31   0.221  -0.039   0.221
    1UNL     H9   32   0.025   0.033   0.096
    1UNL    H10   33  -0.082  -0.071  -0.167
    1UNL    H11   34  -0.022   0.088  -0.245
    1UNL    H12   35  -0.216   0.153  -0.242
    1UNL    H13   36  -0.225  -0.056   0.037
    1UNL    H14   37  -0.396  -0.218   0.088
    1UNL    H15   38  -0.305  -0.251  -0.060
    1UNL    H16   39  -0.477  -0.128  -0.161
    1UNL    H17   40  -0.507   0.058   0.034
    1UNL    H18   41  -0.414   0.068   0.284
    1UNL    H19   42  -0.249   0.195   0.149
    1UNL    H20   43  -0.479   0.334   0.095
    1UNL    H21   44  -0.254   0.330  -0.051
    1UNL    H22   45  -0.496   0.195  -0.131
    1UNL    H23   46   0.208  -0.040  -0.268
    1UNL    H24   47   0.422  -0.092  -0.143
   0.00000   0.00000   0.00000   0.00000   0.00000   0.00000   0.00000   0.00000   0.00000
Generated with MDTraj, t= 24.0
 47
    1UNL     C1    1   0.508  -0.259   0.108
    1UNL     C2    2   0.467  -0.108   0.132
    1UNL     C3    3   0.590  -0.011   0.106
    1UNL     O1    4   0.708  -0.051   0.177
    1UNL     C4    5   0.342  -0.065   0.061
    1UNL     C5    6   0.238   0.007   0.127
    1UNL     C6    7   0.129   0.054   0.056
    1UNL     C7    8   0.103   0.006  -0.071
    1UNL     C8    9  -0.018   0.042  -0.150
    1UNL     O2   10  -0.111   0.131  -0.085
    1UNL     C9   11  -0.236   0.123  -0.139
    1UNL     O3   12  -0.290  -0.003  -0.141
    1UNL    C10   13  -0.315  -0.049  -0.009
    1UNL    C11   14  -0.403  -0.180  -0.017
    1UNL     O4   15  -0.522  -0.163  -0.087
    1UNL    C12   16  -0.398   0.048   0.078
    1UNL     O5   17  -0.417  -0.006   0.207
    1UNL    C13   18  -0.339   0.188   0.082
    1UNL     O6   19  -0.440   0.268   0.140
    1UNL    C14   20  -0.319   0.232  -0.066
    1UNL     O7   21  -0.445   0.250  -0.121
    1UNL    C15   22   0.205  -0.068  -0.133
    1UNL    C16   23   0.320  -0.104  -0.063
    1UNL     H1   24   0.589  -0.309   0.169
    1UNL     H2   25   0.538  -0.276   0.007
    1UNL     H3   26   0.422  -0.314   0.131
    1UNL     H4   27   0.453  -0.104   0.240
    1UNL     H5   28   0.618  -0.004   0.000
    1UNL     H6   29   0.558   0.092   0.129
    1UNL     H7   30   0.761  -0.112   0.116
    1UNL     H8   31   0.232   0.017   0.232
    1UNL     H9   32   0.057   0.126   0.105
    1UNL    H10   33  -0.077  -0.053  -0.168
    1UNL    H11   34   0.022   0.080  -0.248
    1UNL    H12   35  -0.232   0.152  -0.246
    1UNL    H13   36  -0.219  -0.071   0.042
    1UNL    H14   37  -0.431  -0.212   0.083
    1UNL    H15   38  -0.341  -0.253  -0.071
    1UNL    H16   39  -0.509  -0.091  -0.153
    1UNL    H17   40  -0.500   0.057   0.029
    1UNL    H18   41  -0.422   0.061   0.274
    1UNL    H19   42  -0.256   0.188   0.157
    1UNL    H20   43  -0.518   0.275   0.084
    1UNL    H21   44  -0.263   0.326  -0.073
    1UNL    H22   45  -0.439   0.314  -0.197
    1UNL    H23   46   0.199  -0.092  -0.240
    1UNL    H24   47   0.394  -0.168  -0.115
   0.00000   0.00000   0.00000   0.00000   0.00000   0.00000   0.00000   0.00000   0.00000
Generated with MDTraj, t= 25.0
 47
    1UNL     C1    1   0.514  -0.258   0.109
    1UNL     C2    2   0.467  -0.116   0.138
    1UNL     C3    3   0.582  -0.018   0.099
    1UNL     O1    4   0.713  -0.041   0.151
    1UNL     C4    5   0.342  -0.070   0.060
    1UNL     C5    6   0.266   0.032   0.119
    1UNL     C6    7   0.152   0.077   0.048
    1UNL     C7    8   0.112   0.004  -0.066
    1UNL     C8    9  -0.017   0.038  -0.144
    1UNL     O2   10  -0.095   0.127  -0.067
    1UNL     C9   11  -0.222   0.140  -0.131
    1UNL     O3   12  -0.303   0.014  -0.139
    1UNL    C10   13  -0.321  -0.055  -0.013
    1UNL    C11   14  -0.394  -0.184  -0.034
    1UNL     O4   15  -0.510  -0.153  -0.117
    1UNL    C12   16  -0.404   0.043   0.081
    1UNL     O5   17  -0.428  -0.006   0.211
    1UNL    C13   18  -0.351   0.192   0.084
    1UNL     O6   19  -0.446   0.271   0.154
    1UNL    C14   20  -0.328   0.242  -0.060
    1UNL     O7   21  -0.449   0.231  -0.128
    1UNL    C15   22   0.183  -0.098  -0.114
    1UNL    C16   23   0.302  -0.133  -0.052
    1UNL     H1   24   0.599  -0.304   0.168
    1UNL     H2   25   0.550  -0.276   0.012
    1UNL     H3   26   0.436  -0.325   0.127
    1UNL     H4   27   0.444  -0.113   0.244
    1UNL     H5   28   0.578  -0.015  -0.013
    1UNL     H6   29   0.555   0.082   0.139
    1UNL     H7   30   0.722  -0.018   0.247
    1UNL     H8   31   0.288   0.069   0.221
    1UNL     H9   32   0.090   0.158   0.080
    1UNL    H10   33  -0.065  -0.061  -0.174
    1UNL    H11   34   0.013   0.099  -0.238
    1UNL    H12   35  -0.211   0.180  -0.230
    1UNL    H13   36  -0.221  -0.071   0.035
    1UNL    H14   37  -0.439  -0.224   0.060
    1UNL    H15   38  -0.330  -0.261  -0.085
    1UNL    H16   39  -0.497  -0.077  -0.179
    1UNL    H17   40  -0.506   0.052   0.034
    1UNL    H18   41  -0.427   0.072   0.271
    1UNL    H19   42  -0.258   0.179   0.136
    1UNL    H20   43  -0.516   0.302   0.092
    1UNL    H21   44  -0.302   0.345  -0.080
    1UNL    H22   45  -0.460   0.142  -0.165
    1UNL    H23   46   0.162  -0.150  -0.203
    1UNL    H24   47   0.357  -0.214  -0.090
   0.00000   0.00000   0.00000   0.00000   0.00000   0.00000   0.00000   0.00000   0.00000
Generated with MDTraj, t= 26.0
 47
    1UNL     C1    1   0.509  -0.255   0.122
    1UNL     C2    2   0.476  -0.108   0.131
    1UNL     C3    3   0.592  -0.023   0.074
    1UNL     O1    4   0.701  -0.012   0.164
    1UNL     C4    5   0.347  -0.074   0.061
    1UNL     C5    6   0.285   0.037   0.089
    1UNL     C6    7   0.162   0.071   0.033
    1UNL     C7    8   0.094  -0.009  -0.055
    1UNL     C8    9  -0.029   0.044  -0.132
    1UNL     O2   10  -0.112   0.134  -0.064
    1UNL     C9   11  -0.238   0.137  -0.124
    1UNL     O3   12  -0.309   0.011  -0.137
    1UNL    C10   13  -0.333  -0.047  -0.013
    1UNL    C11   14  -0.383  -0.183  -0.037
    1UNL     O4   15  -0.479  -0.176  -0.146
    1UNL    C12   16  -0.417   0.042   0.083
    1UNL     O5   17  -0.425  -0.016   0.211
    1UNL    C13   18  -0.353   0.181   0.089
    1UNL     O6   19  -0.441   0.265   0.162
    1UNL    C14   20  -0.323   0.243  -0.055
    1UNL     O7   21  -0.429   0.279  -0.131
    1UNL    C15   22   0.161  -0.123  -0.090
    1UNL    C16   23   0.291  -0.154  -0.037
    1UNL     H1   24   0.589  -0.283   0.196
    1UNL     H2   25   0.548  -0.294   0.034
    1UNL     H3   26   0.422  -0.311   0.154
    1UNL     H4   27   0.452  -0.088   0.235
    1UNL     H5   28   0.635  -0.058  -0.025
    1UNL     H6   29   0.549   0.080   0.062
    1UNL     H7   30   0.759  -0.088   0.169
    1UNL     H8   31   0.323   0.110   0.155
    1UNL     H9   32   0.118   0.160   0.070
    1UNL    H10   33  -0.105  -0.039  -0.159
    1UNL    H11   34   0.014   0.089  -0.230
    1UNL    H12   35  -0.221   0.169  -0.223
    1UNL    H13   36  -0.237  -0.054   0.046
    1UNL    H14   37  -0.434  -0.219   0.056
    1UNL    H15   38  -0.310  -0.259  -0.075
    1UNL    H16   39  -0.522  -0.089  -0.148
    1UNL    H17   40  -0.520   0.059   0.042
    1UNL    H18   41  -0.418   0.056   0.281
    1UNL    H19   42  -0.262   0.180   0.144
    1UNL    H20   43  -0.507   0.304   0.097
    1UNL    H21   44  -0.257   0.324  -0.032
    1UNL    H22   45  -0.416   0.316  -0.222
    1UNL    H23   46   0.122  -0.199  -0.163
    1UNL    H24   47   0.348  -0.240  -0.076
   0.00000   0.00000   0.00000   0.00000   0.00000   0.00000   0.00000   0.00000   0.00000
Generated with MDTraj, t= 27.0
 47
    1UNL     C1    1   0.509  -0.250   0.149
    1UNL     C2    2   0.465  -0.099   0.133
    1UNL     C3    3   0.577  -0.018   0.061
    1UNL     O1    4   0.696   0.000   0.141
    1UNL     C4    5   0.331  -0.082   0.066
    1UNL     C5    6   0.283   0.048   0.066
    1UNL     C6    7   0.160   0.075   0.004
    1UNL     C7    8   0.100  -0.018  -0.067
    1UNL     C8    9  -0.028   0.023  -0.136
    1UNL     O2   10  -0.091   0.127  -0.067
    1UNL     C9   11  -0.221   0.148  -0.114
    1UNL     O3   12  -0.298   0.033  -0.146
    1UNL    C10   13  -0.315  -0.037  -0.020
    1UNL    C11   14  -0.365  -0.177  -0.032
    1UNL     O4   15  -0.475  -0.181  -0.127
    1UNL    C12   16  -0.422   0.041   0.067
    1UNL     O5   17  -0.476  -0.029   0.178
    1UNL    C13   18  -0.356   0.173   0.104
    1UNL     O6   19  -0.440   0.267   0.167
    1UNL    C14   20  -0.307   0.245  -0.028
    1UNL     O7   21  -0.419   0.292  -0.096
    1UNL    C15   22   0.161  -0.148  -0.085
    1UNL    C16   23   0.283  -0.177  -0.021
    1UNL     H1   24   0.595  -0.244   0.213
    1UNL     H2   25   0.534  -0.300   0.059
    1UNL     H3   26   0.427  -0.292   0.206
    1UNL     H4   27   0.447  -0.064   0.235
    1UNL     H5   28   0.610  -0.066  -0.034
    1UNL     H6   29   0.550   0.089   0.041
    1UNL     H7   30   0.681  -0.054   0.221
    1UNL     H8   31   0.339   0.130   0.116
    1UNL     H9   32   0.120   0.180   0.014
    1UNL    H10   33  -0.098  -0.064  -0.158
    1UNL    H11   34  -0.010   0.083  -0.234
    1UNL    H12   35  -0.207   0.201  -0.203
    1UNL    H13   36  -0.214  -0.040   0.028
    1UNL    H14   37  -0.416  -0.217   0.058
    1UNL    H15   38  -0.283  -0.247  -0.060
    1UNL    H16   39  -0.433  -0.162  -0.217
    1UNL    H17   40  -0.510   0.048  -0.000
    1UNL    H18   41  -0.509   0.031   0.250
    1UNL    H19   42  -0.287   0.145   0.178
    1UNL    H20   43  -0.503   0.296   0.101
    1UNL    H21   44  -0.239   0.324   0.005
    1UNL    H22   45  -0.417   0.267  -0.194
    1UNL    H23   46   0.125  -0.221  -0.150
    1UNL    H24   47   0.340  -0.263  -0.050
   0.00000   0.00000   0.00000   0.00000   0.00000   0.00000   0.00000   0.00000   0.00000
Generated with MDTraj, t= 28.0
 47
    1UNL     C1    1   0.509  -0.243   0.159
    1UNL     C2    2   0.466  -0.091   0.141
    1UNL     C3    3   0.582  -0.033   0.057
    1UNL     O1    4   0.704  -0.026   0.134
    1UNL     C4    5   0.343  -0.062   0.063
    1UNL     C5    6   0.293   0.065   0.070
    1UNL     C6    7   0.167   0.090   0.006
    1UNL     C7    8   0.111  -0.005  -0.074
    1UNL     C8    9  -0.020   0.026  -0.143
    1UNL     O2   10  -0.096   0.119  -0.068
    1UNL     C9   11  -0.220   0.142  -0.125
    1UNL     O3   12  -0.296   0.020  -0.139
    1UNL    C10   13  -0.331  -0.051  -0.014
    1UNL    C11   14  -0.383  -0.186  -0.048
    1UNL     O4   15  -0.491  -0.187  -0.137
    1UNL    C12   16  -0.429   0.033   0.067
    1UNL     O5   17  -0.486  -0.021   0.183
    1UNL    C13   18  -0.354   0.165   0.094
    1UNL     O6   19  -0.441   0.247   0.163
    1UNL    C14   20  -0.299   0.247  -0.029
    1UNL     O7   21  -0.410   0.313  -0.081
    1UNL    C15   22   0.160  -0.135  -0.074
    1UNL    C16   23   0.276  -0.162  -0.007
    1UNL     H1   24   0.606  -0.240   0.195
    1UNL     H2   25   0.505  -0.306   0.069
    1UNL     H3   26   0.444  -0.275   0.241
    1UNL     H4   27   0.469  -0.042   0.238
    1UNL     H5   28   0.606  -0.090  -0.034
    1UNL     H6   29   0.566   0.073   0.031
    1UNL     H7   30   0.769   0.037   0.089
    1UNL     H8   31   0.341   0.143   0.124
    1UNL     H9   32   0.116   0.178   0.028
    1UNL    H10   33  -0.090  -0.061  -0.135
    1UNL    H11   34  -0.003   0.052  -0.254
    1UNL    H12   35  -0.216   0.195  -0.214
    1UNL    H13   36  -0.237  -0.071   0.043
    1UNL    H14   37  -0.416  -0.227   0.048
    1UNL    H15   38  -0.310  -0.251  -0.097
    1UNL    H16   39  -0.450  -0.165  -0.224
    1UNL    H17   40  -0.514   0.069   0.009
    1UNL    H18   41  -0.513   0.056   0.233
    1UNL    H19   42  -0.275   0.152   0.159
    1UNL    H20   43  -0.487   0.311   0.104
    1UNL    H21   44  -0.226   0.323   0.003
    1UNL    H22   45  -0.446   0.258  -0.155
    1UNL    H23   46   0.095  -0.217  -0.109
    1UNL    H24   47   0.310  -0.266  -0.011
   0.00000   0.00000   0.00000   0.00000   0.00000   0.00000   0.00000   0.00000   0.00000
Generated with MDTraj, t= 29.0
 47
    1UNL     C1    1   0.506  -0.222   0.189
    1UNL     C2    2   0.486  -0.082   0.130
    1UNL     C3    3   0.610  -0.038   0.044
    1UNL     O1    4   0.726  -0.066   0.125
    1UNL     C4    5   0.354  -0.049   0.065
    1UNL     C5    6   0.294   0.075   0.073
    1UNL     C6    7   0.172   0.092   0.017
    1UNL     C7    8   0.108  -0.010  -0.059
    1UNL     C8    9  -0.021   0.025  -0.126
    1UNL     O2   10  -0.103   0.108  -0.041
    1UNL     C9   11  -0.225   0.144  -0.110
    1UNL     O3   12  -0.301   0.025  -0.141
    1UNL    C10   13  -0.345  -0.052  -0.023
    1UNL    C11   14  -0.401  -0.186  -0.070
    1UNL     O4   15  -0.511  -0.152  -0.155
    1UNL    C12   16  -0.439   0.031   0.070
    1UNL     O5   17  -0.450  -0.027   0.201
    1UNL    C13   18  -0.363   0.167   0.093
    1UNL     O6   19  -0.454   0.247   0.161
    1UNL    C14   20  -0.320   0.245  -0.034
    1UNL     O7   21  -0.433   0.284  -0.116
    1UNL    C15   22   0.169  -0.126  -0.078
    1UNL    C16   23   0.290  -0.151  -0.014
    1UNL     H1   24   0.577  -0.221   0.264
    1UNL     H2   25   0.544  -0.307   0.127
    1UNL     H3   26   0.418  -0.248   0.245
    1UNL     H4   27   0.491  -0.018   0.219
    1UNL     H5   28   0.617  -0.087  -0.052
    1UNL     H6   29   0.608   0.069   0.030
    1UNL     H7   30   0.805  -0.089   0.069
    1UNL     H8   31   0.341   0.164   0.117
    1UNL     H9   32   0.130   0.191   0.018
    1UNL    H10   33  -0.060  -0.070  -0.165
    1UNL    H11   34   0.011   0.095  -0.209
    1UNL    H12   35  -0.209   0.183  -0.206
    1UNL    H13   36  -0.251  -0.082   0.026
    1UNL    H14   37  -0.444  -0.246   0.009
    1UNL    H15   38  -0.322  -0.238  -0.123
    1UNL    H16   39  -0.474  -0.099  -0.226
    1UNL    H17   40  -0.539   0.036   0.030
    1UNL    H18   41  -0.492   0.034   0.266
    1UNL    H19   42  -0.277   0.149   0.151
    1UNL    H20   43  -0.455   0.343   0.129
    1UNL    H21   44  -0.258   0.334  -0.011
    1UNL    H22   45  -0.482   0.205  -0.143
    1UNL    H23   46   0.124  -0.198  -0.145
    1UNL    H24   47   0.332  -0.249  -0.022
   0.00000   0.00000   0.00000   0.00000   0.00000   0.00000   0.00000   0.00000   0.00000
Generated with MDTraj, t= 30.0
 47
    1UNL     C1    1   0.492  -0.190   0.211
    1UNL     C2    2   0.500  -0.060   0.138
    1UNL     C3    3   0.611  -0.086   0.031
    1UNL     O1    4   0.738  -0.095   0.091
    1UNL     C4    5   0.368  -0.042   0.066
    1UNL     C5    6   0.288   0.075   0.097
    1UNL     C6    7   0.167   0.097   0.039
    1UNL     C7    8   0.111   0.001  -0.047
    1UNL     C8    9  -0.021   0.030  -0.111
    1UNL     O2   10  -0.103   0.133  -0.049
    1UNL     C9   11  -0.230   0.141  -0.111
    1UNL     O3   12  -0.292   0.016  -0.149
    1UNL    C10   13  -0.338  -0.052  -0.028
    1UNL    C11   14  -0.431  -0.172  -0.070
    1UNL     O4   15  -0.528  -0.115  -0.159
    1UNL    C12   16  -0.432   0.026   0.069
    1UNL     O5   17  -0.440  -0.048   0.194
    1UNL    C13   18  -0.368   0.164   0.097
    1UNL     O6   19  -0.457   0.257   0.159
    1UNL    C14   20  -0.330   0.225  -0.037
    1UNL     O7   21  -0.438   0.246  -0.124
    1UNL    C15   22   0.193  -0.109  -0.079
    1UNL    C16   23   0.313  -0.140  -0.016
    1UNL     H1   24   0.580  -0.214   0.267
    1UNL     H2   25   0.493  -0.288   0.156
    1UNL     H3   26   0.418  -0.193   0.286
    1UNL     H4   27   0.522   0.018   0.212
    1UNL     H5   28   0.586  -0.182  -0.009
    1UNL     H6   29   0.605  -0.017  -0.050
    1UNL     H7   30   0.789  -0.015   0.076
    1UNL     H8   31   0.339   0.141   0.161
    1UNL     H9   32   0.106   0.186   0.054
    1UNL    H10   33  -0.077  -0.059  -0.096
    1UNL    H11   34   0.001   0.048  -0.220
    1UNL    H12   35  -0.217   0.172  -0.213
    1UNL    H13   36  -0.250  -0.076   0.031
    1UNL    H14   37  -0.477  -0.209   0.021
    1UNL    H15   38  -0.377  -0.244  -0.129
    1UNL    H16   39  -0.478  -0.085  -0.241
    1UNL    H17   40  -0.534   0.035   0.038
    1UNL    H18   41  -0.499   0.003   0.259
    1UNL    H19   42  -0.286   0.160   0.163
    1UNL    H20   43  -0.545   0.254   0.117
    1UNL    H21   44  -0.278   0.320  -0.009
    1UNL    H22   45  -0.478   0.161  -0.151
    1UNL    H23   46   0.142  -0.176  -0.143
    1UNL    H24   47   0.351  -0.240  -0.025
   0.00000   0.00000   0.00000   0.00000   0.00000   0.00000   0.00000   0.00000   0.00000
Generated with MDTraj, t= 31.0
 47
    1UNL     C1    1   0.490  -0.144   0.254
    1UNL     C2    2   0.506  -0.055   0.130
    1UNL     C3    3   0.598  -0.121   0.024
    1UNL     O1    4   0.734  -0.108   0.054
    1UNL     C4    5   0.373  -0.029   0.068
    1UNL     C5    6   0.275   0.067   0.117
    1UNL     C6    7   0.153   0.083   0.062
    1UNL     C7    8   0.109   0.007  -0.042
    1UNL     C8    9  -0.018   0.034  -0.111
    1UNL     O2   10  -0.110   0.113  -0.034
    1UNL     C9   11  -0.224   0.135  -0.118
    1UNL     O3   12  -0.300   0.009  -0.148
    1UNL    C10   13  -0.337  -0.057  -0.032
    1UNL    C11   14  -0.428  -0.175  -0.079
    1UNL     O4   15  -0.523  -0.132  -0.160
    1UNL    C12   16  -0.421   0.027   0.060
    1UNL     O5   17  -0.451  -0.046   0.181
    1UNL    C13   18  -0.363   0.168   0.091
    1UNL     O6   19  -0.444   0.247   0.181
    1UNL    C14   20  -0.324   0.235  -0.045
    1UNL     O7   21  -0.439   0.259  -0.125
    1UNL    C15   22   0.195  -0.096  -0.086
    1UNL    C16   23   0.317  -0.115  -0.029
    1UNL     H1   24   0.590  -0.183   0.276
    1UNL     H2   25   0.442  -0.239   0.231
    1UNL     H3   26   0.452  -0.091   0.336
    1UNL     H4   27   0.544   0.045   0.160
    1UNL     H5   28   0.572  -0.226   0.010
    1UNL     H6   29   0.573  -0.081  -0.073
    1UNL     H7   30   0.756  -0.157   0.136
    1UNL     H8   31   0.304   0.129   0.205
    1UNL     H9   32   0.091   0.169   0.082
    1UNL    H10   33  -0.070  -0.049  -0.148
    1UNL    H11   34  -0.007   0.105  -0.195
    1UNL    H12   35  -0.204   0.180  -0.220
    1UNL    H13   36  -0.245  -0.097   0.008
    1UNL    H14   37  -0.480  -0.211   0.010
    1UNL    H15   38  -0.373  -0.253  -0.133
    1UNL    H16   39  -0.479  -0.077  -0.227
    1UNL    H17   40  -0.519   0.039   0.016
    1UNL    H18   41  -0.477   0.025   0.241
    1UNL    H19   42  -0.271   0.145   0.141
    1UNL    H20   43  -0.419   0.340   0.178
    1UNL    H21   44  -0.279   0.334  -0.030
    1UNL    H22   45  -0.479   0.172  -0.156
    1UNL    H23   46   0.154  -0.161  -0.166
    1UNL    H24   47   0.363  -0.212  -0.050
   0.00000   0.00000   0.00000   0.00000   0.00000   0.00000   0.00000   0.00000   0.00000
Generated with MDTraj, t= 32.0
 47
    1UNL     C1    1   0.506  -0.090   0.268
    1UNL     C2    2   0.502  -0.061   0.119
    1UNL     C3    3   0.601  -0.133   0.028
    1UNL     O1    4   0.733  -0.122   0.075
    1UNL     C4    5   0.354  -0.044   0.071
    1UNL     C5    6   0.265   0.049   0.117
    1UNL     C6    7   0.147   0.067   0.049
    1UNL     C7    8   0.103  -0.008  -0.060
    1UNL     C8    9  -0.025   0.024  -0.132
    1UNL     O2   10  -0.102   0.117  -0.052
    1UNL     C9   11  -0.226   0.145  -0.108
    1UNL     O3   12  -0.297   0.025  -0.137
    1UNL    C10   13  -0.328  -0.052  -0.024
    1UNL    C11   14  -0.402  -0.192  -0.083
    1UNL     O4   15  -0.512  -0.169  -0.171
    1UNL    C12   16  -0.424   0.033   0.058
    1UNL     O5   17  -0.470  -0.034   0.176
    1UNL    C13   18  -0.362   0.168   0.101
    1UNL     O6   19  -0.454   0.237   0.181
    1UNL    C14   20  -0.320   0.249  -0.027
    1UNL     O7   21  -0.436   0.296  -0.088
    1UNL    C15   22   0.194  -0.102  -0.110
    1UNL    C16   23   0.314  -0.119  -0.046
    1UNL     H1   24   0.607  -0.054   0.295
    1UNL     H2   25   0.509  -0.195   0.278
    1UNL     H3   26   0.435  -0.030   0.318
    1UNL     H4   27   0.540   0.043   0.106
    1UNL     H5   28   0.574  -0.240   0.019
    1UNL     H6   29   0.599  -0.105  -0.078
    1UNL     H7   30   0.737  -0.110   0.174
    1UNL     H8   31   0.303   0.118   0.188
    1UNL     H9   32   0.082   0.149   0.075
    1UNL    H10   33  -0.090  -0.056  -0.138
    1UNL    H11   34  -0.011   0.059  -0.233
    1UNL    H12   35  -0.212   0.203  -0.206
    1UNL    H13   36  -0.230  -0.073   0.018
    1UNL    H14   37  -0.444  -0.258  -0.005
    1UNL    H15   38  -0.325  -0.250  -0.139
    1UNL    H16   39  -0.492  -0.087  -0.222
    1UNL    H17   40  -0.514   0.051  -0.002
    1UNL    H18   41  -0.488   0.036   0.240
    1UNL    H19   42  -0.275   0.156   0.167
    1UNL    H20   43  -0.477   0.322   0.135
    1UNL    H21   44  -0.256   0.333   0.001
    1UNL    H22   45  -0.459   0.233  -0.161
    1UNL    H23   46   0.158  -0.166  -0.187
    1UNL    H24   47   0.390  -0.185  -0.077
   0.00000   0.00000   0.00000   0.00000   0.00000   0.00000   0.00000   0.00000   0.00000
Generated with MDTraj, t= 33.0
 47
    1UNL     C1    1   0.481  -0.069   0.257
    1UNL     C2    2   0.491  -0.043   0.108
    1UNL     C3    3   0.589  -0.143   0.045
    1UNL     O1    4   0.726  -0.138   0.091
    1UNL     C4    5   0.353  -0.041   0.045
    1UNL     C5    6   0.265   0.061   0.095
    1UNL     C6    7   0.138   0.069   0.042
    1UNL     C7    8   0.102  -0.013  -0.069
    1UNL     C8    9  -0.034   0.011  -0.126
    1UNL     O2   10  -0.099   0.111  -0.048
    1UNL     C9   11  -0.222   0.144  -0.098
    1UNL     O3   12  -0.287   0.024  -0.137
    1UNL    C10   13  -0.329  -0.049  -0.024
    1UNL    C11   14  -0.378  -0.188  -0.071
    1UNL     O4   15  -0.482  -0.176  -0.164
    1UNL    C12   16  -0.422   0.026   0.065
    1UNL     O5   17  -0.482  -0.048   0.172
    1UNL    C13   18  -0.364   0.166   0.116
    1UNL     O6   19  -0.479   0.246   0.167
    1UNL    C14   20  -0.309   0.242  -0.013
    1UNL     O7   21  -0.407   0.317  -0.077
    1UNL    C15   22   0.194  -0.106  -0.116
    1UNL    C16   23   0.319  -0.111  -0.070
    1UNL     H1   24   0.576  -0.115   0.290
    1UNL     H2   25   0.414  -0.147   0.269
    1UNL     H3   26   0.465   0.018   0.319
    1UNL     H4   27   0.530   0.055   0.072
    1UNL     H5   28   0.551  -0.248   0.059
    1UNL     H6   29   0.589  -0.140  -0.066
    1UNL     H7   30   0.732  -0.134   0.191
    1UNL     H8   31   0.298   0.142   0.161
    1UNL     H9   32   0.073   0.152   0.066
    1UNL    H10   33  -0.084  -0.080  -0.132
    1UNL    H11   34  -0.024   0.051  -0.225
    1UNL    H12   35  -0.199   0.199  -0.198
    1UNL    H13   36  -0.238  -0.058   0.037
    1UNL    H14   37  -0.408  -0.252   0.016
    1UNL    H15   38  -0.305  -0.246  -0.134
    1UNL    H16   39  -0.475  -0.090  -0.211
    1UNL    H17   40  -0.513   0.041   0.000
    1UNL    H18   41  -0.543   0.010   0.225
    1UNL    H19   42  -0.296   0.166   0.207
    1UNL    H20   43  -0.465   0.344   0.148
    1UNL    H21   44  -0.236   0.310   0.030
    1UNL    H22   45  -0.467   0.258  -0.125
    1UNL    H23   46   0.164  -0.176  -0.194
    1UNL    H24   47   0.391  -0.186  -0.115
   0.00000   0.00000   0.00000   0.00000   0.00000   0.00000   0.00000   0.00000   0.00000
Generated with MDTraj, t= 34.0
 47
    1UNL     C1    1   0.486  -0.091   0.259
    1UNL     C2    2   0.508  -0.050   0.113
    1UNL     C3    3   0.588  -0.158   0.047
    1UNL     O1    4   0.723  -0.168   0.096
    1UNL     C4    5   0.379  -0.024   0.035
    1UNL     C5    6   0.292   0.077   0.085
    1UNL     C6    7   0.165   0.099   0.028
    1UNL     C7    8   0.115   0.019  -0.072
    1UNL     C8    9  -0.028   0.042  -0.131
    1UNL     O2   10  -0.112   0.109  -0.038
    1UNL     C9   11  -0.233   0.139  -0.106
    1UNL     O3   12  -0.307   0.015  -0.144
    1UNL    C10   13  -0.342  -0.055  -0.023
    1UNL    C11   14  -0.400  -0.197  -0.055
    1UNL     O4   15  -0.479  -0.183  -0.174
    1UNL    C12   16  -0.440   0.028   0.068
    1UNL     O5   17  -0.480  -0.055   0.174
    1UNL    C13   18  -0.381   0.167   0.115
    1UNL     O6   19  -0.475   0.248   0.186
    1UNL    C14   20  -0.320   0.236  -0.011
    1UNL     O7   21  -0.404   0.303  -0.100
    1UNL    C15   22   0.194  -0.084  -0.106
    1UNL    C16   23   0.329  -0.103  -0.060
    1UNL     H1   24   0.569  -0.085   0.327
    1UNL     H2   25   0.464  -0.194   0.257
    1UNL     H3   26   0.405  -0.042   0.312
    1UNL     H4   27   0.569   0.041   0.095
    1UNL     H5   28   0.541  -0.259   0.068
    1UNL     H6   29   0.594  -0.155  -0.065
    1UNL     H7   30   0.746  -0.101   0.164
    1UNL     H8   31   0.335   0.149   0.156
    1UNL     H9   32   0.100   0.178   0.062
    1UNL    H10   33  -0.071  -0.049  -0.153
    1UNL    H11   34  -0.015   0.095  -0.225
    1UNL    H12   35  -0.210   0.198  -0.204
    1UNL    H13   36  -0.243  -0.053   0.027
    1UNL    H14   37  -0.481  -0.234   0.012
    1UNL    H15   38  -0.324  -0.275  -0.066
    1UNL    H16   39  -0.446  -0.105  -0.224
    1UNL    H17   40  -0.536   0.046   0.012
    1UNL    H18   41  -0.539   0.000   0.236
    1UNL    H19   42  -0.293   0.144   0.186
    1UNL    H20   43  -0.510   0.313   0.121
    1UNL    H21   44  -0.249   0.310   0.028
    1UNL    H22   45  -0.452   0.254  -0.168
    1UNL    H23   46   0.145  -0.157  -0.164
    1UNL    H24   47   0.383  -0.186  -0.078
   0.00000   0.00000   0.00000   0.00000   0.00000   0.00000   0.00000   0.00000   0.00000
Generated with MDTraj, t= 35.0
 47
    1UNL     C1    1   0.487  -0.119   0.253
    1UNL     C2    2   0.512  -0.061   0.115
    1UNL     C3    3   0.597  -0.151   0.037
    1UNL     O1    4   0.715  -0.185   0.104
    1UNL     C4    5   0.377  -0.017   0.043
    1UNL     C5    6   0.310   0.099   0.076
    1UNL     C6    7   0.188   0.126   0.018
    1UNL     C7    8   0.118   0.036  -0.062
    1UNL     C8    9  -0.006   0.069  -0.129
    1UNL     O2   10  -0.102   0.139  -0.046
    1UNL     C9   11  -0.229   0.133  -0.103
    1UNL     O3   12  -0.294   0.009  -0.124
    1UNL    C10   13  -0.338  -0.064  -0.012
    1UNL    C11   14  -0.409  -0.188  -0.065
    1UNL     O4   15  -0.493  -0.149  -0.164
    1UNL    C12   16  -0.435   0.026   0.064
    1UNL     O5   17  -0.491  -0.038   0.174
    1UNL    C13   18  -0.378   0.160   0.107
    1UNL     O6   19  -0.473   0.233   0.189
    1UNL    C14   20  -0.329   0.225  -0.023
    1UNL     O7   21  -0.441   0.239  -0.117
    1UNL    C15   22   0.187  -0.082  -0.092
    1UNL    C16   23   0.311  -0.108  -0.037
    1UNL     H1   24   0.571  -0.162   0.295
    1UNL     H2   25   0.420  -0.201   0.229
    1UNL     H3   26   0.438  -0.052   0.324
    1UNL     H4   27   0.565   0.034   0.137
    1UNL     H5   28   0.543  -0.248   0.018
    1UNL     H6   29   0.618  -0.105  -0.062
    1UNL     H7   30   0.786  -0.170   0.041
    1UNL     H8   31   0.347   0.175   0.137
    1UNL     H9   32   0.153   0.228   0.030
    1UNL    H10   33  -0.051  -0.012  -0.180
    1UNL    H11   34   0.019   0.136  -0.214
    1UNL    H12   35  -0.224   0.185  -0.207
    1UNL    H13   36  -0.252  -0.087   0.057
    1UNL    H14   37  -0.461  -0.240   0.015
    1UNL    H15   38  -0.350  -0.260  -0.121
    1UNL    H16   39  -0.441  -0.086  -0.221
    1UNL    H17   40  -0.523   0.051  -0.004
    1UNL    H18   41  -0.535   0.029   0.227
    1UNL    H19   42  -0.286   0.137   0.173
    1UNL    H20   43  -0.537   0.276   0.132
    1UNL    H21   44  -0.271   0.318  -0.004
    1UNL    H22   45  -0.441   0.164  -0.184
    1UNL    H23   46   0.141  -0.170  -0.142
    1UNL    H24   47   0.353  -0.213  -0.044
   0.00000   0.00000   0.00000   0.00000   0.00000   0.00000   0.00000   0.00000   0.00000
Generated with MDTraj, t= 36.0
 47
    1UNL     C1    1   0.478  -0.144   0.260
    1UNL     C2    2   0.494  -0.067   0.120
    1UNL     C3    3   0.593  -0.141   0.025
    1UNL     O1    4   0.714  -0.167   0.088
    1UNL     C4    5   0.365  -0.025   0.056
    1UNL     C5    6   0.321   0.104   0.061
    1UNL     C6    7   0.193   0.140   0.010
    1UNL     C7    8   0.117   0.039  -0.039
    1UNL     C8    9  -0.007   0.070  -0.115
    1UNL     O2   10  -0.105   0.136  -0.038
    1UNL     C9   11  -0.226   0.144  -0.113
    1UNL     O3   12  -0.291   0.018  -0.139
    1UNL    C10   13  -0.323  -0.062  -0.026
    1UNL    C11   14  -0.391  -0.189  -0.083
    1UNL     O4   15  -0.514  -0.160  -0.154
    1UNL    C12   16  -0.421   0.018   0.065
    1UNL     O5   17  -0.441  -0.042   0.191
    1UNL    C13   18  -0.366   0.162   0.099
    1UNL     O6   19  -0.480   0.231   0.160
    1UNL    C14   20  -0.330   0.228  -0.031
    1UNL     O7   21  -0.455   0.249  -0.106
    1UNL    C15   22   0.168  -0.086  -0.065
    1UNL    C16   23   0.288  -0.120  -0.015
    1UNL     H1   24   0.566  -0.184   0.297
    1UNL     H2   25   0.417  -0.229   0.227
    1UNL     H3   26   0.426  -0.087   0.334
    1UNL     H4   27   0.532   0.030   0.159
    1UNL     H5   28   0.546  -0.240  -0.000
    1UNL     H6   29   0.608  -0.082  -0.067
    1UNL     H7   30   0.754  -0.253   0.057
    1UNL     H8   31   0.388   0.179   0.113
    1UNL     H9   32   0.157   0.240  -0.010
    1UNL    H10   33  -0.062  -0.016  -0.155
    1UNL    H11   34   0.014   0.129  -0.209
    1UNL    H12   35  -0.218   0.204  -0.209
    1UNL    H13   36  -0.229  -0.092   0.029
    1UNL    H14   37  -0.418  -0.268  -0.014
    1UNL    H15   38  -0.317  -0.234  -0.148
    1UNL    H16   39  -0.499  -0.077  -0.200
    1UNL    H17   40  -0.519   0.022   0.011
    1UNL    H18   41  -0.478   0.017   0.258
    1UNL    H19   42  -0.283   0.157   0.182
    1UNL    H20   43  -0.540   0.273   0.091
    1UNL    H21   44  -0.287   0.325   0.008
    1UNL    H22   45  -0.454   0.177  -0.175
    1UNL    H23   46   0.112  -0.160  -0.117
    1UNL    H24   47   0.320  -0.223  -0.007
   0.00000   0.00000   0.00000   0.00000   0.00000   0.00000   0.00000   0.00000   0.00000
Generated with MDTraj, t= 37.0
 47
    1UNL     C1    1   0.485  -0.155   0.268
    1UNL     C2    2   0.482  -0.067   0.141
    1UNL     C3    3   0.574  -0.114   0.029
    1UNL     O1    4   0.703  -0.148   0.074
    1UNL     C4    5   0.349  -0.044   0.068
    1UNL     C5    6   0.307   0.084   0.049
    1UNL     C6    7   0.184   0.125  -0.003
    1UNL     C7    8   0.099   0.027  -0.058
    1UNL     C8    9  -0.028   0.055  -0.128
    1UNL     O2   10  -0.113   0.139  -0.058
    1UNL     C9   11  -0.232   0.168  -0.128
    1UNL     O3   12  -0.293   0.037  -0.160
    1UNL    C10   13  -0.316  -0.044  -0.041
    1UNL    C11   14  -0.358  -0.187  -0.078
    1UNL     O4   15  -0.478  -0.177  -0.153
    1UNL    C12   16  -0.407   0.012   0.077
    1UNL     O5   17  -0.388  -0.063   0.194
    1UNL    C13   18  -0.365   0.164   0.100
    1UNL     O6   19  -0.470   0.232   0.160
    1UNL    C14   20  -0.333   0.238  -0.031
    1UNL     O7   21  -0.450   0.283  -0.094
    1UNL    C15   22   0.141  -0.109  -0.039
    1UNL    C16   23   0.263  -0.142   0.018
    1UNL     H1   24   0.570  -0.159   0.333
    1UNL     H2   25   0.471  -0.256   0.228
    1UNL     H3   26   0.401  -0.133   0.325
    1UNL     H4   27   0.526   0.027   0.177
    1UNL     H5   28   0.534  -0.210  -0.009
    1UNL     H6   29   0.577  -0.040  -0.051
    1UNL     H7   30   0.780  -0.113   0.019
    1UNL     H8   31   0.375   0.160   0.073
    1UNL     H9   32   0.152   0.228   0.006
    1UNL    H10   33  -0.076  -0.043  -0.150
    1UNL    H11   34  -0.001   0.106  -0.227
    1UNL    H12   35  -0.219   0.224  -0.222
    1UNL    H13   36  -0.221  -0.057   0.017
    1UNL    H14   37  -0.373  -0.241   0.016
    1UNL    H15   38  -0.288  -0.246  -0.134
    1UNL    H16   39  -0.483  -0.082  -0.185
    1UNL    H17   40  -0.513   0.018   0.046
    1UNL    H18   41  -0.452  -0.025   0.262
    1UNL    H19   42  -0.268   0.172   0.162
    1UNL    H20   43  -0.523   0.279   0.089
    1UNL    H21   44  -0.277   0.329   0.007
    1UNL    H22   45  -0.483   0.213  -0.152
    1UNL    H23   46   0.068  -0.188  -0.062
    1UNL    H24   47   0.271  -0.245   0.042
   0.00000   0.00000   0.00000   0.00000   0.00000   0.00000   0.00000   0.00000   0.00000
Generated with MDTraj, t= 38.0
 47
    1UNL     C1    1   0.457  -0.182   0.250
    1UNL     C2    2   0.451  -0.079   0.142
    1UNL     C3    3   0.556  -0.100   0.025
    1UNL     O1    4   0.695  -0.104   0.075
    1UNL     C4    5   0.315  -0.042   0.085
    1UNL     C5    6   0.291   0.090   0.039
    1UNL     C6    7   0.178   0.125  -0.024
    1UNL     C7    8   0.095   0.020  -0.061
    1UNL     C8    9  -0.021   0.060  -0.149
    1UNL     O2   10  -0.099   0.149  -0.081
    1UNL     C9   11  -0.225   0.164  -0.131
    1UNL     O3   12  -0.291   0.036  -0.154
    1UNL    C10   13  -0.299  -0.040  -0.034
    1UNL    C11   14  -0.340  -0.185  -0.056
    1UNL     O4   15  -0.441  -0.175  -0.152
    1UNL    C12   16  -0.397   0.019   0.070
    1UNL     O5   17  -0.413  -0.065   0.180
    1UNL    C13   18  -0.338   0.160   0.109
    1UNL     O6   19  -0.423   0.229   0.190
    1UNL    C14   20  -0.316   0.234  -0.030
    1UNL     O7   21  -0.440   0.261  -0.092
    1UNL    C15   22   0.111  -0.113  -0.030
    1UNL    C16   23   0.226  -0.142   0.045
    1UNL     H1   24   0.554  -0.213   0.292
    1UNL     H2   25   0.419  -0.273   0.209
    1UNL     H3   26   0.394  -0.157   0.327
    1UNL     H4   27   0.502   0.006   0.189
    1UNL     H5   28   0.537  -0.192  -0.028
    1UNL     H6   29   0.547  -0.019  -0.044
    1UNL     H7   30   0.739  -0.185   0.046
    1UNL     H8   31   0.379   0.154   0.049
    1UNL     H9   32   0.164   0.229  -0.049
    1UNL    H10   33  -0.074  -0.035  -0.175
    1UNL    H11   34   0.031   0.107  -0.242
    1UNL    H12   35  -0.219   0.205  -0.230
    1UNL    H13   36  -0.204  -0.038   0.023
    1UNL    H14   37  -0.383  -0.234   0.035
    1UNL    H15   38  -0.256  -0.245  -0.093
    1UNL    H16   39  -0.458  -0.080  -0.175
    1UNL    H17   40  -0.497   0.030   0.028
    1UNL    H18   41  -0.468  -0.023   0.251
    1UNL    H19   42  -0.241   0.145   0.164
    1UNL    H20   43  -0.501   0.252   0.141
    1UNL    H21   44  -0.273   0.336  -0.009
    1UNL    H22   45  -0.467   0.197  -0.162
    1UNL    H23   46   0.035  -0.183  -0.052
    1UNL    H24   47   0.259  -0.250   0.048
   0.00000   0.00000   0.00000   0.00000   0.00000   0.00000   0.00000   0.00000   0.00000
Generated with MDTraj, t= 39.0
 47
    1UNL     C1    1   0.428  -0.214   0.231
    1UNL     C2    2   0.446  -0.086   0.150
    1UNL     C3    3   0.560  -0.102   0.043
    1UNL     O1    4   0.692  -0.105   0.106
    1UNL     C4    5   0.321  -0.044   0.077
    1UNL     C5    6   0.311   0.085   0.031
    1UNL     C6    7   0.201   0.127  -0.040
    1UNL     C7    8   0.110   0.032  -0.091
    1UNL     C8    9  -0.015   0.086  -0.161
    1UNL     O2   10  -0.109   0.160  -0.089
    1UNL     C9   11  -0.240   0.158  -0.139
    1UNL     O3   12  -0.301   0.024  -0.148
    1UNL    C10   13  -0.303  -0.048  -0.021
    1UNL    C11   14  -0.340  -0.196  -0.052
    1UNL     O4   15  -0.438  -0.205  -0.154
    1UNL    C12   16  -0.400   0.023   0.070
    1UNL     O5   17  -0.400  -0.038   0.196
    1UNL    C13   18  -0.332   0.162   0.102
    1UNL     O6   19  -0.414   0.217   0.196
    1UNL    C14   20  -0.324   0.239  -0.032
    1UNL     O7   21  -0.451   0.263  -0.083
    1UNL    C15   22   0.115  -0.093  -0.037
    1UNL    C16   23   0.223  -0.130   0.038
    1UNL     H1   24   0.524  -0.250   0.271
    1UNL     H2   25   0.398  -0.288   0.165
    1UNL     H3   26   0.356  -0.204   0.307
    1UNL     H4   27   0.468  -0.005   0.220
    1UNL     H5   28   0.546  -0.201   0.000
    1UNL     H6   29   0.555  -0.031  -0.037
    1UNL     H7   30   0.740  -0.029   0.070
    1UNL     H8   31   0.388   0.159   0.062
    1UNL     H9   32   0.167   0.227  -0.068
    1UNL    H10   33  -0.060  -0.010  -0.198
    1UNL    H11   34   0.013   0.151  -0.253
    1UNL    H12   35  -0.239   0.217  -0.226
    1UNL    H13   36  -0.201  -0.033   0.016
    1UNL    H14   37  -0.366  -0.257   0.039
    1UNL    H15   38  -0.253  -0.244  -0.102
    1UNL    H16   39  -0.460  -0.119  -0.193
    1UNL    H17   40  -0.497   0.034   0.024
    1UNL    H18   41  -0.406   0.020   0.272
    1UNL    H19   42  -0.235   0.149   0.153
    1UNL    H20   43  -0.506   0.233   0.160
    1UNL    H21   44  -0.274   0.338  -0.016
    1UNL    H22   45  -0.468   0.174  -0.126
    1UNL    H23   46   0.030  -0.164  -0.046
    1UNL    H24   47   0.216  -0.228   0.063
   0.00000   0.00000   0.00000   0.00000   0.00000   0.00000   0.00000   0.00000   0.00000
Generated with MDTraj, t= 40.0
 47
    1UNL     C1    1   0.414  -0.216   0.213
    1UNL     C2    2   0.440  -0.085   0.140
    1UNL     C3    3   0.577  -0.089   0.068
    1UNL     O1    4   0.683  -0.133   0.147
    1UNL     C4    5   0.322  -0.044   0.051
    1UNL     C5    6   0.318   0.091   0.003
    1UNL     C6    7   0.208   0.131  -0.068
    1UNL     C7    8   0.105   0.041  -0.093
    1UNL     C8    9  -0.020   0.094  -0.156
    1UNL     O2   10  -0.104   0.165  -0.070
    1UNL     C9   11  -0.233   0.164  -0.123
    1UNL     O3   12  -0.282   0.029  -0.142
    1UNL    C10   13  -0.283  -0.056  -0.028
    1UNL    C11   14  -0.334  -0.196  -0.062
    1UNL     O4   15  -0.458  -0.194  -0.119
    1UNL    C12   16  -0.377   0.012   0.076
    1UNL     O5   17  -0.364  -0.040   0.210
    1UNL    C13   18  -0.350   0.168   0.102
    1UNL     O6   19  -0.453   0.227   0.178
    1UNL    C14   20  -0.336   0.236  -0.032
    1UNL     O7   21  -0.463   0.250  -0.086
    1UNL    C15   22   0.116  -0.096  -0.062
    1UNL    C16   23   0.227  -0.142   0.008
    1UNL     H1   24   0.492  -0.238   0.287
    1UNL     H2   25   0.413  -0.289   0.141
    1UNL     H3   26   0.316  -0.207   0.257
    1UNL     H4   27   0.439  -0.014   0.223
    1UNL     H5   28   0.578  -0.157  -0.017
    1UNL     H6   29   0.602   0.008   0.028
    1UNL     H7   30   0.679  -0.090   0.238
    1UNL     H8   31   0.401   0.154   0.008
    1UNL     H9   32   0.192   0.234  -0.081
    1UNL    H10   33  -0.084   0.015  -0.205
    1UNL    H11   34   0.024   0.159  -0.239
    1UNL    H12   35  -0.225   0.226  -0.208
    1UNL    H13   36  -0.179  -0.052   0.001
    1UNL    H14   37  -0.348  -0.247   0.038
    1UNL    H15   38  -0.273  -0.264  -0.124
    1UNL    H16   39  -0.470  -0.101  -0.159
    1UNL    H17   40  -0.478  -0.000   0.042
    1UNL    H18   41  -0.389   0.028   0.279
    1UNL    H19   42  -0.260   0.173   0.161
    1UNL    H20   43  -0.532   0.242   0.117
    1UNL    H21   44  -0.308   0.341  -0.014
    1UNL    H22   45  -0.513   0.170  -0.113
    1UNL    H23   46   0.043  -0.167  -0.089
    1UNL    H24   47   0.252  -0.249   0.032
   0.00000   0.00000   0.00000   0.00000   0.00000   0.00000   0.00000   0.00000   0.00000
Generated with MDTraj, t= 41.0
 47
    1UNL     C1    1   0.406  -0.224   0.203
    1UNL     C2    2   0.437  -0.091   0.139
    1UNL     C3    3   0.580  -0.101   0.077
    1UNL     O1    4   0.674  -0.141   0.173
    1UNL     C4    5   0.327  -0.042   0.045
    1UNL     C5    6   0.312   0.088   0.011
    1UNL     C6    7   0.204   0.130  -0.064
    1UNL     C7    8   0.108   0.052  -0.116
    1UNL     C8    9  -0.020   0.106  -0.174
    1UNL     O2   10  -0.107   0.171  -0.079
    1UNL     C9   11  -0.238   0.160  -0.128
    1UNL     O3   12  -0.277   0.024  -0.146
    1UNL    C10   13  -0.274  -0.041  -0.022
    1UNL    C11   14  -0.328  -0.186  -0.043
    1UNL     O4   15  -0.462  -0.192  -0.094
    1UNL    C12   16  -0.367   0.019   0.085
    1UNL     O5   17  -0.344  -0.065   0.204
    1UNL    C13   18  -0.348   0.175   0.112
    1UNL     O6   19  -0.466   0.232   0.172
    1UNL    C14   20  -0.343   0.231  -0.035
    1UNL     O7   21  -0.475   0.236  -0.088
    1UNL    C15   22   0.128  -0.084  -0.079
    1UNL    C16   23   0.235  -0.128  -0.006
    1UNL     H1   24   0.480  -0.243   0.277
    1UNL     H2   25   0.413  -0.303   0.132
    1UNL     H3   26   0.307  -0.231   0.245
    1UNL     H4   27   0.437  -0.021   0.222
    1UNL     H5   28   0.585  -0.175  -0.006
    1UNL     H6   29   0.615  -0.006   0.034
    1UNL     H7   30   0.664  -0.115   0.269
    1UNL     H8   31   0.370   0.173   0.058
    1UNL     H9   32   0.179   0.236  -0.087
    1UNL    H10   33  -0.072   0.029  -0.231
    1UNL    H11   34  -0.007   0.190  -0.246
    1UNL    H12   35  -0.229   0.208  -0.222
    1UNL    H13   36  -0.173  -0.033   0.019
    1UNL    H14   37  -0.332  -0.255   0.044
    1UNL    H15   38  -0.263  -0.233  -0.117
    1UNL    H16   39  -0.473  -0.112  -0.150
    1UNL    H17   40  -0.472   0.013   0.061
    1UNL    H18   41  -0.378  -0.022   0.290
    1UNL    H19   42  -0.262   0.199   0.171
    1UNL    H20   43  -0.505   0.283   0.102
    1UNL    H21   44  -0.306   0.332  -0.026
    1UNL    H22   45  -0.533   0.155  -0.087
    1UNL    H23   46   0.055  -0.156  -0.120
    1UNL    H24   47   0.248  -0.231   0.022
   0.00000   0.00000   0.00000   0.00000   0.00000   0.00000   0.00000   0.00000   0.00000
Generated with MDTraj, t= 42.0
 47
    1UNL     C1    1   0.390  -0.232   0.207
    1UNL     C2    2   0.421  -0.099   0.142
    1UNL     C3    3   0.552  -0.119   0.066
    1UNL     O1    4   0.668  -0.121   0.150
    1UNL     C4    5   0.307  -0.042   0.062
    1UNL     C5    6   0.280   0.097   0.052
    1UNL     C6    7   0.185   0.145  -0.039
    1UNL     C7    8   0.103   0.058  -0.108
    1UNL     C8    9  -0.011   0.121  -0.190
    1UNL     O2   10  -0.107   0.161  -0.090
    1UNL     C9   11  -0.237   0.152  -0.137
    1UNL     O3   12  -0.275   0.017  -0.140
    1UNL    C10   13  -0.275  -0.053  -0.015
    1UNL    C11   14  -0.312  -0.204  -0.030
    1UNL     O4   15  -0.428  -0.213  -0.106
    1UNL    C12   16  -0.365   0.018   0.085
    1UNL     O5   17  -0.355  -0.058   0.210
    1UNL    C13   18  -0.333   0.175   0.100
    1UNL     O6   19  -0.411   0.244   0.198
    1UNL    C14   20  -0.339   0.236  -0.045
    1UNL     O7   21  -0.471   0.256  -0.103
    1UNL    C15   22   0.127  -0.079  -0.100
    1UNL    C16   23   0.220  -0.124  -0.014
    1UNL     H1   24   0.458  -0.261   0.278
    1UNL     H2   25   0.382  -0.321   0.143
    1UNL     H3   26   0.292  -0.235   0.252
    1UNL     H4   27   0.433  -0.025   0.221
    1UNL     H5   28   0.542  -0.211   0.003
    1UNL     H6   29   0.556  -0.036  -0.009
    1UNL     H7   30   0.655  -0.055   0.218
    1UNL     H8   31   0.323   0.166   0.117
    1UNL     H9   32   0.171   0.248  -0.052
    1UNL    H10   33  -0.071   0.049  -0.243
    1UNL    H11   34   0.020   0.199  -0.258
    1UNL    H12   35  -0.238   0.193  -0.238
    1UNL    H13   36  -0.175  -0.060   0.032
    1UNL    H14   37  -0.323  -0.258   0.065
    1UNL    H15   38  -0.242  -0.266  -0.084
    1UNL    H16   39  -0.437  -0.134  -0.159
    1UNL    H17   40  -0.468   0.004   0.054
    1UNL    H18   41  -0.331  -0.003   0.286
    1UNL    H19   42  -0.234   0.185   0.136
    1UNL    H20   43  -0.504   0.216   0.186
    1UNL    H21   44  -0.300   0.334  -0.031
    1UNL    H22   45  -0.518   0.169  -0.120
    1UNL    H23   46   0.077  -0.158  -0.151
    1UNL    H24   47   0.246  -0.226  -0.009
   0.00000   0.00000   0.00000   0.00000   0.00000   0.00000   0.00000   0.00000   0.00000
Generated with MDTraj, t= 43.0
 47
    1UNL     C1    1   0.389  -0.224   0.224
    1UNL     C2    2   0.411  -0.086   0.151
    1UNL     C3    3   0.531  -0.102   0.057
    1UNL     O1    4   0.652  -0.139   0.122
    1UNL     C4    5   0.296  -0.041   0.062
    1UNL     C5    6   0.240   0.084   0.078
    1UNL     C6    7   0.146   0.128  -0.014
    1UNL     C7    8   0.085   0.036  -0.107
    1UNL     C8    9  -0.025   0.091  -0.189
    1UNL     O2   10  -0.098   0.198  -0.118
    1UNL     C9   11  -0.236   0.168  -0.138
    1UNL     O3   12  -0.268   0.031  -0.137
    1UNL    C10   13  -0.255  -0.042  -0.012
    1UNL    C11   14  -0.277  -0.193  -0.038
    1UNL     O4   15  -0.394  -0.218  -0.120
    1UNL    C12   16  -0.351   0.027   0.089
    1UNL     O5   17  -0.355  -0.042   0.214
    1UNL    C13   18  -0.327   0.179   0.102
    1UNL     O6   19  -0.400   0.250   0.197
    1UNL    C14   20  -0.342   0.238  -0.037
    1UNL     O7   21  -0.475   0.219  -0.090
    1UNL    C15   22   0.135  -0.096  -0.109
    1UNL    C16   23   0.239  -0.135  -0.019
    1UNL     H1   24   0.472  -0.250   0.280
    1UNL     H2   25   0.371  -0.310   0.157
    1UNL     H3   26   0.302  -0.232   0.285
    1UNL     H4   27   0.447  -0.020   0.229
    1UNL     H5   28   0.507  -0.180  -0.021
    1UNL     H6   29   0.546  -0.009  -0.004
    1UNL     H7   30   0.661  -0.089   0.206
    1UNL     H8   31   0.265   0.145   0.169
    1UNL     H9   32   0.098   0.226  -0.008
    1UNL    H10   33  -0.086   0.028  -0.247
    1UNL    H11   34   0.025   0.153  -0.260
    1UNL    H12   35  -0.264   0.201  -0.240
    1UNL    H13   36  -0.146  -0.035   0.013
    1UNL    H14   37  -0.296  -0.252   0.051
    1UNL    H15   38  -0.190  -0.240  -0.079
    1UNL    H16   39  -0.422  -0.131  -0.165
    1UNL    H17   40  -0.451   0.017   0.044
    1UNL    H18   41  -0.337   0.020   0.284
    1UNL    H19   42  -0.229   0.194   0.136
    1UNL    H20   43  -0.501   0.233   0.197
    1UNL    H21   44  -0.326   0.341  -0.029
    1UNL    H22   45  -0.475   0.129  -0.125
    1UNL    H23   46   0.103  -0.157  -0.192
    1UNL    H24   47   0.279  -0.241  -0.012
   0.00000   0.00000   0.00000   0.00000   0.00000   0.00000   0.00000   0.00000   0.00000
Generated with MDTraj, t= 44.0
 47
    1UNL     C1    1   0.385  -0.216   0.227
    1UNL     C2    2   0.415  -0.087   0.146
    1UNL     C3    3   0.532  -0.115   0.055
    1UNL     O1    4   0.646  -0.157   0.121
    1UNL     C4    5   0.297  -0.050   0.072
    1UNL     C5    6   0.218   0.066   0.099
    1UNL     C6    7   0.112   0.105   0.022
    1UNL     C7    8   0.069   0.031  -0.088
    1UNL     C8    9  -0.020   0.107  -0.185
    1UNL     O2   10  -0.117   0.200  -0.120
    1UNL     C9   11  -0.257   0.168  -0.151
    1UNL     O3   12  -0.278   0.028  -0.149
    1UNL    C10   13  -0.244  -0.038  -0.024
    1UNL    C11   14  -0.262  -0.189  -0.039
    1UNL     O4   15  -0.383  -0.243  -0.093
    1UNL    C12   16  -0.325   0.025   0.087
    1UNL     O5   17  -0.290  -0.029   0.212
    1UNL    C13   18  -0.325   0.183   0.093
    1UNL     O6   19  -0.430   0.237   0.169
    1UNL    C14   20  -0.343   0.246  -0.049
    1UNL     O7   21  -0.484   0.252  -0.074
    1UNL    C15   22   0.141  -0.080  -0.115
    1UNL    C16   23   0.252  -0.119  -0.041
    1UNL     H1   24   0.477  -0.245   0.273
    1UNL     H2   25   0.341  -0.297   0.168
    1UNL     H3   26   0.311  -0.200   0.300
    1UNL     H4   27   0.456  -0.015   0.215
    1UNL     H5   28   0.516  -0.200  -0.016
    1UNL     H6   29   0.563  -0.028  -0.007
    1UNL     H7   30   0.668  -0.096   0.200
    1UNL     H8   31   0.240   0.118   0.189
    1UNL     H9   32   0.064   0.196   0.056
    1UNL    H10   33  -0.084   0.035  -0.226
    1UNL    H11   34   0.026   0.150  -0.271
    1UNL    H12   35  -0.291   0.188  -0.259
    1UNL    H13   36  -0.137  -0.018   0.000
    1UNL    H14   37  -0.245  -0.227   0.063
    1UNL    H15   38  -0.183  -0.236  -0.097
    1UNL    H16   39  -0.415  -0.186  -0.162
    1UNL    H17   40  -0.432  -0.000   0.067
    1UNL    H18   41  -0.251   0.044   0.264
    1UNL    H19   42  -0.235   0.216   0.137
    1UNL    H20   43  -0.501   0.282   0.119
    1UNL    H21   44  -0.306   0.345  -0.049
    1UNL    H22   45  -0.517   0.163  -0.089
    1UNL    H23   46   0.128  -0.137  -0.207
    1UNL    H24   47   0.300  -0.201  -0.080
   0.00000   0.00000   0.00000   0.00000   0.00000   0.00000   0.00000   0.00000   0.00000
Generated with MDTraj, t= 45.0
 47
    1UNL     C1    1   0.362  -0.228   0.232
    1UNL     C2    2   0.400  -0.109   0.143
    1UNL     C3    3   0.521  -0.140   0.061
    1UNL     O1    4   0.637  -0.152   0.137
    1UNL     C4    5   0.281  -0.058   0.060
    1UNL     C5    6   0.216   0.057   0.102
    1UNL     C6    7   0.107   0.108   0.025
    1UNL     C7    8   0.096   0.061  -0.106
    1UNL     C8    9  -0.019   0.118  -0.181
    1UNL     O2   10  -0.113   0.191  -0.100
    1UNL     C9   11  -0.252   0.173  -0.147
    1UNL     O3   12  -0.277   0.030  -0.153
    1UNL    C10   13  -0.233  -0.032  -0.027
    1UNL    C11   14  -0.252  -0.181  -0.027
    1UNL     O4   15  -0.389  -0.211  -0.037
    1UNL    C12   16  -0.316   0.025   0.089
    1UNL     O5   17  -0.273  -0.034   0.214
    1UNL    C13   18  -0.332   0.182   0.087
    1UNL     O6   19  -0.432   0.223   0.170
    1UNL    C14   20  -0.357   0.239  -0.059
    1UNL     O7   21  -0.491   0.218  -0.099
    1UNL    C15   22   0.166  -0.049  -0.152
    1UNL    C16   23   0.268  -0.100  -0.073
    1UNL     H1   24   0.446  -0.242   0.302
    1UNL     H2   25   0.341  -0.316   0.176
    1UNL     H3   26   0.272  -0.214   0.283
    1UNL     H4   27   0.432  -0.030   0.212
    1UNL     H5   28   0.516  -0.233   0.003
    1UNL     H6   29   0.547  -0.059  -0.007
    1UNL     H7   30   0.640  -0.062   0.181
    1UNL     H8   31   0.240   0.095   0.200
    1UNL     H9   32   0.040   0.188   0.051
    1UNL    H10   33  -0.073   0.061  -0.254
    1UNL    H11   34   0.020   0.196  -0.248
    1UNL    H12   35  -0.268   0.193  -0.259
    1UNL    H13   36  -0.127  -0.003  -0.008
    1UNL    H14   37  -0.213  -0.231   0.064
    1UNL    H15   38  -0.189  -0.214  -0.112
    1UNL    H16   39  -0.418  -0.156  -0.113
    1UNL    H17   40  -0.419  -0.020   0.090
    1UNL    H18   41  -0.257   0.039   0.283
    1UNL    H19   42  -0.237   0.218   0.118
    1UNL    H20   43  -0.514   0.222   0.123
    1UNL    H21   44  -0.335   0.344  -0.059
    1UNL    H22   45  -0.509   0.122  -0.119
    1UNL    H23   46   0.144  -0.077  -0.251
    1UNL    H24   47   0.343  -0.162  -0.131
   0.00000   0.00000   0.00000   0.00000   0.00000   0.00000   0.00000   0.00000   0.00000
Generated with MDTraj, t= 46.0
 47
    1UNL     C1    1   0.330  -0.241   0.197
    1UNL     C2    2   0.391  -0.105   0.136
    1UNL     C3    3   0.522  -0.140   0.064
    1UNL     O1    4   0.618  -0.176   0.165
    1UNL     C4    5   0.290  -0.039   0.047
    1UNL     C5    6   0.205   0.056   0.100
    1UNL     C6    7   0.105   0.112   0.016
    1UNL     C7    8   0.086   0.082  -0.114
    1UNL     C8    9  -0.008   0.152  -0.200
    1UNL     O2   10  -0.111   0.219  -0.132
    1UNL     C9   11  -0.243   0.157  -0.146
    1UNL     O3   12  -0.250   0.014  -0.130
    1UNL    C10   13  -0.235  -0.041   0.004
    1UNL    C11   14  -0.267  -0.188   0.001
    1UNL     O4   15  -0.393  -0.208  -0.052
    1UNL    C12   16  -0.328   0.021   0.112
    1UNL     O5   17  -0.287  -0.020   0.247
    1UNL    C13   18  -0.325   0.174   0.091
    1UNL     O6   19  -0.411   0.240   0.174
    1UNL    C14   20  -0.353   0.217  -0.061
    1UNL     O7   21  -0.468   0.162  -0.113
    1UNL    C15   22   0.171  -0.015  -0.168
    1UNL    C16   23   0.271  -0.077  -0.091
    1UNL     H1   24   0.407  -0.287   0.260
    1UNL     H2   25   0.300  -0.309   0.125
    1UNL     H3   26   0.241  -0.235   0.254
    1UNL     H4   27   0.414  -0.035   0.217
    1UNL     H5   28   0.509  -0.232   0.008
    1UNL     H6   29   0.561  -0.060   0.003
    1UNL     H7   30   0.648  -0.100   0.216
    1UNL     H8   31   0.216   0.105   0.198
    1UNL     H9   32   0.032   0.167   0.074
    1UNL    H10   33  -0.052   0.084  -0.274
    1UNL    H11   34   0.050   0.221  -0.267
    1UNL    H12   35  -0.284   0.176  -0.250
    1UNL    H13   36  -0.129  -0.022   0.032
    1UNL    H14   37  -0.269  -0.215   0.110
    1UNL    H15   38  -0.192  -0.258  -0.045
    1UNL    H16   39  -0.395  -0.177  -0.149
    1UNL    H17   40  -0.436  -0.006   0.101
    1UNL    H18   41  -0.239   0.058   0.291
    1UNL    H19   42  -0.229   0.213   0.122
    1UNL    H20   43  -0.508   0.216   0.159
    1UNL    H21   44  -0.352   0.326  -0.066
    1UNL    H22   45  -0.443   0.070  -0.144
    1UNL    H23   46   0.160  -0.058  -0.271
    1UNL    H24   47   0.350  -0.128  -0.133
   0.00000   0.00000   0.00000   0.00000   0.00000   0.00000   0.00000   0.00000   0.00000
Generated with MDTraj, t= 47.0
 47
    1UNL     C1    1   0.311  -0.254   0.158
    1UNL     C2    2   0.371  -0.113   0.146
    1UNL     C3    3   0.512  -0.113   0.095
    1UNL     O1    4   0.591  -0.218   0.153
    1UNL     C4    5   0.282  -0.029   0.043
    1UNL     C5    6   0.205   0.075   0.093
    1UNL     C6    7   0.109   0.139   0.012
    1UNL     C7    8   0.101   0.097  -0.117
    1UNL     C8    9  -0.010   0.153  -0.204
    1UNL     O2   10  -0.120   0.205  -0.137
    1UNL     C9   11  -0.245   0.134  -0.151
    1UNL     O3   12  -0.260  -0.007  -0.126
    1UNL    C10   13  -0.232  -0.039   0.010
    1UNL    C11   14  -0.251  -0.189   0.024
    1UNL     O4   15  -0.354  -0.233  -0.062
    1UNL    C12   16  -0.319   0.029   0.116
    1UNL     O5   17  -0.288   0.005   0.256
    1UNL    C13   18  -0.314   0.178   0.090
    1UNL     O6   19  -0.404   0.248   0.162
    1UNL    C14   20  -0.346   0.209  -0.063
    1UNL     O7   21  -0.477   0.158  -0.082
    1UNL    C15   22   0.188   0.004  -0.176
    1UNL    C16   23   0.276  -0.061  -0.092
    1UNL     H1   24   0.366  -0.314   0.229
    1UNL     H2   25   0.301  -0.303   0.068
    1UNL     H3   26   0.209  -0.253   0.190
    1UNL     H4   27   0.370  -0.071   0.247
    1UNL     H5   28   0.508  -0.127  -0.012
    1UNL     H6   29   0.556  -0.018   0.120
    1UNL     H7   30   0.615  -0.219   0.249
    1UNL     H8   31   0.189   0.093   0.196
    1UNL     H9   32   0.037   0.216   0.036
    1UNL    H10   33  -0.042   0.083  -0.287
    1UNL    H11   34   0.029   0.240  -0.268
    1UNL    H12   35  -0.284   0.156  -0.252
    1UNL    H13   36  -0.124  -0.019   0.020
    1UNL    H14   37  -0.272  -0.222   0.129
    1UNL    H15   38  -0.157  -0.241  -0.003
    1UNL    H16   39  -0.333  -0.216  -0.154
    1UNL    H17   40  -0.419  -0.016   0.095
    1UNL    H18   41  -0.350   0.061   0.306
    1UNL    H19   42  -0.211   0.202   0.123
    1UNL    H20   43  -0.495   0.245   0.115
    1UNL    H21   44  -0.344   0.319  -0.087
    1UNL    H22   45  -0.468   0.075  -0.135
    1UNL    H23   46   0.189  -0.004  -0.279
    1UNL    H24   47   0.328  -0.153  -0.126
   0.00000   0.00000   0.00000   0.00000   0.00000   0.00000   0.00000   0.00000   0.00000
Generated with MDTraj, t= 48.0
 47
    1UNL     C1    1   0.297  -0.270   0.125
    1UNL     C2    2   0.358  -0.126   0.132
    1UNL     C3    3   0.512  -0.118   0.110
    1UNL     O1    4   0.578  -0.216   0.186
    1UNL     C4    5   0.291  -0.036   0.032
    1UNL     C5    6   0.208   0.068   0.083
    1UNL     C6    7   0.107   0.127   0.014
    1UNL     C7    8   0.079   0.082  -0.112
    1UNL     C8    9  -0.027   0.142  -0.194
    1UNL     O2   10  -0.126   0.206  -0.119
    1UNL     C9   11  -0.253   0.151  -0.154
    1UNL     O3   12  -0.254   0.005  -0.128
    1UNL    C10   13  -0.202  -0.020  -0.001
    1UNL    C11   14  -0.184  -0.170   0.010
    1UNL     O4   15  -0.312  -0.226  -0.005
    1UNL    C12   16  -0.307   0.029   0.102
    1UNL     O5   17  -0.281   0.004   0.244
    1UNL    C13   18  -0.327   0.178   0.082
    1UNL     O6   19  -0.427   0.225   0.161
    1UNL    C14   20  -0.361   0.221  -0.068
    1UNL     O7   21  -0.487   0.177  -0.093
    1UNL    C15   22   0.170   0.004  -0.175
    1UNL    C16   23   0.266  -0.063  -0.099
    1UNL     H1   24   0.343  -0.323   0.203
    1UNL     H2   25   0.320  -0.316   0.032
    1UNL     H3   26   0.190  -0.279   0.131
    1UNL     H4   27   0.329  -0.084   0.229
    1UNL     H5   28   0.526  -0.133   0.004
    1UNL     H6   29   0.543  -0.018   0.137
    1UNL     H7   30   0.559  -0.194   0.283
    1UNL     H8   31   0.201   0.071   0.192
    1UNL     H9   32   0.041   0.200   0.058
    1UNL    H10   33  -0.074   0.049  -0.244
    1UNL    H11   34   0.013   0.213  -0.276
    1UNL    H12   35  -0.271   0.171  -0.258
    1UNL    H13   36  -0.116   0.044   0.024
    1UNL    H14   37  -0.146  -0.200   0.109
    1UNL    H15   38  -0.116  -0.211  -0.066
    1UNL    H16   39  -0.348  -0.210  -0.094
    1UNL    H17   40  -0.406  -0.018   0.088
    1UNL    H18   41  -0.199   0.037   0.277
    1UNL    H19   42  -0.235   0.233   0.115
    1UNL    H20   43  -0.515   0.212   0.122
    1UNL    H21   44  -0.349   0.334  -0.082
    1UNL    H22   45  -0.489   0.106  -0.158
    1UNL    H23   46   0.162  -0.027  -0.282
    1UNL    H24   47   0.324  -0.142  -0.142
   0.00000   0.00000   0.00000   0.00000   0.00000   0.00000   0.00000   0.00000   0.00000
Generated with MDTraj, t= 49.0
 47
    1UNL     C1    1   0.305  -0.300   0.133
    1UNL     C2    2   0.342  -0.154   0.129
    1UNL     C3    3   0.493  -0.131   0.104
    1UNL     O1    4   0.577  -0.172   0.205
    1UNL     C4    5   0.256  -0.066   0.031
    1UNL     C5    6   0.191   0.044   0.083
    1UNL     C6    7   0.106   0.124   0.011
    1UNL     C7    8   0.080   0.096  -0.130
    1UNL     C8    9  -0.020   0.167  -0.212
    1UNL     O2   10  -0.122   0.237  -0.138
    1UNL     C9   11  -0.241   0.169  -0.144
    1UNL     O3   12  -0.240   0.022  -0.128
    1UNL    C10   13  -0.206  -0.014   0.002
    1UNL    C11   14  -0.163  -0.158   0.014
    1UNL     O4   15  -0.264  -0.250   0.007
    1UNL    C12   16  -0.304   0.031   0.112
    1UNL     O5   17  -0.255   0.012   0.246
    1UNL    C13   18  -0.339   0.183   0.094
    1UNL     O6   19  -0.457   0.209   0.167
    1UNL    C14   20  -0.359   0.224  -0.057
    1UNL     O7   21  -0.482   0.178  -0.105
    1UNL    C15   22   0.156  -0.007  -0.189
    1UNL    C16   23   0.240  -0.092  -0.105
    1UNL     H1   24   0.369  -0.345   0.199
    1UNL     H2   25   0.305  -0.346   0.034
    1UNL     H3   26   0.204  -0.310   0.166
    1UNL     H4   27   0.321  -0.111   0.228
    1UNL     H5   28   0.522  -0.191   0.017
    1UNL     H6   29   0.512  -0.025   0.077
    1UNL     H7   30   0.596  -0.102   0.271
    1UNL     H8   31   0.206   0.060   0.187
    1UNL     H9   32   0.044   0.194   0.065
    1UNL    H10   33  -0.069   0.095  -0.288
    1UNL    H11   34   0.046   0.252  -0.254
    1UNL    H12   35  -0.278   0.185  -0.243
    1UNL    H13   36  -0.118   0.049   0.020
    1UNL    H14   37  -0.118  -0.176   0.111
    1UNL    H15   38  -0.089  -0.180  -0.062
    1UNL    H16   39  -0.295  -0.250  -0.090
    1UNL    H17   40  -0.388  -0.035   0.087
    1UNL    H18   41  -0.276   0.090   0.299
    1UNL    H19   42  -0.251   0.245   0.131
    1UNL    H20   43  -0.535   0.207   0.106
    1UNL    H21   44  -0.367   0.340  -0.057
    1UNL    H22   45  -0.482   0.092  -0.151
    1UNL    H23   46   0.146  -0.022  -0.293
    1UNL    H24   47   0.291  -0.175  -0.150
   0.00000   0.00000   0.00000   0.00000   0.00000   0.00000   0.00000   0.00000   0.00000
Generated with MDTraj, t= 50.0
 47
    1UNL     C1    1   0.304  -0.311   0.116
    1UNL     C2    2   0.318  -0.160   0.128
    1UNL     C3    3   0.465  -0.109   0.093
    1UNL     O1    4   0.574  -0.154   0.178
    1UNL     C4    5   0.219  -0.076   0.048
    1UNL     C5    6   0.188   0.054   0.088
    1UNL     C6    7   0.115   0.137   0.003
    1UNL     C7    8   0.083   0.096  -0.124
    1UNL     C8    9  -0.001   0.190  -0.214
    1UNL     O2   10  -0.119   0.238  -0.145
    1UNL     C9   11  -0.231   0.153  -0.140
    1UNL     O3   12  -0.200   0.017  -0.117
    1UNL    C10   13  -0.179  -0.005   0.022
    1UNL    C11   14  -0.149  -0.157   0.048
    1UNL     O4   15  -0.237  -0.233  -0.035
    1UNL    C12   16  -0.303   0.031   0.114
    1UNL     O5   17  -0.275  -0.003   0.249
    1UNL    C13   18  -0.331   0.186   0.091
    1UNL     O6   19  -0.446   0.228   0.163
    1UNL    C14   20  -0.356   0.208  -0.057
    1UNL     O7   21  -0.471   0.153  -0.111
    1UNL    C15   22   0.118  -0.029  -0.166
    1UNL    C16   23   0.185  -0.112  -0.087
    1UNL     H1   24   0.374  -0.354   0.181
    1UNL     H2   25   0.314  -0.346   0.013
    1UNL     H3   26   0.205  -0.339   0.143
    1UNL     H4   27   0.305  -0.131   0.233
    1UNL     H5   28   0.491  -0.136  -0.011
    1UNL     H6   29   0.468   0.003   0.090
    1UNL     H7   30   0.589  -0.104   0.259
    1UNL     H8   31   0.226   0.077   0.188
    1UNL     H9   32   0.070   0.226   0.044
    1UNL    H10   33  -0.030   0.132  -0.303
    1UNL    H11   34   0.051   0.289  -0.233
    1UNL    H12   35  -0.274   0.157  -0.239
    1UNL    H13   36  -0.100   0.067   0.049
    1UNL    H14   37  -0.176  -0.183   0.148
    1UNL    H15   38  -0.048  -0.187   0.028
    1UNL    H16   39  -0.236  -0.185  -0.119
    1UNL    H17   40  -0.386  -0.026   0.074
    1UNL    H18   41  -0.235   0.079   0.291
    1UNL    H19   42  -0.244   0.251   0.130
    1UNL    H20   43  -0.530   0.222   0.109
    1UNL    H21   44  -0.354   0.323  -0.065
    1UNL    H22   45  -0.444   0.060  -0.136
    1UNL    H23   46   0.076  -0.053  -0.264
    1UNL    H24   47   0.206  -0.212  -0.127
   0.00000   0.00000   0.00000   0.00000   0.00000   0.00000   0.00000   0.00000   0.00000
Generated with MDTraj, t= 51.0
 47
    1UNL     C1    1   0.301  -0.291   0.094
    1UNL     C2    2   0.322  -0.144   0.123
    1UNL     C3    3   0.472  -0.104   0.098
    1UNL     O1    4   0.567  -0.191   0.165
    1UNL     C4    5   0.217  -0.061   0.052
    1UNL     C5    6   0.217   0.074   0.074
    1UNL     C6    7   0.140   0.152  -0.010
    1UNL     C7    8   0.076   0.106  -0.121
    1UNL     C8    9  -0.007   0.201  -0.196
    1UNL     O2   10  -0.121   0.231  -0.115
    1UNL     C9   11  -0.221   0.141  -0.146
    1UNL     O3   12  -0.191   0.004  -0.106
    1UNL    C10   13  -0.179  -0.011   0.031
    1UNL    C11   14  -0.156  -0.158   0.054
    1UNL     O4   15  -0.217  -0.230  -0.047
    1UNL    C12   16  -0.304   0.034   0.109
    1UNL     O5   17  -0.293   0.004   0.245
    1UNL    C13   18  -0.329   0.189   0.074
    1UNL     O6   19  -0.432   0.241   0.162
    1UNL    C14   20  -0.358   0.203  -0.076
    1UNL     O7   21  -0.465   0.121  -0.119
    1UNL    C15   22   0.083  -0.033  -0.140
    1UNL    C16   23   0.152  -0.114  -0.062
    1UNL     H1   24   0.356  -0.347   0.167
    1UNL     H2   25   0.324  -0.321  -0.007
    1UNL     H3   26   0.200  -0.314   0.104
    1UNL     H4   27   0.298  -0.122   0.229
    1UNL     H5   28   0.491  -0.098  -0.011
    1UNL     H6   29   0.491   0.003   0.128
    1UNL     H7   30   0.521  -0.221   0.247
    1UNL     H8   31   0.262   0.119   0.160
    1UNL     H9   32   0.128   0.256   0.020
    1UNL    H10   33  -0.050   0.158  -0.285
    1UNL    H11   34   0.056   0.288  -0.216
    1UNL    H12   35  -0.244   0.139  -0.254
    1UNL    H13   36  -0.095   0.048   0.072
    1UNL    H14   37  -0.197  -0.193   0.148
    1UNL    H15   38  -0.050  -0.177   0.047
    1UNL    H16   39  -0.205  -0.177  -0.133
    1UNL    H17   40  -0.389  -0.027   0.084
    1UNL    H18   41  -0.318   0.082   0.306
    1UNL    H19   42  -0.229   0.241   0.104
    1UNL    H20   43  -0.518   0.215   0.128
    1UNL    H21   44  -0.380   0.312  -0.102
    1UNL    H22   45  -0.440   0.025  -0.120
    1UNL    H23   46   0.005  -0.062  -0.209
    1UNL    H24   47   0.152  -0.215  -0.097
   0.00000   0.00000   0.00000   0.00000   0.00000   0.00000   0.00000   0.00000   0.00000
Generated with MDTraj, t= 52.0
 47
    1UNL     C1    1   0.305  -0.289   0.101
    1UNL     C2    2   0.341  -0.147   0.117
    1UNL     C3    3   0.496  -0.141   0.097
    1UNL     O1    4   0.565  -0.227   0.179
    1UNL     C4    5   0.253  -0.054   0.032
    1UNL     C5    6   0.244   0.083   0.072
    1UNL     C6    7   0.166   0.169  -0.003
    1UNL     C7    8   0.095   0.124  -0.114
    1UNL     C8    9  -0.003   0.216  -0.182
    1UNL     O2   10  -0.133   0.239  -0.114
    1UNL     C9   11  -0.234   0.142  -0.143
    1UNL     O3   12  -0.218   0.005  -0.117
    1UNL    C10   13  -0.189  -0.005   0.019
    1UNL    C11   14  -0.151  -0.154   0.046
    1UNL     O4   15  -0.241  -0.249  -0.008
    1UNL    C12   16  -0.311   0.034   0.112
    1UNL     O5   17  -0.278   0.032   0.247
    1UNL    C13   18  -0.364   0.176   0.069
    1UNL     O6   19  -0.478   0.219   0.149
    1UNL    C14   20  -0.372   0.194  -0.077
    1UNL     O7   21  -0.479   0.119  -0.120
    1UNL    C15   22   0.101  -0.011  -0.153
    1UNL    C16   23   0.186  -0.104  -0.083
    1UNL     H1   24   0.352  -0.352   0.177
    1UNL     H2   25   0.328  -0.330   0.008
    1UNL     H3   26   0.201  -0.296   0.113
    1UNL     H4   27   0.320  -0.111   0.219
    1UNL     H5   28   0.526  -0.160  -0.008
    1UNL     H6   29   0.527  -0.035   0.117
    1UNL     H7   30   0.540  -0.212   0.277
    1UNL     H8   31   0.301   0.109   0.161
    1UNL     H9   32   0.142   0.265   0.040
    1UNL    H10   33  -0.004   0.184  -0.283
    1UNL    H11   34   0.033   0.316  -0.173
    1UNL    H12   35  -0.236   0.143  -0.255
    1UNL    H13   36  -0.101   0.060   0.038
    1UNL    H14   37  -0.148  -0.173   0.154
    1UNL    H15   38  -0.057  -0.177  -0.003
    1UNL    H16   39  -0.267  -0.229  -0.099
    1UNL    H17   40  -0.394  -0.033   0.097
    1UNL    H18   41  -0.326   0.106   0.295
    1UNL    H19   42  -0.282   0.252   0.100
    1UNL    H20   43  -0.513   0.296   0.109
    1UNL    H21   44  -0.371   0.299  -0.112
    1UNL    H22   45  -0.486   0.029  -0.086
    1UNL    H23   46   0.025  -0.045  -0.220
    1UNL    H24   47   0.189  -0.214  -0.092
   0.00000   0.00000   0.00000   0.00000   0.00000   0.00000   0.00000   0.00000   0.00000
Generated with MDTraj, t= 53.0
 47
    1UNL     C1    1   0.277  -0.288   0.118
    1UNL     C2    2   0.347  -0.150   0.112
    1UNL     C3    3   0.498  -0.155   0.070
    1UNL     O1    4   0.565  -0.225   0.171
    1UNL     C4    5   0.270  -0.053   0.024
    1UNL     C5    6   0.239   0.070   0.076
    1UNL     C6    7   0.156   0.154   0.011
    1UNL     C7    8   0.099   0.115  -0.114
    1UNL     C8    9   0.008   0.214  -0.184
    1UNL     O2   10  -0.119   0.242  -0.121
    1UNL     C9   11  -0.226   0.158  -0.141
    1UNL     O3   12  -0.203   0.019  -0.113
    1UNL    C10   13  -0.185   0.002   0.027
    1UNL    C11   14  -0.161  -0.144   0.057
    1UNL     O4   15  -0.272  -0.233   0.038
    1UNL    C12   16  -0.310   0.033   0.118
    1UNL     O5   17  -0.277   0.038   0.253
    1UNL    C13   18  -0.374   0.170   0.075
    1UNL     O6   19  -0.513   0.168   0.124
    1UNL    C14   20  -0.372   0.203  -0.079
    1UNL     O7   21  -0.480   0.127  -0.133
    1UNL    C15   22   0.131  -0.003  -0.163
    1UNL    C16   23   0.220  -0.081  -0.095
    1UNL     H1   24   0.328  -0.340   0.200
    1UNL     H2   25   0.286  -0.346   0.034
    1UNL     H3   26   0.175  -0.278   0.145
    1UNL     H4   27   0.345  -0.097   0.209
    1UNL     H5   28   0.503  -0.205  -0.027
    1UNL     H6   29   0.548  -0.058   0.050
    1UNL     H7   30   0.610  -0.179   0.245
    1UNL     H8   31   0.283   0.114   0.163
    1UNL     H9   32   0.122   0.247   0.050
    1UNL    H10   33  -0.020   0.183  -0.279
    1UNL    H11   34   0.066   0.301  -0.202
    1UNL    H12   35  -0.244   0.164  -0.253
    1UNL    H13   36  -0.095   0.057   0.056
    1UNL    H14   37  -0.132  -0.155   0.164
    1UNL    H15   38  -0.080  -0.181  -0.008
    1UNL    H16   39  -0.330  -0.211  -0.037
    1UNL    H17   40  -0.379  -0.051   0.111
    1UNL    H18   41  -0.308   0.117   0.299
    1UNL    H19   42  -0.329   0.244   0.149
    1UNL    H20   43  -0.565   0.120   0.055
    1UNL    H21   44  -0.388   0.309  -0.097
    1UNL    H22   45  -0.466   0.034  -0.110
    1UNL    H23   46   0.082  -0.045  -0.253
    1UNL    H24   47   0.239  -0.172  -0.143
   0.00000   0.00000   0.00000   0.00000   0.00000   0.00000   0.00000   0.00000   0.00000
Generated with MDTraj, t= 54.0
 47
    1UNL     C1    1   0.270  -0.267   0.145
    1UNL     C2    2   0.347  -0.137   0.119
    1UNL     C3    3   0.473  -0.150   0.040
    1UNL     O1    4   0.561  -0.225   0.118
    1UNL     C4    5   0.254  -0.054   0.031
    1UNL     C5    6   0.195   0.054   0.099
    1UNL     C6    7   0.109   0.138   0.033
    1UNL     C7    8   0.087   0.109  -0.101
    1UNL     C8    9   0.008   0.210  -0.178
    1UNL     O2   10  -0.117   0.231  -0.107
    1UNL     C9   11  -0.220   0.137  -0.137
    1UNL     O3   12  -0.185  -0.002  -0.097
    1UNL    C10   13  -0.182  -0.003   0.046
    1UNL    C11   14  -0.145  -0.142   0.088
    1UNL     O4   15  -0.239  -0.227   0.026
    1UNL    C12   16  -0.319   0.038   0.116
    1UNL     O5   17  -0.295   0.027   0.254
    1UNL    C13   18  -0.360   0.178   0.060
    1UNL     O6   19  -0.492   0.194   0.116
    1UNL    C14   20  -0.360   0.191  -0.089
    1UNL     O7   21  -0.466   0.134  -0.156
    1UNL    C15   22   0.143   0.005  -0.174
    1UNL    C16   23   0.231  -0.080  -0.102
    1UNL     H1   24   0.332  -0.339   0.195
    1UNL     H2   25   0.232  -0.308   0.056
    1UNL     H3   26   0.187  -0.240   0.206
    1UNL     H4   27   0.368  -0.077   0.209
    1UNL     H5   28   0.455  -0.190  -0.059
    1UNL     H6   29   0.506  -0.048   0.017
    1UNL     H7   30   0.575  -0.180   0.202
    1UNL     H8   31   0.221   0.064   0.204
    1UNL     H9   32   0.085   0.236   0.076
    1UNL    H10   33  -0.002   0.176  -0.277
    1UNL    H11   34   0.055   0.305  -0.178
    1UNL    H12   35  -0.239   0.130  -0.248
    1UNL    H13   36  -0.108   0.070   0.079
    1UNL    H14   37  -0.155  -0.152   0.199
    1UNL    H15   38  -0.042  -0.168   0.054
    1UNL    H16   39  -0.257  -0.187  -0.067
    1UNL    H17   40  -0.402  -0.032   0.096
    1UNL    H18   41  -0.328   0.105   0.296
    1UNL    H19   42  -0.287   0.251   0.106
    1UNL    H20   43  -0.539   0.246   0.040
    1UNL    H21   44  -0.369   0.295  -0.116
    1UNL    H22   45  -0.485   0.047  -0.113
    1UNL    H23   46   0.119  -0.025  -0.274
    1UNL    H24   47   0.288  -0.171  -0.138
   0.00000   0.00000   0.00000   0.00000   0.00000   0.00000   0.00000   0.00000   0.00000
Generated with MDTraj, t= 55.0
 47
    1UNL     C1    1   0.299  -0.283   0.170
    1UNL     C2    2   0.354  -0.143   0.119
    1UNL     C3    3   0.472  -0.170   0.028
    1UNL     O1    4   0.565  -0.250   0.095
    1UNL     C4    5   0.256  -0.055   0.046
    1UNL     C5    6   0.195   0.051   0.105
    1UNL     C6    7   0.115   0.147   0.037
    1UNL     C7    8   0.083   0.124  -0.094
    1UNL     C8    9  -0.001   0.208  -0.176
    1UNL     O2   10  -0.129   0.245  -0.135
    1UNL     C9   11  -0.230   0.152  -0.145
    1UNL     O3   12  -0.195   0.017  -0.096
    1UNL    C10   13  -0.188   0.006   0.047
    1UNL    C11   14  -0.136  -0.130   0.091
    1UNL     O4   15  -0.178  -0.236   0.010
    1UNL    C12   16  -0.334   0.038   0.108
    1UNL     O5   17  -0.347   0.020   0.249
    1UNL    C13   18  -0.362   0.185   0.064
    1UNL     O6   19  -0.484   0.243   0.124
    1UNL    C14   20  -0.373   0.189  -0.093
    1UNL     O7   21  -0.463   0.088  -0.143
    1UNL    C15   22   0.146   0.013  -0.159
    1UNL    C16   23   0.224  -0.081  -0.086
    1UNL     H1   24   0.370  -0.344   0.211
    1UNL     H2   25   0.254  -0.342   0.091
    1UNL     H3   26   0.221  -0.268   0.243
    1UNL     H4   27   0.390  -0.077   0.201
    1UNL     H5   28   0.444  -0.218  -0.063
    1UNL     H6   29   0.525  -0.081  -0.004
    1UNL     H7   30   0.593  -0.205   0.179
    1UNL     H8   31   0.220   0.083   0.204
    1UNL     H9   32   0.091   0.236   0.092
    1UNL    H10   33  -0.014   0.173  -0.277
    1UNL    H11   34   0.053   0.302  -0.180
    1UNL    H12   35  -0.241   0.129  -0.253
    1UNL    H13   36  -0.127   0.090   0.078
    1UNL    H14   37  -0.162  -0.151   0.198
    1UNL    H15   38  -0.025  -0.128   0.081
    1UNL    H16   39  -0.193  -0.194  -0.074
    1UNL    H17   40  -0.407  -0.026   0.053
    1UNL    H18   41  -0.377   0.108   0.284
    1UNL    H19   42  -0.277   0.243   0.103
    1UNL    H20   43  -0.552   0.212   0.063
    1UNL    H21   44  -0.402   0.283  -0.135
    1UNL    H22   45  -0.418  -0.000  -0.128
    1UNL    H23   46   0.130   0.005  -0.266
    1UNL    H24   47   0.238  -0.174  -0.130
   0.00000   0.00000   0.00000   0.00000   0.00000   0.00000   0.00000   0.00000   0.00000
Generated with MDTraj, t= 56.0
 47
    1UNL     C1    1   0.281  -0.270   0.167
    1UNL     C2    2   0.364  -0.147   0.111
    1UNL     C3    3   0.481  -0.198   0.027
    1UNL     O1    4   0.568  -0.263   0.106
    1UNL     C4    5   0.270  -0.049   0.033
    1UNL     C5    6   0.232   0.069   0.090
    1UNL     C6    7   0.139   0.156   0.028
    1UNL     C7    8   0.074   0.118  -0.083
    1UNL     C8    9  -0.007   0.224  -0.162
    1UNL     O2   10  -0.133   0.256  -0.112
    1UNL     C9   11  -0.229   0.157  -0.141
    1UNL     O3   12  -0.194   0.024  -0.094
    1UNL    C10   13  -0.180   0.011   0.048
    1UNL    C11   14  -0.127  -0.132   0.087
    1UNL     O4   15  -0.166  -0.243   0.011
    1UNL    C12   16  -0.325   0.049   0.115
    1UNL     O5   17  -0.324   0.048   0.259
    1UNL    C13   18  -0.380   0.177   0.054
    1UNL     O6   19  -0.517   0.191   0.093
    1UNL    C14   20  -0.372   0.186  -0.094
    1UNL     O7   21  -0.463   0.104  -0.152
    1UNL    C15   22   0.109   0.003  -0.142
    1UNL    C16   23   0.193  -0.082  -0.083
    1UNL     H1   24   0.326  -0.328   0.240
    1UNL     H2   25   0.252  -0.342   0.089
    1UNL     H3   26   0.191  -0.230   0.206
    1UNL     H4   27   0.413  -0.096   0.195
    1UNL     H5   28   0.455  -0.273  -0.046
    1UNL     H6   29   0.537  -0.120  -0.023
    1UNL     H7   30   0.600  -0.201   0.181
    1UNL     H8   31   0.298   0.099   0.174
    1UNL     H9   32   0.133   0.259   0.069
    1UNL    H10   33  -0.031   0.180  -0.261
    1UNL    H11   34   0.042   0.321  -0.182
    1UNL    H12   35  -0.230   0.132  -0.247
    1UNL    H13   36  -0.115   0.094   0.077
    1UNL    H14   37  -0.156  -0.153   0.192
    1UNL    H15   38  -0.018  -0.131   0.082
    1UNL    H16   39  -0.163  -0.213  -0.086
    1UNL    H17   40  -0.391  -0.034   0.076
    1UNL    H18   41  -0.416   0.066   0.298
    1UNL    H19   42  -0.331   0.259   0.105
    1UNL    H20   43  -0.574   0.167   0.024
    1UNL    H21   44  -0.403   0.282  -0.135
    1UNL    H22   45  -0.426   0.015  -0.154
    1UNL    H23   46   0.065  -0.025  -0.236
    1UNL    H24   47   0.196  -0.184  -0.128
   0.00000   0.00000   0.00000   0.00000   0.00000   0.00000   0.00000   0.00000   0.00000
Generated with MDTraj, t= 57.0
 47
    1UNL     C1    1   0.256  -0.272   0.167
    1UNL     C2    2   0.340  -0.146   0.121
    1UNL     C3    3   0.457  -0.186   0.029
    1UNL     O1    4   0.556  -0.274   0.080
    1UNL     C4    5   0.252  -0.042   0.044
    1UNL     C5    6   0.257   0.094   0.073
    1UNL     C6    7   0.174   0.184   0.010
    1UNL     C7    8   0.098   0.137  -0.101
    1UNL     C8    9  -0.003   0.222  -0.153
    1UNL     O2   10  -0.128   0.240  -0.082
    1UNL     C9   11  -0.217   0.147  -0.139
    1UNL     O3   12  -0.184   0.016  -0.091
    1UNL    C10   13  -0.166   0.020   0.049
    1UNL    C11   14  -0.117  -0.117   0.093
    1UNL     O4   15  -0.206  -0.219   0.052
    1UNL    C12   16  -0.303   0.043   0.118
    1UNL     O5   17  -0.298   0.044   0.257
    1UNL    C13   18  -0.384   0.161   0.059
    1UNL     O6   19  -0.520   0.116   0.072
    1UNL    C14   20  -0.368   0.188  -0.098
    1UNL     O7   21  -0.466   0.129  -0.183
    1UNL    C15   22   0.101   0.005  -0.140
    1UNL    C16   23   0.177  -0.086  -0.064
    1UNL     H1   24   0.314  -0.357   0.198
    1UNL     H2   25   0.201  -0.306   0.081
    1UNL     H3   26   0.184  -0.247   0.239
    1UNL     H4   27   0.379  -0.105   0.215
    1UNL     H5   28   0.417  -0.234  -0.060
    1UNL     H6   29   0.516  -0.098   0.001
    1UNL     H7   30   0.570  -0.240   0.173
    1UNL     H8   31   0.312   0.127   0.157
    1UNL     H9   32   0.192   0.286   0.021
    1UNL    H10   33  -0.026   0.189  -0.258
    1UNL    H11   34   0.041   0.324  -0.164
    1UNL    H12   35  -0.200   0.149  -0.244
    1UNL    H13   36  -0.094   0.098   0.080
    1UNL    H14   37  -0.098  -0.122   0.199
    1UNL    H15   38  -0.025  -0.137   0.041
    1UNL    H16   39  -0.213  -0.223  -0.046
    1UNL    H17   40  -0.357  -0.051   0.087
    1UNL    H18   41  -0.392   0.051   0.292
    1UNL    H19   42  -0.370   0.247   0.118
    1UNL    H20   43  -0.576   0.151  -0.008
    1UNL    H21   44  -0.365   0.295  -0.129
    1UNL    H22   45  -0.428   0.045  -0.214
    1UNL    H23   46   0.024  -0.016  -0.215
    1UNL    H24   47   0.166  -0.189  -0.086
   0.00000   0.00000   0.00000   0.00000   0.00000   0.00000   0.00000   0.00000   0.00000
Generated with MDTraj, t= 58.0
 47
    1UNL     C1    1   0.258  -0.258   0.167
    1UNL     C2    2   0.345  -0.141   0.106
    1UNL     C3    3   0.462  -0.193   0.021
    1UNL     O1    4   0.535  -0.306   0.081
    1UNL     C4    5   0.252  -0.042   0.039
    1UNL     C5    6   0.244   0.098   0.077
    1UNL     C6    7   0.168   0.193   0.012
    1UNL     C7    8   0.099   0.163  -0.104
    1UNL     C8    9   0.005   0.259  -0.167
    1UNL     O2   10  -0.126   0.266  -0.105
    1UNL     C9   11  -0.209   0.150  -0.135
    1UNL     O3   12  -0.173   0.025  -0.086
    1UNL    C10   13  -0.171   0.006   0.055
    1UNL    C11   14  -0.116  -0.135   0.104
    1UNL     O4   15  -0.212  -0.238   0.091
    1UNL    C12   16  -0.314   0.029   0.113
    1UNL     O5   17  -0.315   0.020   0.255
    1UNL    C13   18  -0.381   0.157   0.055
    1UNL     O6   19  -0.524   0.147   0.072
    1UNL    C14   20  -0.358   0.176  -0.100
    1UNL     O7   21  -0.441   0.095  -0.176
    1UNL    C15   22   0.102   0.030  -0.144
    1UNL    C16   23   0.176  -0.069  -0.074
    1UNL     H1   24   0.315  -0.333   0.223
    1UNL     H2   25   0.211  -0.313   0.091
    1UNL     H3   26   0.184  -0.217   0.228
    1UNL     H4   27   0.388  -0.090   0.192
    1UNL     H5   28   0.426  -0.242  -0.070
    1UNL     H6   29   0.533  -0.109  -0.000
    1UNL     H7   30   0.550  -0.295   0.175
    1UNL     H8   31   0.327   0.127   0.142
    1UNL     H9   32   0.153   0.294   0.059
    1UNL    H10   33  -0.003   0.218  -0.275
    1UNL    H11   34   0.049   0.362  -0.167
    1UNL    H12   35  -0.205   0.138  -0.242
    1UNL    H13   36  -0.101   0.076   0.105
    1UNL    H14   37  -0.097  -0.134   0.210
    1UNL    H15   38  -0.023  -0.159   0.055
    1UNL    H16   39  -0.234  -0.268   0.003
    1UNL    H17   40  -0.375  -0.061   0.084
    1UNL    H18   41  -0.407   0.036   0.282
    1UNL    H19   42  -0.351   0.241   0.111
    1UNL    H20   43  -0.562   0.108  -0.005
    1UNL    H21   44  -0.393   0.276  -0.140
    1UNL    H22   45  -0.398   0.013  -0.212
    1UNL    H23   46   0.009  -0.008  -0.184
    1UNL    H24   47   0.187  -0.171  -0.114
   0.00000   0.00000   0.00000   0.00000   0.00000   0.00000   0.00000   0.00000   0.00000
Generated with MDTraj, t= 59.0
 47
    1UNL     C1    1   0.241  -0.225   0.154
    1UNL     C2    2   0.350  -0.143   0.098
    1UNL     C3    3   0.445  -0.224   0.005
    1UNL     O1    4   0.535  -0.307   0.084
    1UNL     C4    5   0.265  -0.032   0.028
    1UNL     C5    6   0.236   0.085   0.094
    1UNL     C6    7   0.159   0.182   0.040
    1UNL     C7    8   0.107   0.163  -0.092
    1UNL     C8    9  -0.009   0.250  -0.149
    1UNL     O2   10  -0.135   0.244  -0.093
    1UNL     C9   11  -0.211   0.128  -0.139
    1UNL     O3   12  -0.177   0.006  -0.078
    1UNL    C10   13  -0.187   0.010   0.067
    1UNL    C11   14  -0.135  -0.125   0.129
    1UNL     O4   15  -0.166  -0.233   0.042
    1UNL    C12   16  -0.332   0.039   0.110
    1UNL     O5   17  -0.353   0.025   0.250
    1UNL    C13   18  -0.372   0.173   0.050
    1UNL     O6   19  -0.500   0.218   0.085
    1UNL    C14   20  -0.366   0.148  -0.109
    1UNL     O7   21  -0.439   0.036  -0.153
    1UNL    C15   22   0.134   0.044  -0.158
    1UNL    C16   23   0.222  -0.043  -0.106
    1UNL     H1   24   0.278  -0.303   0.222
    1UNL     H2   25   0.198  -0.280   0.078
    1UNL     H3   26   0.169  -0.166   0.206
    1UNL     H4   27   0.409  -0.101   0.179
    1UNL     H5   28   0.382  -0.286  -0.061
    1UNL     H6   29   0.514  -0.154  -0.050
    1UNL     H7   30   0.564  -0.268   0.169
    1UNL     H8   31   0.294   0.114   0.182
    1UNL     H9   32   0.111   0.261   0.088
    1UNL    H10   33  -0.028   0.248  -0.264
    1UNL    H11   34   0.024   0.354  -0.120
    1UNL    H12   35  -0.192   0.127  -0.246
    1UNL    H13   36  -0.123   0.090   0.109
    1UNL    H14   37  -0.176  -0.142   0.227
    1UNL    H15   38  -0.028  -0.119   0.138
    1UNL    H16   39  -0.153  -0.204  -0.055
    1UNL    H17   40  -0.399  -0.041   0.070
    1UNL    H18   41  -0.426   0.083   0.274
    1UNL    H19   42  -0.306   0.248   0.078
    1UNL    H20   43  -0.553   0.162   0.024
    1UNL    H21   44  -0.410   0.240  -0.155
    1UNL    H22   45  -0.377  -0.030  -0.195
    1UNL    H23   46   0.072   0.017  -0.244
    1UNL    H24   47   0.222  -0.142  -0.150
   0.00000   0.00000   0.00000   0.00000   0.00000   0.00000   0.00000   0.00000   0.00000
Generated with MDTraj, t= 60.0
 47
    1UNL     C1    1   0.266  -0.225   0.176
    1UNL     C2    2   0.349  -0.134   0.095
    1UNL     C3    3   0.444  -0.214  -0.005
    1UNL     O1    4   0.518  -0.307   0.065
    1UNL     C4    5   0.251  -0.044   0.030
    1UNL     C5    6   0.188   0.054   0.105
    1UNL     C6    7   0.118   0.151   0.043
    1UNL     C7    8   0.095   0.147  -0.090
    1UNL     C8    9  -0.004   0.243  -0.145
    1UNL     O2   10  -0.128   0.239  -0.085
    1UNL     C9   11  -0.206   0.122  -0.130
    1UNL     O3   12  -0.168   0.012  -0.066
    1UNL    C10   13  -0.181   0.012   0.082
    1UNL    C11   14  -0.155  -0.131   0.128
    1UNL     O4   15  -0.128  -0.207   0.021
    1UNL    C12   16  -0.325   0.051   0.122
    1UNL     O5   17  -0.337   0.083   0.263
    1UNL    C13   18  -0.380   0.173   0.042
    1UNL     O6   19  -0.519   0.176   0.072
    1UNL    C14   20  -0.356   0.151  -0.108
    1UNL     O7   21  -0.435   0.052  -0.164
    1UNL    C15   22   0.156   0.048  -0.176
    1UNL    C16   23   0.234  -0.046  -0.111
    1UNL     H1   24   0.334  -0.299   0.216
    1UNL     H2   25   0.206  -0.286   0.114
    1UNL     H3   26   0.213  -0.173   0.255
    1UNL     H4   27   0.412  -0.072   0.158
    1UNL     H5   28   0.379  -0.279  -0.065
    1UNL     H6   29   0.505  -0.144  -0.069
    1UNL     H7   30   0.578  -0.261   0.131
    1UNL     H8   31   0.195   0.058   0.211
    1UNL     H9   32   0.068   0.229   0.103
    1UNL    H10   33  -0.021   0.213  -0.255
    1UNL    H11   34   0.039   0.348  -0.140
    1UNL    H12   35  -0.190   0.100  -0.238
    1UNL    H13   36  -0.111   0.091   0.114
    1UNL    H14   37  -0.247  -0.173   0.167
    1UNL    H15   38  -0.075  -0.140   0.201
    1UNL    H16   39  -0.059  -0.162  -0.027
    1UNL    H17   40  -0.395  -0.029   0.097
    1UNL    H18   41  -0.420   0.140   0.271
    1UNL    H19   42  -0.338   0.262   0.075
    1UNL    H20   43  -0.573   0.115   0.010
    1UNL    H21   44  -0.386   0.244  -0.161
    1UNL    H22   45  -0.383  -0.029  -0.182
    1UNL    H23   46   0.123   0.030  -0.277
    1UNL    H24   47   0.267  -0.140  -0.150
   0.00000   0.00000   0.00000   0.00000   0.00000   0.00000   0.00000   0.00000   0.00000
Generated with MDTraj, t= 61.0
 47
    1UNL     C1    1   0.281  -0.253   0.189
    1UNL     C2    2   0.348  -0.156   0.095
    1UNL     C3    3   0.434  -0.230  -0.012
    1UNL     O1    4   0.528  -0.301   0.060
    1UNL     C4    5   0.253  -0.056   0.028
    1UNL     C5    6   0.187   0.034   0.111
    1UNL     C6    7   0.110   0.143   0.058
    1UNL     C7    8   0.085   0.144  -0.077
    1UNL     C8    9   0.001   0.242  -0.152
    1UNL     O2   10  -0.125   0.254  -0.096
    1UNL     C9   11  -0.210   0.142  -0.141
    1UNL     O3   12  -0.174   0.018  -0.077
    1UNL    C10   13  -0.186   0.032   0.068
    1UNL    C11   14  -0.121  -0.091   0.137
    1UNL     O4   15  -0.075  -0.196   0.050
    1UNL    C12   16  -0.334   0.046   0.113
    1UNL     O5   17  -0.329   0.080   0.255
    1UNL    C13   18  -0.402   0.164   0.044
    1UNL     O6   19  -0.546   0.154   0.067
    1UNL    C14   20  -0.366   0.165  -0.111
    1UNL     O7   21  -0.450   0.064  -0.172
    1UNL    C15   22   0.150   0.051  -0.160
    1UNL    C16   23   0.220  -0.056  -0.105
    1UNL     H1   24   0.347  -0.328   0.216
    1UNL     H2   25   0.205  -0.307   0.135
    1UNL     H3   26   0.244  -0.200   0.277
    1UNL     H4   27   0.419  -0.097   0.152
    1UNL     H5   28   0.371  -0.303  -0.063
    1UNL     H6   29   0.485  -0.166  -0.087
    1UNL     H7   30   0.607  -0.240   0.076
    1UNL     H8   31   0.187   0.017   0.222
    1UNL     H9   32   0.082   0.235   0.105
    1UNL    H10   33  -0.005   0.235  -0.267
    1UNL    H11   34   0.051   0.339  -0.129
    1UNL    H12   35  -0.196   0.127  -0.253
    1UNL    H13   36  -0.138   0.129   0.090
    1UNL    H14   37  -0.185  -0.130   0.218
    1UNL    H15   38  -0.029  -0.063   0.192
    1UNL    H16   39  -0.079  -0.152  -0.042
    1UNL    H17   40  -0.377  -0.051   0.096
    1UNL    H18   41  -0.411   0.126   0.294
    1UNL    H19   42  -0.360   0.246   0.092
    1UNL    H20   43  -0.592   0.114  -0.005
    1UNL    H21   44  -0.398   0.256  -0.161
    1UNL    H22   45  -0.400  -0.016  -0.193
    1UNL    H23   46   0.108   0.041  -0.260
    1UNL    H24   47   0.260  -0.136  -0.171
   0.00000   0.00000   0.00000   0.00000   0.00000   0.00000   0.00000   0.00000   0.00000
Generated with MDTraj, t= 62.0
 47
    1UNL     C1    1   0.251  -0.256   0.166
    1UNL     C2    2   0.344  -0.161   0.089
    1UNL     C3    3   0.428  -0.238  -0.012
    1UNL     O1    4   0.540  -0.308   0.054
    1UNL     C4    5   0.264  -0.050   0.021
    1UNL     C5    6   0.233   0.066   0.096
    1UNL     C6    7   0.145   0.161   0.049
    1UNL     C7    8   0.079   0.138  -0.068
    1UNL     C8    9   0.006   0.243  -0.146
    1UNL     O2   10  -0.130   0.259  -0.104
    1UNL     C9   11  -0.217   0.148  -0.131
    1UNL     O3   12  -0.161   0.033  -0.067
    1UNL    C10   13  -0.191   0.025   0.071
    1UNL    C11   14  -0.103  -0.073   0.155
    1UNL     O4   15  -0.033  -0.171   0.080
    1UNL    C12   16  -0.343   0.031   0.101
    1UNL     O5   17  -0.368   0.031   0.240
    1UNL    C13   18  -0.402   0.157   0.042
    1UNL     O6   19  -0.546   0.182   0.058
    1UNL    C14   20  -0.370   0.156  -0.109
    1UNL     O7   21  -0.448   0.057  -0.175
    1UNL    C15   22   0.103   0.026  -0.136
    1UNL    C16   23   0.200  -0.069  -0.101
    1UNL     H1   24   0.298  -0.319   0.233
    1UNL     H2   25   0.206  -0.327   0.095
    1UNL     H3   26   0.177  -0.197   0.218
    1UNL     H4   27   0.419  -0.113   0.151
    1UNL     H5   28   0.375  -0.308  -0.075
    1UNL     H6   29   0.475  -0.168  -0.083
    1UNL     H7   30   0.557  -0.269   0.141
    1UNL     H8   31   0.282   0.094   0.182
    1UNL     H9   32   0.129   0.248   0.113
    1UNL    H10   33   0.012   0.226  -0.257
    1UNL    H11   34   0.060   0.335  -0.128
    1UNL    H12   35  -0.196   0.126  -0.242
    1UNL    H13   36  -0.166   0.126   0.106
    1UNL    H14   37  -0.166  -0.134   0.225
    1UNL    H15   38  -0.035  -0.015   0.223
    1UNL    H16   39  -0.007  -0.124  -0.002
    1UNL    H17   40  -0.398  -0.049   0.057
    1UNL    H18   41  -0.458   0.055   0.255
    1UNL    H19   42  -0.352   0.239   0.084
    1UNL    H20   43  -0.592   0.187  -0.025
    1UNL    H21   44  -0.399   0.250  -0.155
    1UNL    H22   45  -0.394  -0.023  -0.188
    1UNL    H23   46   0.066   0.008  -0.234
    1UNL    H24   47   0.198  -0.164  -0.149
   0.00000   0.00000   0.00000   0.00000   0.00000   0.00000   0.00000   0.00000   0.00000
Generated with MDTraj, t= 63.0
 47
    1UNL     C1    1   0.246  -0.272   0.140
    1UNL     C2    2   0.334  -0.152   0.089
    1UNL     C3    3   0.445  -0.195   0.001
    1UNL     O1    4   0.504  -0.323   0.044
    1UNL     C4    5   0.253  -0.041   0.019
    1UNL     C5    6   0.264   0.086   0.060
    1UNL     C6    7   0.190   0.185  -0.006
    1UNL     C7    8   0.104   0.158  -0.107
    1UNL     C8    9   0.001   0.258  -0.150
    1UNL     O2   10  -0.119   0.249  -0.069
    1UNL     C9   11  -0.196   0.132  -0.103
    1UNL     O3   12  -0.150   0.017  -0.029
    1UNL    C10   13  -0.207   0.011   0.102
    1UNL    C11   14  -0.150  -0.122   0.173
    1UNL     O4   15  -0.024  -0.169   0.129
    1UNL    C12   16  -0.355   0.031   0.108
    1UNL     O5   17  -0.404   0.046   0.236
    1UNL    C13   18  -0.405   0.157   0.040
    1UNL     O6   19  -0.547   0.171   0.036
    1UNL    C14   20  -0.352   0.156  -0.108
    1UNL     O7   21  -0.430   0.063  -0.190
    1UNL    C15   22   0.106   0.032  -0.159
    1UNL    C16   23   0.187  -0.069  -0.098
    1UNL     H1   24   0.299  -0.359   0.168
    1UNL     H2   25   0.177  -0.306   0.063
    1UNL     H3   26   0.190  -0.238   0.222
    1UNL     H4   27   0.386  -0.110   0.175
    1UNL     H5   28   0.416  -0.219  -0.099
    1UNL     H6   29   0.524  -0.122  -0.014
    1UNL     H7   30   0.542  -0.309   0.131
    1UNL     H8   31   0.332   0.116   0.145
    1UNL     H9   32   0.182   0.285   0.032
    1UNL    H10   33  -0.017   0.233  -0.255
    1UNL    H11   34   0.030   0.360  -0.153
    1UNL    H12   35  -0.169   0.093  -0.208
    1UNL    H13   36  -0.158   0.090   0.158
    1UNL    H14   37  -0.221  -0.204   0.147
    1UNL    H15   38  -0.153  -0.117   0.285
    1UNL    H16   39   0.005  -0.127   0.046
    1UNL    H17   40  -0.403  -0.054   0.064
    1UNL    H18   41  -0.499   0.070   0.227
    1UNL    H19   42  -0.364   0.234   0.101
    1UNL    H20   43  -0.574   0.165  -0.062
    1UNL    H21   44  -0.378   0.252  -0.150
    1UNL    H22   45  -0.377  -0.020  -0.201
    1UNL    H23   46   0.040   0.015  -0.248
    1UNL    H24   47   0.178  -0.174  -0.133
   0.00000   0.00000   0.00000   0.00000   0.00000   0.00000   0.00000   0.00000   0.00000
Generated with MDTraj, t= 64.0
 47
    1UNL     C1    1   0.254  -0.269   0.101
    1UNL     C2    2   0.351  -0.153   0.067
    1UNL     C3    3   0.465  -0.215  -0.017
    1UNL     O1    4   0.522  -0.324   0.050
    1UNL     C4    5   0.273  -0.041   0.003
    1UNL     C5    6   0.284   0.090   0.054
    1UNL     C6    7   0.199   0.192  -0.000
    1UNL     C7    8   0.113   0.160  -0.104
    1UNL     C8    9  -0.005   0.259  -0.132
    1UNL     O2   10  -0.120   0.238  -0.052
    1UNL     C9   11  -0.192   0.130  -0.100
    1UNL     O3   12  -0.166   0.005  -0.037
    1UNL    C10   13  -0.223   0.010   0.099
    1UNL    C11   14  -0.193  -0.122   0.180
    1UNL     O4   15  -0.056  -0.139   0.202
    1UNL    C12   16  -0.372   0.035   0.104
    1UNL     O5   17  -0.408   0.048   0.237
    1UNL    C13   18  -0.415   0.160   0.028
    1UNL     O6   19  -0.554   0.174   0.023
    1UNL    C14   20  -0.347   0.155  -0.113
    1UNL     O7   21  -0.415   0.051  -0.183
    1UNL    C15   22   0.119   0.033  -0.167
    1UNL    C16   23   0.191  -0.067  -0.108
    1UNL     H1   24   0.303  -0.358   0.141
    1UNL     H2   25   0.211  -0.298   0.009
    1UNL     H3   26   0.180  -0.242   0.169
    1UNL     H4   27   0.391  -0.117   0.162
    1UNL     H5   28   0.432  -0.249  -0.113
    1UNL     H6   29   0.549  -0.150  -0.043
    1UNL     H7   30   0.576  -0.283   0.124
    1UNL     H8   31   0.321   0.102   0.152
    1UNL     H9   32   0.206   0.284   0.058
    1UNL    H10   33  -0.040   0.263  -0.234
    1UNL    H11   34   0.040   0.351  -0.116
    1UNL    H12   35  -0.155   0.109  -0.205
    1UNL    H13   36  -0.172   0.097   0.142
    1UNL    H14   37  -0.236  -0.215   0.137
    1UNL    H15   38  -0.242  -0.117   0.279
    1UNL    H16   39  -0.005  -0.110   0.123
    1UNL    H17   40  -0.424  -0.047   0.058
    1UNL    H18   41  -0.506   0.068   0.251
    1UNL    H19   42  -0.383   0.245   0.088
    1UNL    H20   43  -0.590   0.129  -0.055
    1UNL    H21   44  -0.362   0.251  -0.163
    1UNL    H22   45  -0.339  -0.011  -0.196
    1UNL    H23   46   0.039  -0.002  -0.224
    1UNL    H24   47   0.195  -0.157  -0.162
   0.00000   0.00000   0.00000   0.00000   0.00000   0.00000   0.00000   0.00000   0.00000
Generated with MDTraj, t= 65.0
 47
    1UNL     C1    1   0.279  -0.277   0.095
    1UNL     C2    2   0.371  -0.165   0.048
    1UNL     C3    3   0.474  -0.232  -0.049
    1UNL     O1    4   0.570  -0.303   0.021
    1UNL     C4    5   0.277  -0.053   0.008
    1UNL     C5    6   0.264   0.062   0.077
    1UNL     C6    7   0.173   0.159   0.049
    1UNL     C7    8   0.098   0.140  -0.065
    1UNL     C8    9   0.003   0.246  -0.107
    1UNL     O2   10  -0.130   0.236  -0.064
    1UNL     C9   11  -0.194   0.115  -0.108
    1UNL     O3   12  -0.173   0.002  -0.025
    1UNL    C10   13  -0.232   0.022   0.110
    1UNL    C11   14  -0.182  -0.090   0.194
    1UNL     O4   15  -0.041  -0.079   0.179
    1UNL    C12   16  -0.388   0.035   0.103
    1UNL     O5   17  -0.433   0.062   0.228
    1UNL    C13   18  -0.415   0.165   0.011
    1UNL     O6   19  -0.556   0.193   0.015
    1UNL    C14   20  -0.345   0.146  -0.123
    1UNL     O7   21  -0.421   0.051  -0.197
    1UNL    C15   22   0.099   0.017  -0.133
    1UNL    C16   23   0.197  -0.073  -0.100
    1UNL     H1   24   0.328  -0.349   0.162
    1UNL     H2   25   0.244  -0.331   0.015
    1UNL     H3   26   0.197  -0.242   0.152
    1UNL     H4   27   0.429  -0.136   0.135
    1UNL     H5   28   0.431  -0.309  -0.113
    1UNL     H6   29   0.515  -0.165  -0.125
    1UNL     H7   30   0.637  -0.245   0.071
    1UNL     H8   31   0.321   0.073   0.171
    1UNL     H9   32   0.144   0.240   0.116
    1UNL    H10   33   0.014   0.259  -0.212
    1UNL    H11   34   0.031   0.338  -0.069
    1UNL    H12   35  -0.158   0.075  -0.207
    1UNL    H13   36  -0.197   0.118   0.151
    1UNL    H14   37  -0.215  -0.189   0.161
    1UNL    H15   38  -0.200  -0.091   0.301
    1UNL    H16   39  -0.024  -0.053   0.088
    1UNL    H17   40  -0.432  -0.056   0.061
    1UNL    H18   41  -0.527   0.095   0.230
    1UNL    H19   42  -0.369   0.254   0.058
    1UNL    H20   43  -0.602   0.152  -0.062
    1UNL    H21   44  -0.354   0.239  -0.182
    1UNL    H22   45  -0.371  -0.031  -0.212
    1UNL    H23   46   0.033   0.005  -0.221
    1UNL    H24   47   0.204  -0.168  -0.157
   0.00000   0.00000   0.00000   0.00000   0.00000   0.00000   0.00000   0.00000   0.00000
Generated with MDTraj, t= 66.0
 47
    1UNL     C1    1   0.341  -0.322   0.116
    1UNL     C2    2   0.379  -0.180   0.071
    1UNL     C3    3   0.464  -0.185  -0.054
    1UNL     O1    4   0.571  -0.277  -0.045
    1UNL     C4    5   0.258  -0.091   0.042
    1UNL     C5    6   0.230   0.023   0.117
    1UNL     C6    7   0.162   0.131   0.070
    1UNL     C7    8   0.093   0.125  -0.055
    1UNL     C8    9   0.018   0.247  -0.100
    1UNL     O2   10  -0.124   0.247  -0.084
    1UNL     C9   11  -0.201   0.127  -0.125
    1UNL     O3   12  -0.171   0.016  -0.038
    1UNL    C10   13  -0.215   0.047   0.093
    1UNL    C11   14  -0.181  -0.061   0.186
    1UNL     O4   15  -0.039  -0.063   0.193
    1UNL    C12   16  -0.372   0.060   0.101
    1UNL     O5   17  -0.418   0.078   0.227
    1UNL    C13   18  -0.426   0.178   0.009
    1UNL     O6   19  -0.567   0.159  -0.002
    1UNL    C14   20  -0.363   0.149  -0.128
    1UNL     O7   21  -0.442   0.048  -0.193
    1UNL    C15   22   0.099   0.004  -0.126
    1UNL    C16   23   0.185  -0.097  -0.080
    1UNL     H1   24   0.417  -0.397   0.117
    1UNL     H2   25   0.266  -0.353   0.052
    1UNL     H3   26   0.299  -0.322   0.215
    1UNL     H4   27   0.434  -0.141   0.157
    1UNL     H5   28   0.402  -0.196  -0.143
    1UNL     H6   29   0.503  -0.082  -0.072
    1UNL     H7   30   0.622  -0.267   0.039
    1UNL     H8   31   0.292   0.036   0.203
    1UNL     H9   32   0.112   0.193   0.145
    1UNL    H10   33   0.028   0.270  -0.206
    1UNL    H11   34   0.065   0.331  -0.060
    1UNL    H12   35  -0.170   0.097  -0.226
    1UNL    H13   36  -0.170   0.139   0.136
    1UNL    H14   37  -0.221  -0.159   0.164
    1UNL    H15   38  -0.214  -0.038   0.285
    1UNL    H16   39  -0.011  -0.050   0.097
    1UNL    H17   40  -0.415  -0.035   0.062
    1UNL    H18   41  -0.513   0.089   0.223
    1UNL    H19   42  -0.386   0.275   0.053
    1UNL    H20   43  -0.579   0.099  -0.085
    1UNL    H21   44  -0.369   0.243  -0.189
    1UNL    H22   45  -0.395  -0.037  -0.205
    1UNL    H23   46   0.058  -0.012  -0.223
    1UNL    H24   47   0.206  -0.182  -0.137
   0.00000   0.00000   0.00000   0.00000   0.00000   0.00000   0.00000   0.00000   0.00000
Generated with MDTraj, t= 67.0
 47
    1UNL     C1    1   0.312  -0.314   0.095
    1UNL     C2    2   0.373  -0.172   0.063
    1UNL     C3    3   0.469  -0.161  -0.060
    1UNL     O1    4   0.588  -0.246  -0.057
    1UNL     C4    5   0.256  -0.082   0.038
    1UNL     C5    6   0.249   0.041   0.103
    1UNL     C6    7   0.155   0.134   0.066
    1UNL     C7    8   0.077   0.106  -0.045
    1UNL     C8    9   0.005   0.218  -0.097
    1UNL     O2   10  -0.128   0.229  -0.066
    1UNL     C9   11  -0.196   0.118  -0.117
    1UNL     O3   12  -0.172   0.010  -0.031
    1UNL    C10   13  -0.221   0.041   0.101
    1UNL    C11   14  -0.182  -0.077   0.201
    1UNL     O4   15  -0.041  -0.098   0.210
    1UNL    C12   16  -0.381   0.065   0.103
    1UNL     O5   17  -0.421   0.108   0.230
    1UNL    C13   18  -0.407   0.178  -0.006
    1UNL     O6   19  -0.547   0.190  -0.017
    1UNL    C14   20  -0.345   0.143  -0.136
    1UNL     O7   21  -0.417   0.046  -0.208
    1UNL    C15   22   0.078  -0.020  -0.105
    1UNL    C16   23   0.169  -0.109  -0.065
    1UNL     H1   24   0.377  -0.390   0.123
    1UNL     H2   25   0.253  -0.342   0.010
    1UNL     H3   26   0.245  -0.307   0.179
    1UNL     H4   27   0.420  -0.137   0.156
    1UNL     H5   28   0.412  -0.191  -0.149
    1UNL     H6   29   0.487  -0.053  -0.085
    1UNL     H7   30   0.624  -0.253   0.031
    1UNL     H8   31   0.292   0.045   0.202
    1UNL     H9   32   0.139   0.234   0.105
    1UNL    H10   33   0.023   0.240  -0.205
    1UNL    H11   34   0.040   0.310  -0.059
    1UNL    H12   35  -0.157   0.096  -0.215
    1UNL    H13   36  -0.166   0.129   0.141
    1UNL    H14   37  -0.229  -0.164   0.160
    1UNL    H15   38  -0.222  -0.067   0.300
    1UNL    H16   39   0.003  -0.070   0.123
    1UNL    H17   40  -0.446  -0.022   0.072
    1UNL    H18   41  -0.508   0.145   0.227
    1UNL    H19   42  -0.371   0.277   0.042
    1UNL    H20   43  -0.584   0.131  -0.088
    1UNL    H21   44  -0.357   0.241  -0.193
    1UNL    H22   45  -0.377  -0.046  -0.207
    1UNL    H23   46   0.014  -0.042  -0.190
    1UNL    H24   47   0.191  -0.194  -0.129
   0.00000   0.00000   0.00000   0.00000   0.00000   0.00000   0.00000   0.00000   0.00000
Generated with MDTraj, t= 68.0
 47
    1UNL     C1    1   0.324  -0.322   0.073
    1UNL     C2    2   0.383  -0.185   0.057
    1UNL     C3    3   0.492  -0.184  -0.054
    1UNL     O1    4   0.605  -0.249  -0.008
    1UNL     C4    5   0.278  -0.077   0.026
    1UNL     C5    6   0.289   0.053   0.078
    1UNL     C6    7   0.205   0.154   0.036
    1UNL     C7    8   0.108   0.136  -0.060
    1UNL     C8    9   0.004   0.237  -0.104
    1UNL     O2   10  -0.132   0.225  -0.059
    1UNL     C9   11  -0.202   0.111  -0.111
    1UNL     O3   12  -0.202  -0.002  -0.027
    1UNL    C10   13  -0.244   0.027   0.103
    1UNL    C11   14  -0.221  -0.093   0.197
    1UNL     O4   15  -0.085  -0.122   0.200
    1UNL    C12   16  -0.395   0.065   0.112
    1UNL     O5   17  -0.441   0.117   0.233
    1UNL    C13   18  -0.417   0.178   0.004
    1UNL     O6   19  -0.550   0.229  -0.010
    1UNL    C14   20  -0.358   0.135  -0.135
    1UNL     O7   21  -0.425   0.015  -0.184
    1UNL    C15   22   0.103   0.007  -0.117
    1UNL    C16   23   0.180  -0.098  -0.074
    1UNL     H1   24   0.385  -0.399   0.103
    1UNL     H2   25   0.275  -0.345  -0.024
    1UNL     H3   26   0.241  -0.319   0.140
    1UNL     H4   27   0.434  -0.158   0.150
    1UNL     H5   28   0.458  -0.237  -0.145
    1UNL     H6   29   0.529  -0.085  -0.092
    1UNL     H7   30   0.642  -0.205   0.071
    1UNL     H8   31   0.339   0.066   0.175
    1UNL     H9   32   0.214   0.248   0.088
    1UNL    H10   33  -0.003   0.238  -0.217
    1UNL    H11   34   0.038   0.337  -0.084
    1UNL    H12   35  -0.162   0.093  -0.208
    1UNL    H13   36  -0.170   0.102   0.140
    1UNL    H14   37  -0.280  -0.178   0.166
    1UNL    H15   38  -0.255  -0.062   0.295
    1UNL    H16   39  -0.039  -0.097   0.119
    1UNL    H17   40  -0.456  -0.025   0.081
    1UNL    H18   41  -0.519   0.177   0.229
    1UNL    H19   42  -0.353   0.266   0.046
    1UNL    H20   43  -0.597   0.172  -0.067
    1UNL    H21   44  -0.362   0.223  -0.206
    1UNL    H22   45  -0.362  -0.060  -0.168
    1UNL    H23   46   0.032  -0.005  -0.201
    1UNL    H24   47   0.187  -0.195  -0.121
   0.00000   0.00000   0.00000   0.00000   0.00000   0.00000   0.00000   0.00000   0.00000
Generated with MDTraj, t= 69.0
 47
    1UNL     C1    1   0.350  -0.295   0.084
    1UNL     C2    2   0.404  -0.161   0.042
    1UNL     C3    3   0.530  -0.189  -0.041
    1UNL     O1    4   0.600  -0.284   0.035
    1UNL     C4    5   0.297  -0.063  -0.005
    1UNL     C5    6   0.282   0.056   0.063
    1UNL     C6    7   0.188   0.149   0.018
    1UNL     C7    8   0.094   0.121  -0.077
    1UNL     C8    9   0.000   0.223  -0.128
    1UNL     O2   10  -0.131   0.228  -0.064
    1UNL     C9   11  -0.208   0.121  -0.111
    1UNL     O3   12  -0.202   0.006  -0.016
    1UNL    C10   13  -0.253   0.026   0.118
    1UNL    C11   14  -0.233  -0.100   0.209
    1UNL     O4   15  -0.104  -0.154   0.191
    1UNL    C12   16  -0.398   0.075   0.119
    1UNL     O5   17  -0.447   0.099   0.244
    1UNL    C13   18  -0.417   0.185   0.014
    1UNL     O6   19  -0.554   0.216   0.002
    1UNL    C14   20  -0.359   0.157  -0.126
    1UNL     O7   21  -0.431   0.055  -0.188
    1UNL    C15   22   0.103  -0.006  -0.133
    1UNL    C16   23   0.197  -0.094  -0.093
    1UNL     H1   24   0.420  -0.351   0.140
    1UNL     H2   25   0.317  -0.350  -0.006
    1UNL     H3   26   0.262  -0.289   0.141
    1UNL     H4   27   0.439  -0.109   0.133
    1UNL     H5   28   0.527  -0.238  -0.140
    1UNL     H6   29   0.593  -0.098  -0.054
    1UNL     H7   30   0.634  -0.232   0.114
    1UNL     H8   31   0.347   0.087   0.140
    1UNL     H9   32   0.151   0.219   0.094
    1UNL    H10   33  -0.009   0.198  -0.240
    1UNL    H11   34   0.045   0.324  -0.128
    1UNL    H12   35  -0.180   0.088  -0.208
    1UNL    H13   36  -0.197   0.114   0.153
    1UNL    H14   37  -0.303  -0.180   0.174
    1UNL    H15   38  -0.257  -0.080   0.316
    1UNL    H16   39  -0.081  -0.139   0.093
    1UNL    H17   40  -0.462  -0.006   0.072
    1UNL    H18   41  -0.528   0.162   0.245
    1UNL    H19   42  -0.362   0.277   0.059
    1UNL    H20   43  -0.589   0.175  -0.083
    1UNL    H21   44  -0.377   0.245  -0.192
    1UNL    H22   45  -0.389  -0.031  -0.185
    1UNL    H23   46   0.045  -0.028  -0.217
    1UNL    H24   47   0.198  -0.191  -0.137
   0.00000   0.00000   0.00000   0.00000   0.00000   0.00000   0.00000   0.00000   0.00000
Generated with MDTraj, t= 70.0
 47
    1UNL     C1    1   0.312  -0.286   0.109
    1UNL     C2    2   0.387  -0.160   0.074
    1UNL     C3    3   0.495  -0.176  -0.030
    1UNL     O1    4   0.602  -0.259   0.018
    1UNL     C4    5   0.289  -0.065   0.017
    1UNL     C5    6   0.285   0.064   0.069
    1UNL     C6    7   0.189   0.151   0.017
    1UNL     C7    8   0.119   0.108  -0.097
    1UNL     C8    9   0.005   0.192  -0.150
    1UNL     O2   10  -0.115   0.195  -0.066
    1UNL     C9   11  -0.215   0.109  -0.107
    1UNL     O3   12  -0.231  -0.012  -0.023
    1UNL    C10   13  -0.252   0.018   0.110
    1UNL    C11   14  -0.215  -0.106   0.189
    1UNL     O4   15  -0.081  -0.137   0.170
    1UNL    C12   16  -0.395   0.069   0.124
    1UNL     O5   17  -0.444   0.093   0.249
    1UNL    C13   18  -0.420   0.194   0.036
    1UNL     O6   19  -0.560   0.209   0.020
    1UNL    C14   20  -0.358   0.173  -0.112
    1UNL     O7   21  -0.450   0.100  -0.197
    1UNL    C15   22   0.142  -0.012  -0.157
    1UNL    C16   23   0.231  -0.101  -0.100
    1UNL     H1   24   0.372  -0.357   0.166
    1UNL     H2   25   0.267  -0.326   0.020
    1UNL     H3   26   0.230  -0.257   0.167
    1UNL     H4   27   0.429  -0.116   0.166
    1UNL     H5   28   0.446  -0.228  -0.113
    1UNL     H6   29   0.541  -0.085  -0.069
    1UNL     H7   30   0.642  -0.216   0.099
    1UNL     H8   31   0.326   0.079   0.174
    1UNL     H9   32   0.163   0.244   0.065
    1UNL    H10   33  -0.017   0.162  -0.259
    1UNL    H11   34   0.043   0.296  -0.158
    1UNL    H12   35  -0.184   0.067  -0.200
    1UNL    H13   36  -0.192   0.109   0.129
    1UNL    H14   37  -0.267  -0.200   0.154
    1UNL    H15   38  -0.225  -0.109   0.301
    1UNL    H16   39  -0.064  -0.116   0.077
    1UNL    H17   40  -0.459  -0.011   0.077
    1UNL    H18   41  -0.517   0.159   0.238
    1UNL    H19   42  -0.381   0.279   0.107
    1UNL    H20   43  -0.583   0.179  -0.074
    1UNL    H21   44  -0.340   0.272  -0.157
    1UNL    H22   45  -0.432   0.005  -0.195
    1UNL    H23   46   0.101  -0.030  -0.258
    1UNL    H24   47   0.259  -0.194  -0.149
   0.00000   0.00000   0.00000   0.00000   0.00000   0.00000   0.00000   0.00000   0.00000
Generated with MDTraj, t= 71.0
 47
    1UNL     C1    1   0.335  -0.275   0.154
    1UNL     C2    2   0.390  -0.151   0.076
    1UNL     C3    3   0.505  -0.185  -0.024
    1UNL     O1    4   0.601  -0.268   0.049
    1UNL     C4    5   0.277  -0.075   0.003
    1UNL     C5    6   0.247   0.042   0.071
    1UNL     C6    7   0.147   0.123   0.031
    1UNL     C7    8   0.081   0.098  -0.092
    1UNL     C8    9  -0.002   0.215  -0.148
    1UNL     O2   10  -0.133   0.225  -0.095
    1UNL     C9   11  -0.228   0.123  -0.131
    1UNL     O3   12  -0.200   0.009  -0.056
    1UNL    C10   13  -0.227   0.022   0.084
    1UNL    C11   14  -0.194  -0.108   0.168
    1UNL     O4   15  -0.054  -0.136   0.174
    1UNL    C12   16  -0.373   0.065   0.109
    1UNL     O5   17  -0.419   0.056   0.246
    1UNL    C13   18  -0.405   0.194   0.035
    1UNL     O6   19  -0.539   0.232   0.056
    1UNL    C14   20  -0.374   0.173  -0.112
    1UNL     O7   21  -0.467   0.102  -0.184
    1UNL    C15   22   0.109  -0.019  -0.162
    1UNL    C16   23   0.205  -0.113  -0.109
    1UNL     H1   24   0.420  -0.328   0.199
    1UNL     H2   25   0.284  -0.333   0.086
    1UNL     H3   26   0.270  -0.250   0.233
    1UNL     H4   27   0.438  -0.081   0.146
    1UNL     H5   28   0.481  -0.247  -0.111
    1UNL     H6   29   0.551  -0.091  -0.049
    1UNL     H7   30   0.647  -0.227   0.123
    1UNL     H8   31   0.282   0.055   0.169
    1UNL     H9   32   0.127   0.207   0.099
    1UNL    H10   33  -0.008   0.203  -0.263
    1UNL    H11   34   0.049   0.315  -0.132
    1UNL    H12   35  -0.223   0.089  -0.235
    1UNL    H13   36  -0.161   0.102   0.120
    1UNL    H14   37  -0.236  -0.207   0.134
    1UNL    H15   38  -0.221  -0.103   0.276
    1UNL    H16   39  -0.014  -0.120   0.085
    1UNL    H17   40  -0.434  -0.010   0.053
    1UNL    H18   41  -0.495   0.112   0.260
    1UNL    H19   42  -0.338   0.276   0.083
    1UNL    H20   43  -0.595   0.197  -0.012
    1UNL    H21   44  -0.372   0.272  -0.154
    1UNL    H22   45  -0.432   0.008  -0.190
    1UNL    H23   46   0.057  -0.045  -0.252
    1UNL    H24   47   0.244  -0.184  -0.178
   0.00000   0.00000   0.00000   0.00000   0.00000   0.00000   0.00000   0.00000   0.00000
Generated with MDTraj, t= 72.0
 47
    1UNL     C1    1   0.298  -0.284   0.167
    1UNL     C2    2   0.362  -0.166   0.100
    1UNL     C3    3   0.467  -0.201  -0.008
    1UNL     O1    4   0.591  -0.254   0.034
    1UNL     C4    5   0.263  -0.065   0.042
    1UNL     C5    6   0.219   0.050   0.100
    1UNL     C6    7   0.128   0.137   0.031
    1UNL     C7    8   0.078   0.104  -0.093
    1UNL     C8    9  -0.008   0.197  -0.169
    1UNL     O2   10  -0.128   0.235  -0.117
    1UNL     C9   11  -0.227   0.132  -0.146
    1UNL     O3   12  -0.208   0.003  -0.083
    1UNL    C10   13  -0.218   0.016   0.061
    1UNL    C11   14  -0.163  -0.114   0.121
    1UNL     O4   15  -0.020  -0.118   0.128
    1UNL    C12   16  -0.360   0.047   0.114
    1UNL     O5   17  -0.359   0.058   0.259
    1UNL    C13   18  -0.398   0.189   0.053
    1UNL     O6   19  -0.539   0.228   0.071
    1UNL    C14   20  -0.372   0.184  -0.105
    1UNL     O7   21  -0.465   0.088  -0.167
    1UNL    C15   22   0.117  -0.016  -0.146
    1UNL    C16   23   0.210  -0.094  -0.079
    1UNL     H1   24   0.379  -0.352   0.200
    1UNL     H2   25   0.224  -0.333   0.115
    1UNL     H3   26   0.253  -0.252   0.260
    1UNL     H4   27   0.413  -0.106   0.178
    1UNL     H5   28   0.410  -0.280  -0.058
    1UNL     H6   29   0.491  -0.117  -0.072
    1UNL     H7   30   0.654  -0.181   0.037
    1UNL     H8   31   0.262   0.075   0.201
    1UNL     H9   32   0.087   0.217   0.084
    1UNL    H10   33  -0.029   0.180  -0.281
    1UNL    H11   34   0.045   0.296  -0.162
    1UNL    H12   35  -0.239   0.101  -0.255
    1UNL    H13   36  -0.145   0.089   0.098
    1UNL    H14   37  -0.203  -0.192   0.052
    1UNL    H15   38  -0.205  -0.131   0.221
    1UNL    H16   39   0.018  -0.101   0.036
    1UNL    H17   40  -0.433  -0.024   0.074
    1UNL    H18   41  -0.442   0.092   0.302
    1UNL    H19   42  -0.335   0.272   0.099
    1UNL    H20   43  -0.601   0.162   0.025
    1UNL    H21   44  -0.391   0.282  -0.144
    1UNL    H22   45  -0.418  -0.000  -0.160
    1UNL    H23   46   0.110  -0.027  -0.254
    1UNL    H24   47   0.239  -0.186  -0.135
   0.00000   0.00000   0.00000   0.00000   0.00000   0.00000   0.00000   0.00000   0.00000
Generated with MDTraj, t= 73.0
 47
    1UNL     C1    1   0.274  -0.258   0.174
    1UNL     C2    2   0.345  -0.146   0.099
    1UNL     C3    3   0.459  -0.214   0.014
    1UNL     O1    4   0.569  -0.271   0.082
    1UNL     C4    5   0.255  -0.049   0.018
    1UNL     C5    6   0.219   0.070   0.083
    1UNL     C6    7   0.132   0.162   0.018
    1UNL     C7    8   0.077   0.129  -0.102
    1UNL     C8    9  -0.014   0.232  -0.168
    1UNL     O2   10  -0.144   0.234  -0.107
    1UNL     C9   11  -0.231   0.116  -0.140
    1UNL     O3   12  -0.199  -0.010  -0.079
    1UNL    C10   13  -0.188   0.002   0.065
    1UNL    C11   14  -0.155  -0.136   0.131
    1UNL     O4   15  -0.032  -0.193   0.086
    1UNL    C12   16  -0.322   0.055   0.117
    1UNL     O5   17  -0.324   0.077   0.258
    1UNL    C13   18  -0.385   0.186   0.048
    1UNL     O6   19  -0.516   0.203   0.090
    1UNL    C14   20  -0.369   0.171  -0.104
    1UNL     O7   21  -0.465   0.101  -0.169
    1UNL    C15   22   0.100   0.004  -0.163
    1UNL    C16   23   0.190  -0.086  -0.106
    1UNL     H1   24   0.339  -0.296   0.248
    1UNL     H2   25   0.250  -0.336   0.105
    1UNL     H3   26   0.182  -0.229   0.224
    1UNL     H4   27   0.392  -0.077   0.172
    1UNL     H5   28   0.419  -0.294  -0.053
    1UNL     H6   29   0.495  -0.124  -0.037
    1UNL     H7   30   0.606  -0.203   0.146
    1UNL     H8   31   0.243   0.086   0.184
    1UNL     H9   32   0.099   0.254   0.076
    1UNL    H10   33  -0.036   0.209  -0.277
    1UNL    H11   34   0.029   0.335  -0.163
    1UNL    H12   35  -0.233   0.082  -0.250
    1UNL    H13   36  -0.104   0.067   0.097
    1UNL    H14   37  -0.243  -0.198   0.113
    1UNL    H15   38  -0.149  -0.111   0.237
    1UNL    H16   39  -0.036  -0.196  -0.014
    1UNL    H17   40  -0.394  -0.021   0.091
    1UNL    H18   41  -0.414   0.108   0.293
    1UNL    H19   42  -0.320   0.272   0.077
    1UNL    H20   43  -0.580   0.157   0.032
    1UNL    H21   44  -0.378   0.272  -0.143
    1UNL    H22   45  -0.444   0.007  -0.162
    1UNL    H23   46   0.062  -0.008  -0.262
    1UNL    H24   47   0.219  -0.174  -0.153
   0.00000   0.00000   0.00000   0.00000   0.00000   0.00000   0.00000   0.00000   0.00000
Generated with MDTraj, t= 74.0
 47
    1UNL     C1    1   0.227  -0.243   0.158
    1UNL     C2    2   0.332  -0.134   0.107
    1UNL     C3    3   0.457  -0.198   0.034
    1UNL     O1    4   0.521  -0.300   0.114
    1UNL     C4    5   0.265  -0.026   0.020
    1UNL     C5    6   0.234   0.100   0.065
    1UNL     C6    7   0.144   0.176  -0.008
    1UNL     C7    8   0.092   0.141  -0.130
    1UNL     C8    9  -0.017   0.219  -0.195
    1UNL     O2   10  -0.137   0.229  -0.111
    1UNL     C9   11  -0.225   0.124  -0.134
    1UNL     O3   12  -0.191   0.002  -0.073
    1UNL    C10   13  -0.185   0.004   0.071
    1UNL    C11   14  -0.165  -0.145   0.103
    1UNL     O4   15  -0.068  -0.203   0.018
    1UNL    C12   16  -0.318   0.058   0.131
    1UNL     O5   17  -0.331   0.072   0.270
    1UNL    C13   18  -0.376   0.192   0.063
    1UNL     O6   19  -0.504   0.200   0.106
    1UNL    C14   20  -0.369   0.157  -0.095
    1UNL     O7   21  -0.444   0.040  -0.107
    1UNL    C15   22   0.134   0.016  -0.174
    1UNL    C16   23   0.219  -0.066  -0.103
    1UNL     H1   24   0.283  -0.321   0.194
    1UNL     H2   25   0.162  -0.277   0.075
    1UNL     H3   26   0.167  -0.212   0.242
    1UNL     H4   27   0.380  -0.088   0.194
    1UNL     H5   28   0.409  -0.256  -0.049
    1UNL     H6   29   0.533  -0.121   0.006
    1UNL     H7   30   0.521  -0.296   0.214
    1UNL     H8   31   0.250   0.134   0.170
    1UNL     H9   32   0.130   0.272   0.026
    1UNL    H10   33  -0.035   0.184  -0.298
    1UNL    H11   34   0.016   0.324  -0.199
    1UNL    H12   35  -0.200   0.100  -0.244
    1UNL    H13   36  -0.101   0.066   0.107
    1UNL    H14   37  -0.257  -0.200   0.088
    1UNL    H15   38  -0.129  -0.161   0.203
    1UNL    H16   39  -0.085  -0.154  -0.063
    1UNL    H17   40  -0.392  -0.014   0.104
    1UNL    H18   41  -0.423   0.096   0.292
    1UNL    H19   42  -0.321   0.278   0.102
    1UNL    H20   43  -0.562   0.140   0.061
    1UNL    H21   44  -0.409   0.241  -0.155
    1UNL    H22   45  -0.383  -0.036  -0.116
    1UNL    H23   46   0.103  -0.011  -0.275
    1UNL    H24   47   0.271  -0.146  -0.161
   0.00000   0.00000   0.00000   0.00000   0.00000   0.00000   0.00000   0.00000   0.00000
Generated with MDTraj, t= 75.0
 47
    1UNL     C1    1   0.212  -0.225   0.149
    1UNL     C2    2   0.318  -0.125   0.111
    1UNL     C3    3   0.435  -0.202   0.054
    1UNL     O1    4   0.483  -0.306   0.139
    1UNL     C4    5   0.257  -0.021   0.017
    1UNL     C5    6   0.210   0.106   0.073
    1UNL     C6    7   0.124   0.186  -0.001
    1UNL     C7    8   0.076   0.139  -0.123
    1UNL     C8    9  -0.028   0.226  -0.192
    1UNL     O2   10  -0.151   0.221  -0.116
    1UNL     C9   11  -0.229   0.109  -0.148
    1UNL     O3   12  -0.198  -0.018  -0.091
    1UNL    C10   13  -0.176  -0.009   0.050
    1UNL    C11   14  -0.136  -0.142   0.106
    1UNL     O4   15  -0.031  -0.200   0.030
    1UNL    C12   16  -0.296   0.044   0.126
    1UNL     O5   17  -0.270   0.051   0.265
    1UNL    C13   18  -0.352   0.171   0.068
    1UNL     O6   19  -0.465   0.214   0.128
    1UNL    C14   20  -0.371   0.158  -0.088
    1UNL     O7   21  -0.462   0.068  -0.141
    1UNL    C15   22   0.117   0.023  -0.178
    1UNL    C16   23   0.210  -0.058  -0.110
    1UNL     H1   24   0.243  -0.281   0.232
    1UNL     H2   25   0.185  -0.292   0.063
    1UNL     H3   26   0.123  -0.179   0.182
    1UNL     H4   27   0.351  -0.063   0.196
    1UNL     H5   28   0.401  -0.247  -0.043
    1UNL     H6   29   0.516  -0.126   0.043
    1UNL     H7   30   0.509  -0.262   0.221
    1UNL     H8   31   0.265   0.137   0.158
    1UNL     H9   32   0.066   0.273   0.040
    1UNL    H10   33  -0.049   0.190  -0.292
    1UNL    H11   34   0.011   0.327  -0.195
    1UNL    H12   35  -0.237   0.113  -0.261
    1UNL    H13   36  -0.089   0.058   0.054
    1UNL    H14   37  -0.210  -0.218   0.091
    1UNL    H15   38  -0.103  -0.151   0.207
    1UNL    H16   39  -0.058  -0.175  -0.064
    1UNL    H17   40  -0.372  -0.030   0.112
    1UNL    H18   41  -0.346   0.072   0.319
    1UNL    H19   42  -0.276   0.245   0.089
    1UNL    H20   43  -0.544   0.173   0.081
    1UNL    H21   44  -0.411   0.257  -0.127
    1UNL    H22   45  -0.439  -0.024  -0.109
    1UNL    H23   46   0.096   0.003  -0.281
    1UNL    H24   47   0.252  -0.140  -0.161
   0.00000   0.00000   0.00000   0.00000   0.00000   0.00000   0.00000   0.00000   0.00000
Generated with MDTraj, t= 76.0
 47
    1UNL     C1    1   0.234  -0.233   0.218
    1UNL     C2    2   0.313  -0.130   0.137
    1UNL     C3    3   0.426  -0.202   0.059
    1UNL     O1    4   0.515  -0.281   0.135
    1UNL     C4    5   0.235  -0.036   0.040
    1UNL     C5    6   0.186   0.086   0.081
    1UNL     C6    7   0.110   0.164   0.002
    1UNL     C7    8   0.082   0.134  -0.134
    1UNL     C8    9  -0.021   0.210  -0.210
    1UNL     O2   10  -0.153   0.236  -0.153
    1UNL     C9   11  -0.245   0.131  -0.158
    1UNL     O3   12  -0.205   0.006  -0.113
    1UNL    C10   13  -0.174  -0.005   0.027
    1UNL    C11   14  -0.139  -0.143   0.060
    1UNL     O4   15  -0.034  -0.192  -0.016
    1UNL    C12   16  -0.285   0.040   0.121
    1UNL     O5   17  -0.250   0.045   0.267
    1UNL    C13   18  -0.346   0.174   0.080
    1UNL     O6   19  -0.472   0.200   0.145
    1UNL    C14   20  -0.376   0.174  -0.076
    1UNL     O7   21  -0.472   0.081  -0.106
    1UNL    C15   22   0.129   0.010  -0.177
    1UNL    C16   23   0.209  -0.072  -0.093
    1UNL     H1   24   0.302  -0.259   0.299
    1UNL     H2   25   0.207  -0.321   0.162
    1UNL     H3   26   0.148  -0.198   0.268
    1UNL     H4   27   0.354  -0.054   0.204
    1UNL     H5   28   0.374  -0.272  -0.011
    1UNL     H6   29   0.490  -0.130   0.004
    1UNL     H7   30   0.583  -0.224   0.174
    1UNL     H8   31   0.200   0.115   0.186
    1UNL     H9   32   0.065   0.253   0.037
    1UNL    H10   33  -0.039   0.142  -0.291
    1UNL    H11   34   0.012   0.305  -0.245
    1UNL    H12   35  -0.274   0.131  -0.265
    1UNL    H13   36  -0.094   0.069   0.039
    1UNL    H14   37  -0.222  -0.213   0.037
    1UNL    H15   38  -0.114  -0.156   0.165
    1UNL    H16   39  -0.045  -0.161  -0.108
    1UNL    H17   40  -0.373  -0.023   0.118
    1UNL    H18   41  -0.325   0.054   0.333
    1UNL    H19   42  -0.285   0.256   0.104
    1UNL    H20   43  -0.547   0.180   0.077
    1UNL    H21   44  -0.414   0.273  -0.116
    1UNL    H22   45  -0.441  -0.007  -0.077
    1UNL    H23   46   0.128  -0.011  -0.283
    1UNL    H24   47   0.239  -0.171  -0.128
   0.00000   0.00000   0.00000   0.00000   0.00000   0.00000   0.00000   0.00000   0.00000
Generated with MDTraj, t= 77.0
 47
    1UNL     C1    1   0.249  -0.193   0.244
    1UNL     C2    2   0.338  -0.114   0.137
    1UNL     C3    3   0.444  -0.200   0.064
    1UNL     O1    4   0.546  -0.238   0.154
    1UNL     C4    5   0.247  -0.044   0.042
    1UNL     C5    6   0.189   0.074   0.088
    1UNL     C6    7   0.100   0.141   0.008
    1UNL     C7    8   0.067   0.096  -0.118
    1UNL     C8    9  -0.024   0.190  -0.200
    1UNL     O2   10  -0.136   0.230  -0.126
    1UNL     C9   11  -0.245   0.144  -0.150
    1UNL     O3   12  -0.231   0.003  -0.120
    1UNL    C10   13  -0.186  -0.013   0.015
    1UNL    C11   14  -0.146  -0.161   0.028
    1UNL     O4   15  -0.089  -0.218  -0.089
    1UNL    C12   16  -0.292   0.036   0.114
    1UNL     O5   17  -0.252   0.037   0.257
    1UNL    C13   18  -0.341   0.181   0.076
    1UNL     O6   19  -0.456   0.209   0.157
    1UNL    C14   20  -0.372   0.193  -0.072
    1UNL     O7   21  -0.488   0.122  -0.104
    1UNL    C15   22   0.133  -0.015  -0.173
    1UNL    C16   23   0.213  -0.089  -0.092
    1UNL     H1   24   0.318  -0.254   0.305
    1UNL     H2   25   0.169  -0.248   0.204
    1UNL     H3   26   0.215  -0.122   0.315
    1UNL     H4   27   0.400  -0.041   0.190
    1UNL     H5   28   0.398  -0.296   0.038
    1UNL     H6   29   0.489  -0.149  -0.022
    1UNL     H7   30   0.624  -0.177   0.177
    1UNL     H8   31   0.216   0.104   0.188
    1UNL     H9   32   0.060   0.233   0.051
    1UNL    H10   33  -0.061   0.144  -0.288
    1UNL    H11   34   0.030   0.278  -0.225
    1UNL    H12   35  -0.266   0.153  -0.255
    1UNL    H13   36  -0.091   0.043   0.016
    1UNL    H14   37  -0.236  -0.220   0.057
    1UNL    H15   38  -0.075  -0.175   0.111
    1UNL    H16   39  -0.135  -0.195  -0.176
    1UNL    H17   40  -0.378  -0.032   0.111
    1UNL    H18   41  -0.327   0.050   0.323
    1UNL    H19   42  -0.265   0.250   0.100
    1UNL    H20   43  -0.532   0.206   0.103
    1UNL    H21   44  -0.398   0.301  -0.095
    1UNL    H22   45  -0.486   0.028  -0.080
    1UNL    H23   46   0.113  -0.045  -0.274
    1UNL    H24   47   0.289  -0.153  -0.134
   0.00000   0.00000   0.00000   0.00000   0.00000   0.00000   0.00000   0.00000   0.00000
Generated with MDTraj, t= 78.0
 47
    1UNL     C1    1   0.284  -0.181   0.252
    1UNL     C2    2   0.366  -0.089   0.152
    1UNL     C3    3   0.466  -0.174   0.074
    1UNL     O1    4   0.558  -0.240   0.162
    1UNL     C4    5   0.275  -0.027   0.049
    1UNL     C5    6   0.225   0.098   0.077
    1UNL     C6    7   0.124   0.158  -0.003
    1UNL     C7    8   0.076   0.089  -0.113
    1UNL     C8    9  -0.025   0.154  -0.200
    1UNL     O2   10  -0.136   0.214  -0.131
    1UNL     C9   11  -0.268   0.159  -0.151
    1UNL     O3   12  -0.267   0.012  -0.143
    1UNL    C10   13  -0.219  -0.031  -0.010
    1UNL    C11   14  -0.214  -0.192  -0.003
    1UNL     O4   15  -0.119  -0.242  -0.095
    1UNL    C12   16  -0.313   0.019   0.100
    1UNL     O5   17  -0.262  -0.003   0.230
    1UNL    C13   18  -0.330   0.180   0.085
    1UNL     O6   19  -0.432   0.215   0.175
    1UNL    C14   20  -0.371   0.221  -0.056
    1UNL     O7   21  -0.497   0.170  -0.091
    1UNL    C15   22   0.136  -0.039  -0.144
    1UNL    C16   23   0.229  -0.095  -0.063
    1UNL     H1   24   0.352  -0.225   0.329
    1UNL     H2   25   0.231  -0.253   0.200
    1UNL     H3   26   0.216  -0.122   0.311
    1UNL     H4   27   0.413  -0.009   0.209
    1UNL     H5   28   0.418  -0.244   0.006
    1UNL     H6   29   0.524  -0.101   0.017
    1UNL     H7   30   0.622  -0.169   0.188
    1UNL     H8   31   0.257   0.150   0.163
    1UNL     H9   32   0.075   0.251   0.024
    1UNL    H10   33  -0.062   0.091  -0.277
    1UNL    H11   34   0.020   0.240  -0.245
    1UNL    H12   35  -0.293   0.179  -0.252
    1UNL    H13   36  -0.114   0.003   0.001
    1UNL    H14   37  -0.316  -0.237  -0.014
    1UNL    H15   38  -0.185  -0.216   0.101
    1UNL    H16   39  -0.138  -0.207  -0.183
    1UNL    H17   40  -0.413  -0.031   0.093
    1UNL    H18   41  -0.336   0.022   0.288
    1UNL    H19   42  -0.241   0.227   0.112
    1UNL    H20   43  -0.520   0.231   0.124
    1UNL    H21   44  -0.363   0.332  -0.066
    1UNL    H22   45  -0.495   0.071  -0.082
    1UNL    H23   46   0.105  -0.082  -0.241
    1UNL    H24   47   0.267  -0.191  -0.096
   0.00000   0.00000   0.00000   0.00000   0.00000   0.00000   0.00000   0.00000   0.00000
Generated with MDTraj, t= 79.0
 47
    1UNL     C1    1   0.327  -0.170   0.257
    1UNL     C2    2   0.385  -0.068   0.155
    1UNL     C3    3   0.499  -0.135   0.091
    1UNL     O1    4   0.570  -0.219   0.177
    1UNL     C4    5   0.284  -0.023   0.056
    1UNL     C5    6   0.247   0.108   0.049
    1UNL     C6    7   0.148   0.154  -0.030
    1UNL     C7    8   0.083   0.069  -0.116
    1UNL     C8    9  -0.024   0.124  -0.204
    1UNL     O2   10  -0.128   0.203  -0.134
    1UNL     C9   11  -0.265   0.162  -0.148
    1UNL     O3   12  -0.291   0.018  -0.150
    1UNL    C10   13  -0.253  -0.039  -0.023
    1UNL    C11   14  -0.257  -0.194  -0.034
    1UNL     O4   15  -0.164  -0.241  -0.128
    1UNL    C12   16  -0.343   0.009   0.096
    1UNL     O5   17  -0.304  -0.051   0.213
    1UNL    C13   18  -0.321   0.169   0.099
    1UNL     O6   19  -0.406   0.221   0.194
    1UNL    C14   20  -0.348   0.232  -0.040
    1UNL     O7   21  -0.484   0.213  -0.079
    1UNL    C15   22   0.121  -0.062  -0.119
    1UNL    C16   23   0.225  -0.110  -0.036
    1UNL     H1   24   0.387  -0.178   0.347
    1UNL     H2   25   0.304  -0.269   0.225
    1UNL     H3   26   0.234  -0.135   0.301
    1UNL     H4   27   0.420   0.016   0.214
    1UNL     H5   28   0.463  -0.205   0.015
    1UNL     H6   29   0.565  -0.066   0.041
    1UNL     H7   30   0.631  -0.168   0.230
    1UNL     H8   31   0.290   0.172   0.130
    1UNL     H9   32   0.115   0.254  -0.013
    1UNL    H10   33  -0.085   0.046  -0.246
    1UNL    H11   34   0.022   0.181  -0.285
    1UNL    H12   35  -0.317   0.191  -0.237
    1UNL    H13   36  -0.154   0.001  -0.000
    1UNL    H14   37  -0.364  -0.232  -0.035
    1UNL    H15   38  -0.217  -0.229   0.064
    1UNL    H16   39  -0.179  -0.180  -0.202
    1UNL    H17   40  -0.448  -0.029   0.078
    1UNL    H18   41  -0.366  -0.019   0.279
    1UNL    H19   42  -0.222   0.187   0.128
    1UNL    H20   43  -0.490   0.239   0.152
    1UNL    H21   44  -0.328   0.339  -0.037
    1UNL    H22   45  -0.497   0.115  -0.086
    1UNL    H23   46   0.086  -0.127  -0.194
    1UNL    H24   47   0.247  -0.217  -0.028
   0.00000   0.00000   0.00000   0.00000   0.00000   0.00000   0.00000   0.00000   0.00000
Generated with MDTraj, t= 80.0
 47
    1UNL     C1    1   0.330  -0.166   0.264
    1UNL     C2    2   0.394  -0.069   0.155
    1UNL     C3    3   0.514  -0.143   0.090
    1UNL     O1    4   0.611  -0.143   0.187
    1UNL     C4    5   0.288  -0.022   0.054
    1UNL     C5    6   0.279   0.114   0.025
    1UNL     C6    7   0.174   0.147  -0.056
    1UNL     C7    8   0.080   0.047  -0.105
    1UNL     C8    9  -0.034   0.095  -0.190
    1UNL     O2   10  -0.110   0.184  -0.111
    1UNL     C9   11  -0.246   0.163  -0.135
    1UNL     O3   12  -0.293   0.023  -0.154
    1UNL    C10   13  -0.263  -0.047  -0.034
    1UNL    C11   14  -0.275  -0.196  -0.056
    1UNL     O4   15  -0.232  -0.234  -0.186
    1UNL    C12   16  -0.353   0.008   0.089
    1UNL     O5   17  -0.349  -0.067   0.206
    1UNL    C13   18  -0.319   0.158   0.104
    1UNL     O6   19  -0.399   0.214   0.203
    1UNL    C14   20  -0.329   0.236  -0.030
    1UNL     O7   21  -0.467   0.245  -0.067
    1UNL    C15   22   0.103  -0.085  -0.088
    1UNL    C16   23   0.206  -0.120  -0.002
    1UNL     H1   24   0.399  -0.215   0.328
    1UNL     H2   25   0.265  -0.239   0.217
    1UNL     H3   26   0.267  -0.117   0.339
    1UNL     H4   27   0.434   0.017   0.207
    1UNL     H5   28   0.494  -0.244   0.055
    1UNL     H6   29   0.560  -0.088   0.008
    1UNL     H7   30   0.615  -0.063   0.246
    1UNL     H8   31   0.343   0.188   0.058
    1UNL     H9   32   0.150   0.251  -0.085
    1UNL    H10   33  -0.098   0.023  -0.242
    1UNL    H11   34  -0.000   0.166  -0.270
    1UNL    H12   35  -0.263   0.200  -0.235
    1UNL    H13   36  -0.164  -0.011  -0.007
    1UNL    H14   37  -0.381  -0.229  -0.053
    1UNL    H15   38  -0.228  -0.261   0.019
    1UNL    H16   39  -0.263  -0.164  -0.253
    1UNL    H17   40  -0.460  -0.012   0.061
    1UNL    H18   41  -0.392  -0.006   0.272
    1UNL    H19   42  -0.219   0.168   0.136
    1UNL    H20   43  -0.485   0.233   0.164
    1UNL    H21   44  -0.279   0.330  -0.020
    1UNL    H22   45  -0.489   0.159  -0.106
    1UNL    H23   46   0.035  -0.166  -0.121
    1UNL    H24   47   0.231  -0.223  -0.008
   0.00000   0.00000   0.00000   0.00000   0.00000   0.00000   0.00000   0.00000   0.00000
Generated with MDTraj, t= 81.0
 47
    1UNL     C1    1   0.372  -0.155   0.293
    1UNL     C2    2   0.406  -0.064   0.167
    1UNL     C3    3   0.531  -0.124   0.105
    1UNL     O1    4   0.652  -0.103   0.179
    1UNL     C4    5   0.298  -0.045   0.067
    1UNL     C5    6   0.293   0.078   0.000
    1UNL     C6    7   0.194   0.115  -0.090
    1UNL     C7    8   0.096   0.031  -0.125
    1UNL     C8    9  -0.024   0.089  -0.190
    1UNL     O2   10  -0.108   0.163  -0.095
    1UNL     C9   11  -0.245   0.175  -0.128
    1UNL     O3   12  -0.298   0.047  -0.161
    1UNL    C10   13  -0.290  -0.043  -0.054
    1UNL    C11   14  -0.344  -0.172  -0.096
    1UNL     O4   15  -0.267  -0.226  -0.202
    1UNL    C12   16  -0.361   0.007   0.078
    1UNL     O5   17  -0.349  -0.074   0.197
    1UNL    C13   18  -0.330   0.149   0.107
    1UNL     O6   19  -0.420   0.201   0.208
    1UNL    C14   20  -0.328   0.247  -0.015
    1UNL     O7   21  -0.466   0.255  -0.055
    1UNL    C15   22   0.101  -0.092  -0.063
    1UNL    C16   23   0.202  -0.131   0.029
    1UNL     H1   24   0.422  -0.122   0.378
    1UNL     H2   25   0.392  -0.262   0.268
    1UNL     H3   26   0.267  -0.147   0.318
    1UNL     H4   27   0.428   0.033   0.209
    1UNL     H5   28   0.512  -0.232   0.095
    1UNL     H6   29   0.539  -0.097  -0.002
    1UNL     H7   30   0.635  -0.012   0.222
    1UNL     H8   31   0.362   0.158   0.039
    1UNL     H9   32   0.196   0.212  -0.128
    1UNL    H10   33  -0.087   0.003  -0.218
    1UNL    H11   34   0.000   0.150  -0.283
    1UNL    H12   35  -0.260   0.231  -0.222
    1UNL    H13   36  -0.184  -0.048  -0.030
    1UNL    H14   37  -0.446  -0.174  -0.137
    1UNL    H15   38  -0.341  -0.249  -0.021
    1UNL    H16   39  -0.255  -0.174  -0.283
    1UNL    H17   40  -0.471  -0.010   0.064
    1UNL    H18   41  -0.295  -0.030   0.269
    1UNL    H19   42  -0.233   0.154   0.151
    1UNL    H20   43  -0.516   0.209   0.173
    1UNL    H21   44  -0.294   0.343   0.011
    1UNL    H22   45  -0.497   0.171  -0.093
    1UNL    H23   46   0.025  -0.166  -0.085
    1UNL    H24   47   0.202  -0.227   0.089
   0.00000   0.00000   0.00000   0.00000   0.00000   0.00000   0.00000   0.00000   0.00000
Generated with MDTraj, t= 82.0
 47
    1UNL     C1    1   0.403  -0.155   0.279
    1UNL     C2    2   0.434  -0.062   0.165
    1UNL     C3    3   0.562  -0.108   0.099
    1UNL     O1    4   0.678  -0.108   0.184
    1UNL     C4    5   0.309  -0.029   0.067
    1UNL     C5    6   0.309   0.085  -0.014
    1UNL     C6    7   0.205   0.111  -0.103
    1UNL     C7    8   0.090   0.034  -0.090
    1UNL     C8    9  -0.037   0.066  -0.167
    1UNL     O2   10  -0.116   0.137  -0.076
    1UNL     C9   11  -0.246   0.164  -0.127
    1UNL     O3   12  -0.308   0.045  -0.168
    1UNL    C10   13  -0.313  -0.046  -0.059
    1UNL    C11   14  -0.365  -0.176  -0.111
    1UNL     O4   15  -0.304  -0.226  -0.227
    1UNL    C12   16  -0.386   0.008   0.069
    1UNL     O5   17  -0.378  -0.097   0.170
    1UNL    C13   18  -0.330   0.144   0.103
    1UNL     O6   19  -0.404   0.208   0.208
    1UNL    C14   20  -0.325   0.246  -0.016
    1UNL     O7   21  -0.455   0.279  -0.065
    1UNL    C15   22   0.091  -0.085  -0.008
    1UNL    C16   23   0.199  -0.115   0.069
    1UNL     H1   24   0.474  -0.155   0.358
    1UNL     H2   25   0.391  -0.257   0.236
    1UNL     H3   26   0.310  -0.128   0.324
    1UNL     H4   27   0.465   0.036   0.204
    1UNL     H5   28   0.557  -0.205   0.047
    1UNL     H6   29   0.588  -0.036   0.018
    1UNL     H7   30   0.697  -0.023   0.228
    1UNL     H8   31   0.394   0.145  -0.023
    1UNL     H9   32   0.202   0.206  -0.163
    1UNL    H10   33  -0.092  -0.016  -0.217
    1UNL    H11   34  -0.007   0.151  -0.239
    1UNL    H12   35  -0.231   0.241  -0.209
    1UNL    H13   36  -0.208  -0.063  -0.035
    1UNL    H14   37  -0.465  -0.151  -0.146
    1UNL    H15   38  -0.371  -0.254  -0.039
    1UNL    H16   39  -0.306  -0.145  -0.290
    1UNL    H17   40  -0.492   0.028   0.050
    1UNL    H18   41  -0.390  -0.046   0.255
    1UNL    H19   42  -0.228   0.134   0.139
    1UNL    H20   43  -0.482   0.252   0.166
    1UNL    H21   44  -0.266   0.330   0.008
    1UNL    H22   45  -0.496   0.197  -0.103
    1UNL    H23   46   0.012  -0.155  -0.012
    1UNL    H24   47   0.185  -0.188   0.139
   0.00000   0.00000   0.00000   0.00000   0.00000   0.00000   0.00000   0.00000   0.00000
Generated with MDTraj, t= 83.0
 47
    1UNL     C1    1   0.428  -0.147   0.288
    1UNL     C2    2   0.451  -0.044   0.173
    1UNL     C3    3   0.579  -0.076   0.082
    1UNL     O1    4   0.690  -0.126   0.148
    1UNL     C4    5   0.332  -0.021   0.081
    1UNL     C5    6   0.333   0.073  -0.014
    1UNL     C6    7   0.221   0.090  -0.091
    1UNL     C7    8   0.107   0.018  -0.084
    1UNL     C8    9  -0.026   0.062  -0.153
    1UNL     O2   10  -0.099   0.152  -0.073
    1UNL     C9   11  -0.239   0.156  -0.114
    1UNL     O3   12  -0.293   0.035  -0.160
    1UNL    C10   13  -0.325  -0.056  -0.054
    1UNL    C11   14  -0.401  -0.173  -0.121
    1UNL     O4   15  -0.341  -0.209  -0.239
    1UNL    C12   16  -0.412   0.007   0.054
    1UNL     O5   17  -0.456  -0.092   0.153
    1UNL    C13   18  -0.344   0.138   0.106
    1UNL     O6   19  -0.416   0.210   0.207
    1UNL    C14   20  -0.325   0.234  -0.011
    1UNL     O7   21  -0.444   0.271  -0.078
    1UNL    C15   22   0.101  -0.081   0.009
    1UNL    C16   23   0.212  -0.094   0.090
    1UNL     H1   24   0.519  -0.172   0.341
    1UNL     H2   25   0.394  -0.236   0.238
    1UNL     H3   26   0.357  -0.121   0.364
    1UNL     H4   27   0.475   0.054   0.215
    1UNL     H5   28   0.553  -0.164   0.021
    1UNL     H6   29   0.617  -0.001   0.008
    1UNL     H7   30   0.735  -0.062   0.203
    1UNL     H8   31   0.418   0.146  -0.015
    1UNL     H9   32   0.224   0.159  -0.169
    1UNL    H10   33  -0.097  -0.022  -0.150
    1UNL    H11   34  -0.010   0.101  -0.261
    1UNL    H12   35  -0.235   0.225  -0.204
    1UNL    H13   36  -0.229  -0.092  -0.017
    1UNL    H14   37  -0.504  -0.139  -0.134
    1UNL    H15   38  -0.388  -0.250  -0.048
    1UNL    H16   39  -0.308  -0.124  -0.274
    1UNL    H17   40  -0.506   0.028   0.004
    1UNL    H18   41  -0.425  -0.075   0.243
    1UNL    H19   42  -0.252   0.102   0.157
    1UNL    H20   43  -0.488   0.254   0.167
    1UNL    H21   44  -0.280   0.321   0.027
    1UNL    H22   45  -0.487   0.199  -0.132
    1UNL    H23   46   0.003  -0.127   0.041
    1UNL    H24   47   0.208  -0.162   0.178
   0.00000   0.00000   0.00000   0.00000   0.00000   0.00000   0.00000   0.00000   0.00000
Generated with MDTraj, t= 84.0
 47
    1UNL     C1    1   0.461  -0.134   0.286
    1UNL     C2    2   0.484  -0.049   0.161
    1UNL     C3    3   0.591  -0.102   0.068
    1UNL     O1    4   0.719  -0.120   0.123
    1UNL     C4    5   0.348  -0.019   0.091
    1UNL     C5    6   0.342   0.074  -0.015
    1UNL     C6    7   0.226   0.108  -0.087
    1UNL     C7    8   0.109   0.033  -0.055
    1UNL     C8    9  -0.017   0.048  -0.126
    1UNL     O2   10  -0.118   0.091  -0.039
    1UNL     C9   11  -0.236   0.144  -0.109
    1UNL     O3   12  -0.320   0.047  -0.168
    1UNL    C10   13  -0.353  -0.052  -0.065
    1UNL    C11   14  -0.420  -0.172  -0.140
    1UNL     O4   15  -0.335  -0.223  -0.239
    1UNL    C12   16  -0.439   0.016   0.039
    1UNL     O5   17  -0.487  -0.079   0.144
    1UNL    C13   18  -0.368   0.144   0.099
    1UNL     O6   19  -0.456   0.206   0.188
    1UNL    C14   20  -0.316   0.240  -0.013
    1UNL     O7   21  -0.426   0.291  -0.075
    1UNL    C15   22   0.116  -0.073   0.038
    1UNL    C16   23   0.233  -0.095   0.111
    1UNL     H1   24   0.553  -0.175   0.335
    1UNL     H2   25   0.404  -0.213   0.249
    1UNL     H3   26   0.404  -0.078   0.358
    1UNL     H4   27   0.523   0.048   0.197
    1UNL     H5   28   0.566  -0.202   0.033
    1UNL     H6   29   0.589  -0.034  -0.020
    1UNL     H7   30   0.754  -0.027   0.132
    1UNL     H8   31   0.430   0.126  -0.042
    1UNL     H9   32   0.222   0.174  -0.177
    1UNL    H10   33  -0.046  -0.045  -0.177
    1UNL    H11   34  -0.007   0.142  -0.190
    1UNL    H12   35  -0.193   0.203  -0.195
    1UNL    H13   36  -0.257  -0.083  -0.025
    1UNL    H14   37  -0.511  -0.128  -0.185
    1UNL    H15   38  -0.439  -0.245  -0.063
    1UNL    H16   39  -0.277  -0.156  -0.290
    1UNL    H17   40  -0.525   0.057  -0.010
    1UNL    H18   41  -0.447  -0.052   0.227
    1UNL    H19   42  -0.281   0.114   0.165
    1UNL    H20   43  -0.518   0.257   0.136
    1UNL    H21   44  -0.247   0.318   0.014
    1UNL    H22   45  -0.473   0.224  -0.126
    1UNL    H23   46   0.028  -0.118   0.067
    1UNL    H24   47   0.225  -0.167   0.193
   0.00000   0.00000   0.00000   0.00000   0.00000   0.00000   0.00000   0.00000   0.00000
Generated with MDTraj, t= 85.0
 47
    1UNL     C1    1   0.502  -0.098   0.291
    1UNL     C2    2   0.502  -0.041   0.149
    1UNL     C3    3   0.592  -0.125   0.054
    1UNL     O1    4   0.731  -0.119   0.092
    1UNL     C4    5   0.365  -0.033   0.085
    1UNL     C5    6   0.342   0.069  -0.011
    1UNL     C6    7   0.224   0.100  -0.068
    1UNL     C7    8   0.117   0.018  -0.036
    1UNL     C8    9  -0.014   0.046  -0.104
    1UNL     O2   10  -0.117   0.104  -0.018
    1UNL     C9   11  -0.232   0.148  -0.087
    1UNL     O3   12  -0.302   0.046  -0.162
    1UNL    C10   13  -0.359  -0.053  -0.067
    1UNL    C11   14  -0.429  -0.162  -0.148
    1UNL     O4   15  -0.335  -0.228  -0.230
    1UNL    C12   16  -0.462   0.018   0.020
    1UNL     O5   17  -0.529  -0.063   0.119
    1UNL    C13   18  -0.402   0.137   0.100
    1UNL     O6   19  -0.503   0.202   0.162
    1UNL    C14   20  -0.324   0.239   0.006
    1UNL     O7   21  -0.410   0.307  -0.081
    1UNL    C15   22   0.135  -0.078   0.060
    1UNL    C16   23   0.256  -0.111   0.115
    1UNL     H1   24   0.602  -0.106   0.340
    1UNL     H2   25   0.468  -0.195   0.275
    1UNL     H3   26   0.436  -0.046   0.361
    1UNL     H4   27   0.555   0.056   0.158
    1UNL     H5   28   0.551  -0.225   0.055
    1UNL     H6   29   0.590  -0.091  -0.052
    1UNL     H7   30   0.784  -0.036   0.068
    1UNL     H8   31   0.435   0.112  -0.047
    1UNL     H9   32   0.214   0.186  -0.130
    1UNL    H10   33  -0.063  -0.046  -0.130
    1UNL    H11   34   0.001   0.111  -0.195
    1UNL    H12   35  -0.197   0.216  -0.169
    1UNL    H13   36  -0.278  -0.103  -0.010
    1UNL    H14   37  -0.505  -0.109  -0.213
    1UNL    H15   38  -0.471  -0.237  -0.078
    1UNL    H16   39  -0.275  -0.180  -0.287
    1UNL    H17   40  -0.544   0.043  -0.046
    1UNL    H18   41  -0.468  -0.113   0.177
    1UNL    H19   42  -0.338   0.102   0.188
    1UNL    H20   43  -0.556   0.243   0.083
    1UNL    H21   44  -0.274   0.325   0.053
    1UNL    H22   45  -0.457   0.245  -0.139
    1UNL    H23   46   0.046  -0.135   0.097
    1UNL    H24   47   0.261  -0.163   0.206
   0.00000   0.00000   0.00000   0.00000   0.00000   0.00000   0.00000   0.00000   0.00000
Generated with MDTraj, t= 86.0
 47
    1UNL     C1    1   0.536  -0.058   0.271
    1UNL     C2    2   0.513  -0.027   0.119
    1UNL     C3    3   0.587  -0.130   0.033
    1UNL     O1    4   0.721  -0.148   0.082
    1UNL     C4    5   0.370  -0.013   0.077
    1UNL     C5    6   0.334   0.086  -0.014
    1UNL     C6    7   0.204   0.093  -0.049
    1UNL     C7    8   0.108   0.000  -0.003
    1UNL     C8    9  -0.030   0.002  -0.059
    1UNL     O2   10  -0.110   0.108   0.005
    1UNL     C9   11  -0.219   0.143  -0.070
    1UNL     O3   12  -0.283   0.047  -0.151
    1UNL    C10   13  -0.365  -0.043  -0.069
    1UNL    C11   14  -0.409  -0.154  -0.155
    1UNL     O4   15  -0.298  -0.214  -0.221
    1UNL    C12   16  -0.483   0.030   0.006
    1UNL     O5   17  -0.572  -0.057   0.082
    1UNL    C13   18  -0.420   0.133   0.094
    1UNL     O6   19  -0.523   0.207   0.148
    1UNL    C14   20  -0.325   0.226   0.009
    1UNL     O7   21  -0.398   0.301  -0.078
    1UNL    C15   22   0.142  -0.110   0.077
    1UNL    C16   23   0.274  -0.109   0.114
    1UNL     H1   24   0.630  -0.033   0.319
    1UNL     H2   25   0.531  -0.164   0.289
    1UNL     H3   26   0.461  -0.014   0.337
    1UNL     H4   27   0.560   0.072   0.102
    1UNL     H5   28   0.548  -0.228   0.058
    1UNL     H6   29   0.570  -0.110  -0.074
    1UNL     H7   30   0.786  -0.079   0.059
    1UNL     H8   31   0.411   0.147  -0.066
    1UNL     H9   32   0.168   0.168  -0.120
    1UNL    H10   33  -0.079  -0.088  -0.035
    1UNL    H11   34  -0.032   0.023  -0.167
    1UNL    H12   35  -0.178   0.208  -0.148
    1UNL    H13   36  -0.305  -0.087   0.012
    1UNL    H14   37  -0.482  -0.116  -0.234
    1UNL    H15   38  -0.450  -0.235  -0.090
    1UNL    H16   39  -0.249  -0.136  -0.261
    1UNL    H17   40  -0.546   0.078  -0.069
    1UNL    H18   41  -0.662  -0.013   0.081
    1UNL    H19   42  -0.366   0.094   0.188
    1UNL    H20   43  -0.514   0.296   0.109
    1UNL    H21   44  -0.271   0.302   0.070
    1UNL    H22   45  -0.433   0.229  -0.138
    1UNL    H23   46   0.064  -0.156   0.130
    1UNL    H24   47   0.306  -0.193   0.184
   0.00000   0.00000   0.00000   0.00000   0.00000   0.00000   0.00000   0.00000   0.00000
Generated with MDTraj, t= 87.0
 47
    1UNL     C1    1   0.569  -0.013   0.242
    1UNL     C2    2   0.522  -0.020   0.096
    1UNL     C3    3   0.579  -0.146   0.035
    1UNL     O1    4   0.713  -0.157   0.066
    1UNL     C4    5   0.371  -0.013   0.075
    1UNL     C5    6   0.316   0.091   0.002
    1UNL     C6    7   0.177   0.098  -0.019
    1UNL     C7    8   0.096  -0.013   0.017
    1UNL     C8    9  -0.045  -0.022  -0.027
    1UNL     O2   10  -0.136   0.075   0.034
    1UNL     C9   11  -0.215   0.141  -0.058
    1UNL     O3   12  -0.279   0.056  -0.155
    1UNL    C10   13  -0.359  -0.037  -0.079
    1UNL    C11   14  -0.390  -0.160  -0.154
    1UNL     O4   15  -0.279  -0.213  -0.212
    1UNL    C12   16  -0.482   0.035  -0.015
    1UNL     O5   17  -0.579  -0.057   0.042
    1UNL    C13   18  -0.437   0.140   0.084
    1UNL     O6   19  -0.539   0.226   0.135
    1UNL    C14   20  -0.324   0.228   0.021
    1UNL     O7   21  -0.377   0.320  -0.068
    1UNL    C15   22   0.155  -0.121   0.082
    1UNL    C16   23   0.288  -0.124   0.112
    1UNL     H1   24   0.667  -0.050   0.254
    1UNL     H2   25   0.507  -0.090   0.293
    1UNL     H3   26   0.558   0.083   0.294
    1UNL     H4   27   0.563   0.073   0.050
    1UNL     H5   28   0.523  -0.232   0.068
    1UNL     H6   29   0.582  -0.143  -0.075
    1UNL     H7   30   0.751  -0.080   0.021
    1UNL     H8   31   0.384   0.165  -0.024
    1UNL     H9   32   0.138   0.176  -0.083
    1UNL    H10   33  -0.085  -0.117  -0.004
    1UNL    H11   34  -0.038   0.005  -0.132
    1UNL    H12   35  -0.150   0.196  -0.123
    1UNL    H13   36  -0.299  -0.063   0.011
    1UNL    H14   37  -0.470  -0.131  -0.228
    1UNL    H15   38  -0.426  -0.238  -0.085
    1UNL    H16   39  -0.253  -0.137  -0.268
    1UNL    H17   40  -0.535   0.078  -0.101
    1UNL    H18   41  -0.525  -0.115   0.104
    1UNL    H19   42  -0.408   0.081   0.178
    1UNL    H20   43  -0.544   0.304   0.076
    1UNL    H21   44  -0.276   0.292   0.100
    1UNL    H22   45  -0.437   0.270  -0.131
    1UNL    H23   46   0.090  -0.190   0.143
    1UNL    H24   47   0.330  -0.196   0.173
   0.00000   0.00000   0.00000   0.00000   0.00000   0.00000   0.00000   0.00000   0.00000
Generated with MDTraj, t= 88.0
 47
    1UNL     C1    1   0.557   0.038   0.227
    1UNL     C2    2   0.520  -0.018   0.087
    1UNL     C3    3   0.576  -0.152   0.057
    1UNL     O1    4   0.710  -0.151   0.020
    1UNL     C4    5   0.372  -0.024   0.068
    1UNL     C5    6   0.300   0.078   0.014
    1UNL     C6    7   0.164   0.084   0.000
    1UNL     C7    8   0.092  -0.020   0.046
    1UNL     C8    9  -0.057  -0.033   0.020
    1UNL     O2   10  -0.134   0.074   0.068
    1UNL     C9   11  -0.205   0.139  -0.028
    1UNL     O3   12  -0.257   0.048  -0.128
    1UNL    C10   13  -0.357  -0.049  -0.080
    1UNL    C11   14  -0.389  -0.142  -0.195
    1UNL     O4   15  -0.281  -0.229  -0.229
    1UNL    C12   16  -0.475   0.043  -0.026
    1UNL     O5   17  -0.575  -0.042   0.043
    1UNL    C13   18  -0.435   0.147   0.077
    1UNL     O6   19  -0.558   0.223   0.106
    1UNL    C14   20  -0.323   0.234   0.030
    1UNL     O7   21  -0.365   0.319  -0.074
    1UNL    C15   22   0.165  -0.131   0.086
    1UNL    C16   23   0.302  -0.138   0.092
    1UNL     H1   24   0.662   0.043   0.234
    1UNL     H2   25   0.519  -0.032   0.307
    1UNL     H3   26   0.512   0.137   0.235
    1UNL     H4   27   0.556   0.055   0.012
    1UNL     H5   28   0.580  -0.224   0.139
    1UNL     H6   29   0.520  -0.194  -0.029
    1UNL     H7   30   0.738  -0.082  -0.047
    1UNL     H8   31   0.356   0.162  -0.038
    1UNL     H9   32   0.109   0.165  -0.040
    1UNL    H10   33  -0.088  -0.116   0.078
    1UNL    H11   34  -0.074  -0.041  -0.087
    1UNL    H12   35  -0.132   0.190  -0.086
    1UNL    H13   36  -0.318  -0.105   0.008
    1UNL    H14   37  -0.398  -0.080  -0.287
    1UNL    H15   38  -0.486  -0.193  -0.184
    1UNL    H16   39  -0.191  -0.194  -0.247
    1UNL    H17   40  -0.518   0.096  -0.113
    1UNL    H18   41  -0.636   0.023   0.079
    1UNL    H19   42  -0.407   0.091   0.169
    1UNL    H20   43  -0.553   0.303   0.046
    1UNL    H21   44  -0.282   0.305   0.111
    1UNL    H22   45  -0.401   0.261  -0.145
    1UNL    H23   46   0.103  -0.208   0.119
    1UNL    H24   47   0.345  -0.216   0.160
   0.00000   0.00000   0.00000   0.00000   0.00000   0.00000   0.00000   0.00000   0.00000
Generated with MDTraj, t= 89.0
 47
    1UNL     C1    1   0.570   0.070   0.177
    1UNL     C2    2   0.514  -0.018   0.061
    1UNL     C3    3   0.592  -0.148   0.038
    1UNL     O1    4   0.735  -0.123   0.018
    1UNL     C4    5   0.361  -0.037   0.075
    1UNL     C5    6   0.288   0.078   0.033
    1UNL     C6    7   0.151   0.067   0.035
    1UNL     C7    8   0.082  -0.045   0.082
    1UNL     C8    9  -0.068  -0.053   0.049
    1UNL     O2   10  -0.139   0.062   0.079
    1UNL     C9   11  -0.202   0.126  -0.029
    1UNL     O3   12  -0.257   0.041  -0.131
    1UNL    C10   13  -0.357  -0.044  -0.081
    1UNL    C11   14  -0.397  -0.140  -0.190
    1UNL     O4   15  -0.282  -0.199  -0.245
    1UNL    C12   16  -0.472   0.051  -0.030
    1UNL     O5   17  -0.591  -0.027   0.008
    1UNL    C13   18  -0.429   0.147   0.079
    1UNL     O6   19  -0.546   0.235   0.112
    1UNL    C14   20  -0.317   0.225   0.017
    1UNL     O7   21  -0.354   0.316  -0.087
    1UNL    C15   22   0.152  -0.159   0.122
    1UNL    C16   23   0.294  -0.155   0.116
    1UNL     H1   24   0.673   0.104   0.163
    1UNL     H2   25   0.569   0.014   0.273
    1UNL     H3   26   0.510   0.159   0.187
    1UNL     H4   27   0.532   0.041  -0.032
    1UNL     H5   28   0.576  -0.212   0.125
    1UNL     H6   29   0.561  -0.205  -0.051
    1UNL     H7   30   0.753  -0.046  -0.044
    1UNL     H8   31   0.337   0.160  -0.006
    1UNL     H9   32   0.098   0.151  -0.017
    1UNL    H10   33  -0.117  -0.142   0.084
    1UNL    H11   34  -0.056  -0.044  -0.061
    1UNL    H12   35  -0.127   0.182  -0.082
    1UNL    H13   36  -0.310  -0.103   0.001
    1UNL    H14   37  -0.465  -0.092  -0.261
    1UNL    H15   38  -0.455  -0.221  -0.147
    1UNL    H16   39  -0.196  -0.148  -0.246
    1UNL    H17   40  -0.490   0.112  -0.123
    1UNL    H18   41  -0.666   0.031   0.011
    1UNL    H19   42  -0.397   0.098   0.173
    1UNL    H20   43  -0.541   0.306   0.050
    1UNL    H21   44  -0.270   0.300   0.094
    1UNL    H22   45  -0.362   0.261  -0.166
    1UNL    H23   46   0.106  -0.245   0.173
    1UNL    H24   47   0.348  -0.230   0.168
   0.00000   0.00000   0.00000   0.00000   0.00000   0.00000   0.00000   0.00000   0.00000
Generated with MDTraj, t= 90.0
 47
    1UNL     C1    1   0.572   0.083   0.167
    1UNL     C2    2   0.510   0.010   0.051
    1UNL     C3    3   0.578  -0.134   0.039
    1UNL     O1    4   0.720  -0.135   0.024
    1UNL     C4    5   0.356  -0.012   0.060
    1UNL     C5    6   0.270   0.087   0.033
    1UNL     C6    7   0.129   0.068   0.044
    1UNL     C7    8   0.071  -0.054   0.081
    1UNL     C8    9  -0.078  -0.079   0.089
    1UNL     O2   10  -0.162   0.031   0.101
    1UNL     C9   11  -0.189   0.103  -0.012
    1UNL     O3   12  -0.242   0.023  -0.121
    1UNL    C10   13  -0.360  -0.045  -0.072
    1UNL    C11   14  -0.404  -0.135  -0.194
    1UNL     O4   15  -0.294  -0.192  -0.252
    1UNL    C12   16  -0.478   0.059  -0.043
    1UNL     O5   17  -0.588  -0.027  -0.014
    1UNL    C13   18  -0.427   0.151   0.072
    1UNL     O6   19  -0.521   0.254   0.104
    1UNL    C14   20  -0.295   0.213   0.023
    1UNL     O7   21  -0.303   0.305  -0.084
    1UNL    C15   22   0.160  -0.155   0.104
    1UNL    C16   23   0.299  -0.133   0.093
    1UNL     H1   24   0.683   0.070   0.168
    1UNL     H2   25   0.545   0.052   0.265
    1UNL     H3   26   0.562   0.192   0.165
    1UNL     H4   27   0.529   0.066  -0.044
    1UNL     H5   28   0.559  -0.192   0.129
    1UNL     H6   29   0.522  -0.187  -0.042
    1UNL     H7   30   0.734  -0.079  -0.054
    1UNL     H8   31   0.307   0.190   0.014
    1UNL     H9   32   0.065   0.145   0.024
    1UNL    H10   33  -0.096  -0.132   0.183
    1UNL    H11   34  -0.114  -0.135   0.002
    1UNL    H12   35  -0.100   0.150  -0.049
    1UNL    H13   36  -0.344  -0.108   0.018
    1UNL    H14   37  -0.460  -0.070  -0.260
    1UNL    H15   38  -0.483  -0.203  -0.165
    1UNL    H16   39  -0.222  -0.138  -0.213
    1UNL    H17   40  -0.497   0.113  -0.140
    1UNL    H18   41  -0.664   0.039  -0.006
    1UNL    H19   42  -0.415   0.100   0.168
    1UNL    H20   43  -0.510   0.321   0.028
    1UNL    H21   44  -0.261   0.285   0.111
    1UNL    H22   45  -0.296   0.249  -0.163
    1UNL    H23   46   0.128  -0.242   0.160
    1UNL    H24   47   0.360  -0.215   0.128
   0.00000   0.00000   0.00000   0.00000   0.00000   0.00000   0.00000   0.00000   0.00000
Generated with MDTraj, t= 91.0
 47
    1UNL     C1    1   0.546   0.086   0.164
    1UNL     C2    2   0.500   0.003   0.054
    1UNL     C3    3   0.593  -0.120   0.041
    1UNL     O1    4   0.725  -0.092   0.005
    1UNL     C4    5   0.352  -0.028   0.064
    1UNL     C5    6   0.260   0.075   0.061
    1UNL     C6    7   0.123   0.068   0.074
    1UNL     C7    8   0.075  -0.059   0.086
    1UNL     C8    9  -0.072  -0.086   0.091
    1UNL     O2   10  -0.149   0.034   0.117
    1UNL     C9   11  -0.181   0.101  -0.001
    1UNL     O3   12  -0.234   0.011  -0.101
    1UNL    C10   13  -0.366  -0.050  -0.077
    1UNL    C11   14  -0.399  -0.121  -0.213
    1UNL     O4   15  -0.313  -0.226  -0.233
    1UNL    C12   16  -0.476   0.054  -0.045
    1UNL     O5   17  -0.603   0.001  -0.018
    1UNL    C13   18  -0.426   0.158   0.066
    1UNL     O6   19  -0.516   0.267   0.069
    1UNL    C14   20  -0.286   0.212   0.027
    1UNL     O7   21  -0.288   0.306  -0.073
    1UNL    C15   22   0.158  -0.168   0.083
    1UNL    C16   23   0.297  -0.157   0.063
    1UNL     H1   24   0.649   0.125   0.137
    1UNL     H2   25   0.551   0.040   0.259
    1UNL     H3   26   0.482   0.175   0.161
    1UNL     H4   27   0.516   0.058  -0.043
    1UNL     H5   28   0.588  -0.165   0.140
    1UNL     H6   29   0.557  -0.197  -0.029
    1UNL     H7   30   0.740  -0.065  -0.087
    1UNL     H8   31   0.288   0.178   0.044
    1UNL     H9   32   0.064   0.162   0.087
    1UNL    H10   33  -0.100  -0.158   0.170
    1UNL    H11   34  -0.112  -0.121  -0.008
    1UNL    H12   35  -0.088   0.138  -0.043
    1UNL    H13   36  -0.359  -0.128  -0.000
    1UNL    H14   37  -0.408  -0.047  -0.292
    1UNL    H15   38  -0.502  -0.156  -0.209
    1UNL    H16   39  -0.227  -0.216  -0.182
    1UNL    H17   40  -0.500   0.098  -0.146
    1UNL    H18   41  -0.650   0.087   0.003
    1UNL    H19   42  -0.425   0.118   0.165
    1UNL    H20   43  -0.489   0.326  -0.003
    1UNL    H21   44  -0.243   0.275   0.118
    1UNL    H22   45  -0.298   0.263  -0.162
    1UNL    H23   46   0.115  -0.265   0.096
    1UNL    H24   47   0.362  -0.245   0.082
   0.00000   0.00000   0.00000   0.00000   0.00000   0.00000   0.00000   0.00000   0.00000
Generated with MDTraj, t= 92.0
 47
    1UNL     C1    1   0.547   0.080   0.176
    1UNL     C2    2   0.491   0.014   0.047
    1UNL     C3    3   0.591  -0.109   0.003
    1UNL     O1    4   0.724  -0.062   0.004
    1UNL     C4    5   0.344  -0.029   0.072
    1UNL     C5    6   0.263   0.077   0.112
    1UNL     C6    7   0.124   0.047   0.124
    1UNL     C7    8   0.069  -0.075   0.096
    1UNL     C8    9  -0.077  -0.104   0.076
    1UNL     O2   10  -0.158   0.016   0.109
    1UNL     C9   11  -0.178   0.089  -0.010
    1UNL     O3   12  -0.243   0.024  -0.115
    1UNL    C10   13  -0.370  -0.042  -0.075
    1UNL    C11   14  -0.406  -0.153  -0.169
    1UNL     O4   15  -0.303  -0.243  -0.196
    1UNL    C12   16  -0.471   0.073  -0.060
    1UNL     O5   17  -0.611   0.045  -0.044
    1UNL    C13   18  -0.418   0.161   0.058
    1UNL     O6   19  -0.507   0.274   0.061
    1UNL    C14   20  -0.276   0.207   0.024
    1UNL     O7   21  -0.276   0.301  -0.080
    1UNL    C15   22   0.159  -0.177   0.055
    1UNL    C16   23   0.296  -0.155   0.044
    1UNL     H1   24   0.653   0.105   0.151
    1UNL     H2   25   0.544   0.011   0.258
    1UNL     H3   26   0.492   0.175   0.189
    1UNL     H4   27   0.494   0.091  -0.033
    1UNL     H5   28   0.589  -0.201   0.064
    1UNL     H6   29   0.563  -0.147  -0.097
    1UNL     H7   30   0.746  -0.006  -0.077
    1UNL     H8   31   0.303   0.175   0.119
    1UNL     H9   32   0.060   0.128   0.158
    1UNL    H10   33  -0.120  -0.189   0.136
    1UNL    H11   34  -0.090  -0.128  -0.034
    1UNL    H12   35  -0.078   0.125  -0.041
    1UNL    H13   36  -0.348  -0.078   0.026
    1UNL    H14   37  -0.445  -0.107  -0.261
    1UNL    H15   38  -0.498  -0.205  -0.135
    1UNL    H16   39  -0.210  -0.218  -0.188
    1UNL    H17   40  -0.477   0.124  -0.160
    1UNL    H18   41  -0.644   0.079   0.039
    1UNL    H19   42  -0.425   0.120   0.158
    1UNL    H20   43  -0.487   0.327  -0.018
    1UNL    H21   44  -0.215   0.260   0.111
    1UNL    H22   45  -0.279   0.262  -0.173
    1UNL    H23   46   0.126  -0.281   0.051
    1UNL    H24   47   0.358  -0.233   0.015
   0.00000   0.00000   0.00000   0.00000   0.00000   0.00000   0.00000   0.00000   0.00000
Generated with MDTraj, t= 93.0
 47
    1UNL     C1    1   0.546   0.049   0.215
    1UNL     C2    2   0.485   0.025   0.075
    1UNL     C3    3   0.567  -0.080  -0.001
    1UNL     O1    4   0.708  -0.053  -0.026
    1UNL     C4    5   0.339  -0.015   0.075
    1UNL     C5    6   0.252   0.078   0.132
    1UNL     C6    7   0.121   0.040   0.135
    1UNL     C7    8   0.068  -0.070   0.074
    1UNL     C8    9  -0.075  -0.108   0.108
    1UNL     O2   10  -0.171   0.000   0.114
    1UNL     C9   11  -0.171   0.074  -0.008
    1UNL     O3   12  -0.236   0.012  -0.117
    1UNL    C10   13  -0.365  -0.044  -0.075
    1UNL    C11   14  -0.422  -0.159  -0.162
    1UNL     O4   15  -0.327  -0.261  -0.179
    1UNL    C12   16  -0.463   0.081  -0.061
    1UNL     O5   17  -0.598   0.034  -0.036
    1UNL    C13   18  -0.408   0.165   0.045
    1UNL     O6   19  -0.475   0.288   0.041
    1UNL    C14   20  -0.261   0.203   0.021
    1UNL     O7   21  -0.239   0.292  -0.089
    1UNL    C15   22   0.151  -0.156   0.004
    1UNL    C16   23   0.287  -0.127   0.008
    1UNL     H1   24   0.651   0.064   0.208
    1UNL     H2   25   0.528  -0.028   0.294
    1UNL     H3   26   0.503   0.146   0.249
    1UNL     H4   27   0.477   0.121   0.018
    1UNL     H5   28   0.560  -0.170   0.061
    1UNL     H6   29   0.531  -0.113  -0.100
    1UNL     H7   30   0.703   0.027  -0.086
    1UNL     H8   31   0.280   0.169   0.189
    1UNL     H9   32   0.049   0.104   0.178
    1UNL    H10   33  -0.065  -0.161   0.208
    1UNL    H11   34  -0.115  -0.187   0.035
    1UNL    H12   35  -0.064   0.108  -0.020
    1UNL    H13   36  -0.340  -0.071   0.028
    1UNL    H14   37  -0.470  -0.124  -0.255
    1UNL    H15   38  -0.515  -0.195  -0.108
    1UNL    H16   39  -0.235  -0.220  -0.179
    1UNL    H17   40  -0.472   0.137  -0.155
    1UNL    H18   41  -0.642   0.073   0.042
    1UNL    H19   42  -0.428   0.131   0.147
    1UNL    H20   43  -0.439   0.340  -0.036
    1UNL    H21   44  -0.215   0.258   0.112
    1UNL    H22   45  -0.263   0.249  -0.174
    1UNL    H23   46   0.106  -0.248  -0.027
    1UNL    H24   47   0.356  -0.205  -0.035
   0.00000   0.00000   0.00000   0.00000   0.00000   0.00000   0.00000   0.00000   0.00000
Generated with MDTraj, t= 94.0
 47
    1UNL     C1    1   0.533  -0.021   0.210
    1UNL     C2    2   0.484   0.030   0.081
    1UNL     C3    3   0.558  -0.031  -0.031
    1UNL     O1    4   0.701  -0.014  -0.017
    1UNL     C4    5   0.335  -0.007   0.063
    1UNL     C5    6   0.250   0.062   0.146
    1UNL     C6    7   0.121   0.028   0.159
    1UNL     C7    8   0.065  -0.082   0.095
    1UNL     C8    9  -0.084  -0.103   0.133
    1UNL     O2   10  -0.151   0.020   0.130
    1UNL     C9   11  -0.167   0.069   0.001
    1UNL     O3   12  -0.235  -0.012  -0.089
    1UNL    C10   13  -0.375  -0.056  -0.073
    1UNL    C11   14  -0.423  -0.151  -0.185
    1UNL     O4   15  -0.354  -0.273  -0.188
    1UNL    C12   16  -0.459   0.078  -0.059
    1UNL     O5   17  -0.594   0.039  -0.012
    1UNL    C13   18  -0.393   0.177   0.036
    1UNL     O6   19  -0.462   0.303   0.017
    1UNL    C14   20  -0.245   0.202   0.004
    1UNL     O7   21  -0.230   0.270  -0.121
    1UNL    C15   22   0.149  -0.145   0.008
    1UNL    C16   23   0.283  -0.115  -0.010
    1UNL     H1   24   0.634   0.003   0.227
    1UNL     H2   25   0.528  -0.133   0.231
    1UNL     H3   26   0.482   0.031   0.292
    1UNL     H4   27   0.492   0.141   0.078
    1UNL     H5   28   0.547  -0.138  -0.051
    1UNL     H6   29   0.534   0.026  -0.122
    1UNL     H7   30   0.730   0.078  -0.023
    1UNL     H8   31   0.288   0.144   0.198
    1UNL     H9   32   0.054   0.081   0.231
    1UNL    H10   33  -0.088  -0.135   0.240
    1UNL    H11   34  -0.122  -0.187   0.064
    1UNL    H12   35  -0.059   0.089  -0.033
    1UNL    H13   36  -0.366  -0.114   0.019
    1UNL    H14   37  -0.411  -0.100  -0.281
    1UNL    H15   38  -0.534  -0.174  -0.188
    1UNL    H16   39  -0.289  -0.274  -0.113
    1UNL    H17   40  -0.458   0.117  -0.160
    1UNL    H18   41  -0.626   0.111   0.051
    1UNL    H19   42  -0.409   0.143   0.140
    1UNL    H20   43  -0.410   0.350  -0.049
    1UNL    H21   44  -0.205   0.277   0.081
    1UNL    H22   45  -0.260   0.216  -0.195
    1UNL    H23   46   0.110  -0.226  -0.057
    1UNL    H24   47   0.352  -0.183  -0.051
   0.00000   0.00000   0.00000   0.00000   0.00000   0.00000   0.00000   0.00000   0.00000
Generated with MDTraj, t= 95.0
 47
    1UNL     C1    1   0.565  -0.102   0.172
    1UNL     C2    2   0.485   0.018   0.100
    1UNL     C3    3   0.545   0.024  -0.045
    1UNL     O1    4   0.687   0.021  -0.051
    1UNL     C4    5   0.337  -0.001   0.101
    1UNL     C5    6   0.245   0.066   0.184
    1UNL     C6    7   0.112   0.029   0.194
    1UNL     C7    8   0.060  -0.078   0.117
    1UNL     C8    9  -0.091  -0.109   0.129
    1UNL     O2   10  -0.171   0.007   0.114
    1UNL     C9   11  -0.168   0.058  -0.018
    1UNL     O3   12  -0.242  -0.015  -0.115
    1UNL    C10   13  -0.374  -0.052  -0.074
    1UNL    C11   14  -0.435  -0.166  -0.152
    1UNL     O4   15  -0.346  -0.270  -0.177
    1UNL    C12   16  -0.454   0.082  -0.066
    1UNL     O5   17  -0.593   0.063  -0.027
    1UNL    C13   18  -0.386   0.182   0.028
    1UNL     O6   19  -0.447   0.316   0.025
    1UNL    C14   20  -0.241   0.195  -0.020
    1UNL     O7   21  -0.234   0.248  -0.146
    1UNL    C15   22   0.156  -0.142   0.035
    1UNL    C16   23   0.290  -0.105   0.027
    1UNL     H1   24   0.669  -0.073   0.170
    1UNL     H2   25   0.560  -0.201   0.118
    1UNL     H3   26   0.538  -0.110   0.278
    1UNL     H4   27   0.504   0.112   0.155
    1UNL     H5   28   0.516  -0.071  -0.093
    1UNL     H6   29   0.513   0.111  -0.104
    1UNL     H7   30   0.726   0.109  -0.043
    1UNL     H8   31   0.283   0.152   0.244
    1UNL     H9   32   0.043   0.075   0.259
    1UNL    H10   33  -0.112  -0.160   0.223
    1UNL    H11   34  -0.118  -0.175   0.042
    1UNL    H12   35  -0.055   0.054  -0.045
    1UNL    H13   36  -0.367  -0.091   0.029
    1UNL    H14   37  -0.467  -0.127  -0.249
    1UNL    H15   38  -0.530  -0.199  -0.105
    1UNL    H16   39  -0.259  -0.228  -0.162
    1UNL    H17   40  -0.450   0.125  -0.164
    1UNL    H18   41  -0.602   0.130   0.047
    1UNL    H19   42  -0.395   0.147   0.135
    1UNL    H20   43  -0.431   0.353  -0.069
    1UNL    H21   44  -0.201   0.273   0.048
    1UNL    H22   45  -0.248   0.175  -0.213
    1UNL    H23   46   0.128  -0.225  -0.020
    1UNL    H24   47   0.361  -0.161  -0.034
   0.00000   0.00000   0.00000   0.00000   0.00000   0.00000   0.00000   0.00000   0.00000
Generated with MDTraj, t= 96.0
 47
    1UNL     C1    1   0.590  -0.139   0.116
    1UNL     C2    2   0.489  -0.018   0.110
    1UNL     C3    3   0.520   0.046  -0.029
    1UNL     O1    4   0.641   0.113  -0.054
    1UNL     C4    5   0.343  -0.049   0.134
    1UNL     C5    6   0.260   0.045   0.201
    1UNL     C6    7   0.122   0.024   0.200
    1UNL     C7    8   0.064  -0.075   0.123
    1UNL     C8    9  -0.089  -0.093   0.124
    1UNL     O2   10  -0.155   0.035   0.110
    1UNL     C9   11  -0.156   0.066  -0.024
    1UNL     O3   12  -0.229  -0.030  -0.106
    1UNL    C10   13  -0.368  -0.050  -0.063
    1UNL    C11   14  -0.437  -0.168  -0.141
    1UNL     O4   15  -0.364  -0.285  -0.162
    1UNL    C12   16  -0.445   0.083  -0.065
    1UNL     O5   17  -0.580   0.063  -0.027
    1UNL    C13   18  -0.384   0.194   0.016
    1UNL     O6   19  -0.461   0.313  -0.004
    1UNL    C14   20  -0.238   0.206  -0.038
    1UNL     O7   21  -0.224   0.262  -0.164
    1UNL    C15   22   0.141  -0.163   0.041
    1UNL    C16   23   0.277  -0.142   0.052
    1UNL     H1   24   0.693  -0.093   0.118
    1UNL     H2   25   0.586  -0.198   0.025
    1UNL     H3   26   0.573  -0.195   0.209
    1UNL     H4   27   0.516   0.051   0.191
    1UNL     H5   28   0.512  -0.037  -0.101
    1UNL     H6   29   0.435   0.114  -0.039
    1UNL     H7   30   0.669   0.160   0.031
    1UNL     H8   31   0.305   0.121   0.258
    1UNL     H9   32   0.055   0.093   0.254
    1UNL    H10   33  -0.123  -0.130   0.219
    1UNL    H11   34  -0.135  -0.160   0.049
    1UNL    H12   35  -0.048   0.067  -0.067
    1UNL    H13   36  -0.378  -0.082   0.044
    1UNL    H14   37  -0.460  -0.125  -0.237
    1UNL    H15   38  -0.535  -0.183  -0.092
    1UNL    H16   39  -0.268  -0.260  -0.150
    1UNL    H17   40  -0.449   0.116  -0.168
    1UNL    H18   41  -0.609   0.138   0.025
    1UNL    H19   42  -0.379   0.171   0.127
    1UNL    H20   43  -0.408   0.380  -0.054
    1UNL    H21   44  -0.184   0.281   0.020
    1UNL    H22   45  -0.240   0.188  -0.230
    1UNL    H23   46   0.089  -0.246  -0.015
    1UNL    H24   47   0.340  -0.195  -0.019
   0.00000   0.00000   0.00000   0.00000   0.00000   0.00000   0.00000   0.00000   0.00000
Generated with MDTraj, t= 97.0
 47
    1UNL     C1    1   0.578  -0.147   0.052
    1UNL     C2    2   0.485  -0.034   0.094
    1UNL     C3    3   0.501   0.078  -0.014
    1UNL     O1    4   0.618   0.164  -0.010
    1UNL     C4    5   0.336  -0.065   0.121
    1UNL     C5    6   0.259   0.014   0.194
    1UNL     C6    7   0.121   0.000   0.200
    1UNL     C7    8   0.052  -0.100   0.134
    1UNL     C8    9  -0.094  -0.101   0.133
    1UNL     O2   10  -0.136   0.037   0.110
    1UNL     C9   11  -0.154   0.072  -0.019
    1UNL     O3   12  -0.220  -0.018  -0.098
    1UNL    C10   13  -0.363  -0.042  -0.059
    1UNL    C11   14  -0.410  -0.161  -0.150
    1UNL     O4   15  -0.343  -0.275  -0.105
    1UNL    C12   16  -0.450   0.084  -0.075
    1UNL     O5   17  -0.577   0.065  -0.016
    1UNL    C13   18  -0.389   0.206  -0.000
    1UNL     O6   19  -0.449   0.329  -0.040
    1UNL    C14   20  -0.236   0.204  -0.039
    1UNL     O7   21  -0.226   0.247  -0.178
    1UNL    C15   22   0.133  -0.182   0.056
    1UNL    C16   23   0.267  -0.164   0.049
    1UNL     H1   24   0.683  -0.100   0.038
    1UNL     H2   25   0.557  -0.187  -0.043
    1UNL     H3   26   0.589  -0.228   0.127
    1UNL     H4   27   0.529   0.014   0.182
    1UNL     H5   28   0.491   0.027  -0.112
    1UNL     H6   29   0.418   0.147   0.003
    1UNL     H7   30   0.627   0.220   0.073
    1UNL     H8   31   0.310   0.094   0.248
    1UNL     H9   32   0.074   0.057   0.275
    1UNL    H10   33  -0.138  -0.136   0.221
    1UNL    H11   34  -0.133  -0.161   0.051
    1UNL    H12   35  -0.055   0.076  -0.076
    1UNL    H13   36  -0.363  -0.074   0.048
    1UNL    H14   37  -0.394  -0.134  -0.253
    1UNL    H15   38  -0.514  -0.186  -0.129
    1UNL    H16   39  -0.256  -0.261  -0.062
    1UNL    H17   40  -0.453   0.103  -0.183
    1UNL    H18   41  -0.607   0.144   0.031
    1UNL    H19   42  -0.409   0.210   0.112
    1UNL    H20   43  -0.400   0.377  -0.105
    1UNL    H21   44  -0.179   0.275   0.016
    1UNL    H22   45  -0.223   0.164  -0.227
    1UNL    H23   46   0.086  -0.258   0.000
    1UNL    H24   47   0.322  -0.226  -0.018
   0.00000   0.00000   0.00000   0.00000   0.00000   0.00000   0.00000   0.00000   0.00000
Generated with MDTraj, t= 98.0
 47
    1UNL     C1    1   0.545  -0.138  -0.009
    1UNL     C2    2   0.470  -0.038   0.086
    1UNL     C3    3   0.487   0.102   0.030
    1UNL     O1    4   0.619   0.156   0.014
    1UNL     C4    5   0.323  -0.064   0.106
    1UNL     C5    6   0.246   0.019   0.195
    1UNL     C6    7   0.106   0.011   0.209
    1UNL     C7    8   0.044  -0.089   0.132
    1UNL     C8    9  -0.110  -0.091   0.152
    1UNL     O2   10  -0.151   0.040   0.113
    1UNL     C9   11  -0.145   0.057  -0.026
    1UNL     O3   12  -0.214  -0.042  -0.101
    1UNL    C10   13  -0.354  -0.049  -0.041
    1UNL    C11   14  -0.429  -0.179  -0.084
    1UNL     O4   15  -0.329  -0.281  -0.108
    1UNL    C12   16  -0.429   0.082  -0.077
    1UNL     O5   17  -0.564   0.067  -0.043
    1UNL    C13   18  -0.365   0.200  -0.007
    1UNL     O6   19  -0.430   0.320  -0.046
    1UNL    C14   20  -0.213   0.194  -0.044
    1UNL     O7   21  -0.187   0.253  -0.170
    1UNL    C15   22   0.115  -0.158   0.038
    1UNL    C16   23   0.254  -0.149   0.016
    1UNL     H1   24   0.653  -0.116  -0.035
    1UNL     H2   25   0.495  -0.157  -0.102
    1UNL     H3   26   0.550  -0.240   0.034
    1UNL     H4   27   0.513  -0.039   0.186
    1UNL     H5   28   0.451   0.100  -0.076
    1UNL     H6   29   0.429   0.177   0.083
    1UNL     H7   30   0.643   0.208   0.093
    1UNL     H8   31   0.297   0.078   0.269
    1UNL     H9   32   0.055   0.070   0.288
    1UNL    H10   33  -0.138  -0.109   0.250
    1UNL    H11   34  -0.159  -0.165   0.088
    1UNL    H12   35  -0.039   0.056  -0.060
    1UNL    H13   36  -0.340  -0.046   0.068
    1UNL    H14   37  -0.497  -0.176  -0.169
    1UNL    H15   38  -0.484  -0.213   0.003
    1UNL    H16   39  -0.237  -0.250  -0.107
    1UNL    H17   40  -0.420   0.089  -0.188
    1UNL    H18   41  -0.601   0.149  -0.003
    1UNL    H19   42  -0.389   0.187   0.102
    1UNL    H20   43  -0.362   0.371  -0.101
    1UNL    H21   44  -0.164   0.252   0.029
    1UNL    H22   45  -0.189   0.179  -0.235
    1UNL    H23   46   0.050  -0.212  -0.032
    1UNL    H24   47   0.301  -0.204  -0.068
   0.00000   0.00000   0.00000   0.00000   0.00000   0.00000   0.00000   0.00000   0.00000
Generated with MDTraj, t= 99.0
 47
    1UNL     C1    1   0.518  -0.111  -0.060
    1UNL     C2    2   0.469  -0.032   0.064
    1UNL     C3    3   0.514   0.115   0.044
    1UNL     O1    4   0.651   0.144   0.026
    1UNL     C4    5   0.312  -0.044   0.090
    1UNL     C5    6   0.261   0.007   0.211
    1UNL     C6    7   0.126  -0.027   0.235
    1UNL     C7    8   0.045  -0.104   0.152
    1UNL     C8    9  -0.105  -0.093   0.175
    1UNL     O2   10  -0.162   0.034   0.144
    1UNL     C9   11  -0.150   0.057   0.006
    1UNL     O3   12  -0.222  -0.044  -0.071
    1UNL    C10   13  -0.366  -0.051  -0.047
    1UNL    C11   14  -0.421  -0.169  -0.117
    1UNL     O4   15  -0.331  -0.281  -0.094
    1UNL    C12   16  -0.432   0.080  -0.088
    1UNL     O5   17  -0.567   0.085  -0.059
    1UNL    C13   18  -0.365   0.201  -0.018
    1UNL     O6   19  -0.423   0.318  -0.084
    1UNL    C14   20  -0.214   0.190  -0.035
    1UNL     O7   21  -0.186   0.204  -0.172
    1UNL    C15   22   0.098  -0.140   0.035
    1UNL    C16   23   0.232  -0.110   0.006
    1UNL     H1   24   0.624  -0.094  -0.072
    1UNL     H2   25   0.465  -0.072  -0.149
    1UNL     H3   26   0.500  -0.222  -0.061
    1UNL     H4   27   0.522  -0.075   0.149
    1UNL     H5   28   0.468   0.162  -0.046
    1UNL     H6   29   0.478   0.181   0.123
    1UNL     H7   30   0.692   0.114   0.108
    1UNL     H8   31   0.326   0.044   0.288
    1UNL     H9   32   0.089   0.002   0.329
    1UNL    H10   33  -0.126  -0.100   0.277
    1UNL    H11   34  -0.155  -0.174   0.123
    1UNL    H12   35  -0.043   0.060  -0.013
    1UNL    H13   36  -0.386  -0.055   0.062
    1UNL    H14   37  -0.417  -0.152  -0.225
    1UNL    H15   38  -0.525  -0.196  -0.093
    1UNL    H16   39  -0.243  -0.253  -0.055
    1UNL    H17   40  -0.424   0.107  -0.196
    1UNL    H18   41  -0.587   0.184  -0.060
    1UNL    H19   42  -0.398   0.194   0.087
    1UNL    H20   43  -0.354   0.334  -0.152
    1UNL    H21   44  -0.173   0.271   0.020
    1UNL    H22   45  -0.198   0.117  -0.223
    1UNL    H23   46   0.033  -0.176  -0.042
    1UNL    H24   47   0.255  -0.112  -0.095
   0.00000   0.00000   0.00000   0.00000   0.00000   0.00000   0.00000   0.00000   0.00000
