[ moleculetype ]
; name        nrexcl
res           1

[ atoms ]
;    nr  type  resnr resid  atom  cgnr     charge       mass
      1 N4a       1 res   C1        1      0.000     72.000
      2 TC3       1 res   C2        2      0.000     36.000
      3 TC5       1 res   C3        3      0.000     36.000
      4 TC3       1 res   C4        4      0.000     36.000
      5 TC5       1 res   C5        5      0.000     36.000
      6 TN6d      1 res   C6        6      0.000     36.000
      7 TC5       1 res   C7        7      0.000     36.000
      8 TC5       1 res   C8        8      0.000     36.000
      9 TC5       1 res   C9        9      0.000     36.000
     10 TC3       1 res   C10      10      0.000     36.000
     11 TN6d      1 res   C11      11      0.000     36.000
     12 P4        1 res   C12      12      0.000     72.000

[ constraints ]
;  ai    aj   funct      b0(nm)
   10    11     1      0.30253
    3     5     1      0.20960
    2     3     1      0.21822
   11    12     1      0.26516
    4     5     1      0.24990
    5    10     1      0.28869
    3    11     1      0.25916
    5     7     1      0.18806
    7     9     1      0.24856
    2     5     1      0.25986
    3     4     1      0.29034
    7     8     1      0.24922
    5     6     1      0.22098
    6     7     1      0.22050
    3    12     1      0.26773
    8     9     1      0.28977

[ bonds ]
;  ai    aj   funct      b0(nm)          k(kJ/mol/nm^2)
    1     2     1      0.36074          14051.7

[ angles ]
;  ai    aj    ak  funct     th0(deg)        k(kJ/mol/rad^2)
    1     2     3     1    142.96751           134.41
    1     2     5     1     92.85603           164.00
    2     3     4     1     74.26535          3088.27
    2     3     5     1     74.79370          2364.61
    2     3    11     1    148.97302           459.07
    2     3    12     1    106.99479          2018.76
    2     5     3     1     54.11333          3790.42
    2     5     4     1     75.54542          2781.19
    2     5     6     1    105.42965          1331.30
    2     5     7     1    166.08285          1139.30
    2     5    10     1    106.30407          1436.02
    3     2     5     1     51.09287          5330.34
    3     4     5     1     44.87497          6669.55
    3     5     4     1     77.84219          2369.39
    3     5     6     1    158.41350          1056.79
    3     5     7     1    134.38859           972.32
    3     5    10     1     69.35006          3386.18
    3    11    10     1     61.83469          1834.80
    3    11    12     1     61.39789          3197.19
    3    12    11     1     58.19577          2585.57
    4     3     5     1     57.28286          3376.02
    4     3    11     1    132.78575           478.02
    4     3    12     1     98.69958          1558.73
    4     5     6     1     93.27815           278.15
    4     5     7     1     95.06614          1233.45
    4     5    10     1    135.21782          1364.80
    5     3    11     1    129.16536          1808.58
    5     3    12     1    154.99562           893.07
    5     6     7     1     50.42785          4345.42
    5     7     6     1     64.91789          2492.61
    5     7     8     1    159.24185           945.71
    5     7     9     1    126.29588          1486.56
    5    10    11     1     91.56584          3436.67
    6     5     7     1     64.65437          3454.13
    6     5    10     1    126.85138           308.04
    6     7     8     1     95.88860           976.70
    6     7     9     1    163.33049           499.22
    7     5    10     1     87.33655          1218.81
    7     8     9     1     54.29357          7281.08
    7     9     8     1     54.50539          9270.27
    8     7     9     1     71.20104          6082.08
   10    11    12     1    123.07004          1018.53
   11     3    12     1     60.40630          3736.04

[ dihedrals ]
;  ai    aj    ak    al  funct   phi0(deg)        k(kJ/mol)   mult
    1     2     3     4     1    127.12782       18.424      1
    1     2     3     5     1   -172.12294       19.055      1
    1     2     3    11     1    -24.63088       17.634      1
    1     2     3    12     1     32.45603       16.988      1
    1     2     5     3     1      5.05731       12.907      1
    1     2     5     4     1     91.83990       12.194      1
    1     2     5     6     1   -178.05606       12.258      1
    1     2     5     7     1    137.08100       22.319      1
    1     2     5    10     1    -42.83581       12.921      1
    2     3     4     5     1    -98.01974        4.791      1
    2     3     5     4     1     99.01179        5.457      1
    2     3     5     6     1    173.28304       21.627      1
    2     3     5     7     1     15.11765        7.070      1
    2     3     5    10     1    -50.91244        7.018      1
    2     3    11    10     1     71.90819       10.740      1
    2     3    11    12     1   -109.85616       13.544      1
    2     3    12    11     1     30.86847       10.031      1
    2     5     3     4     1    -99.01179        5.457      1
    2     5     3    11     1     23.05801       11.468      1
    2     5     3    12     1    -84.82024        9.996      1
    2     5     4     3     1    124.01990        3.259      1
    2     5     6     7     1     10.21324        6.287      1
    2     5     7     6     1   -136.46522       19.064      1
    2     5     7     8     1   -157.87659       24.664      1
    2     5     7     9     1     56.81302       19.809      1
    2     5    10    11     1   -122.01158        7.825      1
    3     2     5     4     1    -95.00576        5.504      1
    3     2     5     6     1     -3.47007       10.680      1
    3     2     5     7     1    -47.48843       19.013      1
    3     2     5    10     1    130.11551        6.226      1
    3     4     5     6     1     19.01428        5.554      1
    3     4     5     7     1    -45.03993        7.013      1
    3     4     5    10     1   -136.06749        6.339      1
    3     5     6     7     1     16.39572       20.033      1
    3     5     7     6     1     -7.77145       12.146      1
    3     5     7     8     1    -28.08895       21.614      1
    3     5     7     9     1   -179.00948       12.949      1
    3     5    10    11     1   -161.08270        7.064      1
    3    11    10     5     1    164.98312        5.586      1
    3    12    11    10     1   -179.04546        8.602      1
    4     3     2     5     1    120.92984        3.984      1
    4     3     5     6     1   -105.38007       20.278      1
    4     3     5     7     1     95.01632        7.049      1
    4     3     5    10     1     30.05887        6.286      1
    4     3    11    10     1    -73.94025        7.805      1
    4     3    11    12     1    107.57038        7.047      1
    4     3    12    11     1    -45.93687        9.274      1
    4     5     3    11     1    -58.03353       10.741      1
    4     5     3    12     1   -164.35659       10.716      1
    4     5     6     7     1     86.92592        7.067      1
    4     5     7     6     1    -83.64408       12.050      1
    4     5     7     8     1   -106.62215       20.848      1
    4     5     7     9     1    101.01567       11.510      1
    4     5    10    11     1    152.95968       11.457      1
    5     2     3    11     1    -33.64221       12.167      1
    5     2     3    12     1     25.95909        6.309      1
    5     3    11    10     1   -152.95566       10.017      1
    5     3    11    12     1     27.06292        8.557      1
    5     3    12    11     1    -59.43966       10.742      1
    5     4     3    11     1     63.65357        7.716      1
    5     4     3    12     1      6.10347        6.259      1
    5     6     7     8     1     -7.80211       10.719      1
    5     6     7     9     1    -28.81283       23.927      1
    5     7     8     9     1     24.81710       19.628      1
    5     7     9     8     1    -11.16772       12.853      1
    5    10    11    12     1    164.04093       12.232      1
    6     5     3    11     1     13.77109       22.782      1
    6     5     3    12     1    -92.48877       20.340      1
    6     5     7     8     1    160.70034       20.287      1
    6     5     7     9     1     10.09310       15.030      1
    6     5    10    11     1      5.02177       10.028      1
    6     7     5    10     1     49.13411       11.425      1
    6     7     8     9     1      7.06030       12.908      1
    6     7     9     8     1   -160.53217       24.673      1
    7     5     3    11     1   -144.93403       11.486      1
    7     5     3    12     1    110.07884       12.167      1
    7     5    10    11     1     58.00984        9.250      1
    7     6     5    10     1   -114.33058       10.703      1
    8     7     5    10     1     29.12736       22.246      1
    9     7     5    10     1   -122.80000       11.518      1
   10     5     3    11     1    152.94379       10.067      1
   10     5     3    12     1     47.07345       11.489      1
   10    11     3    12     1      0.98464        8.575      1
