1TPCN03140
16
    1res  C1    1    0.651  -0.027   0.310
    1res  C2    2    0.542  -0.057   0.052
    1res  C3    3    0.443  -0.162  -0.060
    1res  C4    4    0.237  -0.164  -0.188
    1res  C5    5   -0.000  -0.136  -0.188
    1res  C6    6    0.086   0.197  -0.228
    1res  C7    7   -0.151   0.129  -0.130
    1res  C8    8   -0.306   0.293  -0.055
    1res  C9    9   -0.502   0.452  -0.047
    1res  C10   10   -0.757   0.472  -0.021
    1res  C11   11   -0.620   0.207  -0.018
    1res  C12   12   -0.281  -0.328  -0.017
    1res  C13   13    0.118  -0.013   0.172
    1res  C14   14   -0.109  -0.087   0.253
    1res  C15   15   -0.294   0.066   0.234
    1res  C16   16    0.294   0.037  -0.127
  10.00000  10.00000  10.00000
