1TPCN03968
37
    1res  C1    1   -0.654  -0.147  -0.331
    1res  C2    2   -0.700  -0.203  -0.030
    1res  C3    3   -0.732  -0.069   0.132
    1res  C4    4   -0.600   0.070   0.209
    1res  C5    5   -0.326  -0.108   0.236
    1res  C6    6   -0.254   0.034  -0.007
    1res  C7    7    0.003   0.215   0.187
    1res  C8    8    0.048   0.083  -0.058
    1res  C9    9    0.032  -0.181  -0.108
    1res  C10   10    0.228  -0.015   0.179
    1res  C11   11    0.386  -0.234  -0.034
    1res  C12   12    0.532  -0.468  -0.030
    1res  C13   13    0.633  -0.211   0.118
    1res  C14   14    0.539  -0.036  -0.183
    1res  C15   15    0.824   0.061  -0.293
    1res  C16   16    1.010   0.227  -0.135
    1res  C17   17    1.273   0.231  -0.101
    1res  C18   18    1.498   0.134  -0.284
    1res  C19   19    1.532   0.084  -0.001
    1res  C20   20    1.436   0.255   0.157
    1res  C21   21    1.214   0.219   0.176
    1res  C22   22    1.005  -0.073  -0.077
    1res  C23   23    0.920  -0.247  -0.194
    1res  C24   24    0.834  -0.146  -0.390
    1res  C25   25    0.405   0.125   0.036
    1res  C26   26   -0.340   0.248   0.282
    1res  C27   27   -0.781   0.235   0.074
    1res  C28   28   -0.956   0.155   0.170
    1res  C29   29   -1.267   0.132   0.152
    1res  C30   30   -1.392   0.241   0.318
    1res  C31   31   -1.486   0.221  -0.006
    1res  C32   32   -1.317   0.154  -0.115
    1res  C33   33   -1.166   0.352  -0.018
    1res  C34   34   -0.931  -0.035   0.259
    1res  C35   35   -0.949  -0.188  -0.112
    1res  C36   36   -0.839  -0.443  -0.105
    1res  C37   37   -0.775  -0.418  -0.312
  10.00000  10.00000  10.00000
