1TPCN01032
12
    1res  C1    1    0.509   0.026   0.123
    1res  C2    2    0.634  -0.063  -0.108
    1res  C3    3    0.314  -0.064  -0.054
    1res  C4    4    0.077  -0.063   0.030
    1res  C5    5   -0.191  -0.039   0.170
    1res  C6    6   -0.127  -0.326   0.051
    1res  C7    7   -0.372  -0.209   0.012
    1res  C8    8   -0.423   0.061  -0.149
    1res  C9    9   -0.077  -0.023  -0.208
    1res  C10   10    0.114   0.218   0.099
    1res  C11   11   -0.016   0.302  -0.143
    1res  C12   12   -0.144   0.505  -0.065
  10.00000  10.00000  10.00000
