1TPCN02908
18
    1res  C1    1   -0.087  -0.036  -0.352
    1res  C2    2    0.238  -0.236  -0.335
    1res  C3    3    0.028  -0.259  -0.134
    1res  C4    4   -0.018  -0.010  -0.021
    1res  C5    5   -0.222  -0.105   0.089
    1res  C6    6   -0.436  -0.075  -0.031
    1res  C7    7   -0.689  -0.030  -0.014
    1res  C8    8   -0.520  -0.060   0.229
    1res  C9    9   -0.163   0.186   0.041
    1res  C10   10   -0.210   0.203   0.283
    1res  C11   11   -0.376   0.267   0.469
    1res  C12   12   -0.474   0.324   0.201
    1res  C13   13    0.177   0.167   0.064
    1res  C14   14    0.248   0.080  -0.221
    1res  C15   15    0.417  -0.077  -0.062
    1res  C16   16    0.493   0.030   0.073
    1res  C17   17    0.543  -0.289   0.221
    1res  C18   18    0.646  -0.022   0.270
  10.00000  10.00000  10.00000
