1TPCN05921
16
    1res  C1    1   -0.246   0.404   0.139
    1res  C2    2   -0.419   0.165  -0.125
    1res  C3    3   -0.244  -0.080  -0.159
    1res  C4    4   -0.488   0.003   0.200
    1res  C5    5   -0.597  -0.243   0.124
    1res  C6    6   -0.864  -0.110  -0.071
    1res  C7    7   -0.108  -0.108   0.138
    1res  C8    8    0.118  -0.084  -0.088
    1res  C9    9    0.405  -0.084   0.067
    1res  C10   10    0.791  -0.036  -0.144
    1res  C11   11    0.972  -0.195  -0.148
    1res  C12   12    1.017  -0.090   0.099
    1res  C13   13    0.782  -0.127   0.159
    1res  C14   14    0.436   0.230   0.020
    1res  C15   15    0.141   0.207  -0.122
    1res  C16   16   -0.051   0.125  -0.006
  10.00000  10.00000  10.00000
