Generated with MDTraj, t= 0.0
 112
    1UNL     C1    1  -0.638   0.203   0.059
    1UNL     C2    2  -0.519   0.140   0.120
    1UNL     C3    3  -0.494   0.009   0.119
    1UNL     C4    4  -0.590  -0.088   0.059
    1UNL     N1    5  -0.529  -0.179  -0.041
    1UNL     C5    6  -0.604  -0.305  -0.060
    1UNL     C6    7  -0.381  -0.201  -0.027
    1UNL     C7    8  -0.301  -0.122  -0.132
    1UNL     C8    9  -0.319   0.026  -0.128
    1UNL     C9   10  -0.262   0.113  -0.038
    1UNL     N2   11  -0.305   0.241  -0.065
    1UNL    C10   12  -0.392   0.238  -0.172
    1UNL    C11   13  -0.465   0.338  -0.236
    1UNL    C12   14  -0.548   0.303  -0.339
    1UNL    C13   15  -0.560   0.169  -0.380
    1UNL    C14   16  -0.489   0.069  -0.319
    1UNL    C15   17  -0.403   0.103  -0.213
    1UNL    C16   18  -0.174   0.076   0.078
    1UNL    C17   19  -0.068   0.181   0.102
    1UNL    C18   20  -0.098   0.304   0.161
    1UNL     O1   21  -0.231   0.330   0.196
    1UNL    C19   22  -0.254   0.455   0.258
    1UNL    C20   23   0.007   0.397   0.182
    1UNL    C21   24   0.136   0.372   0.146
    1UNL    C22   25   0.166   0.250   0.084
    1UNL    C23   26   0.289   0.193   0.034
    1UNL    C24   27   0.257   0.069  -0.017
    1UNL     N3   28   0.122   0.047   0.002
    1UNL    C25   29   0.064   0.156   0.063
    1UNL    C26   30   0.340  -0.042  -0.080
    1UNL    C27   31   0.242  -0.115  -0.173
    1UNL     O2   32   0.231  -0.079  -0.288
    1UNL     O3   33   0.167  -0.213  -0.116
    1UNL    C28   34   0.074  -0.262  -0.208
    1UNL    C29   35   0.393  -0.138   0.032
    1UNL    C30   36   0.547  -0.153   0.023
    1UNL    C31   37   0.584  -0.208  -0.118
    1UNL    C32   38   0.550  -0.101  -0.226
    1UNL    C33   39   0.495  -0.156  -0.362
    1UNL    C34   40   0.433  -0.295  -0.357
    1UNL    C35   41   0.463   0.011  -0.160
    1UNL     N4   42   0.553   0.081  -0.064
    1UNL    C36   43   0.531   0.228  -0.043
    1UNL    C37   44   0.421   0.260   0.057
    1UNL    C38   45   0.614  -0.013   0.038
    1UNL    C39   46   0.612   0.038   0.182
    1UNL    C40   47   0.690  -0.049   0.275
    1UNL    C41   48   0.810   0.007   0.343
    1UNL     O4   49   0.657  -0.163   0.294
    1UNL    C42   50  -0.253   0.042   0.206
    1UNL    C43   51  -0.373  -0.053   0.188
    1UNL    C44   52  -0.330  -0.185   0.119
    1UNL    C45   53  -0.374  -0.304   0.201
    1UNL     O5   54  -0.489  -0.313   0.238
    1UNL     O6   55  -0.277  -0.397   0.226
    1UNL    C46   56  -0.331  -0.500   0.303
    1UNL     H1   57  -0.730   0.168   0.106
    1UNL     H2   58  -0.644   0.181  -0.048
    1UNL     H3   59  -0.636   0.312   0.068
    1UNL     H4   60  -0.446   0.206   0.164
    1UNL     H5   61  -0.675  -0.037   0.012
    1UNL     H6   62  -0.632  -0.150   0.139
    1UNL     H7   63  -0.710  -0.284  -0.078
    1UNL     H8   64  -0.596  -0.367   0.029
    1UNL     H9   65  -0.565  -0.360  -0.146
    1UNL    H10   66  -0.367  -0.308  -0.050
    1UNL    H11   67  -0.330  -0.157  -0.232
    1UNL    H12   68  -0.195  -0.145  -0.122
    1UNL    H13   69  -0.286   0.321  -0.004
    1UNL    H14   70  -0.456   0.440  -0.204
    1UNL    H15   71  -0.605   0.379  -0.390
    1UNL    H16   72  -0.627   0.144  -0.461
    1UNL    H17   73  -0.499  -0.033  -0.349
    1UNL    H18   74  -0.121  -0.015   0.048
    1UNL    H19   75  -0.226   0.536   0.190
    1UNL    H20   76  -0.196   0.461   0.350
    1UNL    H21   77  -0.360   0.463   0.281
    1UNL    H22   78  -0.016   0.491   0.229
    1UNL    H23   79   0.214   0.444   0.163
    1UNL    H24   80   0.075  -0.039  -0.026
    1UNL    H25   81   0.126  -0.316  -0.287
    1UNL    H26   82   0.019  -0.178  -0.251
    1UNL    H27   83   0.005  -0.329  -0.156
    1UNL    H28   84   0.345  -0.236   0.021
    1UNL    H29   85   0.363  -0.100   0.130
    1UNL    H30   86   0.584  -0.219   0.102
    1UNL    H31   87   0.527  -0.300  -0.135
    1UNL    H32   88   0.689  -0.237  -0.122
    1UNL    H33   89   0.645  -0.050  -0.249
    1UNL    H34   90   0.420  -0.085  -0.400
    1UNL    H35   91   0.575  -0.156  -0.437
    1UNL    H36   92   0.507  -0.371  -0.335
    1UNL    H37   93   0.355  -0.301  -0.281
    1UNL    H38   94   0.386  -0.322  -0.452
    1UNL    H39   95   0.427   0.082  -0.236
    1UNL    H40   96   0.506   0.271  -0.140
    1UNL    H41   97   0.626   0.272  -0.013
    1UNL    H42   98   0.405   0.368   0.059
    1UNL    H43   99   0.453   0.235   0.158
    1UNL    H44  100   0.719  -0.022   0.008
    1UNL    H45  101   0.508   0.042   0.217
    1UNL    H46  102   0.650   0.140   0.186
    1UNL    H47  103   0.786   0.033   0.446
    1UNL    H48  104   0.890  -0.067   0.346
    1UNL    H49  105   0.848   0.096   0.293
    1UNL    H50  106  -0.183  -0.001   0.279
    1UNL    H51  107  -0.286   0.136   0.253
    1UNL    H52  108  -0.409  -0.081   0.288
    1UNL    H53  109  -0.220  -0.188   0.116
    1UNL    H54  110  -0.369  -0.459   0.397
    1UNL    H55  111  -0.413  -0.547   0.248
    1UNL    H56  112  -0.253  -0.574   0.323
   0.00000   0.00000   0.00000   0.00000   0.00000   0.00000   0.00000   0.00000   0.00000
Generated with MDTraj, t= 1.0
 112
    1UNL     C1    1  -0.640   0.189   0.097
    1UNL     C2    2  -0.520   0.116   0.144
    1UNL     C3    3  -0.482  -0.006   0.108
    1UNL     C4    4  -0.570  -0.083   0.013
    1UNL     N1    5  -0.510  -0.193  -0.056
    1UNL     C5    6  -0.585  -0.326  -0.066
    1UNL     C6    7  -0.362  -0.212  -0.035
    1UNL     C7    8  -0.295  -0.120  -0.132
    1UNL     C8    9  -0.328   0.032  -0.121
    1UNL     C9   10  -0.266   0.120  -0.032
    1UNL     N2   11  -0.323   0.242  -0.049
    1UNL    C10   12  -0.404   0.248  -0.159
    1UNL    C11   13  -0.473   0.353  -0.228
    1UNL    C12   14  -0.547   0.325  -0.339
    1UNL    C13   15  -0.561   0.190  -0.383
    1UNL    C14   16  -0.488   0.086  -0.327
    1UNL    C15   17  -0.410   0.114  -0.210
    1UNL    C16   18  -0.180   0.085   0.082
    1UNL    C17   19  -0.069   0.189   0.118
    1UNL    C18   20  -0.093   0.324   0.151
    1UNL     O1   21  -0.224   0.368   0.171
    1UNL    C19   22  -0.245   0.494   0.221
    1UNL    C20   23   0.016   0.418   0.167
    1UNL    C21   24   0.144   0.383   0.133
    1UNL    C22   25   0.172   0.253   0.086
    1UNL    C23   26   0.290   0.196   0.034
    1UNL    C24   27   0.254   0.067  -0.003
    1UNL     N3   28   0.127   0.044   0.034
    1UNL    C25   29   0.068   0.154   0.089
    1UNL    C26   30   0.334  -0.045  -0.071
    1UNL    C27   31   0.226  -0.116  -0.164
    1UNL     O2   32   0.208  -0.090  -0.283
    1UNL     O3   33   0.158  -0.220  -0.106
    1UNL    C28   34   0.073  -0.283  -0.197
    1UNL    C29   35   0.399  -0.141   0.036
    1UNL    C30   36   0.559  -0.152   0.019
    1UNL    C31   37   0.591  -0.202  -0.122
    1UNL    C32   38   0.540  -0.105  -0.232
    1UNL    C33   39   0.473  -0.169  -0.359
    1UNL    C34   40   0.417  -0.310  -0.345
    1UNL    C35   41   0.455   0.007  -0.164
    1UNL     N4   42   0.550   0.080  -0.078
    1UNL    C36   43   0.534   0.227  -0.051
    1UNL    C37   44   0.425   0.266   0.052
    1UNL    C38   45   0.613  -0.005   0.034
    1UNL    C39   46   0.600   0.038   0.182
    1UNL    C40   47   0.674  -0.047   0.279
    1UNL    C41   48   0.794  -0.006   0.355
    1UNL     O4   49   0.635  -0.161   0.296
    1UNL    C42   50  -0.253   0.033   0.213
    1UNL    C43   51  -0.371  -0.066   0.181
    1UNL    C44   52  -0.320  -0.193   0.111
    1UNL    C45   53  -0.360  -0.317   0.190
    1UNL     O5   54  -0.475  -0.328   0.225
    1UNL     O6   55  -0.259  -0.403   0.231
    1UNL    C46   56  -0.319  -0.510   0.294
    1UNL     H1   57  -0.628   0.297   0.109
    1UNL     H2   58  -0.732   0.154   0.158
    1UNL     H3   59  -0.657   0.172  -0.003
    1UNL     H4   60  -0.456   0.163   0.222
    1UNL     H5   61  -0.604  -0.005  -0.070
    1UNL     H6   62  -0.655  -0.111   0.064
    1UNL     H7   63  -0.553  -0.407  -0.005
    1UNL     H8   64  -0.576  -0.365  -0.168
    1UNL     H9   65  -0.692  -0.301  -0.055
    1UNL    H10   66  -0.350  -0.320  -0.067
    1UNL    H11   67  -0.329  -0.160  -0.230
    1UNL    H12   68  -0.191  -0.126  -0.133
    1UNL    H13   69  -0.304   0.332  -0.006
    1UNL    H14   70  -0.454   0.452  -0.191
    1UNL    H15   71  -0.618   0.395  -0.365
    1UNL    H16   72  -0.644   0.157  -0.451
    1UNL    H17   73  -0.488  -0.009  -0.373
    1UNL    H18   74  -0.131  -0.005   0.053
    1UNL    H19   75  -0.212   0.577   0.149
    1UNL    H20   76  -0.194   0.490   0.317
    1UNL    H21   77  -0.350   0.503   0.240
    1UNL    H22   78  -0.015   0.513   0.209
    1UNL    H23   79   0.230   0.459   0.142
    1UNL    H24   80   0.083  -0.049   0.017
    1UNL    H25   81   0.003  -0.354  -0.141
    1UNL    H26   82   0.128  -0.352  -0.270
    1UNL    H27   83   0.023  -0.208  -0.257
    1UNL    H28   84   0.356  -0.237   0.007
    1UNL    H29   85   0.370  -0.138   0.142
    1UNL    H30   86   0.589  -0.221   0.090
    1UNL    H31   87   0.559  -0.305  -0.142
    1UNL    H32   88   0.700  -0.200  -0.136
    1UNL    H33   89   0.625  -0.047  -0.268
    1UNL    H34   90   0.390  -0.109  -0.390
    1UNL    H35   91   0.535  -0.176  -0.454
    1UNL    H36   92   0.494  -0.383  -0.363
    1UNL    H37   93   0.360  -0.325  -0.257
    1UNL    H38   94   0.358  -0.331  -0.439
    1UNL    H39   95   0.407   0.072  -0.238
    1UNL    H40   96   0.514   0.279  -0.142
    1UNL    H41   97   0.634   0.260  -0.016
    1UNL    H42   98   0.411   0.374   0.062
    1UNL    H43   99   0.451   0.236   0.152
    1UNL    H44  100   0.721  -0.008   0.015
    1UNL    H45  101   0.491   0.046   0.203
    1UNL    H46  102   0.619   0.145   0.185
    1UNL    H47  103   0.799   0.101   0.352
    1UNL    H48  104   0.770  -0.031   0.461
    1UNL    H49  105   0.887  -0.053   0.326
    1UNL    H50  106  -0.168  -0.018   0.262
    1UNL    H51  107  -0.287   0.109   0.285
    1UNL    H52  108  -0.416  -0.104   0.274
    1UNL    H53  109  -0.211  -0.190   0.111
    1UNL    H54  110  -0.375  -0.459   0.377
    1UNL    H55  111  -0.408  -0.558   0.243
    1UNL    H56  112  -0.237  -0.593   0.292
   0.00000   0.00000   0.00000   0.00000   0.00000   0.00000   0.00000   0.00000   0.00000
Generated with MDTraj, t= 2.0
 112
    1UNL     C1    1  -0.668   0.173   0.135
    1UNL     C2    2  -0.546   0.107   0.180
    1UNL     C3    3  -0.491   0.004   0.116
    1UNL     C4    4  -0.562  -0.076   0.008
    1UNL     N1    5  -0.491  -0.189  -0.055
    1UNL     C5    6  -0.556  -0.322  -0.058
    1UNL     C6    7  -0.344  -0.186  -0.042
    1UNL     C7    8  -0.273  -0.097  -0.147
    1UNL     C8    9  -0.307   0.046  -0.133
    1UNL     C9   10  -0.264   0.127  -0.032
    1UNL     N2   11  -0.314   0.252  -0.055
    1UNL    C10   12  -0.396   0.249  -0.163
    1UNL    C11   13  -0.486   0.345  -0.220
    1UNL    C12   14  -0.570   0.308  -0.322
    1UNL    C13   15  -0.560   0.179  -0.384
    1UNL    C14   16  -0.473   0.087  -0.327
    1UNL    C15   17  -0.399   0.123  -0.218
    1UNL    C16   18  -0.173   0.096   0.081
    1UNL    C17   19  -0.063   0.185   0.103
    1UNL    C18   20  -0.088   0.313   0.163
    1UNL     O1   21  -0.216   0.343   0.216
    1UNL    C19   22  -0.261   0.479   0.195
    1UNL    C20   23   0.019   0.407   0.165
    1UNL    C21   24   0.145   0.379   0.129
    1UNL    C22   25   0.176   0.251   0.080
    1UNL    C23   26   0.287   0.183   0.037
    1UNL    C24   27   0.247   0.057  -0.011
    1UNL     N3   28   0.113   0.049   0.001
    1UNL    C25   29   0.069   0.164   0.056
    1UNL    C26   30   0.332  -0.049  -0.073
    1UNL    C27   31   0.229  -0.129  -0.154
    1UNL     O2   32   0.184  -0.074  -0.254
    1UNL     O3   33   0.187  -0.252  -0.102
    1UNL    C28   34   0.065  -0.287  -0.145
    1UNL    C29   35   0.398  -0.153   0.027
    1UNL    C30   36   0.560  -0.155   0.019
    1UNL    C31   37   0.588  -0.214  -0.117
    1UNL    C32   38   0.529  -0.115  -0.225
    1UNL    C33   39   0.454  -0.175  -0.356
    1UNL    C34   40   0.398  -0.315  -0.340
    1UNL    C35   41   0.447   0.004  -0.165
    1UNL     N4   42   0.541   0.081  -0.069
    1UNL    C36   43   0.534   0.222  -0.050
    1UNL    C37   44   0.418   0.255   0.048
    1UNL    C38   45   0.607  -0.006   0.043
    1UNL    C39   46   0.591   0.039   0.184
    1UNL    C40   47   0.655  -0.048   0.283
    1UNL    C41   48   0.777   0.001   0.348
    1UNL     O4   49   0.614  -0.158   0.303
    1UNL    C42   50  -0.258   0.064   0.208
    1UNL    C43   51  -0.363  -0.052   0.186
    1UNL    C44   52  -0.308  -0.168   0.107
    1UNL    C45   53  -0.342  -0.306   0.165
    1UNL     O5   54  -0.454  -0.327   0.197
    1UNL     O6   55  -0.243  -0.395   0.187
    1UNL    C46   56  -0.291  -0.497   0.271
    1UNL     H1   57  -0.668   0.188   0.028
    1UNL     H2   58  -0.684   0.274   0.186
    1UNL     H3   59  -0.750   0.110   0.156
    1UNL     H4   60  -0.499   0.139   0.266
    1UNL     H5   61  -0.583  -0.001  -0.083
    1UNL     H6   62  -0.654  -0.108   0.041
    1UNL     H7   63  -0.501  -0.393  -0.110
    1UNL     H8   64  -0.649  -0.326  -0.118
    1UNL     H9   65  -0.588  -0.348   0.046
    1UNL    H10   66  -0.319  -0.294  -0.077
    1UNL    H11   67  -0.291  -0.115  -0.255
    1UNL    H12   68  -0.174  -0.121  -0.134
    1UNL    H13   69  -0.321   0.328   0.012
    1UNL    H14   70  -0.478   0.450  -0.185
    1UNL    H15   71  -0.648   0.384  -0.366
    1UNL    H16   72  -0.623   0.160  -0.462
    1UNL    H17   73  -0.439  -0.009  -0.380
    1UNL    H18   74  -0.126   0.005   0.062
    1UNL    H19   75  -0.239   0.522   0.087
    1UNL    H20   76  -0.210   0.534   0.273
    1UNL    H21   77  -0.364   0.489   0.213
    1UNL    H22   78  -0.006   0.508   0.195
    1UNL    H23   79   0.212   0.454   0.132
    1UNL    H24   80   0.052  -0.033  -0.004
    1UNL    H25   81  -0.015  -0.242  -0.074
    1UNL    H26   82   0.044  -0.402  -0.128
    1UNL    H27   83   0.044  -0.269  -0.252
    1UNL    H28   84   0.366  -0.255   0.013
    1UNL    H29   85   0.370  -0.126   0.132
    1UNL    H30   86   0.602  -0.211   0.092
    1UNL    H31   87   0.532  -0.307  -0.135
    1UNL    H32   88   0.693  -0.241  -0.124
    1UNL    H33   89   0.615  -0.064  -0.264
    1UNL    H34   90   0.367  -0.122  -0.385
    1UNL    H35   91   0.526  -0.167  -0.446
    1UNL    H36   92   0.471  -0.392  -0.349
    1UNL    H37   93   0.327  -0.332  -0.263
    1UNL    H38   94   0.359  -0.350  -0.442
    1UNL    H39   95   0.408   0.067  -0.246
    1UNL    H40   96   0.515   0.262  -0.144
    1UNL    H41   97   0.630   0.265  -0.009
    1UNL    H42   98   0.388   0.358   0.031
    1UNL    H43   99   0.454   0.248   0.148
    1UNL    H44  100   0.718  -0.009   0.033
    1UNL    H45  101   0.481   0.051   0.204
    1UNL    H46  102   0.620   0.143   0.194
    1UNL    H47  103   0.866  -0.004   0.289
    1UNL    H48  104   0.763   0.111   0.369
    1UNL    H49  105   0.796  -0.046   0.445
    1UNL    H50  106  -0.199   0.043   0.298
    1UNL    H51  107  -0.302   0.162   0.231
    1UNL    H52  108  -0.386  -0.100   0.283
    1UNL    H53  109  -0.200  -0.156   0.113
    1UNL    H54  110  -0.337  -0.441   0.351
    1UNL    H55  111  -0.366  -0.566   0.221
    1UNL    H56  112  -0.202  -0.550   0.322
   0.00000   0.00000   0.00000   0.00000   0.00000   0.00000   0.00000   0.00000   0.00000
Generated with MDTraj, t= 3.0
 112
    1UNL     C1    1  -0.697   0.148   0.152
    1UNL     C2    2  -0.564   0.092   0.182
    1UNL     C3    3  -0.489   0.006   0.109
    1UNL     C4    4  -0.548  -0.048  -0.020
    1UNL     N1    5  -0.490  -0.172  -0.077
    1UNL     C5    6  -0.576  -0.290  -0.077
    1UNL     C6    7  -0.347  -0.190  -0.055
    1UNL     C7    8  -0.271  -0.094  -0.150
    1UNL     C8    9  -0.301   0.055  -0.141
    1UNL     C9   10  -0.261   0.138  -0.041
    1UNL     N2   11  -0.330   0.260  -0.053
    1UNL    C10   12  -0.416   0.247  -0.156
    1UNL    C11   13  -0.508   0.338  -0.209
    1UNL    C12   14  -0.582   0.307  -0.317
    1UNL    C13   15  -0.562   0.180  -0.386
    1UNL    C14   16  -0.469   0.086  -0.337
    1UNL    C15   17  -0.399   0.123  -0.219
    1UNL    C16   18  -0.171   0.105   0.069
    1UNL    C17   19  -0.065   0.208   0.100
    1UNL    C18   20  -0.093   0.325   0.172
    1UNL     O1   21  -0.230   0.352   0.203
    1UNL    C19   22  -0.247   0.489   0.217
    1UNL    C20   23   0.013   0.411   0.203
    1UNL    C21   24   0.143   0.377   0.160
    1UNL    C22   25   0.171   0.259   0.078
    1UNL    C23   26   0.288   0.202   0.022
    1UNL    C24   27   0.253   0.071  -0.012
    1UNL     N3   28   0.121   0.056   0.003
    1UNL    C25   29   0.065   0.170   0.059
    1UNL    C26   30   0.330  -0.052  -0.065
    1UNL    C27   31   0.219  -0.137  -0.139
    1UNL     O2   32   0.158  -0.087  -0.235
    1UNL     O3   33   0.204  -0.263  -0.093
    1UNL    C28   34   0.106  -0.335  -0.157
    1UNL    C29   35   0.386  -0.138   0.056
    1UNL    C30   36   0.541  -0.159   0.033
    1UNL    C31   37   0.551  -0.228  -0.104
    1UNL    C32   38   0.523  -0.123  -0.219
    1UNL    C33   39   0.453  -0.188  -0.357
    1UNL    C34   40   0.385  -0.325  -0.328
    1UNL    C35   41   0.440  -0.011  -0.153
    1UNL     N4   42   0.542   0.067  -0.079
    1UNL    C36   43   0.530   0.209  -0.071
    1UNL    C37   44   0.422   0.273   0.019
    1UNL    C38   45   0.614  -0.020   0.030
    1UNL    C39   46   0.621   0.045   0.161
    1UNL    C40   47   0.662  -0.050   0.283
    1UNL    C41   48   0.782  -0.005   0.364
    1UNL     O4   49   0.602  -0.148   0.314
    1UNL    C42   50  -0.253   0.065   0.188
    1UNL    C43   51  -0.361  -0.049   0.162
    1UNL    C44   52  -0.301  -0.175   0.097
    1UNL    C45   53  -0.323  -0.301   0.181
    1UNL     O5   54  -0.426  -0.331   0.237
    1UNL     O6   55  -0.211  -0.385   0.185
    1UNL    C46   56  -0.247  -0.512   0.230
    1UNL     H1   57  -0.777   0.072   0.150
    1UNL     H2   58  -0.695   0.200   0.055
    1UNL     H3   59  -0.733   0.217   0.233
    1UNL     H4   60  -0.540   0.108   0.292
    1UNL     H5   61  -0.563   0.026  -0.093
    1UNL     H6   62  -0.647  -0.083  -0.002
    1UNL     H7   63  -0.609  -0.301  -0.177
    1UNL     H8   64  -0.670  -0.295  -0.018
    1UNL     H9   65  -0.521  -0.376  -0.034
    1UNL    H10   66  -0.338  -0.298  -0.102
    1UNL    H11   67  -0.280  -0.128  -0.253
    1UNL    H12   68  -0.168  -0.094  -0.130
    1UNL    H13   69  -0.326   0.340   0.011
    1UNL    H14   70  -0.519   0.427  -0.153
    1UNL    H15   71  -0.636   0.376  -0.370
    1UNL    H16   72  -0.597   0.160  -0.494
    1UNL    H17   73  -0.459  -0.005  -0.382
    1UNL    H18   74  -0.110   0.022   0.046
    1UNL    H19   75  -0.191   0.556   0.135
    1UNL    H20   76  -0.216   0.510   0.318
    1UNL    H21   77  -0.350   0.511   0.213
    1UNL    H22   78  -0.014   0.500   0.254
    1UNL    H23   79   0.236   0.429   0.194
    1UNL    H24   80   0.062  -0.013  -0.046
    1UNL    H25   81   0.003  -0.306  -0.113
    1UNL    H26   82   0.103  -0.451  -0.140
    1UNL    H27   83   0.099  -0.320  -0.266
    1UNL    H28   84   0.344  -0.237   0.062
    1UNL    H29   85   0.380  -0.077   0.151
    1UNL    H30   86   0.577  -0.213   0.111
    1UNL    H31   87   0.470  -0.304  -0.100
    1UNL    H32   88   0.641  -0.280  -0.132
    1UNL    H33   89   0.613  -0.073  -0.249
    1UNL    H34   90   0.382  -0.120  -0.393
    1UNL    H35   91   0.527  -0.206  -0.446
    1UNL    H36   92   0.443  -0.413  -0.318
    1UNL    H37   93   0.313  -0.329  -0.251
    1UNL    H38   94   0.348  -0.371  -0.427
    1UNL    H39   95   0.401   0.053  -0.236
    1UNL    H40   96   0.521   0.249  -0.165
    1UNL    H41   97   0.635   0.232  -0.032
    1UNL    H42   98   0.407   0.378  -0.004
    1UNL    H43   99   0.458   0.275   0.119
    1UNL    H44  100   0.718  -0.034  -0.011
    1UNL    H45  101   0.516   0.076   0.189
    1UNL    H46  102   0.684   0.132   0.159
    1UNL    H47  103   0.819  -0.089   0.423
    1UNL    H48  104   0.868   0.026   0.301
    1UNL    H49  105   0.761   0.076   0.434
    1UNL    H50  106  -0.177   0.051   0.267
    1UNL    H51  107  -0.322   0.142   0.228
    1UNL    H52  108  -0.389  -0.082   0.264
    1UNL    H53  109  -0.191  -0.162   0.097
    1UNL    H54  110  -0.244  -0.500   0.337
    1UNL    H55  111  -0.340  -0.538   0.172
    1UNL    H56  112  -0.164  -0.591   0.232
   0.00000   0.00000   0.00000   0.00000   0.00000   0.00000   0.00000   0.00000   0.00000
Generated with MDTraj, t= 4.0
 112
    1UNL     C1    1  -0.695   0.145   0.162
    1UNL     C2    2  -0.572   0.075   0.210
    1UNL     C3    3  -0.504  -0.007   0.129
    1UNL     C4    4  -0.559  -0.051  -0.000
    1UNL     N1    5  -0.492  -0.166  -0.077
    1UNL     C5    6  -0.557  -0.299  -0.056
    1UNL     C6    7  -0.341  -0.178  -0.065
    1UNL     C7    8  -0.267  -0.083  -0.159
    1UNL     C8    9  -0.298   0.059  -0.148
    1UNL     C9   10  -0.272   0.140  -0.041
    1UNL     N2   11  -0.338   0.262  -0.053
    1UNL    C10   12  -0.413   0.255  -0.164
    1UNL    C11   13  -0.510   0.348  -0.221
    1UNL    C12   14  -0.587   0.304  -0.323
    1UNL    C13   15  -0.563   0.175  -0.380
    1UNL    C14   16  -0.461   0.089  -0.337
    1UNL    C15   17  -0.392   0.132  -0.227
    1UNL    C16   18  -0.181   0.105   0.072
    1UNL    C17   19  -0.076   0.209   0.096
    1UNL    C18   20  -0.095   0.338   0.152
    1UNL     O1   21  -0.224   0.388   0.182
    1UNL    C19   22  -0.228   0.500   0.267
    1UNL    C20   23   0.023   0.419   0.175
    1UNL    C21   24   0.145   0.382   0.139
    1UNL    C22   25   0.165   0.255   0.090
    1UNL    C23   26   0.280   0.191   0.037
    1UNL    C24   27   0.234   0.072  -0.015
    1UNL     N3   28   0.100   0.054   0.012
    1UNL    C25   29   0.056   0.166   0.073
    1UNL    C26   30   0.314  -0.047  -0.064
    1UNL    C27   31   0.221  -0.144  -0.137
    1UNL     O2   32   0.157  -0.103  -0.234
    1UNL     O3   33   0.213  -0.276  -0.087
    1UNL    C28   34   0.109  -0.351  -0.138
    1UNL    C29   35   0.373  -0.115   0.059
    1UNL    C30   36   0.527  -0.156   0.035
    1UNL    C31   37   0.536  -0.244  -0.092
    1UNL    C32   38   0.503  -0.141  -0.209
    1UNL    C33   39   0.428  -0.202  -0.333
    1UNL    C34   40   0.444  -0.349  -0.329
    1UNL    C35   41   0.435  -0.012  -0.154
    1UNL     N4   42   0.545   0.069  -0.083
    1UNL    C36   43   0.519   0.215  -0.055
    1UNL    C37   44   0.416   0.249   0.055
    1UNL    C38   45   0.610  -0.028   0.030
    1UNL    C39   46   0.623   0.046   0.164
    1UNL    C40   47   0.676  -0.040   0.276
    1UNL    C41   48   0.803  -0.005   0.340
    1UNL     O4   49   0.606  -0.133   0.310
    1UNL    C42   50  -0.260   0.067   0.196
    1UNL    C43   51  -0.363  -0.050   0.166
    1UNL    C44   52  -0.299  -0.166   0.081
    1UNL    C45   53  -0.315  -0.302   0.147
    1UNL     O5   54  -0.415  -0.328   0.209
    1UNL     O6   55  -0.218  -0.390   0.117
    1UNL    C46   56  -0.206  -0.488   0.211
    1UNL     H1   57  -0.757   0.194   0.243
    1UNL     H2   58  -0.754   0.079   0.105
    1UNL     H3   59  -0.668   0.238   0.102
    1UNL     H4   60  -0.542   0.077   0.310
    1UNL     H5   61  -0.558   0.019  -0.070
    1UNL     H6   62  -0.663  -0.076   0.017
    1UNL     H7   63  -0.665  -0.291  -0.070
    1UNL     H8   64  -0.552  -0.317   0.053
    1UNL     H9   65  -0.508  -0.389  -0.098
    1UNL    H10   66  -0.313  -0.289  -0.097
    1UNL    H11   67  -0.300  -0.115  -0.257
    1UNL    H12   68  -0.160  -0.106  -0.166
    1UNL    H13   69  -0.330   0.341   0.016
    1UNL    H14   70  -0.544   0.436  -0.164
    1UNL    H15   71  -0.667   0.368  -0.363
    1UNL    H16   72  -0.611   0.141  -0.463
    1UNL    H17   73  -0.458  -0.020  -0.368
    1UNL    H18   74  -0.123   0.018   0.045
    1UNL    H19   75  -0.198   0.596   0.207
    1UNL    H20   76  -0.166   0.493   0.356
    1UNL    H21   77  -0.328   0.506   0.299
    1UNL    H22   78   0.016   0.522   0.216
    1UNL    H23   79   0.235   0.441   0.166
    1UNL    H24   80   0.044  -0.013  -0.042
    1UNL    H25   81   0.013  -0.324  -0.088
    1UNL    H26   82   0.114  -0.461  -0.120
    1UNL    H27   83   0.099  -0.337  -0.247
    1UNL    H28   84   0.323  -0.212   0.062
    1UNL    H29   85   0.382  -0.048   0.150
    1UNL    H30   86   0.562  -0.206   0.123
    1UNL    H31   87   0.454  -0.320  -0.097
    1UNL    H32   88   0.629  -0.302  -0.087
    1UNL    H33   89   0.601  -0.121  -0.243
    1UNL    H34   90   0.322  -0.190  -0.336
    1UNL    H35   91   0.470  -0.160  -0.433
    1UNL    H36   92   0.538  -0.385  -0.343
    1UNL    H37   93   0.395  -0.403  -0.247
    1UNL    H38   94   0.395  -0.388  -0.423
    1UNL    H39   95   0.414   0.050  -0.246
    1UNL    H40   96   0.483   0.247  -0.147
    1UNL    H41   97   0.616   0.272  -0.037
    1UNL    H42   98   0.412   0.357   0.057
    1UNL    H43   99   0.445   0.222   0.153
    1UNL    H44  100   0.710  -0.064  -0.008
    1UNL    H45  101   0.523   0.074   0.206
    1UNL    H46  102   0.692   0.130   0.152
    1UNL    H47  103   0.780   0.032   0.444
    1UNL    H48  104   0.855  -0.100   0.351
    1UNL    H49  105   0.866   0.063   0.279
    1UNL    H50  106  -0.205   0.020   0.278
    1UNL    H51  107  -0.302   0.162   0.236
    1UNL    H52  108  -0.369  -0.101   0.265
    1UNL    H53  109  -0.184  -0.159   0.080
    1UNL    H54  110  -0.212  -0.445   0.306
    1UNL    H55  111  -0.292  -0.550   0.196
    1UNL    H56  112  -0.114  -0.547   0.194
   0.00000   0.00000   0.00000   0.00000   0.00000   0.00000   0.00000   0.00000   0.00000
Generated with MDTraj, t= 5.0
 112
    1UNL     C1    1  -0.706   0.128   0.179
    1UNL     C2    2  -0.566   0.072   0.205
    1UNL     C3    3  -0.493  -0.009   0.127
    1UNL     C4    4  -0.553  -0.049  -0.007
    1UNL     N1    5  -0.493  -0.167  -0.058
    1UNL     C5    6  -0.569  -0.295  -0.047
    1UNL     C6    7  -0.340  -0.171  -0.060
    1UNL     C7    8  -0.288  -0.070  -0.163
    1UNL     C8    9  -0.325   0.071  -0.151
    1UNL     C9   10  -0.289   0.152  -0.048
    1UNL     N2   11  -0.351   0.271  -0.061
    1UNL    C10   12  -0.428   0.279  -0.177
    1UNL    C11   13  -0.514   0.374  -0.236
    1UNL    C12   14  -0.590   0.326  -0.344
    1UNL    C13   15  -0.579   0.201  -0.407
    1UNL    C14   16  -0.490   0.109  -0.351
    1UNL    C15   17  -0.414   0.147  -0.240
    1UNL    C16   18  -0.190   0.119   0.058
    1UNL    C17   19  -0.081   0.224   0.076
    1UNL    C18   20  -0.106   0.342   0.150
    1UNL     O1   21  -0.234   0.371   0.198
    1UNL    C19   22  -0.244   0.473   0.301
    1UNL    C20   23   0.003   0.437   0.158
    1UNL    C21   24   0.130   0.414   0.105
    1UNL    C22   25   0.156   0.277   0.068
    1UNL    C23   26   0.275   0.195   0.028
    1UNL    C24   27   0.238   0.066  -0.001
    1UNL     N3   28   0.104   0.066   0.012
    1UNL    C25   29   0.051   0.187   0.049
    1UNL    C26   30   0.313  -0.065  -0.043
    1UNL    C27   31   0.203  -0.159  -0.099
    1UNL     O2   32   0.135  -0.102  -0.183
    1UNL     O3   33   0.194  -0.289  -0.070
    1UNL    C28   34   0.092  -0.352  -0.137
    1UNL    C29   35   0.374  -0.138   0.084
    1UNL    C30   36   0.529  -0.167   0.063
    1UNL    C31   37   0.542  -0.243  -0.069
    1UNL    C32   38   0.515  -0.152  -0.192
    1UNL    C33   39   0.436  -0.228  -0.301
    1UNL    C34   40   0.524  -0.328  -0.384
    1UNL    C35   41   0.436  -0.031  -0.144
    1UNL     N4   42   0.531   0.048  -0.064
    1UNL    C36   43   0.512   0.197  -0.070
    1UNL    C37   44   0.412   0.250   0.029
    1UNL    C38   45   0.602  -0.030   0.044
    1UNL    C39   46   0.606   0.036   0.186
    1UNL    C40   47   0.695  -0.047   0.273
    1UNL    C41   48   0.844  -0.019   0.286
    1UNL     O4   49   0.654  -0.143   0.335
    1UNL    C42   50  -0.255   0.063   0.183
    1UNL    C43   51  -0.351  -0.051   0.169
    1UNL    C44   52  -0.276  -0.165   0.085
    1UNL    C45   53  -0.280  -0.300   0.152
    1UNL     O5   54  -0.378  -0.328   0.221
    1UNL     O6   55  -0.179  -0.392   0.124
    1UNL    C46   56  -0.210  -0.524   0.165
    1UNL     H1   57  -0.711   0.242   0.187
    1UNL     H2   58  -0.776   0.079   0.242
    1UNL     H3   59  -0.740   0.116   0.073
    1UNL     H4   60  -0.527   0.095   0.308
    1UNL     H5   61  -0.542   0.042  -0.081
    1UNL     H6   62  -0.656  -0.072  -0.003
    1UNL     H7   63  -0.668  -0.274   0.000
    1UNL     H8   64  -0.512  -0.353   0.022
    1UNL     H9   65  -0.576  -0.350  -0.141
    1UNL    H10   66  -0.305  -0.278  -0.088
    1UNL    H11   67  -0.318  -0.110  -0.257
    1UNL    H12   68  -0.176  -0.080  -0.171
    1UNL    H13   69  -0.348   0.337   0.019
    1UNL    H14   70  -0.527   0.466  -0.184
    1UNL    H15   71  -0.683   0.378  -0.377
    1UNL    H16   72  -0.654   0.166  -0.485
    1UNL    H17   73  -0.473   0.014  -0.395
    1UNL    H18   74  -0.141   0.026   0.019
    1UNL    H19   75  -0.229   0.570   0.246
    1UNL    H20   76  -0.170   0.470   0.382
    1UNL    H21   77  -0.342   0.468   0.342
    1UNL    H22   78  -0.016   0.529   0.203
    1UNL    H23   79   0.206   0.481   0.098
    1UNL    H24   80   0.053  -0.020  -0.016
    1UNL    H25   81   0.001  -0.297  -0.132
    1UNL    H26   82   0.070  -0.443  -0.090
    1UNL    H27   83   0.119  -0.371  -0.243
    1UNL    H28   84   0.339  -0.243   0.092
    1UNL    H29   85   0.365  -0.065   0.171
    1UNL    H30   86   0.561  -0.239   0.144
    1UNL    H31   87   0.480  -0.336  -0.064
    1UNL    H32   88   0.644  -0.276  -0.092
    1UNL    H33   89   0.610  -0.118  -0.225
    1UNL    H34   90   0.359  -0.292  -0.247
    1UNL    H35   91   0.388  -0.161  -0.382
    1UNL    H36   92   0.601  -0.284  -0.440
    1UNL    H37   93   0.570  -0.411  -0.325
    1UNL    H38   94   0.456  -0.368  -0.456
    1UNL    H39   95   0.402   0.025  -0.238
    1UNL    H40   96   0.476   0.224  -0.163
    1UNL    H41   97   0.619   0.235  -0.065
    1UNL    H42   98   0.397   0.355   0.011
    1UNL    H43   99   0.454   0.230   0.126
    1UNL    H44  100   0.705  -0.055   0.001
    1UNL    H45  101   0.506   0.031   0.230
    1UNL    H46  102   0.639   0.142   0.182
    1UNL    H47  103   0.860   0.079   0.229
    1UNL    H48  104   0.870  -0.003   0.391
    1UNL    H49  105   0.902  -0.101   0.243
    1UNL    H50  106  -0.171   0.048   0.252
    1UNL    H51  107  -0.310   0.146   0.232
    1UNL    H52  108  -0.372  -0.087   0.274
    1UNL    H53  109  -0.160  -0.147   0.074
    1UNL    H54  110  -0.231  -0.536   0.270
    1UNL    H55  111  -0.312  -0.537   0.137
    1UNL    H56  112  -0.157  -0.593   0.096
   0.00000   0.00000   0.00000   0.00000   0.00000   0.00000   0.00000   0.00000   0.00000
Generated with MDTraj, t= 6.0
 112
    1UNL     C1    1  -0.689   0.126   0.221
    1UNL     C2    2  -0.555   0.064   0.225
    1UNL     C3    3  -0.500  -0.018   0.134
    1UNL     C4    4  -0.567  -0.071   0.011
    1UNL     N1    5  -0.494  -0.179  -0.062
    1UNL     C5    6  -0.535  -0.318  -0.018
    1UNL     C6    7  -0.351  -0.167  -0.073
    1UNL     C7    8  -0.300  -0.067  -0.174
    1UNL     C8    9  -0.343   0.073  -0.152
    1UNL     C9   10  -0.296   0.159  -0.056
    1UNL     N2   11  -0.361   0.282  -0.058
    1UNL    C10   12  -0.442   0.276  -0.171
    1UNL    C11   13  -0.511   0.381  -0.230
    1UNL    C12   14  -0.569   0.358  -0.352
    1UNL    C13   15  -0.574   0.231  -0.407
    1UNL    C14   16  -0.507   0.130  -0.347
    1UNL    C15   17  -0.435   0.147  -0.228
    1UNL    C16   18  -0.193   0.118   0.051
    1UNL    C17   19  -0.081   0.214   0.084
    1UNL    C18   20  -0.103   0.344   0.124
    1UNL     O1   21  -0.235   0.390   0.148
    1UNL    C19   22  -0.238   0.440   0.280
    1UNL    C20   23   0.007   0.431   0.131
    1UNL    C21   24   0.136   0.388   0.110
    1UNL    C22   25   0.154   0.260   0.064
    1UNL    C23   26   0.274   0.186   0.040
    1UNL    C24   27   0.229   0.060  -0.007
    1UNL     N3   28   0.093   0.050   0.002
    1UNL    C25   29   0.047   0.174   0.047
    1UNL    C26   30   0.302  -0.067  -0.044
    1UNL    C27   31   0.208  -0.164  -0.108
    1UNL     O2   32   0.136  -0.126  -0.196
    1UNL     O3   33   0.200  -0.288  -0.054
    1UNL    C28   34   0.087  -0.368  -0.102
    1UNL    C29   35   0.349  -0.119   0.101
    1UNL    C30   36   0.502  -0.163   0.085
    1UNL    C31   37   0.509  -0.258  -0.034
    1UNL    C32   38   0.505  -0.173  -0.164
    1UNL    C33   39   0.449  -0.262  -0.279
    1UNL    C34   40   0.530  -0.254  -0.405
    1UNL    C35   41   0.424  -0.039  -0.136
    1UNL     N4   42   0.526   0.043  -0.059
    1UNL    C36   43   0.513   0.191  -0.044
    1UNL    C37   44   0.413   0.240   0.058
    1UNL    C38   45   0.591  -0.037   0.056
    1UNL    C39   46   0.645   0.043   0.177
    1UNL    C40   47   0.735  -0.034   0.265
    1UNL    C41   48   0.881  -0.015   0.254
    1UNL     O4   49   0.689  -0.110   0.343
    1UNL    C42   50  -0.258   0.066   0.175
    1UNL    C43   51  -0.350  -0.053   0.158
    1UNL    C44   52  -0.283  -0.162   0.068
    1UNL    C45   53  -0.296  -0.298   0.124
    1UNL     O5   54  -0.377  -0.316   0.215
    1UNL     O6   55  -0.211  -0.387   0.067
    1UNL    C46   56  -0.184  -0.497   0.153
    1UNL     H1   57  -0.693   0.211   0.294
    1UNL     H2   58  -0.761   0.043   0.248
    1UNL     H3   59  -0.714   0.171   0.124
    1UNL     H4   60  -0.485   0.098   0.298
    1UNL     H5   61  -0.588   0.017  -0.068
    1UNL     H6   62  -0.662  -0.106   0.046
    1UNL     H7   63  -0.627  -0.343  -0.081
    1UNL     H8   64  -0.560  -0.323   0.086
    1UNL     H9   65  -0.456  -0.388  -0.039
    1UNL    H10   66  -0.315  -0.269  -0.108
    1UNL    H11   67  -0.345  -0.101  -0.265
    1UNL    H12   68  -0.187  -0.062  -0.199
    1UNL    H13   69  -0.324   0.363  -0.009
    1UNL    H14   70  -0.499   0.482  -0.192
    1UNL    H15   71  -0.633   0.432  -0.385
    1UNL    H16   72  -0.624   0.209  -0.500
    1UNL    H17   73  -0.481   0.043  -0.405
    1UNL    H18   74  -0.142   0.032   0.003
    1UNL    H19   75  -0.217   0.545   0.269
    1UNL    H20   76  -0.174   0.395   0.359
    1UNL    H21   77  -0.342   0.430   0.310
    1UNL    H22   78  -0.001   0.535   0.164
    1UNL    H23   79   0.227   0.450   0.140
    1UNL    H24   80   0.041  -0.032  -0.038
    1UNL    H25   81  -0.002  -0.339  -0.059
    1UNL    H26   82   0.096  -0.469  -0.087
    1UNL    H27   83   0.075  -0.351  -0.208
    1UNL    H28   84   0.291  -0.207   0.136
    1UNL    H29   85   0.359  -0.030   0.172
    1UNL    H30   86   0.534  -0.199   0.192
    1UNL    H31   87   0.418  -0.325  -0.045
    1UNL    H32   88   0.602  -0.316  -0.021
    1UNL    H33   89   0.604  -0.134  -0.179
    1UNL    H34   90   0.447  -0.373  -0.251
    1UNL    H35   91   0.340  -0.226  -0.296
    1UNL    H36   92   0.552  -0.150  -0.420
    1UNL    H37   93   0.637  -0.289  -0.403
    1UNL    H38   94   0.486  -0.292  -0.490
    1UNL    H39   95   0.404   0.016  -0.238
    1UNL    H40   96   0.497   0.220  -0.145
    1UNL    H41   97   0.612   0.239  -0.021
    1UNL    H42   98   0.411   0.345   0.050
    1UNL    H43   99   0.432   0.204   0.160
    1UNL    H44  100   0.688  -0.090   0.018
    1UNL    H45  101   0.559   0.080   0.232
    1UNL    H46  102   0.699   0.138   0.147
    1UNL    H47  103   0.925  -0.086   0.179
    1UNL    H48  104   0.907   0.083   0.207
    1UNL    H49  105   0.934  -0.022   0.350
    1UNL    H50  106  -0.182   0.056   0.255
    1UNL    H51  107  -0.313   0.157   0.211
    1UNL    H52  108  -0.350  -0.093   0.264
    1UNL    H53  109  -0.170  -0.135   0.053
    1UNL    H54  110  -0.212  -0.484   0.257
    1UNL    H55  111  -0.254  -0.572   0.117
    1UNL    H56  112  -0.085  -0.537   0.120
   0.00000   0.00000   0.00000   0.00000   0.00000   0.00000   0.00000   0.00000   0.00000
Generated with MDTraj, t= 7.0
 112
    1UNL     C1    1  -0.696   0.095   0.205
    1UNL     C2    2  -0.560   0.038   0.227
    1UNL     C3    3  -0.488  -0.019   0.133
    1UNL     C4    4  -0.567  -0.055   0.006
    1UNL     N1    5  -0.517  -0.179  -0.056
    1UNL     C5    6  -0.587  -0.305  -0.003
    1UNL     C6    7  -0.374  -0.172  -0.082
    1UNL     C7    8  -0.335  -0.064  -0.187
    1UNL     C8    9  -0.370   0.078  -0.157
    1UNL     C9   10  -0.314   0.163  -0.058
    1UNL     N2   11  -0.358   0.294  -0.074
    1UNL    C10   12  -0.452   0.295  -0.178
    1UNL    C11   13  -0.520   0.405  -0.238
    1UNL    C12   14  -0.592   0.384  -0.351
    1UNL    C13   15  -0.590   0.253  -0.406
    1UNL    C14   16  -0.521   0.148  -0.355
    1UNL    C15   17  -0.452   0.167  -0.233
    1UNL    C16   18  -0.206   0.118   0.037
    1UNL    C17   19  -0.091   0.227   0.041
    1UNL    C18   20  -0.106   0.350   0.108
    1UNL     O1   21  -0.233   0.406   0.142
    1UNL    C19   22  -0.251   0.453   0.279
    1UNL    C20   23   0.010   0.419   0.146
    1UNL    C21   24   0.139   0.383   0.112
    1UNL    C22   25   0.153   0.262   0.053
    1UNL    C23   26   0.273   0.187   0.020
    1UNL    C24   27   0.228   0.060  -0.012
    1UNL     N3   28   0.088   0.063  -0.029
    1UNL    C25   29   0.043   0.186   0.013
    1UNL    C26   30   0.309  -0.070  -0.021
    1UNL    C27   31   0.226  -0.175  -0.087
    1UNL     O2   32   0.183  -0.155  -0.196
    1UNL     O3   33   0.198  -0.277  -0.005
    1UNL    C28   34   0.117  -0.378  -0.068
    1UNL    C29   35   0.366  -0.123   0.118
    1UNL    C30   36   0.518  -0.175   0.102
    1UNL    C31   37   0.526  -0.273  -0.025
    1UNL    C32   38   0.504  -0.185  -0.151
    1UNL    C33   39   0.446  -0.263  -0.275
    1UNL    C34   40   0.459  -0.193  -0.405
    1UNL    C35   41   0.433  -0.047  -0.108
    1UNL     N4   42   0.539   0.032  -0.043
    1UNL    C36   43   0.515   0.184  -0.045
    1UNL    C37   44   0.414   0.228   0.059
    1UNL    C38   45   0.610  -0.051   0.061
    1UNL    C39   46   0.652   0.026   0.184
    1UNL    C40   47   0.760  -0.038   0.269
    1UNL    C41   48   0.896  -0.001   0.228
    1UNL     O4   49   0.731  -0.111   0.359
    1UNL    C42   50  -0.250   0.058   0.172
    1UNL    C43   51  -0.346  -0.067   0.162
    1UNL    C44   52  -0.292  -0.171   0.056
    1UNL    C45   53  -0.278  -0.307   0.121
    1UNL     O5   54  -0.339  -0.327   0.227
    1UNL     O6   55  -0.177  -0.392   0.074
    1UNL    C46   56  -0.197  -0.525   0.129
    1UNL     H1   57  -0.749   0.102   0.302
    1UNL     H2   58  -0.760   0.025   0.134
    1UNL     H3   59  -0.695   0.197   0.172
    1UNL     H4   60  -0.502   0.074   0.313
    1UNL     H5   61  -0.564   0.035  -0.058
    1UNL     H6   62  -0.676  -0.074   0.021
    1UNL     H7   63  -0.691  -0.269   0.025
    1UNL     H8   64  -0.540  -0.352   0.083
    1UNL     H9   65  -0.605  -0.367  -0.090
    1UNL    H10   66  -0.343  -0.270  -0.122
    1UNL    H11   67  -0.363  -0.075  -0.289
    1UNL    H12   68  -0.220  -0.066  -0.193
    1UNL    H13   69  -0.323   0.371  -0.018
    1UNL    H14   70  -0.511   0.507  -0.199
    1UNL    H15   71  -0.642   0.469  -0.411
    1UNL    H16   72  -0.633   0.244  -0.499
    1UNL    H17   73  -0.505   0.060  -0.419
    1UNL    H18   74  -0.150   0.041  -0.017
    1UNL    H19   75  -0.187   0.528   0.301
    1UNL    H20   76  -0.254   0.374   0.359
    1UNL    H21   77  -0.352   0.497   0.276
    1UNL    H22   78  -0.001   0.501   0.219
    1UNL    H23   79   0.222   0.444   0.135
    1UNL    H24   80   0.029  -0.020  -0.050
    1UNL    H25   81   0.031  -0.384  -0.013
    1UNL    H26   82   0.166  -0.468  -0.065
    1UNL    H27   83   0.087  -0.342  -0.167
    1UNL    H28   84   0.322  -0.221   0.145
    1UNL    H29   85   0.366  -0.043   0.200
    1UNL    H30   86   0.548  -0.229   0.204
    1UNL    H31   87   0.444  -0.349  -0.027
    1UNL    H32   88   0.626  -0.323  -0.034
    1UNL    H33   89   0.604  -0.148  -0.178
    1UNL    H34   90   0.513  -0.359  -0.273
    1UNL    H35   91   0.337  -0.296  -0.259
    1UNL    H36   92   0.408  -0.096  -0.407
    1UNL    H37   93   0.556  -0.149  -0.428
    1UNL    H38   94   0.437  -0.249  -0.487
    1UNL    H39   95   0.386   0.003  -0.204
    1UNL    H40   96   0.489   0.225  -0.141
    1UNL    H41   97   0.617   0.217  -0.024
    1UNL    H42   98   0.413   0.333   0.065
    1UNL    H43   99   0.441   0.175   0.152
    1UNL    H44  100   0.705  -0.093   0.007
    1UNL    H45  101   0.567   0.045   0.248
    1UNL    H46  102   0.674   0.131   0.148
    1UNL    H47  103   0.970  -0.011   0.308
    1UNL    H48  104   0.941  -0.074   0.156
    1UNL    H49  105   0.912   0.104   0.189
    1UNL    H50  106  -0.169   0.018   0.236
    1UNL    H51  107  -0.289   0.145   0.228
    1UNL    H52  108  -0.348  -0.115   0.264
    1UNL    H53  109  -0.185  -0.145   0.029
    1UNL    H54  110  -0.148  -0.528   0.229
    1UNL    H55  111  -0.304  -0.552   0.119
    1UNL    H56  112  -0.142  -0.594   0.058
   0.00000   0.00000   0.00000   0.00000   0.00000   0.00000   0.00000   0.00000   0.00000
Generated with MDTraj, t= 8.0
 112
    1UNL     C1    1  -0.692   0.087   0.262
    1UNL     C2    2  -0.544   0.047   0.249
    1UNL     C3    3  -0.494  -0.015   0.144
    1UNL     C4    4  -0.571  -0.044   0.018
    1UNL     N1    5  -0.527  -0.154  -0.066
    1UNL     C5    6  -0.568  -0.286  -0.003
    1UNL     C6    7  -0.383  -0.160  -0.101
    1UNL     C7    8  -0.330  -0.065  -0.211
    1UNL     C8    9  -0.362   0.077  -0.180
    1UNL     C9   10  -0.292   0.151  -0.086
    1UNL     N2   11  -0.341   0.280  -0.090
    1UNL    C10   12  -0.440   0.288  -0.189
    1UNL    C11   13  -0.519   0.390  -0.237
    1UNL    C12   14  -0.612   0.368  -0.332
    1UNL    C13   15  -0.618   0.246  -0.397
    1UNL    C14   16  -0.545   0.142  -0.354
    1UNL    C15   17  -0.450   0.162  -0.249
    1UNL    C16   18  -0.194   0.107   0.023
    1UNL    C17   19  -0.079   0.205   0.056
    1UNL    C18   20  -0.106   0.332   0.105
    1UNL     O1   21  -0.240   0.354   0.148
    1UNL    C19   22  -0.246   0.447   0.255
    1UNL    C20   23   0.002   0.430   0.112
    1UNL    C21   24   0.133   0.384   0.103
    1UNL    C22   25   0.158   0.252   0.060
    1UNL    C23   26   0.279   0.172   0.037
    1UNL    C24   27   0.243   0.044   0.005
    1UNL     N3   28   0.106   0.044  -0.009
    1UNL    C25   29   0.053   0.167   0.023
    1UNL    C26   30   0.325  -0.081  -0.016
    1UNL    C27   31   0.228  -0.185  -0.073
    1UNL     O2   32   0.179  -0.181  -0.182
    1UNL     O3   33   0.206  -0.289   0.016
    1UNL    C28   34   0.103  -0.377  -0.031
    1UNL    C29   35   0.381  -0.129   0.122
    1UNL    C30   36   0.532  -0.161   0.102
    1UNL    C31   37   0.553  -0.248  -0.020
    1UNL    C32   38   0.520  -0.171  -0.151
    1UNL    C33   39   0.439  -0.245  -0.255
    1UNL    C34   40   0.368  -0.166  -0.371
    1UNL    C35   41   0.444  -0.042  -0.119
    1UNL     N4   42   0.542   0.041  -0.040
    1UNL    C36   43   0.522   0.185  -0.028
    1UNL    C37   44   0.419   0.219   0.080
    1UNL    C38   45   0.615  -0.035   0.067
    1UNL    C39   46   0.661   0.035   0.193
    1UNL    C40   47   0.770  -0.037   0.266
    1UNL    C41   48   0.907   0.010   0.223
    1UNL     O4   49   0.750  -0.129   0.344
    1UNL    C42   50  -0.254   0.073   0.158
    1UNL    C43   51  -0.348  -0.050   0.146
    1UNL    C44   52  -0.306  -0.154   0.033
    1UNL    C45   53  -0.297  -0.292   0.097
    1UNL     O5   54  -0.364  -0.315   0.196
    1UNL     O6   55  -0.220  -0.375   0.025
    1UNL    C46   56  -0.194  -0.491   0.103
    1UNL     H1   57  -0.705   0.185   0.316
    1UNL     H2   58  -0.748   0.006   0.319
    1UNL     H3   59  -0.749   0.108   0.169
    1UNL     H4   60  -0.478   0.083   0.326
    1UNL     H5   61  -0.581   0.033  -0.046
    1UNL     H6   62  -0.681  -0.065   0.047
    1UNL     H7   63  -0.663  -0.328  -0.040
    1UNL     H8   64  -0.567  -0.274   0.108
    1UNL     H9   65  -0.498  -0.361  -0.038
    1UNL    H10   66  -0.369  -0.259  -0.141
    1UNL    H11   67  -0.368  -0.094  -0.308
    1UNL    H12   68  -0.215  -0.063  -0.223
    1UNL    H13   69  -0.332   0.352  -0.021
    1UNL    H14   70  -0.521   0.482  -0.183
    1UNL    H15   71  -0.665   0.443  -0.377
    1UNL    H16   72  -0.679   0.245  -0.497
    1UNL    H17   73  -0.560   0.043  -0.380
    1UNL    H18   74  -0.142   0.023  -0.013
    1UNL    H19   75  -0.265   0.539   0.218
    1UNL    H20   76  -0.153   0.447   0.316
    1UNL    H21   77  -0.328   0.417   0.323
    1UNL    H22   78  -0.014   0.527   0.148
    1UNL    H23   79   0.216   0.449   0.118
    1UNL    H24   80   0.060  -0.041  -0.047
    1UNL    H25   81   0.020  -0.350   0.027
    1UNL    H26   82   0.134  -0.475  -0.005
    1UNL    H27   83   0.075  -0.351  -0.137
    1UNL    H28   84   0.343  -0.231   0.147
    1UNL    H29   85   0.378  -0.048   0.201
    1UNL    H30   86   0.571  -0.228   0.194
    1UNL    H31   87   0.482  -0.333  -0.012
    1UNL    H32   88   0.659  -0.286  -0.013
    1UNL    H33   89   0.620  -0.136  -0.184
    1UNL    H34   90   0.509  -0.315  -0.319
    1UNL    H35   91   0.360  -0.307  -0.200
    1UNL    H36   92   0.286  -0.102  -0.330
    1UNL    H37   93   0.419  -0.098  -0.427
    1UNL    H38   94   0.330  -0.239  -0.437
    1UNL    H39   95   0.414   0.024  -0.214
    1UNL    H40   96   0.485   0.206  -0.129
    1UNL    H41   97   0.611   0.240  -0.011
    1UNL    H42   98   0.426   0.323   0.093
    1UNL    H43   99   0.445   0.159   0.168
    1UNL    H44  100   0.708  -0.078   0.010
    1UNL    H45  101   0.574   0.056   0.255
    1UNL    H46  102   0.697   0.138   0.167
    1UNL    H47  103   0.911   0.114   0.189
    1UNL    H48  104   0.971   0.002   0.314
    1UNL    H49  105   0.949  -0.053   0.135
    1UNL    H50  106  -0.166   0.070   0.225
    1UNL    H51  107  -0.323   0.146   0.205
    1UNL    H52  108  -0.335  -0.108   0.243
    1UNL    H53  109  -0.205  -0.137  -0.000
    1UNL    H54  110  -0.120  -0.446   0.175
    1UNL    H55  111  -0.287  -0.538   0.138
    1UNL    H56  112  -0.136  -0.571   0.046
   0.00000   0.00000   0.00000   0.00000   0.00000   0.00000   0.00000   0.00000   0.00000
Generated with MDTraj, t= 9.0
 112
    1UNL     C1    1  -0.681   0.073   0.265
    1UNL     C2    2  -0.545   0.019   0.246
    1UNL     C3    3  -0.495  -0.029   0.137
    1UNL     C4    4  -0.564  -0.009   0.009
    1UNL     N1    5  -0.550  -0.128  -0.080
    1UNL     C5    6  -0.634  -0.238  -0.033
    1UNL     C6    7  -0.402  -0.171  -0.100
    1UNL     C7    8  -0.339  -0.072  -0.208
    1UNL     C8    9  -0.352   0.076  -0.180
    1UNL     C9   10  -0.289   0.160  -0.090
    1UNL     N2   11  -0.343   0.284  -0.108
    1UNL    C10   12  -0.444   0.285  -0.201
    1UNL    C11   13  -0.535   0.386  -0.236
    1UNL    C12   14  -0.638   0.361  -0.325
    1UNL    C13   15  -0.648   0.235  -0.382
    1UNL    C14   16  -0.565   0.135  -0.348
    1UNL    C15   17  -0.451   0.155  -0.257
    1UNL    C16   18  -0.185   0.118   0.007
    1UNL    C17   19  -0.076   0.216   0.047
    1UNL    C18   20  -0.096   0.350   0.088
    1UNL     O1   21  -0.227   0.398   0.116
    1UNL    C19   22  -0.244   0.456   0.243
    1UNL    C20   23   0.016   0.437   0.121
    1UNL    C21   24   0.146   0.395   0.116
    1UNL    C22   25   0.171   0.257   0.085
    1UNL    C23   26   0.289   0.175   0.069
    1UNL    C24   27   0.246   0.047   0.040
    1UNL     N3   28   0.109   0.052   0.028
    1UNL    C25   29   0.061   0.176   0.047
    1UNL    C26   30   0.331  -0.079   0.009
    1UNL    C27   31   0.226  -0.189  -0.041
    1UNL     O2   32   0.158  -0.158  -0.133
    1UNL     O3   33   0.220  -0.304   0.025
    1UNL    C28   34   0.103  -0.373  -0.014
    1UNL    C29   35   0.410  -0.130   0.130
    1UNL    C30   36   0.559  -0.166   0.086
    1UNL    C31   37   0.562  -0.245  -0.044
    1UNL    C32   38   0.504  -0.164  -0.169
    1UNL    C33   39   0.422  -0.253  -0.256
    1UNL    C34   40   0.375  -0.198  -0.391
    1UNL    C35   41   0.434  -0.032  -0.102
    1UNL     N4   42   0.551   0.051  -0.052
    1UNL    C36   43   0.524   0.190  -0.021
    1UNL    C37   44   0.432   0.214   0.098
    1UNL    C38   45   0.635  -0.032   0.051
    1UNL    C39   46   0.697   0.050   0.164
    1UNL    C40   47   0.786  -0.029   0.257
    1UNL    C41   48   0.929   0.028   0.264
    1UNL     O4   49   0.756  -0.133   0.315
    1UNL    C42   50  -0.255   0.061   0.135
    1UNL    C43   51  -0.348  -0.063   0.132
    1UNL    C44   52  -0.311  -0.179   0.028
    1UNL    C45   53  -0.302  -0.318   0.095
    1UNL     O5   54  -0.373  -0.342   0.190
    1UNL     O6   55  -0.210  -0.404   0.036
    1UNL    C46   56  -0.232  -0.535   0.078
    1UNL     H1   57  -0.680   0.187   0.256
    1UNL     H2   58  -0.706   0.042   0.365
    1UNL     H3   59  -0.765   0.036   0.195
    1UNL     H4   60  -0.482   0.036   0.330
    1UNL     H5   61  -0.529   0.081  -0.036
    1UNL     H6   62  -0.677   0.013   0.009
    1UNL     H7   63  -0.731  -0.221   0.008
    1UNL     H8   64  -0.566  -0.279   0.049
    1UNL     H9   65  -0.659  -0.312  -0.111
    1UNL    H10   66  -0.405  -0.267  -0.142
    1UNL    H11   67  -0.378  -0.099  -0.306
    1UNL    H12   68  -0.230  -0.103  -0.212
    1UNL    H13   69  -0.317   0.366  -0.058
    1UNL    H14   70  -0.545   0.480  -0.181
    1UNL    H15   71  -0.712   0.445  -0.338
    1UNL    H16   72  -0.714   0.220  -0.457
    1UNL    H17   73  -0.598   0.026  -0.358
    1UNL    H18   74  -0.144   0.032  -0.038
    1UNL    H19   75  -0.346   0.478   0.260
    1UNL    H20   76  -0.181   0.541   0.257
    1UNL    H21   77  -0.210   0.373   0.308
    1UNL    H22   78  -0.005   0.539   0.162
    1UNL    H23   79   0.225   0.467   0.148
    1UNL    H24   80   0.053  -0.032   0.003
    1UNL    H25   81   0.027  -0.303  -0.056
    1UNL    H26   82   0.066  -0.426   0.076
    1UNL    H27   83   0.129  -0.437  -0.105
    1UNL    H28   84   0.365  -0.228   0.163
    1UNL    H29   85   0.425  -0.056   0.213
    1UNL    H30   86   0.616  -0.207   0.183
    1UNL    H31   87   0.506  -0.338  -0.023
    1UNL    H32   88   0.673  -0.268  -0.056
    1UNL    H33   89   0.593  -0.131  -0.226
    1UNL    H34   90   0.485  -0.352  -0.274
    1UNL    H35   91   0.325  -0.283  -0.205
    1UNL    H36   92   0.278  -0.150  -0.379
    1UNL    H37   93   0.436  -0.134  -0.442
    1UNL    H38   94   0.357  -0.285  -0.450
    1UNL    H39   95   0.373   0.024  -0.186
    1UNL    H40   96   0.467   0.230  -0.106
    1UNL    H41   97   0.617   0.234  -0.024
    1UNL    H42   98   0.434   0.317   0.110
    1UNL    H43   99   0.463   0.163   0.191
    1UNL    H44  100   0.721  -0.050  -0.028
    1UNL    H45  101   0.622   0.093   0.233
    1UNL    H46  102   0.757   0.135   0.130
    1UNL    H47  103   0.975  -0.009   0.169
    1UNL    H48  104   0.922   0.139   0.267
    1UNL    H49  105   0.986  -0.015   0.351
    1UNL    H50  106  -0.177   0.030   0.207
    1UNL    H51  107  -0.301   0.154   0.175
    1UNL    H52  108  -0.334  -0.132   0.223
    1UNL    H53  109  -0.211  -0.165  -0.002
    1UNL    H54  110  -0.213  -0.523   0.185
    1UNL    H55  111  -0.327  -0.570   0.043
    1UNL    H56  112  -0.149  -0.605   0.044
   0.00000   0.00000   0.00000   0.00000   0.00000   0.00000   0.00000   0.00000   0.00000
Generated with MDTraj, t= 10.0
 112
    1UNL     C1    1  -0.677   0.039   0.287
    1UNL     C2    2  -0.536   0.002   0.268
    1UNL     C3    3  -0.482  -0.020   0.151
    1UNL     C4    4  -0.549   0.002   0.019
    1UNL     N1    5  -0.536  -0.109  -0.086
    1UNL     C5    6  -0.626  -0.226  -0.065
    1UNL     C6    7  -0.388  -0.146  -0.099
    1UNL     C7    8  -0.312  -0.061  -0.210
    1UNL     C8    9  -0.343   0.081  -0.186
    1UNL     C9   10  -0.291   0.163  -0.085
    1UNL     N2   11  -0.349   0.284  -0.092
    1UNL    C10   12  -0.445   0.287  -0.192
    1UNL    C11   13  -0.533   0.386  -0.226
    1UNL    C12   14  -0.629   0.337  -0.314
    1UNL    C13   15  -0.637   0.205  -0.358
    1UNL    C14   16  -0.544   0.105  -0.330
    1UNL    C15   17  -0.440   0.156  -0.252
    1UNL    C16   18  -0.189   0.109   0.013
    1UNL    C17   19  -0.078   0.212   0.037
    1UNL    C18   20  -0.092   0.352   0.075
    1UNL     O1   21  -0.222   0.412   0.083
    1UNL    C19   22  -0.268   0.442   0.207
    1UNL    C20   23   0.015   0.435   0.121
    1UNL    C21   24   0.143   0.382   0.121
    1UNL    C22   25   0.164   0.246   0.094
    1UNL    C23   26   0.284   0.172   0.084
    1UNL    C24   27   0.240   0.043   0.054
    1UNL     N3   28   0.102   0.042   0.034
    1UNL    C25   29   0.053   0.169   0.051
    1UNL    C26   30   0.332  -0.071   0.019
    1UNL    C27   31   0.244  -0.184  -0.020
    1UNL     O2   32   0.180  -0.171  -0.120
    1UNL     O3   33   0.222  -0.291   0.071
    1UNL    C28   34   0.143  -0.386   0.008
    1UNL    C29   35   0.411  -0.116   0.141
    1UNL    C30   36   0.557  -0.160   0.091
    1UNL    C31   37   0.553  -0.249  -0.037
    1UNL    C32   38   0.502  -0.169  -0.161
    1UNL    C33   39   0.414  -0.252  -0.251
    1UNL    C34   40   0.392  -0.182  -0.388
    1UNL    C35   41   0.429  -0.038  -0.098
    1UNL     N4   42   0.545   0.049  -0.051
    1UNL    C36   43   0.507   0.191  -0.040
    1UNL    C37   44   0.427   0.223   0.091
    1UNL    C38   45   0.636  -0.029   0.041
    1UNL    C39   46   0.698   0.048   0.150
    1UNL    C40   47   0.799  -0.033   0.231
    1UNL    C41   48   0.916   0.042   0.272
    1UNL     O4   49   0.772  -0.148   0.253
    1UNL    C42   50  -0.242   0.057   0.151
    1UNL    C43   51  -0.337  -0.064   0.145
    1UNL    C44   52  -0.311  -0.163   0.033
    1UNL    C45   53  -0.338  -0.305   0.073
    1UNL     O5   54  -0.443  -0.323   0.128
    1UNL     O6   55  -0.243  -0.393   0.021
    1UNL    C46   56  -0.268  -0.518   0.067
    1UNL     H1   57  -0.731   0.079   0.192
    1UNL     H2   58  -0.680   0.114   0.362
    1UNL     H3   59  -0.743  -0.044   0.330
    1UNL     H4   60  -0.476  -0.022   0.359
    1UNL     H5   61  -0.524   0.108  -0.034
    1UNL     H6   62  -0.655   0.013   0.049
    1UNL     H7   63  -0.729  -0.205  -0.078
    1UNL     H8   64  -0.610  -0.258   0.042
    1UNL     H9   65  -0.624  -0.310  -0.140
    1UNL    H10   66  -0.394  -0.241  -0.142
    1UNL    H11   67  -0.355  -0.092  -0.307
    1UNL    H12   68  -0.202  -0.088  -0.203
    1UNL    H13   69  -0.326   0.357  -0.029
    1UNL    H14   70  -0.534   0.486  -0.187
    1UNL    H15   71  -0.712   0.398  -0.340
    1UNL    H16   72  -0.726   0.173  -0.417
    1UNL    H17   73  -0.540   0.010  -0.370
    1UNL    H18   74  -0.134   0.032  -0.038
    1UNL    H19   75  -0.302   0.348   0.255
    1UNL    H20   76  -0.350   0.509   0.196
    1UNL    H21   77  -0.185   0.491   0.258
    1UNL    H22   78  -0.013   0.531   0.149
    1UNL    H23   79   0.221   0.441   0.153
    1UNL    H24   80   0.062  -0.021  -0.036
    1UNL    H25   81   0.055  -0.342  -0.051
    1UNL    H26   82   0.114  -0.471   0.079
    1UNL    H27   83   0.213  -0.427  -0.069
    1UNL    H28   84   0.366  -0.211   0.185
    1UNL    H29   85   0.415  -0.037   0.217
    1UNL    H30   86   0.619  -0.223   0.167
    1UNL    H31   87   0.476  -0.324  -0.012
    1UNL    H32   88   0.650  -0.305  -0.054
    1UNL    H33   89   0.581  -0.133  -0.232
    1UNL    H34   90   0.473  -0.352  -0.268
    1UNL    H35   91   0.320  -0.290  -0.199
    1UNL    H36   92   0.368  -0.082  -0.386
    1UNL    H37   93   0.473  -0.186  -0.459
    1UNL    H38   94   0.313  -0.227  -0.443
    1UNL    H39   95   0.388   0.021  -0.187
    1UNL    H40   96   0.454   0.208  -0.135
    1UNL    H41   97   0.591   0.247  -0.049
    1UNL    H42   98   0.429   0.324   0.122
    1UNL    H43   99   0.483   0.174   0.170
    1UNL    H44  100   0.724  -0.080  -0.017
    1UNL    H45  101   0.627   0.085   0.228
    1UNL    H46  102   0.755   0.132   0.108
    1UNL    H47  103   0.985  -0.029   0.326
    1UNL    H48  104   0.968   0.079   0.178
    1UNL    H49  105   0.891   0.131   0.333
    1UNL    H50  106  -0.145   0.030   0.198
    1UNL    H51  107  -0.283   0.138   0.215
    1UNL    H52  108  -0.323  -0.129   0.240
    1UNL    H53  109  -0.209  -0.149   0.011
    1UNL    H54  110  -0.254  -0.509   0.172
    1UNL    H55  111  -0.368  -0.544   0.045
    1UNL    H56  112  -0.189  -0.587   0.032
   0.00000   0.00000   0.00000   0.00000   0.00000   0.00000   0.00000   0.00000   0.00000
Generated with MDTraj, t= 11.0
 112
    1UNL     C1    1  -0.682   0.016   0.289
    1UNL     C2    2  -0.543  -0.026   0.268
    1UNL     C3    3  -0.480  -0.034   0.152
    1UNL     C4    4  -0.552   0.002   0.021
    1UNL     N1    5  -0.528  -0.099  -0.081
    1UNL     C5    6  -0.620  -0.211  -0.100
    1UNL     C6    7  -0.379  -0.145  -0.102
    1UNL     C7    8  -0.308  -0.056  -0.210
    1UNL     C8    9  -0.332   0.096  -0.190
    1UNL     C9   10  -0.279   0.180  -0.096
    1UNL     N2   11  -0.357   0.293  -0.096
    1UNL    C10   12  -0.461   0.280  -0.189
    1UNL    C11   13  -0.572   0.358  -0.216
    1UNL    C12   14  -0.658   0.325  -0.324
    1UNL    C13   15  -0.633   0.209  -0.395
    1UNL    C14   16  -0.530   0.126  -0.358
    1UNL    C15   17  -0.440   0.162  -0.255
    1UNL    C16   18  -0.182   0.134   0.009
    1UNL    C17   19  -0.077   0.230   0.043
    1UNL    C18   20  -0.095   0.359   0.091
    1UNL     O1   21  -0.225   0.414   0.114
    1UNL    C19   22  -0.256   0.447   0.247
    1UNL    C20   23   0.020   0.441   0.121
    1UNL    C21   24   0.146   0.391   0.114
    1UNL    C22   25   0.166   0.252   0.080
    1UNL    C23   26   0.280   0.170   0.072
    1UNL    C24   27   0.239   0.044   0.039
    1UNL     N3   28   0.105   0.049   0.023
    1UNL    C25   29   0.053   0.176   0.041
    1UNL    C26   30   0.323  -0.079   0.007
    1UNL    C27   31   0.230  -0.197  -0.022
    1UNL     O2   32   0.142  -0.191  -0.103
    1UNL     O3   33   0.245  -0.303   0.063
    1UNL    C28   34   0.136  -0.395   0.061
    1UNL    C29   35   0.405  -0.120   0.135
    1UNL    C30   36   0.549  -0.170   0.101
    1UNL    C31   37   0.544  -0.253  -0.033
    1UNL    C32   38   0.511  -0.166  -0.156
    1UNL    C33   39   0.434  -0.241  -0.258
    1UNL    C34   40   0.394  -0.170  -0.388
    1UNL    C35   41   0.431  -0.047  -0.105
    1UNL     N4   42   0.546   0.031  -0.043
    1UNL    C36   43   0.519   0.178  -0.029
    1UNL    C37   44   0.425   0.219   0.089
    1UNL    C38   45   0.629  -0.047   0.062
    1UNL    C39   46   0.697   0.039   0.169
    1UNL    C40   47   0.823  -0.021   0.217
    1UNL    C41   48   0.933   0.067   0.270
    1UNL     O4   49   0.842  -0.138   0.216
    1UNL    C42   50  -0.253   0.085   0.134
    1UNL    C43   51  -0.332  -0.057   0.131
    1UNL    C44   52  -0.300  -0.168   0.029
    1UNL    C45   53  -0.344  -0.304   0.078
    1UNL     O5   54  -0.452  -0.321   0.128
    1UNL     O6   55  -0.254  -0.411   0.052
    1UNL    C46   56  -0.312  -0.537   0.083
    1UNL     H1   57  -0.702   0.113   0.234
    1UNL     H2   58  -0.698   0.027   0.397
    1UNL     H3   59  -0.760  -0.062   0.256
    1UNL     H4   60  -0.490  -0.043   0.356
    1UNL     H5   61  -0.518   0.108  -0.004
    1UNL     H6   62  -0.663   0.011   0.037
    1UNL     H7   63  -0.722  -0.180  -0.091
    1UNL     H8   64  -0.604  -0.290  -0.024
    1UNL     H9   65  -0.626  -0.242  -0.209
    1UNL    H10   66  -0.386  -0.239  -0.149
    1UNL    H11   67  -0.357  -0.082  -0.309
    1UNL    H12   68  -0.197  -0.076  -0.204
    1UNL    H13   69  -0.348   0.363  -0.024
    1UNL    H14   70  -0.588   0.453  -0.166
    1UNL    H15   71  -0.748   0.381  -0.346
    1UNL    H16   72  -0.697   0.183  -0.480
    1UNL    H17   73  -0.493   0.053  -0.435
    1UNL    H18   74  -0.119   0.057  -0.040
    1UNL    H19   75  -0.162   0.437   0.313
    1UNL    H20   76  -0.330   0.380   0.286
    1UNL    H21   77  -0.288   0.547   0.246
    1UNL    H22   78   0.001   0.540   0.162
    1UNL    H23   79   0.234   0.453   0.143
    1UNL    H24   80   0.050  -0.035   0.010
    1UNL    H25   81   0.037  -0.350   0.100
    1UNL    H26   82   0.170  -0.492   0.112
    1UNL    H27   83   0.116  -0.423  -0.043
    1UNL    H28   84   0.356  -0.201   0.201
    1UNL    H29   85   0.427  -0.041   0.207
    1UNL    H30   86   0.592  -0.228   0.185
    1UNL    H31   87   0.489  -0.348  -0.030
    1UNL    H32   88   0.652  -0.286  -0.047
    1UNL    H33   89   0.600  -0.125  -0.211
    1UNL    H34   90   0.492  -0.338  -0.289
    1UNL    H35   91   0.342  -0.286  -0.207
    1UNL    H36   92   0.312  -0.113  -0.373
    1UNL    H37   93   0.475  -0.102  -0.417
    1UNL    H38   94   0.381  -0.240  -0.465
    1UNL    H39   95   0.371  -0.001  -0.190
    1UNL    H40   96   0.465   0.214  -0.118
    1UNL    H41   97   0.613   0.221  -0.031
    1UNL    H42   98   0.438   0.325   0.102
    1UNL    H43   99   0.465   0.179   0.178
    1UNL    H44  100   0.719  -0.080  -0.004
    1UNL    H45  101   0.626   0.049   0.253
    1UNL    H46  102   0.712   0.137   0.123
    1UNL    H47  103   0.911   0.110   0.372
    1UNL    H48  104   1.034   0.016   0.280
    1UNL    H49  105   0.956   0.151   0.205
    1UNL    H50  106  -0.174   0.076   0.211
    1UNL    H51  107  -0.325   0.162   0.172
    1UNL    H52  108  -0.313  -0.111   0.233
    1UNL    H53  109  -0.197  -0.164   0.014
    1UNL    H54  110  -0.341  -0.549   0.185
    1UNL    H55  111  -0.404  -0.540   0.033
    1UNL    H56  112  -0.242  -0.618   0.055
   0.00000   0.00000   0.00000   0.00000   0.00000   0.00000   0.00000   0.00000   0.00000
Generated with MDTraj, t= 12.0
 112
    1UNL     C1    1  -0.712  -0.028   0.259
    1UNL     C2    2  -0.564  -0.031   0.245
    1UNL     C3    3  -0.496  -0.005   0.133
    1UNL     C4    4  -0.562   0.015  -0.003
    1UNL     N1    5  -0.520  -0.094  -0.098
    1UNL     C5    6  -0.612  -0.210  -0.111
    1UNL     C6    7  -0.377  -0.136  -0.115
    1UNL     C7    8  -0.300  -0.048  -0.214
    1UNL     C8    9  -0.334   0.094  -0.190
    1UNL     C9   10  -0.289   0.164  -0.082
    1UNL     N2   11  -0.366   0.276  -0.077
    1UNL    C10   12  -0.460   0.280  -0.179
    1UNL    C11   13  -0.559   0.373  -0.224
    1UNL    C12   14  -0.639   0.346  -0.331
    1UNL    C13   15  -0.626   0.217  -0.397
    1UNL    C14   16  -0.530   0.129  -0.358
    1UNL    C15   17  -0.447   0.159  -0.250
    1UNL    C16   18  -0.182   0.123   0.014
    1UNL    C17   19  -0.071   0.219   0.046
    1UNL    C18   20  -0.099   0.342   0.099
    1UNL     O1   21  -0.226   0.382   0.141
    1UNL    C19   22  -0.231   0.438   0.277
    1UNL    C20   23   0.016   0.434   0.108
    1UNL    C21   24   0.146   0.399   0.095
    1UNL    C22   25   0.172   0.256   0.065
    1UNL    C23   26   0.286   0.170   0.071
    1UNL    C24   27   0.243   0.043   0.043
    1UNL     N3   28   0.108   0.054   0.015
    1UNL    C25   29   0.061   0.177   0.036
    1UNL    C26   30   0.324  -0.079   0.023
    1UNL    C27   31   0.230  -0.195  -0.016
    1UNL     O2   32   0.156  -0.179  -0.112
    1UNL     O3   33   0.237  -0.313   0.053
    1UNL    C28   34   0.126  -0.385   0.022
    1UNL    C29   35   0.407  -0.122   0.150
    1UNL    C30   36   0.558  -0.167   0.105
    1UNL    C31   37   0.542  -0.259  -0.022
    1UNL    C32   38   0.498  -0.177  -0.147
    1UNL    C33   39   0.398  -0.257  -0.237
    1UNL    C34   40   0.381  -0.212  -0.378
    1UNL    C35   41   0.430  -0.048  -0.096
    1UNL     N4   42   0.547   0.035  -0.034
    1UNL    C36   43   0.518   0.178  -0.014
    1UNL    C37   44   0.428   0.215   0.100
    1UNL    C38   45   0.635  -0.045   0.061
    1UNL    C39   46   0.699   0.047   0.165
    1UNL    C40   47   0.832  -0.001   0.194
    1UNL    C41   48   0.930   0.090   0.260
    1UNL     O4   49   0.858  -0.118   0.176
    1UNL    C42   50  -0.239   0.071   0.147
    1UNL    C43   51  -0.340  -0.050   0.133
    1UNL    C44   52  -0.307  -0.161   0.025
    1UNL    C45   53  -0.342  -0.298   0.084
    1UNL     O5   54  -0.445  -0.311   0.143
    1UNL     O6   55  -0.257  -0.399   0.065
    1UNL    C46   56  -0.303  -0.520   0.121
    1UNL     H1   57  -0.745   0.075   0.241
    1UNL     H2   58  -0.737  -0.066   0.367
    1UNL     H3   59  -0.761  -0.098   0.188
    1UNL     H4   60  -0.508  -0.073   0.333
    1UNL     H5   61  -0.539   0.100  -0.049
    1UNL     H6   62  -0.674   0.018   0.021
    1UNL     H7   63  -0.717  -0.177  -0.105
    1UNL     H8   64  -0.593  -0.290  -0.040
    1UNL     H9   65  -0.608  -0.246  -0.217
    1UNL    H10   66  -0.381  -0.235  -0.159
    1UNL    H11   67  -0.335  -0.068  -0.322
    1UNL    H12   68  -0.191  -0.061  -0.195
    1UNL    H13   69  -0.343   0.351  -0.015
    1UNL    H14   70  -0.574   0.467  -0.174
    1UNL    H15   71  -0.716   0.420  -0.357
    1UNL    H16   72  -0.682   0.200  -0.482
    1UNL    H17   73  -0.520   0.037  -0.414
    1UNL    H18   74  -0.130   0.033  -0.028
    1UNL    H19   75  -0.199   0.549   0.273
    1UNL    H20   76  -0.157   0.387   0.341
    1UNL    H21   77  -0.327   0.434   0.314
    1UNL    H22   78  -0.010   0.533   0.144
    1UNL    H23   79   0.224   0.465   0.129
    1UNL    H24   80   0.065  -0.019  -0.043
    1UNL    H25   81   0.041  -0.343   0.086
    1UNL    H26   82   0.152  -0.494   0.036
    1UNL    H27   83   0.092  -0.377  -0.078
    1UNL    H28   84   0.361  -0.194   0.226
    1UNL    H29   85   0.428  -0.045   0.224
    1UNL    H30   86   0.605  -0.216   0.186
    1UNL    H31   87   0.473  -0.343  -0.004
    1UNL    H32   88   0.636  -0.320  -0.040
    1UNL    H33   89   0.590  -0.146  -0.201
    1UNL    H34   90   0.432  -0.368  -0.235
    1UNL    H35   91   0.291  -0.264  -0.200
    1UNL    H36   92   0.323  -0.122  -0.371
    1UNL    H37   93   0.481  -0.183  -0.407
    1UNL    H38   94   0.349  -0.289  -0.437
    1UNL    H39   95   0.396   0.027  -0.171
    1UNL    H40   96   0.479   0.209  -0.111
    1UNL    H41   97   0.609   0.232  -0.002
    1UNL    H42   98   0.430   0.323   0.118
    1UNL    H43   99   0.473   0.180   0.187
    1UNL    H44  100   0.726  -0.085   0.006
    1UNL    H45  101   0.626   0.038   0.248
    1UNL    H46  102   0.703   0.152   0.136
    1UNL    H47  103   0.900   0.197   0.246
    1UNL    H48  104   0.943   0.076   0.371
    1UNL    H49  105   1.032   0.075   0.218
    1UNL    H50  106  -0.160   0.033   0.216
    1UNL    H51  107  -0.292   0.156   0.194
    1UNL    H52  108  -0.332  -0.116   0.229
    1UNL    H53  109  -0.203  -0.162   0.011
    1UNL    H54  110  -0.349  -0.520   0.221
    1UNL    H55  111  -0.393  -0.542   0.066
    1UNL    H56  112  -0.225  -0.601   0.115
   0.00000   0.00000   0.00000   0.00000   0.00000   0.00000   0.00000   0.00000   0.00000
Generated with MDTraj, t= 13.0
 112
    1UNL     C1    1  -0.740  -0.022   0.221
    1UNL     C2    2  -0.592  -0.046   0.230
    1UNL     C3    3  -0.514  -0.025   0.127
    1UNL     C4    4  -0.565  -0.005  -0.017
    1UNL     N1    5  -0.525  -0.125  -0.097
    1UNL     C5    6  -0.623  -0.243  -0.083
    1UNL     C6    7  -0.380  -0.146  -0.102
    1UNL     C7    8  -0.314  -0.059  -0.204
    1UNL     C8    9  -0.330   0.090  -0.194
    1UNL     C9   10  -0.276   0.164  -0.089
    1UNL     N2   11  -0.323   0.292  -0.092
    1UNL    C10   12  -0.416   0.301  -0.194
    1UNL    C11   13  -0.509   0.401  -0.227
    1UNL    C12   14  -0.613   0.367  -0.305
    1UNL    C13   15  -0.612   0.246  -0.378
    1UNL    C14   16  -0.515   0.149  -0.361
    1UNL    C15   17  -0.417   0.178  -0.261
    1UNL    C16   18  -0.196   0.121   0.034
    1UNL    C17   19  -0.080   0.212   0.074
    1UNL    C18   20  -0.098   0.344   0.122
    1UNL     O1   21  -0.223   0.405   0.141
    1UNL    C19   22  -0.245   0.444   0.272
    1UNL    C20   23   0.013   0.435   0.132
    1UNL    C21   24   0.138   0.381   0.118
    1UNL    C22   25   0.161   0.242   0.102
    1UNL    C23   26   0.282   0.172   0.072
    1UNL    C24   27   0.244   0.048   0.033
    1UNL     N3   28   0.107   0.041   0.028
    1UNL    C25   29   0.050   0.162   0.075
    1UNL    C26   30   0.323  -0.073   0.008
    1UNL    C27   31   0.221  -0.188  -0.031
    1UNL     O2   32   0.149  -0.181  -0.133
    1UNL     O3   33   0.205  -0.292   0.061
    1UNL    C28   34   0.123  -0.389   0.003
    1UNL    C29   35   0.407  -0.122   0.133
    1UNL    C30   36   0.563  -0.160   0.108
    1UNL    C31   37   0.559  -0.261  -0.009
    1UNL    C32   38   0.509  -0.189  -0.137
    1UNL    C33   39   0.433  -0.295  -0.229
    1UNL    C34   40   0.389  -0.245  -0.364
    1UNL    C35   41   0.429  -0.055  -0.101
    1UNL     N4   42   0.538   0.034  -0.045
    1UNL    C36   43   0.504   0.180  -0.055
    1UNL    C37   44   0.421   0.225   0.064
    1UNL    C38   45   0.632  -0.031   0.050
    1UNL    C39   46   0.696   0.058   0.150
    1UNL    C40   47   0.831   0.005   0.184
    1UNL    C41   48   0.914   0.102   0.255
    1UNL     O4   49   0.861  -0.110   0.153
    1UNL    C42   50  -0.283   0.073   0.163
    1UNL    C43   51  -0.364  -0.054   0.145
    1UNL    C44   52  -0.314  -0.159   0.038
    1UNL    C45   53  -0.341  -0.296   0.083
    1UNL     O5   54  -0.448  -0.324   0.132
    1UNL     O6   55  -0.239  -0.391   0.070
    1UNL    C46   56  -0.260  -0.507   0.141
    1UNL     H1   57  -0.762   0.060   0.154
    1UNL     H2   58  -0.792  -0.000   0.326
    1UNL     H3   59  -0.799  -0.108   0.186
    1UNL     H4   60  -0.555  -0.090   0.316
    1UNL     H5   61  -0.518   0.086  -0.052
    1UNL     H6   62  -0.675   0.005  -0.036
    1UNL     H7   63  -0.728  -0.207  -0.104
    1UNL     H8   64  -0.616  -0.283   0.014
    1UNL     H9   65  -0.596  -0.316  -0.162
    1UNL    H10   66  -0.368  -0.250  -0.141
    1UNL    H11   67  -0.353  -0.099  -0.306
    1UNL    H12   68  -0.206  -0.079  -0.196
    1UNL    H13   69  -0.309   0.360  -0.021
    1UNL    H14   70  -0.498   0.480  -0.155
    1UNL    H15   71  -0.685   0.439  -0.331
    1UNL    H16   72  -0.703   0.229  -0.447
    1UNL    H17   73  -0.524   0.052  -0.393
    1UNL    H18   74  -0.137   0.025   0.010
    1UNL    H19   75  -0.355   0.475   0.275
    1UNL    H20   76  -0.180   0.531   0.304
    1UNL    H21   77  -0.240   0.359   0.332
    1UNL    H22   78  -0.009   0.537   0.148
    1UNL    H23   79   0.221   0.445   0.131
    1UNL    H24   80   0.062  -0.045  -0.009
    1UNL    H25   81   0.045  -0.326  -0.040
    1UNL    H26   82   0.086  -0.469   0.068
    1UNL    H27   83   0.170  -0.440  -0.071
    1UNL    H28   84   0.366  -0.204   0.200
    1UNL    H29   85   0.406  -0.046   0.211
    1UNL    H30   86   0.610  -0.199   0.189
    1UNL    H31   87   0.486  -0.339   0.016
    1UNL    H32   88   0.647  -0.328  -0.029
    1UNL    H33   89   0.599  -0.164  -0.198
    1UNL    H34   90   0.501  -0.385  -0.251
    1UNL    H35   91   0.355  -0.340  -0.162
    1UNL    H36   92   0.319  -0.161  -0.354
    1UNL    H37   93   0.468  -0.197  -0.411
    1UNL    H38   94   0.354  -0.310  -0.435
    1UNL    H39   95   0.386  -0.027  -0.200
    1UNL    H40   96   0.444   0.199  -0.142
    1UNL    H41   97   0.595   0.237  -0.078
    1UNL    H42   98   0.415   0.334   0.067
    1UNL    H43   99   0.467   0.198   0.155
    1UNL    H44  100   0.715  -0.061  -0.016
    1UNL    H45  101   0.640   0.056   0.246
    1UNL    H46  102   0.692   0.162   0.110
    1UNL    H47  103   0.981   0.152   0.180
    1UNL    H48  104   0.855   0.181   0.307
    1UNL    H49  105   0.968   0.038   0.332
    1UNL    H50  106  -0.211   0.062   0.248
    1UNL    H51  107  -0.352   0.156   0.187
    1UNL    H52  108  -0.367  -0.114   0.246
    1UNL    H53  109  -0.209  -0.148   0.031
    1UNL    H54  110  -0.260  -0.506   0.253
    1UNL    H55  111  -0.361  -0.536   0.114
    1UNL    H56  112  -0.189  -0.589   0.102
   0.00000   0.00000   0.00000   0.00000   0.00000   0.00000   0.00000   0.00000   0.00000
Generated with MDTraj, t= 14.0
 112
    1UNL     C1    1  -0.759  -0.006   0.207
    1UNL     C2    2  -0.609  -0.030   0.211
    1UNL     C3    3  -0.529  -0.029   0.108
    1UNL     C4    4  -0.576  -0.016  -0.031
    1UNL     N1    5  -0.534  -0.134  -0.105
    1UNL     C5    6  -0.628  -0.252  -0.088
    1UNL     C6    7  -0.389  -0.154  -0.089
    1UNL     C7    8  -0.318  -0.065  -0.184
    1UNL     C8    9  -0.332   0.086  -0.163
    1UNL     C9   10  -0.268   0.167  -0.071
    1UNL     N2   11  -0.305   0.304  -0.088
    1UNL    C10   12  -0.400   0.306  -0.189
    1UNL    C11   13  -0.469   0.417  -0.241
    1UNL    C12   14  -0.552   0.396  -0.346
    1UNL    C13   15  -0.584   0.265  -0.390
    1UNL    C14   16  -0.518   0.157  -0.334
    1UNL    C15   17  -0.419   0.176  -0.240
    1UNL    C16   18  -0.189   0.116   0.043
    1UNL    C17   19  -0.079   0.197   0.094
    1UNL    C18   20  -0.101   0.315   0.154
    1UNL     O1   21  -0.238   0.362   0.165
    1UNL    C19   22  -0.252   0.461   0.263
    1UNL    C20   23   0.014   0.393   0.181
    1UNL    C21   24   0.145   0.362   0.140
    1UNL    C22   25   0.162   0.234   0.085
    1UNL    C23   26   0.278   0.162   0.052
    1UNL    C24   27   0.239   0.034   0.021
    1UNL     N3   28   0.097   0.032   0.018
    1UNL    C25   29   0.048   0.155   0.067
    1UNL    C26   30   0.325  -0.089   0.003
    1UNL    C27   31   0.224  -0.197  -0.041
    1UNL     O2   32   0.158  -0.194  -0.145
    1UNL     O3   33   0.208  -0.301   0.047
    1UNL    C28   34   0.090  -0.360   0.030
    1UNL    C29   35   0.413  -0.114   0.127
    1UNL    C30   36   0.557  -0.137   0.098
    1UNL    C31   37   0.551  -0.256  -0.010
    1UNL    C32   38   0.510  -0.195  -0.151
    1UNL    C33   39   0.432  -0.298  -0.228
    1UNL    C34   40   0.374  -0.259  -0.364
    1UNL    C35   41   0.426  -0.064  -0.110
    1UNL     N4   42   0.530   0.037  -0.076
    1UNL    C36   43   0.485   0.179  -0.074
    1UNL    C37   44   0.411   0.225   0.051
    1UNL    C38   45   0.622  -0.011   0.035
    1UNL    C39   46   0.686   0.078   0.132
    1UNL    C40   47   0.818   0.020   0.183
    1UNL    C41   48   0.902   0.115   0.268
    1UNL     O4   49   0.847  -0.095   0.166
    1UNL    C42   50  -0.288   0.075   0.154
    1UNL    C43   51  -0.378  -0.048   0.140
    1UNL    C44   52  -0.321  -0.159   0.048
    1UNL    C45   53  -0.328  -0.298   0.101
    1UNL     O5   54  -0.428  -0.344   0.156
    1UNL     O6   55  -0.213  -0.368   0.087
    1UNL    C46   56  -0.209  -0.496   0.133
    1UNL     H1   57  -0.783   0.101   0.185
    1UNL     H2   58  -0.816  -0.038   0.299
    1UNL     H3   59  -0.810  -0.064   0.128
    1UNL     H4   60  -0.564  -0.038   0.313
    1UNL     H5   61  -0.530   0.076  -0.092
    1UNL     H6   62  -0.682  -0.006  -0.040
    1UNL     H7   63  -0.735  -0.223  -0.112
    1UNL     H8   64  -0.611  -0.281   0.014
    1UNL     H9   65  -0.588  -0.325  -0.156
    1UNL    H10   66  -0.373  -0.262  -0.126
    1UNL    H11   67  -0.360  -0.087  -0.290
    1UNL    H12   68  -0.216  -0.107  -0.191
    1UNL    H13   69  -0.292   0.379  -0.022
    1UNL    H14   70  -0.444   0.516  -0.201
    1UNL    H15   71  -0.595   0.492  -0.391
    1UNL    H16   72  -0.648   0.253  -0.467
    1UNL    H17   73  -0.554   0.050  -0.357
    1UNL    H18   74  -0.131   0.022   0.003
    1UNL    H19   75  -0.341   0.428   0.322
    1UNL    H20   76  -0.267   0.564   0.216
    1UNL    H21   77  -0.177   0.449   0.339
    1UNL    H22   78   0.001   0.498   0.214
    1UNL    H23   79   0.230   0.421   0.179
    1UNL    H24   80   0.045  -0.055  -0.007
    1UNL    H25   81   0.052  -0.318  -0.059
    1UNL    H26   82   0.032  -0.335   0.117
    1UNL    H27   83   0.100  -0.461   0.038
    1UNL    H28   84   0.370  -0.193   0.196
    1UNL    H29   85   0.413  -0.031   0.199
    1UNL    H30   86   0.618  -0.154   0.177
    1UNL    H31   87   0.486  -0.342   0.010
    1UNL    H32   88   0.650  -0.308  -0.020
    1UNL    H33   89   0.602  -0.175  -0.208
    1UNL    H34   90   0.506  -0.387  -0.234
    1UNL    H35   91   0.342  -0.334  -0.172
    1UNL    H36   92   0.298  -0.182  -0.350
    1UNL    H37   93   0.438  -0.216  -0.428
    1UNL    H38   94   0.332  -0.340  -0.415
    1UNL    H39   95   0.378  -0.024  -0.200
    1UNL    H40   96   0.429   0.200  -0.161
    1UNL    H41   97   0.574   0.248  -0.080
    1UNL    H42   98   0.399   0.334   0.052
    1UNL    H43   99   0.463   0.198   0.146
    1UNL    H44  100   0.704  -0.059  -0.015
    1UNL    H45  101   0.622   0.103   0.220
    1UNL    H46  102   0.718   0.172   0.081
    1UNL    H47  103   1.009   0.084   0.272
    1UNL    H48  104   0.903   0.218   0.229
    1UNL    H49  105   0.846   0.111   0.368
    1UNL    H50  106  -0.229   0.078   0.250
    1UNL    H51  107  -0.357   0.160   0.157
    1UNL    H52  108  -0.374  -0.089   0.250
    1UNL    H53  109  -0.219  -0.130   0.033
    1UNL    H54  110  -0.265  -0.507   0.230
    1UNL    H55  111  -0.256  -0.559   0.058
    1UNL    H56  112  -0.102  -0.540   0.134
   0.00000   0.00000   0.00000   0.00000   0.00000   0.00000   0.00000   0.00000   0.00000
Generated with MDTraj, t= 15.0
 112
    1UNL     C1    1  -0.764   0.022   0.220
    1UNL     C2    2  -0.617  -0.016   0.224
    1UNL     C3    3  -0.534  -0.022   0.123
    1UNL     C4    4  -0.585  -0.016  -0.018
    1UNL     N1    5  -0.539  -0.138  -0.096
    1UNL     C5    6  -0.615  -0.263  -0.064
    1UNL     C6    7  -0.391  -0.155  -0.100
    1UNL     C7    8  -0.313  -0.064  -0.194
    1UNL     C8    9  -0.329   0.085  -0.169
    1UNL     C9   10  -0.277   0.149  -0.060
    1UNL     N2   11  -0.322   0.279  -0.070
    1UNL    C10   12  -0.384   0.307  -0.194
    1UNL    C11   13  -0.446   0.420  -0.246
    1UNL    C12   14  -0.512   0.406  -0.366
    1UNL    C13   15  -0.529   0.281  -0.433
    1UNL    C14   16  -0.475   0.166  -0.374
    1UNL    C15   17  -0.398   0.181  -0.255
    1UNL    C16   18  -0.196   0.101   0.058
    1UNL    C17   19  -0.080   0.195   0.094
    1UNL    C18   20  -0.101   0.302   0.180
    1UNL     O1   21  -0.228   0.334   0.223
    1UNL    C19   22  -0.261   0.472   0.258
    1UNL    C20   23   0.013   0.389   0.211
    1UNL    C21   24   0.128   0.373   0.136
    1UNL    C22   25   0.150   0.248   0.070
    1UNL    C23   26   0.270   0.171   0.044
    1UNL    C24   27   0.237   0.042   0.019
    1UNL     N3   28   0.098   0.037   0.019
    1UNL    C25   29   0.050   0.158   0.052
    1UNL    C26   30   0.328  -0.073  -0.012
    1UNL    C27   31   0.223  -0.189  -0.034
    1UNL     O2   32   0.164  -0.198  -0.143
    1UNL     O3   33   0.201  -0.270   0.071
    1UNL    C28   34   0.110  -0.368   0.046
    1UNL    C29   35   0.416  -0.119   0.109
    1UNL    C30   36   0.562  -0.148   0.073
    1UNL    C31   37   0.568  -0.251  -0.042
    1UNL    C32   38   0.495  -0.196  -0.169
    1UNL    C33   39   0.405  -0.299  -0.236
    1UNL    C34   40   0.347  -0.265  -0.383
    1UNL    C35   41   0.420  -0.064  -0.134
    1UNL     N4   42   0.525   0.037  -0.086
    1UNL    C36   43   0.490   0.184  -0.085
    1UNL    C37   44   0.406   0.218   0.043
    1UNL    C38   45   0.629  -0.018   0.015
    1UNL    C39   46   0.669   0.072   0.129
    1UNL    C40   47   0.796   0.030   0.199
    1UNL    C41   48   0.875   0.126   0.280
    1UNL     O4   49   0.836  -0.080   0.191
    1UNL    C42   50  -0.287   0.055   0.178
    1UNL    C43   51  -0.389  -0.063   0.153
    1UNL    C44   52  -0.328  -0.162   0.042
    1UNL    C45   53  -0.324  -0.304   0.096
    1UNL     O5   54  -0.426  -0.355   0.142
    1UNL     O6   55  -0.207  -0.374   0.093
    1UNL    C46   56  -0.209  -0.501   0.157
    1UNL     H1   57  -0.781   0.086   0.126
    1UNL     H2   58  -0.794   0.073   0.307
    1UNL     H3   59  -0.825  -0.072   0.216
    1UNL     H4   60  -0.581  -0.040   0.320
    1UNL     H5   61  -0.540   0.071  -0.075
    1UNL     H6   62  -0.690  -0.011  -0.032
    1UNL     H7   63  -0.719  -0.234  -0.048
    1UNL     H8   64  -0.565  -0.294   0.030
    1UNL     H9   65  -0.595  -0.331  -0.144
    1UNL    H10   66  -0.379  -0.263  -0.142
    1UNL    H11   67  -0.361  -0.094  -0.296
    1UNL    H12   68  -0.206  -0.089  -0.208
    1UNL    H13   69  -0.305   0.345   0.002
    1UNL    H14   70  -0.427   0.514  -0.201
    1UNL    H15   71  -0.562   0.485  -0.406
    1UNL    H16   72  -0.585   0.265  -0.530
    1UNL    H17   73  -0.485   0.082  -0.432
    1UNL    H18   74  -0.143   0.011   0.013
    1UNL    H19   75  -0.367   0.482   0.283
    1UNL    H20   76  -0.227   0.540   0.175
    1UNL    H21   77  -0.208   0.493   0.354
    1UNL    H22   78   0.006   0.470   0.278
    1UNL    H23   79   0.207   0.439   0.159
    1UNL    H24   80   0.053  -0.047  -0.020
    1UNL    H25   81   0.170  -0.445   0.001
    1UNL    H26   82   0.047  -0.331  -0.033
    1UNL    H27   83   0.046  -0.386   0.127
    1UNL    H28   84   0.379  -0.208   0.170
    1UNL    H29   85   0.402  -0.046   0.192
    1UNL    H30   86   0.615  -0.181   0.156
    1UNL    H31   87   0.504  -0.334  -0.008
    1UNL    H32   88   0.664  -0.298  -0.075
    1UNL    H33   89   0.576  -0.165  -0.233
    1UNL    H34   90   0.465  -0.393  -0.265
    1UNL    H35   91   0.321  -0.327  -0.168
    1UNL    H36   92   0.276  -0.190  -0.372
    1UNL    H37   93   0.415  -0.233  -0.459
    1UNL    H38   94   0.300  -0.351  -0.421
    1UNL    H39   95   0.365  -0.027  -0.219
    1UNL    H40   96   0.425   0.209  -0.162
    1UNL    H41   97   0.581   0.254  -0.091
    1UNL    H42   98   0.401   0.326   0.060
    1UNL    H43   99   0.464   0.170   0.129
    1UNL    H44  100   0.709  -0.039  -0.051
    1UNL    H45  101   0.589   0.069   0.206
    1UNL    H46  102   0.681   0.179   0.100
    1UNL    H47  103   0.927   0.078   0.368
    1UNL    H48  104   0.962   0.164   0.222
    1UNL    H49  105   0.806   0.210   0.311
    1UNL    H50  106  -0.226   0.020   0.266
    1UNL    H51  107  -0.336   0.152   0.199
    1UNL    H52  108  -0.383  -0.125   0.252
    1UNL    H53  109  -0.224  -0.145   0.029
    1UNL    H54  110  -0.290  -0.495   0.230
    1UNL    H55  111  -0.209  -0.588   0.097
    1UNL    H56  112  -0.112  -0.527   0.211
   0.00000   0.00000   0.00000   0.00000   0.00000   0.00000   0.00000   0.00000   0.00000
Generated with MDTraj, t= 16.0
 112
    1UNL     C1    1  -0.728   0.059   0.233
    1UNL     C2    2  -0.592   0.002   0.242
    1UNL     C3    3  -0.516  -0.027   0.140
    1UNL     C4    4  -0.569  -0.007   0.001
    1UNL     N1    5  -0.534  -0.128  -0.086
    1UNL     C5    6  -0.620  -0.255  -0.079
    1UNL     C6    7  -0.388  -0.166  -0.097
    1UNL     C7    8  -0.304  -0.075  -0.195
    1UNL     C8    9  -0.314   0.078  -0.168
    1UNL     C9   10  -0.286   0.135  -0.044
    1UNL     N2   11  -0.332   0.264  -0.053
    1UNL    C10   12  -0.383   0.291  -0.178
    1UNL    C11   13  -0.433   0.411  -0.236
    1UNL    C12   14  -0.466   0.404  -0.369
    1UNL    C13   15  -0.453   0.291  -0.448
    1UNL    C14   16  -0.404   0.172  -0.390
    1UNL    C15   17  -0.373   0.177  -0.253
    1UNL    C16   18  -0.199   0.085   0.071
    1UNL    C17   19  -0.091   0.184   0.107
    1UNL    C18   20  -0.117   0.310   0.161
    1UNL     O1   21  -0.245   0.356   0.183
    1UNL    C19   22  -0.260   0.472   0.257
    1UNL    C20   23  -0.004   0.399   0.175
    1UNL    C21   24   0.124   0.367   0.135
    1UNL    C22   25   0.150   0.237   0.093
    1UNL    C23   26   0.269   0.168   0.055
    1UNL    C24   27   0.235   0.045   0.007
    1UNL     N3   28   0.098   0.032   0.025
    1UNL    C25   29   0.044   0.146   0.080
    1UNL    C26   30   0.321  -0.079  -0.017
    1UNL    C27   31   0.217  -0.196  -0.037
    1UNL     O2   32   0.142  -0.201  -0.135
    1UNL     O3   33   0.209  -0.296   0.058
    1UNL    C28   34   0.100  -0.377   0.042
    1UNL    C29   35   0.401  -0.110   0.110
    1UNL    C30   36   0.548  -0.139   0.072
    1UNL    C31   37   0.550  -0.251  -0.042
    1UNL    C32   38   0.495  -0.188  -0.178
    1UNL    C33   39   0.408  -0.286  -0.267
    1UNL    C34   40   0.342  -0.208  -0.370
    1UNL    C35   41   0.415  -0.055  -0.140
    1UNL     N4   42   0.517   0.048  -0.101
    1UNL    C36   43   0.471   0.191  -0.104
    1UNL    C37   44   0.395   0.252   0.019
    1UNL    C38   45   0.619  -0.005   0.007
    1UNL    C39   46   0.672   0.095   0.111
    1UNL    C40   47   0.778   0.034   0.197
    1UNL    C41   48   0.855   0.125   0.282
    1UNL     O4   49   0.805  -0.084   0.193
    1UNL    C42   50  -0.269   0.029   0.198
    1UNL    C43   51  -0.375  -0.080   0.157
    1UNL    C44   52  -0.321  -0.181   0.047
    1UNL    C45   53  -0.331  -0.323   0.100
    1UNL     O5   54  -0.441  -0.371   0.121
    1UNL     O6   55  -0.217  -0.391   0.128
    1UNL    C46   56  -0.247  -0.524   0.171
    1UNL     H1   57  -0.731   0.148   0.162
    1UNL     H2   58  -0.773   0.086   0.324
    1UNL     H3   59  -0.799  -0.023   0.197
    1UNL     H4   60  -0.553  -0.032   0.340
    1UNL     H5   61  -0.549   0.084  -0.036
    1UNL     H6   62  -0.675  -0.027   0.015
    1UNL     H7   63  -0.713  -0.222  -0.120
    1UNL     H8   64  -0.632  -0.274   0.033
    1UNL     H9   65  -0.577  -0.342  -0.127
    1UNL    H10   66  -0.382  -0.277  -0.133
    1UNL    H11   67  -0.335  -0.094  -0.303
    1UNL    H12   68  -0.199  -0.111  -0.199
    1UNL    H13   69  -0.309   0.326   0.023
    1UNL    H14   70  -0.440   0.499  -0.171
    1UNL    H15   71  -0.505   0.499  -0.421
    1UNL    H16   72  -0.499   0.293  -0.544
    1UNL    H17   73  -0.371   0.085  -0.451
    1UNL    H18   74  -0.143  -0.005   0.044
    1UNL    H19   75  -0.363   0.489   0.279
    1UNL    H20   76  -0.211   0.554   0.203
    1UNL    H21   77  -0.211   0.447   0.360
    1UNL    H22   78  -0.009   0.497   0.222
    1UNL    H23   79   0.203   0.442   0.150
    1UNL    H24   80   0.052  -0.052  -0.010
    1UNL    H25   81   0.083  -0.432   0.134
    1UNL    H26   82   0.131  -0.453  -0.032
    1UNL    H27   83   0.013  -0.323   0.005
    1UNL    H28   84   0.347  -0.191   0.169
    1UNL    H29   85   0.398  -0.035   0.194
    1UNL    H30   86   0.601  -0.165   0.161
    1UNL    H31   87   0.481  -0.335  -0.026
    1UNL    H32   88   0.655  -0.287  -0.048
    1UNL    H33   89   0.581  -0.157  -0.230
    1UNL    H34   90   0.475  -0.369  -0.309
    1UNL    H35   91   0.328  -0.335  -0.205
    1UNL    H36   92   0.264  -0.157  -0.331
    1UNL    H37   93   0.401  -0.131  -0.425
    1UNL    H38   94   0.301  -0.263  -0.449
    1UNL    H39   95   0.358  -0.009  -0.217
    1UNL    H40   96   0.417   0.211  -0.190
    1UNL    H41   97   0.567   0.256  -0.107
    1UNL    H42   98   0.372   0.357  -0.005
    1UNL    H43   99   0.456   0.249   0.112
    1UNL    H44  100   0.702  -0.033  -0.052
    1UNL    H45  101   0.588   0.134   0.169
    1UNL    H46  102   0.712   0.181   0.052
    1UNL    H47  103   0.818   0.139   0.386
    1UNL    H48  104   0.956   0.080   0.305
    1UNL    H49  105   0.865   0.225   0.236
    1UNL    H50  106  -0.177  -0.002   0.258
    1UNL    H51  107  -0.327   0.105   0.255
    1UNL    H52  108  -0.391  -0.138   0.256
    1UNL    H53  109  -0.215  -0.171   0.033
    1UNL    H54  110  -0.266  -0.520   0.276
    1UNL    H55  111  -0.317  -0.581   0.120
    1UNL    H56  112  -0.150  -0.579   0.168
   0.00000   0.00000   0.00000   0.00000   0.00000   0.00000   0.00000   0.00000   0.00000
Generated with MDTraj, t= 17.0
 112
    1UNL     C1    1  -0.694   0.088   0.244
    1UNL     C2    2  -0.573   0.007   0.248
    1UNL     C3    3  -0.509  -0.041   0.144
    1UNL     C4    4  -0.559  -0.013   0.004
    1UNL     N1    5  -0.519  -0.123  -0.088
    1UNL     C5    6  -0.612  -0.232  -0.103
    1UNL     C6    7  -0.373  -0.171  -0.090
    1UNL     C7    8  -0.279  -0.078  -0.171
    1UNL     C8    9  -0.300   0.072  -0.146
    1UNL     C9   10  -0.281   0.146  -0.030
    1UNL     N2   11  -0.328   0.269  -0.048
    1UNL    C10   12  -0.379   0.278  -0.174
    1UNL    C11   13  -0.408   0.392  -0.251
    1UNL    C12   14  -0.418   0.388  -0.385
    1UNL    C13   15  -0.412   0.260  -0.452
    1UNL    C14   16  -0.382   0.146  -0.384
    1UNL    C15   17  -0.369   0.153  -0.242
    1UNL    C16   18  -0.200   0.090   0.082
    1UNL    C17   19  -0.090   0.183   0.125
    1UNL    C18   20  -0.119   0.315   0.157
    1UNL     O1   21  -0.253   0.350   0.204
    1UNL    C19   22  -0.264   0.472   0.272
    1UNL    C20   23  -0.019   0.409   0.147
    1UNL    C21   24   0.110   0.381   0.102
    1UNL    C22   25   0.139   0.252   0.074
    1UNL    C23   26   0.263   0.186   0.045
    1UNL    C24   27   0.234   0.050   0.028
    1UNL     N3   28   0.101   0.032   0.055
    1UNL    C25   29   0.038   0.155   0.079
    1UNL    C26   30   0.317  -0.073  -0.011
    1UNL    C27   31   0.217  -0.188  -0.032
    1UNL     O2   32   0.130  -0.173  -0.116
    1UNL     O3   33   0.223  -0.312   0.038
    1UNL    C28   34   0.104  -0.384   0.000
    1UNL    C29   35   0.405  -0.119   0.102
    1UNL    C30   36   0.546  -0.142   0.050
    1UNL    C31   37   0.542  -0.238  -0.074
    1UNL    C32   38   0.474  -0.170  -0.193
    1UNL    C33   39   0.394  -0.273  -0.276
    1UNL    C34   40   0.338  -0.221  -0.405
    1UNL    C35   41   0.398  -0.042  -0.140
    1UNL     N4   42   0.506   0.060  -0.090
    1UNL    C36   43   0.480   0.211  -0.083
    1UNL    C37   44   0.392   0.258   0.031
    1UNL    C38   45   0.607   0.002   0.006
    1UNL    C39   46   0.645   0.079   0.131
    1UNL    C40   47   0.769   0.031   0.201
    1UNL    C41   48   0.853   0.127   0.276
    1UNL     O4   49   0.798  -0.086   0.188
    1UNL    C42   50  -0.280   0.035   0.199
    1UNL    C43   51  -0.366  -0.088   0.162
    1UNL    C44   52  -0.317  -0.194   0.063
    1UNL    C45   53  -0.352  -0.337   0.109
    1UNL     O5   54  -0.466  -0.378   0.108
    1UNL     O6   55  -0.239  -0.411   0.138
    1UNL    C46   56  -0.281  -0.542   0.179
    1UNL     H1   57  -0.668   0.195   0.237
    1UNL     H2   58  -0.763   0.063   0.327
    1UNL     H3   59  -0.754   0.051   0.157
    1UNL     H4   60  -0.525  -0.011   0.342
    1UNL     H5   61  -0.521   0.074  -0.037
    1UNL     H6   62  -0.666  -0.011   0.004
    1UNL     H7   63  -0.710  -0.193  -0.091
    1UNL     H8   64  -0.591  -0.311  -0.028
    1UNL     H9   65  -0.605  -0.275  -0.205
    1UNL    H10   66  -0.370  -0.278  -0.138
    1UNL    H11   67  -0.293  -0.093  -0.281
    1UNL    H12   68  -0.172  -0.109  -0.159
    1UNL    H13   69  -0.316   0.344   0.017
    1UNL    H14   70  -0.410   0.487  -0.202
    1UNL    H15   71  -0.432   0.480  -0.432
    1UNL    H16   72  -0.421   0.259  -0.560
    1UNL    H17   73  -0.379   0.053  -0.440
    1UNL    H18   74  -0.153  -0.002   0.052
    1UNL    H19   75  -0.349   0.483   0.332
    1UNL    H20   76  -0.259   0.549   0.197
    1UNL    H21   77  -0.177   0.474   0.351
    1UNL    H22   78  -0.050   0.513   0.164
    1UNL    H23   79   0.180   0.461   0.099
    1UNL    H24   80   0.048  -0.055   0.049
    1UNL    H25   81   0.013  -0.316  -0.011
    1UNL    H26   82   0.092  -0.467   0.073
    1UNL    H27   83   0.118  -0.429  -0.104
    1UNL    H28   84   0.364  -0.207   0.161
    1UNL    H29   85   0.409  -0.049   0.191
    1UNL    H30   86   0.609  -0.195   0.127
    1UNL    H31   87   0.484  -0.328  -0.047
    1UNL    H32   88   0.646  -0.265  -0.103
    1UNL    H33   89   0.551  -0.139  -0.255
    1UNL    H34   90   0.462  -0.362  -0.299
    1UNL    H35   91   0.310  -0.315  -0.213
    1UNL    H36   92   0.272  -0.140  -0.387
    1UNL    H37   93   0.411  -0.188  -0.479
    1UNL    H38   94   0.283  -0.297  -0.450
    1UNL    H39   95   0.334  -0.016  -0.221
    1UNL    H40   96   0.438   0.243  -0.173
    1UNL    H41   97   0.585   0.258  -0.082
    1UNL    H42   98   0.360   0.365   0.023
    1UNL    H43   99   0.444   0.256   0.123
    1UNL    H44  100   0.699  -0.019  -0.039
    1UNL    H45  101   0.558   0.090   0.196
    1UNL    H46  102   0.680   0.177   0.088
    1UNL    H47  103   0.796   0.215   0.312
    1UNL    H48  104   0.892   0.083   0.375
    1UNL    H49  105   0.934   0.166   0.212
    1UNL    H50  106  -0.212   0.013   0.287
    1UNL    H51  107  -0.337   0.130   0.215
    1UNL    H52  108  -0.371  -0.148   0.260
    1UNL    H53  109  -0.211  -0.187   0.058
    1UNL    H54  110  -0.320  -0.539   0.280
    1UNL    H55  111  -0.351  -0.587   0.116
    1UNL    H56  112  -0.192  -0.601   0.206
   0.00000   0.00000   0.00000   0.00000   0.00000   0.00000   0.00000   0.00000   0.00000
Generated with MDTraj, t= 18.0
 112
    1UNL     C1    1  -0.714   0.075   0.220
    1UNL     C2    2  -0.579   0.024   0.245
    1UNL     C3    3  -0.512  -0.033   0.145
    1UNL     C4    4  -0.556  -0.023   0.006
    1UNL     N1    5  -0.512  -0.129  -0.087
    1UNL     C5    6  -0.609  -0.234  -0.115
    1UNL     C6    7  -0.366  -0.167  -0.069
    1UNL     C7    8  -0.266  -0.094  -0.155
    1UNL     C8    9  -0.289   0.058  -0.146
    1UNL     C9   10  -0.273   0.130  -0.033
    1UNL     N2   11  -0.308   0.259  -0.061
    1UNL    C10   12  -0.336   0.277  -0.194
    1UNL    C11   13  -0.380   0.387  -0.265
    1UNL    C12   14  -0.422   0.360  -0.392
    1UNL    C13   15  -0.417   0.231  -0.452
    1UNL    C14   16  -0.370   0.124  -0.385
    1UNL    C15   17  -0.331   0.147  -0.250
    1UNL    C16   18  -0.193   0.080   0.090
    1UNL    C17   19  -0.095   0.187   0.122
    1UNL    C18   20  -0.120   0.323   0.165
    1UNL     O1   21  -0.252   0.352   0.217
    1UNL    C19   22  -0.265   0.476   0.284
    1UNL    C20   23  -0.016   0.418   0.167
    1UNL    C21   24   0.107   0.384   0.124
    1UNL    C22   25   0.140   0.252   0.084
    1UNL    C23   26   0.260   0.183   0.044
    1UNL    C24   27   0.233   0.048   0.036
    1UNL     N3   28   0.098   0.030   0.069
    1UNL    C25   29   0.041   0.154   0.090
    1UNL    C26   30   0.312  -0.068  -0.013
    1UNL    C27   31   0.204  -0.175  -0.050
    1UNL     O2   32   0.113  -0.143  -0.124
    1UNL     O3   33   0.229  -0.292   0.012
    1UNL    C28   34   0.134  -0.379  -0.040
    1UNL    C29   35   0.404  -0.117   0.098
    1UNL    C30   36   0.544  -0.140   0.044
    1UNL    C31   37   0.536  -0.243  -0.079
    1UNL    C32   38   0.468  -0.164  -0.197
    1UNL    C33   39   0.377  -0.254  -0.277
    1UNL    C34   40   0.340  -0.198  -0.425
    1UNL    C35   41   0.396  -0.034  -0.136
    1UNL     N4   42   0.498   0.062  -0.089
    1UNL    C36   43   0.475   0.208  -0.083
    1UNL    C37   44   0.391   0.245   0.040
    1UNL    C38   45   0.601  -0.003  -0.001
    1UNL    C39   46   0.648   0.076   0.116
    1UNL    C40   47   0.770   0.029   0.193
    1UNL    C41   48   0.859   0.126   0.274
    1UNL     O4   49   0.815  -0.082   0.196
    1UNL    C42   50  -0.285   0.039   0.210
    1UNL    C43   51  -0.377  -0.085   0.183
    1UNL    C44   52  -0.326  -0.194   0.088
    1UNL    C45   53  -0.373  -0.333   0.124
    1UNL     O5   54  -0.490  -0.358   0.121
    1UNL     O6   55  -0.261  -0.418   0.144
    1UNL    C46   56  -0.305  -0.544   0.177
    1UNL     H1   57  -0.713   0.147   0.139
    1UNL     H2   58  -0.761   0.116   0.317
    1UNL     H3   59  -0.774  -0.014   0.202
    1UNL     H4   60  -0.541   0.020   0.347
    1UNL     H5   61  -0.510   0.070  -0.040
    1UNL     H6   62  -0.658  -0.013  -0.008
    1UNL     H7   63  -0.692  -0.194  -0.170
    1UNL     H8   64  -0.646  -0.282  -0.028
    1UNL     H9   65  -0.570  -0.315  -0.182
    1UNL    H10   66  -0.365  -0.273  -0.119
    1UNL    H11   67  -0.273  -0.126  -0.261
    1UNL    H12   68  -0.159  -0.115  -0.126
    1UNL    H13   69  -0.307   0.337   0.008
    1UNL    H14   70  -0.389   0.479  -0.211
    1UNL    H15   71  -0.448   0.442  -0.459
    1UNL    H16   72  -0.457   0.222  -0.555
    1UNL    H17   73  -0.384   0.025  -0.416
    1UNL    H18   74  -0.134  -0.007   0.070
    1UNL    H19   75  -0.353   0.491   0.339
    1UNL    H20   76  -0.258   0.549   0.208
    1UNL    H21   77  -0.185   0.484   0.367
    1UNL    H22   78  -0.032   0.513   0.211
    1UNL    H23   79   0.183   0.458   0.106
    1UNL    H24   80   0.047  -0.059   0.062
    1UNL    H25   81   0.113  -0.365  -0.155
    1UNL    H26   82   0.049  -0.378   0.033
    1UNL    H27   83   0.175  -0.487  -0.032
    1UNL    H28   84   0.375  -0.215   0.145
    1UNL    H29   85   0.404  -0.056   0.196
    1UNL    H30   86   0.611  -0.186   0.128
    1UNL    H31   87   0.473  -0.327  -0.043
    1UNL    H32   88   0.638  -0.279  -0.100
    1UNL    H33   89   0.540  -0.120  -0.259
    1UNL    H34   90   0.426  -0.357  -0.291
    1UNL    H35   91   0.287  -0.278  -0.216
    1UNL    H36   92   0.296  -0.096  -0.410
    1UNL    H37   93   0.428  -0.188  -0.479
    1UNL    H38   94   0.273  -0.263  -0.472
    1UNL    H39   95   0.336   0.011  -0.212
    1UNL    H40   96   0.424   0.229  -0.172
    1UNL    H41   97   0.576   0.260  -0.098
    1UNL    H42   98   0.391   0.357   0.050
    1UNL    H43   99   0.441   0.212   0.126
    1UNL    H44  100   0.683  -0.017  -0.065
    1UNL    H45  101   0.572   0.070   0.194
    1UNL    H46  102   0.661   0.179   0.076
    1UNL    H47  103   0.860   0.226   0.226
    1UNL    H48  104   0.824   0.142   0.381
    1UNL    H49  105   0.962   0.086   0.260
    1UNL    H50  106  -0.215   0.025   0.299
    1UNL    H51  107  -0.354   0.124   0.229
    1UNL    H52  108  -0.387  -0.134   0.285
    1UNL    H53  109  -0.218  -0.194   0.092
    1UNL    H54  110  -0.395  -0.547   0.240
    1UNL    H55  111  -0.324  -0.602   0.090
    1UNL    H56  112  -0.233  -0.577   0.259
   0.00000   0.00000   0.00000   0.00000   0.00000   0.00000   0.00000   0.00000   0.00000
Generated with MDTraj, t= 19.0
 112
    1UNL     C1    1  -0.768   0.064   0.177
    1UNL     C2    2  -0.639  -0.007   0.206
    1UNL     C3    3  -0.534  -0.030   0.124
    1UNL     C4    4  -0.549  -0.004  -0.023
    1UNL     N1    5  -0.508  -0.127  -0.101
    1UNL     C5    6  -0.604  -0.241  -0.086
    1UNL     C6    7  -0.368  -0.177  -0.058
    1UNL     C7    8  -0.262  -0.116  -0.139
    1UNL     C8    9  -0.275   0.042  -0.140
    1UNL     C9   10  -0.253   0.127  -0.029
    1UNL     N2   11  -0.289   0.260  -0.060
    1UNL    C10   12  -0.329   0.262  -0.194
    1UNL    C11   13  -0.385   0.368  -0.271
    1UNL    C12   14  -0.425   0.336  -0.400
    1UNL    C13   15  -0.417   0.206  -0.448
    1UNL    C14   16  -0.376   0.102  -0.368
    1UNL    C15   17  -0.326   0.132  -0.241
    1UNL    C16   18  -0.191   0.084   0.099
    1UNL    C17   19  -0.086   0.191   0.137
    1UNL    C18   20  -0.112   0.320   0.177
    1UNL     O1   21  -0.247   0.357   0.194
    1UNL    C19   22  -0.288   0.460   0.279
    1UNL    C20   23   0.006   0.402   0.210
    1UNL    C21   24   0.137   0.367   0.192
    1UNL    C22   25   0.163   0.239   0.129
    1UNL    C23   26   0.276   0.183   0.058
    1UNL    C24   27   0.232   0.055   0.023
    1UNL     N3   28   0.100   0.041   0.054
    1UNL    C25   29   0.049   0.151   0.108
    1UNL    C26   30   0.305  -0.069  -0.025
    1UNL    C27   31   0.205  -0.178  -0.076
    1UNL     O2   32   0.109  -0.150  -0.142
    1UNL     O3   33   0.236  -0.299  -0.024
    1UNL    C28   34   0.131  -0.391  -0.048
    1UNL    C29   35   0.394  -0.128   0.089
    1UNL    C30   36   0.548  -0.130   0.042
    1UNL    C31   37   0.548  -0.236  -0.075
    1UNL    C32   38   0.486  -0.159  -0.197
    1UNL    C33   39   0.406  -0.236  -0.300
    1UNL    C34   40   0.352  -0.143  -0.407
    1UNL    C35   41   0.402  -0.035  -0.141
    1UNL     N4   42   0.499   0.070  -0.101
    1UNL    C36   43   0.467   0.211  -0.090
    1UNL    C37   44   0.405   0.250   0.041
    1UNL    C38   45   0.603   0.011  -0.001
    1UNL    C39   46   0.660   0.091   0.117
    1UNL    C40   47   0.782   0.024   0.181
    1UNL    C41   48   0.874   0.113   0.263
    1UNL     O4   49   0.798  -0.093   0.164
    1UNL    C42   50  -0.298   0.060   0.207
    1UNL    C43   51  -0.397  -0.058   0.175
    1UNL    C44   52  -0.337  -0.178   0.091
    1UNL    C45   53  -0.378  -0.314   0.150
    1UNL     O5   54  -0.494  -0.326   0.176
    1UNL     O6   55  -0.277  -0.406   0.165
    1UNL    C46   56  -0.338  -0.527   0.190
    1UNL     H1   57  -0.764   0.129   0.093
    1UNL     H2   58  -0.821   0.125   0.262
    1UNL     H3   59  -0.847  -0.008   0.160
    1UNL     H4   60  -0.628  -0.038   0.309
    1UNL     H5   61  -0.489   0.091  -0.058
    1UNL     H6   62  -0.644   0.013  -0.057
    1UNL     H7   63  -0.712  -0.222  -0.092
    1UNL     H8   64  -0.593  -0.295   0.003
    1UNL     H9   65  -0.596  -0.318  -0.166
    1UNL    H10   66  -0.369  -0.287  -0.093
    1UNL    H11   67  -0.271  -0.149  -0.243
    1UNL    H12   68  -0.163  -0.157  -0.095
    1UNL    H13   69  -0.277   0.345   0.000
    1UNL    H14   70  -0.386   0.473  -0.238
    1UNL    H15   71  -0.455   0.420  -0.467
    1UNL    H16   72  -0.458   0.190  -0.542
    1UNL    H17   73  -0.382  -0.008  -0.396
    1UNL    H18   74  -0.133  -0.004   0.089
    1UNL    H19   75  -0.392   0.464   0.287
    1UNL    H20   76  -0.257   0.551   0.236
    1UNL    H21   77  -0.252   0.452   0.386
    1UNL    H22   78  -0.015   0.502   0.249
    1UNL    H23   79   0.221   0.435   0.186
    1UNL    H24   80   0.049  -0.035   0.008
    1UNL    H25   81   0.156  -0.467  -0.132
    1UNL    H26   82   0.037  -0.336  -0.047
    1UNL    H27   83   0.119  -0.451   0.049
    1UNL    H28   84   0.367  -0.230   0.128
    1UNL    H29   85   0.393  -0.068   0.186
    1UNL    H30   86   0.622  -0.166   0.129
    1UNL    H31   87   0.482  -0.317  -0.037
    1UNL    H32   88   0.650  -0.277  -0.080
    1UNL    H33   89   0.561  -0.107  -0.245
    1UNL    H34   90   0.481  -0.321  -0.325
    1UNL    H35   91   0.329  -0.294  -0.245
    1UNL    H36   92   0.262  -0.087  -0.372
    1UNL    H37   93   0.421  -0.073  -0.432
    1UNL    H38   94   0.322  -0.197  -0.495
    1UNL    H39   95   0.345   0.025  -0.208
    1UNL    H40   96   0.395   0.229  -0.167
    1UNL    H41   97   0.562   0.266  -0.116
    1UNL    H42   98   0.385   0.359   0.022
    1UNL    H43   99   0.474   0.247   0.124
    1UNL    H44  100   0.687  -0.009  -0.062
    1UNL    H45  101   0.578   0.105   0.189
    1UNL    H46  102   0.698   0.187   0.080
    1UNL    H47  103   0.955   0.148   0.195
    1UNL    H48  104   0.822   0.200   0.309
    1UNL    H49  105   0.927   0.042   0.331
    1UNL    H50  106  -0.241   0.036   0.303
    1UNL    H51  107  -0.363   0.150   0.222
    1UNL    H52  108  -0.414  -0.102   0.277
    1UNL    H53  109  -0.227  -0.178   0.102
    1UNL    H54  110  -0.392  -0.534   0.289
    1UNL    H55  111  -0.417  -0.541   0.117
    1UNL    H56  112  -0.259  -0.609   0.191
   0.00000   0.00000   0.00000   0.00000   0.00000   0.00000   0.00000   0.00000   0.00000
Generated with MDTraj, t= 20.0
 112
    1UNL     C1    1  -0.808   0.018   0.117
    1UNL     C2    2  -0.669   0.023   0.172
    1UNL     C3    3  -0.554   0.005   0.102
    1UNL     C4    4  -0.553   0.006  -0.047
    1UNL     N1    5  -0.503  -0.131  -0.091
    1UNL     C5    6  -0.598  -0.237  -0.075
    1UNL     C6    7  -0.363  -0.174  -0.046
    1UNL     C7    8  -0.255  -0.108  -0.127
    1UNL     C8    9  -0.273   0.038  -0.141
    1UNL     C9   10  -0.245   0.129  -0.038
    1UNL     N2   11  -0.274   0.255  -0.080
    1UNL    C10   12  -0.327   0.249  -0.211
    1UNL    C11   13  -0.393   0.340  -0.281
    1UNL    C12   14  -0.438   0.313  -0.408
    1UNL    C13   15  -0.429   0.181  -0.458
    1UNL    C14   16  -0.374   0.077  -0.386
    1UNL    C15   17  -0.326   0.112  -0.252
    1UNL    C16   18  -0.204   0.089   0.098
    1UNL    C17   19  -0.091   0.175   0.146
    1UNL    C18   20  -0.117   0.305   0.205
    1UNL     O1   21  -0.242   0.343   0.253
    1UNL    C19   22  -0.260   0.482   0.298
    1UNL    C20   23  -0.005   0.388   0.234
    1UNL    C21   24   0.121   0.348   0.207
    1UNL    C22   25   0.142   0.228   0.126
    1UNL    C23   26   0.263   0.170   0.068
    1UNL    C24   27   0.231   0.047   0.019
    1UNL     N3   28   0.100   0.031   0.042
    1UNL    C25   29   0.037   0.140   0.101
    1UNL    C26   30   0.324  -0.062  -0.029
    1UNL    C27   31   0.235  -0.173  -0.084
    1UNL     O2   32   0.152  -0.154  -0.168
    1UNL     O3   33   0.241  -0.297  -0.019
    1UNL    C28   34   0.142  -0.381  -0.078
    1UNL    C29   35   0.419  -0.122   0.080
    1UNL    C30   36   0.564  -0.131   0.019
    1UNL    C31   37   0.549  -0.204  -0.114
    1UNL    C32   38   0.473  -0.125  -0.221
    1UNL    C33   39   0.395  -0.225  -0.318
    1UNL    C34   40   0.333  -0.165  -0.438
    1UNL    C35   41   0.414   0.003  -0.148
    1UNL     N4   42   0.517   0.088  -0.082
    1UNL    C36   43   0.497   0.234  -0.035
    1UNL    C37   44   0.401   0.238   0.083
    1UNL    C38   45   0.619   0.012  -0.000
    1UNL    C39   46   0.669   0.072   0.129
    1UNL    C40   47   0.798   0.009   0.179
    1UNL    C41   48   0.888   0.102   0.251
    1UNL     O4   49   0.826  -0.107   0.159
    1UNL    C42   50  -0.318   0.074   0.202
    1UNL    C43   51  -0.421  -0.035   0.176
    1UNL    C44   52  -0.354  -0.165   0.106
    1UNL    C45   53  -0.399  -0.293   0.176
    1UNL     O5   54  -0.494  -0.298   0.247
    1UNL     O6   55  -0.320  -0.403   0.149
    1UNL    C46   56  -0.349  -0.505   0.243
    1UNL     H1   57  -0.861   0.113   0.107
    1UNL     H2   58  -0.872  -0.056   0.174
    1UNL     H3   59  -0.808  -0.032   0.021
    1UNL     H4   60  -0.654   0.022   0.278
    1UNL     H5   61  -0.476   0.075  -0.087
    1UNL     H6   62  -0.645   0.041  -0.090
    1UNL     H7   63  -0.693  -0.237  -0.129
    1UNL     H8   64  -0.621  -0.255   0.029
    1UNL     H9   65  -0.558  -0.332  -0.109
    1UNL    H10   66  -0.358  -0.282  -0.076
    1UNL    H11   67  -0.267  -0.155  -0.224
    1UNL    H12   68  -0.149  -0.129  -0.082
    1UNL    H13   69  -0.273   0.339  -0.019
    1UNL    H14   70  -0.387   0.440  -0.251
    1UNL    H15   71  -0.490   0.385  -0.461
    1UNL    H16   72  -0.471   0.148  -0.558
    1UNL    H17   73  -0.379  -0.016  -0.430
    1UNL    H18   74  -0.160  -0.008   0.086
    1UNL    H19   75  -0.363   0.509   0.300
    1UNL    H20   76  -0.212   0.547   0.230
    1UNL    H21   77  -0.222   0.508   0.399
    1UNL    H22   78  -0.019   0.476   0.295
    1UNL    H23   79   0.200   0.419   0.231
    1UNL    H24   80   0.058  -0.060   0.021
    1UNL    H25   81   0.175  -0.412  -0.180
    1UNL    H26   82   0.047  -0.339  -0.070
    1UNL    H27   83   0.144  -0.471  -0.012
    1UNL    H28   84   0.395  -0.225   0.119
    1UNL    H29   85   0.437  -0.060   0.173
    1UNL    H30   86   0.642  -0.189   0.090
    1UNL    H31   87   0.503  -0.301  -0.086
    1UNL    H32   88   0.651  -0.220  -0.150
    1UNL    H33   89   0.534  -0.080  -0.291
    1UNL    H34   90   0.465  -0.311  -0.356
    1UNL    H35   91   0.328  -0.281  -0.250
    1UNL    H36   92   0.283  -0.077  -0.406
    1UNL    H37   93   0.412  -0.137  -0.508
    1UNL    H38   94   0.262  -0.235  -0.484
    1UNL    H39   95   0.356   0.065  -0.211
    1UNL    H40   96   0.444   0.272  -0.121
    1UNL    H41   97   0.593   0.292  -0.033
    1UNL    H42   98   0.377   0.341   0.120
    1UNL    H43   99   0.451   0.187   0.171
    1UNL    H44  100   0.699   0.011  -0.070
    1UNL    H45  101   0.596   0.054   0.210
    1UNL    H46  102   0.678   0.179   0.122
    1UNL    H47  103   0.994   0.064   0.249
    1UNL    H48  104   0.887   0.201   0.206
    1UNL    H49  105   0.865   0.105   0.360
    1UNL    H50  106  -0.270   0.048   0.302
    1UNL    H51  107  -0.364   0.175   0.211
    1UNL    H52  108  -0.449  -0.076   0.274
    1UNL    H53  109  -0.244  -0.163   0.131
    1UNL    H54  110  -0.327  -0.477   0.351
    1UNL    H55  111  -0.455  -0.527   0.254
    1UNL    H56  112  -0.294  -0.598   0.205
   0.00000   0.00000   0.00000   0.00000   0.00000   0.00000   0.00000   0.00000   0.00000
Generated with MDTraj, t= 21.0
 112
    1UNL     C1    1  -0.807   0.027   0.095
    1UNL     C2    2  -0.675   0.006   0.159
    1UNL     C3    3  -0.557   0.004   0.091
    1UNL     C4    4  -0.561  -0.017  -0.055
    1UNL     N1    5  -0.517  -0.157  -0.086
    1UNL     C5    6  -0.622  -0.259  -0.078
    1UNL     C6    7  -0.373  -0.183  -0.041
    1UNL     C7    8  -0.264  -0.118  -0.131
    1UNL     C8    9  -0.272   0.030  -0.139
    1UNL     C9   10  -0.234   0.122  -0.046
    1UNL     N2   11  -0.274   0.247  -0.094
    1UNL    C10   12  -0.335   0.230  -0.218
    1UNL    C11   13  -0.386   0.328  -0.302
    1UNL    C12   14  -0.436   0.278  -0.423
    1UNL    C13   15  -0.420   0.145  -0.462
    1UNL    C14   16  -0.370   0.051  -0.377
    1UNL    C15   17  -0.335   0.095  -0.249
    1UNL    C16   18  -0.203   0.090   0.096
    1UNL    C17   19  -0.094   0.179   0.138
    1UNL    C18   20  -0.110   0.301   0.211
    1UNL     O1   21  -0.235   0.326   0.271
    1UNL    C19   22  -0.269   0.460   0.301
    1UNL    C20   23   0.006   0.380   0.242
    1UNL    C21   24   0.137   0.337   0.218
    1UNL    C22   25   0.155   0.222   0.144
    1UNL    C23   26   0.275   0.162   0.096
    1UNL    C24   27   0.237   0.044   0.031
    1UNL     N3   28   0.097   0.043   0.037
    1UNL    C25   29   0.038   0.150   0.109
    1UNL    C26   30   0.327  -0.056  -0.031
    1UNL    C27   31   0.228  -0.166  -0.081
    1UNL     O2   32   0.141  -0.131  -0.157
    1UNL     O3   33   0.231  -0.292  -0.026
    1UNL    C28   34   0.133  -0.369  -0.092
    1UNL    C29   35   0.422  -0.124   0.075
    1UNL    C30   36   0.568  -0.129   0.018
    1UNL    C31   37   0.561  -0.206  -0.119
    1UNL    C32   38   0.501  -0.107  -0.224
    1UNL    C33   39   0.420  -0.175  -0.335
    1UNL    C34   40   0.333  -0.081  -0.425
    1UNL    C35   41   0.413   0.001  -0.145
    1UNL     N4   42   0.515   0.092  -0.085
    1UNL    C36   43   0.489   0.226  -0.017
    1UNL    C37   44   0.419   0.218   0.113
    1UNL    C38   45   0.623   0.015  -0.006
    1UNL    C39   46   0.693   0.070   0.119
    1UNL    C40   47   0.817   0.003   0.159
    1UNL    C41   48   0.922   0.083   0.233
    1UNL     O4   49   0.835  -0.116   0.141
    1UNL    C42   50  -0.332   0.098   0.184
    1UNL    C43   51  -0.429  -0.023   0.168
    1UNL    C44   52  -0.357  -0.157   0.112
    1UNL    C45   53  -0.405  -0.271   0.193
    1UNL     O5   54  -0.492  -0.255   0.278
    1UNL     O6   55  -0.350  -0.393   0.168
    1UNL    C46   56  -0.405  -0.487   0.257
    1UNL     H1   57  -0.843   0.131   0.112
    1UNL     H2   58  -0.873  -0.040   0.140
    1UNL     H3   59  -0.805  -0.004  -0.012
    1UNL     H4   60  -0.672   0.004   0.270
    1UNL     H5   61  -0.505   0.060  -0.091
    1UNL     H6   62  -0.663  -0.019  -0.105
    1UNL     H7   63  -0.714  -0.234  -0.131
    1UNL     H8   64  -0.646  -0.278   0.028
    1UNL     H9   65  -0.597  -0.350  -0.122
    1UNL    H10   66  -0.360  -0.290  -0.054
    1UNL    H11   67  -0.264  -0.166  -0.228
    1UNL    H12   68  -0.169  -0.154  -0.075
    1UNL    H13   69  -0.260   0.339  -0.047
    1UNL    H14   70  -0.387   0.437  -0.282
    1UNL    H15   71  -0.476   0.357  -0.496
    1UNL    H16   72  -0.468   0.123  -0.550
    1UNL    H17   73  -0.344  -0.056  -0.389
    1UNL    H18   74  -0.164  -0.010   0.095
    1UNL    H19   75  -0.375   0.465   0.324
    1UNL    H20   76  -0.247   0.524   0.217
    1UNL    H21   77  -0.217   0.500   0.386
    1UNL    H22   78  -0.013   0.468   0.298
    1UNL    H23   79   0.220   0.398   0.243
    1UNL    H24   80   0.048  -0.030  -0.015
    1UNL    H25   81   0.123  -0.341  -0.195
    1UNL    H26   82   0.045  -0.369  -0.040
    1UNL    H27   83   0.175  -0.467  -0.086
    1UNL    H28   84   0.389  -0.230   0.095
    1UNL    H29   85   0.430  -0.072   0.174
    1UNL    H30   86   0.642  -0.185   0.093
    1UNL    H31   87   0.508  -0.301  -0.104
    1UNL    H32   88   0.666  -0.233  -0.136
    1UNL    H33   89   0.584  -0.062  -0.265
    1UNL    H34   90   0.503  -0.232  -0.395
    1UNL    H35   91   0.350  -0.253  -0.302
    1UNL    H36   92   0.253  -0.044  -0.372
    1UNL    H37   93   0.405   0.004  -0.448
    1UNL    H38   94   0.299  -0.131  -0.515
    1UNL    H39   95   0.366   0.060  -0.219
    1UNL    H40   96   0.428   0.289  -0.083
    1UNL    H41   97   0.587   0.277  -0.016
    1UNL    H42   98   0.414   0.321   0.159
    1UNL    H43   99   0.471   0.147   0.184
    1UNL    H44  100   0.700  -0.006  -0.078
    1UNL    H45  101   0.627   0.058   0.205
    1UNL    H46  102   0.706   0.177   0.111
    1UNL    H47  103   0.962   0.026   0.320
    1UNL    H48  104   1.008   0.112   0.172
    1UNL    H49  105   0.888   0.176   0.284
    1UNL    H50  106  -0.292   0.118   0.289
    1UNL    H51  107  -0.387   0.192   0.158
    1UNL    H52  108  -0.471  -0.044   0.266
    1UNL    H53  109  -0.244  -0.144   0.133
    1UNL    H54  110  -0.398  -0.460   0.366
    1UNL    H55  111  -0.511  -0.500   0.253
    1UNL    H56  112  -0.358  -0.585   0.222
   0.00000   0.00000   0.00000   0.00000   0.00000   0.00000   0.00000   0.00000   0.00000
Generated with MDTraj, t= 22.0
 112
    1UNL     C1    1  -0.789   0.056   0.119
    1UNL     C2    2  -0.656   0.033   0.175
    1UNL     C3    3  -0.549  -0.002   0.097
    1UNL     C4    4  -0.555  -0.022  -0.048
    1UNL     N1    5  -0.505  -0.163  -0.083
    1UNL     C5    6  -0.607  -0.263  -0.064
    1UNL     C6    7  -0.375  -0.197  -0.025
    1UNL     C7    8  -0.255  -0.142  -0.113
    1UNL     C8    9  -0.261   0.007  -0.143
    1UNL     C9   10  -0.240   0.112  -0.051
    1UNL     N2   11  -0.269   0.232  -0.110
    1UNL    C10   12  -0.305   0.218  -0.242
    1UNL    C11   13  -0.354   0.301  -0.340
    1UNL    C12   14  -0.422   0.255  -0.453
    1UNL    C13   15  -0.433   0.116  -0.462
    1UNL    C14   16  -0.365   0.032  -0.382
    1UNL    C15   17  -0.307   0.078  -0.261
    1UNL    C16   18  -0.197   0.088   0.091
    1UNL    C17   19  -0.090   0.191   0.131
    1UNL    C18   20  -0.117   0.300   0.207
    1UNL     O1   21  -0.249   0.349   0.227
    1UNL    C19   22  -0.268   0.459   0.305
    1UNL    C20   23  -0.012   0.367   0.271
    1UNL    C21   24   0.117   0.337   0.237
    1UNL    C22   25   0.150   0.223   0.159
    1UNL    C23   26   0.272   0.174   0.106
    1UNL    C24   27   0.240   0.054   0.048
    1UNL     N3   28   0.099   0.037   0.051
    1UNL    C25   29   0.046   0.150   0.112
    1UNL    C26   30   0.325  -0.044  -0.025
    1UNL    C27   31   0.234  -0.145  -0.099
    1UNL     O2   32   0.150  -0.102  -0.173
    1UNL     O3   33   0.258  -0.274  -0.061
    1UNL    C28   34   0.146  -0.359  -0.088
    1UNL    C29   35   0.406  -0.128   0.077
    1UNL    C30   36   0.554  -0.138   0.022
    1UNL    C31   37   0.552  -0.191  -0.132
    1UNL    C32   38   0.480  -0.082  -0.223
    1UNL    C33   39   0.390  -0.132  -0.333
    1UNL    C34   40   0.335  -0.021  -0.419
    1UNL    C35   41   0.407   0.023  -0.127
    1UNL     N4   42   0.521   0.099  -0.058
    1UNL    C36   43   0.487   0.235  -0.005
    1UNL    C37   44   0.409   0.235   0.126
    1UNL    C38   45   0.620   0.009   0.010
    1UNL    C39   46   0.696   0.041   0.137
    1UNL    C40   47   0.833  -0.019   0.141
    1UNL    C41   48   0.951   0.052   0.194
    1UNL     O4   49   0.857  -0.132   0.108
    1UNL    C42   50  -0.322   0.095   0.184
    1UNL    C43   51  -0.421  -0.030   0.172
    1UNL    C44   52  -0.362  -0.164   0.129
    1UNL    C45   53  -0.433  -0.278   0.207
    1UNL     O5   54  -0.528  -0.252   0.283
    1UNL     O6   55  -0.393  -0.404   0.169
    1UNL    C46   56  -0.457  -0.501   0.257
    1UNL     H1   57  -0.797   0.089   0.010
    1UNL     H2   58  -0.843   0.132   0.166
    1UNL     H3   59  -0.849  -0.036   0.138
    1UNL     H4   60  -0.637   0.059   0.277
    1UNL     H5   61  -0.507   0.051  -0.109
    1UNL     H6   62  -0.667  -0.021  -0.065
    1UNL     H7   63  -0.703  -0.233  -0.104
    1UNL     H8   64  -0.613  -0.290   0.045
    1UNL     H9   65  -0.579  -0.347  -0.118
    1UNL    H10   66  -0.374  -0.303  -0.027
    1UNL    H11   67  -0.257  -0.200  -0.207
    1UNL    H12   68  -0.162  -0.168  -0.057
    1UNL    H13   69  -0.264   0.321  -0.059
    1UNL    H14   70  -0.341   0.404  -0.320
    1UNL    H15   71  -0.451   0.315  -0.531
    1UNL    H16   72  -0.491   0.064  -0.545
    1UNL    H17   73  -0.375  -0.075  -0.398
    1UNL    H18   74  -0.153  -0.011   0.090
    1UNL    H19   75  -0.374   0.489   0.282
    1UNL    H20   76  -0.196   0.541   0.291
    1UNL    H21   77  -0.266   0.432   0.405
    1UNL    H22   78  -0.033   0.462   0.323
    1UNL    H23   79   0.197   0.405   0.265
    1UNL    H24   80   0.051  -0.023  -0.018
    1UNL    H25   81   0.133  -0.361  -0.192
    1UNL    H26   82   0.059  -0.323  -0.049
    1UNL    H27   83   0.170  -0.456  -0.052
    1UNL    H28   84   0.370  -0.235   0.099
    1UNL    H29   85   0.409  -0.064   0.167
    1UNL    H30   86   0.618  -0.205   0.090
    1UNL    H31   87   0.501  -0.286  -0.131
    1UNL    H32   88   0.652  -0.215  -0.168
    1UNL    H33   89   0.561  -0.037  -0.267
    1UNL    H34   90   0.441  -0.210  -0.404
    1UNL    H35   91   0.314  -0.196  -0.284
    1UNL    H36   92   0.270   0.048  -0.371
    1UNL    H37   93   0.414   0.043  -0.467
    1UNL    H38   94   0.272  -0.054  -0.499
    1UNL    H39   95   0.353   0.087  -0.192
    1UNL    H40   96   0.426   0.293  -0.079
    1UNL    H41   97   0.577   0.292   0.013
    1UNL    H42   98   0.395   0.346   0.149
    1UNL    H43   99   0.476   0.180   0.197
    1UNL    H44  100   0.697  -0.004  -0.066
    1UNL    H45  101   0.639   0.012   0.222
    1UNL    H46  102   0.692   0.148   0.146
    1UNL    H47  103   0.937   0.078   0.300
    1UNL    H48  104   1.034  -0.021   0.183
    1UNL    H49  105   0.977   0.144   0.138
    1UNL    H50  106  -0.297   0.099   0.295
    1UNL    H51  107  -0.381   0.186   0.160
    1UNL    H52  108  -0.458  -0.046   0.272
    1UNL    H53  109  -0.248  -0.163   0.159
    1UNL    H54  110  -0.455  -0.475   0.362
    1UNL    H55  111  -0.560  -0.511   0.244
    1UNL    H56  112  -0.419  -0.602   0.233
   0.00000   0.00000   0.00000   0.00000   0.00000   0.00000   0.00000   0.00000   0.00000
Generated with MDTraj, t= 23.0
 112
    1UNL     C1    1  -0.773   0.118   0.131
    1UNL     C2    2  -0.644   0.059   0.175
    1UNL     C3    3  -0.541   0.006   0.104
    1UNL     C4    4  -0.553  -0.024  -0.042
    1UNL     N1    5  -0.511  -0.161  -0.080
    1UNL     C5    6  -0.614  -0.257  -0.050
    1UNL     C6    7  -0.381  -0.201  -0.016
    1UNL     C7    8  -0.255  -0.151  -0.093
    1UNL     C8    9  -0.264  -0.004  -0.131
    1UNL     C9   10  -0.240   0.102  -0.041
    1UNL     N2   11  -0.266   0.218  -0.102
    1UNL    C10   12  -0.293   0.190  -0.238
    1UNL    C11   13  -0.330   0.277  -0.343
    1UNL    C12   14  -0.376   0.215  -0.454
    1UNL    C13   15  -0.393   0.074  -0.472
    1UNL    C14   16  -0.356  -0.014  -0.374
    1UNL    C15   17  -0.308   0.050  -0.255
    1UNL    C16   18  -0.187   0.083   0.097
    1UNL    C17   19  -0.087   0.191   0.141
    1UNL    C18   20  -0.122   0.314   0.192
    1UNL     O1   21  -0.254   0.360   0.191
    1UNL    C19   22  -0.289   0.450   0.294
    1UNL    C20   23  -0.019   0.403   0.243
    1UNL    C21   24   0.113   0.363   0.236
    1UNL    C22   25   0.155   0.245   0.170
    1UNL    C23   26   0.274   0.164   0.144
    1UNL    C24   27   0.241   0.055   0.065
    1UNL     N3   28   0.099   0.064   0.052
    1UNL    C25   29   0.048   0.164   0.125
    1UNL    C26   30   0.320  -0.043  -0.019
    1UNL    C27   31   0.223  -0.135  -0.084
    1UNL     O2   32   0.142  -0.092  -0.164
    1UNL     O3   33   0.244  -0.272  -0.065
    1UNL    C28   34   0.160  -0.354  -0.141
    1UNL    C29   35   0.415  -0.123   0.063
    1UNL    C30   36   0.552  -0.127  -0.006
    1UNL    C31   37   0.543  -0.163  -0.159
    1UNL    C32   38   0.467  -0.053  -0.233
    1UNL    C33   39   0.386  -0.109  -0.353
    1UNL    C34   40   0.335   0.008  -0.440
    1UNL    C35   41   0.401   0.043  -0.127
    1UNL     N4   42   0.515   0.113  -0.044
    1UNL    C36   43   0.490   0.227   0.045
    1UNL    C37   44   0.414   0.192   0.180
    1UNL    C38   45   0.621   0.018   0.003
    1UNL    C39   46   0.712   0.049   0.120
    1UNL    C40   47   0.836  -0.037   0.128
    1UNL    C41   48   0.960   0.039   0.176
    1UNL     O4   49   0.839  -0.154   0.105
    1UNL    C42   50  -0.308   0.078   0.187
    1UNL    C43   51  -0.419  -0.038   0.185
    1UNL    C44   52  -0.372  -0.177   0.139
    1UNL    C45   53  -0.447  -0.293   0.210
    1UNL     O5   54  -0.550  -0.264   0.273
    1UNL     O6   55  -0.406  -0.418   0.182
    1UNL    C46   56  -0.497  -0.513   0.232
    1UNL     H1   57  -0.807   0.105   0.028
    1UNL     H2   58  -0.774   0.224   0.142
    1UNL     H3   59  -0.848   0.080   0.203
    1UNL     H4   60  -0.611   0.095   0.275
    1UNL     H5   61  -0.486   0.054  -0.102
    1UNL     H6   62  -0.658  -0.014  -0.077
    1UNL     H7   63  -0.690  -0.235  -0.122
    1UNL     H8   64  -0.643  -0.240   0.055
    1UNL     H9   65  -0.576  -0.357  -0.063
    1UNL    H10   66  -0.379  -0.306  -0.018
    1UNL    H11   67  -0.240  -0.207  -0.188
    1UNL    H12   68  -0.164  -0.165  -0.036
    1UNL    H13   69  -0.258   0.305  -0.052
    1UNL    H14   70  -0.329   0.384  -0.340
    1UNL    H15   71  -0.402   0.282  -0.539
    1UNL    H16   72  -0.426   0.036  -0.564
    1UNL    H17   73  -0.374  -0.118  -0.370
    1UNL    H18   74  -0.134  -0.011   0.093
    1UNL    H19   75  -0.399   0.430   0.319
    1UNL    H20   76  -0.261   0.558   0.272
    1UNL    H21   77  -0.231   0.429   0.377
    1UNL    H22   78  -0.042   0.493   0.291
    1UNL    H23   79   0.180   0.430   0.284
    1UNL    H24   80   0.039   0.005  -0.007
    1UNL    H25   81   0.180  -0.331  -0.243
    1UNL    H26   82   0.061  -0.324  -0.123
    1UNL    H27   83   0.180  -0.458  -0.121
    1UNL    H28   84   0.383  -0.233   0.072
    1UNL    H29   85   0.435  -0.088   0.166
    1UNL    H30   86   0.617  -0.193   0.056
    1UNL    H31   87   0.484  -0.251  -0.179
    1UNL    H32   88   0.642  -0.181  -0.204
    1UNL    H33   89   0.544   0.001  -0.276
    1UNL    H34   90   0.451  -0.180  -0.419
    1UNL    H35   91   0.296  -0.168  -0.324
    1UNL    H36   92   0.264   0.080  -0.388
    1UNL    H37   93   0.417   0.067  -0.476
    1UNL    H38   94   0.281  -0.022  -0.528
    1UNL    H39   95   0.331   0.118  -0.157
    1UNL    H40   96   0.430   0.303  -0.017
    1UNL    H41   97   0.579   0.280   0.069
    1UNL    H42   98   0.425   0.283   0.249
    1UNL    H43   99   0.461   0.105   0.225
    1UNL    H44  100   0.687   0.027  -0.086
    1UNL    H45  101   0.648   0.033   0.202
    1UNL    H46  102   0.734   0.154   0.130
    1UNL    H47  103   0.936   0.140   0.206
    1UNL    H48  104   1.004  -0.018   0.261
    1UNL    H49  105   1.034   0.046   0.095
    1UNL    H50  106  -0.279   0.087   0.297
    1UNL    H51  107  -0.361   0.175   0.165
    1UNL    H52  108  -0.457  -0.048   0.285
    1UNL    H53  109  -0.262  -0.185   0.172
    1UNL    H54  110  -0.496  -0.528   0.338
    1UNL    H55  111  -0.596  -0.502   0.206
    1UNL    H56  112  -0.465  -0.605   0.179
   0.00000   0.00000   0.00000   0.00000   0.00000   0.00000   0.00000   0.00000   0.00000
Generated with MDTraj, t= 24.0
 112
    1UNL     C1    1  -0.737   0.161   0.099
    1UNL     C2    2  -0.635   0.101   0.187
    1UNL     C3    3  -0.546   0.020   0.124
    1UNL     C4    4  -0.546  -0.001  -0.023
    1UNL     N1    5  -0.513  -0.139  -0.053
    1UNL     C5    6  -0.628  -0.243  -0.049
    1UNL     C6    7  -0.385  -0.207  -0.004
    1UNL     C7    8  -0.267  -0.164  -0.087
    1UNL     C8    9  -0.262  -0.017  -0.118
    1UNL     C9   10  -0.243   0.085  -0.029
    1UNL     N2   11  -0.261   0.203  -0.105
    1UNL    C10   12  -0.293   0.174  -0.235
    1UNL    C11   13  -0.325   0.253  -0.342
    1UNL    C12   14  -0.353   0.190  -0.463
    1UNL    C13   15  -0.331   0.053  -0.483
    1UNL    C14   16  -0.311  -0.028  -0.377
    1UNL    C15   17  -0.293   0.036  -0.252
    1UNL    C16   18  -0.199   0.062   0.113
    1UNL    C17   19  -0.096   0.157   0.153
    1UNL    C18   20  -0.130   0.289   0.183
    1UNL     O1   21  -0.258   0.347   0.180
    1UNL    C19   22  -0.270   0.453   0.275
    1UNL    C20   23  -0.027   0.381   0.215
    1UNL    C21   24   0.109   0.347   0.203
    1UNL    C22   25   0.141   0.216   0.173
    1UNL    C23   26   0.266   0.167   0.129
    1UNL    C24   27   0.235   0.049   0.071
    1UNL     N3   28   0.101   0.014   0.090
    1UNL    C25   29   0.039   0.124   0.149
    1UNL    C26   30   0.326  -0.040  -0.013
    1UNL    C27   31   0.231  -0.143  -0.087
    1UNL     O2   32   0.143  -0.093  -0.155
    1UNL     O3   33   0.248  -0.278  -0.099
    1UNL    C28   34   0.148  -0.336  -0.168
    1UNL    C29   35   0.433  -0.118   0.067
    1UNL    C30   36   0.564  -0.112  -0.016
    1UNL    C31   37   0.545  -0.146  -0.165
    1UNL    C32   38   0.470  -0.028  -0.229
    1UNL    C33   39   0.382  -0.054  -0.353
    1UNL    C34   40   0.332   0.078  -0.423
    1UNL    C35   41   0.395   0.053  -0.119
    1UNL     N4   42   0.508   0.126  -0.043
    1UNL    C36   43   0.480   0.242   0.036
    1UNL    C37   44   0.402   0.210   0.161
    1UNL    C38   45   0.622   0.032  -0.000
    1UNL    C39   46   0.700   0.048   0.126
    1UNL    C40   47   0.818  -0.039   0.124
    1UNL    C41   48   0.952   0.018   0.153
    1UNL     O4   49   0.811  -0.159   0.111
    1UNL    C42   50  -0.316   0.060   0.214
    1UNL    C43   51  -0.429  -0.041   0.196
    1UNL    C44   52  -0.374  -0.177   0.143
    1UNL    C45   53  -0.456  -0.287   0.207
    1UNL     O5   54  -0.557  -0.259   0.277
    1UNL     O6   55  -0.408  -0.414   0.185
    1UNL    C46   56  -0.502  -0.502   0.236
    1UNL     H1   57  -0.813   0.097   0.067
    1UNL     H2   58  -0.696   0.197   0.002
    1UNL     H3   59  -0.777   0.246   0.156
    1UNL     H4   60  -0.622   0.133   0.287
    1UNL     H5   61  -0.474   0.065  -0.085
    1UNL     H6   62  -0.647   0.012  -0.068
    1UNL     H7   63  -0.710  -0.197  -0.098
    1UNL     H8   64  -0.643  -0.268   0.055
    1UNL     H9   65  -0.593  -0.330  -0.106
    1UNL    H10   66  -0.396  -0.311  -0.008
    1UNL    H11   67  -0.267  -0.213  -0.188
    1UNL    H12   68  -0.175  -0.191  -0.047
    1UNL    H13   69  -0.250   0.290  -0.058
    1UNL    H14   70  -0.336   0.361  -0.320
    1UNL    H15   71  -0.389   0.246  -0.548
    1UNL    H16   72  -0.361   0.018  -0.583
    1UNL    H17   73  -0.299  -0.139  -0.389
    1UNL    H18   74  -0.150  -0.034   0.108
    1UNL    H19   75  -0.383   0.462   0.301
    1UNL    H20   76  -0.219   0.547   0.239
    1UNL    H21   77  -0.216   0.425   0.360
    1UNL    H22   78  -0.053   0.483   0.240
    1UNL    H23   79   0.185   0.424   0.211
    1UNL    H24   80   0.057  -0.058   0.031
    1UNL    H25   81   0.163  -0.307  -0.273
    1UNL    H26   82   0.052  -0.286  -0.137
    1UNL    H27   83   0.145  -0.444  -0.153
    1UNL    H28   84   0.400  -0.229   0.068
    1UNL    H29   85   0.442  -0.089   0.173
    1UNL    H30   86   0.629  -0.185   0.024
    1UNL    H31   87   0.485  -0.233  -0.183
    1UNL    H32   88   0.639  -0.162  -0.220
    1UNL    H33   89   0.539   0.040  -0.265
    1UNL    H34   90   0.431  -0.112  -0.441
    1UNL    H35   91   0.283  -0.101  -0.324
    1UNL    H36   92   0.276   0.150  -0.353
    1UNL    H37   93   0.414   0.125  -0.467
    1UNL    H38   94   0.263   0.051  -0.503
    1UNL    H39   95   0.321   0.122  -0.155
    1UNL    H40   96   0.437   0.325  -0.032
    1UNL    H41   97   0.575   0.283   0.058
    1UNL    H42   98   0.397   0.304   0.228
    1UNL    H43   99   0.457   0.139   0.222
    1UNL    H44  100   0.682   0.048  -0.093
    1UNL    H45  101   0.645   0.031   0.213
    1UNL    H46  102   0.740   0.146   0.131
    1UNL    H47  103   0.971   0.112   0.103
    1UNL    H48  104   0.963   0.031   0.262
    1UNL    H49  105   1.034  -0.048   0.122
    1UNL    H50  106  -0.260   0.075   0.312
    1UNL    H51  107  -0.359   0.162   0.205
    1UNL    H52  108  -0.473  -0.057   0.295
    1UNL    H53  109  -0.266  -0.185   0.177
    1UNL    H54  110  -0.520  -0.486   0.342
    1UNL    H55  111  -0.589  -0.513   0.180
    1UNL    H56  112  -0.455  -0.604   0.229
   0.00000   0.00000   0.00000   0.00000   0.00000   0.00000   0.00000   0.00000   0.00000
Generated with MDTraj, t= 25.0
 112
    1UNL     C1    1  -0.726   0.206   0.091
    1UNL     C2    2  -0.617   0.121   0.156
    1UNL     C3    3  -0.538   0.027   0.102
    1UNL     C4    4  -0.545  -0.005  -0.047
    1UNL     N1    5  -0.520  -0.152  -0.070
    1UNL     C5    6  -0.652  -0.238  -0.049
    1UNL     C6    7  -0.406  -0.219  -0.005
    1UNL     C7    8  -0.272  -0.191  -0.070
    1UNL     C8    9  -0.258  -0.040  -0.111
    1UNL     C9   10  -0.244   0.064  -0.020
    1UNL     N2   11  -0.247   0.185  -0.084
    1UNL    C10   12  -0.282   0.167  -0.218
    1UNL    C11   13  -0.300   0.256  -0.325
    1UNL    C12   14  -0.308   0.199  -0.444
    1UNL    C13   15  -0.301   0.061  -0.468
    1UNL    C14   16  -0.275  -0.027  -0.365
    1UNL    C15   17  -0.275   0.026  -0.240
    1UNL    C16   18  -0.199   0.051   0.127
    1UNL    C17   19  -0.094   0.160   0.161
    1UNL    C18   20  -0.129   0.287   0.199
    1UNL     O1   21  -0.269   0.324   0.190
    1UNL    C19   22  -0.299   0.458   0.220
    1UNL    C20   23  -0.026   0.378   0.228
    1UNL    C21   24   0.109   0.351   0.216
    1UNL    C22   25   0.151   0.221   0.178
    1UNL    C23   26   0.269   0.160   0.132
    1UNL    C24   27   0.241   0.043   0.065
    1UNL     N3   28   0.103   0.026   0.076
    1UNL    C25   29   0.047   0.132   0.144
    1UNL    C26   30   0.327  -0.038  -0.024
    1UNL    C27   31   0.235  -0.130  -0.107
    1UNL     O2   32   0.141  -0.084  -0.174
    1UNL     O3   33   0.256  -0.267  -0.108
    1UNL    C28   34   0.164  -0.338  -0.180
    1UNL    C29   35   0.440  -0.133   0.043
    1UNL    C30   36   0.574  -0.122  -0.043
    1UNL    C31   37   0.543  -0.135  -0.199
    1UNL    C32   38   0.459  -0.005  -0.251
    1UNL    C33   39   0.361  -0.023  -0.374
    1UNL    C34   40   0.307   0.105  -0.427
    1UNL    C35   41   0.392   0.054  -0.119
    1UNL     N4   42   0.509   0.120  -0.046
    1UNL    C36   43   0.487   0.236   0.038
    1UNL    C37   44   0.406   0.204   0.158
    1UNL    C38   45   0.618   0.027  -0.016
    1UNL    C39   46   0.677   0.031   0.124
    1UNL    C40   47   0.814  -0.041   0.138
    1UNL    C41   48   0.938   0.037   0.148
    1UNL     O4   49   0.821  -0.160   0.161
    1UNL    C42   50  -0.319   0.055   0.224
    1UNL    C43   51  -0.436  -0.043   0.190
    1UNL    C44   52  -0.396  -0.185   0.145
    1UNL    C45   53  -0.478  -0.294   0.222
    1UNL     O5   54  -0.574  -0.264   0.293
    1UNL     O6   55  -0.426  -0.416   0.209
    1UNL    C46   56  -0.498  -0.509   0.287
    1UNL     H1   57  -0.822   0.165   0.089
    1UNL     H2   58  -0.708   0.232  -0.018
    1UNL     H3   59  -0.729   0.299   0.146
    1UNL     H4   60  -0.602   0.137   0.265
    1UNL     H5   61  -0.471   0.045  -0.100
    1UNL     H6   62  -0.644   0.021  -0.099
    1UNL     H7   63  -0.717  -0.201  -0.125
    1UNL     H8   64  -0.681  -0.219   0.049
    1UNL     H9   65  -0.630  -0.347  -0.065
    1UNL    H10   66  -0.432  -0.322  -0.011
    1UNL    H11   67  -0.261  -0.257  -0.160
    1UNL    H12   68  -0.190  -0.219  -0.014
    1UNL    H13   69  -0.246   0.275  -0.041
    1UNL    H14   70  -0.293   0.358  -0.317
    1UNL    H15   71  -0.338   0.261  -0.525
    1UNL    H16   72  -0.309   0.011  -0.565
    1UNL    H17   73  -0.256  -0.127  -0.380
    1UNL    H18   74  -0.149  -0.044   0.128
    1UNL    H19   75  -0.414   0.458   0.224
    1UNL    H20   76  -0.254   0.524   0.141
    1UNL    H21   77  -0.253   0.485   0.313
    1UNL    H22   78  -0.046   0.484   0.249
    1UNL    H23   79   0.175   0.436   0.238
    1UNL    H24   80   0.042  -0.031   0.015
    1UNL    H25   81   0.134  -0.268  -0.264
    1UNL    H26   82   0.067  -0.345  -0.115
    1UNL    H27   83   0.198  -0.438  -0.212
    1UNL    H28   84   0.398  -0.239   0.054
    1UNL    H29   85   0.440  -0.098   0.148
    1UNL    H30   86   0.637  -0.193  -0.006
    1UNL    H31   87   0.486  -0.224  -0.216
    1UNL    H32   88   0.637  -0.151  -0.253
    1UNL    H33   89   0.519   0.069  -0.292
    1UNL    H34   90   0.415  -0.080  -0.459
    1UNL    H35   91   0.269  -0.083  -0.342
    1UNL    H36   92   0.234   0.164  -0.365
    1UNL    H37   93   0.383   0.173  -0.454
    1UNL    H38   94   0.253   0.089  -0.522
    1UNL    H39   95   0.325   0.128  -0.160
    1UNL    H40   96   0.437   0.312  -0.034
    1UNL    H41   97   0.578   0.286   0.054
    1UNL    H42   98   0.412   0.288   0.238
    1UNL    H43   99   0.454   0.124   0.215
    1UNL    H44  100   0.694   0.046  -0.098
    1UNL    H45  101   0.609  -0.020   0.188
    1UNL    H46  102   0.685   0.133   0.153
    1UNL    H47  103   0.975   0.066   0.048
    1UNL    H48  104   0.919   0.125   0.209
    1UNL    H49  105   1.017  -0.019   0.198
    1UNL    H50  106  -0.285   0.039   0.330
    1UNL    H51  107  -0.348   0.164   0.226
    1UNL    H52  108  -0.497  -0.061   0.283
    1UNL    H53  109  -0.293  -0.201   0.184
    1UNL    H54  110  -0.489  -0.486   0.395
    1UNL    H55  111  -0.595  -0.538   0.252
    1UNL    H56  112  -0.438  -0.607   0.278
   0.00000   0.00000   0.00000   0.00000   0.00000   0.00000   0.00000   0.00000   0.00000
Generated with MDTraj, t= 26.0
 112
    1UNL     C1    1  -0.687   0.226   0.051
    1UNL     C2    2  -0.596   0.134   0.130
    1UNL     C3    3  -0.540   0.023   0.086
    1UNL     C4    4  -0.539  -0.034  -0.055
    1UNL     N1    5  -0.528  -0.179  -0.071
    1UNL     C5    6  -0.655  -0.254  -0.036
    1UNL     C6    7  -0.409  -0.227   0.002
    1UNL     C7    8  -0.282  -0.187  -0.074
    1UNL     C8    9  -0.267  -0.040  -0.100
    1UNL     C9   10  -0.238   0.059  -0.005
    1UNL     N2   11  -0.247   0.183  -0.062
    1UNL    C10   12  -0.239   0.159  -0.196
    1UNL    C11   13  -0.227   0.248  -0.307
    1UNL    C12   14  -0.271   0.210  -0.432
    1UNL    C13   15  -0.294   0.080  -0.467
    1UNL    C14   16  -0.287  -0.018  -0.370
    1UNL    C15   17  -0.268   0.024  -0.233
    1UNL    C16   18  -0.200   0.039   0.137
    1UNL    C17   19  -0.094   0.142   0.172
    1UNL    C18   20  -0.121   0.272   0.215
    1UNL     O1   21  -0.253   0.316   0.202
    1UNL    C19   22  -0.270   0.455   0.167
    1UNL    C20   23  -0.019   0.361   0.266
    1UNL    C21   24   0.113   0.322   0.254
    1UNL    C22   25   0.142   0.201   0.185
    1UNL    C23   26   0.263   0.146   0.133
    1UNL    C24   27   0.226   0.044   0.049
    1UNL     N3   28   0.092   0.013   0.062
    1UNL    C25   29   0.041   0.110   0.147
    1UNL    C26   30   0.311  -0.033  -0.050
    1UNL    C27   31   0.220  -0.111  -0.135
    1UNL     O2   32   0.120  -0.064  -0.190
    1UNL     O3   33   0.253  -0.245  -0.142
    1UNL    C28   34   0.161  -0.330  -0.197
    1UNL    C29   35   0.417  -0.131   0.018
    1UNL    C30   36   0.559  -0.106  -0.041
    1UNL    C31   37   0.551  -0.123  -0.191
    1UNL    C32   38   0.465  -0.004  -0.248
    1UNL    C33   39   0.381  -0.042  -0.375
    1UNL    C34   40   0.289   0.081  -0.419
    1UNL    C35   41   0.390   0.064  -0.134
    1UNL     N4   42   0.500   0.129  -0.047
    1UNL    C36   43   0.471   0.248   0.029
    1UNL    C37   44   0.395   0.214   0.157
    1UNL    C38   45   0.608   0.036  -0.006
    1UNL    C39   46   0.681   0.054   0.133
    1UNL    C40   47   0.803  -0.027   0.139
    1UNL    C41   48   0.934   0.042   0.129
    1UNL     O4   49   0.792  -0.143   0.167
    1UNL    C42   50  -0.319   0.048   0.227
    1UNL    C43   51  -0.442  -0.045   0.190
    1UNL    C44   52  -0.399  -0.187   0.154
    1UNL    C45   53  -0.480  -0.292   0.232
    1UNL     O5   54  -0.588  -0.254   0.272
    1UNL     O6   55  -0.427  -0.417   0.247
    1UNL    C46   56  -0.516  -0.492   0.333
    1UNL     H1   57  -0.775   0.181   0.009
    1UNL     H2   58  -0.639   0.269  -0.041
    1UNL     H3   59  -0.710   0.303   0.118
    1UNL     H4   60  -0.575   0.150   0.232
    1UNL     H5   61  -0.465   0.013  -0.107
    1UNL     H6   62  -0.635  -0.004  -0.110
    1UNL     H7   63  -0.738  -0.195  -0.073
    1UNL     H8   64  -0.652  -0.261   0.068
    1UNL     H9   65  -0.653  -0.352  -0.089
    1UNL    H10   66  -0.419  -0.335  -0.003
    1UNL    H11   67  -0.274  -0.240  -0.171
    1UNL    H12   68  -0.201  -0.233  -0.024
    1UNL    H13   69  -0.213   0.264  -0.010
    1UNL    H14   70  -0.197   0.352  -0.277
    1UNL    H15   71  -0.280   0.288  -0.512
    1UNL    H16   72  -0.308   0.052  -0.566
    1UNL    H17   73  -0.295  -0.126  -0.397
    1UNL    H18   74  -0.141  -0.052   0.142
    1UNL    H19   75  -0.360   0.459   0.099
    1UNL    H20   76  -0.177   0.484   0.116
    1UNL    H21   77  -0.281   0.518   0.257
    1UNL    H22   78  -0.056   0.441   0.322
    1UNL    H23   79   0.188   0.369   0.312
    1UNL    H24   80   0.051  -0.039  -0.016
    1UNL    H25   81   0.154  -0.298  -0.306
    1UNL    H26   82   0.056  -0.297  -0.153
    1UNL    H27   83   0.186  -0.437  -0.175
    1UNL    H28   84   0.375  -0.236   0.013
    1UNL    H29   85   0.421  -0.114   0.129
    1UNL    H30   86   0.626  -0.164   0.010
    1UNL    H31   87   0.510  -0.221  -0.211
    1UNL    H32   88   0.651  -0.123  -0.235
    1UNL    H33   89   0.535   0.063  -0.284
    1UNL    H34   90   0.452  -0.076  -0.459
    1UNL    H35   91   0.320  -0.136  -0.358
    1UNL    H36   92   0.212   0.110  -0.352
    1UNL    H37   93   0.346   0.176  -0.434
    1UNL    H38   94   0.241   0.065  -0.518
    1UNL    H39   95   0.323   0.141  -0.174
    1UNL    H40   96   0.412   0.322  -0.037
    1UNL    H41   97   0.566   0.292   0.041
    1UNL    H42   98   0.385   0.314   0.211
    1UNL    H43   99   0.468   0.166   0.225
    1UNL    H44  100   0.697   0.056  -0.077
    1UNL    H45  101   0.614   0.018   0.211
    1UNL    H46  102   0.701   0.157   0.136
    1UNL    H47  103   0.994   0.003   0.044
    1UNL    H48  104   0.914   0.146   0.112
    1UNL    H49  105   0.989   0.034   0.221
    1UNL    H50  106  -0.292   0.038   0.335
    1UNL    H51  107  -0.360   0.152   0.221
    1UNL    H52  108  -0.504  -0.055   0.285
    1UNL    H53  109  -0.298  -0.207   0.192
    1UNL    H54  110  -0.482  -0.481   0.439
    1UNL    H55  111  -0.624  -0.492   0.314
    1UNL    H56  112  -0.486  -0.603   0.312
   0.00000   0.00000   0.00000   0.00000   0.00000   0.00000   0.00000   0.00000   0.00000
Generated with MDTraj, t= 27.0
 112
    1UNL     C1    1  -0.660   0.221  -0.007
    1UNL     C2    2  -0.585   0.144   0.099
    1UNL     C3    3  -0.539   0.021   0.086
    1UNL     C4    4  -0.559  -0.042  -0.054
    1UNL     N1    5  -0.539  -0.187  -0.050
    1UNL     C5    6  -0.654  -0.274  -0.029
    1UNL     C6    7  -0.405  -0.226   0.011
    1UNL     C7    8  -0.288  -0.175  -0.074
    1UNL     C8    9  -0.277  -0.027  -0.094
    1UNL     C9   10  -0.234   0.066  -0.005
    1UNL     N2   11  -0.199   0.181  -0.075
    1UNL    C10   12  -0.220   0.167  -0.207
    1UNL    C11   13  -0.206   0.256  -0.315
    1UNL    C12   14  -0.249   0.216  -0.436
    1UNL    C13   15  -0.276   0.077  -0.454
    1UNL    C14   16  -0.275  -0.015  -0.351
    1UNL    C15   17  -0.263   0.034  -0.222
    1UNL    C16   18  -0.204   0.035   0.141
    1UNL    C17   19  -0.099   0.129   0.189
    1UNL    C18   20  -0.124   0.258   0.247
    1UNL     O1   21  -0.255   0.308   0.236
    1UNL    C19   22  -0.266   0.432   0.164
    1UNL    C20   23  -0.016   0.333   0.302
    1UNL    C21   24   0.115   0.300   0.286
    1UNL    C22   25   0.140   0.184   0.202
    1UNL    C23   26   0.254   0.150   0.129
    1UNL    C24   27   0.231   0.035   0.059
    1UNL     N3   28   0.096   0.006   0.077
    1UNL    C25   29   0.035   0.099   0.157
    1UNL    C26   30   0.313  -0.035  -0.042
    1UNL    C27   31   0.217  -0.110  -0.132
    1UNL     O2   32   0.125  -0.046  -0.180
    1UNL     O3   33   0.240  -0.240  -0.154
    1UNL    C28   34   0.154  -0.290  -0.245
    1UNL    C29   35   0.423  -0.121   0.022
    1UNL    C30   36   0.563  -0.094  -0.042
    1UNL    C31   37   0.551  -0.119  -0.200
    1UNL    C32   38   0.465  -0.002  -0.263
    1UNL    C33   39   0.393  -0.066  -0.380
    1UNL    C34   40   0.288   0.027  -0.440
    1UNL    C35   41   0.395   0.061  -0.145
    1UNL     N4   42   0.497   0.137  -0.060
    1UNL    C36   43   0.463   0.252   0.025
    1UNL    C37   44   0.384   0.223   0.152
    1UNL    C38   45   0.606   0.051  -0.016
    1UNL    C39   46   0.672   0.081   0.121
    1UNL    C40   47   0.785  -0.018   0.132
    1UNL    C41   48   0.923   0.041   0.115
    1UNL     O4   49   0.776  -0.133   0.162
    1UNL    C42   50  -0.327   0.046   0.234
    1UNL    C43   51  -0.451  -0.039   0.189
    1UNL    C44   52  -0.400  -0.187   0.162
    1UNL    C45   53  -0.495  -0.287   0.234
    1UNL     O5   54  -0.613  -0.266   0.245
    1UNL     O6   55  -0.427  -0.397   0.274
    1UNL    C46   56  -0.521  -0.480   0.352
    1UNL     H1   57  -0.748   0.169  -0.050
    1UNL     H2   58  -0.599   0.237  -0.094
    1UNL     H3   59  -0.689   0.313   0.035
    1UNL     H4   60  -0.593   0.195   0.198
    1UNL     H5   61  -0.491   0.004  -0.134
    1UNL     H6   62  -0.662  -0.019  -0.088
    1UNL     H7   63  -0.714  -0.283  -0.120
    1UNL     H8   64  -0.707  -0.235   0.057
    1UNL     H9   65  -0.618  -0.372  -0.004
    1UNL    H10   66  -0.401  -0.336  -0.003
    1UNL    H11   67  -0.291  -0.229  -0.169
    1UNL    H12   68  -0.192  -0.209  -0.040
    1UNL    H13   69  -0.158   0.262  -0.035
    1UNL    H14   70  -0.183   0.358  -0.299
    1UNL    H15   71  -0.237   0.273  -0.520
    1UNL    H16   72  -0.295   0.044  -0.564
    1UNL    H17   73  -0.291  -0.120  -0.363
    1UNL    H18   74  -0.153  -0.061   0.141
    1UNL    H19   75  -0.368   0.447   0.130
    1UNL    H20   76  -0.196   0.419   0.082
    1UNL    H21   77  -0.225   0.519   0.225
    1UNL    H22   78  -0.033   0.432   0.353
    1UNL    H23   79   0.196   0.366   0.320
    1UNL    H24   80   0.040  -0.052   0.014
    1UNL    H25   81   0.163  -0.230  -0.339
    1UNL    H26   82   0.048  -0.266  -0.206
    1UNL    H27   83   0.169  -0.400  -0.252
    1UNL    H28   84   0.404  -0.231   0.016
    1UNL    H29   85   0.422  -0.099   0.135
    1UNL    H30   86   0.645  -0.146  -0.007
    1UNL    H31   87   0.511  -0.217  -0.220
    1UNL    H32   88   0.645  -0.116  -0.255
    1UNL    H33   89   0.529   0.070  -0.302
    1UNL    H34   90   0.458  -0.103  -0.468
    1UNL    H35   91   0.345  -0.162  -0.344
    1UNL    H36   92   0.228   0.066  -0.366
    1UNL    H37   93   0.342   0.115  -0.491
    1UNL    H38   94   0.233  -0.029  -0.518
    1UNL    H39   95   0.321   0.136  -0.173
    1UNL    H40   96   0.408   0.321  -0.048
    1UNL    H41   97   0.552   0.306   0.048
    1UNL    H42   98   0.366   0.323   0.201
    1UNL    H43   99   0.446   0.172   0.231
    1UNL    H44  100   0.688   0.072  -0.096
    1UNL    H45  101   0.597   0.061   0.199
    1UNL    H46  102   0.712   0.178   0.116
    1UNL    H47  103   1.001  -0.034   0.101
    1UNL    H48  104   0.930   0.109   0.033
    1UNL    H49  105   0.947   0.098   0.203
    1UNL    H50  106  -0.289   0.032   0.338
    1UNL    H51  107  -0.370   0.149   0.234
    1UNL    H52  108  -0.528  -0.047   0.275
    1UNL    H53  109  -0.298  -0.198   0.196
    1UNL    H54  110  -0.572  -0.420   0.429
    1UNL    H55  111  -0.588  -0.545   0.297
    1UNL    H56  112  -0.454  -0.546   0.417
   0.00000   0.00000   0.00000   0.00000   0.00000   0.00000   0.00000   0.00000   0.00000
Generated with MDTraj, t= 28.0
 112
    1UNL     C1    1  -0.646   0.237  -0.039
    1UNL     C2    2  -0.553   0.164   0.061
    1UNL     C3    3  -0.521   0.037   0.041
    1UNL     C4    4  -0.578  -0.047  -0.066
    1UNL     N1    5  -0.534  -0.194  -0.076
    1UNL     C5    6  -0.632  -0.299  -0.067
    1UNL     C6    7  -0.409  -0.235  -0.003
    1UNL     C7    8  -0.286  -0.191  -0.076
    1UNL     C8    9  -0.265  -0.043  -0.093
    1UNL     C9   10  -0.213   0.049  -0.004
    1UNL     N2   11  -0.195   0.173  -0.064
    1UNL    C10   12  -0.235   0.158  -0.192
    1UNL    C11   13  -0.205   0.238  -0.304
    1UNL    C12   14  -0.210   0.193  -0.431
    1UNL    C13   15  -0.259   0.060  -0.457
    1UNL    C14   16  -0.286  -0.024  -0.351
    1UNL    C15   17  -0.274   0.024  -0.217
    1UNL    C16   18  -0.199   0.032   0.145
    1UNL    C17   19  -0.097   0.138   0.199
    1UNL    C18   20  -0.119   0.254   0.268
    1UNL     O1   21  -0.252   0.296   0.299
    1UNL    C19   22  -0.281   0.425   0.264
    1UNL    C20   23  -0.012   0.340   0.313
    1UNL    C21   24   0.120   0.314   0.283
    1UNL    C22   25   0.146   0.194   0.206
    1UNL    C23   26   0.262   0.158   0.127
    1UNL    C24   27   0.222   0.051   0.046
    1UNL     N3   28   0.090   0.026   0.069
    1UNL    C25   29   0.037   0.113   0.168
    1UNL    C26   30   0.306  -0.024  -0.058
    1UNL    C27   31   0.211  -0.114  -0.141
    1UNL     O2   32   0.116  -0.052  -0.186
    1UNL     O3   33   0.231  -0.248  -0.153
    1UNL    C28   34   0.119  -0.304  -0.220
    1UNL    C29   35   0.417  -0.107   0.011
    1UNL    C30   36   0.558  -0.098  -0.053
    1UNL    C31   37   0.553  -0.127  -0.204
    1UNL    C32   38   0.464  -0.010  -0.265
    1UNL    C33   39   0.375  -0.055  -0.389
    1UNL    C34   40   0.273   0.041  -0.442
    1UNL    C35   41   0.386   0.068  -0.153
    1UNL     N4   42   0.497   0.138  -0.068
    1UNL    C36   43   0.462   0.253   0.012
    1UNL    C37   44   0.391   0.221   0.140
    1UNL    C38   45   0.610   0.044  -0.031
    1UNL    C39   46   0.667   0.057   0.115
    1UNL    C40   47   0.797  -0.013   0.136
    1UNL    C41   48   0.927   0.057   0.119
    1UNL     O4   49   0.790  -0.125   0.179
    1UNL    C42   50  -0.337   0.040   0.221
    1UNL    C43   51  -0.451  -0.037   0.160
    1UNL    C44   52  -0.415  -0.190   0.145
    1UNL    C45   53  -0.500  -0.273   0.241
    1UNL     O5   54  -0.618  -0.259   0.251
    1UNL     O6   55  -0.425  -0.371   0.308
    1UNL    C46   56  -0.518  -0.464   0.364
    1UNL     H1   57  -0.757   0.232  -0.020
    1UNL     H2   58  -0.640   0.211  -0.138
    1UNL     H3   59  -0.620   0.339  -0.030
    1UNL     H4   60  -0.554   0.201   0.160
    1UNL     H5   61  -0.570   0.012  -0.170
    1UNL     H6   62  -0.684  -0.052  -0.042
    1UNL     H7   63  -0.714  -0.265  -0.129
    1UNL     H8   64  -0.671  -0.306   0.037
    1UNL     H9   65  -0.608  -0.395  -0.100
    1UNL    H10   66  -0.408  -0.348  -0.003
    1UNL    H11   67  -0.275  -0.234  -0.172
    1UNL    H12   68  -0.198  -0.232  -0.027
    1UNL    H13   69  -0.136   0.245  -0.027
    1UNL    H14   70  -0.161   0.334  -0.289
    1UNL    H15   71  -0.173   0.257  -0.518
    1UNL    H16   72  -0.256   0.017  -0.548
    1UNL    H17   73  -0.327  -0.120  -0.375
    1UNL    H18   74  -0.166  -0.071   0.154
    1UNL    H19   75  -0.382   0.432   0.234
    1UNL    H20   76  -0.214   0.453   0.186
    1UNL    H21   77  -0.266   0.496   0.354
    1UNL    H22   78  -0.042   0.425   0.367
    1UNL    H23   79   0.192   0.391   0.295
    1UNL    H24   80   0.031  -0.013  -0.004
    1UNL    H25   81   0.045  -0.226  -0.214
    1UNL    H26   82   0.072  -0.385  -0.163
    1UNL    H27   83   0.141  -0.342  -0.321
    1UNL    H28   84   0.391  -0.215   0.021
    1UNL    H29   85   0.425  -0.071   0.120
    1UNL    H30   86   0.631  -0.159  -0.009
    1UNL    H31   87   0.503  -0.223  -0.220
    1UNL    H32   88   0.650  -0.127  -0.251
    1UNL    H33   89   0.533   0.060  -0.305
    1UNL    H34   90   0.454  -0.093  -0.465
    1UNL    H35   91   0.325  -0.149  -0.371
    1UNL    H36   92   0.203   0.070  -0.367
    1UNL    H37   93   0.325   0.137  -0.466
    1UNL    H38   94   0.221   0.014  -0.534
    1UNL    H39   95   0.322   0.148  -0.195
    1UNL    H40   96   0.391   0.313  -0.051
    1UNL    H41   97   0.550   0.314   0.029
    1UNL    H42   98   0.370   0.314   0.198
    1UNL    H43   99   0.453   0.154   0.206
    1UNL    H44  100   0.685   0.080  -0.112
    1UNL    H45  101   0.597   0.004   0.180
    1UNL    H46  102   0.678   0.160   0.143
    1UNL    H47  103   0.993  -0.001   0.180
    1UNL    H48  104   0.971   0.057   0.021
    1UNL    H49  105   0.931   0.159   0.158
    1UNL    H50  106  -0.320   0.005   0.324
    1UNL    H51  107  -0.353   0.148   0.228
    1UNL    H52  108  -0.531  -0.048   0.242
    1UNL    H53  109  -0.315  -0.207   0.177
    1UNL    H54  110  -0.608  -0.425   0.409
    1UNL    H55  111  -0.536  -0.544   0.295
    1UNL    H56  112  -0.446  -0.498   0.444
   0.00000   0.00000   0.00000   0.00000   0.00000   0.00000   0.00000   0.00000   0.00000
Generated with MDTraj, t= 29.0
 112
    1UNL     C1    1  -0.578   0.232  -0.101
    1UNL     C2    2  -0.533   0.169   0.033
    1UNL     C3    3  -0.511   0.039   0.042
    1UNL     C4    4  -0.563  -0.052  -0.075
    1UNL     N1    5  -0.516  -0.192  -0.073
    1UNL     C5    6  -0.619  -0.292  -0.099
    1UNL     C6    7  -0.390  -0.227   0.003
    1UNL     C7    8  -0.257  -0.194  -0.062
    1UNL     C8    9  -0.236  -0.049  -0.096
    1UNL     C9   10  -0.228   0.060  -0.005
    1UNL     N2   11  -0.215   0.178  -0.069
    1UNL    C10   12  -0.208   0.148  -0.204
    1UNL    C11   13  -0.198   0.237  -0.314
    1UNL    C12   14  -0.229   0.182  -0.438
    1UNL    C13   15  -0.254   0.045  -0.456
    1UNL    C14   16  -0.262  -0.043  -0.350
    1UNL    C15   17  -0.229   0.011  -0.226
    1UNL    C16   18  -0.209   0.054   0.149
    1UNL    C17   19  -0.104   0.137   0.203
    1UNL    C18   20  -0.122   0.253   0.284
    1UNL     O1   21  -0.247   0.267   0.334
    1UNL    C19   22  -0.269   0.389   0.398
    1UNL    C20   23  -0.016   0.342   0.317
    1UNL    C21   24   0.106   0.321   0.268
    1UNL    C22   25   0.129   0.217   0.176
    1UNL    C23   26   0.248   0.172   0.109
    1UNL    C24   27   0.216   0.065   0.027
    1UNL     N3   28   0.078   0.033   0.054
    1UNL    C25   29   0.026   0.126   0.150
    1UNL    C26   30   0.301  -0.027  -0.062
    1UNL    C27   31   0.205  -0.117  -0.142
    1UNL     O2   32   0.123  -0.065  -0.213
    1UNL     O3   33   0.215  -0.253  -0.116
    1UNL    C28   34   0.106  -0.319  -0.175
    1UNL    C29   35   0.405  -0.113   0.023
    1UNL    C30   36   0.543  -0.113  -0.051
    1UNL    C31   37   0.529  -0.130  -0.206
    1UNL    C32   38   0.453  -0.010  -0.266
    1UNL    C33   39   0.349  -0.036  -0.381
    1UNL    C34   40   0.274   0.086  -0.425
    1UNL    C35   41   0.381   0.067  -0.149
    1UNL     N4   42   0.501   0.133  -0.076
    1UNL    C36   43   0.465   0.250   0.001
    1UNL    C37   44   0.386   0.232   0.131
    1UNL    C38   45   0.595   0.031  -0.029
    1UNL    C39   46   0.649   0.046   0.115
    1UNL    C40   47   0.786  -0.014   0.126
    1UNL    C41   48   0.908   0.072   0.106
    1UNL     O4   49   0.806  -0.131   0.152
    1UNL    C42   50  -0.338   0.051   0.232
    1UNL    C43   51  -0.451  -0.025   0.164
    1UNL    C44   52  -0.408  -0.178   0.155
    1UNL    C45   53  -0.506  -0.280   0.230
    1UNL     O5   54  -0.627  -0.275   0.228
    1UNL     O6   55  -0.435  -0.370   0.304
    1UNL    C46   56  -0.524  -0.430   0.402
    1UNL     H1   57  -0.685   0.226  -0.129
    1UNL     H2   58  -0.527   0.187  -0.179
    1UNL     H3   59  -0.553   0.336  -0.104
    1UNL     H4   60  -0.544   0.241   0.117
    1UNL     H5   61  -0.528  -0.009  -0.180
    1UNL     H6   62  -0.673  -0.049  -0.078
    1UNL     H7   63  -0.680  -0.287  -0.188
    1UNL     H8   64  -0.684  -0.313  -0.011
    1UNL     H9   65  -0.569  -0.384  -0.110
    1UNL    H10   66  -0.398  -0.342   0.010
    1UNL    H11   67  -0.246  -0.252  -0.148
    1UNL    H12   68  -0.179  -0.236   0.005
    1UNL    H13   69  -0.203   0.268  -0.026
    1UNL    H14   70  -0.167   0.343  -0.292
    1UNL    H15   71  -0.235   0.242  -0.522
    1UNL    H16   72  -0.282   0.013  -0.561
    1UNL    H17   73  -0.290  -0.150  -0.356
    1UNL    H18   74  -0.165  -0.045   0.161
    1UNL    H19   75  -0.367   0.403   0.430
    1UNL    H20   76  -0.239   0.468   0.335
    1UNL    H21   77  -0.208   0.388   0.494
    1UNL    H22   78  -0.032   0.420   0.390
    1UNL    H23   79   0.193   0.383   0.288
    1UNL    H24   80   0.029  -0.029  -0.012
    1UNL    H25   81   0.055  -0.352  -0.091
    1UNL    H26   82   0.138  -0.405  -0.227
    1UNL    H27   83   0.047  -0.262  -0.246
    1UNL    H28   84   0.363  -0.213   0.056
    1UNL    H29   85   0.418  -0.060   0.124
    1UNL    H30   86   0.606  -0.185  -0.005
    1UNL    H31   87   0.469  -0.221  -0.221
    1UNL    H32   88   0.626  -0.140  -0.251
    1UNL    H33   89   0.527   0.053  -0.311
    1UNL    H34   90   0.401  -0.086  -0.469
    1UNL    H35   91   0.285  -0.116  -0.345
    1UNL    H36   92   0.207   0.113  -0.336
    1UNL    H37   93   0.343   0.168  -0.437
    1UNL    H38   94   0.218   0.078  -0.517
    1UNL    H39   95   0.330   0.149  -0.202
    1UNL    H40   96   0.401   0.310  -0.066
    1UNL    H41   97   0.554   0.308   0.027
    1UNL    H42   98   0.360   0.332   0.173
    1UNL    H43   99   0.436   0.166   0.205
    1UNL    H44  100   0.685   0.052  -0.098
    1UNL    H45  101   0.590  -0.009   0.186
    1UNL    H46  102   0.653   0.148   0.158
    1UNL    H47  103   0.938   0.088   0.206
    1UNL    H48  104   0.991   0.018   0.062
    1UNL    H49  105   0.899   0.170   0.057
    1UNL    H50  106  -0.317   0.007   0.332
    1UNL    H51  107  -0.372   0.154   0.239
    1UNL    H52  108  -0.537  -0.026   0.239
    1UNL    H53  109  -0.311  -0.183   0.196
    1UNL    H54  110  -0.540  -0.374   0.492
    1UNL    H55  111  -0.618  -0.448   0.356
    1UNL    H56  112  -0.469  -0.524   0.422
   0.00000   0.00000   0.00000   0.00000   0.00000   0.00000   0.00000   0.00000   0.00000
Generated with MDTraj, t= 30.0
 112
    1UNL     C1    1  -0.531   0.241  -0.142
    1UNL     C2    2  -0.489   0.163  -0.011
    1UNL     C3    3  -0.485   0.030   0.009
    1UNL     C4    4  -0.531  -0.073  -0.094
    1UNL     N1    5  -0.488  -0.214  -0.084
    1UNL     C5    6  -0.599  -0.319  -0.092
    1UNL     C6    7  -0.373  -0.238   0.007
    1UNL     C7    8  -0.245  -0.190  -0.051
    1UNL     C8    9  -0.228  -0.042  -0.079
    1UNL     C9   10  -0.212   0.063   0.007
    1UNL     N2   11  -0.224   0.181  -0.071
    1UNL    C10   12  -0.223   0.151  -0.209
    1UNL    C11   13  -0.229   0.224  -0.324
    1UNL    C12   14  -0.225   0.159  -0.445
    1UNL    C13   15  -0.235   0.020  -0.455
    1UNL    C14   16  -0.238  -0.052  -0.338
    1UNL    C15   17  -0.219   0.009  -0.212
    1UNL    C16   18  -0.200   0.052   0.156
    1UNL    C17   19  -0.106   0.164   0.202
    1UNL    C18   20  -0.127   0.260   0.297
    1UNL     O1   21  -0.245   0.267   0.362
    1UNL    C19   22  -0.235   0.307   0.498
    1UNL    C20   23  -0.020   0.346   0.334
    1UNL    C21   24   0.103   0.337   0.282
    1UNL    C22   25   0.127   0.228   0.191
    1UNL    C23   26   0.244   0.175   0.122
    1UNL    C24   27   0.198   0.069   0.044
    1UNL     N3   28   0.064   0.051   0.073
    1UNL    C25   29   0.017   0.149   0.150
    1UNL    C26   30   0.284  -0.018  -0.051
    1UNL    C27   31   0.182  -0.111  -0.121
    1UNL     O2   32   0.108  -0.061  -0.200
    1UNL     O3   33   0.183  -0.244  -0.080
    1UNL    C28   34   0.103  -0.318  -0.174
    1UNL    C29   35   0.389  -0.108   0.020
    1UNL    C30   36   0.528  -0.106  -0.050
    1UNL    C31   37   0.500  -0.136  -0.207
    1UNL    C32   38   0.430  -0.014  -0.274
    1UNL    C33   39   0.348  -0.053  -0.396
    1UNL    C34   40   0.286   0.067  -0.466
    1UNL    C35   41   0.367   0.068  -0.157
    1UNL     N4   42   0.483   0.126  -0.074
    1UNL    C36   43   0.449   0.249   0.006
    1UNL    C37   44   0.382   0.223   0.145
    1UNL    C38   45   0.585   0.033  -0.037
    1UNL    C39   46   0.664   0.065   0.092
    1UNL    C40   47   0.792  -0.010   0.102
    1UNL    C41   48   0.919   0.071   0.108
    1UNL     O4   49   0.787  -0.130   0.112
    1UNL    C42   50  -0.342   0.057   0.222
    1UNL    C43   51  -0.447  -0.026   0.147
    1UNL    C44   52  -0.400  -0.177   0.145
    1UNL    C45   53  -0.503  -0.257   0.222
    1UNL     O5   54  -0.622  -0.252   0.191
    1UNL     O6   55  -0.445  -0.325   0.328
    1UNL    C46   56  -0.546  -0.410   0.379
    1UNL     H1   57  -0.547   0.187  -0.232
    1UNL     H2   58  -0.451   0.310  -0.167
    1UNL     H3   59  -0.617   0.300  -0.121
    1UNL     H4   60  -0.489   0.229   0.072
    1UNL     H5   61  -0.492  -0.039  -0.192
    1UNL     H6   62  -0.643  -0.070  -0.101
    1UNL     H7   63  -0.669  -0.303  -0.174
    1UNL     H8   64  -0.658  -0.328  -0.001
    1UNL     H9   65  -0.575  -0.422  -0.113
    1UNL    H10   66  -0.371  -0.354   0.018
    1UNL    H11   67  -0.250  -0.238  -0.143
    1UNL    H12   68  -0.159  -0.230   0.008
    1UNL    H13   69  -0.248   0.276  -0.039
    1UNL    H14   70  -0.235   0.324  -0.309
    1UNL    H15   71  -0.235   0.229  -0.532
    1UNL    H16   72  -0.254  -0.033  -0.547
    1UNL    H17   73  -0.244  -0.157  -0.342
    1UNL    H18   74  -0.153  -0.044   0.182
    1UNL    H19   75  -0.308   0.274   0.562
    1UNL    H20   76  -0.227   0.411   0.509
    1UNL    H21   77  -0.142   0.256   0.541
    1UNL    H22   78  -0.052   0.425   0.401
    1UNL    H23   79   0.172   0.420   0.293
    1UNL    H24   80   0.010  -0.025   0.031
    1UNL    H25   81   0.130  -0.416  -0.165
    1UNL    H26   82   0.128  -0.284  -0.270
    1UNL    H27   83  -0.004  -0.305  -0.170
    1UNL    H28   84   0.357  -0.217   0.027
    1UNL    H29   85   0.398  -0.077   0.128
    1UNL    H30   86   0.589  -0.187  -0.010
    1UNL    H31   87   0.429  -0.220  -0.222
    1UNL    H32   88   0.594  -0.162  -0.255
    1UNL    H33   89   0.514   0.042  -0.315
    1UNL    H34   90   0.421  -0.108  -0.462
    1UNL    H35   91   0.271  -0.126  -0.369
    1UNL    H36   92   0.203   0.104  -0.391
    1UNL    H37   93   0.359   0.141  -0.475
    1UNL    H38   94   0.251   0.040  -0.563
    1UNL    H39   95   0.291   0.141  -0.198
    1UNL    H40   96   0.387   0.318  -0.051
    1UNL    H41   97   0.546   0.299   0.029
    1UNL    H42   98   0.377   0.318   0.204
    1UNL    H43   99   0.434   0.144   0.196
    1UNL    H44  100   0.665   0.033  -0.118
    1UNL    H45  101   0.616   0.045   0.184
    1UNL    H46  102   0.696   0.173   0.112
    1UNL    H47  103   0.907   0.142   0.187
    1UNL    H48  104   0.992   0.001   0.145
    1UNL    H49  105   0.954   0.116   0.015
    1UNL    H50  106  -0.335   0.020   0.327
    1UNL    H51  107  -0.380   0.157   0.222
    1UNL    H52  108  -0.538  -0.013   0.216
    1UNL    H53  109  -0.312  -0.188   0.201
    1UNL    H54  110  -0.563  -0.382   0.480
    1UNL    H55  111  -0.634  -0.406   0.318
    1UNL    H56  112  -0.489  -0.506   0.373
   0.00000   0.00000   0.00000   0.00000   0.00000   0.00000   0.00000   0.00000   0.00000
Generated with MDTraj, t= 31.0
 112
    1UNL     C1    1  -0.556   0.201  -0.190
    1UNL     C2    2  -0.517   0.159  -0.051
    1UNL     C3    3  -0.492   0.033  -0.013
    1UNL     C4    4  -0.525  -0.082  -0.113
    1UNL     N1    5  -0.458  -0.208  -0.083
    1UNL     C5    6  -0.552  -0.323  -0.099
    1UNL     C6    7  -0.361  -0.221   0.032
    1UNL     C7    8  -0.215  -0.189  -0.016
    1UNL     C8    9  -0.202  -0.046  -0.072
    1UNL     C9   10  -0.200   0.063   0.008
    1UNL     N2   11  -0.187   0.176  -0.073
    1UNL    C10   12  -0.193   0.143  -0.212
    1UNL    C11   13  -0.212   0.219  -0.327
    1UNL    C12   14  -0.220   0.154  -0.447
    1UNL    C13   15  -0.231   0.011  -0.445
    1UNL    C14   16  -0.225  -0.062  -0.328
    1UNL    C15   17  -0.204   0.005  -0.209
    1UNL    C16   18  -0.206   0.068   0.155
    1UNL    C17   19  -0.104   0.159   0.216
    1UNL    C18   20  -0.120   0.256   0.317
    1UNL     O1   21  -0.239   0.257   0.387
    1UNL    C19   22  -0.229   0.209   0.516
    1UNL    C20   23  -0.008   0.328   0.364
    1UNL    C21   24   0.118   0.317   0.314
    1UNL    C22   25   0.131   0.230   0.197
    1UNL    C23   26   0.240   0.192   0.117
    1UNL    C24   27   0.203   0.078   0.048
    1UNL     N3   28   0.069   0.060   0.064
    1UNL    C25   29   0.024   0.147   0.161
    1UNL    C26   30   0.283  -0.006  -0.048
    1UNL    C27   31   0.182  -0.098  -0.116
    1UNL     O2   32   0.092  -0.050  -0.179
    1UNL     O3   33   0.200  -0.237  -0.104
    1UNL    C28   34   0.082  -0.301  -0.153
    1UNL    C29   35   0.384  -0.091   0.029
    1UNL    C30   36   0.522  -0.101  -0.042
    1UNL    C31   37   0.493  -0.142  -0.191
    1UNL    C32   38   0.420  -0.023  -0.268
    1UNL    C33   39   0.321  -0.073  -0.374
    1UNL    C34   40   0.283   0.035  -0.482
    1UNL    C35   41   0.361   0.075  -0.159
    1UNL     N4   42   0.478   0.144  -0.082
    1UNL    C36   43   0.438   0.263  -0.006
    1UNL    C37   44   0.377   0.246   0.132
    1UNL    C38   45   0.580   0.042  -0.040
    1UNL    C39   46   0.669   0.079   0.085
    1UNL    C40   47   0.791  -0.009   0.075
    1UNL    C41   48   0.923   0.047   0.105
    1UNL     O4   49   0.775  -0.125   0.052
    1UNL    C42   50  -0.355   0.089   0.203
    1UNL    C43   51  -0.464   0.003   0.136
    1UNL    C44   52  -0.423  -0.149   0.159
    1UNL    C45   53  -0.523  -0.246   0.225
    1UNL     O5   54  -0.639  -0.249   0.185
    1UNL     O6   55  -0.472  -0.324   0.319
    1UNL    C46   56  -0.578  -0.396   0.388
    1UNL     H1   57  -0.483   0.242  -0.249
    1UNL     H2   58  -0.626   0.288  -0.179
    1UNL     H3   59  -0.602   0.124  -0.241
    1UNL     H4   60  -0.514   0.241   0.020
    1UNL     H5   61  -0.510  -0.055  -0.211
    1UNL     H6   62  -0.637  -0.104  -0.102
    1UNL     H7   63  -0.602  -0.312  -0.195
    1UNL     H8   64  -0.622  -0.327  -0.022
    1UNL     H9   65  -0.513  -0.426  -0.106
    1UNL    H10   66  -0.363  -0.334   0.060
    1UNL    H11   67  -0.194  -0.258  -0.094
    1UNL    H12   68  -0.150  -0.204   0.072
    1UNL    H13   69  -0.172   0.271  -0.033
    1UNL    H14   70  -0.226   0.332  -0.321
    1UNL    H15   71  -0.236   0.215  -0.534
    1UNL    H16   72  -0.223  -0.038  -0.537
    1UNL    H17   73  -0.228  -0.172  -0.331
    1UNL    H18   74  -0.171  -0.029   0.195
    1UNL    H19   75  -0.320   0.182   0.558
    1UNL    H20   76  -0.182   0.281   0.579
    1UNL    H21   77  -0.169   0.113   0.511
    1UNL    H22   78  -0.010   0.397   0.443
    1UNL    H23   79   0.201   0.373   0.348
    1UNL    H24   80   0.012   0.017  -0.009
    1UNL    H25   81   0.113  -0.357  -0.235
    1UNL    H26   82   0.008  -0.234  -0.188
    1UNL    H27   83   0.037  -0.373  -0.081
    1UNL    H28   84   0.343  -0.197   0.049
    1UNL    H29   85   0.412  -0.052   0.131
    1UNL    H30   86   0.584  -0.176   0.014
    1UNL    H31   87   0.428  -0.231  -0.199
    1UNL    H32   88   0.583  -0.162  -0.248
    1UNL    H33   89   0.498   0.043  -0.312
    1UNL    H34   90   0.363  -0.161  -0.424
    1UNL    H35   91   0.239  -0.118  -0.316
    1UNL    H36   92   0.268   0.136  -0.437
    1UNL    H37   93   0.351   0.046  -0.563
    1UNL    H38   94   0.195   0.009  -0.538
    1UNL    H39   95   0.287   0.155  -0.189
    1UNL    H40   96   0.375   0.316  -0.075
    1UNL    H41   97   0.531   0.326   0.004
    1UNL    H42   98   0.361   0.347   0.175
    1UNL    H43   99   0.430   0.185   0.203
    1UNL    H44  100   0.655   0.051  -0.121
    1UNL    H45  101   0.633   0.059   0.186
    1UNL    H46  102   0.693   0.189   0.100
    1UNL    H47  103   0.919   0.150   0.140
    1UNL    H48  104   0.957  -0.011   0.189
    1UNL    H49  105   0.992   0.030   0.026
    1UNL    H50  106  -0.374   0.083   0.313
    1UNL    H51  107  -0.369   0.193   0.182
    1UNL    H52  108  -0.563   0.027   0.187
    1UNL    H53  109  -0.346  -0.147   0.229
    1UNL    H54  110  -0.621  -0.315   0.445
    1UNL    H55  111  -0.651  -0.439   0.318
    1UNL    H56  112  -0.522  -0.464   0.459
   0.00000   0.00000   0.00000   0.00000   0.00000   0.00000   0.00000   0.00000   0.00000
Generated with MDTraj, t= 32.0
 112
    1UNL     C1    1  -0.587   0.182  -0.200
    1UNL     C2    2  -0.541   0.141  -0.062
    1UNL     C3    3  -0.502   0.018  -0.023
    1UNL     C4    4  -0.534  -0.100  -0.104
    1UNL     N1    5  -0.459  -0.223  -0.077
    1UNL     C5    6  -0.533  -0.345  -0.104
    1UNL     C6    7  -0.362  -0.223   0.036
    1UNL     C7    8  -0.219  -0.181  -0.012
    1UNL     C8    9  -0.209  -0.038  -0.070
    1UNL     C9   10  -0.197   0.076   0.011
    1UNL     N2   11  -0.184   0.185  -0.069
    1UNL    C10   12  -0.202   0.136  -0.201
    1UNL    C11   13  -0.174   0.199  -0.321
    1UNL    C12   14  -0.178   0.127  -0.440
    1UNL    C13   15  -0.205  -0.011  -0.444
    1UNL    C14   16  -0.230  -0.078  -0.326
    1UNL    C15   17  -0.219  -0.002  -0.205
    1UNL    C16   18  -0.210   0.079   0.160
    1UNL    C17   19  -0.104   0.164   0.225
    1UNL    C18   20  -0.111   0.235   0.347
    1UNL     O1   21  -0.235   0.236   0.422
    1UNL    C19   22  -0.249   0.143   0.526
    1UNL    C20   23  -0.004   0.313   0.393
    1UNL    C21   24   0.115   0.308   0.324
    1UNL    C22   25   0.132   0.230   0.210
    1UNL    C23   26   0.244   0.196   0.122
    1UNL    C24   27   0.197   0.096   0.035
    1UNL     N3   28   0.063   0.085   0.052
    1UNL    C25   29   0.023   0.154   0.164
    1UNL    C26   30   0.279   0.001  -0.050
    1UNL    C27   31   0.179  -0.099  -0.109
    1UNL     O2   32   0.084  -0.060  -0.172
    1UNL     O3   33   0.212  -0.228  -0.100
    1UNL    C28   34   0.116  -0.304  -0.156
    1UNL    C29   35   0.387  -0.083   0.029
    1UNL    C30   36   0.526  -0.099  -0.057
    1UNL    C31   37   0.492  -0.149  -0.199
    1UNL    C32   38   0.424  -0.026  -0.276
    1UNL    C33   39   0.319  -0.070  -0.379
    1UNL    C34   40   0.262   0.041  -0.473
    1UNL    C35   41   0.360   0.074  -0.160
    1UNL     N4   42   0.479   0.144  -0.095
    1UNL    C36   43   0.446   0.258  -0.010
    1UNL    C37   44   0.383   0.241   0.129
    1UNL    C38   45   0.585   0.045  -0.069
    1UNL    C39   46   0.671   0.079   0.057
    1UNL    C40   47   0.802   0.000   0.060
    1UNL    C41   48   0.923   0.053   0.124
    1UNL     O4   49   0.805  -0.116   0.029
    1UNL    C42   50  -0.365   0.110   0.199
    1UNL    C43   51  -0.463   0.008   0.128
    1UNL    C44   52  -0.415  -0.136   0.163
    1UNL    C45   53  -0.530  -0.207   0.224
    1UNL     O5   54  -0.645  -0.180   0.184
    1UNL     O6   55  -0.497  -0.293   0.327
    1UNL    C46   56  -0.618  -0.365   0.357
    1UNL     H1   57  -0.649   0.267  -0.197
    1UNL     H2   58  -0.667   0.112  -0.233
    1UNL     H3   59  -0.511   0.193  -0.267
    1UNL     H4   60  -0.538   0.223   0.011
    1UNL     H5   61  -0.529  -0.074  -0.202
    1UNL     H6   62  -0.644  -0.122  -0.079
    1UNL     H7   63  -0.584  -0.344  -0.199
    1UNL     H8   64  -0.596  -0.365  -0.022
    1UNL     H9   65  -0.465  -0.434  -0.110
    1UNL    H10   66  -0.356  -0.333   0.068
    1UNL    H11   67  -0.190  -0.247  -0.095
    1UNL    H12   68  -0.147  -0.187   0.071
    1UNL    H13   69  -0.158   0.279  -0.031
    1UNL    H14   70  -0.169   0.306  -0.313
    1UNL    H15   71  -0.137   0.169  -0.531
    1UNL    H16   72  -0.191  -0.063  -0.546
    1UNL    H17   73  -0.240  -0.184  -0.323
    1UNL    H18   74  -0.182  -0.020   0.200
    1UNL    H19   75  -0.328   0.162   0.593
    1UNL    H20   76  -0.156   0.147   0.584
    1UNL    H21   77  -0.269   0.043   0.479
    1UNL    H22   78  -0.039   0.375   0.480
    1UNL    H23   79   0.200   0.370   0.355
    1UNL    H24   80   0.011   0.008   0.010
    1UNL    H25   81   0.069  -0.251  -0.236
    1UNL    H26   82   0.037  -0.339  -0.091
    1UNL    H27   83   0.177  -0.392  -0.200
    1UNL    H28   84   0.348  -0.187   0.064
    1UNL    H29   85   0.419  -0.025   0.119
    1UNL    H30   86   0.608  -0.160  -0.006
    1UNL    H31   87   0.418  -0.230  -0.200
    1UNL    H32   88   0.578  -0.188  -0.253
    1UNL    H33   89   0.501   0.041  -0.325
    1UNL    H34   90   0.361  -0.152  -0.434
    1UNL    H35   91   0.232  -0.113  -0.327
    1UNL    H36   92   0.180   0.093  -0.430
    1UNL    H37   93   0.335   0.115  -0.507
    1UNL    H38   94   0.235  -0.010  -0.565
    1UNL    H39   95   0.295   0.140  -0.225
    1UNL    H40   96   0.382   0.309  -0.077
    1UNL    H41   97   0.543   0.319  -0.010
    1UNL    H42   98   0.383   0.335   0.185
    1UNL    H43   99   0.444   0.173   0.186
    1UNL    H44  100   0.653   0.064  -0.150
    1UNL    H45  101   0.612   0.044   0.146
    1UNL    H46  102   0.693   0.182   0.097
    1UNL    H47  103   0.929   0.160   0.105
    1UNL    H48  104   0.918   0.046   0.230
    1UNL    H49  105   1.010   0.003   0.091
    1UNL    H50  106  -0.377   0.118   0.310
    1UNL    H51  107  -0.394   0.210   0.174
    1UNL    H52  108  -0.568   0.021   0.169
    1UNL    H53  109  -0.344  -0.134   0.240
    1UNL    H54  110  -0.701  -0.320   0.303
    1UNL    H55  111  -0.598  -0.471   0.330
    1UNL    H56  112  -0.639  -0.342   0.466
   0.00000   0.00000   0.00000   0.00000   0.00000   0.00000   0.00000   0.00000   0.00000
Generated with MDTraj, t= 33.0
 112
    1UNL     C1    1  -0.576   0.183  -0.195
    1UNL     C2    2  -0.500   0.150  -0.068
    1UNL     C3    3  -0.518   0.034  -0.001
    1UNL     C4    4  -0.576  -0.088  -0.062
    1UNL     N1    5  -0.484  -0.211  -0.051
    1UNL     C5    6  -0.538  -0.346  -0.079
    1UNL     C6    7  -0.383  -0.211   0.054
    1UNL     C7    8  -0.236  -0.178   0.010
    1UNL     C8    9  -0.220  -0.044  -0.062
    1UNL     C9   10  -0.213   0.078   0.002
    1UNL     N2   11  -0.183   0.168  -0.091
    1UNL    C10   12  -0.178   0.121  -0.217
    1UNL    C11   13  -0.158   0.193  -0.337
    1UNL    C12   14  -0.162   0.115  -0.449
    1UNL    C13   15  -0.170  -0.029  -0.441
    1UNL    C14   16  -0.177  -0.094  -0.322
    1UNL    C15   17  -0.187  -0.020  -0.201
    1UNL    C16   18  -0.218   0.086   0.154
    1UNL    C17   19  -0.108   0.166   0.206
    1UNL    C18   20  -0.103   0.233   0.329
    1UNL     O1   21  -0.224   0.214   0.404
    1UNL    C19   22  -0.202   0.109   0.497
    1UNL    C20   23   0.010   0.301   0.377
    1UNL    C21   24   0.131   0.298   0.314
    1UNL    C22   25   0.144   0.214   0.200
    1UNL    C23   26   0.255   0.164   0.126
    1UNL    C24   27   0.208   0.077   0.033
    1UNL     N3   28   0.070   0.069   0.047
    1UNL    C25   29   0.024   0.152   0.144
    1UNL    C26   30   0.287  -0.013  -0.055
    1UNL    C27   31   0.192  -0.112  -0.121
    1UNL     O2   32   0.095  -0.079  -0.189
    1UNL     O3   33   0.214  -0.245  -0.099
    1UNL    C28   34   0.130  -0.324  -0.174
    1UNL    C29   35   0.402  -0.090   0.020
    1UNL    C30   36   0.534  -0.080  -0.061
    1UNL    C31   37   0.499  -0.122  -0.206
    1UNL    C32   38   0.420  -0.004  -0.273
    1UNL    C33   39   0.310  -0.048  -0.373
    1UNL    C34   40   0.233   0.067  -0.433
    1UNL    C35   41   0.357   0.080  -0.151
    1UNL     N4   42   0.471   0.158  -0.083
    1UNL    C36   43   0.438   0.272   0.006
    1UNL    C37   44   0.388   0.230   0.143
    1UNL    C38   45   0.583   0.062  -0.057
    1UNL    C39   46   0.672   0.094   0.067
    1UNL    C40   47   0.800   0.019   0.057
    1UNL    C41   48   0.916   0.068   0.135
    1UNL     O4   49   0.807  -0.087  -0.001
    1UNL    C42   50  -0.369   0.119   0.201
    1UNL    C43   51  -0.476   0.020   0.142
    1UNL    C44   52  -0.445  -0.127   0.174
    1UNL    C45   53  -0.564  -0.205   0.227
    1UNL     O5   54  -0.676  -0.178   0.184
    1UNL     O6   55  -0.538  -0.301   0.314
    1UNL    C46   56  -0.660  -0.346   0.361
    1UNL     H1   57  -0.646   0.103  -0.209
    1UNL     H2   58  -0.521   0.167  -0.286
    1UNL     H3   59  -0.623   0.277  -0.195
    1UNL     H4   60  -0.444   0.227  -0.025
    1UNL     H5   61  -0.599  -0.073  -0.166
    1UNL     H6   62  -0.675  -0.097  -0.010
    1UNL     H7   63  -0.609  -0.326  -0.157
    1UNL     H8   64  -0.588  -0.381   0.009
    1UNL     H9   65  -0.469  -0.426  -0.115
    1UNL    H10   66  -0.379  -0.316   0.094
    1UNL    H11   67  -0.204  -0.257  -0.067
    1UNL    H12   68  -0.171  -0.190   0.096
    1UNL    H13   69  -0.176   0.271  -0.071
    1UNL    H14   70  -0.155   0.298  -0.339
    1UNL    H15   71  -0.165   0.167  -0.548
    1UNL    H16   72  -0.165  -0.084  -0.526
    1UNL    H17   73  -0.190  -0.202  -0.323
    1UNL    H18   74  -0.192  -0.014   0.196
    1UNL    H19   75  -0.290   0.095   0.558
    1UNL    H20   76  -0.119   0.149   0.560
    1UNL    H21   77  -0.181   0.015   0.443
    1UNL    H22   78  -0.003   0.366   0.458
    1UNL    H23   79   0.212   0.346   0.360
    1UNL    H24   80   0.010   0.037  -0.031
    1UNL    H25   81   0.029  -0.307  -0.132
    1UNL    H26   82   0.148  -0.435  -0.170
    1UNL    H27   83   0.143  -0.286  -0.284
    1UNL    H28   84   0.373  -0.201   0.019
    1UNL    H29   85   0.418  -0.056   0.127
    1UNL    H30   86   0.614  -0.159  -0.034
    1UNL    H31   87   0.443  -0.215  -0.211
    1UNL    H32   88   0.588  -0.149  -0.267
    1UNL    H33   89   0.497   0.071  -0.317
    1UNL    H34   90   0.364  -0.105  -0.447
    1UNL    H35   91   0.236  -0.115  -0.329
    1UNL    H36   92   0.169   0.114  -0.370
    1UNL    H37   93   0.301   0.142  -0.480
    1UNL    H38   94   0.184   0.023  -0.519
    1UNL    H39   95   0.292   0.151  -0.210
    1UNL    H40   96   0.374   0.336  -0.047
    1UNL    H41   97   0.539   0.325   0.014
    1UNL    H42   98   0.375   0.322   0.197
    1UNL    H43   99   0.461   0.174   0.203
    1UNL    H44  100   0.651   0.077  -0.138
    1UNL    H45  101   0.634   0.073   0.175
    1UNL    H46  102   0.690   0.203   0.078
    1UNL    H47  103   0.962   0.152   0.086
    1UNL    H48  104   0.876   0.111   0.225
    1UNL    H49  105   0.983  -0.008   0.165
    1UNL    H50  106  -0.385   0.121   0.312
    1UNL    H51  107  -0.381   0.221   0.169
    1UNL    H52  108  -0.573   0.034   0.196
    1UNL    H53  109  -0.378  -0.125   0.256
    1UNL    H54  110  -0.724  -0.387   0.281
    1UNL    H55  111  -0.627  -0.418   0.439
    1UNL    H56  112  -0.717  -0.257   0.396
   0.00000   0.00000   0.00000   0.00000   0.00000   0.00000   0.00000   0.00000   0.00000
Generated with MDTraj, t= 34.0
 112
    1UNL     C1    1  -0.512   0.192  -0.207
    1UNL     C2    2  -0.496   0.165  -0.059
    1UNL     C3    3  -0.519   0.047   0.000
    1UNL     C4    4  -0.573  -0.063  -0.082
    1UNL     N1    5  -0.515  -0.194  -0.065
    1UNL     C5    6  -0.604  -0.313  -0.082
    1UNL     C6    7  -0.413  -0.217   0.048
    1UNL     C7    8  -0.266  -0.198   0.007
    1UNL     C8    9  -0.237  -0.065  -0.063
    1UNL     C9   10  -0.229   0.053   0.004
    1UNL     N2   11  -0.202   0.152  -0.084
    1UNL    C10   12  -0.189   0.101  -0.211
    1UNL    C11   13  -0.137   0.155  -0.330
    1UNL    C12   14  -0.116   0.073  -0.439
    1UNL    C13   15  -0.141  -0.065  -0.433
    1UNL    C14   16  -0.198  -0.118  -0.320
    1UNL    C15   17  -0.213  -0.039  -0.202
    1UNL    C16   18  -0.220   0.063   0.159
    1UNL    C17   19  -0.105   0.149   0.211
    1UNL    C18   20  -0.113   0.219   0.330
    1UNL     O1   21  -0.221   0.207   0.408
    1UNL    C19   22  -0.215   0.113   0.520
    1UNL    C20   23  -0.006   0.305   0.364
    1UNL    C21   24   0.116   0.315   0.294
    1UNL    C22   25   0.133   0.209   0.203
    1UNL    C23   26   0.248   0.163   0.135
    1UNL    C24   27   0.214   0.059   0.055
    1UNL     N3   28   0.086   0.037   0.073
    1UNL    C25   29   0.027   0.122   0.164
    1UNL    C26   30   0.297  -0.013  -0.065
    1UNL    C27   31   0.204  -0.109  -0.139
    1UNL     O2   32   0.099  -0.072  -0.189
    1UNL     O3   33   0.230  -0.239  -0.130
    1UNL    C28   34   0.122  -0.327  -0.159
    1UNL    C29   35   0.412  -0.098  -0.005
    1UNL    C30   36   0.545  -0.075  -0.086
    1UNL    C31   37   0.510  -0.089  -0.237
    1UNL    C32   38   0.418   0.027  -0.285
    1UNL    C33   39   0.327  -0.023  -0.405
    1UNL    C34   40   0.212   0.069  -0.420
    1UNL    C35   41   0.362   0.100  -0.158
    1UNL     N4   42   0.480   0.163  -0.077
    1UNL    C36   43   0.445   0.272   0.016
    1UNL    C37   44   0.382   0.221   0.150
    1UNL    C38   45   0.592   0.069  -0.061
    1UNL    C39   46   0.679   0.089   0.065
    1UNL    C40   47   0.820   0.029   0.057
    1UNL    C41   48   0.914   0.088   0.160
    1UNL     O4   49   0.847  -0.059  -0.021
    1UNL    C42   50  -0.365   0.113   0.204
    1UNL    C43   51  -0.478   0.022   0.142
    1UNL    C44   52  -0.446  -0.129   0.175
    1UNL    C45   53  -0.568  -0.188   0.239
    1UNL     O5   54  -0.679  -0.147   0.208
    1UNL     O6   55  -0.544  -0.287   0.329
    1UNL    C46   56  -0.671  -0.341   0.364
    1UNL     H1   57  -0.415   0.171  -0.246
    1UNL     H2   58  -0.523   0.289  -0.239
    1UNL     H3   59  -0.589   0.134  -0.258
    1UNL     H4   60  -0.451   0.248  -0.001
    1UNL     H5   61  -0.570  -0.026  -0.191
    1UNL     H6   62  -0.680  -0.073  -0.065
    1UNL     H7   63  -0.648  -0.317  -0.182
    1UNL     H8   64  -0.675  -0.307   0.003
    1UNL     H9   65  -0.542  -0.399  -0.065
    1UNL    H10   66  -0.421  -0.322   0.084
    1UNL    H11   67  -0.236  -0.288  -0.062
    1UNL    H12   68  -0.203  -0.215   0.093
    1UNL    H13   69  -0.169   0.246  -0.052
    1UNL    H14   70  -0.101   0.265  -0.334
    1UNL    H15   71  -0.099   0.122  -0.528
    1UNL    H16   72  -0.112  -0.128  -0.523
    1UNL    H17   73  -0.225  -0.221  -0.313
    1UNL    H18   74  -0.199  -0.036   0.204
    1UNL    H19   75  -0.321   0.093   0.549
    1UNL    H20   76  -0.163   0.173   0.601
    1UNL    H21   77  -0.167   0.022   0.490
    1UNL    H22   78  -0.017   0.369   0.454
    1UNL    H23   79   0.195   0.388   0.319
    1UNL    H24   80   0.036  -0.015  -0.000
    1UNL    H25   81   0.078  -0.344  -0.059
    1UNL    H26   82   0.145  -0.430  -0.201
    1UNL    H27   83   0.054  -0.265  -0.228
    1UNL    H28   84   0.385  -0.207  -0.008
    1UNL    H29   85   0.432  -0.073   0.104
    1UNL    H30   86   0.630  -0.149  -0.057
    1UNL    H31   87   0.462  -0.185  -0.256
    1UNL    H32   88   0.600  -0.097  -0.302
    1UNL    H33   89   0.500   0.105  -0.318
    1UNL    H34   90   0.384  -0.028  -0.496
    1UNL    H35   91   0.305  -0.126  -0.375
    1UNL    H36   92   0.144   0.074  -0.340
    1UNL    H37   93   0.242   0.171  -0.447
    1UNL    H38   94   0.159   0.043  -0.510
    1UNL    H39   95   0.288   0.179  -0.192
    1UNL    H40   96   0.384   0.337  -0.041
    1UNL    H41   97   0.544   0.323   0.041
    1UNL    H42   98   0.394   0.292   0.228
    1UNL    H43   99   0.449   0.142   0.183
    1UNL    H44  100   0.663   0.095  -0.135
    1UNL    H45  101   0.627   0.046   0.159
    1UNL    H46  102   0.688   0.194   0.098
    1UNL    H47  103   1.000   0.122   0.107
    1UNL    H48  104   0.876   0.178   0.203
    1UNL    H49  105   0.940   0.018   0.238
    1UNL    H50  106  -0.363   0.110   0.316
    1UNL    H51  107  -0.390   0.213   0.165
    1UNL    H52  108  -0.570   0.047   0.198
    1UNL    H53  109  -0.367  -0.130   0.249
    1UNL    H54  110  -0.664  -0.443   0.324
    1UNL    H55  111  -0.697  -0.330   0.471
    1UNL    H56  112  -0.749  -0.302   0.297
   0.00000   0.00000   0.00000   0.00000   0.00000   0.00000   0.00000   0.00000   0.00000
Generated with MDTraj, t= 35.0
 112
    1UNL     C1    1  -0.484   0.232  -0.196
    1UNL     C2    2  -0.448   0.168  -0.064
    1UNL     C3    3  -0.495   0.049  -0.023
    1UNL     C4    4  -0.572  -0.044  -0.113
    1UNL     N1    5  -0.542  -0.188  -0.086
    1UNL     C5    6  -0.664  -0.272  -0.062
    1UNL     C6    7  -0.450  -0.219   0.028
    1UNL     C7    8  -0.301  -0.222  -0.001
    1UNL     C8    9  -0.233  -0.100  -0.053
    1UNL     C9   10  -0.194   0.011   0.020
    1UNL     N2   11  -0.135   0.104  -0.061
    1UNL    C10   12  -0.144   0.057  -0.192
    1UNL    C11   13  -0.115   0.122  -0.310
    1UNL    C12   14  -0.136   0.049  -0.427
    1UNL    C13   15  -0.181  -0.084  -0.430
    1UNL    C14   16  -0.217  -0.149  -0.311
    1UNL    C15   17  -0.193  -0.077  -0.188
    1UNL    C16   18  -0.213   0.033   0.167
    1UNL    C17   19  -0.098   0.124   0.224
    1UNL    C18   20  -0.113   0.213   0.334
    1UNL     O1   21  -0.237   0.230   0.389
    1UNL    C19   22  -0.240   0.179   0.527
    1UNL    C20   23  -0.002   0.290   0.372
    1UNL    C21   24   0.127   0.277   0.320
    1UNL    C22   25   0.142   0.190   0.212
    1UNL    C23   26   0.260   0.150   0.141
    1UNL    C24   27   0.220   0.056   0.046
    1UNL     N3   28   0.088   0.032   0.070
    1UNL    C25   29   0.033   0.113   0.165
    1UNL    C26   30   0.299  -0.010  -0.064
    1UNL    C27   31   0.214  -0.105  -0.137
    1UNL     O2   32   0.115  -0.055  -0.188
    1UNL     O3   33   0.235  -0.239  -0.135
    1UNL    C28   34   0.132  -0.304  -0.206
    1UNL    C29   35   0.418  -0.090  -0.002
    1UNL    C30   36   0.549  -0.062  -0.087
    1UNL    C31   37   0.522  -0.086  -0.237
    1UNL    C32   38   0.429   0.031  -0.289
    1UNL    C33   39   0.316  -0.008  -0.385
    1UNL    C34   40   0.227   0.112  -0.434
    1UNL    C35   41   0.360   0.098  -0.163
    1UNL     N4   42   0.471   0.175  -0.088
    1UNL    C36   43   0.426   0.272   0.008
    1UNL    C37   44   0.389   0.219   0.142
    1UNL    C38   45   0.595   0.088  -0.073
    1UNL    C39   46   0.671   0.105   0.062
    1UNL    C40   47   0.810   0.050   0.060
    1UNL    C41   48   0.916   0.085   0.163
    1UNL     O4   49   0.848  -0.012  -0.034
    1UNL    C42   50  -0.359   0.082   0.205
    1UNL    C43   51  -0.479   0.021   0.127
    1UNL    C44   52  -0.479  -0.133   0.156
    1UNL    C45   53  -0.589  -0.184   0.242
    1UNL     O5   54  -0.700  -0.139   0.231
    1UNL     O6   55  -0.560  -0.296   0.315
    1UNL    C46   56  -0.676  -0.322   0.395
    1UNL     H1   57  -0.408   0.301  -0.214
    1UNL     H2   58  -0.572   0.287  -0.201
    1UNL     H3   59  -0.493   0.156  -0.277
    1UNL     H4   60  -0.392   0.231   0.000
    1UNL     H5   61  -0.565  -0.035  -0.232
    1UNL     H6   62  -0.677  -0.021  -0.105
    1UNL     H7   63  -0.735  -0.240  -0.139
    1UNL     H8   64  -0.696  -0.244   0.043
    1UNL     H9   65  -0.640  -0.374  -0.067
    1UNL    H10   66  -0.472  -0.321   0.054
    1UNL    H11   67  -0.284  -0.305  -0.082
    1UNL    H12   68  -0.242  -0.265   0.081
    1UNL    H13   69  -0.108   0.197  -0.030
    1UNL    H14   70  -0.087   0.220  -0.306
    1UNL    H15   71  -0.114   0.097  -0.530
    1UNL    H16   72  -0.202  -0.126  -0.525
    1UNL    H17   73  -0.246  -0.252  -0.321
    1UNL    H18   74  -0.184  -0.069   0.203
    1UNL    H19   75  -0.336   0.220   0.574
    1UNL    H20   76  -0.151   0.229   0.578
    1UNL    H21   77  -0.240   0.073   0.523
    1UNL    H22   78  -0.015   0.365   0.449
    1UNL    H23   79   0.200   0.338   0.373
    1UNL    H24   80   0.037  -0.031   0.007
    1UNL    H25   81   0.043  -0.269  -0.152
    1UNL    H26   82   0.135  -0.416  -0.203
    1UNL    H27   83   0.134  -0.259  -0.308
    1UNL    H28   84   0.407  -0.200   0.004
    1UNL    H29   85   0.431  -0.057   0.105
    1UNL    H30   86   0.636  -0.130  -0.047
    1UNL    H31   87   0.472  -0.179  -0.264
    1UNL    H32   88   0.618  -0.085  -0.293
    1UNL    H33   89   0.503   0.114  -0.332
    1UNL    H34   90   0.362  -0.062  -0.466
    1UNL    H35   91   0.241  -0.071  -0.338
    1UNL    H36   92   0.167   0.165  -0.354
    1UNL    H37   93   0.289   0.183  -0.480
    1UNL    H38   94   0.165   0.078  -0.513
    1UNL    H39   95   0.277   0.171  -0.193
    1UNL    H40   96   0.345   0.325  -0.034
    1UNL    H41   97   0.514   0.341   0.022
    1UNL    H42   98   0.382   0.299   0.212
    1UNL    H43   99   0.463   0.159   0.189
    1UNL    H44  100   0.663   0.123  -0.147
    1UNL    H45  101   0.619   0.056   0.148
    1UNL    H46  102   0.679   0.210   0.099
    1UNL    H47  103   1.003   0.045   0.117
    1UNL    H48  104   0.936   0.189   0.174
    1UNL    H49  105   0.901   0.041   0.261
    1UNL    H50  106  -0.376   0.060   0.313
    1UNL    H51  107  -0.348   0.191   0.190
    1UNL    H52  108  -0.566   0.061   0.180
    1UNL    H53  109  -0.393  -0.148   0.222
    1UNL    H54  110  -0.638  -0.401   0.459
    1UNL    H55  111  -0.724  -0.235   0.443
    1UNL    H56  112  -0.751  -0.370   0.333
   0.00000   0.00000   0.00000   0.00000   0.00000   0.00000   0.00000   0.00000   0.00000
Generated with MDTraj, t= 36.0
 112
    1UNL     C1    1  -0.437   0.218  -0.198
    1UNL     C2    2  -0.427   0.173  -0.051
    1UNL     C3    3  -0.470   0.055  -0.006
    1UNL     C4    4  -0.520  -0.037  -0.114
    1UNL     N1    5  -0.546  -0.172  -0.067
    1UNL     C5    6  -0.693  -0.220  -0.065
    1UNL     C6    7  -0.461  -0.222   0.041
    1UNL     C7    8  -0.321  -0.241  -0.008
    1UNL     C8    9  -0.251  -0.117  -0.055
    1UNL     C9   10  -0.190  -0.021   0.025
    1UNL     N2   11  -0.139   0.075  -0.066
    1UNL    C10   12  -0.160   0.032  -0.198
    1UNL    C11   13  -0.116   0.091  -0.315
    1UNL    C12   14  -0.137   0.021  -0.430
    1UNL    C13   15  -0.213  -0.098  -0.429
    1UNL    C14   16  -0.260  -0.149  -0.310
    1UNL    C15   17  -0.236  -0.082  -0.194
    1UNL    C16   18  -0.201  -0.002   0.175
    1UNL    C17   19  -0.096   0.095   0.231
    1UNL    C18   20  -0.117   0.190   0.331
    1UNL     O1   21  -0.247   0.216   0.380
    1UNL    C19   22  -0.260   0.251   0.519
    1UNL    C20   23  -0.015   0.272   0.382
    1UNL    C21   24   0.111   0.255   0.334
    1UNL    C22   25   0.136   0.163   0.234
    1UNL    C23   26   0.250   0.145   0.146
    1UNL    C24   27   0.221   0.055   0.048
    1UNL     N3   28   0.096   0.000   0.080
    1UNL    C25   29   0.038   0.081   0.186
    1UNL    C26   30   0.301  -0.008  -0.060
    1UNL    C27   31   0.212  -0.102  -0.139
    1UNL     O2   32   0.132  -0.053  -0.216
    1UNL     O3   33   0.234  -0.232  -0.127
    1UNL    C28   34   0.167  -0.303  -0.226
    1UNL    C29   35   0.425  -0.079   0.001
    1UNL    C30   36   0.550  -0.047  -0.090
    1UNL    C31   37   0.525  -0.065  -0.248
    1UNL    C32   38   0.431   0.048  -0.292
    1UNL    C33   39   0.338   0.010  -0.401
    1UNL    C34   40   0.269   0.126  -0.475
    1UNL    C35   41   0.356   0.099  -0.157
    1UNL     N4   42   0.461   0.183  -0.083
    1UNL    C36   43   0.416   0.284   0.019
    1UNL    C37   44   0.376   0.229   0.161
    1UNL    C38   45   0.585   0.099  -0.065
    1UNL    C39   46   0.670   0.118   0.064
    1UNL    C40   47   0.809   0.057   0.046
    1UNL    C41   48   0.911   0.080   0.157
    1UNL     O4   49   0.851   0.015  -0.059
    1UNL    C42   50  -0.338   0.065   0.216
    1UNL    C43   51  -0.461   0.019   0.142
    1UNL    C44   52  -0.466  -0.134   0.169
    1UNL    C45   53  -0.593  -0.174   0.240
    1UNL     O5   54  -0.695  -0.115   0.219
    1UNL     O6   55  -0.572  -0.280   0.325
    1UNL    C46   56  -0.701  -0.300   0.393
    1UNL     H1   57  -0.468   0.317  -0.198
    1UNL     H2   58  -0.497   0.167  -0.271
    1UNL     H3   59  -0.342   0.217  -0.252
    1UNL     H4   60  -0.385   0.245   0.018
    1UNL     H5   61  -0.444  -0.032  -0.200
    1UNL     H6   62  -0.607  -0.002  -0.171
    1UNL     H7   63  -0.731  -0.210  -0.167
    1UNL     H8   64  -0.738  -0.150   0.012
    1UNL     H9   65  -0.693  -0.320  -0.028
    1UNL    H10   66  -0.496  -0.319   0.065
    1UNL    H11   67  -0.313  -0.316  -0.094
    1UNL    H12   68  -0.261  -0.296   0.070
    1UNL    H13   69  -0.079   0.151  -0.038
    1UNL    H14   70  -0.069   0.188  -0.318
    1UNL    H15   71  -0.103   0.067  -0.516
    1UNL    H16   72  -0.218  -0.161  -0.517
    1UNL    H17   73  -0.311  -0.244  -0.314
    1UNL    H18   74  -0.174  -0.106   0.212
    1UNL    H19   75  -0.368   0.285   0.538
    1UNL    H20   76  -0.197   0.341   0.547
    1UNL    H21   77  -0.241   0.163   0.573
    1UNL    H22   78  -0.047   0.356   0.438
    1UNL    H23   79   0.195   0.311   0.372
    1UNL    H24   80   0.045  -0.052   0.007
    1UNL    H25   81   0.077  -0.247  -0.248
    1UNL    H26   82   0.142  -0.403  -0.190
    1UNL    H27   83   0.227  -0.302  -0.314
    1UNL    H28   84   0.410  -0.189  -0.004
    1UNL    H29   85   0.446  -0.048   0.107
    1UNL    H30   86   0.635  -0.125  -0.066
    1UNL    H31   87   0.485  -0.161  -0.281
    1UNL    H32   88   0.616  -0.048  -0.308
    1UNL    H33   89   0.484   0.148  -0.329
    1UNL    H34   90   0.393  -0.038  -0.482
    1UNL    H35   91   0.266  -0.058  -0.359
    1UNL    H36   92   0.169   0.156  -0.425
    1UNL    H37   93   0.324   0.214  -0.482
    1UNL    H38   94   0.252   0.103  -0.577
    1UNL    H39   95   0.275   0.171  -0.194
    1UNL    H40   96   0.332   0.340  -0.017
    1UNL    H41   97   0.498   0.357   0.038
    1UNL    H42   98   0.354   0.304   0.232
    1UNL    H43   99   0.447   0.169   0.211
    1UNL    H44  100   0.649   0.133  -0.146
    1UNL    H45  101   0.624   0.086   0.156
    1UNL    H46  102   0.687   0.228   0.080
    1UNL    H47  103   0.978  -0.002   0.154
    1UNL    H48  104   0.973   0.166   0.149
    1UNL    H49  105   0.865   0.088   0.254
    1UNL    H50  106  -0.351   0.041   0.324
    1UNL    H51  107  -0.324   0.177   0.210
    1UNL    H52  108  -0.545   0.063   0.195
    1UNL    H53  109  -0.383  -0.171   0.236
    1UNL    H54  110  -0.679  -0.344   0.489
    1UNL    H55  111  -0.765  -0.210   0.403
    1UNL    H56  112  -0.767  -0.364   0.336
   0.00000   0.00000   0.00000   0.00000   0.00000   0.00000   0.00000   0.00000   0.00000
Generated with MDTraj, t= 37.0
 112
    1UNL     C1    1  -0.409   0.233  -0.180
    1UNL     C2    2  -0.430   0.180  -0.039
    1UNL     C3    3  -0.484   0.060  -0.010
    1UNL     C4    4  -0.528  -0.044  -0.115
    1UNL     N1    5  -0.563  -0.176  -0.071
    1UNL     C5    6  -0.708  -0.226  -0.068
    1UNL     C6    7  -0.480  -0.226   0.040
    1UNL     C7    8  -0.333  -0.253  -0.001
    1UNL     C8    9  -0.248  -0.128  -0.046
    1UNL     C9   10  -0.198  -0.020   0.023
    1UNL     N2   11  -0.142   0.074  -0.059
    1UNL    C10   12  -0.140   0.020  -0.187
    1UNL    C11   13  -0.121   0.073  -0.316
    1UNL    C12   14  -0.165   0.014  -0.428
    1UNL    C13   15  -0.227  -0.109  -0.414
    1UNL    C14   16  -0.238  -0.176  -0.295
    1UNL    C15   17  -0.205  -0.105  -0.179
    1UNL    C16   18  -0.208   0.004   0.171
    1UNL    C17   19  -0.095   0.095   0.222
    1UNL    C18   20  -0.113   0.175   0.329
    1UNL     O1   21  -0.228   0.176   0.412
    1UNL    C19   22  -0.258   0.290   0.491
    1UNL    C20   23   0.000   0.249   0.380
    1UNL    C21   24   0.121   0.240   0.324
    1UNL    C22   25   0.139   0.158   0.216
    1UNL    C23   26   0.254   0.135   0.135
    1UNL    C24   27   0.224   0.047   0.035
    1UNL     N3   28   0.092   0.007   0.059
    1UNL    C25   29   0.034   0.078   0.170
    1UNL    C26   30   0.313  -0.007  -0.072
    1UNL    C27   31   0.230  -0.109  -0.149
    1UNL     O2   32   0.135  -0.066  -0.206
    1UNL     O3   33   0.260  -0.244  -0.151
    1UNL    C28   34   0.151  -0.313  -0.205
    1UNL    C29   35   0.435  -0.080  -0.021
    1UNL    C30   36   0.568  -0.035  -0.095
    1UNL    C31   37   0.544  -0.041  -0.245
    1UNL    C32   38   0.437   0.064  -0.287
    1UNL    C33   39   0.351   0.031  -0.414
    1UNL    C34   40   0.280   0.155  -0.472
    1UNL    C35   41   0.370   0.113  -0.156
    1UNL     N4   42   0.472   0.181  -0.065
    1UNL    C36   43   0.431   0.278   0.039
    1UNL    C37   44   0.382   0.208   0.165
    1UNL    C38   45   0.598   0.112  -0.063
    1UNL    C39   46   0.688   0.138   0.059
    1UNL    C40   47   0.819   0.075   0.040
    1UNL    C41   48   0.902   0.077   0.160
    1UNL     O4   49   0.856   0.043  -0.072
    1UNL    C42   50  -0.351   0.064   0.212
    1UNL    C43   51  -0.477   0.017   0.134
    1UNL    C44   52  -0.493  -0.134   0.163
    1UNL    C45   53  -0.623  -0.169   0.244
    1UNL     O5   54  -0.722  -0.109   0.216
    1UNL     O6   55  -0.611  -0.264   0.341
    1UNL    C46   56  -0.737  -0.281   0.402
    1UNL     H1   57  -0.493   0.295  -0.197
    1UNL     H2   58  -0.398   0.164  -0.264
    1UNL     H3   59  -0.326   0.295  -0.189
    1UNL     H4   60  -0.411   0.249   0.044
    1UNL     H5   61  -0.456  -0.058  -0.190
    1UNL     H6   62  -0.609   0.004  -0.171
    1UNL     H7   63  -0.743  -0.228  -0.173
    1UNL     H8   64  -0.761  -0.167   0.004
    1UNL     H9   65  -0.700  -0.329  -0.030
    1UNL    H10   66  -0.518  -0.319   0.067
    1UNL    H11   67  -0.329  -0.337  -0.074
    1UNL    H12   68  -0.276  -0.303   0.085
    1UNL    H13   69  -0.099   0.160  -0.027
    1UNL    H14   70  -0.078   0.178  -0.307
    1UNL    H15   71  -0.140   0.049  -0.530
    1UNL    H16   72  -0.256  -0.161  -0.508
    1UNL    H17   73  -0.273  -0.277  -0.289
    1UNL    H18   74  -0.208  -0.099   0.216
    1UNL    H19   75  -0.360   0.280   0.541
    1UNL    H20   76  -0.261   0.385   0.433
    1UNL    H21   77  -0.189   0.295   0.571
    1UNL    H22   78  -0.005   0.307   0.475
    1UNL    H23   79   0.202   0.295   0.372
    1UNL    H24   80   0.039  -0.042  -0.015
    1UNL    H25   81   0.060  -0.287  -0.153
    1UNL    H26   82   0.174  -0.416  -0.196
    1UNL    H27   83   0.139  -0.280  -0.303
    1UNL    H28   84   0.426  -0.190  -0.029
    1UNL    H29   85   0.453  -0.064   0.087
    1UNL    H30   86   0.657  -0.103  -0.060
    1UNL    H31   87   0.499  -0.137  -0.273
    1UNL    H32   88   0.637  -0.031  -0.301
    1UNL    H33   89   0.503   0.152  -0.334
    1UNL    H34   90   0.423  -0.011  -0.483
    1UNL    H35   91   0.280  -0.046  -0.396
    1UNL    H36   92   0.266   0.231  -0.391
    1UNL    H37   93   0.322   0.208  -0.553
    1UNL    H38   94   0.186   0.133  -0.519
    1UNL    H39   95   0.287   0.189  -0.177
    1UNL    H40   96   0.345   0.337   0.011
    1UNL    H41   97   0.511   0.346   0.071
    1UNL    H42   98   0.359   0.275   0.242
    1UNL    H43   99   0.457   0.146   0.211
    1UNL    H44  100   0.660   0.152  -0.147
    1UNL    H45  101   0.636   0.096   0.142
    1UNL    H46  102   0.711   0.246   0.081
    1UNL    H47  103   0.904  -0.021   0.203
    1UNL    H48  104   1.005   0.106   0.144
    1UNL    H49  105   0.863   0.149   0.228
    1UNL    H50  106  -0.362   0.062   0.322
    1UNL    H51  107  -0.354   0.175   0.188
    1UNL    H52  108  -0.562   0.064   0.182
    1UNL    H53  109  -0.416  -0.179   0.232
    1UNL    H54  110  -0.726  -0.381   0.445
    1UNL    H55  111  -0.755  -0.213   0.489
    1UNL    H56  112  -0.823  -0.261   0.338
   0.00000   0.00000   0.00000   0.00000   0.00000   0.00000   0.00000   0.00000   0.00000
Generated with MDTraj, t= 38.0
 112
    1UNL     C1    1  -0.470   0.239  -0.193
    1UNL     C2    2  -0.445   0.186  -0.050
    1UNL     C3    3  -0.471   0.059  -0.007
    1UNL     C4    4  -0.545  -0.030  -0.109
    1UNL     N1    5  -0.548  -0.178  -0.077
    1UNL     C5    6  -0.685  -0.242  -0.073
    1UNL     C6    7  -0.469  -0.226   0.040
    1UNL     C7    8  -0.322  -0.253   0.017
    1UNL     C8    9  -0.248  -0.135  -0.039
    1UNL     C9   10  -0.203  -0.017   0.025
    1UNL     N2   11  -0.182   0.076  -0.066
    1UNL    C10   12  -0.189   0.021  -0.189
    1UNL    C11   13  -0.136   0.067  -0.312
    1UNL    C12   14  -0.148  -0.016  -0.416
    1UNL    C13   15  -0.206  -0.147  -0.409
    1UNL    C14   16  -0.251  -0.196  -0.290
    1UNL    C15   17  -0.236  -0.114  -0.178
    1UNL    C16   18  -0.201   0.002   0.170
    1UNL    C17   19  -0.082   0.082   0.229
    1UNL    C18   20  -0.097   0.160   0.352
    1UNL     O1   21  -0.215   0.155   0.423
    1UNL    C19   22  -0.272   0.277   0.457
    1UNL    C20   23   0.015   0.234   0.400
    1UNL    C21   24   0.139   0.224   0.344
    1UNL    C22   25   0.149   0.150   0.221
    1UNL    C23   26   0.265   0.138   0.138
    1UNL    C24   27   0.232   0.047   0.043
    1UNL     N3   28   0.097   0.012   0.063
    1UNL    C25   29   0.043   0.079   0.169
    1UNL    C26   30   0.319   0.004  -0.068
    1UNL    C27   31   0.228  -0.091  -0.150
    1UNL     O2   32   0.126  -0.057  -0.202
    1UNL     O3   33   0.271  -0.222  -0.143
    1UNL    C28   34   0.178  -0.303  -0.211
    1UNL    C29   35   0.442  -0.077  -0.012
    1UNL    C30   36   0.567  -0.040  -0.099
    1UNL    C31   37   0.535  -0.051  -0.251
    1UNL    C32   38   0.432   0.070  -0.292
    1UNL    C33   39   0.325   0.041  -0.408
    1UNL    C34   40   0.254   0.169  -0.462
    1UNL    C35   41   0.367   0.121  -0.161
    1UNL     N4   42   0.477   0.187  -0.077
    1UNL    C36   43   0.446   0.274   0.032
    1UNL    C37   44   0.394   0.206   0.152
    1UNL    C38   45   0.604   0.110  -0.065
    1UNL    C39   46   0.696   0.128   0.060
    1UNL    C40   47   0.843   0.082   0.037
    1UNL    C41   48   0.921   0.067   0.163
    1UNL     O4   49   0.889   0.066  -0.074
    1UNL    C42   50  -0.338   0.065   0.211
    1UNL    C43   51  -0.465   0.014   0.137
    1UNL    C44   52  -0.492  -0.136   0.165
    1UNL    C45   53  -0.640  -0.157   0.227
    1UNL     O5   54  -0.735  -0.086   0.197
    1UNL     O6   55  -0.639  -0.250   0.328
    1UNL    C46   56  -0.762  -0.251   0.388
    1UNL     H1   57  -0.561   0.190  -0.223
    1UNL     H2   58  -0.389   0.227  -0.265
    1UNL     H3   59  -0.494   0.336  -0.179
    1UNL     H4   60  -0.403   0.254   0.017
    1UNL     H5   61  -0.510  -0.023  -0.203
    1UNL     H6   62  -0.645   0.018  -0.122
    1UNL     H7   63  -0.722  -0.217  -0.174
    1UNL     H8   64  -0.740  -0.201   0.008
    1UNL     H9   65  -0.683  -0.355  -0.067
    1UNL    H10   66  -0.509  -0.321   0.061
    1UNL    H11   67  -0.303  -0.342  -0.042
    1UNL    H12   68  -0.278  -0.288   0.119
    1UNL    H13   69  -0.130   0.159  -0.044
    1UNL    H14   70  -0.084   0.154  -0.314
    1UNL    H15   71  -0.091   0.016  -0.509
    1UNL    H16   72  -0.218  -0.196  -0.500
    1UNL    H17   73  -0.294  -0.295  -0.279
    1UNL    H18   74  -0.203  -0.104   0.206
    1UNL    H19   75  -0.382   0.284   0.441
    1UNL    H20   76  -0.224   0.362   0.408
    1UNL    H21   77  -0.245   0.290   0.559
    1UNL    H22   78   0.011   0.294   0.486
    1UNL    H23   79   0.220   0.284   0.378
    1UNL    H24   80   0.046  -0.040  -0.009
    1UNL    H25   81   0.111  -0.352  -0.140
    1UNL    H26   82   0.239  -0.375  -0.264
    1UNL    H27   83   0.113  -0.251  -0.271
    1UNL    H28   84   0.430  -0.186  -0.004
    1UNL    H29   85   0.462  -0.050   0.092
    1UNL    H30   86   0.651  -0.113  -0.062
    1UNL    H31   87   0.477  -0.144  -0.266
    1UNL    H32   88   0.624  -0.061  -0.313
    1UNL    H33   89   0.506   0.150  -0.336
    1UNL    H34   90   0.365  -0.010  -0.494
    1UNL    H35   91   0.256  -0.031  -0.366
    1UNL    H36   92   0.173   0.178  -0.392
    1UNL    H37   93   0.313   0.261  -0.456
    1UNL    H38   94   0.227   0.154  -0.566
    1UNL    H39   95   0.281   0.196  -0.166
    1UNL    H40   96   0.371   0.351   0.010
    1UNL    H41   97   0.528   0.335   0.069
    1UNL    H42   98   0.393   0.276   0.228
    1UNL    H43   99   0.469   0.133   0.189
    1UNL    H44  100   0.669   0.149  -0.148
    1UNL    H45  101   0.666   0.063   0.140
    1UNL    H46  102   0.690   0.230   0.100
    1UNL    H47  103   0.858   0.011   0.229
    1UNL    H48  104   1.014   0.013   0.153
    1UNL    H49  105   0.943   0.160   0.209
    1UNL    H50  106  -0.356   0.061   0.320
    1UNL    H51  107  -0.326   0.178   0.196
    1UNL    H52  108  -0.546   0.061   0.188
    1UNL    H53  109  -0.422  -0.178   0.244
    1UNL    H54  110  -0.753  -0.322   0.472
    1UNL    H55  111  -0.784  -0.152   0.439
    1UNL    H56  112  -0.848  -0.270   0.324
   0.00000   0.00000   0.00000   0.00000   0.00000   0.00000   0.00000   0.00000   0.00000
Generated with MDTraj, t= 39.0
 112
    1UNL     C1    1  -0.509   0.227  -0.186
    1UNL     C2    2  -0.494   0.195  -0.039
    1UNL     C3    3  -0.490   0.063  -0.005
    1UNL     C4    4  -0.545  -0.043  -0.095
    1UNL     N1    5  -0.542  -0.183  -0.046
    1UNL     C5    6  -0.659  -0.271  -0.076
    1UNL     C6    7  -0.453  -0.217   0.071
    1UNL     C7    8  -0.303  -0.242   0.032
    1UNL     C8    9  -0.228  -0.131  -0.039
    1UNL     C9   10  -0.182  -0.019   0.023
    1UNL     N2   11  -0.138   0.062  -0.076
    1UNL    C10   12  -0.148  -0.000  -0.198
    1UNL    C11   13  -0.116   0.043  -0.325
    1UNL    C12   14  -0.153  -0.028  -0.436
    1UNL    C13   15  -0.214  -0.154  -0.418
    1UNL    C14   16  -0.235  -0.203  -0.293
    1UNL    C15   17  -0.204  -0.122  -0.181
    1UNL    C16   18  -0.197   0.015   0.171
    1UNL    C17   19  -0.085   0.088   0.236
    1UNL    C18   20  -0.101   0.144   0.365
    1UNL     O1   21  -0.222   0.152   0.442
    1UNL    C19   22  -0.271   0.281   0.457
    1UNL    C20   23   0.016   0.193   0.431
    1UNL    C21   24   0.131   0.214   0.362
    1UNL    C22   25   0.149   0.163   0.232
    1UNL    C23   26   0.259   0.144   0.144
    1UNL    C24   27   0.223   0.053   0.044
    1UNL     N3   28   0.091   0.016   0.068
    1UNL    C25   29   0.042   0.090   0.177
    1UNL    C26   30   0.318   0.001  -0.064
    1UNL    C27   31   0.225  -0.090  -0.154
    1UNL     O2   32   0.128  -0.049  -0.210
    1UNL     O3   33   0.274  -0.215  -0.173
    1UNL    C28   34   0.178  -0.283  -0.249
    1UNL    C29   35   0.446  -0.084  -0.015
    1UNL    C30   36   0.570  -0.040  -0.097
    1UNL    C31   37   0.543  -0.047  -0.255
    1UNL    C32   38   0.431   0.063  -0.282
    1UNL    C33   39   0.321   0.042  -0.393
    1UNL    C34   40   0.220   0.152  -0.432
    1UNL    C35   41   0.369   0.111  -0.155
    1UNL     N4   42   0.472   0.188  -0.077
    1UNL    C36   43   0.437   0.278   0.033
    1UNL    C37   44   0.390   0.209   0.162
    1UNL    C38   45   0.601   0.111  -0.064
    1UNL    C39   46   0.683   0.112   0.060
    1UNL    C40   47   0.835   0.088   0.032
    1UNL    C41   48   0.930   0.047   0.136
    1UNL     O4   49   0.872   0.080  -0.081
    1UNL    C42   50  -0.326   0.094   0.190
    1UNL    C43   51  -0.458   0.028   0.140
    1UNL    C44   52  -0.485  -0.117   0.186
    1UNL    C45   53  -0.630  -0.138   0.224
    1UNL     O5   54  -0.720  -0.081   0.162
    1UNL     O6   55  -0.659  -0.216   0.334
    1UNL    C46   56  -0.797  -0.241   0.341
    1UNL     H1   57  -0.567   0.152  -0.240
    1UNL     H2   58  -0.419   0.250  -0.240
    1UNL     H3   59  -0.577   0.306  -0.189
    1UNL     H4   60  -0.474   0.276   0.035
    1UNL     H5   61  -0.505  -0.027  -0.188
    1UNL     H6   62  -0.652  -0.025  -0.111
    1UNL     H7   63  -0.691  -0.264  -0.181
    1UNL     H8   64  -0.733  -0.256  -0.000
    1UNL     H9   65  -0.627  -0.380  -0.066
    1UNL    H10   66  -0.484  -0.314   0.102
    1UNL    H11   67  -0.305  -0.316  -0.045
    1UNL    H12   68  -0.239  -0.289   0.117
    1UNL    H13   69  -0.093   0.148  -0.055
    1UNL    H14   70  -0.043   0.130  -0.334
    1UNL    H15   71  -0.152   0.017  -0.525
    1UNL    H16   72  -0.253  -0.210  -0.508
    1UNL    H17   73  -0.301  -0.286  -0.287
    1UNL    H18   74  -0.186  -0.088   0.215
    1UNL    H19   75  -0.370   0.283   0.503
    1UNL    H20   76  -0.274   0.335   0.367
    1UNL    H21   77  -0.201   0.336   0.521
    1UNL    H22   78  -0.001   0.230   0.534
    1UNL    H23   79   0.214   0.266   0.411
    1UNL    H24   80   0.038  -0.024  -0.011
    1UNL    H25   81   0.077  -0.272  -0.198
    1UNL    H26   82   0.211  -0.389  -0.258
    1UNL    H27   83   0.151  -0.246  -0.344
    1UNL    H28   84   0.428  -0.188  -0.042
    1UNL    H29   85   0.459  -0.087   0.092
    1UNL    H30   86   0.661  -0.110  -0.076
    1UNL    H31   87   0.527  -0.148  -0.301
    1UNL    H32   88   0.635  -0.014  -0.302
    1UNL    H33   89   0.496   0.152  -0.324
    1UNL    H34   90   0.377   0.011  -0.479
    1UNL    H35   91   0.264  -0.049  -0.374
    1UNL    H36   92   0.162   0.163  -0.350
    1UNL    H37   93   0.272   0.249  -0.451
    1UNL    H38   94   0.165   0.125  -0.522
    1UNL    H39   95   0.284   0.183  -0.174
    1UNL    H40   96   0.351   0.341   0.003
    1UNL    H41   97   0.507   0.360   0.051
    1UNL    H42   98   0.387   0.274   0.245
    1UNL    H43   99   0.470   0.140   0.199
    1UNL    H44  100   0.669   0.144  -0.149
    1UNL    H45  101   0.649   0.039   0.133
    1UNL    H46  102   0.676   0.206   0.108
    1UNL    H47  103   0.884   0.059   0.233
    1UNL    H48  104   0.952  -0.058   0.121
    1UNL    H49  105   1.021   0.101   0.132
    1UNL    H50  106  -0.343   0.114   0.298
    1UNL    H51  107  -0.306   0.200   0.152
    1UNL    H52  108  -0.523   0.085   0.203
    1UNL    H53  109  -0.417  -0.142   0.273
    1UNL    H54  110  -0.814  -0.277   0.445
    1UNL    H55  111  -0.858  -0.146   0.344
    1UNL    H56  112  -0.841  -0.309   0.270
   0.00000   0.00000   0.00000   0.00000   0.00000   0.00000   0.00000   0.00000   0.00000
Generated with MDTraj, t= 40.0
 112
    1UNL     C1    1  -0.547   0.221  -0.202
    1UNL     C2    2  -0.512   0.175  -0.064
    1UNL     C3    3  -0.476   0.052  -0.023
    1UNL     C4    4  -0.505  -0.067  -0.119
    1UNL     N1    5  -0.508  -0.207  -0.064
    1UNL     C5    6  -0.636  -0.285  -0.084
    1UNL     C6    7  -0.450  -0.219   0.072
    1UNL     C7    8  -0.298  -0.240   0.062
    1UNL     C8    9  -0.230  -0.125  -0.017
    1UNL     C9   10  -0.189  -0.006   0.036
    1UNL     N2   11  -0.165   0.087  -0.065
    1UNL    C10   12  -0.178   0.022  -0.191
    1UNL    C11   13  -0.141   0.056  -0.323
    1UNL    C12   14  -0.158  -0.043  -0.415
    1UNL    C13   15  -0.209  -0.170  -0.380
    1UNL    C14   16  -0.240  -0.208  -0.249
    1UNL    C15   17  -0.215  -0.111  -0.156
    1UNL    C16   18  -0.204   0.023   0.177
    1UNL    C17   19  -0.080   0.090   0.238
    1UNL    C18   20  -0.087   0.158   0.356
    1UNL     O1   21  -0.212   0.151   0.419
    1UNL    C19   22  -0.244   0.265   0.497
    1UNL    C20   23   0.019   0.229   0.418
    1UNL    C21   24   0.142   0.219   0.365
    1UNL    C22   25   0.165   0.140   0.243
    1UNL    C23   26   0.276   0.106   0.165
    1UNL    C24   27   0.233   0.038   0.055
    1UNL     N3   28   0.095   0.013   0.067
    1UNL    C25   29   0.051   0.073   0.185
    1UNL    C26   30   0.313  -0.001  -0.071
    1UNL    C27   31   0.223  -0.083  -0.158
    1UNL     O2   32   0.117  -0.047  -0.199
    1UNL     O3   33   0.262  -0.211  -0.189
    1UNL    C28   34   0.165  -0.273  -0.269
    1UNL    C29   35   0.438  -0.083  -0.026
    1UNL    C30   36   0.564  -0.031  -0.099
    1UNL    C31   37   0.539  -0.030  -0.253
    1UNL    C32   38   0.435   0.078  -0.288
    1UNL    C33   39   0.339   0.040  -0.406
    1UNL    C34   40   0.225   0.140  -0.425
    1UNL    C35   41   0.365   0.125  -0.152
    1UNL     N4   42   0.468   0.192  -0.063
    1UNL    C36   43   0.433   0.268   0.057
    1UNL    C37   44   0.405   0.178   0.181
    1UNL    C38   45   0.601   0.116  -0.060
    1UNL    C39   46   0.696   0.134   0.051
    1UNL    C40   47   0.834   0.084   0.017
    1UNL    C41   48   0.906   0.027   0.136
    1UNL     O4   49   0.870   0.079  -0.098
    1UNL    C42   50  -0.336   0.100   0.185
    1UNL    C43   51  -0.462   0.034   0.123
    1UNL    C44   52  -0.492  -0.109   0.175
    1UNL    C45   53  -0.638  -0.130   0.206
    1UNL     O5   54  -0.722  -0.085   0.127
    1UNL     O6   55  -0.654  -0.207   0.317
    1UNL    C46   56  -0.793  -0.219   0.341
    1UNL     H1   57  -0.653   0.223  -0.223
    1UNL     H2   58  -0.508   0.177  -0.288
    1UNL     H3   59  -0.536   0.330  -0.210
    1UNL     H4   60  -0.528   0.251   0.008
    1UNL     H5   61  -0.439  -0.069  -0.203
    1UNL     H6   62  -0.598  -0.047  -0.167
    1UNL     H7   63  -0.667  -0.295  -0.189
    1UNL     H8   64  -0.713  -0.238  -0.020
    1UNL     H9   65  -0.638  -0.390  -0.049
    1UNL    H10   66  -0.495  -0.314   0.104
    1UNL    H11   67  -0.276  -0.331   0.008
    1UNL    H12   68  -0.258  -0.251   0.167
    1UNL    H13   69  -0.154   0.184  -0.047
    1UNL    H14   70  -0.087   0.144  -0.343
    1UNL    H15   71  -0.123  -0.032  -0.525
    1UNL    H16   72  -0.237  -0.234  -0.455
    1UNL    H17   73  -0.277  -0.307  -0.224
    1UNL    H18   74  -0.205  -0.074   0.232
    1UNL    H19   75  -0.347   0.261   0.524
    1UNL    H20   76  -0.232   0.353   0.443
    1UNL    H21   77  -0.184   0.277   0.592
    1UNL    H22   78  -0.002   0.276   0.510
    1UNL    H23   79   0.225   0.272   0.405
    1UNL    H24   80   0.024  -0.003  -0.007
    1UNL    H25   81   0.061  -0.222  -0.277
    1UNL    H26   82   0.158  -0.379  -0.231
    1UNL    H27   83   0.194  -0.290  -0.372
    1UNL    H28   84   0.425  -0.187  -0.045
    1UNL    H29   85   0.459  -0.073   0.078
    1UNL    H30   86   0.652  -0.101  -0.068
    1UNL    H31   87   0.500  -0.130  -0.283
    1UNL    H32   88   0.633  -0.018  -0.305
    1UNL    H33   89   0.488   0.172  -0.333
    1UNL    H34   90   0.397   0.022  -0.494
    1UNL    H35   91   0.303  -0.063  -0.392
    1UNL    H36   92   0.187   0.169  -0.328
    1UNL    H37   93   0.264   0.234  -0.467
    1UNL    H38   94   0.143   0.112  -0.490
    1UNL    H39   95   0.289   0.202  -0.182
    1UNL    H40   96   0.351   0.342   0.044
    1UNL    H41   97   0.508   0.344   0.074
    1UNL    H42   98   0.399   0.228   0.278
    1UNL    H43   99   0.487   0.109   0.208
    1UNL    H44  100   0.661   0.173  -0.143
    1UNL    H45  101   0.658   0.072   0.133
    1UNL    H46  102   0.700   0.235   0.079
    1UNL    H47  103   0.893   0.098   0.217
    1UNL    H48  104   0.870  -0.071   0.161
    1UNL    H49  105   1.010   0.019   0.117
    1UNL    H50  106  -0.352   0.124   0.294
    1UNL    H51  107  -0.324   0.203   0.138
    1UNL    H52  108  -0.540   0.094   0.168
    1UNL    H53  109  -0.441  -0.131   0.276
    1UNL    H54  110  -0.810  -0.282   0.430
    1UNL    H55  111  -0.835  -0.124   0.382
    1UNL    H56  112  -0.853  -0.256   0.262
   0.00000   0.00000   0.00000   0.00000   0.00000   0.00000   0.00000   0.00000   0.00000
Generated with MDTraj, t= 41.0
 112
    1UNL     C1    1  -0.526   0.207  -0.223
    1UNL     C2    2  -0.502   0.176  -0.076
    1UNL     C3    3  -0.488   0.051  -0.029
    1UNL     C4    4  -0.509  -0.066  -0.121
    1UNL     N1    5  -0.494  -0.199  -0.067
    1UNL     C5    6  -0.616  -0.277  -0.092
    1UNL     C6    7  -0.435  -0.217   0.073
    1UNL     C7    8  -0.291  -0.252   0.059
    1UNL     C8    9  -0.215  -0.144  -0.014
    1UNL     C9   10  -0.193  -0.017   0.034
    1UNL     N2   11  -0.172   0.072  -0.067
    1UNL    C10   12  -0.160  -0.001  -0.185
    1UNL    C11   13  -0.175   0.044  -0.317
    1UNL    C12   14  -0.193  -0.043  -0.423
    1UNL    C13   15  -0.200  -0.177  -0.398
    1UNL    C14   16  -0.190  -0.226  -0.270
    1UNL    C15   17  -0.182  -0.138  -0.158
    1UNL    C16   18  -0.210   0.028   0.174
    1UNL    C17   19  -0.098   0.111   0.233
    1UNL    C18   20  -0.108   0.184   0.356
    1UNL     O1   21  -0.229   0.216   0.411
    1UNL    C19   22  -0.214   0.246   0.550
    1UNL    C20   23   0.014   0.223   0.419
    1UNL    C21   24   0.137   0.202   0.368
    1UNL    C22   25   0.149   0.143   0.239
    1UNL    C23   26   0.267   0.117   0.166
    1UNL    C24   27   0.222   0.044   0.058
    1UNL     N3   28   0.087   0.028   0.066
    1UNL    C25   29   0.033   0.093   0.178
    1UNL    C26   30   0.310   0.007  -0.064
    1UNL    C27   31   0.227  -0.085  -0.156
    1UNL     O2   32   0.121  -0.045  -0.199
    1UNL     O3   33   0.257  -0.216  -0.178
    1UNL    C28   34   0.160  -0.267  -0.265
    1UNL    C29   35   0.435  -0.072  -0.025
    1UNL    C30   36   0.560  -0.032  -0.112
    1UNL    C31   37   0.521  -0.021  -0.267
    1UNL    C32   38   0.416   0.097  -0.288
    1UNL    C33   39   0.327   0.059  -0.404
    1UNL    C34   40   0.218   0.160  -0.427
    1UNL    C35   41   0.355   0.135  -0.144
    1UNL     N4   42   0.469   0.190  -0.056
    1UNL    C36   43   0.442   0.257   0.069
    1UNL    C37   44   0.398   0.175   0.192
    1UNL    C38   45   0.605   0.110  -0.065
    1UNL    C39   46   0.704   0.114   0.048
    1UNL    C40   47   0.841   0.062   0.014
    1UNL    C41   48   0.917   0.004   0.129
    1UNL     O4   49   0.891   0.072  -0.098
    1UNL    C42   50  -0.345   0.106   0.185
    1UNL    C43   51  -0.468   0.039   0.120
    1UNL    C44   52  -0.480  -0.105   0.177
    1UNL    C45   53  -0.632  -0.136   0.218
    1UNL     O5   54  -0.714  -0.099   0.135
    1UNL     O6   55  -0.659  -0.215   0.322
    1UNL    C46   56  -0.798  -0.204   0.343
    1UNL     H1   57  -0.607   0.276  -0.236
    1UNL     H2   58  -0.546   0.126  -0.283
    1UNL     H3   59  -0.442   0.273  -0.257
    1UNL     H4   60  -0.481   0.262  -0.010
    1UNL     H5   61  -0.432  -0.066  -0.203
    1UNL     H6   62  -0.596  -0.056  -0.174
    1UNL     H7   63  -0.655  -0.265  -0.194
    1UNL     H8   64  -0.694  -0.246  -0.015
    1UNL     H9   65  -0.609  -0.383  -0.080
    1UNL    H10   66  -0.492  -0.308   0.109
    1UNL    H11   67  -0.289  -0.349   0.009
    1UNL    H12   68  -0.254  -0.264   0.158
    1UNL    H13   69  -0.170   0.172  -0.063
    1UNL    H14   70  -0.186   0.149  -0.329
    1UNL    H15   71  -0.190   0.002  -0.520
    1UNL    H16   72  -0.205  -0.248  -0.486
    1UNL    H17   73  -0.185  -0.332  -0.255
    1UNL    H18   74  -0.226  -0.053   0.249
    1UNL    H19   75  -0.312   0.251   0.591
    1UNL    H20   76  -0.170   0.339   0.562
    1UNL    H21   77  -0.146   0.175   0.609
    1UNL    H22   78  -0.004   0.292   0.500
    1UNL    H23   79   0.222   0.240   0.424
    1UNL    H24   80   0.039  -0.003  -0.020
    1UNL    H25   81   0.049  -0.238  -0.238
    1UNL    H26   82   0.172  -0.379  -0.275
    1UNL    H27   83   0.179  -0.235  -0.368
    1UNL    H28   84   0.414  -0.175  -0.026
    1UNL    H29   85   0.468  -0.042   0.071
    1UNL    H30   86   0.646  -0.109  -0.097
    1UNL    H31   87   0.470  -0.119  -0.283
    1UNL    H32   88   0.601  -0.023  -0.339
    1UNL    H33   89   0.472   0.194  -0.320
    1UNL    H34   90   0.379   0.039  -0.494
    1UNL    H35   91   0.279  -0.037  -0.382
    1UNL    H36   92   0.155   0.167  -0.328
    1UNL    H37   93   0.262   0.255  -0.436
    1UNL    H38   94   0.159   0.139  -0.514
    1UNL    H39   95   0.272   0.211  -0.151
    1UNL    H40   96   0.358   0.326   0.047
    1UNL    H41   97   0.510   0.337   0.097
    1UNL    H42   98   0.389   0.247   0.279
    1UNL    H43   99   0.474   0.112   0.235
    1UNL    H44  100   0.661   0.166  -0.149
    1UNL    H45  101   0.659   0.048   0.120
    1UNL    H46  102   0.710   0.212   0.087
    1UNL    H47  103   0.965   0.085   0.180
    1UNL    H48  104   0.858  -0.059   0.192
    1UNL    H49  105   0.999  -0.058   0.093
    1UNL    H50  106  -0.357   0.134   0.294
    1UNL    H51  107  -0.331   0.205   0.135
    1UNL    H52  108  -0.557   0.086   0.166
    1UNL    H53  109  -0.430  -0.126   0.277
    1UNL    H54  110  -0.825  -0.254   0.436
    1UNL    H55  111  -0.830  -0.101   0.369
    1UNL    H56  112  -0.857  -0.244   0.267
   0.00000   0.00000   0.00000   0.00000   0.00000   0.00000   0.00000   0.00000   0.00000
Generated with MDTraj, t= 42.0
 112
    1UNL     C1    1  -0.471   0.210  -0.223
    1UNL     C2    2  -0.476   0.167  -0.077
    1UNL     C3    3  -0.476   0.042  -0.029
    1UNL     C4    4  -0.515  -0.069  -0.120
    1UNL     N1    5  -0.497  -0.206  -0.069
    1UNL     C5    6  -0.616  -0.286  -0.086
    1UNL     C6    7  -0.431  -0.219   0.068
    1UNL     C7    8  -0.282  -0.229   0.061
    1UNL     C8    9  -0.228  -0.121  -0.024
    1UNL     C9   10  -0.193   0.002   0.022
    1UNL     N2   11  -0.164   0.080  -0.086
    1UNL    C10   12  -0.159   0.000  -0.198
    1UNL    C11   13  -0.136   0.028  -0.332
    1UNL    C12   14  -0.158  -0.070  -0.423
    1UNL    C13   15  -0.203  -0.199  -0.389
    1UNL    C14   16  -0.225  -0.228  -0.258
    1UNL    C15   17  -0.215  -0.125  -0.163
    1UNL    C16   18  -0.206   0.042   0.166
    1UNL    C17   19  -0.092   0.119   0.221
    1UNL    C18   20  -0.104   0.186   0.347
    1UNL     O1   21  -0.230   0.198   0.398
    1UNL    C19   22  -0.248   0.196   0.542
    1UNL    C20   23   0.004   0.248   0.411
    1UNL    C21   24   0.131   0.242   0.359
    1UNL    C22   25   0.159   0.168   0.238
    1UNL    C23   26   0.267   0.134   0.158
    1UNL    C24   27   0.228   0.048   0.056
    1UNL     N3   28   0.095   0.025   0.075
    1UNL    C25   29   0.044   0.099   0.181
    1UNL    C26   30   0.306   0.012  -0.064
    1UNL    C27   31   0.215  -0.077  -0.154
    1UNL     O2   32   0.114  -0.027  -0.206
    1UNL     O3   33   0.254  -0.207  -0.178
    1UNL    C28   34   0.151  -0.275  -0.239
    1UNL    C29   35   0.427  -0.079  -0.022
    1UNL    C30   36   0.545  -0.041  -0.114
    1UNL    C31   37   0.507  -0.033  -0.267
    1UNL    C32   38   0.415   0.093  -0.281
    1UNL    C33   39   0.304   0.084  -0.377
    1UNL    C34   40   0.218   0.214  -0.380
    1UNL    C35   41   0.362   0.134  -0.143
    1UNL     N4   42   0.472   0.191  -0.062
    1UNL    C36   43   0.449   0.262   0.061
    1UNL    C37   44   0.408   0.183   0.183
    1UNL    C38   45   0.595   0.101  -0.069
    1UNL    C39   46   0.677   0.090   0.055
    1UNL    C40   47   0.814   0.044   0.021
    1UNL    C41   48   0.915  -0.024   0.110
    1UNL     O4   49   0.850   0.067  -0.091
    1UNL    C42   50  -0.350   0.103   0.194
    1UNL    C43   51  -0.469   0.031   0.120
    1UNL    C44   52  -0.477  -0.108   0.173
    1UNL    C45   53  -0.618  -0.140   0.215
    1UNL     O5   54  -0.709  -0.115   0.136
    1UNL     O6   55  -0.636  -0.194   0.339
    1UNL    C46   56  -0.770  -0.227   0.349
    1UNL     H1   57  -0.478   0.315  -0.221
    1UNL     H2   58  -0.547   0.169  -0.284
    1UNL     H3   59  -0.365   0.202  -0.259
    1UNL     H4   60  -0.453   0.242  -0.004
    1UNL     H5   61  -0.470  -0.053  -0.225
    1UNL     H6   62  -0.613  -0.058  -0.142
    1UNL     H7   63  -0.646  -0.306  -0.190
    1UNL     H8   64  -0.705  -0.245  -0.027
    1UNL     H9   65  -0.599  -0.383  -0.043
    1UNL    H10   66  -0.458  -0.325   0.105
    1UNL    H11   67  -0.256  -0.329   0.020
    1UNL    H12   68  -0.243  -0.229   0.155
    1UNL    H13   69  -0.122   0.173  -0.087
    1UNL    H14   70  -0.118   0.134  -0.364
    1UNL    H15   71  -0.149  -0.043  -0.525
    1UNL    H16   72  -0.196  -0.277  -0.459
    1UNL    H17   73  -0.254  -0.326  -0.220
    1UNL    H18   74  -0.204  -0.048   0.230
    1UNL    H19   75  -0.352   0.179   0.554
    1UNL    H20   76  -0.224   0.289   0.584
    1UNL    H21   77  -0.186   0.120   0.602
    1UNL    H22   78  -0.020   0.309   0.496
    1UNL    H23   79   0.211   0.297   0.404
    1UNL    H24   80   0.039  -0.008  -0.007
    1UNL    H25   81   0.090  -0.336  -0.161
    1UNL    H26   82   0.188  -0.347  -0.314
    1UNL    H27   83   0.091  -0.206  -0.298
    1UNL    H28   84   0.401  -0.178  -0.035
    1UNL    H29   85   0.460  -0.056   0.075
    1UNL    H30   86   0.628  -0.122  -0.111
    1UNL    H31   87   0.472  -0.130  -0.309
    1UNL    H32   88   0.603  -0.019  -0.316
    1UNL    H33   89   0.490   0.178  -0.307
    1UNL    H34   90   0.349   0.066  -0.470
    1UNL    H35   91   0.239  -0.001  -0.353
    1UNL    H36   92   0.137   0.219  -0.299
    1UNL    H37   93   0.278   0.298  -0.360
    1UNL    H38   94   0.172   0.237  -0.478
    1UNL    H39   95   0.283   0.212  -0.143
    1UNL    H40   96   0.364   0.332   0.051
    1UNL    H41   97   0.528   0.333   0.076
    1UNL    H42   98   0.425   0.234   0.285
    1UNL    H43   99   0.478   0.102   0.190
    1UNL    H44  100   0.656   0.141  -0.156
    1UNL    H45  101   0.631   0.030   0.131
    1UNL    H46  102   0.690   0.191   0.087
    1UNL    H47  103   1.008   0.031   0.119
    1UNL    H48  104   0.874  -0.058   0.202
    1UNL    H49  105   0.948  -0.118   0.062
    1UNL    H50  106  -0.381   0.108   0.303
    1UNL    H51  107  -0.329   0.209   0.165
    1UNL    H52  108  -0.559   0.082   0.165
    1UNL    H53  109  -0.410  -0.124   0.264
    1UNL    H54  110  -0.783  -0.258   0.453
    1UNL    H55  111  -0.842  -0.142   0.336
    1UNL    H56  112  -0.790  -0.310   0.292
   0.00000   0.00000   0.00000   0.00000   0.00000   0.00000   0.00000   0.00000   0.00000
Generated with MDTraj, t= 43.0
 112
    1UNL     C1    1  -0.431   0.168  -0.249
    1UNL     C2    2  -0.423   0.154  -0.097
    1UNL     C3    3  -0.481   0.052  -0.032
    1UNL     C4    4  -0.561  -0.059  -0.098
    1UNL     N1    5  -0.515  -0.204  -0.069
    1UNL     C5    6  -0.617  -0.306  -0.089
    1UNL     C6    7  -0.448  -0.224   0.064
    1UNL     C7    8  -0.299  -0.237   0.059
    1UNL     C8    9  -0.237  -0.126  -0.027
    1UNL     C9   10  -0.193  -0.003   0.017
    1UNL     N2   11  -0.141   0.067  -0.089
    1UNL    C10   12  -0.161  -0.005  -0.206
    1UNL    C11   13  -0.115   0.032  -0.333
    1UNL    C12   14  -0.136  -0.056  -0.434
    1UNL    C13   15  -0.188  -0.187  -0.401
    1UNL    C14   16  -0.220  -0.231  -0.275
    1UNL    C15   17  -0.211  -0.131  -0.171
    1UNL    C16   18  -0.211   0.040   0.158
    1UNL    C17   19  -0.100   0.122   0.228
    1UNL    C18   20  -0.108   0.204   0.340
    1UNL     O1   21  -0.234   0.204   0.408
    1UNL    C19   22  -0.224   0.165   0.546
    1UNL    C20   23  -0.004   0.284   0.393
    1UNL    C21   24   0.120   0.272   0.342
    1UNL    C22   25   0.142   0.179   0.238
    1UNL    C23   26   0.262   0.137   0.168
    1UNL    C24   27   0.223   0.054   0.066
    1UNL     N3   28   0.091   0.029   0.085
    1UNL    C25   29   0.036   0.106   0.188
    1UNL    C26   30   0.299   0.012  -0.060
    1UNL    C27   31   0.203  -0.070  -0.147
    1UNL     O2   32   0.108  -0.012  -0.204
    1UNL     O3   33   0.219  -0.206  -0.162
    1UNL    C28   34   0.121  -0.252  -0.243
    1UNL    C29   35   0.421  -0.084  -0.028
    1UNL    C30   36   0.543  -0.040  -0.118
    1UNL    C31   37   0.499  -0.012  -0.265
    1UNL    C32   38   0.407   0.113  -0.277
    1UNL    C33   39   0.297   0.101  -0.381
    1UNL    C34   40   0.214   0.227  -0.396
    1UNL    C35   41   0.360   0.138  -0.129
    1UNL     N4   42   0.476   0.185  -0.049
    1UNL    C36   43   0.458   0.271   0.067
    1UNL    C37   44   0.401   0.198   0.190
    1UNL    C38   45   0.602   0.097  -0.061
    1UNL    C39   46   0.706   0.097   0.050
    1UNL    C40   47   0.835   0.021   0.014
    1UNL    C41   48   0.914  -0.062   0.114
    1UNL     O4   49   0.886   0.038  -0.092
    1UNL    C42   50  -0.353   0.106   0.181
    1UNL    C43   51  -0.482   0.033   0.115
    1UNL    C44   52  -0.488  -0.112   0.166
    1UNL    C45   53  -0.618  -0.151   0.220
    1UNL     O5   54  -0.719  -0.134   0.155
    1UNL     O6   55  -0.615  -0.199   0.350
    1UNL    C46   56  -0.751  -0.236   0.384
    1UNL     H1   57  -0.351   0.227  -0.280
    1UNL     H2   58  -0.519   0.218  -0.289
    1UNL     H3   59  -0.402   0.081  -0.310
    1UNL     H4   60  -0.351   0.214  -0.045
    1UNL     H5   61  -0.587  -0.041  -0.207
    1UNL     H6   62  -0.654  -0.043  -0.057
    1UNL     H7   63  -0.669  -0.280  -0.185
    1UNL     H8   64  -0.691  -0.307  -0.006
    1UNL     H9   65  -0.580  -0.406  -0.101
    1UNL    H10   66  -0.477  -0.331   0.103
    1UNL    H11   67  -0.267  -0.330   0.011
    1UNL    H12   68  -0.265  -0.242   0.157
    1UNL    H13   69  -0.098   0.161  -0.078
    1UNL    H14   70  -0.069   0.122  -0.347
    1UNL    H15   71  -0.103  -0.041  -0.543
    1UNL    H16   72  -0.212  -0.247  -0.486
    1UNL    H17   73  -0.244  -0.334  -0.256
    1UNL    H18   74  -0.212  -0.052   0.219
    1UNL    H19   75  -0.323   0.146   0.578
    1UNL    H20   76  -0.177   0.238   0.609
    1UNL    H21   77  -0.156   0.072   0.560
    1UNL    H22   78  -0.039   0.344   0.474
    1UNL    H23   79   0.199   0.329   0.384
    1UNL    H24   80   0.024  -0.006   0.019
    1UNL    H25   81   0.028  -0.262  -0.179
    1UNL    H26   82   0.140  -0.352  -0.271
    1UNL    H27   83   0.121  -0.187  -0.332
    1UNL    H28   84   0.401  -0.183  -0.052
    1UNL    H29   85   0.451  -0.074   0.073
    1UNL    H30   86   0.625  -0.120  -0.103
    1UNL    H31   87   0.453  -0.106  -0.298
    1UNL    H32   88   0.592  -0.003  -0.322
    1UNL    H33   89   0.473   0.203  -0.306
    1UNL    H34   90   0.339   0.079  -0.476
    1UNL    H35   91   0.236   0.018  -0.342
    1UNL    H36   92   0.153   0.254  -0.311
    1UNL    H37   93   0.277   0.318  -0.413
    1UNL    H38   94   0.143   0.225  -0.485
    1UNL    H39   95   0.281   0.213  -0.133
    1UNL    H40   96   0.375   0.338   0.038
    1UNL    H41   97   0.539   0.339   0.090
    1UNL    H42   98   0.400   0.277   0.274
    1UNL    H43   99   0.475   0.128   0.227
    1UNL    H44  100   0.655   0.141  -0.150
    1UNL    H45  101   0.664   0.056   0.138
    1UNL    H46  102   0.731   0.200   0.072
    1UNL    H47  103   1.019  -0.057   0.092
    1UNL    H48  104   0.888  -0.039   0.216
    1UNL    H49  105   0.891  -0.170   0.106
    1UNL    H50  106  -0.373   0.113   0.292
    1UNL    H51  107  -0.347   0.211   0.146
    1UNL    H52  108  -0.566   0.092   0.160
    1UNL    H53  109  -0.405  -0.121   0.244
    1UNL    H54  110  -0.752  -0.282   0.484
    1UNL    H55  111  -0.823  -0.148   0.388
    1UNL    H56  112  -0.780  -0.313   0.322
   0.00000   0.00000   0.00000   0.00000   0.00000   0.00000   0.00000   0.00000   0.00000
Generated with MDTraj, t= 44.0
 112
    1UNL     C1    1  -0.463   0.111  -0.270
    1UNL     C2    2  -0.438   0.123  -0.119
    1UNL     C3    3  -0.484   0.028  -0.037
    1UNL     C4    4  -0.586  -0.071  -0.088
    1UNL     N1    5  -0.534  -0.199  -0.068
    1UNL     C5    6  -0.620  -0.313  -0.119
    1UNL     C6    7  -0.455  -0.230   0.058
    1UNL     C7    8  -0.301  -0.250   0.048
    1UNL     C8    9  -0.241  -0.129  -0.032
    1UNL     C9   10  -0.208  -0.007   0.029
    1UNL     N2   11  -0.146   0.070  -0.067
    1UNL    C10   12  -0.156   0.004  -0.188
    1UNL    C11   13  -0.125   0.045  -0.315
    1UNL    C12   14  -0.151  -0.031  -0.426
    1UNL    C13   15  -0.189  -0.164  -0.408
    1UNL    C14   16  -0.217  -0.209  -0.283
    1UNL    C15   17  -0.205  -0.123  -0.171
    1UNL    C16   18  -0.217   0.034   0.171
    1UNL    C17   19  -0.101   0.122   0.215
    1UNL    C18   20  -0.114   0.201   0.331
    1UNL     O1   21  -0.238   0.204   0.399
    1UNL    C19   22  -0.231   0.153   0.525
    1UNL    C20   23  -0.007   0.273   0.387
    1UNL    C21   24   0.117   0.262   0.331
    1UNL    C22   25   0.144   0.171   0.233
    1UNL    C23   26   0.262   0.139   0.169
    1UNL    C24   27   0.231   0.066   0.055
    1UNL     N3   28   0.092   0.045   0.061
    1UNL    C25   29   0.034   0.108   0.169
    1UNL    C26   30   0.320   0.020  -0.059
    1UNL    C27   31   0.222  -0.053  -0.150
    1UNL     O2   32   0.133   0.011  -0.206
    1UNL     O3   33   0.225  -0.188  -0.147
    1UNL    C28   34   0.120  -0.236  -0.226
    1UNL    C29   35   0.428  -0.083  -0.036
    1UNL    C30   36   0.554  -0.038  -0.116
    1UNL    C31   37   0.517  -0.021  -0.268
    1UNL    C32   38   0.429   0.106  -0.279
    1UNL    C33   39   0.335   0.106  -0.405
    1UNL    C34   40   0.236   0.219  -0.405
    1UNL    C35   41   0.374   0.148  -0.130
    1UNL     N4   42   0.490   0.191  -0.048
    1UNL    C36   43   0.458   0.269   0.077
    1UNL    C37   44   0.400   0.195   0.192
    1UNL    C38   45   0.605   0.099  -0.053
    1UNL    C39   46   0.703   0.101   0.060
    1UNL    C40   47   0.813   0.013   0.018
    1UNL    C41   48   0.867  -0.078   0.125
    1UNL     O4   49   0.852   0.023  -0.095
    1UNL    C42   50  -0.354   0.107   0.188
    1UNL    C43   51  -0.467   0.023   0.113
    1UNL    C44   52  -0.479  -0.125   0.170
    1UNL    C45   53  -0.612  -0.146   0.241
    1UNL     O5   54  -0.714  -0.116   0.187
    1UNL     O6   55  -0.601  -0.200   0.363
    1UNL    C46   56  -0.735  -0.214   0.413
    1UNL     H1   57  -0.416   0.191  -0.319
    1UNL     H2   58  -0.570   0.122  -0.301
    1UNL     H3   59  -0.416   0.028  -0.316
    1UNL     H4   60  -0.355   0.189  -0.089
    1UNL     H5   61  -0.603  -0.057  -0.196
    1UNL     H6   62  -0.685  -0.058  -0.048
    1UNL     H7   63  -0.649  -0.304  -0.228
    1UNL     H8   64  -0.709  -0.320  -0.058
    1UNL     H9   65  -0.565  -0.407  -0.104
    1UNL    H10   66  -0.508  -0.327   0.094
    1UNL    H11   67  -0.281  -0.342  -0.001
    1UNL    H12   68  -0.253  -0.250   0.143
    1UNL    H13   69  -0.106   0.163  -0.044
    1UNL    H14   70  -0.061   0.136  -0.327
    1UNL    H15   71  -0.141   0.013  -0.516
    1UNL    H16   72  -0.205  -0.227  -0.503
    1UNL    H17   73  -0.265  -0.306  -0.266
    1UNL    H18   74  -0.227  -0.054   0.236
    1UNL    H19   75  -0.331   0.128   0.553
    1UNL    H20   76  -0.184   0.222   0.597
    1UNL    H21   77  -0.158   0.063   0.525
    1UNL    H22   78  -0.024   0.345   0.468
    1UNL    H23   79   0.196   0.328   0.365
    1UNL    H24   80   0.042   0.013  -0.025
    1UNL    H25   81   0.056  -0.151  -0.253
    1UNL    H26   82   0.053  -0.286  -0.164
    1UNL    H27   83   0.163  -0.290  -0.309
    1UNL    H28   84   0.398  -0.182  -0.056
    1UNL    H29   85   0.454  -0.074   0.066
    1UNL    H30   86   0.639  -0.114  -0.095
    1UNL    H31   87   0.451  -0.108  -0.282
    1UNL    H32   88   0.602  -0.028  -0.338
    1UNL    H33   89   0.498   0.197  -0.293
    1UNL    H34   90   0.397   0.113  -0.492
    1UNL    H35   91   0.271   0.018  -0.410
    1UNL    H36   92   0.169   0.216  -0.327
    1UNL    H37   93   0.290   0.323  -0.401
    1UNL    H38   94   0.176   0.219  -0.502
    1UNL    H39   95   0.303   0.228  -0.123
    1UNL    H40   96   0.391   0.353   0.051
    1UNL    H41   97   0.552   0.313   0.106
    1UNL    H42   98   0.373   0.268   0.276
    1UNL    H43   99   0.469   0.119   0.242
    1UNL    H44  100   0.664   0.125  -0.145
    1UNL    H45  101   0.654   0.067   0.148
    1UNL    H46  102   0.744   0.200   0.081
    1UNL    H47  103   0.954  -0.127   0.084
    1UNL    H48  104   0.881  -0.024   0.219
    1UNL    H49  105   0.794  -0.155   0.149
    1UNL    H50  106  -0.373   0.128   0.296
    1UNL    H51  107  -0.352   0.207   0.140
    1UNL    H52  108  -0.567   0.064   0.152
    1UNL    H53  109  -0.412  -0.147   0.261
    1UNL    H54  110  -0.727  -0.270   0.509
    1UNL    H55  111  -0.790  -0.114   0.426
    1UNL    H56  112  -0.785  -0.281   0.349
   0.00000   0.00000   0.00000   0.00000   0.00000   0.00000   0.00000   0.00000   0.00000
Generated with MDTraj, t= 45.0
 112
    1UNL     C1    1  -0.504   0.123  -0.257
    1UNL     C2    2  -0.485   0.138  -0.106
    1UNL     C3    3  -0.507   0.031  -0.028
    1UNL     C4    4  -0.586  -0.087  -0.075
    1UNL     N1    5  -0.519  -0.221  -0.051
    1UNL     C5    6  -0.590  -0.354  -0.081
    1UNL     C6    7  -0.440  -0.229   0.070
    1UNL     C7    8  -0.296  -0.233   0.031
    1UNL     C8    9  -0.244  -0.112  -0.042
    1UNL     C9   10  -0.186  -0.001   0.016
    1UNL     N2   11  -0.139   0.074  -0.085
    1UNL    C10   12  -0.150   0.012  -0.210
    1UNL    C11   13  -0.123   0.054  -0.337
    1UNL    C12   14  -0.159  -0.029  -0.439
    1UNL    C13   15  -0.215  -0.156  -0.415
    1UNL    C14   16  -0.251  -0.196  -0.290
    1UNL    C15   17  -0.220  -0.108  -0.186
    1UNL    C16   18  -0.215   0.030   0.161
    1UNL    C17   19  -0.095   0.095   0.230
    1UNL    C18   20  -0.113   0.176   0.346
    1UNL     O1   21  -0.244   0.196   0.397
    1UNL    C19   22  -0.267   0.159   0.529
    1UNL    C20   23  -0.002   0.245   0.406
    1UNL    C21   24   0.122   0.240   0.344
    1UNL    C22   25   0.135   0.166   0.226
    1UNL    C23   26   0.255   0.154   0.137
    1UNL    C24   27   0.224   0.073   0.035
    1UNL     N3   28   0.091   0.045   0.050
    1UNL    C25   29   0.036   0.095   0.170
    1UNL    C26   30   0.315   0.025  -0.080
    1UNL    C27   31   0.216  -0.052  -0.165
    1UNL     O2   32   0.139  -0.003  -0.244
    1UNL     O3   33   0.224  -0.188  -0.152
    1UNL    C28   34   0.131  -0.241  -0.240
    1UNL    C29   35   0.424  -0.070  -0.029
    1UNL    C30   36   0.555  -0.030  -0.100
    1UNL    C31   37   0.526  -0.014  -0.258
    1UNL    C32   38   0.451   0.112  -0.279
    1UNL    C33   39   0.355   0.109  -0.407
    1UNL    C34   40   0.260   0.229  -0.439
    1UNL    C35   41   0.383   0.148  -0.142
    1UNL     N4   42   0.489   0.192  -0.047
    1UNL    C36   43   0.454   0.288   0.068
    1UNL    C37   44   0.382   0.212   0.175
    1UNL    C38   45   0.610   0.105  -0.043
    1UNL    C39   46   0.700   0.094   0.078
    1UNL    C40   47   0.813  -0.002   0.049
    1UNL    C41   48   0.860  -0.097   0.154
    1UNL     O4   49   0.874   0.002  -0.057
    1UNL    C42   50  -0.351   0.101   0.171
    1UNL    C43   51  -0.479   0.033   0.120
    1UNL    C44   52  -0.474  -0.116   0.173
    1UNL    C45   53  -0.608  -0.141   0.251
    1UNL     O5   54  -0.705  -0.102   0.192
    1UNL     O6   55  -0.587  -0.201   0.372
    1UNL    C46   56  -0.711  -0.202   0.434
    1UNL     H1   57  -0.436   0.198  -0.293
    1UNL     H2   58  -0.606   0.154  -0.292
    1UNL     H3   59  -0.470   0.035  -0.297
    1UNL     H4   60  -0.433   0.224  -0.073
    1UNL     H5   61  -0.630  -0.075  -0.170
    1UNL     H6   62  -0.678  -0.086  -0.007
    1UNL     H7   63  -0.650  -0.338  -0.173
    1UNL     H8   64  -0.658  -0.370  -0.000
    1UNL     H9   65  -0.521  -0.444  -0.088
    1UNL    H10   66  -0.473  -0.322   0.131
    1UNL    H11   67  -0.274  -0.319  -0.023
    1UNL    H12   68  -0.247  -0.243   0.129
    1UNL    H13   69  -0.091   0.166  -0.079
    1UNL    H14   70  -0.067   0.144  -0.346
    1UNL    H15   71  -0.148   0.013  -0.543
    1UNL    H16   72  -0.235  -0.219  -0.491
    1UNL    H17   73  -0.317  -0.279  -0.275
    1UNL    H18   74  -0.225  -0.072   0.200
    1UNL    H19   75  -0.373   0.169   0.552
    1UNL    H20   76  -0.200   0.215   0.599
    1UNL    H21   77  -0.228   0.054   0.538
    1UNL    H22   78  -0.016   0.306   0.491
    1UNL    H23   79   0.197   0.306   0.384
    1UNL    H24   80   0.033  -0.003  -0.022
    1UNL    H25   81   0.166  -0.233  -0.342
    1UNL    H26   82   0.053  -0.174  -0.233
    1UNL    H27   83   0.104  -0.339  -0.209
    1UNL    H28   84   0.411  -0.173  -0.055
    1UNL    H29   85   0.425  -0.070   0.077
    1UNL    H30   86   0.631  -0.116  -0.084
    1UNL    H31   87   0.471  -0.097  -0.302
    1UNL    H32   88   0.628  -0.007  -0.302
    1UNL    H33   89   0.523   0.198  -0.289
    1UNL    H34   90   0.409   0.083  -0.497
    1UNL    H35   91   0.294   0.020  -0.397
    1UNL    H36   92   0.199   0.259  -0.353
    1UNL    H37   93   0.323   0.319  -0.472
    1UNL    H38   94   0.187   0.206  -0.522
    1UNL    H39   95   0.312   0.224  -0.153
    1UNL    H40   96   0.393   0.371   0.028
    1UNL    H41   97   0.542   0.334   0.111
    1UNL    H42   98   0.370   0.283   0.264
    1UNL    H43   99   0.445   0.125   0.223
    1UNL    H44  100   0.664   0.143  -0.129
    1UNL    H45  101   0.647   0.062   0.166
    1UNL    H46  102   0.733   0.196   0.100
    1UNL    H47  103   0.915  -0.178   0.106
    1UNL    H48  104   0.914  -0.043   0.235
    1UNL    H49  105   0.776  -0.140   0.206
    1UNL    H50  106  -0.370   0.137   0.272
    1UNL    H51  107  -0.327   0.194   0.116
    1UNL    H52  108  -0.573   0.078   0.171
    1UNL    H53  109  -0.398  -0.122   0.259
    1UNL    H54  110  -0.709  -0.252   0.534
    1UNL    H55  111  -0.748  -0.094   0.443
    1UNL    H56  112  -0.772  -0.259   0.369
   0.00000   0.00000   0.00000   0.00000   0.00000   0.00000   0.00000   0.00000   0.00000
Generated with MDTraj, t= 46.0
 112
    1UNL     C1    1  -0.541   0.144  -0.250
    1UNL     C2    2  -0.484   0.127  -0.109
    1UNL     C3    3  -0.495   0.017  -0.031
    1UNL     C4    4  -0.580  -0.101  -0.078
    1UNL     N1    5  -0.525  -0.232  -0.047
    1UNL     C5    6  -0.620  -0.340  -0.048
    1UNL     C6    7  -0.435  -0.227   0.074
    1UNL     C7    8  -0.287  -0.235   0.033
    1UNL     C8    9  -0.241  -0.115  -0.052
    1UNL     C9   10  -0.196   0.008  -0.000
    1UNL     N2   11  -0.165   0.091  -0.108
    1UNL    C10   12  -0.186   0.023  -0.227
    1UNL    C11   13  -0.168   0.061  -0.361
    1UNL    C12   14  -0.184  -0.034  -0.461
    1UNL    C13   15  -0.235  -0.156  -0.424
    1UNL    C14   16  -0.259  -0.201  -0.295
    1UNL    C15   17  -0.231  -0.108  -0.196
    1UNL    C16   18  -0.210   0.052   0.144
    1UNL    C17   19  -0.088   0.127   0.209
    1UNL    C18   20  -0.103   0.180   0.334
    1UNL     O1   21  -0.227   0.174   0.400
    1UNL    C19   22  -0.236   0.147   0.540
    1UNL    C20   23   0.005   0.232   0.408
    1UNL    C21   24   0.132   0.222   0.360
    1UNL    C22   25   0.153   0.171   0.236
    1UNL    C23   26   0.266   0.155   0.152
    1UNL    C24   27   0.229   0.086   0.038
    1UNL     N3   28   0.087   0.076   0.042
    1UNL    C25   29   0.043   0.120   0.159
    1UNL    C26   30   0.307   0.025  -0.078
    1UNL    C27   31   0.209  -0.045  -0.168
    1UNL     O2   32   0.143   0.008  -0.251
    1UNL     O3   33   0.214  -0.180  -0.161
    1UNL    C28   34   0.144  -0.229  -0.267
    1UNL    C29   35   0.418  -0.081  -0.035
    1UNL    C30   36   0.558  -0.042  -0.101
    1UNL    C31   37   0.534  -0.040  -0.262
    1UNL    C32   38   0.461   0.092  -0.282
    1UNL    C33   39   0.366   0.106  -0.406
    1UNL    C34   40   0.308   0.238  -0.457
    1UNL    C35   41   0.378   0.138  -0.154
    1UNL     N4   42   0.489   0.189  -0.064
    1UNL    C36   43   0.456   0.281   0.053
    1UNL    C37   44   0.399   0.208   0.170
    1UNL    C38   45   0.609   0.100  -0.047
    1UNL    C39   46   0.672   0.080   0.092
    1UNL    C40   47   0.799   0.005   0.092
    1UNL    C41   48   0.833  -0.081   0.204
    1UNL     O4   49   0.877   0.016   0.001
    1UNL    C42   50  -0.339   0.124   0.163
    1UNL    C43   51  -0.465   0.034   0.115
    1UNL    C44   52  -0.467  -0.113   0.181
    1UNL    C45   53  -0.591  -0.146   0.259
    1UNL     O5   54  -0.697  -0.139   0.202
    1UNL     O6   55  -0.584  -0.202   0.390
    1UNL    C46   56  -0.706  -0.228   0.445
    1UNL     H1   57  -0.527   0.251  -0.271
    1UNL     H2   58  -0.647   0.132  -0.267
    1UNL     H3   59  -0.488   0.101  -0.331
    1UNL     H4   60  -0.415   0.209  -0.079
    1UNL     H5   61  -0.588  -0.091  -0.180
    1UNL     H6   62  -0.687  -0.085  -0.033
    1UNL     H7   63  -0.664  -0.361  -0.146
    1UNL     H8   64  -0.693  -0.318   0.028
    1UNL     H9   65  -0.554  -0.424  -0.008
    1UNL    H10   66  -0.452  -0.319   0.138
    1UNL    H11   67  -0.283  -0.322  -0.021
    1UNL    H12   68  -0.216  -0.256   0.117
    1UNL    H13   69  -0.142   0.192  -0.098
    1UNL    H14   70  -0.147   0.164  -0.383
    1UNL    H15   71  -0.137  -0.016  -0.556
    1UNL    H16   72  -0.262  -0.224  -0.510
    1UNL    H17   73  -0.282  -0.303  -0.267
    1UNL    H18   74  -0.207  -0.049   0.190
    1UNL    H19   75  -0.326   0.087   0.556
    1UNL    H20   76  -0.235   0.242   0.602
    1UNL    H21   77  -0.149   0.086   0.568
    1UNL    H22   78  -0.002   0.282   0.506
    1UNL    H23   79   0.216   0.258   0.419
    1UNL    H24   80   0.028   0.028  -0.027
    1UNL    H25   81   0.210  -0.230  -0.355
    1UNL    H26   82   0.066  -0.161  -0.278
    1UNL    H27   83   0.108  -0.327  -0.237
    1UNL    H28   84   0.392  -0.183  -0.064
    1UNL    H29   85   0.430  -0.101   0.069
    1UNL    H30   86   0.642  -0.112  -0.061
    1UNL    H31   87   0.479  -0.127  -0.296
    1UNL    H32   88   0.636  -0.041  -0.309
    1UNL    H33   89   0.544   0.167  -0.290
    1UNL    H34   90   0.421   0.058  -0.488
    1UNL    H35   91   0.290   0.032  -0.395
    1UNL    H36   92   0.216   0.276  -0.389
    1UNL    H37   93   0.389   0.313  -0.458
    1UNL    H38   94   0.271   0.223  -0.561
    1UNL    H39   95   0.307   0.212  -0.176
    1UNL    H40   96   0.369   0.339   0.013
    1UNL    H41   97   0.539   0.343   0.081
    1UNL    H42   98   0.394   0.275   0.263
    1UNL    H43   99   0.465   0.122   0.205
    1UNL    H44  100   0.678   0.141  -0.118
    1UNL    H45  101   0.596   0.036   0.154
    1UNL    H46  102   0.693   0.180   0.128
    1UNL    H47  103   0.852  -0.183   0.170
    1UNL    H48  104   0.916  -0.037   0.262
    1UNL    H49  105   0.756  -0.082   0.279
    1UNL    H50  106  -0.359   0.136   0.266
    1UNL    H51  107  -0.336   0.228   0.127
    1UNL    H52  108  -0.545   0.115   0.140
    1UNL    H53  109  -0.380  -0.114   0.258
    1UNL    H54  110  -0.685  -0.272   0.544
    1UNL    H55  111  -0.757  -0.127   0.452
    1UNL    H56  112  -0.752  -0.302   0.385
   0.00000   0.00000   0.00000   0.00000   0.00000   0.00000   0.00000   0.00000   0.00000
Generated with MDTraj, t= 47.0
 112
    1UNL     C1    1  -0.527   0.150  -0.241
    1UNL     C2    2  -0.499   0.136  -0.092
    1UNL     C3    3  -0.499   0.023  -0.023
    1UNL     C4    4  -0.570  -0.096  -0.080
    1UNL     N1    5  -0.518  -0.232  -0.038
    1UNL     C5    6  -0.630  -0.330  -0.020
    1UNL     C6    7  -0.419  -0.226   0.070
    1UNL     C7    8  -0.277  -0.237   0.027
    1UNL     C8    9  -0.218  -0.118  -0.047
    1UNL     C9   10  -0.199   0.013   0.003
    1UNL     N2   11  -0.204   0.098  -0.107
    1UNL    C10   12  -0.183   0.022  -0.224
    1UNL    C11   13  -0.191   0.059  -0.356
    1UNL    C12   14  -0.223  -0.027  -0.454
    1UNL    C13   15  -0.260  -0.161  -0.420
    1UNL    C14   16  -0.247  -0.201  -0.290
    1UNL    C15   17  -0.212  -0.108  -0.189
    1UNL    C16   18  -0.221   0.057   0.148
    1UNL    C17   19  -0.098   0.129   0.205
    1UNL    C18   20  -0.111   0.180   0.332
    1UNL     O1   21  -0.227   0.157   0.406
    1UNL    C19   22  -0.201   0.123   0.540
    1UNL    C20   23   0.001   0.243   0.391
    1UNL    C21   24   0.124   0.247   0.326
    1UNL    C22   25   0.135   0.187   0.201
    1UNL    C23   26   0.255   0.170   0.112
    1UNL    C24   27   0.217   0.091   0.012
    1UNL     N3   28   0.084   0.052   0.030
    1UNL    C25   29   0.031   0.121   0.144
    1UNL    C26   30   0.315   0.032  -0.088
    1UNL    C27   31   0.213  -0.024  -0.198
    1UNL     O2   32   0.116   0.031  -0.242
    1UNL     O3   33   0.229  -0.159  -0.223
    1UNL    C28   34   0.108  -0.208  -0.273
    1UNL    C29   35   0.405  -0.083  -0.040
    1UNL    C30   36   0.550  -0.061  -0.085
    1UNL    C31   37   0.548  -0.041  -0.242
    1UNL    C32   38   0.473   0.087  -0.279
    1UNL    C33   39   0.382   0.074  -0.409
    1UNL    C34   40   0.348   0.215  -0.453
    1UNL    C35   41   0.400   0.145  -0.151
    1UNL     N4   42   0.507   0.184  -0.057
    1UNL    C36   43   0.466   0.281   0.052
    1UNL    C37   44   0.387   0.208   0.153
    1UNL    C38   45   0.607   0.075  -0.024
    1UNL    C39   46   0.661   0.064   0.117
    1UNL    C40   47   0.800   0.002   0.117
    1UNL    C41   48   0.834  -0.076   0.239
    1UNL     O4   49   0.878   0.023   0.030
    1UNL    C42   50  -0.357   0.124   0.159
    1UNL    C43   51  -0.478   0.036   0.122
    1UNL    C44   52  -0.458  -0.113   0.178
    1UNL    C45   53  -0.579  -0.154   0.261
    1UNL     O5   54  -0.682  -0.147   0.199
    1UNL     O6   55  -0.559  -0.201   0.385
    1UNL    C46   56  -0.681  -0.245   0.446
    1UNL     H1   57  -0.483   0.249  -0.261
    1UNL     H2   58  -0.624   0.159  -0.276
    1UNL     H3   59  -0.478   0.082  -0.313
    1UNL     H4   60  -0.470   0.225  -0.042
    1UNL     H5   61  -0.581  -0.090  -0.185
    1UNL     H6   62  -0.679  -0.090  -0.040
    1UNL     H7   63  -0.707  -0.311  -0.092
    1UNL     H8   64  -0.674  -0.325   0.084
    1UNL     H9   65  -0.592  -0.434  -0.032
    1UNL    H10   66  -0.435  -0.317   0.131
    1UNL    H11   67  -0.269  -0.318  -0.037
    1UNL    H12   68  -0.211  -0.263   0.114
    1UNL    H13   69  -0.182   0.199  -0.095
    1UNL    H14   70  -0.183   0.166  -0.383
    1UNL    H15   71  -0.228  -0.002  -0.556
    1UNL    H16   72  -0.284  -0.238  -0.497
    1UNL    H17   73  -0.277  -0.305  -0.266
    1UNL    H18   74  -0.229  -0.039   0.199
    1UNL    H19   75  -0.184   0.015   0.547
    1UNL    H20   76  -0.295   0.148   0.600
    1UNL    H21   77  -0.114   0.171   0.577
    1UNL    H22   78  -0.006   0.288   0.485
    1UNL    H23   79   0.208   0.299   0.367
    1UNL    H24   80   0.029   0.025  -0.050
    1UNL    H25   81   0.058  -0.129  -0.333
    1UNL    H26   82   0.054  -0.231  -0.183
    1UNL    H27   83   0.124  -0.302  -0.336
    1UNL    H28   84   0.376  -0.186  -0.062
    1UNL    H29   85   0.403  -0.084   0.067
    1UNL    H30   86   0.626  -0.142  -0.048
    1UNL    H31   87   0.496  -0.127  -0.282
    1UNL    H32   88   0.652  -0.043  -0.284
    1UNL    H33   89   0.553   0.161  -0.299
    1UNL    H34   90   0.438   0.014  -0.483
    1UNL    H35   91   0.299   0.011  -0.389
    1UNL    H36   92   0.270   0.258  -0.377
    1UNL    H37   93   0.439   0.277  -0.454
    1UNL    H38   94   0.298   0.214  -0.556
    1UNL    H39   95   0.344   0.232  -0.164
    1UNL    H40   96   0.407   0.367   0.012
    1UNL    H41   97   0.559   0.306   0.101
    1UNL    H42   98   0.380   0.279   0.245
    1UNL    H43   99   0.439   0.124   0.188
    1UNL    H44  100   0.686   0.098  -0.091
    1UNL    H45  101   0.593   0.004   0.175
    1UNL    H46  102   0.672   0.165   0.159
    1UNL    H47  103   0.814  -0.184   0.232
    1UNL    H48  104   0.937  -0.052   0.269
    1UNL    H49  105   0.783  -0.030   0.324
    1UNL    H50  106  -0.370   0.155   0.259
    1UNL    H51  107  -0.357   0.215   0.100
    1UNL    H52  108  -0.578   0.075   0.167
    1UNL    H53  109  -0.377  -0.116   0.260
    1UNL    H54  110  -0.677  -0.258   0.554
    1UNL    H55  111  -0.751  -0.164   0.414
    1UNL    H56  112  -0.708  -0.337   0.403
   0.00000   0.00000   0.00000   0.00000   0.00000   0.00000   0.00000   0.00000   0.00000
Generated with MDTraj, t= 48.0
 112
    1UNL     C1    1  -0.514   0.155  -0.223
    1UNL     C2    2  -0.478   0.135  -0.079
    1UNL     C3    3  -0.488   0.015  -0.021
    1UNL     C4    4  -0.558  -0.101  -0.083
    1UNL     N1    5  -0.521  -0.233  -0.028
    1UNL     C5    6  -0.597  -0.356  -0.077
    1UNL     C6    7  -0.425  -0.239   0.081
    1UNL     C7    8  -0.279  -0.247   0.035
    1UNL     C8    9  -0.233  -0.126  -0.046
    1UNL     C9   10  -0.199  -0.000   0.005
    1UNL     N2   11  -0.185   0.090  -0.099
    1UNL    C10   12  -0.208   0.029  -0.216
    1UNL    C11   13  -0.200   0.072  -0.349
    1UNL    C12   14  -0.221  -0.022  -0.447
    1UNL    C13   15  -0.263  -0.157  -0.423
    1UNL    C14   16  -0.272  -0.195  -0.293
    1UNL    C15   17  -0.239  -0.107  -0.188
    1UNL    C16   18  -0.202   0.044   0.150
    1UNL    C17   19  -0.096   0.133   0.201
    1UNL    C18   20  -0.109   0.201   0.320
    1UNL     O1   21  -0.227   0.175   0.397
    1UNL    C19   22  -0.202   0.074   0.495
    1UNL    C20   23  -0.009   0.285   0.374
    1UNL    C21   24   0.117   0.292   0.322
    1UNL    C22   25   0.132   0.223   0.199
    1UNL    C23   26   0.252   0.195   0.119
    1UNL    C24   27   0.218   0.112   0.012
    1UNL     N3   28   0.084   0.076   0.043
    1UNL    C25   29   0.024   0.146   0.143
    1UNL    C26   30   0.304   0.048  -0.091
    1UNL    C27   31   0.212  -0.015  -0.206
    1UNL     O2   32   0.132   0.055  -0.258
    1UNL     O3   33   0.219  -0.148  -0.246
    1UNL    C28   34   0.117  -0.173  -0.337
    1UNL    C29   35   0.377  -0.073  -0.036
    1UNL    C30   36   0.527  -0.069  -0.076
    1UNL    C31   37   0.540  -0.061  -0.232
    1UNL    C32   38   0.484   0.073  -0.281
    1UNL    C33   39   0.416   0.050  -0.417
    1UNL    C34   40   0.351   0.179  -0.467
    1UNL    C35   41   0.406   0.142  -0.159
    1UNL     N4   42   0.507   0.170  -0.050
    1UNL    C36   43   0.491   0.279   0.050
    1UNL    C37   44   0.396   0.237   0.162
    1UNL    C38   45   0.594   0.054  -0.014
    1UNL    C39   46   0.651   0.044   0.125
    1UNL    C40   47   0.794  -0.008   0.130
    1UNL    C41   48   0.830  -0.081   0.258
    1UNL     O4   49   0.870   0.014   0.038
    1UNL    C42   50  -0.343   0.104   0.173
    1UNL    C43   51  -0.466   0.019   0.129
    1UNL    C44   52  -0.467  -0.130   0.193
    1UNL    C45   53  -0.592  -0.158   0.272
    1UNL     O5   54  -0.704  -0.130   0.237
    1UNL     O6   55  -0.561  -0.222   0.389
    1UNL    C46   56  -0.670  -0.256   0.475
    1UNL     H1   57  -0.443   0.234  -0.247
    1UNL     H2   58  -0.609   0.187  -0.244
    1UNL     H3   59  -0.496   0.065  -0.292
    1UNL     H4   60  -0.434   0.224  -0.030
    1UNL     H5   61  -0.538  -0.110  -0.195
    1UNL     H6   62  -0.671  -0.096  -0.075
    1UNL     H7   63  -0.601  -0.361  -0.184
    1UNL     H8   64  -0.702  -0.359  -0.034
    1UNL     H9   65  -0.547  -0.445  -0.035
    1UNL    H10   66  -0.446  -0.331   0.130
    1UNL    H11   67  -0.257  -0.337  -0.023
    1UNL    H12   68  -0.215  -0.256   0.124
    1UNL    H13   69  -0.184   0.193  -0.081
    1UNL    H14   70  -0.161   0.165  -0.372
    1UNL    H15   71  -0.205   0.010  -0.555
    1UNL    H16   72  -0.288  -0.214  -0.502
    1UNL    H17   73  -0.313  -0.286  -0.262
    1UNL    H18   74  -0.199  -0.052   0.202
    1UNL    H19   75  -0.096   0.052   0.502
    1UNL    H20   76  -0.261  -0.019   0.465
    1UNL    H21   77  -0.223   0.114   0.590
    1UNL    H22   78  -0.019   0.343   0.466
    1UNL    H23   79   0.194   0.351   0.368
    1UNL    H24   80   0.024   0.030  -0.031
    1UNL    H25   81   0.080  -0.082  -0.391
    1UNL    H26   82   0.040  -0.221  -0.273
    1UNL    H27   83   0.152  -0.251  -0.417
    1UNL    H28   84   0.339  -0.169  -0.069
    1UNL    H29   85   0.373  -0.081   0.073
    1UNL    H30   86   0.589  -0.157  -0.032
    1UNL    H31   87   0.473  -0.138  -0.270
    1UNL    H32   88   0.643  -0.082  -0.272
    1UNL    H33   89   0.569   0.139  -0.302
    1UNL    H34   90   0.495   0.020  -0.486
    1UNL    H35   91   0.350  -0.033  -0.408
    1UNL    H36   92   0.263   0.204  -0.408
    1UNL    H37   93   0.427   0.263  -0.464
    1UNL    H38   94   0.311   0.164  -0.577
    1UNL    H39   95   0.364   0.232  -0.189
    1UNL    H40   96   0.443   0.358  -0.014
    1UNL    H41   97   0.588   0.310   0.085
    1UNL    H42   98   0.382   0.322   0.238
    1UNL    H43   99   0.426   0.156   0.221
    1UNL    H44  100   0.672   0.073  -0.086
    1UNL    H45  101   0.593  -0.028   0.184
    1UNL    H46  102   0.648   0.146   0.164
    1UNL    H47  103   0.768  -0.172   0.263
    1UNL    H48  104   0.936  -0.101   0.258
    1UNL    H49  105   0.816  -0.016   0.347
    1UNL    H50  106  -0.353   0.137   0.273
    1UNL    H51  107  -0.342   0.193   0.114
    1UNL    H52  108  -0.566   0.057   0.171
    1UNL    H53  109  -0.392  -0.136   0.281
    1UNL    H54  110  -0.640  -0.324   0.555
    1UNL    H55  111  -0.707  -0.157   0.509
    1UNL    H56  112  -0.744  -0.310   0.420
   0.00000   0.00000   0.00000   0.00000   0.00000   0.00000   0.00000   0.00000   0.00000
Generated with MDTraj, t= 49.0
 112
    1UNL     C1    1  -0.521   0.140  -0.221
    1UNL     C2    2  -0.477   0.131  -0.077
    1UNL     C3    3  -0.504   0.025  -0.000
    1UNL     C4    4  -0.582  -0.095  -0.052
    1UNL     N1    5  -0.507  -0.219  -0.050
    1UNL     C5    6  -0.580  -0.343  -0.096
    1UNL     C6    7  -0.423  -0.239   0.075
    1UNL     C7    8  -0.273  -0.250   0.034
    1UNL     C8    9  -0.230  -0.125  -0.035
    1UNL     C9   10  -0.188  -0.001   0.014
    1UNL     N2   11  -0.165   0.086  -0.085
    1UNL    C10   12  -0.184   0.022  -0.205
    1UNL    C11   13  -0.174   0.058  -0.342
    1UNL    C12   14  -0.214  -0.027  -0.442
    1UNL    C13   15  -0.269  -0.151  -0.406
    1UNL    C14   16  -0.284  -0.196  -0.277
    1UNL    C15   17  -0.228  -0.111  -0.177
    1UNL    C16   18  -0.203   0.044   0.160
    1UNL    C17   19  -0.097   0.148   0.194
    1UNL    C18   20  -0.102   0.204   0.321
    1UNL     O1   21  -0.207   0.185   0.416
    1UNL    C19   22  -0.211   0.065   0.489
    1UNL    C20   23   0.000   0.294   0.373
    1UNL    C21   24   0.113   0.310   0.297
    1UNL    C22   25   0.129   0.238   0.173
    1UNL    C23   26   0.250   0.211   0.097
    1UNL    C24   27   0.211   0.120   0.002
    1UNL     N3   28   0.080   0.086   0.018
    1UNL    C25   29   0.029   0.154   0.127
    1UNL    C26   30   0.300   0.050  -0.099
    1UNL    C27   31   0.208   0.003  -0.211
    1UNL     O2   32   0.142   0.089  -0.264
    1UNL     O3   33   0.208  -0.132  -0.250
    1UNL    C28   34   0.115  -0.145  -0.348
    1UNL    C29   35   0.360  -0.073  -0.023
    1UNL    C30   36   0.514  -0.076  -0.062
    1UNL    C31   37   0.533  -0.084  -0.214
    1UNL    C32   38   0.496   0.058  -0.277
    1UNL    C33   39   0.424   0.050  -0.409
    1UNL    C34   40   0.350   0.175  -0.450
    1UNL    C35   41   0.411   0.134  -0.165
    1UNL     N4   42   0.516   0.178  -0.069
    1UNL    C36   43   0.472   0.280   0.022
    1UNL    C37   44   0.379   0.253   0.138
    1UNL    C38   45   0.590   0.056  -0.014
    1UNL    C39   46   0.639   0.054   0.129
    1UNL    C40   47   0.770  -0.018   0.145
    1UNL    C41   48   0.812  -0.102   0.269
    1UNL     O4   49   0.851  -0.025   0.053
    1UNL    C42   50  -0.346   0.104   0.179
    1UNL    C43   51  -0.460   0.008   0.139
    1UNL    C44   52  -0.457  -0.147   0.194
    1UNL    C45   53  -0.581  -0.180   0.267
    1UNL     O5   54  -0.690  -0.140   0.236
    1UNL     O6   55  -0.553  -0.250   0.382
    1UNL    C46   56  -0.667  -0.260   0.463
    1UNL     H1   57  -0.520   0.245  -0.240
    1UNL     H2   58  -0.618   0.097  -0.250
    1UNL     H3   59  -0.456   0.087  -0.298
    1UNL     H4   60  -0.400   0.200  -0.046
    1UNL     H5   61  -0.620  -0.070  -0.162
    1UNL     H6   62  -0.673  -0.108   0.011
    1UNL     H7   63  -0.619  -0.332  -0.198
    1UNL     H8   64  -0.663  -0.365  -0.023
    1UNL     H9   65  -0.516  -0.430  -0.096
    1UNL    H10   66  -0.451  -0.336   0.106
    1UNL    H11   67  -0.266  -0.333  -0.046
    1UNL    H12   68  -0.204  -0.281   0.111
    1UNL    H13   69  -0.130   0.185  -0.084
    1UNL    H14   70  -0.116   0.153  -0.360
    1UNL    H15   71  -0.200  -0.004  -0.539
    1UNL    H16   72  -0.336  -0.202  -0.487
    1UNL    H17   73  -0.346  -0.284  -0.248
    1UNL    H18   74  -0.179  -0.048   0.214
    1UNL    H19   75  -0.191   0.091   0.591
    1UNL    H20   76  -0.142  -0.013   0.443
    1UNL    H21   77  -0.309   0.029   0.494
    1UNL    H22   78  -0.026   0.344   0.463
    1UNL    H23   79   0.198   0.370   0.326
    1UNL    H24   80   0.029   0.023  -0.047
    1UNL    H25   81   0.144  -0.096  -0.444
    1UNL    H26   82   0.016  -0.108  -0.308
    1UNL    H27   83   0.102  -0.257  -0.377
    1UNL    H28   84   0.303  -0.162  -0.045
    1UNL    H29   85   0.369  -0.069   0.087
    1UNL    H30   86   0.561  -0.165  -0.003
    1UNL    H31   87   0.483  -0.169  -0.263
    1UNL    H32   88   0.644  -0.090  -0.230
    1UNL    H33   89   0.588   0.112  -0.296
    1UNL    H34   90   0.490   0.016  -0.487
    1UNL    H35   91   0.348  -0.026  -0.397
    1UNL    H36   92   0.281   0.215  -0.381
    1UNL    H37   93   0.427   0.259  -0.482
    1UNL    H38   94   0.282   0.154  -0.542
    1UNL    H39   95   0.369   0.221  -0.203
    1UNL    H40   96   0.417   0.357  -0.040
    1UNL    H41   97   0.566   0.319   0.055
    1UNL    H42   98   0.366   0.349   0.194
    1UNL    H43   99   0.424   0.183   0.206
    1UNL    H44  100   0.676   0.057  -0.082
    1UNL    H45  101   0.556   0.011   0.189
    1UNL    H46  102   0.660   0.159   0.155
    1UNL    H47  103   0.726  -0.165   0.296
    1UNL    H48  104   0.896  -0.165   0.243
    1UNL    H49  105   0.851  -0.045   0.358
    1UNL    H50  106  -0.357   0.131   0.284
    1UNL    H51  107  -0.355   0.189   0.119
    1UNL    H52  108  -0.541   0.059   0.198
    1UNL    H53  109  -0.368  -0.134   0.264
    1UNL    H54  110  -0.663  -0.341   0.537
    1UNL    H55  111  -0.682  -0.157   0.504
    1UNL    H56  112  -0.745  -0.292   0.396
   0.00000   0.00000   0.00000   0.00000   0.00000   0.00000   0.00000   0.00000   0.00000
Generated with MDTraj, t= 50.0
 112
    1UNL     C1    1  -0.515   0.145  -0.228
    1UNL     C2    2  -0.487   0.134  -0.076
    1UNL     C3    3  -0.502   0.023   0.001
    1UNL     C4    4  -0.589  -0.093  -0.050
    1UNL     N1    5  -0.518  -0.224  -0.028
    1UNL     C5    6  -0.567  -0.349  -0.087
    1UNL     C6    7  -0.422  -0.231   0.085
    1UNL     C7    8  -0.280  -0.247   0.022
    1UNL     C8    9  -0.230  -0.122  -0.039
    1UNL     C9   10  -0.196   0.003   0.012
    1UNL     N2   11  -0.167   0.083  -0.094
    1UNL    C10   12  -0.184   0.023  -0.215
    1UNL    C11   13  -0.188   0.070  -0.347
    1UNL    C12   14  -0.217  -0.023  -0.443
    1UNL    C13   15  -0.240  -0.158  -0.410
    1UNL    C14   16  -0.244  -0.204  -0.278
    1UNL    C15   17  -0.227  -0.108  -0.182
    1UNL    C16   18  -0.202   0.048   0.154
    1UNL    C17   19  -0.092   0.138   0.200
    1UNL    C18   20  -0.102   0.204   0.327
    1UNL     O1   21  -0.208   0.184   0.420
    1UNL    C19   22  -0.182   0.085   0.517
    1UNL    C20   23   0.002   0.298   0.364
    1UNL    C21   24   0.115   0.312   0.291
    1UNL    C22   25   0.141   0.225   0.175
    1UNL    C23   26   0.258   0.203   0.099
    1UNL    C24   27   0.221   0.113   0.002
    1UNL     N3   28   0.087   0.084   0.021
    1UNL    C25   29   0.032   0.139   0.131
    1UNL    C26   30   0.301   0.060  -0.109
    1UNL    C27   31   0.200   0.011  -0.212
    1UNL     O2   32   0.130   0.093  -0.269
    1UNL     O3   33   0.193  -0.126  -0.218
    1UNL    C28   34   0.093  -0.166  -0.304
    1UNL    C29   35   0.368  -0.063  -0.042
    1UNL    C30   36   0.523  -0.067  -0.079
    1UNL    C31   37   0.550  -0.069  -0.230
    1UNL    C32   38   0.491   0.068  -0.290
    1UNL    C33   39   0.414   0.047  -0.421
    1UNL    C34   40   0.374   0.176  -0.496
    1UNL    C35   41   0.410   0.152  -0.179
    1UNL     N4   42   0.511   0.186  -0.065
    1UNL    C36   43   0.484   0.304   0.017
    1UNL    C37   44   0.385   0.279   0.135
    1UNL    C38   45   0.589   0.064  -0.020
    1UNL    C39   46   0.627   0.054   0.130
    1UNL    C40   47   0.735  -0.048   0.161
    1UNL    C41   48   0.754  -0.119   0.291
    1UNL     O4   49   0.818  -0.072   0.078
    1UNL    C42   50  -0.346   0.108   0.182
    1UNL    C43   51  -0.463   0.021   0.146
    1UNL    C44   52  -0.444  -0.129   0.200
    1UNL    C45   53  -0.565  -0.174   0.275
    1UNL     O5   54  -0.678  -0.157   0.232
    1UNL     O6   55  -0.548  -0.244   0.393
    1UNL    C46   56  -0.663  -0.308   0.430
    1UNL     H1   57  -0.445   0.212  -0.270
    1UNL     H2   58  -0.618   0.184  -0.262
    1UNL     H3   59  -0.518   0.052  -0.284
    1UNL     H4   60  -0.438   0.215  -0.030
    1UNL     H5   61  -0.631  -0.070  -0.155
    1UNL     H6   62  -0.677  -0.098   0.020
    1UNL     H7   63  -0.605  -0.316  -0.188
    1UNL     H8   64  -0.654  -0.381  -0.029
    1UNL     H9   65  -0.500  -0.434  -0.099
    1UNL    H10   66  -0.448  -0.324   0.130
    1UNL    H11   67  -0.282  -0.330  -0.062
    1UNL    H12   68  -0.215  -0.285   0.099
    1UNL    H13   69  -0.160   0.187  -0.087
    1UNL    H14   70  -0.149   0.163  -0.374
    1UNL    H15   71  -0.218   0.018  -0.550
    1UNL    H16   72  -0.252  -0.233  -0.481
    1UNL    H17   73  -0.273  -0.304  -0.256
    1UNL    H18   74  -0.194  -0.044   0.210
    1UNL    H19   75  -0.280   0.057   0.551
    1UNL    H20   76  -0.106   0.117   0.596
    1UNL    H21   77  -0.143  -0.003   0.475
    1UNL    H22   78  -0.011   0.371   0.444
    1UNL    H23   79   0.188   0.384   0.322
    1UNL    H24   80   0.037   0.028  -0.046
    1UNL    H25   81   0.072  -0.094  -0.383
    1UNL    H26   82  -0.002  -0.198  -0.249
    1UNL    H27   83   0.129  -0.254  -0.362
    1UNL    H28   84   0.326  -0.160  -0.065
    1UNL    H29   85   0.353  -0.048   0.066
    1UNL    H30   86   0.555  -0.168  -0.029
    1UNL    H31   87   0.506  -0.153  -0.290
    1UNL    H32   88   0.660  -0.073  -0.248
    1UNL    H33   89   0.574   0.130  -0.318
    1UNL    H34   90   0.476  -0.004  -0.489
    1UNL    H35   91   0.324  -0.013  -0.405
    1UNL    H36   92   0.292   0.235  -0.455
    1UNL    H37   93   0.468   0.245  -0.501
    1UNL    H38   94   0.343   0.161  -0.605
    1UNL    H39   95   0.370   0.239  -0.223
    1UNL    H40   96   0.439   0.375  -0.058
    1UNL    H41   97   0.572   0.352   0.053
    1UNL    H42   98   0.349   0.372   0.176
    1UNL    H43   99   0.438   0.222   0.216
    1UNL    H44  100   0.684   0.071  -0.079
    1UNL    H45  101   0.534   0.017   0.176
    1UNL    H46  102   0.646   0.160   0.153
    1UNL    H47  103   0.659  -0.139   0.344
    1UNL    H48  104   0.805  -0.214   0.275
    1UNL    H49  105   0.826  -0.068   0.360
    1UNL    H50  106  -0.356   0.131   0.289
    1UNL    H51  107  -0.351   0.200   0.132
    1UNL    H52  108  -0.551   0.065   0.197
    1UNL    H53  109  -0.354  -0.120   0.269
    1UNL    H54  110  -0.664  -0.358   0.529
    1UNL    H55  111  -0.746  -0.235   0.418
    1UNL    H56  112  -0.667  -0.391   0.359
   0.00000   0.00000   0.00000   0.00000   0.00000   0.00000   0.00000   0.00000   0.00000
Generated with MDTraj, t= 51.0
 112
    1UNL     C1    1  -0.518   0.130  -0.220
    1UNL     C2    2  -0.473   0.131  -0.075
    1UNL     C3    3  -0.489   0.022   0.001
    1UNL     C4    4  -0.555  -0.097  -0.050
    1UNL     N1    5  -0.489  -0.219  -0.043
    1UNL     C5    6  -0.576  -0.336  -0.056
    1UNL     C6    7  -0.406  -0.238   0.079
    1UNL     C7    8  -0.259  -0.228   0.034
    1UNL     C8    9  -0.231  -0.104  -0.041
    1UNL     C9   10  -0.200   0.018   0.010
    1UNL     N2   11  -0.170   0.108  -0.092
    1UNL    C10   12  -0.193   0.034  -0.210
    1UNL    C11   13  -0.186   0.065  -0.344
    1UNL    C12   14  -0.195  -0.030  -0.446
    1UNL    C13   15  -0.230  -0.161  -0.419
    1UNL    C14   16  -0.243  -0.189  -0.284
    1UNL    C15   17  -0.231  -0.093  -0.184
    1UNL    C16   18  -0.194   0.055   0.154
    1UNL    C17   19  -0.093   0.152   0.191
    1UNL    C18   20  -0.091   0.203   0.322
    1UNL     O1   21  -0.198   0.179   0.409
    1UNL    C19   22  -0.173   0.122   0.540
    1UNL    C20   23   0.018   0.285   0.369
    1UNL    C21   24   0.134   0.297   0.299
    1UNL    C22   25   0.144   0.229   0.175
    1UNL    C23   26   0.266   0.203   0.107
    1UNL    C24   27   0.225   0.112   0.010
    1UNL     N3   28   0.089   0.090   0.019
    1UNL    C25   29   0.031   0.162   0.125
    1UNL    C26   30   0.306   0.040  -0.105
    1UNL    C27   31   0.206  -0.021  -0.206
    1UNL     O2   32   0.146   0.050  -0.285
    1UNL     O3   33   0.179  -0.151  -0.199
    1UNL    C28   34   0.090  -0.186  -0.305
    1UNL    C29   35   0.392  -0.077  -0.049
    1UNL    C30   36   0.537  -0.056  -0.091
    1UNL    C31   37   0.532  -0.050  -0.244
    1UNL    C32   38   0.474   0.082  -0.295
    1UNL    C33   39   0.396   0.064  -0.427
    1UNL    C34   40   0.385   0.197  -0.503
    1UNL    C35   41   0.396   0.143  -0.178
    1UNL     N4   42   0.504   0.188  -0.074
    1UNL    C36   43   0.489   0.303   0.016
    1UNL    C37   44   0.389   0.287   0.142
    1UNL    C38   45   0.591   0.078  -0.025
    1UNL    C39   46   0.623   0.070   0.125
    1UNL    C40   47   0.692  -0.055   0.161
    1UNL    C41   48   0.656  -0.102   0.298
    1UNL     O4   49   0.763  -0.107   0.082
    1UNL    C42   50  -0.341   0.097   0.202
    1UNL    C43   51  -0.461   0.018   0.149
    1UNL    C44   52  -0.448  -0.136   0.191
    1UNL    C45   53  -0.571  -0.189   0.265
    1UNL     O5   54  -0.683  -0.165   0.231
    1UNL     O6   55  -0.548  -0.273   0.367
    1UNL    C46   56  -0.657  -0.309   0.440
    1UNL     H1   57  -0.503   0.227  -0.263
    1UNL     H2   58  -0.628   0.096  -0.232
    1UNL     H3   59  -0.471   0.056  -0.281
    1UNL     H4   60  -0.419   0.220  -0.036
    1UNL     H5   61  -0.580  -0.085  -0.152
    1UNL     H6   62  -0.653  -0.117   0.008
    1UNL     H7   63  -0.635  -0.344  -0.153
    1UNL     H8   64  -0.645  -0.334   0.025
    1UNL     H9   65  -0.519  -0.427  -0.045
    1UNL    H10   66  -0.424  -0.337   0.113
    1UNL    H11   67  -0.246  -0.322  -0.035
    1UNL    H12   68  -0.188  -0.241   0.115
    1UNL    H13   69  -0.132   0.203  -0.076
    1UNL    H14   70  -0.170   0.172  -0.368
    1UNL    H15   71  -0.161  -0.011  -0.544
    1UNL    H16   72  -0.241  -0.229  -0.503
    1UNL    H17   73  -0.264  -0.290  -0.255
    1UNL    H18   74  -0.175  -0.037   0.208
    1UNL    H19   75  -0.191   0.015   0.531
    1UNL    H20   76  -0.238   0.169   0.620
    1UNL    H21   77  -0.075   0.134   0.580
    1UNL    H22   78  -0.009   0.329   0.465
    1UNL    H23   79   0.212   0.367   0.332
    1UNL    H24   80   0.034   0.063  -0.060
    1UNL    H25   81   0.003  -0.125  -0.306
    1UNL    H26   82   0.063  -0.294  -0.317
    1UNL    H27   83   0.136  -0.153  -0.395
    1UNL    H28   84   0.358  -0.176  -0.082
    1UNL    H29   85   0.391  -0.082   0.061
    1UNL    H30   86   0.603  -0.140  -0.042
    1UNL    H31   87   0.472  -0.133  -0.292
    1UNL    H32   88   0.630  -0.058  -0.297
    1UNL    H33   89   0.556   0.148  -0.316
    1UNL    H34   90   0.441  -0.007  -0.487
    1UNL    H35   91   0.292   0.032  -0.408
    1UNL    H36   92   0.338   0.282  -0.437
    1UNL    H37   93   0.487   0.231  -0.534
    1UNL    H38   94   0.321   0.196  -0.594
    1UNL    H39   95   0.340   0.225  -0.213
    1UNL    H40   96   0.464   0.395  -0.043
    1UNL    H41   97   0.589   0.327   0.044
    1UNL    H42   98   0.359   0.384   0.164
    1UNL    H43   99   0.435   0.248   0.241
    1UNL    H44  100   0.693   0.088  -0.071
    1UNL    H45  101   0.519   0.082   0.162
    1UNL    H46  102   0.678   0.158   0.159
    1UNL    H47  103   0.572  -0.048   0.344
    1UNL    H48  104   0.634  -0.211   0.304
    1UNL    H49  105   0.742  -0.093   0.367
    1UNL    H50  106  -0.356   0.104   0.311
    1UNL    H51  107  -0.362   0.198   0.173
    1UNL    H52  108  -0.558   0.048   0.189
    1UNL    H53  109  -0.366  -0.141   0.270
    1UNL    H54  110  -0.630  -0.343   0.542
    1UNL    H55  111  -0.725  -0.222   0.444
    1UNL    H56  112  -0.702  -0.391   0.384
   0.00000   0.00000   0.00000   0.00000   0.00000   0.00000   0.00000   0.00000   0.00000
Generated with MDTraj, t= 52.0
 112
    1UNL     C1    1  -0.509   0.156  -0.206
    1UNL     C2    2  -0.478   0.125  -0.063
    1UNL     C3    3  -0.483   0.009   0.003
    1UNL     C4    4  -0.545  -0.110  -0.057
    1UNL     N1    5  -0.486  -0.245  -0.026
    1UNL     C5    6  -0.575  -0.365  -0.022
    1UNL     C6    7  -0.389  -0.250   0.079
    1UNL     C7    8  -0.253  -0.245   0.020
    1UNL     C8    9  -0.223  -0.112  -0.045
    1UNL     C9   10  -0.192   0.008   0.015
    1UNL     N2   11  -0.154   0.097  -0.089
    1UNL    C10   12  -0.163   0.035  -0.218
    1UNL    C11   13  -0.155   0.088  -0.352
    1UNL    C12   14  -0.197   0.004  -0.447
    1UNL    C13   15  -0.232  -0.133  -0.416
    1UNL    C14   16  -0.246  -0.182  -0.291
    1UNL    C15   17  -0.217  -0.095  -0.186
    1UNL    C16   18  -0.201   0.050   0.159
    1UNL    C17   19  -0.091   0.136   0.211
    1UNL    C18   20  -0.096   0.208   0.333
    1UNL     O1   21  -0.209   0.195   0.416
    1UNL    C19   22  -0.180   0.172   0.552
    1UNL    C20   23   0.009   0.286   0.379
    1UNL    C21   24   0.125   0.294   0.307
    1UNL    C22   25   0.146   0.231   0.178
    1UNL    C23   26   0.256   0.216   0.089
    1UNL    C24   27   0.214   0.125  -0.012
    1UNL     N3   28   0.088   0.072   0.028
    1UNL    C25   29   0.038   0.145   0.138
    1UNL    C26   30   0.298   0.054  -0.117
    1UNL    C27   31   0.208  -0.013  -0.218
    1UNL     O2   32   0.126   0.038  -0.295
    1UNL     O3   33   0.210  -0.150  -0.202
    1UNL    C28   34   0.114  -0.210  -0.274
    1UNL    C29   35   0.384  -0.062  -0.043
    1UNL    C30   36   0.531  -0.060  -0.090
    1UNL    C31   37   0.515  -0.065  -0.245
    1UNL    C32   38   0.473   0.080  -0.302
    1UNL    C33   39   0.407   0.081  -0.444
    1UNL    C34   40   0.366   0.219  -0.480
    1UNL    C35   41   0.398   0.148  -0.186
    1UNL     N4   42   0.505   0.189  -0.083
    1UNL    C36   43   0.470   0.317  -0.016
    1UNL    C37   44   0.380   0.307   0.108
    1UNL    C38   45   0.597   0.073  -0.036
    1UNL    C39   46   0.617   0.062   0.113
    1UNL    C40   47   0.662  -0.074   0.165
    1UNL    C41   48   0.602  -0.117   0.296
    1UNL     O4   49   0.738  -0.152   0.114
    1UNL    C42   50  -0.341   0.097   0.202
    1UNL    C43   51  -0.454   0.008   0.149
    1UNL    C44   52  -0.429  -0.139   0.188
    1UNL    C45   53  -0.554  -0.182   0.258
    1UNL     O5   54  -0.664  -0.150   0.220
    1UNL     O6   55  -0.534  -0.262   0.368
    1UNL    C46   56  -0.656  -0.311   0.416
    1UNL     H1   57  -0.426   0.213  -0.250
    1UNL     H2   58  -0.597   0.229  -0.213
    1UNL     H3   59  -0.534   0.075  -0.267
    1UNL     H4   60  -0.444   0.208  -0.008
    1UNL     H5   61  -0.537  -0.108  -0.158
    1UNL     H6   62  -0.657  -0.110  -0.025
    1UNL     H7   63  -0.656  -0.339  -0.093
    1UNL     H8   64  -0.621  -0.362   0.073
    1UNL     H9   65  -0.544  -0.466  -0.053
    1UNL    H10   66  -0.392  -0.348   0.126
    1UNL    H11   67  -0.242  -0.325  -0.060
    1UNL    H12   68  -0.181  -0.269   0.102
    1UNL    H13   69  -0.132   0.193  -0.069
    1UNL    H14   70  -0.133   0.193  -0.365
    1UNL    H15   71  -0.192   0.032  -0.551
    1UNL    H16   72  -0.260  -0.203  -0.498
    1UNL    H17   73  -0.275  -0.286  -0.277
    1UNL    H18   74  -0.186  -0.042   0.214
    1UNL    H19   75  -0.080   0.132   0.580
    1UNL    H20   76  -0.258   0.102   0.588
    1UNL    H21   77  -0.203   0.259   0.613
    1UNL    H22   78  -0.014   0.343   0.465
    1UNL    H23   79   0.197   0.359   0.351
    1UNL    H24   80   0.044  -0.013  -0.002
    1UNL    H25   81   0.022  -0.223  -0.219
    1UNL    H26   82   0.162  -0.303  -0.300
    1UNL    H27   83   0.096  -0.153  -0.358
    1UNL    H28   84   0.353  -0.167  -0.055
    1UNL    H29   85   0.380  -0.048   0.066
    1UNL    H30   86   0.596  -0.144  -0.042
    1UNL    H31   87   0.435  -0.139  -0.281
    1UNL    H32   88   0.598  -0.105  -0.306
    1UNL    H33   89   0.565   0.132  -0.318
    1UNL    H34   90   0.475   0.046  -0.514
    1UNL    H35   91   0.323   0.011  -0.443
    1UNL    H36   92   0.277   0.256  -0.408
    1UNL    H37   93   0.451   0.288  -0.473
    1UNL    H38   94   0.319   0.229  -0.582
    1UNL    H39   95   0.348   0.234  -0.223
    1UNL    H40   96   0.439   0.390  -0.093
    1UNL    H41   97   0.563   0.361   0.016
    1UNL    H42   98   0.346   0.398   0.144
    1UNL    H43   99   0.445   0.268   0.194
    1UNL    H44  100   0.694   0.095  -0.092
    1UNL    H45  101   0.526   0.090   0.168
    1UNL    H46  102   0.695   0.136   0.141
    1UNL    H47  103   0.581  -0.025   0.353
    1UNL    H48  104   0.505  -0.173   0.279
    1UNL    H49  105   0.665  -0.187   0.352
    1UNL    H50  106  -0.363   0.088   0.309
    1UNL    H51  107  -0.366   0.200   0.176
    1UNL    H52  108  -0.553   0.038   0.182
    1UNL    H53  109  -0.351  -0.142   0.269
    1UNL    H54  110  -0.665  -0.414   0.455
    1UNL    H55  111  -0.689  -0.242   0.494
    1UNL    H56  112  -0.729  -0.299   0.335
   0.00000   0.00000   0.00000   0.00000   0.00000   0.00000   0.00000   0.00000   0.00000
Generated with MDTraj, t= 53.0
 112
    1UNL     C1    1  -0.507   0.144  -0.215
    1UNL     C2    2  -0.458   0.120  -0.076
    1UNL     C3    3  -0.466   0.003  -0.009
    1UNL     C4    4  -0.527  -0.118  -0.071
    1UNL     N1    5  -0.499  -0.250  -0.020
    1UNL     C5    6  -0.613  -0.338  -0.013
    1UNL     C6    7  -0.390  -0.258   0.085
    1UNL     C7    8  -0.250  -0.238   0.022
    1UNL     C8    9  -0.214  -0.113  -0.042
    1UNL     C9   10  -0.183   0.007   0.022
    1UNL     N2   11  -0.159   0.104  -0.070
    1UNL    C10   12  -0.176   0.047  -0.196
    1UNL    C11   13  -0.173   0.106  -0.325
    1UNL    C12   14  -0.187   0.023  -0.432
    1UNL    C13   15  -0.220  -0.112  -0.421
    1UNL    C14   16  -0.228  -0.167  -0.299
    1UNL    C15   17  -0.208  -0.088  -0.183
    1UNL    C16   18  -0.186   0.033   0.169
    1UNL    C17   19  -0.075   0.132   0.205
    1UNL    C18   20  -0.085   0.208   0.320
    1UNL     O1   21  -0.190   0.173   0.406
    1UNL    C19   22  -0.192   0.228   0.538
    1UNL    C20   23   0.014   0.300   0.351
    1UNL    C21   24   0.126   0.324   0.273
    1UNL    C22   25   0.147   0.245   0.161
    1UNL    C23   26   0.258   0.231   0.075
    1UNL    C24   27   0.228   0.118   0.004
    1UNL     N3   28   0.098   0.078   0.025
    1UNL    C25   29   0.048   0.145   0.136
    1UNL    C26   30   0.303   0.052  -0.107
    1UNL    C27   31   0.196  -0.016  -0.208
    1UNL     O2   32   0.110   0.047  -0.274
    1UNL     O3   33   0.202  -0.153  -0.218
    1UNL    C28   34   0.109  -0.189  -0.311
    1UNL    C29   35   0.391  -0.069  -0.047
    1UNL    C30   36   0.540  -0.062  -0.092
    1UNL    C31   37   0.537  -0.063  -0.245
    1UNL    C32   38   0.473   0.076  -0.296
    1UNL    C33   39   0.382   0.061  -0.419
    1UNL    C34   40   0.328   0.194  -0.481
    1UNL    C35   41   0.395   0.146  -0.183
    1UNL     N4   42   0.509   0.193  -0.084
    1UNL    C36   43   0.499   0.314   0.008
    1UNL    C37   44   0.389   0.302   0.117
    1UNL    C38   45   0.595   0.074  -0.033
    1UNL    C39   46   0.597   0.061   0.121
    1UNL    C40   47   0.634  -0.077   0.170
    1UNL    C41   48   0.573  -0.133   0.290
    1UNL     O4   49   0.724  -0.135   0.113
    1UNL    C42   50  -0.333   0.086   0.197
    1UNL    C43   51  -0.443  -0.009   0.142
    1UNL    C44   52  -0.434  -0.156   0.195
    1UNL    C45   53  -0.554  -0.207   0.263
    1UNL     O5   54  -0.663  -0.172   0.228
    1UNL     O6   55  -0.539  -0.288   0.371
    1UNL    C46   56  -0.662  -0.322   0.422
    1UNL     H1   57  -0.457   0.231  -0.262
    1UNL     H2   58  -0.611   0.181  -0.220
    1UNL     H3   59  -0.495   0.057  -0.280
    1UNL     H4   60  -0.407   0.204  -0.026
    1UNL     H5   61  -0.500  -0.120  -0.173
    1UNL     H6   62  -0.640  -0.101  -0.053
    1UNL     H7   63  -0.652  -0.366  -0.111
    1UNL     H8   64  -0.684  -0.292   0.053
    1UNL     H9   65  -0.580  -0.435   0.024
    1UNL    H10   66  -0.390  -0.361   0.127
    1UNL    H11   67  -0.245  -0.317  -0.057
    1UNL    H12   68  -0.169  -0.271   0.097
    1UNL    H13   69  -0.119   0.197  -0.060
    1UNL    H14   70  -0.140   0.207  -0.328
    1UNL    H15   71  -0.185   0.076  -0.532
    1UNL    H16   72  -0.230  -0.165  -0.509
    1UNL    H17   73  -0.262  -0.266  -0.288
    1UNL    H18   74  -0.171  -0.057   0.226
    1UNL    H19   75  -0.090   0.233   0.591
    1UNL    H20   76  -0.261   0.173   0.603
    1UNL    H21   77  -0.228   0.331   0.531
    1UNL    H22   78  -0.012   0.360   0.441
    1UNL    H23   79   0.195   0.403   0.301
    1UNL    H24   80   0.044   0.021  -0.043
    1UNL    H25   81   0.009  -0.180  -0.271
    1UNL    H26   82   0.136  -0.288  -0.341
    1UNL    H27   83   0.119  -0.121  -0.387
    1UNL    H28   84   0.347  -0.168  -0.074
    1UNL    H29   85   0.389  -0.067   0.062
    1UNL    H30   86   0.606  -0.148  -0.049
    1UNL    H31   87   0.463  -0.142  -0.282
    1UNL    H32   88   0.625  -0.104  -0.300
    1UNL    H33   89   0.557   0.137  -0.319
    1UNL    H34   90   0.438   0.006  -0.488
    1UNL    H35   91   0.304  -0.009  -0.396
    1UNL    H36   92   0.250   0.236  -0.416
    1UNL    H37   93   0.412   0.266  -0.499
    1UNL    H38   94   0.273   0.173  -0.579
    1UNL    H39   95   0.340   0.229  -0.221
    1UNL    H40   96   0.462   0.391  -0.062
    1UNL    H41   97   0.593   0.352   0.046
    1UNL    H42   98   0.366   0.399   0.143
    1UNL    H43   99   0.435   0.254   0.209
    1UNL    H44  100   0.694   0.096  -0.086
    1UNL    H45  101   0.499   0.072   0.164
    1UNL    H46  102   0.667   0.130   0.173
    1UNL    H47  103   0.626  -0.086   0.376
    1UNL    H48  104   0.463  -0.110   0.293
    1UNL    H49  105   0.582  -0.243   0.286
    1UNL    H50  106  -0.355   0.095   0.305
    1UNL    H51  107  -0.336   0.192   0.158
    1UNL    H52  108  -0.536   0.037   0.168
    1UNL    H53  109  -0.359  -0.149   0.278
    1UNL    H54  110  -0.664  -0.388   0.507
    1UNL    H55  111  -0.700  -0.229   0.462
    1UNL    H56  112  -0.733  -0.348   0.341
   0.00000   0.00000   0.00000   0.00000   0.00000   0.00000   0.00000   0.00000   0.00000
Generated with MDTraj, t= 54.0
 112
    1UNL     C1    1  -0.495   0.163  -0.200
    1UNL     C2    2  -0.473   0.126  -0.055
    1UNL     C3    3  -0.470  -0.001  -0.006
    1UNL     C4    4  -0.537  -0.113  -0.077
    1UNL     N1    5  -0.491  -0.250  -0.031
    1UNL     C5    6  -0.609  -0.340  -0.026
    1UNL     C6    7  -0.387  -0.259   0.075
    1UNL     C7    8  -0.248  -0.245   0.020
    1UNL     C8    9  -0.204  -0.115  -0.045
    1UNL     C9   10  -0.188   0.006   0.017
    1UNL     N2   11  -0.163   0.101  -0.076
    1UNL    C10   12  -0.175   0.051  -0.203
    1UNL    C11   13  -0.154   0.105  -0.331
    1UNL    C12   14  -0.188   0.027  -0.440
    1UNL    C13   15  -0.227  -0.107  -0.426
    1UNL    C14   16  -0.241  -0.163  -0.300
    1UNL    C15   17  -0.208  -0.088  -0.185
    1UNL    C16   18  -0.181   0.032   0.168
    1UNL    C17   19  -0.078   0.128   0.216
    1UNL    C18   20  -0.093   0.212   0.328
    1UNL     O1   21  -0.210   0.216   0.409
    1UNL    C19   22  -0.200   0.280   0.541
    1UNL    C20   23   0.003   0.314   0.352
    1UNL    C21   24   0.119   0.325   0.280
    1UNL    C22   25   0.144   0.231   0.176
    1UNL    C23   26   0.258   0.210   0.087
    1UNL    C24   27   0.228   0.101   0.005
    1UNL     N3   28   0.099   0.068   0.036
    1UNL    C25   29   0.044   0.136   0.143
    1UNL    C26   30   0.302   0.037  -0.114
    1UNL    C27   31   0.196  -0.005  -0.218
    1UNL     O2   32   0.121   0.083  -0.266
    1UNL     O3   33   0.211  -0.132  -0.274
    1UNL    C28   34   0.090  -0.148  -0.345
    1UNL    C29   35   0.392  -0.087  -0.075
    1UNL    C30   36   0.540  -0.065  -0.097
    1UNL    C31   37   0.552  -0.053  -0.246
    1UNL    C32   38   0.477   0.078  -0.298
    1UNL    C33   39   0.400   0.032  -0.423
    1UNL    C34   40   0.305   0.137  -0.482
    1UNL    C35   41   0.399   0.140  -0.178
    1UNL     N4   42   0.505   0.175  -0.073
    1UNL    C36   43   0.477   0.304  -0.003
    1UNL    C37   44   0.381   0.295   0.118
    1UNL    C38   45   0.586   0.067  -0.022
    1UNL    C39   46   0.575   0.056   0.130
    1UNL    C40   47   0.644  -0.072   0.183
    1UNL    C41   48   0.577  -0.149   0.294
    1UNL     O4   49   0.749  -0.114   0.140
    1UNL    C42   50  -0.328   0.074   0.209
    1UNL    C43   51  -0.441  -0.017   0.148
    1UNL    C44   52  -0.427  -0.164   0.192
    1UNL    C45   53  -0.550  -0.212   0.268
    1UNL     O5   54  -0.660  -0.169   0.245
    1UNL     O6   55  -0.528  -0.303   0.366
    1UNL    C46   56  -0.641  -0.335   0.435
    1UNL     H1   57  -0.553   0.258  -0.205
    1UNL     H2   58  -0.555   0.097  -0.258
    1UNL     H3   59  -0.386   0.174  -0.244
    1UNL     H4   60  -0.424   0.203  -0.000
    1UNL     H5   61  -0.531  -0.097  -0.186
    1UNL     H6   62  -0.643  -0.104  -0.038
    1UNL     H7   63  -0.664  -0.328  -0.114
    1UNL     H8   64  -0.672  -0.317   0.062
    1UNL     H9   65  -0.581  -0.446  -0.036
    1UNL    H10   66  -0.400  -0.364   0.116
    1UNL    H11   67  -0.232  -0.322  -0.055
    1UNL    H12   68  -0.171  -0.268   0.104
    1UNL    H13   69  -0.154   0.199  -0.062
    1UNL    H14   70  -0.104   0.204  -0.336
    1UNL    H15   71  -0.172   0.068  -0.531
    1UNL    H16   72  -0.260  -0.154  -0.525
    1UNL    H17   73  -0.268  -0.270  -0.292
    1UNL    H18   74  -0.166  -0.062   0.219
    1UNL    H19   75  -0.092   0.307   0.568
    1UNL    H20   76  -0.250   0.227   0.620
    1UNL    H21   77  -0.237   0.384   0.528
    1UNL    H22   78  -0.016   0.393   0.418
    1UNL    H23   79   0.170   0.419   0.292
    1UNL    H24   80   0.044  -0.007  -0.013
    1UNL    H25   81   0.011  -0.100  -0.283
    1UNL    H26   82   0.072  -0.252  -0.361
    1UNL    H27   83   0.100  -0.086  -0.429
    1UNL    H28   84   0.352  -0.176  -0.131
    1UNL    H29   85   0.390  -0.106   0.033
    1UNL    H30   86   0.596  -0.154  -0.046
    1UNL    H31   87   0.515  -0.147  -0.296
    1UNL    H32   88   0.656  -0.043  -0.283
    1UNL    H33   89   0.552   0.152  -0.324
    1UNL    H34   90   0.471  -0.006  -0.490
    1UNL    H35   91   0.346  -0.053  -0.398
    1UNL    H36   92   0.226   0.142  -0.415
    1UNL    H37   93   0.356   0.239  -0.496
    1UNL    H38   94   0.255   0.100  -0.580
    1UNL    H39   95   0.355   0.234  -0.205
    1UNL    H40   96   0.443   0.378  -0.077
    1UNL    H41   97   0.574   0.340   0.029
    1UNL    H42   98   0.360   0.396   0.138
    1UNL    H43   99   0.425   0.260   0.210
    1UNL    H44  100   0.695   0.092  -0.049
    1UNL    H45  101   0.470   0.059   0.156
    1UNL    H46  102   0.637   0.136   0.181
    1UNL    H47  103   0.658  -0.193   0.357
    1UNL    H48  104   0.511  -0.089   0.360
    1UNL    H49  105   0.514  -0.227   0.247
    1UNL    H50  106  -0.331   0.085   0.317
    1UNL    H51  107  -0.336   0.183   0.178
    1UNL    H52  108  -0.532   0.026   0.182
    1UNL    H53  109  -0.352  -0.162   0.273
    1UNL    H54  110  -0.631  -0.343   0.542
    1UNL    H55  111  -0.706  -0.248   0.426
    1UNL    H56  112  -0.704  -0.412   0.384
   0.00000   0.00000   0.00000   0.00000   0.00000   0.00000   0.00000   0.00000   0.00000
Generated with MDTraj, t= 55.0
 112
    1UNL     C1    1  -0.521   0.190  -0.165
    1UNL     C2    2  -0.488   0.142  -0.026
    1UNL     C3    3  -0.478   0.017   0.019
    1UNL     C4    4  -0.542  -0.105  -0.052
    1UNL     N1    5  -0.490  -0.242  -0.031
    1UNL     C5    6  -0.595  -0.345  -0.067
    1UNL     C6    7  -0.391  -0.251   0.081
    1UNL     C7    8  -0.252  -0.245   0.025
    1UNL     C8    9  -0.212  -0.114  -0.048
    1UNL     C9   10  -0.183   0.007   0.012
    1UNL     N2   11  -0.166   0.107  -0.082
    1UNL    C10   12  -0.176   0.048  -0.209
    1UNL    C11   13  -0.160   0.100  -0.339
    1UNL    C12   14  -0.204   0.019  -0.443
    1UNL    C13   15  -0.258  -0.110  -0.417
    1UNL    C14   16  -0.261  -0.168  -0.290
    1UNL    C15   17  -0.217  -0.085  -0.186
    1UNL    C16   18  -0.174   0.022   0.165
    1UNL    C17   19  -0.074   0.126   0.210
    1UNL    C18   20  -0.094   0.230   0.305
    1UNL     O1   21  -0.223   0.258   0.352
    1UNL    C19   22  -0.239   0.268   0.488
    1UNL    C20   23   0.012   0.308   0.354
    1UNL    C21   24   0.132   0.312   0.281
    1UNL    C22   25   0.155   0.214   0.181
    1UNL    C23   26   0.272   0.195   0.100
    1UNL    C24   27   0.231   0.101   0.003
    1UNL     N3   28   0.102   0.055   0.031
    1UNL    C25   29   0.053   0.123   0.142
    1UNL    C26   30   0.297   0.036  -0.118
    1UNL    C27   31   0.190   0.007  -0.221
    1UNL     O2   32   0.119   0.101  -0.257
    1UNL     O3   33   0.189  -0.125  -0.257
    1UNL    C28   34   0.112  -0.134  -0.371
    1UNL    C29   35   0.369  -0.093  -0.072
    1UNL    C30   36   0.522  -0.079  -0.085
    1UNL    C31   37   0.559  -0.066  -0.236
    1UNL    C32   38   0.491   0.063  -0.293
    1UNL    C33   39   0.417   0.023  -0.415
    1UNL    C34   40   0.345   0.139  -0.477
    1UNL    C35   41   0.403   0.127  -0.183
    1UNL     N4   42   0.497   0.168  -0.070
    1UNL    C36   43   0.469   0.306  -0.015
    1UNL    C37   44   0.381   0.299   0.103
    1UNL    C38   45   0.568   0.052  -0.010
    1UNL    C39   46   0.565   0.044   0.147
    1UNL    C40   47   0.652  -0.067   0.196
    1UNL    C41   48   0.601  -0.161   0.297
    1UNL     O4   49   0.761  -0.063   0.151
    1UNL    C42   50  -0.317   0.067   0.212
    1UNL    C43   51  -0.443  -0.010   0.162
    1UNL    C44   52  -0.424  -0.159   0.197
    1UNL    C45   53  -0.540  -0.214   0.275
    1UNL     O5   54  -0.654  -0.185   0.241
    1UNL     O6   55  -0.502  -0.294   0.377
    1UNL    C46   56  -0.608  -0.361   0.425
    1UNL     H1   57  -0.597   0.273  -0.161
    1UNL     H2   58  -0.565   0.116  -0.229
    1UNL     H3   59  -0.419   0.223  -0.210
    1UNL     H4   60  -0.447   0.220   0.036
    1UNL     H5   61  -0.542  -0.093  -0.167
    1UNL     H6   62  -0.644  -0.095  -0.011
    1UNL     H7   63  -0.642  -0.321  -0.157
    1UNL     H8   64  -0.672  -0.357   0.012
    1UNL     H9   65  -0.543  -0.436  -0.095
    1UNL    H10   66  -0.415  -0.358   0.118
    1UNL    H11   67  -0.227  -0.322  -0.047
    1UNL    H12   68  -0.176  -0.269   0.110
    1UNL    H13   69  -0.134   0.200  -0.063
    1UNL    H14   70  -0.129   0.195  -0.365
    1UNL    H15   71  -0.206   0.071  -0.547
    1UNL    H16   72  -0.301  -0.163  -0.494
    1UNL    H17   73  -0.302  -0.267  -0.285
    1UNL    H18   74  -0.153  -0.077   0.207
    1UNL    H19   75  -0.229   0.164   0.535
    1UNL    H20   76  -0.334   0.312   0.503
    1UNL    H21   77  -0.145   0.315   0.526
    1UNL    H22   78  -0.006   0.389   0.427
    1UNL    H23   79   0.209   0.384   0.308
    1UNL    H24   80   0.042   0.029  -0.050
    1UNL    H25   81   0.011  -0.175  -0.346
    1UNL    H26   82   0.171  -0.197  -0.437
    1UNL    H27   83   0.103  -0.029  -0.406
    1UNL    H28   84   0.351  -0.172  -0.149
    1UNL    H29   85   0.332  -0.131   0.025
    1UNL    H30   86   0.568  -0.175  -0.040
    1UNL    H31   87   0.506  -0.142  -0.300
    1UNL    H32   88   0.668  -0.081  -0.253
    1UNL    H33   89   0.565   0.140  -0.322
    1UNL    H34   90   0.489  -0.015  -0.482
    1UNL    H35   91   0.353  -0.055  -0.392
    1UNL    H36   92   0.264   0.171  -0.416
    1UNL    H37   93   0.420   0.226  -0.491
    1UNL    H38   94   0.295   0.118  -0.576
    1UNL    H39   95   0.351   0.208  -0.231
    1UNL    H40   96   0.423   0.359  -0.099
    1UNL    H41   97   0.562   0.359   0.004
    1UNL    H42   98   0.325   0.388   0.114
    1UNL    H43   99   0.441   0.283   0.186
    1UNL    H44  100   0.680   0.073  -0.025
    1UNL    H45  101   0.467   0.041   0.191
    1UNL    H46  102   0.615   0.139   0.180
    1UNL    H47  103   0.658  -0.256   0.278
    1UNL    H48  104   0.617  -0.139   0.403
    1UNL    H49  105   0.492  -0.181   0.280
    1UNL    H50  106  -0.319   0.066   0.321
    1UNL    H51  107  -0.331   0.172   0.173
    1UNL    H52  108  -0.529   0.029   0.211
    1UNL    H53  109  -0.350  -0.164   0.279
    1UNL    H54  110  -0.590  -0.452   0.482
    1UNL    H55  111  -0.653  -0.293   0.499
    1UNL    H56  112  -0.689  -0.363   0.347
   0.00000   0.00000   0.00000   0.00000   0.00000   0.00000   0.00000   0.00000   0.00000
Generated with MDTraj, t= 56.0
 112
    1UNL     C1    1  -0.547   0.195  -0.146
    1UNL     C2    2  -0.483   0.143  -0.019
    1UNL     C3    3  -0.489   0.019   0.030
    1UNL     C4    4  -0.565  -0.094  -0.031
    1UNL     N1    5  -0.494  -0.225  -0.040
    1UNL     C5    6  -0.584  -0.337  -0.077
    1UNL     C6    7  -0.391  -0.248   0.071
    1UNL     C7    8  -0.246  -0.231   0.025
    1UNL     C8    9  -0.221  -0.101  -0.048
    1UNL     C9   10  -0.197   0.024   0.012
    1UNL     N2   11  -0.176   0.116  -0.090
    1UNL    C10   12  -0.205   0.053  -0.211
    1UNL    C11   13  -0.222   0.102  -0.339
    1UNL    C12   14  -0.249   0.014  -0.446
    1UNL    C13   15  -0.277  -0.119  -0.421
    1UNL    C14   16  -0.257  -0.167  -0.294
    1UNL    C15   17  -0.232  -0.079  -0.187
    1UNL    C16   18  -0.184   0.036   0.160
    1UNL    C17   19  -0.081   0.140   0.188
    1UNL    C18   20  -0.099   0.238   0.286
    1UNL     O1   21  -0.228   0.270   0.345
    1UNL    C19   22  -0.242   0.273   0.483
    1UNL    C20   23   0.008   0.318   0.336
    1UNL    C21   24   0.128   0.319   0.274
    1UNL    C22   25   0.150   0.230   0.173
    1UNL    C23   26   0.269   0.197   0.096
    1UNL    C24   27   0.229   0.103   0.004
    1UNL     N3   28   0.095   0.069   0.021
    1UNL    C25   29   0.046   0.143   0.127
    1UNL    C26   30   0.300   0.035  -0.116
    1UNL    C27   31   0.206   0.004  -0.229
    1UNL     O2   32   0.151   0.095  -0.284
    1UNL     O3   33   0.187  -0.124  -0.262
    1UNL    C28   34   0.079  -0.141  -0.353
    1UNL    C29   35   0.365  -0.095  -0.055
    1UNL    C30   36   0.516  -0.093  -0.075
    1UNL    C31   37   0.552  -0.081  -0.227
    1UNL    C32   38   0.502   0.058  -0.290
    1UNL    C33   39   0.427   0.031  -0.422
    1UNL    C34   40   0.390   0.156  -0.498
    1UNL    C35   41   0.416   0.126  -0.175
    1UNL     N4   42   0.522   0.157  -0.072
    1UNL    C36   43   0.500   0.277   0.011
    1UNL    C37   44   0.388   0.280   0.117
    1UNL    C38   45   0.583   0.038  -0.010
    1UNL    C39   46   0.590   0.048   0.139
    1UNL    C40   47   0.672  -0.054   0.202
    1UNL    C41   48   0.615  -0.157   0.297
    1UNL     O4   49   0.792  -0.060   0.193
    1UNL    C42   50  -0.320   0.070   0.225
    1UNL    C43   51  -0.437  -0.016   0.174
    1UNL    C44   52  -0.422  -0.169   0.194
    1UNL    C45   53  -0.533  -0.243   0.268
    1UNL     O5   54  -0.650  -0.229   0.238
    1UNL     O6   55  -0.493  -0.329   0.365
    1UNL    C46   56  -0.601  -0.366   0.442
    1UNL     H1   57  -0.519   0.304  -0.168
    1UNL     H2   58  -0.658   0.210  -0.143
    1UNL     H3   59  -0.514   0.132  -0.232
    1UNL     H4   60  -0.422   0.219   0.029
    1UNL     H5   61  -0.578  -0.060  -0.145
    1UNL     H6   62  -0.661  -0.111   0.018
    1UNL     H7   63  -0.631  -0.322  -0.172
    1UNL     H8   64  -0.658  -0.350   0.003
    1UNL     H9   65  -0.521  -0.425  -0.089
    1UNL    H10   66  -0.401  -0.364   0.081
    1UNL    H11   67  -0.215  -0.314  -0.040
    1UNL    H12   68  -0.163  -0.251   0.103
    1UNL    H13   69  -0.162   0.213  -0.068
    1UNL    H14   70  -0.222   0.214  -0.352
    1UNL    H15   71  -0.265   0.052  -0.544
    1UNL    H16   72  -0.299  -0.185  -0.511
    1UNL    H17   73  -0.275  -0.271  -0.273
    1UNL    H18   74  -0.138  -0.060   0.186
    1UNL    H19   75  -0.347   0.240   0.507
    1UNL    H20   76  -0.222   0.363   0.531
    1UNL    H21   77  -0.177   0.186   0.510
    1UNL    H22   78  -0.015   0.375   0.422
    1UNL    H23   79   0.202   0.391   0.306
    1UNL    H24   80   0.036   0.025  -0.050
    1UNL    H25   81   0.001  -0.212  -0.311
    1UNL    H26   82   0.126  -0.181  -0.446
    1UNL    H27   83   0.031  -0.037  -0.371
    1UNL    H28   84   0.315  -0.183  -0.099
    1UNL    H29   85   0.349  -0.110   0.054
    1UNL    H30   86   0.554  -0.198  -0.047
    1UNL    H31   87   0.493  -0.160  -0.279
    1UNL    H32   88   0.660  -0.102  -0.254
    1UNL    H33   89   0.585   0.132  -0.292
    1UNL    H34   90   0.489  -0.029  -0.481
    1UNL    H35   91   0.336  -0.020  -0.399
    1UNL    H36   92   0.324   0.223  -0.435
    1UNL    H37   93   0.483   0.216  -0.520
    1UNL    H38   94   0.329   0.146  -0.590
    1UNL    H39   95   0.372   0.221  -0.204
    1UNL    H40   96   0.486   0.353  -0.066
    1UNL    H41   97   0.595   0.306   0.057
    1UNL    H42   98   0.352   0.380   0.120
    1UNL    H43   99   0.432   0.253   0.205
    1UNL    H44  100   0.694   0.044  -0.040
    1UNL    H45  101   0.486   0.058   0.173
    1UNL    H46  102   0.633   0.144   0.177
    1UNL    H47  103   0.595  -0.256   0.248
    1UNL    H48  104   0.683  -0.186   0.377
    1UNL    H49  105   0.523  -0.119   0.349
    1UNL    H50  106  -0.315   0.060   0.333
    1UNL    H51  107  -0.346   0.177   0.200
    1UNL    H52  108  -0.518   0.012   0.235
    1UNL    H53  109  -0.337  -0.184   0.262
    1UNL    H54  110  -0.589  -0.445   0.516
    1UNL    H55  111  -0.640  -0.278   0.492
    1UNL    H56  112  -0.683  -0.392   0.369
   0.00000   0.00000   0.00000   0.00000   0.00000   0.00000   0.00000   0.00000   0.00000
Generated with MDTraj, t= 57.0
 112
    1UNL     C1    1  -0.546   0.175  -0.135
    1UNL     C2    2  -0.509   0.129  -0.003
    1UNL     C3    3  -0.505   0.005   0.041
    1UNL     C4    4  -0.578  -0.107  -0.020
    1UNL     N1    5  -0.489  -0.234  -0.044
    1UNL     C5    6  -0.559  -0.359  -0.085
    1UNL     C6    7  -0.388  -0.261   0.061
    1UNL     C7    8  -0.248  -0.235  -0.001
    1UNL     C8    9  -0.236  -0.100  -0.065
    1UNL     C9   10  -0.199   0.019  -0.002
    1UNL     N2   11  -0.206   0.111  -0.100
    1UNL    C10   12  -0.230   0.060  -0.228
    1UNL    C11   13  -0.248   0.125  -0.347
    1UNL    C12   14  -0.280   0.045  -0.450
    1UNL    C13   15  -0.279  -0.099  -0.438
    1UNL    C14   16  -0.281  -0.160  -0.319
    1UNL    C15   17  -0.258  -0.079  -0.205
    1UNL    C16   18  -0.186   0.052   0.148
    1UNL    C17   19  -0.090   0.167   0.179
    1UNL    C18   20  -0.108   0.257   0.285
    1UNL     O1   21  -0.228   0.258   0.369
    1UNL    C19   22  -0.196   0.282   0.511
    1UNL    C20   23  -0.006   0.356   0.314
    1UNL    C21   24   0.114   0.361   0.245
    1UNL    C22   25   0.134   0.260   0.148
    1UNL    C23   26   0.255   0.217   0.082
    1UNL    C24   27   0.221   0.116  -0.007
    1UNL     N3   28   0.086   0.097   0.007
    1UNL    C25   29   0.029   0.175   0.102
    1UNL    C26   30   0.306   0.046  -0.110
    1UNL    C27   31   0.211  -0.002  -0.215
    1UNL     O2   32   0.177   0.073  -0.302
    1UNL     O3   33   0.162  -0.130  -0.210
    1UNL    C28   34   0.070  -0.157  -0.318
    1UNL    C29   35   0.366  -0.078  -0.035
    1UNL    C30   36   0.517  -0.094  -0.058
    1UNL    C31   37   0.551  -0.097  -0.208
    1UNL    C32   38   0.505   0.041  -0.279
    1UNL    C33   39   0.450   0.036  -0.422
    1UNL    C34   40   0.423   0.172  -0.490
    1UNL    C35   41   0.435   0.128  -0.172
    1UNL     N4   42   0.532   0.156  -0.063
    1UNL    C36   43   0.510   0.284   0.011
    1UNL    C37   44   0.393   0.274   0.120
    1UNL    C38   45   0.590   0.030  -0.002
    1UNL    C39   46   0.597   0.021   0.144
    1UNL    C40   47   0.686  -0.091   0.203
    1UNL    C41   48   0.642  -0.189   0.301
    1UNL     O4   49   0.804  -0.078   0.179
    1UNL    C42   50  -0.324   0.060   0.219
    1UNL    C43   51  -0.439  -0.029   0.175
    1UNL    C44   52  -0.408  -0.182   0.190
    1UNL    C45   53  -0.516  -0.242   0.277
    1UNL     O5   54  -0.632  -0.230   0.244
    1UNL     O6   55  -0.488  -0.319   0.385
    1UNL    C46   56  -0.604  -0.379   0.426
    1UNL     H1   57  -0.452   0.211  -0.190
    1UNL     H2   58  -0.600   0.278  -0.133
    1UNL     H3   59  -0.589   0.102  -0.196
    1UNL     H4   60  -0.474   0.212   0.053
    1UNL     H5   61  -0.632  -0.082  -0.118
    1UNL     H6   62  -0.652  -0.147   0.051
    1UNL     H7   63  -0.641  -0.330  -0.154
    1UNL     H8   64  -0.601  -0.397   0.005
    1UNL     H9   65  -0.493  -0.428  -0.133
    1UNL    H10   66  -0.391  -0.375   0.069
    1UNL    H11   67  -0.201  -0.316  -0.061
    1UNL    H12   68  -0.175  -0.250   0.081
    1UNL    H13   69  -0.182   0.208  -0.085
    1UNL    H14   70  -0.247   0.229  -0.348
    1UNL    H15   71  -0.280   0.088  -0.546
    1UNL    H16   72  -0.293  -0.158  -0.524
    1UNL    H17   73  -0.283  -0.268  -0.301
    1UNL    H18   74  -0.132  -0.041   0.175
    1UNL    H19   75  -0.215   0.387   0.537
    1UNL    H20   76  -0.100   0.246   0.528
    1UNL    H21   77  -0.258   0.213   0.570
    1UNL    H22   78  -0.020   0.429   0.391
    1UNL    H23   79   0.188   0.438   0.259
    1UNL    H24   80   0.036   0.032  -0.050
    1UNL    H25   81   0.039  -0.265  -0.319
    1UNL    H26   82   0.111  -0.130  -0.419
    1UNL    H27   83  -0.027  -0.092  -0.302
    1UNL    H28   84   0.317  -0.173  -0.062
    1UNL    H29   85   0.348  -0.060   0.074
    1UNL    H30   86   0.558  -0.183  -0.004
    1UNL    H31   87   0.505  -0.182  -0.261
    1UNL    H32   88   0.663  -0.116  -0.210
    1UNL    H33   89   0.598   0.103  -0.279
    1UNL    H34   90   0.520  -0.019  -0.476
    1UNL    H35   91   0.354  -0.016  -0.414
    1UNL    H36   92   0.329   0.228  -0.441
    1UNL    H37   93   0.510   0.239  -0.480
    1UNL    H38   94   0.392   0.168  -0.595
    1UNL    H39   95   0.403   0.221  -0.217
    1UNL    H40   96   0.493   0.367  -0.058
    1UNL    H41   97   0.606   0.314   0.054
    1UNL    H42   98   0.376   0.373   0.150
    1UNL    H43   99   0.417   0.220   0.210
    1UNL    H44  100   0.700   0.048  -0.032
    1UNL    H45  101   0.494   0.018   0.187
    1UNL    H46  102   0.637   0.113   0.191
    1UNL    H47  103   0.541  -0.225   0.271
    1UNL    H48  104   0.706  -0.279   0.295
    1UNL    H49  105   0.642  -0.147   0.405
    1UNL    H50  106  -0.309   0.034   0.325
    1UNL    H51  107  -0.351   0.168   0.231
    1UNL    H52  108  -0.520  -0.017   0.244
    1UNL    H53  109  -0.319  -0.204   0.251
    1UNL    H54  110  -0.612  -0.421   0.527
    1UNL    H55  111  -0.694  -0.326   0.397
    1UNL    H56  112  -0.600  -0.480   0.374
   0.00000   0.00000   0.00000   0.00000   0.00000   0.00000   0.00000   0.00000   0.00000
Generated with MDTraj, t= 58.0
 112
    1UNL     C1    1  -0.593   0.147  -0.140
    1UNL     C2    2  -0.507   0.118  -0.023
    1UNL     C3    3  -0.490  -0.001   0.030
    1UNL     C4    4  -0.564  -0.119  -0.031
    1UNL     N1    5  -0.476  -0.239  -0.039
    1UNL     C5    6  -0.538  -0.368  -0.077
    1UNL     C6    7  -0.368  -0.254   0.067
    1UNL     C7    8  -0.234  -0.205   0.007
    1UNL     C8    9  -0.239  -0.074  -0.065
    1UNL     C9   10  -0.214   0.048  -0.005
    1UNL     N2   11  -0.203   0.148  -0.098
    1UNL    C10   12  -0.234   0.092  -0.220
    1UNL    C11   13  -0.249   0.139  -0.352
    1UNL    C12   14  -0.287   0.060  -0.456
    1UNL    C13   15  -0.317  -0.075  -0.428
    1UNL    C14   16  -0.300  -0.133  -0.309
    1UNL    C15   17  -0.258  -0.046  -0.202
    1UNL    C16   18  -0.196   0.058   0.142
    1UNL    C17   19  -0.097   0.168   0.167
    1UNL    C18   20  -0.116   0.259   0.271
    1UNL     O1   21  -0.224   0.247   0.362
    1UNL    C19   22  -0.189   0.249   0.504
    1UNL    C20   23  -0.017   0.364   0.286
    1UNL    C21   24   0.095   0.377   0.209
    1UNL    C22   25   0.122   0.267   0.125
    1UNL    C23   26   0.248   0.235   0.062
    1UNL    C24   27   0.208   0.130  -0.020
    1UNL     N3   28   0.088   0.080   0.012
    1UNL    C25   29   0.030   0.167   0.102
    1UNL    C26   30   0.300   0.043  -0.101
    1UNL    C27   31   0.209  -0.018  -0.215
    1UNL     O2   32   0.197   0.042  -0.318
    1UNL     O3   33   0.136  -0.131  -0.182
    1UNL    C28   34   0.063  -0.167  -0.297
    1UNL    C29   35   0.357  -0.071  -0.007
    1UNL    C30   36   0.506  -0.088  -0.035
    1UNL    C31   37   0.543  -0.109  -0.188
    1UNL    C32   38   0.521   0.031  -0.259
    1UNL    C33   39   0.467   0.028  -0.400
    1UNL    C34   40   0.446   0.169  -0.457
    1UNL    C35   41   0.432   0.117  -0.164
    1UNL     N4   42   0.530   0.160  -0.051
    1UNL    C36   43   0.506   0.286   0.024
    1UNL    C37   44   0.377   0.294   0.108
    1UNL    C38   45   0.581   0.038   0.024
    1UNL    C39   46   0.608   0.017   0.171
    1UNL    C40   47   0.703  -0.103   0.186
    1UNL    C41   48   0.665  -0.210   0.276
    1UNL     O4   49   0.807  -0.107   0.126
    1UNL    C42   50  -0.329   0.064   0.220
    1UNL    C43   51  -0.442  -0.028   0.173
    1UNL    C44   52  -0.401  -0.179   0.193
    1UNL    C45   53  -0.511  -0.253   0.273
    1UNL     O5   54  -0.626  -0.250   0.237
    1UNL     O6   55  -0.467  -0.327   0.373
    1UNL    C46   56  -0.573  -0.384   0.436
    1UNL     H1   57  -0.547   0.101  -0.230
    1UNL     H2   58  -0.586   0.262  -0.167
    1UNL     H3   59  -0.690   0.104  -0.127
    1UNL     H4   60  -0.476   0.208   0.033
    1UNL     H5   61  -0.598  -0.101  -0.132
    1UNL     H6   62  -0.647  -0.142   0.042
    1UNL     H7   63  -0.596  -0.368  -0.173
    1UNL     H8   64  -0.592  -0.395   0.008
    1UNL     H9   65  -0.455  -0.435  -0.085
    1UNL    H10   66  -0.364  -0.362   0.089
    1UNL    H11   67  -0.193  -0.287  -0.058
    1UNL    H12   68  -0.155  -0.216   0.078
    1UNL    H13   69  -0.173   0.244  -0.075
    1UNL    H14   70  -0.198   0.234  -0.373
    1UNL    H15   71  -0.284   0.106  -0.560
    1UNL    H16   72  -0.351  -0.133  -0.514
    1UNL    H17   73  -0.323  -0.233  -0.290
    1UNL    H18   74  -0.145  -0.037   0.167
    1UNL    H19   75  -0.086   0.214   0.508
    1UNL    H20   76  -0.270   0.207   0.557
    1UNL    H21   77  -0.189   0.354   0.532
    1UNL    H22   78  -0.022   0.438   0.369
    1UNL    H23   79   0.169   0.457   0.212
    1UNL    H24   80   0.040   0.011  -0.047
    1UNL    H25   81   0.033  -0.273  -0.289
    1UNL    H26   82   0.113  -0.157  -0.395
    1UNL    H27   83  -0.033  -0.102  -0.302
    1UNL    H28   84   0.308  -0.160  -0.047
    1UNL    H29   85   0.337  -0.059   0.103
    1UNL    H30   86   0.545  -0.176   0.013
    1UNL    H31   87   0.477  -0.188  -0.225
    1UNL    H32   88   0.650  -0.145  -0.203
    1UNL    H33   89   0.618   0.089  -0.252
    1UNL    H34   90   0.538  -0.021  -0.458
    1UNL    H35   91   0.373  -0.030  -0.395
    1UNL    H36   92   0.357   0.229  -0.411
    1UNL    H37   93   0.541   0.226  -0.449
    1UNL    H38   94   0.415   0.163  -0.564
    1UNL    H39   95   0.412   0.209  -0.219
    1UNL    H40   96   0.509   0.369  -0.047
    1UNL    H41   97   0.590   0.317   0.086
    1UNL    H42   98   0.358   0.395   0.130
    1UNL    H43   99   0.409   0.244   0.201
    1UNL    H44  100   0.688   0.028  -0.014
    1UNL    H45  101   0.512  -0.008   0.225
    1UNL    H46  102   0.654   0.096   0.232
    1UNL    H47  103   0.579  -0.177   0.337
    1UNL    H48  104   0.629  -0.297   0.216
    1UNL    H49  105   0.754  -0.235   0.339
    1UNL    H50  106  -0.307   0.034   0.324
    1UNL    H51  107  -0.371   0.166   0.228
    1UNL    H52  108  -0.526  -0.007   0.239
    1UNL    H53  109  -0.316  -0.190   0.263
    1UNL    H54  110  -0.554  -0.470   0.500
    1UNL    H55  111  -0.638  -0.312   0.482
    1UNL    H56  112  -0.635  -0.434   0.358
   0.00000   0.00000   0.00000   0.00000   0.00000   0.00000   0.00000   0.00000   0.00000
Generated with MDTraj, t= 59.0
 112
    1UNL     C1    1  -0.603   0.141  -0.157
    1UNL     C2    2  -0.548   0.109  -0.023
    1UNL     C3    3  -0.508  -0.009   0.023
    1UNL     C4    4  -0.565  -0.138  -0.040
    1UNL     N1    5  -0.475  -0.263  -0.032
    1UNL     C5    6  -0.538  -0.401  -0.063
    1UNL     C6    7  -0.356  -0.252   0.059
    1UNL     C7    8  -0.233  -0.223  -0.015
    1UNL     C8    9  -0.232  -0.080  -0.073
    1UNL     C9   10  -0.208   0.043  -0.006
    1UNL     N2   11  -0.215   0.144  -0.100
    1UNL    C10   12  -0.244   0.094  -0.222
    1UNL    C11   13  -0.272   0.166  -0.336
    1UNL    C12   14  -0.310   0.100  -0.450
    1UNL    C13   15  -0.318  -0.039  -0.443
    1UNL    C14   16  -0.285  -0.113  -0.326
    1UNL    C15   17  -0.250  -0.043  -0.209
    1UNL    C16   18  -0.195   0.074   0.140
    1UNL    C17   19  -0.101   0.193   0.165
    1UNL    C18   20  -0.121   0.285   0.272
    1UNL     O1   21  -0.237   0.277   0.359
    1UNL    C19   22  -0.207   0.242   0.491
    1UNL    C20   23  -0.021   0.378   0.302
    1UNL    C21   24   0.101   0.375   0.246
    1UNL    C22   25   0.130   0.277   0.147
    1UNL    C23   26   0.249   0.225   0.086
    1UNL    C24   27   0.219   0.123  -0.002
    1UNL     N3   28   0.086   0.093   0.014
    1UNL    C25   29   0.022   0.187   0.096
    1UNL    C26   30   0.298   0.036  -0.092
    1UNL    C27   31   0.210  -0.026  -0.201
    1UNL     O2   32   0.199   0.033  -0.304
    1UNL     O3   33   0.134  -0.138  -0.168
    1UNL    C28   34   0.050  -0.172  -0.276
    1UNL    C29   35   0.355  -0.087  -0.011
    1UNL    C30   36   0.506  -0.099  -0.041
    1UNL    C31   37   0.526  -0.113  -0.194
    1UNL    C32   38   0.504   0.027  -0.264
    1UNL    C33   39   0.466   0.011  -0.417
    1UNL    C34   40   0.467   0.144  -0.482
    1UNL    C35   41   0.418   0.111  -0.156
    1UNL     N4   42   0.519   0.148  -0.048
    1UNL    C36   43   0.494   0.268   0.034
    1UNL    C37   44   0.387   0.273   0.131
    1UNL    C38   45   0.589   0.028   0.009
    1UNL    C39   46   0.619   0.019   0.154
    1UNL    C40   47   0.714  -0.098   0.182
    1UNL    C41   48   0.670  -0.174   0.303
    1UNL     O4   49   0.816  -0.120   0.125
    1UNL    C42   50  -0.337   0.084   0.202
    1UNL    C43   51  -0.444  -0.025   0.164
    1UNL    C44   52  -0.389  -0.167   0.182
    1UNL    C45   53  -0.485  -0.249   0.263
    1UNL     O5   54  -0.602  -0.249   0.236
    1UNL     O6   55  -0.432  -0.328   0.364
    1UNL    C46   56  -0.532  -0.386   0.430
    1UNL     H1   57  -0.679   0.070  -0.189
    1UNL     H2   58  -0.518   0.132  -0.233
    1UNL     H3   59  -0.654   0.242  -0.160
    1UNL     H4   60  -0.550   0.192   0.044
    1UNL     H5   61  -0.577  -0.112  -0.139
    1UNL     H6   62  -0.662  -0.161   0.014
    1UNL     H7   63  -0.626  -0.386  -0.129
    1UNL     H8   64  -0.561  -0.448   0.028
    1UNL     H9   65  -0.468  -0.466  -0.112
    1UNL    H10   66  -0.352  -0.351   0.101
    1UNL    H11   67  -0.207  -0.294  -0.098
    1UNL    H12   68  -0.149  -0.237   0.045
    1UNL    H13   69  -0.204   0.246  -0.082
    1UNL    H14   70  -0.247   0.272  -0.345
    1UNL    H15   71  -0.339   0.143  -0.538
    1UNL    H16   72  -0.366  -0.088  -0.530
    1UNL    H17   73  -0.308  -0.221  -0.324
    1UNL    H18   74  -0.142  -0.012   0.184
    1UNL    H19   75  -0.300   0.207   0.530
    1UNL    H20   76  -0.161   0.328   0.533
    1UNL    H21   77  -0.140   0.153   0.485
    1UNL    H22   78  -0.048   0.445   0.378
    1UNL    H23   79   0.179   0.441   0.276
    1UNL    H24   80   0.050   0.018  -0.040
    1UNL    H25   81  -0.045  -0.188  -0.229
    1UNL    H26   82   0.063  -0.266  -0.330
    1UNL    H27   83   0.040  -0.091  -0.350
    1UNL    H28   84   0.300  -0.175  -0.046
    1UNL    H29   85   0.332  -0.077   0.097
    1UNL    H30   86   0.538  -0.186   0.008
    1UNL    H31   87   0.445  -0.181  -0.226
    1UNL    H32   88   0.627  -0.163  -0.219
    1UNL    H33   89   0.603   0.084  -0.267
    1UNL    H34   90   0.526  -0.063  -0.458
    1UNL    H35   91   0.363  -0.031  -0.421
    1UNL    H36   92   0.395   0.207  -0.435
    1UNL    H37   93   0.570   0.190  -0.469
    1UNL    H38   94   0.434   0.141  -0.592
    1UNL    H39   95   0.389   0.199  -0.211
    1UNL    H40   96   0.495   0.361  -0.026
    1UNL    H41   97   0.587   0.287   0.086
    1UNL    H42   98   0.371   0.371   0.167
    1UNL    H43   99   0.420   0.211   0.218
    1UNL    H44  100   0.690   0.031  -0.038
    1UNL    H45  101   0.528  -0.000   0.219
    1UNL    H46  102   0.670   0.109   0.190
    1UNL    H47  103   0.684  -0.114   0.393
    1UNL    H48  104   0.558  -0.185   0.300
    1UNL    H49  105   0.722  -0.271   0.311
    1UNL    H50  106  -0.318   0.091   0.312
    1UNL    H51  107  -0.381   0.179   0.172
    1UNL    H52  108  -0.524   0.004   0.237
    1UNL    H53  109  -0.300  -0.161   0.247
    1UNL    H54  110  -0.503  -0.464   0.500
    1UNL    H55  111  -0.580  -0.313   0.490
    1UNL    H56  112  -0.613  -0.424   0.364
   0.00000   0.00000   0.00000   0.00000   0.00000   0.00000   0.00000   0.00000   0.00000
Generated with MDTraj, t= 60.0
 112
    1UNL     C1    1  -0.605   0.129  -0.175
    1UNL     C2    2  -0.525   0.105  -0.053
    1UNL     C3    3  -0.497  -0.009   0.009
    1UNL     C4    4  -0.557  -0.142  -0.037
    1UNL     N1    5  -0.468  -0.257  -0.049
    1UNL     C5    6  -0.542  -0.387  -0.024
    1UNL     C6    7  -0.341  -0.234   0.038
    1UNL     C7    8  -0.220  -0.185  -0.030
    1UNL     C8    9  -0.226  -0.047  -0.093
    1UNL     C9   10  -0.213   0.068  -0.026
    1UNL     N2   11  -0.249   0.176  -0.106
    1UNL    C10   12  -0.264   0.125  -0.234
    1UNL    C11   13  -0.294   0.187  -0.355
    1UNL    C12   14  -0.323   0.102  -0.460
    1UNL    C13   15  -0.311  -0.038  -0.459
    1UNL    C14   16  -0.287  -0.099  -0.338
    1UNL    C15   17  -0.261  -0.015  -0.229
    1UNL    C16   18  -0.189   0.074   0.124
    1UNL    C17   19  -0.097   0.172   0.174
    1UNL    C18   20  -0.122   0.261   0.278
    1UNL     O1   21  -0.255   0.269   0.336
    1UNL    C19   22  -0.259   0.278   0.479
    1UNL    C20   23  -0.006   0.341   0.322
    1UNL    C21   24   0.123   0.331   0.279
    1UNL    C22   25   0.138   0.241   0.172
    1UNL    C23   26   0.255   0.210   0.091
    1UNL    C24   27   0.220   0.110   0.006
    1UNL     N3   28   0.088   0.084   0.018
    1UNL    C25   29   0.034   0.171   0.117
    1UNL    C26   30   0.300   0.030  -0.092
    1UNL    C27   31   0.192  -0.013  -0.187
    1UNL     O2   32   0.167   0.051  -0.285
    1UNL     O3   33   0.136  -0.131  -0.147
    1UNL    C28   34   0.063  -0.183  -0.254
    1UNL    C29   35   0.357  -0.094  -0.020
    1UNL    C30   36   0.509  -0.112  -0.047
    1UNL    C31   37   0.527  -0.131  -0.197
    1UNL    C32   38   0.490   0.010  -0.263
    1UNL    C33   39   0.432   0.005  -0.406
    1UNL    C34   40   0.455   0.131  -0.491
    1UNL    C35   41   0.416   0.100  -0.164
    1UNL     N4   42   0.510   0.145  -0.055
    1UNL    C36   43   0.494   0.274   0.017
    1UNL    C37   44   0.391   0.253   0.132
    1UNL    C38   45   0.581   0.020   0.001
    1UNL    C39   46   0.611   0.016   0.148
    1UNL    C40   47   0.709  -0.085   0.202
    1UNL    C41   48   0.695  -0.132   0.342
    1UNL     O4   49   0.804  -0.123   0.137
    1UNL    C42   50  -0.333   0.083   0.195
    1UNL    C43   51  -0.435  -0.026   0.156
    1UNL    C44   52  -0.377  -0.167   0.180
    1UNL    C45   53  -0.469  -0.250   0.270
    1UNL     O5   54  -0.588  -0.251   0.260
    1UNL     O6   55  -0.402  -0.325   0.366
    1UNL    C46   56  -0.484  -0.406   0.438
    1UNL     H1   57  -0.712   0.131  -0.150
    1UNL     H2   58  -0.589   0.047  -0.243
    1UNL     H3   59  -0.587   0.236  -0.221
    1UNL     H4   60  -0.498   0.200  -0.005
    1UNL     H5   61  -0.609  -0.137  -0.125
    1UNL     H6   62  -0.626  -0.168   0.050
    1UNL     H7   63  -0.608  -0.407  -0.106
    1UNL     H8   64  -0.592  -0.398   0.071
    1UNL     H9   65  -0.466  -0.463  -0.032
    1UNL    H10   66  -0.320  -0.333   0.068
    1UNL    H11   67  -0.178  -0.252  -0.109
    1UNL    H12   68  -0.138  -0.185   0.034
    1UNL    H13   69  -0.253   0.278  -0.081
    1UNL    H14   70  -0.309   0.289  -0.367
    1UNL    H15   71  -0.346   0.155  -0.558
    1UNL    H16   72  -0.335  -0.098  -0.540
    1UNL    H17   73  -0.292  -0.203  -0.336
    1UNL    H18   74  -0.142  -0.022   0.155
    1UNL    H19   75  -0.192   0.354   0.516
    1UNL    H20   76  -0.234   0.175   0.509
    1UNL    H21   77  -0.366   0.298   0.505
    1UNL    H22   78  -0.039   0.426   0.388
    1UNL    H23   79   0.213   0.374   0.321
    1UNL    H24   80   0.028   0.025  -0.035
    1UNL    H25   81   0.037  -0.280  -0.224
    1UNL    H26   82   0.107  -0.195  -0.351
    1UNL    H27   83  -0.024  -0.127  -0.275
    1UNL    H28   84   0.294  -0.183  -0.042
    1UNL    H29   85   0.341  -0.082   0.088
    1UNL    H30   86   0.544  -0.191   0.008
    1UNL    H31   87   0.455  -0.202  -0.244
    1UNL    H32   88   0.633  -0.167  -0.213
    1UNL    H33   89   0.593   0.062  -0.279
    1UNL    H34   90   0.469  -0.082  -0.451
    1UNL    H35   91   0.327  -0.027  -0.398
    1UNL    H36   92   0.426   0.216  -0.440
    1UNL    H37   93   0.566   0.141  -0.515
    1UNL    H38   94   0.391   0.129  -0.588
    1UNL    H39   95   0.378   0.189  -0.214
    1UNL    H40   96   0.456   0.352  -0.052
    1UNL    H41   97   0.586   0.325   0.044
    1UNL    H42   98   0.395   0.342   0.189
    1UNL    H43   99   0.423   0.174   0.207
    1UNL    H44  100   0.678   0.031  -0.048
    1UNL    H45  101   0.511   0.008   0.200
    1UNL    H46  102   0.656   0.114   0.177
    1UNL    H47  103   0.784  -0.119   0.404
    1UNL    H48  104   0.620  -0.072   0.401
    1UNL    H49  105   0.669  -0.240   0.341
    1UNL    H50  106  -0.320   0.076   0.307
    1UNL    H51  107  -0.360   0.186   0.180
    1UNL    H52  108  -0.520  -0.010   0.229
    1UNL    H53  109  -0.282  -0.155   0.232
    1UNL    H54  110  -0.457  -0.417   0.542
    1UNL    H55  111  -0.580  -0.355   0.448
    1UNL    H56  112  -0.521  -0.500   0.388
   0.00000   0.00000   0.00000   0.00000   0.00000   0.00000   0.00000   0.00000   0.00000
Generated with MDTraj, t= 61.0
 112
    1UNL     C1    1  -0.580   0.125  -0.174
    1UNL     C2    2  -0.533   0.108  -0.039
    1UNL     C3    3  -0.508  -0.012   0.012
    1UNL     C4    4  -0.564  -0.139  -0.042
    1UNL     N1    5  -0.465  -0.259  -0.046
    1UNL     C5    6  -0.530  -0.386  -0.018
    1UNL     C6    7  -0.335  -0.245   0.040
    1UNL     C7    8  -0.225  -0.182  -0.043
    1UNL     C8    9  -0.238  -0.043  -0.097
    1UNL     C9   10  -0.219   0.076  -0.028
    1UNL     N2   11  -0.235   0.186  -0.111
    1UNL    C10   12  -0.255   0.138  -0.241
    1UNL    C11   13  -0.285   0.201  -0.368
    1UNL    C12   14  -0.313   0.126  -0.479
    1UNL    C13   15  -0.335  -0.010  -0.466
    1UNL    C14   16  -0.299  -0.076  -0.351
    1UNL    C15   17  -0.265  -0.007  -0.235
    1UNL    C16   18  -0.202   0.075   0.119
    1UNL    C17   19  -0.099   0.173   0.174
    1UNL    C18   20  -0.119   0.262   0.283
    1UNL     O1   21  -0.251   0.294   0.333
    1UNL    C19   22  -0.258   0.346   0.471
    1UNL    C20   23  -0.005   0.332   0.339
    1UNL    C21   24   0.124   0.303   0.298
    1UNL    C22   25   0.140   0.221   0.180
    1UNL    C23   26   0.253   0.197   0.101
    1UNL    C24   27   0.211   0.103   0.004
    1UNL     N3   28   0.074   0.087   0.014
    1UNL    C25   29   0.029   0.151   0.123
    1UNL    C26   30   0.294   0.006  -0.080
    1UNL    C27   31   0.197  -0.046  -0.191
    1UNL     O2   32   0.150   0.040  -0.266
    1UNL     O3   33   0.165  -0.181  -0.193
    1UNL    C28   34   0.056  -0.186  -0.280
    1UNL    C29   35   0.365  -0.112  -0.001
    1UNL    C30   36   0.514  -0.107  -0.034
    1UNL    C31   37   0.533  -0.120  -0.188
    1UNL    C32   38   0.490   0.014  -0.260
    1UNL    C33   39   0.421  -0.012  -0.391
    1UNL    C34   40   0.397   0.115  -0.477
    1UNL    C35   41   0.401   0.090  -0.158
    1UNL     N4   42   0.498   0.140  -0.056
    1UNL    C36   43   0.481   0.266   0.018
    1UNL    C37   44   0.382   0.254   0.135
    1UNL    C38   45   0.578   0.030   0.010
    1UNL    C39   46   0.598   0.028   0.162
    1UNL    C40   47   0.700  -0.070   0.209
    1UNL    C41   48   0.725  -0.097   0.354
    1UNL     O4   49   0.767  -0.134   0.130
    1UNL    C42   50  -0.338   0.089   0.190
    1UNL    C43   51  -0.427  -0.030   0.146
    1UNL    C44   52  -0.368  -0.167   0.174
    1UNL    C45   53  -0.446  -0.256   0.265
    1UNL     O5   54  -0.563  -0.272   0.259
    1UNL     O6   55  -0.366  -0.316   0.359
    1UNL    C46   56  -0.440  -0.406   0.432
    1UNL     H1   57  -0.669   0.059  -0.194
    1UNL     H2   58  -0.509   0.099  -0.248
    1UNL     H3   59  -0.624   0.232  -0.190
    1UNL     H4   60  -0.497   0.201   0.001
    1UNL     H5   61  -0.623  -0.131  -0.130
    1UNL     H6   62  -0.641  -0.180   0.030
    1UNL     H7   63  -0.611  -0.392  -0.083
    1UNL     H8   64  -0.564  -0.403   0.085
    1UNL     H9   65  -0.465  -0.467  -0.049
    1UNL    H10   66  -0.306  -0.342   0.067
    1UNL    H11   67  -0.210  -0.257  -0.127
    1UNL    H12   68  -0.128  -0.192  -0.006
    1UNL    H13   69  -0.227   0.286  -0.083
    1UNL    H14   70  -0.287   0.315  -0.360
    1UNL    H15   71  -0.321   0.175  -0.570
    1UNL    H16   72  -0.356  -0.071  -0.561
    1UNL    H17   73  -0.311  -0.185  -0.342
    1UNL    H18   74  -0.166  -0.021   0.162
    1UNL    H19   75  -0.286   0.266   0.541
    1UNL    H20   76  -0.337   0.426   0.463
    1UNL    H21   77  -0.175   0.402   0.513
    1UNL    H22   78  -0.007   0.391   0.425
    1UNL    H23   79   0.212   0.327   0.356
    1UNL    H24   80   0.020   0.034  -0.049
    1UNL    H25   81   0.032  -0.287  -0.296
    1UNL    H26   82   0.075  -0.146  -0.375
    1UNL    H27   83  -0.025  -0.128  -0.251
    1UNL    H28   84   0.327  -0.209  -0.040
    1UNL    H29   85   0.338  -0.114   0.105
    1UNL    H30   86   0.556  -0.192   0.006
    1UNL    H31   87   0.468  -0.203  -0.227
    1UNL    H32   88   0.637  -0.138  -0.229
    1UNL    H33   89   0.587   0.079  -0.283
    1UNL    H34   90   0.475  -0.082  -0.447
    1UNL    H35   91   0.331  -0.072  -0.374
    1UNL    H36   92   0.313   0.171  -0.438
    1UNL    H37   93   0.489   0.180  -0.479
    1UNL    H38   94   0.366   0.085  -0.582
    1UNL    H39   95   0.342   0.177  -0.187
    1UNL    H40   96   0.456   0.350  -0.050
    1UNL    H41   97   0.579   0.298   0.050
    1UNL    H42   98   0.357   0.343   0.192
    1UNL    H43   99   0.430   0.187   0.211
    1UNL    H44  100   0.675   0.039  -0.035
    1UNL    H45  101   0.497   0.010   0.202
    1UNL    H46  102   0.624   0.135   0.191
    1UNL    H47  103   0.818  -0.156   0.367
    1UNL    H48  104   0.752  -0.008   0.414
    1UNL    H49  105   0.646  -0.159   0.399
    1UNL    H50  106  -0.312   0.086   0.300
    1UNL    H51  107  -0.393   0.180   0.178
    1UNL    H52  108  -0.515  -0.028   0.220
    1UNL    H53  109  -0.276  -0.164   0.230
    1UNL    H54  110  -0.376  -0.463   0.501
    1UNL    H55  111  -0.504  -0.352   0.504
    1UNL    H56  112  -0.519  -0.465   0.374
   0.00000   0.00000   0.00000   0.00000   0.00000   0.00000   0.00000   0.00000   0.00000
Generated with MDTraj, t= 62.0
 112
    1UNL     C1    1  -0.614   0.129  -0.158
    1UNL     C2    2  -0.549   0.104  -0.027
    1UNL     C3    3  -0.506  -0.014   0.020
    1UNL     C4    4  -0.562  -0.139  -0.041
    1UNL     N1    5  -0.473  -0.262  -0.046
    1UNL     C5    6  -0.536  -0.397  -0.046
    1UNL     C6    7  -0.342  -0.247   0.034
    1UNL     C7    8  -0.231  -0.184  -0.054
    1UNL     C8    9  -0.240  -0.043  -0.101
    1UNL     C9   10  -0.217   0.068  -0.022
    1UNL     N2   11  -0.221   0.179  -0.101
    1UNL    C10   12  -0.243   0.146  -0.233
    1UNL    C11   13  -0.257   0.228  -0.349
    1UNL    C12   14  -0.299   0.161  -0.455
    1UNL    C13   15  -0.313   0.020  -0.460
    1UNL    C14   16  -0.296  -0.062  -0.352
    1UNL    C15   17  -0.268   0.006  -0.233
    1UNL    C16   18  -0.207   0.072   0.127
    1UNL    C17   19  -0.106   0.173   0.181
    1UNL    C18   20  -0.129   0.275   0.281
    1UNL     O1   21  -0.259   0.303   0.324
    1UNL    C19   22  -0.295   0.382   0.438
    1UNL    C20   23  -0.016   0.353   0.318
    1UNL    C21   24   0.112   0.333   0.277
    1UNL    C22   25   0.134   0.232   0.182
    1UNL    C23   26   0.252   0.200   0.102
    1UNL    C24   27   0.210   0.109   0.009
    1UNL     N3   28   0.074   0.075   0.027
    1UNL    C25   29   0.026   0.160   0.129
    1UNL    C26   30   0.292   0.012  -0.084
    1UNL    C27   31   0.194  -0.050  -0.190
    1UNL     O2   32   0.125   0.032  -0.249
    1UNL     O3   33   0.192  -0.187  -0.202
    1UNL    C28   34   0.113  -0.217  -0.313
    1UNL    C29   35   0.364  -0.115  -0.015
    1UNL    C30   36   0.521  -0.120  -0.046
    1UNL    C31   37   0.535  -0.120  -0.201
    1UNL    C32   38   0.475   0.011  -0.263
    1UNL    C33   39   0.404  -0.030  -0.390
    1UNL    C34   40   0.331   0.088  -0.448
    1UNL    C35   41   0.401   0.098  -0.152
    1UNL     N4   42   0.507   0.132  -0.045
    1UNL    C36   43   0.496   0.255   0.033
    1UNL    C37   44   0.389   0.238   0.140
    1UNL    C38   45   0.589   0.012   0.011
    1UNL    C39   46   0.609   0.019   0.160
    1UNL    C40   47   0.707  -0.076   0.208
    1UNL    C41   48   0.751  -0.058   0.354
    1UNL     O4   49   0.748  -0.163   0.140
    1UNL    C42   50  -0.348   0.081   0.192
    1UNL    C43   51  -0.442  -0.038   0.159
    1UNL    C44   52  -0.368  -0.170   0.170
    1UNL    C45   53  -0.432  -0.272   0.262
    1UNL     O5   54  -0.552  -0.284   0.257
    1UNL     O6   55  -0.340  -0.326   0.343
    1UNL    C46   56  -0.412  -0.401   0.439
    1UNL     H1   57  -0.728   0.118  -0.144
    1UNL     H2   58  -0.589   0.057  -0.235
    1UNL     H3   59  -0.606   0.235  -0.197
    1UNL     H4   60  -0.541   0.193   0.031
    1UNL     H5   61  -0.585  -0.119  -0.149
    1UNL     H6   62  -0.664  -0.156  -0.001
    1UNL     H7   63  -0.618  -0.403  -0.112
    1UNL     H8   64  -0.574  -0.423   0.055
    1UNL     H9   65  -0.469  -0.475  -0.079
    1UNL    H10   66  -0.310  -0.345   0.060
    1UNL    H11   67  -0.208  -0.250  -0.143
    1UNL    H12   68  -0.140  -0.208  -0.004
    1UNL    H13   69  -0.196   0.274  -0.073
    1UNL    H14   70  -0.244   0.329  -0.336
    1UNL    H15   71  -0.312   0.213  -0.552
    1UNL    H16   72  -0.333  -0.027  -0.549
    1UNL    H17   73  -0.289  -0.170  -0.357
    1UNL    H18   74  -0.157  -0.019   0.165
    1UNL    H19   75  -0.398   0.423   0.419
    1UNL    H20   76  -0.218   0.466   0.447
    1UNL    H21   77  -0.304   0.338   0.536
    1UNL    H22   78  -0.042   0.440   0.374
    1UNL    H23   79   0.187   0.395   0.316
    1UNL    H24   80   0.012   0.021  -0.031
    1UNL    H25   81   0.043  -0.295  -0.285
    1UNL    H26   82   0.173  -0.265  -0.390
    1UNL    H27   83   0.069  -0.133  -0.358
    1UNL    H28   84   0.315  -0.206  -0.056
    1UNL    H29   85   0.343  -0.112   0.092
    1UNL    H30   86   0.570  -0.196   0.004
    1UNL    H31   87   0.476  -0.200  -0.256
    1UNL    H32   88   0.642  -0.138  -0.230
    1UNL    H33   89   0.567   0.069  -0.312
    1UNL    H34   90   0.475  -0.069  -0.460
    1UNL    H35   91   0.334  -0.109  -0.370
    1UNL    H36   92   0.246   0.119  -0.374
    1UNL    H37   93   0.393   0.179  -0.458
    1UNL    H38   94   0.279   0.064  -0.541
    1UNL    H39   95   0.358   0.192  -0.190
    1UNL    H40   96   0.467   0.338  -0.037
    1UNL    H41   97   0.590   0.285   0.074
    1UNL    H42   98   0.391   0.333   0.198
    1UNL    H43   99   0.420   0.165   0.214
    1UNL    H44  100   0.687   0.019  -0.030
    1UNL    H45  101   0.514  -0.002   0.209
    1UNL    H46  102   0.632   0.129   0.184
    1UNL    H47  103   0.793  -0.152   0.398
    1UNL    H48  104   0.831   0.015   0.368
    1UNL    H49  105   0.662  -0.038   0.416
    1UNL    H50  106  -0.339   0.075   0.303
    1UNL    H51  107  -0.390   0.176   0.164
    1UNL    H52  108  -0.525  -0.044   0.238
    1UNL    H53  109  -0.276  -0.158   0.221
    1UNL    H54  110  -0.352  -0.475   0.492
    1UNL    H55  111  -0.443  -0.337   0.522
    1UNL    H56  112  -0.510  -0.439   0.397
   0.00000   0.00000   0.00000   0.00000   0.00000   0.00000   0.00000   0.00000   0.00000
Generated with MDTraj, t= 63.0
 112
    1UNL     C1    1  -0.621   0.135  -0.120
    1UNL     C2    2  -0.527   0.104  -0.016
    1UNL     C3    3  -0.509  -0.020   0.032
    1UNL     C4    4  -0.567  -0.142  -0.031
    1UNL     N1    5  -0.476  -0.247  -0.056
    1UNL     C5    6  -0.549  -0.383  -0.059
    1UNL     C6    7  -0.344  -0.247   0.013
    1UNL     C7    8  -0.225  -0.181  -0.064
    1UNL     C8    9  -0.251  -0.034  -0.096
    1UNL     C9   10  -0.238   0.070  -0.010
    1UNL     N2   11  -0.241   0.191  -0.086
    1UNL    C10   12  -0.257   0.155  -0.216
    1UNL    C11   13  -0.263   0.235  -0.328
    1UNL    C12   14  -0.278   0.178  -0.452
    1UNL    C13   15  -0.273   0.038  -0.473
    1UNL    C14   16  -0.258  -0.039  -0.362
    1UNL    C15   17  -0.254   0.018  -0.231
    1UNL    C16   18  -0.199   0.065   0.130
    1UNL    C17   19  -0.104   0.170   0.174
    1UNL    C18   20  -0.135   0.281   0.243
    1UNL     O1   21  -0.272   0.298   0.288
    1UNL    C19   22  -0.288   0.396   0.383
    1UNL    C20   23  -0.033   0.372   0.271
    1UNL    C21   24   0.100   0.351   0.245
    1UNL    C22   25   0.131   0.245   0.165
    1UNL    C23   26   0.247   0.201   0.100
    1UNL    C24   27   0.218   0.085   0.025
    1UNL     N3   28   0.082   0.060   0.042
    1UNL    C25   29   0.027   0.154   0.130
    1UNL    C26   30   0.293   0.003  -0.072
    1UNL    C27   31   0.189  -0.057  -0.166
    1UNL     O2   32   0.087   0.006  -0.199
    1UNL     O3   33   0.230  -0.174  -0.218
    1UNL    C28   34   0.117  -0.225  -0.288
    1UNL    C29   35   0.369  -0.116   0.002
    1UNL    C30   36   0.510  -0.124  -0.041
    1UNL    C31   37   0.518  -0.124  -0.192
    1UNL    C32   38   0.472   0.009  -0.254
    1UNL    C33   39   0.388  -0.020  -0.384
    1UNL    C34   40   0.323   0.104  -0.435
    1UNL    C35   41   0.392   0.089  -0.147
    1UNL     N4   42   0.499   0.130  -0.048
    1UNL    C36   43   0.484   0.262   0.019
    1UNL    C37   44   0.384   0.262   0.133
    1UNL    C38   45   0.581   0.009   0.011
    1UNL    C39   46   0.616   0.020   0.156
    1UNL    C40   47   0.719  -0.084   0.205
    1UNL    C41   48   0.800  -0.058   0.326
    1UNL     O4   49   0.725  -0.188   0.148
    1UNL    C42   50  -0.329   0.062   0.215
    1UNL    C43   51  -0.433  -0.049   0.162
    1UNL    C44   52  -0.362  -0.187   0.156
    1UNL    C45   53  -0.431  -0.276   0.261
    1UNL     O5   54  -0.551  -0.300   0.259
    1UNL     O6   55  -0.343  -0.347   0.346
    1UNL    C46   56  -0.415  -0.418   0.437
    1UNL     H1   57  -0.710   0.066  -0.103
    1UNL     H2   58  -0.580   0.109  -0.223
    1UNL     H3   59  -0.665   0.235  -0.108
    1UNL     H4   60  -0.473   0.189   0.028
    1UNL     H5   61  -0.615  -0.109  -0.133
    1UNL     H6   62  -0.651  -0.173   0.032
    1UNL     H7   63  -0.637  -0.387  -0.124
    1UNL     H8   64  -0.583  -0.407   0.042
    1UNL     H9   65  -0.487  -0.464  -0.095
    1UNL    H10   66  -0.321  -0.353   0.022
    1UNL    H11   67  -0.216  -0.239  -0.160
    1UNL    H12   68  -0.127  -0.204  -0.027
    1UNL    H13   69  -0.228   0.281  -0.043
    1UNL    H14   70  -0.251   0.345  -0.328
    1UNL    H15   71  -0.295   0.243  -0.537
    1UNL    H16   72  -0.300  -0.003  -0.574
    1UNL    H17   73  -0.248  -0.144  -0.377
    1UNL    H18   74  -0.145  -0.028   0.150
    1UNL    H19   75  -0.379   0.385   0.452
    1UNL    H20   76  -0.282   0.503   0.342
    1UNL    H21   77  -0.210   0.394   0.459
    1UNL    H22   78  -0.063   0.465   0.327
    1UNL    H23   79   0.179   0.419   0.284
    1UNL    H24   80   0.034   0.012  -0.031
    1UNL    H25   81   0.031  -0.232  -0.216
    1UNL    H26   82   0.142  -0.333  -0.315
    1UNL    H27   83   0.094  -0.165  -0.378
    1UNL    H28   84   0.313  -0.213  -0.006
    1UNL    H29   85   0.361  -0.081   0.107
    1UNL    H30   86   0.554  -0.206   0.005
    1UNL    H31   87   0.452  -0.213  -0.223
    1UNL    H32   88   0.614  -0.151  -0.241
    1UNL    H33   89   0.572   0.065  -0.291
    1UNL    H34   90   0.458  -0.048  -0.459
    1UNL    H35   91   0.317  -0.097  -0.369
    1UNL    H36   92   0.242   0.140  -0.356
    1UNL    H37   93   0.389   0.191  -0.446
    1UNL    H38   94   0.265   0.092  -0.527
    1UNL    H39   95   0.350   0.180  -0.189
    1UNL    H40   96   0.444   0.333  -0.061
    1UNL    H41   97   0.581   0.297   0.045
    1UNL    H42   98   0.368   0.364   0.182
    1UNL    H43   99   0.420   0.209   0.218
    1UNL    H44  100   0.669   0.006  -0.048
    1UNL    H45  101   0.524   0.005   0.214
    1UNL    H46  102   0.654   0.123   0.188
    1UNL    H47  103   0.789  -0.140   0.401
    1UNL    H48  104   0.905  -0.056   0.298
    1UNL    H49  105   0.763   0.034   0.374
    1UNL    H50  106  -0.293   0.043   0.318
    1UNL    H51  107  -0.372   0.162   0.217
    1UNL    H52  108  -0.512  -0.049   0.246
    1UNL    H53  109  -0.264  -0.173   0.189
    1UNL    H54  110  -0.356  -0.433   0.526
    1UNL    H55  111  -0.505  -0.367   0.468
    1UNL    H56  112  -0.439  -0.518   0.391
   0.00000   0.00000   0.00000   0.00000   0.00000   0.00000   0.00000   0.00000   0.00000
Generated with MDTraj, t= 64.0
 112
    1UNL     C1    1  -0.589   0.162  -0.101
    1UNL     C2    2  -0.546   0.099   0.028
    1UNL     C3    3  -0.516  -0.027   0.066
    1UNL     C4    4  -0.571  -0.136  -0.021
    1UNL     N1    5  -0.470  -0.237  -0.068
    1UNL     C5    6  -0.528  -0.373  -0.069
    1UNL     C6    7  -0.351  -0.243   0.019
    1UNL     C7    8  -0.239  -0.182  -0.066
    1UNL     C8    9  -0.253  -0.033  -0.099
    1UNL     C9   10  -0.239   0.070  -0.008
    1UNL     N2   11  -0.250   0.188  -0.075
    1UNL    C10   12  -0.260   0.163  -0.212
    1UNL    C11   13  -0.261   0.246  -0.324
    1UNL    C12   14  -0.260   0.191  -0.450
    1UNL    C13   15  -0.251   0.052  -0.467
    1UNL    C14   16  -0.246  -0.035  -0.357
    1UNL    C15   17  -0.254   0.025  -0.228
    1UNL    C16   18  -0.207   0.061   0.137
    1UNL    C17   19  -0.115   0.179   0.166
    1UNL    C18   20  -0.141   0.302   0.225
    1UNL     O1   21  -0.269   0.326   0.263
    1UNL    C19   22  -0.291   0.433   0.356
    1UNL    C20   23  -0.042   0.399   0.251
    1UNL    C21   24   0.090   0.375   0.220
    1UNL    C22   25   0.119   0.253   0.155
    1UNL    C23   26   0.243   0.198   0.104
    1UNL    C24   27   0.211   0.079   0.040
    1UNL     N3   28   0.078   0.053   0.059
    1UNL    C25   29   0.023   0.161   0.129
    1UNL    C26   30   0.285  -0.011  -0.059
    1UNL    C27   31   0.191  -0.080  -0.157
    1UNL     O2   32   0.110  -0.007  -0.214
    1UNL     O3   33   0.211  -0.214  -0.173
    1UNL    C28   34   0.112  -0.252  -0.267
    1UNL    C29   35   0.375  -0.118   0.005
    1UNL    C30   36   0.524  -0.115  -0.042
    1UNL    C31   37   0.522  -0.121  -0.196
    1UNL    C32   38   0.468   0.013  -0.252
    1UNL    C33   39   0.394  -0.004  -0.387
    1UNL    C34   40   0.335   0.120  -0.446
    1UNL    C35   41   0.382   0.079  -0.143
    1UNL     N4   42   0.488   0.130  -0.052
    1UNL    C36   43   0.470   0.258   0.021
    1UNL    C37   44   0.378   0.250   0.144
    1UNL    C38   45   0.589   0.014  -0.001
    1UNL    C39   46   0.620   0.025   0.145
    1UNL    C40   47   0.723  -0.077   0.191
    1UNL    C41   48   0.839  -0.051   0.280
    1UNL     O4   49   0.706  -0.196   0.168
    1UNL    C42   50  -0.327   0.051   0.231
    1UNL    C43   51  -0.432  -0.057   0.189
    1UNL    C44   52  -0.364  -0.194   0.163
    1UNL    C45   53  -0.430  -0.305   0.248
    1UNL     O5   54  -0.542  -0.341   0.217
    1UNL     O6   55  -0.356  -0.355   0.350
    1UNL    C46   56  -0.430  -0.452   0.410
    1UNL     H1   57  -0.701   0.149  -0.100
    1UNL     H2   58  -0.546   0.108  -0.198
    1UNL     H3   59  -0.573   0.268  -0.104
    1UNL     H4   60  -0.522   0.172   0.100
    1UNL     H5   61  -0.618  -0.081  -0.115
    1UNL     H6   62  -0.658  -0.178   0.030
    1UNL     H7   63  -0.626  -0.369  -0.123
    1UNL     H8   64  -0.550  -0.389   0.034
    1UNL     H9   65  -0.469  -0.454  -0.108
    1UNL    H10   66  -0.326  -0.352   0.035
    1UNL    H11   67  -0.210  -0.245  -0.152
    1UNL    H12   68  -0.143  -0.183  -0.011
    1UNL    H13   69  -0.231   0.280  -0.041
    1UNL    H14   70  -0.243   0.352  -0.314
    1UNL    H15   71  -0.282   0.246  -0.539
    1UNL    H16   72  -0.244   0.011  -0.566
    1UNL    H17   73  -0.253  -0.145  -0.376
    1UNL    H18   74  -0.150  -0.030   0.160
    1UNL    H19   75  -0.380   0.429   0.427
    1UNL    H20   76  -0.268   0.538   0.322
    1UNL    H21   77  -0.218   0.420   0.434
    1UNL    H22   78  -0.069   0.484   0.300
    1UNL    H23   79   0.162   0.446   0.250
    1UNL    H24   80   0.034  -0.036   0.049
    1UNL    H25   81   0.010  -0.233  -0.219
    1UNL    H26   82   0.128  -0.365  -0.288
    1UNL    H27   83   0.126  -0.185  -0.358
    1UNL    H28   84   0.330  -0.216  -0.021
    1UNL    H29   85   0.364  -0.104   0.116
    1UNL    H30   86   0.581  -0.192   0.002
    1UNL    H31   87   0.453  -0.203  -0.237
    1UNL    H32   88   0.618  -0.156  -0.238
    1UNL    H33   89   0.565   0.078  -0.281
    1UNL    H34   90   0.461  -0.046  -0.458
    1UNL    H35   91   0.312  -0.071  -0.375
    1UNL    H36   92   0.248   0.149  -0.381
    1UNL    H37   93   0.401   0.211  -0.449
    1UNL    H38   94   0.291   0.102  -0.546
    1UNL    H39   95   0.333   0.163  -0.190
    1UNL    H40   96   0.416   0.330  -0.051
    1UNL    H41   97   0.567   0.290   0.046
    1UNL    H42   98   0.376   0.348   0.205
    1UNL    H43   99   0.431   0.188   0.212
    1UNL    H44  100   0.670   0.024  -0.067
    1UNL    H45  101   0.532   0.005   0.211
    1UNL    H46  102   0.656   0.129   0.164
    1UNL    H47  103   0.808  -0.077   0.382
    1UNL    H48  104   0.919  -0.120   0.253
    1UNL    H49  105   0.865   0.056   0.281
    1UNL    H50  106  -0.287   0.031   0.332
    1UNL    H51  107  -0.368   0.155   0.240
    1UNL    H52  108  -0.502  -0.068   0.280
    1UNL    H53  109  -0.265  -0.185   0.199
    1UNL    H54  110  -0.377  -0.507   0.484
    1UNL    H55  111  -0.523  -0.417   0.451
    1UNL    H56  112  -0.441  -0.525   0.324
   0.00000   0.00000   0.00000   0.00000   0.00000   0.00000   0.00000   0.00000   0.00000
Generated with MDTraj, t= 65.0
 112
    1UNL     C1    1  -0.610   0.151  -0.082
    1UNL     C2    2  -0.521   0.113   0.028
    1UNL     C3    3  -0.509  -0.017   0.063
    1UNL     C4    4  -0.571  -0.133  -0.007
    1UNL     N1    5  -0.470  -0.216  -0.066
    1UNL     C5    6  -0.526  -0.332  -0.124
    1UNL     C6    7  -0.352  -0.239   0.024
    1UNL     C7    8  -0.232  -0.173  -0.056
    1UNL     C8    9  -0.254  -0.031  -0.089
    1UNL     C9   10  -0.239   0.076  -0.001
    1UNL     N2   11  -0.249   0.194  -0.069
    1UNL    C10   12  -0.260   0.168  -0.204
    1UNL    C11   13  -0.254   0.252  -0.320
    1UNL    C12   14  -0.257   0.191  -0.446
    1UNL    C13   15  -0.247   0.053  -0.447
    1UNL    C14   16  -0.256  -0.033  -0.341
    1UNL    C15   17  -0.262   0.026  -0.217
    1UNL    C16   18  -0.208   0.059   0.146
    1UNL    C17   19  -0.109   0.175   0.180
    1UNL    C18   20  -0.151   0.300   0.227
    1UNL     O1   21  -0.286   0.325   0.239
    1UNL    C19   22  -0.314   0.438   0.310
    1UNL    C20   23  -0.048   0.392   0.258
    1UNL    C21   24   0.085   0.371   0.229
    1UNL    C22   25   0.129   0.253   0.166
    1UNL    C23   26   0.242   0.200   0.103
    1UNL    C24   27   0.205   0.085   0.033
    1UNL     N3   28   0.075   0.055   0.066
    1UNL    C25   29   0.025   0.158   0.137
    1UNL    C26   30   0.284  -0.002  -0.067
    1UNL    C27   31   0.188  -0.086  -0.156
    1UNL     O2   32   0.119  -0.028  -0.238
    1UNL     O3   33   0.192  -0.222  -0.133
    1UNL    C28   34   0.102  -0.277  -0.222
    1UNL    C29   35   0.373  -0.108   0.012
    1UNL    C30   36   0.522  -0.118  -0.043
    1UNL    C31   37   0.526  -0.124  -0.198
    1UNL    C32   38   0.466   0.007  -0.261
    1UNL    C33   39   0.377  -0.019  -0.388
    1UNL    C34   40   0.349   0.110  -0.467
    1UNL    C35   41   0.395   0.089  -0.146
    1UNL     N4   42   0.505   0.139  -0.052
    1UNL    C36   43   0.484   0.256   0.035
    1UNL    C37   44   0.382   0.234   0.146
    1UNL    C38   45   0.592   0.017   0.000
    1UNL    C39   46   0.630   0.024   0.150
    1UNL    C40   47   0.734  -0.075   0.183
    1UNL    C41   48   0.868  -0.019   0.215
    1UNL     O4   49   0.702  -0.192   0.191
    1UNL    C42   50  -0.329   0.044   0.237
    1UNL    C43   51  -0.437  -0.057   0.191
    1UNL    C44   52  -0.362  -0.195   0.169
    1UNL    C45   53  -0.430  -0.312   0.245
    1UNL     O5   54  -0.536  -0.345   0.201
    1UNL     O6   55  -0.365  -0.376   0.345
    1UNL    C46   56  -0.447  -0.481   0.391
    1UNL     H1   57  -0.707   0.099  -0.053
    1UNL     H2   58  -0.586   0.107  -0.187
    1UNL     H3   59  -0.635   0.257  -0.090
    1UNL     H4   60  -0.469   0.190   0.086
    1UNL     H5   61  -0.656  -0.109  -0.078
    1UNL     H6   62  -0.620  -0.201   0.066
    1UNL     H7   63  -0.607  -0.310  -0.200
    1UNL     H8   64  -0.561  -0.390  -0.042
    1UNL     H9   65  -0.440  -0.378  -0.170
    1UNL    H10   66  -0.328  -0.351   0.031
    1UNL    H11   67  -0.210  -0.223  -0.149
    1UNL    H12   68  -0.131  -0.181  -0.003
    1UNL    H13   69  -0.236   0.286  -0.034
    1UNL    H14   70  -0.256   0.357  -0.307
    1UNL    H15   71  -0.242   0.264  -0.528
    1UNL    H16   72  -0.227   0.007  -0.539
    1UNL    H17   73  -0.243  -0.135  -0.345
    1UNL    H18   74  -0.148  -0.032   0.164
    1UNL    H19   75  -0.423   0.456   0.333
    1UNL    H20   76  -0.263   0.528   0.274
    1UNL    H21   77  -0.278   0.422   0.407
    1UNL    H22   78  -0.069   0.498   0.287
    1UNL    H23   79   0.148   0.459   0.244
    1UNL    H24   80   0.031  -0.011   0.005
    1UNL    H25   81   0.002  -0.224  -0.207
    1UNL    H26   82   0.108  -0.389  -0.199
    1UNL    H27   83   0.149  -0.247  -0.322
    1UNL    H28   84   0.326  -0.209   0.006
    1UNL    H29   85   0.374  -0.073   0.120
    1UNL    H30   86   0.583  -0.193   0.002
    1UNL    H31   87   0.465  -0.214  -0.235
    1UNL    H32   88   0.623  -0.147  -0.245
    1UNL    H33   89   0.554   0.073  -0.307
    1UNL    H34   90   0.425  -0.082  -0.457
    1UNL    H35   91   0.287  -0.077  -0.369
    1UNL    H36   92   0.325   0.187  -0.401
    1UNL    H37   93   0.437   0.150  -0.529
    1UNL    H38   94   0.260   0.099  -0.536
    1UNL    H39   95   0.345   0.179  -0.181
    1UNL    H40   96   0.434   0.331  -0.036
    1UNL    H41   97   0.575   0.295   0.073
    1UNL    H42   98   0.385   0.324   0.219
    1UNL    H43   99   0.410   0.156   0.214
    1UNL    H44  100   0.680   0.014  -0.057
    1UNL    H45  101   0.535  -0.002   0.208
    1UNL    H46  102   0.662   0.127   0.174
    1UNL    H47  103   0.867   0.046   0.301
    1UNL    H48  104   0.935  -0.102   0.237
    1UNL    H49  105   0.904   0.042   0.130
    1UNL    H50  106  -0.292   0.018   0.337
    1UNL    H51  107  -0.378   0.145   0.249
    1UNL    H52  108  -0.514  -0.070   0.277
    1UNL    H53  109  -0.266  -0.198   0.210
    1UNL    H54  110  -0.394  -0.547   0.457
    1UNL    H55  111  -0.538  -0.446   0.438
    1UNL    H56  112  -0.456  -0.544   0.297
   0.00000   0.00000   0.00000   0.00000   0.00000   0.00000   0.00000   0.00000   0.00000
Generated with MDTraj, t= 66.0
 112
    1UNL     C1    1  -0.630   0.153  -0.066
    1UNL     C2    2  -0.552   0.106   0.048
    1UNL     C3    3  -0.532  -0.024   0.075
    1UNL     C4    4  -0.587  -0.131  -0.007
    1UNL     N1    5  -0.470  -0.202  -0.084
    1UNL     C5    6  -0.520  -0.310  -0.177
    1UNL     C6    7  -0.358  -0.233   0.002
    1UNL     C7    8  -0.228  -0.186  -0.061
    1UNL     C8    9  -0.234  -0.044  -0.093
    1UNL     C9   10  -0.249   0.063  -0.005
    1UNL     N2   11  -0.246   0.185  -0.065
    1UNL    C10   12  -0.245   0.158  -0.201
    1UNL    C11   13  -0.259   0.246  -0.306
    1UNL    C12   14  -0.274   0.195  -0.434
    1UNL    C13   15  -0.275   0.055  -0.461
    1UNL    C14   16  -0.247  -0.027  -0.358
    1UNL    C15   17  -0.236   0.015  -0.223
    1UNL    C16   18  -0.217   0.053   0.144
    1UNL    C17   19  -0.113   0.163   0.177
    1UNL    C18   20  -0.142   0.284   0.241
    1UNL     O1   21  -0.272   0.315   0.266
    1UNL    C19   22  -0.302   0.450   0.259
    1UNL    C20   23  -0.036   0.374   0.279
    1UNL    C21   24   0.096   0.345   0.258
    1UNL    C22   25   0.124   0.232   0.182
    1UNL    C23   26   0.248   0.194   0.122
    1UNL    C24   27   0.214   0.085   0.047
    1UNL     N3   28   0.081   0.051   0.057
    1UNL    C25   29   0.023   0.140   0.148
    1UNL    C26   30   0.299  -0.006  -0.049
    1UNL    C27   31   0.192  -0.081  -0.132
    1UNL     O2   32   0.123  -0.017  -0.208
    1UNL     O3   33   0.188  -0.217  -0.124
    1UNL    C28   34   0.069  -0.266  -0.194
    1UNL    C29   35   0.387  -0.106   0.038
    1UNL    C30   36   0.530  -0.112  -0.015
    1UNL    C31   37   0.519  -0.140  -0.166
    1UNL    C32   38   0.467  -0.017  -0.248
    1UNL    C33   39   0.389  -0.039  -0.380
    1UNL    C34   40   0.374   0.096  -0.459
    1UNL    C35   41   0.391   0.078  -0.146
    1UNL     N4   42   0.501   0.138  -0.064
    1UNL    C36   43   0.471   0.268  -0.004
    1UNL    C37   44   0.381   0.266   0.126
    1UNL    C38   45   0.592   0.032  -0.002
    1UNL    C39   46   0.655   0.061   0.137
    1UNL    C40   47   0.747  -0.051   0.164
    1UNL    C41   48   0.894  -0.018   0.145
    1UNL     O4   49   0.712  -0.161   0.196
    1UNL    C42   50  -0.331   0.050   0.238
    1UNL    C43   51  -0.435  -0.064   0.191
    1UNL    C44   52  -0.366  -0.204   0.154
    1UNL    C45   53  -0.451  -0.312   0.229
    1UNL     O5   54  -0.571  -0.320   0.217
    1UNL     O6   55  -0.369  -0.381   0.314
    1UNL    C46   56  -0.448  -0.472   0.385
    1UNL     H1   57  -0.740   0.130  -0.044
    1UNL     H2   58  -0.612   0.110  -0.167
    1UNL     H3   59  -0.629   0.266  -0.076
    1UNL     H4   60  -0.503   0.178   0.108
    1UNL     H5   61  -0.649  -0.100  -0.085
    1UNL     H6   62  -0.653  -0.195   0.060
    1UNL     H7   63  -0.603  -0.263  -0.232
    1UNL     H8   64  -0.556  -0.394  -0.119
    1UNL     H9   65  -0.441  -0.340  -0.247
    1UNL    H10   66  -0.341  -0.347  -0.005
    1UNL    H11   67  -0.206  -0.243  -0.148
    1UNL    H12   68  -0.133  -0.196   0.007
    1UNL    H13   69  -0.245   0.278  -0.025
    1UNL    H14   70  -0.279   0.354  -0.281
    1UNL    H15   71  -0.281   0.264  -0.512
    1UNL    H16   72  -0.275   0.025  -0.570
    1UNL    H17   73  -0.224  -0.134  -0.375
    1UNL    H18   74  -0.161  -0.042   0.160
    1UNL    H19   75  -0.412   0.466   0.268
    1UNL    H20   76  -0.259   0.487   0.167
    1UNL    H21   77  -0.261   0.504   0.337
    1UNL    H22   78  -0.063   0.451   0.351
    1UNL    H23   79   0.176   0.413   0.287
    1UNL    H24   80   0.023   0.018  -0.018
    1UNL    H25   81   0.040  -0.182  -0.257
    1UNL    H26   82  -0.002  -0.298  -0.117
    1UNL    H27   83   0.102  -0.346  -0.265
    1UNL    H28   84   0.352  -0.213   0.041
    1UNL    H29   85   0.384  -0.070   0.146
    1UNL    H30   86   0.587  -0.183   0.041
    1UNL    H31   87   0.462  -0.238  -0.179
    1UNL    H32   88   0.618  -0.168  -0.206
    1UNL    H33   89   0.562   0.041  -0.287
    1UNL    H34   90   0.431  -0.113  -0.442
    1UNL    H35   91   0.293  -0.089  -0.364
    1UNL    H36   92   0.274   0.122  -0.457
    1UNL    H37   93   0.432   0.185  -0.418
    1UNL    H38   94   0.395   0.085  -0.572
    1UNL    H39   95   0.331   0.157  -0.189
    1UNL    H40   96   0.405   0.319  -0.082
    1UNL    H41   97   0.564   0.317  -0.002
    1UNL    H42   98   0.360   0.375   0.157
    1UNL    H43   99   0.437   0.231   0.215
    1UNL    H44  100   0.676   0.025  -0.066
    1UNL    H45  101   0.573   0.063   0.216
    1UNL    H46  102   0.697   0.161   0.128
    1UNL    H47  103   0.920   0.085   0.161
    1UNL    H48  104   0.955  -0.073   0.217
    1UNL    H49  105   0.929  -0.041   0.044
    1UNL    H50  106  -0.297   0.035   0.341
    1UNL    H51  107  -0.383   0.148   0.238
    1UNL    H52  108  -0.504  -0.078   0.284
    1UNL    H53  109  -0.271  -0.218   0.199
    1UNL    H54  110  -0.395  -0.504   0.474
    1UNL    H55  111  -0.543  -0.427   0.413
    1UNL    H56  112  -0.448  -0.562   0.315
   0.00000   0.00000   0.00000   0.00000   0.00000   0.00000   0.00000   0.00000   0.00000
Generated with MDTraj, t= 67.0
 112
    1UNL     C1    1  -0.648   0.171  -0.063
    1UNL     C2    2  -0.559   0.125   0.042
    1UNL     C3    3  -0.530  -0.008   0.060
    1UNL     C4    4  -0.585  -0.113  -0.028
    1UNL     N1    5  -0.483  -0.200  -0.092
    1UNL     C5    6  -0.539  -0.290  -0.205
    1UNL     C6    7  -0.367  -0.237  -0.004
    1UNL     C7    8  -0.233  -0.184  -0.059
    1UNL     C8    9  -0.246  -0.040  -0.088
    1UNL     C9   10  -0.229   0.065   0.001
    1UNL     N2   11  -0.247   0.186  -0.069
    1UNL    C10   12  -0.266   0.154  -0.203
    1UNL    C11   13  -0.277   0.248  -0.306
    1UNL    C12   14  -0.281   0.193  -0.431
    1UNL    C13   15  -0.280   0.049  -0.453
    1UNL    C14   16  -0.277  -0.039  -0.350
    1UNL    C15   17  -0.268   0.015  -0.214
    1UNL    C16   18  -0.211   0.063   0.150
    1UNL    C17   19  -0.106   0.160   0.196
    1UNL    C18   20  -0.131   0.278   0.269
    1UNL     O1   21  -0.272   0.300   0.295
    1UNL    C19   22  -0.300   0.427   0.231
    1UNL    C20   23  -0.028   0.362   0.314
    1UNL    C21   24   0.098   0.350   0.270
    1UNL    C22   25   0.133   0.233   0.192
    1UNL    C23   26   0.253   0.186   0.121
    1UNL    C24   27   0.219   0.075   0.039
    1UNL     N3   28   0.084   0.048   0.070
    1UNL    C25   29   0.030   0.143   0.157
    1UNL    C26   30   0.300  -0.011  -0.054
    1UNL    C27   31   0.201  -0.090  -0.137
    1UNL     O2   32   0.123  -0.038  -0.212
    1UNL     O3   33   0.205  -0.221  -0.109
    1UNL    C28   34   0.119  -0.290  -0.197
    1UNL    C29   35   0.387  -0.094   0.041
    1UNL    C30   36   0.536  -0.096  -0.011
    1UNL    C31   37   0.528  -0.128  -0.166
    1UNL    C32   38   0.464  -0.016  -0.249
    1UNL    C33   39   0.389  -0.063  -0.375
    1UNL    C34   40   0.330   0.040  -0.475
    1UNL    C35   41   0.389   0.074  -0.147
    1UNL     N4   42   0.495   0.137  -0.060
    1UNL    C36   43   0.477   0.261   0.017
    1UNL    C37   44   0.389   0.251   0.141
    1UNL    C38   45   0.598   0.039  -0.007
    1UNL    C39   46   0.667   0.070   0.124
    1UNL    C40   47   0.778  -0.024   0.164
    1UNL    C41   48   0.912  -0.003   0.104
    1UNL     O4   49   0.760  -0.114   0.239
    1UNL    C42   50  -0.341   0.056   0.223
    1UNL    C43   51  -0.444  -0.055   0.171
    1UNL    C44   52  -0.381  -0.199   0.144
    1UNL    C45   53  -0.462  -0.309   0.220
    1UNL     O5   54  -0.582  -0.309   0.216
    1UNL     O6   55  -0.375  -0.380   0.295
    1UNL    C46   56  -0.448  -0.479   0.369
    1UNL     H1   57  -0.745   0.113  -0.046
    1UNL     H2   58  -0.619   0.153  -0.165
    1UNL     H3   59  -0.678   0.284  -0.049
    1UNL     H4   60  -0.513   0.203   0.102
    1UNL     H5   61  -0.642  -0.071  -0.100
    1UNL     H6   62  -0.650  -0.185   0.034
    1UNL     H7   63  -0.580  -0.233  -0.285
    1UNL     H8   64  -0.607  -0.371  -0.172
    1UNL     H9   65  -0.442  -0.332  -0.239
    1UNL    H10   66  -0.362  -0.352  -0.005
    1UNL    H11   67  -0.218  -0.222  -0.158
    1UNL    H12   68  -0.136  -0.200   0.004
    1UNL    H13   69  -0.229   0.280  -0.032
    1UNL    H14   70  -0.295   0.348  -0.288
    1UNL    H15   71  -0.326   0.249  -0.518
    1UNL    H16   72  -0.279   0.013  -0.551
    1UNL    H17   73  -0.274  -0.146  -0.361
    1UNL    H18   74  -0.169  -0.038   0.173
    1UNL    H19   75  -0.401   0.426   0.190
    1UNL    H20   76  -0.233   0.423   0.146
    1UNL    H21   77  -0.286   0.512   0.290
    1UNL    H22   78  -0.058   0.439   0.377
    1UNL    H23   79   0.171   0.419   0.298
    1UNL    H24   80   0.028  -0.034   0.044
    1UNL    H25   81   0.098  -0.226  -0.276
    1UNL    H26   82   0.033  -0.323  -0.142
    1UNL    H27   83   0.172  -0.370  -0.247
    1UNL    H28   84   0.351  -0.202   0.043
    1UNL    H29   85   0.370  -0.061   0.148
    1UNL    H30   86   0.590  -0.167   0.049
    1UNL    H31   87   0.465  -0.220  -0.185
    1UNL    H32   88   0.632  -0.162  -0.188
    1UNL    H33   89   0.552   0.048  -0.289
    1UNL    H34   90   0.451  -0.125  -0.431
    1UNL    H35   91   0.312  -0.138  -0.353
    1UNL    H36   92   0.289   0.127  -0.426
    1UNL    H37   93   0.400   0.075  -0.554
    1UNL    H38   94   0.234  -0.006  -0.518
    1UNL    H39   95   0.331   0.151  -0.198
    1UNL    H40   96   0.428   0.327  -0.064
    1UNL    H41   97   0.570   0.303   0.042
    1UNL    H42   98   0.367   0.355   0.180
    1UNL    H43   99   0.443   0.205   0.230
    1UNL    H44  100   0.674   0.024  -0.082
    1UNL    H45  101   0.587   0.078   0.200
    1UNL    H46  102   0.709   0.171   0.111
    1UNL    H47  103   0.925   0.084   0.042
    1UNL    H48  104   0.984   0.011   0.185
    1UNL    H49  105   0.942  -0.091   0.048
    1UNL    H50  106  -0.319   0.033   0.328
    1UNL    H51  107  -0.374   0.158   0.228
    1UNL    H52  108  -0.518  -0.065   0.260
    1UNL    H53  109  -0.286  -0.198   0.193
    1UNL    H54  110  -0.382  -0.563   0.388
    1UNL    H55  111  -0.482  -0.432   0.462
    1UNL    H56  112  -0.535  -0.514   0.305
   0.00000   0.00000   0.00000   0.00000   0.00000   0.00000   0.00000   0.00000   0.00000
Generated with MDTraj, t= 68.0
 112
    1UNL     C1    1  -0.630   0.189  -0.076
    1UNL     C2    2  -0.553   0.140   0.041
    1UNL     C3    3  -0.522   0.007   0.052
    1UNL     C4    4  -0.588  -0.097  -0.031
    1UNL     N1    5  -0.478  -0.173  -0.098
    1UNL     C5    6  -0.529  -0.288  -0.175
    1UNL     C6    7  -0.370  -0.224   0.002
    1UNL     C7    8  -0.237  -0.175  -0.058
    1UNL     C8    9  -0.234  -0.036  -0.096
    1UNL     C9   10  -0.226   0.072  -0.004
    1UNL     N2   11  -0.231   0.196  -0.073
    1UNL    C10   12  -0.268   0.164  -0.205
    1UNL    C11   13  -0.291   0.251  -0.312
    1UNL    C12   14  -0.320   0.198  -0.437
    1UNL    C13   15  -0.314   0.055  -0.448
    1UNL    C14   16  -0.297  -0.031  -0.344
    1UNL    C15   17  -0.261   0.026  -0.222
    1UNL    C16   18  -0.213   0.062   0.142
    1UNL    C17   19  -0.108   0.159   0.182
    1UNL    C18   20  -0.136   0.263   0.271
    1UNL     O1   21  -0.273   0.287   0.307
    1UNL    C19   22  -0.326   0.409   0.255
    1UNL    C20   23  -0.025   0.342   0.312
    1UNL    C21   24   0.103   0.324   0.271
    1UNL    C22   25   0.130   0.223   0.182
    1UNL    C23   26   0.249   0.173   0.126
    1UNL    C24   27   0.213   0.059   0.050
    1UNL     N3   28   0.072   0.040   0.051
    1UNL    C25   29   0.022   0.149   0.126
    1UNL    C26   30   0.309  -0.024  -0.039
    1UNL    C27   31   0.220  -0.116  -0.121
    1UNL     O2   32   0.122  -0.073  -0.173
    1UNL     O3   33   0.254  -0.246  -0.120
    1UNL    C28   34   0.154  -0.314  -0.180
    1UNL    C29   35   0.412  -0.100   0.042
    1UNL    C30   36   0.555  -0.094  -0.026
    1UNL    C31   37   0.557  -0.130  -0.179
    1UNL    C32   38   0.474  -0.026  -0.246
    1UNL    C33   39   0.377  -0.079  -0.362
    1UNL    C34   40   0.293   0.028  -0.434
    1UNL    C35   41   0.394   0.063  -0.137
    1UNL     N4   42   0.499   0.140  -0.065
    1UNL    C36   43   0.462   0.256   0.015
    1UNL    C37   44   0.386   0.228   0.141
    1UNL    C38   45   0.606   0.055  -0.008
    1UNL    C39   46   0.660   0.081   0.136
    1UNL    C40   47   0.791   0.009   0.159
    1UNL    C41   48   0.911   0.029   0.069
    1UNL     O4   49   0.793  -0.075   0.249
    1UNL    C42   50  -0.344   0.064   0.216
    1UNL    C43   51  -0.449  -0.045   0.171
    1UNL    C44   52  -0.387  -0.185   0.151
    1UNL    C45   53  -0.469  -0.294   0.220
    1UNL     O5   54  -0.589  -0.295   0.208
    1UNL     O6   55  -0.396  -0.394   0.285
    1UNL    C46   56  -0.480  -0.496   0.337
    1UNL     H1   57  -0.735   0.148  -0.068
    1UNL     H2   58  -0.591   0.161  -0.173
    1UNL     H3   59  -0.641   0.306  -0.078
    1UNL     H4   60  -0.516   0.210   0.117
    1UNL     H5   61  -0.658  -0.052  -0.097
    1UNL     H6   62  -0.642  -0.162   0.043
    1UNL     H7   63  -0.607  -0.245  -0.232
    1UNL     H8   64  -0.575  -0.366  -0.108
    1UNL     H9   65  -0.453  -0.330  -0.243
    1UNL    H10   66  -0.374  -0.337   0.011
    1UNL    H11   67  -0.216  -0.233  -0.147
    1UNL    H12   68  -0.151  -0.193   0.013
    1UNL    H13   69  -0.233   0.293  -0.033
    1UNL    H14   70  -0.297   0.363  -0.300
    1UNL    H15   71  -0.346   0.258  -0.518
    1UNL    H16   72  -0.348   0.012  -0.546
    1UNL    H17   73  -0.287  -0.136  -0.360
    1UNL    H18   74  -0.178  -0.041   0.168
    1UNL    H19   75  -0.435   0.395   0.255
    1UNL    H20   76  -0.292   0.404   0.152
    1UNL    H21   77  -0.296   0.494   0.311
    1UNL    H22   78  -0.052   0.430   0.380
    1UNL    H23   79   0.190   0.393   0.287
    1UNL    H24   80   0.029   0.012  -0.039
    1UNL    H25   81   0.136  -0.273  -0.273
    1UNL    H26   82   0.069  -0.311  -0.119
    1UNL    H27   83   0.182  -0.414  -0.200
    1UNL    H28   84   0.381  -0.206   0.075
    1UNL    H29   85   0.419  -0.053   0.144
    1UNL    H30   86   0.613  -0.170   0.023
    1UNL    H31   87   0.513  -0.232  -0.186
    1UNL    H32   88   0.661  -0.134  -0.222
    1UNL    H33   89   0.541   0.051  -0.295
    1UNL    H34   90   0.437  -0.120  -0.435
    1UNL    H35   91   0.318  -0.168  -0.336
    1UNL    H36   92   0.187   0.043  -0.392
    1UNL    H37   93   0.346   0.123  -0.440
    1UNL    H38   94   0.262  -0.010  -0.536
    1UNL    H39   95   0.314   0.125  -0.179
    1UNL    H40   96   0.392   0.323  -0.045
    1UNL    H41   97   0.552   0.310   0.030
    1UNL    H42   98   0.383   0.320   0.205
    1UNL    H43   99   0.445   0.152   0.201
    1UNL    H44  100   0.679   0.078  -0.086
    1UNL    H45  101   0.594   0.043   0.208
    1UNL    H46  102   0.669   0.189   0.162
    1UNL    H47  103   0.887   0.082  -0.024
    1UNL    H48  104   0.975   0.098   0.122
    1UNL    H49  105   0.964  -0.063   0.050
    1UNL    H50  106  -0.317   0.044   0.322
    1UNL    H51  107  -0.384   0.161   0.209
    1UNL    H52  108  -0.521  -0.046   0.263
    1UNL    H53  109  -0.294  -0.187   0.206
    1UNL    H54  110  -0.424  -0.588   0.339
    1UNL    H55  111  -0.499  -0.461   0.438
    1UNL    H56  112  -0.583  -0.496   0.287
   0.00000   0.00000   0.00000   0.00000   0.00000   0.00000   0.00000   0.00000   0.00000
Generated with MDTraj, t= 69.0
 112
    1UNL     C1    1  -0.598   0.197  -0.093
    1UNL     C2    2  -0.524   0.137   0.016
    1UNL     C3    3  -0.517   0.003   0.045
    1UNL     C4    4  -0.585  -0.102  -0.039
    1UNL     N1    5  -0.499  -0.195  -0.104
    1UNL     C5    6  -0.546  -0.322  -0.165
    1UNL     C6    7  -0.381  -0.230  -0.017
    1UNL     C7    8  -0.258  -0.171  -0.089
    1UNL     C8    9  -0.249  -0.026  -0.106
    1UNL     C9   10  -0.230   0.072  -0.012
    1UNL     N2   11  -0.257   0.196  -0.069
    1UNL    C10   12  -0.289   0.178  -0.205
    1UNL    C11   13  -0.318   0.255  -0.318
    1UNL    C12   14  -0.342   0.199  -0.446
    1UNL    C13   15  -0.346   0.064  -0.462
    1UNL    C14   16  -0.313  -0.017  -0.356
    1UNL    C15   17  -0.272   0.037  -0.231
    1UNL    C16   18  -0.205   0.057   0.138
    1UNL    C17   19  -0.096   0.154   0.192
    1UNL    C18   20  -0.122   0.268   0.274
    1UNL     O1   21  -0.250   0.293   0.328
    1UNL    C19   22  -0.300   0.425   0.305
    1UNL    C20   23  -0.013   0.360   0.304
    1UNL    C21   24   0.113   0.332   0.266
    1UNL    C22   25   0.137   0.211   0.199
    1UNL    C23   26   0.255   0.164   0.134
    1UNL    C24   27   0.220   0.057   0.058
    1UNL     N3   28   0.088   0.029   0.073
    1UNL    C25   29   0.036   0.122   0.165
    1UNL    C26   30   0.309  -0.027  -0.031
    1UNL    C27   31   0.220  -0.136  -0.104
    1UNL     O2   32   0.109  -0.123  -0.148
    1UNL     O3   33   0.277  -0.263  -0.108
    1UNL    C28   34   0.191  -0.355  -0.169
    1UNL    C29   35   0.414  -0.097   0.059
    1UNL    C30   36   0.557  -0.091  -0.011
    1UNL    C31   37   0.539  -0.134  -0.162
    1UNL    C32   38   0.467  -0.022  -0.238
    1UNL    C33   39   0.386  -0.069  -0.365
    1UNL    C34   40   0.266   0.018  -0.397
    1UNL    C35   41   0.387   0.063  -0.135
    1UNL     N4   42   0.499   0.138  -0.063
    1UNL    C36   43   0.459   0.257  -0.001
    1UNL    C37   44   0.383   0.241   0.133
    1UNL    C38   45   0.617   0.056  -0.011
    1UNL    C39   46   0.678   0.100   0.122
    1UNL    C40   47   0.813   0.038   0.141
    1UNL    C41   48   0.936   0.073   0.065
    1UNL     O4   49   0.818  -0.052   0.221
    1UNL    C42   50  -0.328   0.051   0.220
    1UNL    C43   51  -0.444  -0.046   0.165
    1UNL    C44   52  -0.386  -0.190   0.138
    1UNL    C45   53  -0.485  -0.287   0.210
    1UNL     O5   54  -0.602  -0.259   0.205
    1UNL     O6   55  -0.429  -0.403   0.255
    1UNL    C46   56  -0.521  -0.489   0.309
    1UNL     H1   57  -0.707   0.177  -0.072
    1UNL     H2   58  -0.575   0.158  -0.194
    1UNL     H3   59  -0.581   0.309  -0.096
    1UNL     H4   60  -0.467   0.204   0.075
    1UNL     H5   61  -0.652  -0.058  -0.119
    1UNL     H6   62  -0.651  -0.156   0.031
    1UNL     H7   63  -0.612  -0.300  -0.248
    1UNL     H8   64  -0.612  -0.379  -0.094
    1UNL     H9   65  -0.463  -0.384  -0.204
    1UNL    H10   66  -0.372  -0.340  -0.010
    1UNL    H11   67  -0.237  -0.232  -0.179
    1UNL    H12   68  -0.177  -0.190  -0.024
    1UNL    H13   69  -0.255   0.297  -0.040
    1UNL    H14   70  -0.310   0.361  -0.307
    1UNL    H15   71  -0.363   0.268  -0.533
    1UNL    H16   72  -0.349   0.017  -0.554
    1UNL    H17   73  -0.313  -0.128  -0.354
    1UNL    H18   74  -0.168  -0.048   0.144
    1UNL    H19   75  -0.376   0.435   0.386
    1UNL    H20   76  -0.347   0.424   0.208
    1UNL    H21   77  -0.219   0.496   0.319
    1UNL    H22   78  -0.022   0.429   0.381
    1UNL    H23   79   0.197   0.389   0.292
    1UNL    H24   80   0.033  -0.057   0.041
    1UNL    H25   81   0.179  -0.331  -0.269
    1UNL    H26   82   0.094  -0.349  -0.123
    1UNL    H27   83   0.220  -0.458  -0.156
    1UNL    H28   84   0.379  -0.204   0.082
    1UNL    H29   85   0.422  -0.049   0.161
    1UNL    H30   86   0.638  -0.143   0.036
    1UNL    H31   87   0.488  -0.231  -0.170
    1UNL    H32   88   0.646  -0.148  -0.198
    1UNL    H33   89   0.545   0.051  -0.274
    1UNL    H34   90   0.444  -0.081  -0.449
    1UNL    H35   91   0.347  -0.168  -0.340
    1UNL    H36   92   0.188   0.019  -0.307
    1UNL    H37   93   0.291   0.121  -0.422
    1UNL    H38   94   0.207  -0.035  -0.473
    1UNL    H39   95   0.319   0.142  -0.170
    1UNL    H40   96   0.396   0.309  -0.080
    1UNL    H41   97   0.537   0.327   0.012
    1UNL    H42   98   0.357   0.345   0.164
    1UNL    H43   99   0.450   0.201   0.215
    1UNL    H44  100   0.692   0.066  -0.092
    1UNL    H45  101   0.620   0.071   0.203
    1UNL    H46  102   0.691   0.210   0.127
    1UNL    H47  103   0.914   0.162   0.003
    1UNL    H48  104   1.002   0.109   0.141
    1UNL    H49  105   0.974  -0.017   0.021
    1UNL    H50  106  -0.298   0.024   0.322
    1UNL    H51  107  -0.370   0.149   0.228
    1UNL    H52  108  -0.522  -0.057   0.251
    1UNL    H53  109  -0.288  -0.198   0.183
    1UNL    H54  110  -0.469  -0.536   0.390
    1UNL    H55  111  -0.596  -0.420   0.345
    1UNL    H56  112  -0.580  -0.551   0.235
   0.00000   0.00000   0.00000   0.00000   0.00000   0.00000   0.00000   0.00000   0.00000
Generated with MDTraj, t= 70.0
 112
    1UNL     C1    1  -0.601   0.188  -0.119
    1UNL     C2    2  -0.532   0.142  -0.002
    1UNL     C3    3  -0.512   0.010   0.025
    1UNL     C4    4  -0.572  -0.087  -0.069
    1UNL     N1    5  -0.501  -0.207  -0.100
    1UNL     C5    6  -0.573  -0.334  -0.128
    1UNL     C6    7  -0.380  -0.225  -0.014
    1UNL     C7    8  -0.252  -0.171  -0.091
    1UNL     C8    9  -0.248  -0.029  -0.102
    1UNL     C9   10  -0.224   0.069  -0.008
    1UNL     N2   11  -0.248   0.191  -0.066
    1UNL    C10   12  -0.274   0.181  -0.198
    1UNL    C11   13  -0.306   0.275  -0.299
    1UNL    C12   14  -0.360   0.227  -0.417
    1UNL    C13   15  -0.370   0.090  -0.435
    1UNL    C14   16  -0.332  -0.005  -0.344
    1UNL    C15   17  -0.278   0.041  -0.224
    1UNL    C16   18  -0.200   0.047   0.139
    1UNL    C17   19  -0.093   0.145   0.189
    1UNL    C18   20  -0.130   0.258   0.265
    1UNL     O1   21  -0.272   0.295   0.277
    1UNL    C19   22  -0.300   0.421   0.334
    1UNL    C20   23  -0.027   0.342   0.324
    1UNL    C21   24   0.103   0.334   0.280
    1UNL    C22   25   0.141   0.228   0.190
    1UNL    C23   26   0.263   0.171   0.138
    1UNL    C24   27   0.238   0.048   0.070
    1UNL     N3   28   0.100   0.039   0.076
    1UNL    C25   29   0.042   0.138   0.148
    1UNL    C26   30   0.330  -0.031  -0.014
    1UNL    C27   31   0.244  -0.150  -0.072
    1UNL     O2   32   0.143  -0.136  -0.135
    1UNL     O3   33   0.297  -0.279  -0.070
    1UNL    C28   34   0.209  -0.372  -0.119
    1UNL    C29   35   0.456  -0.099   0.056
    1UNL    C30   36   0.585  -0.085  -0.026
    1UNL    C31   37   0.550  -0.131  -0.177
    1UNL    C32   38   0.456  -0.025  -0.242
    1UNL    C33   39   0.365  -0.102  -0.340
    1UNL    C34   40   0.257  -0.020  -0.413
    1UNL    C35   41   0.385   0.056  -0.130
    1UNL     N4   42   0.495   0.137  -0.060
    1UNL    C36   43   0.460   0.262   0.009
    1UNL    C37   44   0.392   0.242   0.147
    1UNL    C38   45   0.619   0.063  -0.026
    1UNL    C39   46   0.685   0.114   0.103
    1UNL    C40   47   0.816   0.047   0.118
    1UNL    C41   48   0.931   0.126   0.064
    1UNL     O4   49   0.826  -0.060   0.167
    1UNL    C42   50  -0.325   0.048   0.215
    1UNL    C43   51  -0.452  -0.037   0.156
    1UNL    C44   52  -0.405  -0.182   0.135
    1UNL    C45   53  -0.505  -0.283   0.195
    1UNL     O5   54  -0.624  -0.259   0.196
    1UNL     O6   55  -0.459  -0.413   0.233
    1UNL    C46   56  -0.556  -0.501   0.285
    1UNL     H1   57  -0.709   0.157  -0.111
    1UNL     H2   58  -0.562   0.154  -0.224
    1UNL     H3   59  -0.599   0.297  -0.127
    1UNL     H4   60  -0.503   0.223   0.068
    1UNL     H5   61  -0.583  -0.036  -0.175
    1UNL     H6   62  -0.672  -0.117  -0.042
    1UNL     H7   63  -0.670  -0.326  -0.184
    1UNL     H8   64  -0.605  -0.375  -0.030
    1UNL     H9   65  -0.514  -0.407  -0.184
    1UNL    H10   66  -0.359  -0.330  -0.007
    1UNL    H11   67  -0.241  -0.223  -0.191
    1UNL    H12   68  -0.166  -0.204  -0.047
    1UNL    H13   69  -0.245   0.286  -0.022
    1UNL    H14   70  -0.308   0.380  -0.276
    1UNL    H15   71  -0.395   0.297  -0.487
    1UNL    H16   72  -0.388   0.048  -0.537
    1UNL    H17   73  -0.343  -0.107  -0.356
    1UNL    H18   74  -0.163  -0.057   0.149
    1UNL    H19   75  -0.333   0.398   0.440
    1UNL    H20   76  -0.380   0.475   0.284
    1UNL    H21   77  -0.207   0.483   0.340
    1UNL    H22   78  -0.055   0.419   0.398
    1UNL    H23   79   0.180   0.374   0.348
    1UNL    H24   80   0.049  -0.012   0.002
    1UNL    H25   81   0.135  -0.333  -0.188
    1UNL    H26   82   0.151  -0.419  -0.037
    1UNL    H27   83   0.260  -0.465  -0.158
    1UNL    H28   84   0.436  -0.213   0.062
    1UNL    H29   85   0.464  -0.060   0.162
    1UNL    H30   86   0.675  -0.131   0.010
    1UNL    H31   87   0.506  -0.230  -0.167
    1UNL    H32   88   0.648  -0.140  -0.233
    1UNL    H33   89   0.521   0.044  -0.302
    1UNL    H34   90   0.429  -0.142  -0.412
    1UNL    H35   91   0.318  -0.178  -0.282
    1UNL    H36   92   0.191   0.047  -0.346
    1UNL    H37   93   0.301   0.044  -0.494
    1UNL    H38   94   0.188  -0.096  -0.450
    1UNL    H39   95   0.307   0.123  -0.165
    1UNL    H40   96   0.398   0.333  -0.053
    1UNL    H41   97   0.547   0.324   0.014
    1UNL    H42   98   0.366   0.343   0.190
    1UNL    H43   99   0.458   0.191   0.218
    1UNL    H44  100   0.691   0.077  -0.111
    1UNL    H45  101   0.624   0.090   0.187
    1UNL    H46  102   0.699   0.220   0.094
    1UNL    H47  103   0.904   0.233   0.068
    1UNL    H48  104   1.014   0.124   0.132
    1UNL    H49  105   0.964   0.084  -0.029
    1UNL    H50  106  -0.307   0.028   0.322
    1UNL    H51  107  -0.360   0.151   0.219
    1UNL    H52  108  -0.538  -0.044   0.234
    1UNL    H53  109  -0.310  -0.202   0.185
    1UNL    H54  110  -0.500  -0.581   0.328
    1UNL    H55  111  -0.603  -0.440   0.362
    1UNL    H56  112  -0.641  -0.523   0.214
   0.00000   0.00000   0.00000   0.00000   0.00000   0.00000   0.00000   0.00000   0.00000
Generated with MDTraj, t= 71.0
 112
    1UNL     C1    1  -0.610   0.201  -0.109
    1UNL     C2    2  -0.530   0.144   0.002
    1UNL     C3    3  -0.508   0.011   0.017
    1UNL     C4    4  -0.572  -0.077  -0.078
    1UNL     N1    5  -0.504  -0.215  -0.094
    1UNL     C5    6  -0.582  -0.336  -0.111
    1UNL     C6    7  -0.378  -0.235  -0.018
    1UNL     C7    8  -0.259  -0.174  -0.097
    1UNL     C8    9  -0.252  -0.024  -0.110
    1UNL     C9   10  -0.204   0.070  -0.013
    1UNL     N2   11  -0.209   0.202  -0.061
    1UNL    C10   12  -0.264   0.186  -0.187
    1UNL    C11   13  -0.293   0.278  -0.291
    1UNL    C12   14  -0.357   0.243  -0.405
    1UNL    C13   15  -0.389   0.109  -0.437
    1UNL    C14   16  -0.351   0.014  -0.344
    1UNL    C15   17  -0.287   0.053  -0.224
    1UNL    C16   18  -0.200   0.042   0.135
    1UNL    C17   19  -0.101   0.131   0.192
    1UNL    C18   20  -0.129   0.253   0.259
    1UNL     O1   21  -0.264   0.304   0.258
    1UNL    C19   22  -0.297   0.403   0.344
    1UNL    C20   23  -0.025   0.346   0.284
    1UNL    C21   24   0.106   0.314   0.259
    1UNL    C22   25   0.138   0.186   0.212
    1UNL    C23   26   0.258   0.149   0.148
    1UNL    C24   27   0.227   0.040   0.076
    1UNL     N3   28   0.095  -0.001   0.097
    1UNL    C25   29   0.038   0.099   0.177
    1UNL    C26   30   0.325  -0.035  -0.010
    1UNL    C27   31   0.240  -0.151  -0.060
    1UNL     O2   32   0.145  -0.149  -0.132
    1UNL     O3   33   0.290  -0.273  -0.025
    1UNL    C28   34   0.203  -0.376  -0.040
    1UNL    C29   35   0.455  -0.089   0.064
    1UNL    C30   36   0.586  -0.066  -0.016
    1UNL    C31   37   0.561  -0.127  -0.158
    1UNL    C32   38   0.460  -0.035  -0.230
    1UNL    C33   39   0.367  -0.117  -0.328
    1UNL    C34   40   0.280  -0.021  -0.415
    1UNL    C35   41   0.381   0.050  -0.121
    1UNL     N4   42   0.481   0.153  -0.067
    1UNL    C36   43   0.419   0.262   0.007
    1UNL    C37   44   0.387   0.221   0.148
    1UNL    C38   45   0.614   0.083  -0.033
    1UNL    C39   46   0.710   0.145   0.075
    1UNL    C40   47   0.839   0.066   0.080
    1UNL    C41   48   0.960   0.156   0.082
    1UNL     O4   49   0.841  -0.053   0.086
    1UNL    C42   50  -0.336   0.045   0.195
    1UNL    C43   51  -0.447  -0.050   0.142
    1UNL    C44   52  -0.398  -0.194   0.131
    1UNL    C45   53  -0.509  -0.286   0.178
    1UNL     O5   54  -0.622  -0.243   0.188
    1UNL     O6   55  -0.470  -0.407   0.219
    1UNL    C46   56  -0.579  -0.491   0.263
    1UNL     H1   57  -0.711   0.149  -0.118
    1UNL     H2   58  -0.563   0.197  -0.217
    1UNL     H3   59  -0.624   0.308  -0.102
    1UNL     H4   60  -0.487   0.211   0.073
    1UNL     H5   61  -0.563  -0.032  -0.187
    1UNL     H6   62  -0.677  -0.083  -0.058
    1UNL     H7   63  -0.663  -0.321  -0.189
    1UNL     H8   64  -0.642  -0.355  -0.023
    1UNL     H9   65  -0.535  -0.429  -0.144
    1UNL    H10   66  -0.360  -0.338  -0.020
    1UNL    H11   67  -0.270  -0.208  -0.204
    1UNL    H12   68  -0.162  -0.202  -0.077
    1UNL    H13   69  -0.192   0.286  -0.001
    1UNL    H14   70  -0.303   0.385  -0.273
    1UNL    H15   71  -0.389   0.314  -0.481
    1UNL    H16   72  -0.444   0.087  -0.523
    1UNL    H17   73  -0.364  -0.093  -0.376
    1UNL    H18   74  -0.154  -0.057   0.157
    1UNL    H19   75  -0.210   0.434   0.409
    1UNL    H20   76  -0.372   0.373   0.417
    1UNL    H21   77  -0.329   0.496   0.286
    1UNL    H22   78  -0.050   0.452   0.296
    1UNL    H23   79   0.184   0.388   0.262
    1UNL    H24   80   0.040  -0.069   0.050
    1UNL    H25   81   0.111  -0.354  -0.103
    1UNL    H26   82   0.160  -0.416   0.058
    1UNL    H27   83   0.253  -0.472  -0.077
    1UNL    H28   84   0.438  -0.197   0.101
    1UNL    H29   85   0.465  -0.031   0.162
    1UNL    H30   86   0.667  -0.116   0.033
    1UNL    H31   87   0.519  -0.224  -0.135
    1UNL    H32   88   0.658  -0.137  -0.217
    1UNL    H33   89   0.521   0.031  -0.298
    1UNL    H34   90   0.428  -0.178  -0.388
    1UNL    H35   91   0.310  -0.185  -0.272
    1UNL    H36   92   0.178  -0.002  -0.382
    1UNL    H37   93   0.327   0.083  -0.426
    1UNL    H38   94   0.257  -0.062  -0.516
    1UNL    H39   95   0.300   0.096  -0.175
    1UNL    H40   96   0.328   0.299  -0.047
    1UNL    H41   97   0.475   0.354   0.011
    1UNL    H42   98   0.387   0.314   0.211
    1UNL    H43   99   0.472   0.163   0.179
    1UNL    H44  100   0.670   0.086  -0.132
    1UNL    H45  101   0.664   0.134   0.175
    1UNL    H46  102   0.725   0.244   0.050
    1UNL    H47  103   0.946   0.243   0.146
    1UNL    H48  104   1.051   0.117   0.124
    1UNL    H49  105   0.993   0.179  -0.018
    1UNL    H50  106  -0.319   0.006   0.296
    1UNL    H51  107  -0.379   0.147   0.210
    1UNL    H52  108  -0.529  -0.063   0.223
    1UNL    H53  109  -0.301  -0.207   0.180
    1UNL    H54  110  -0.562  -0.593   0.237
    1UNL    H55  111  -0.585  -0.481   0.370
    1UNL    H56  112  -0.678  -0.448   0.228
   0.00000   0.00000   0.00000   0.00000   0.00000   0.00000   0.00000   0.00000   0.00000
Generated with MDTraj, t= 72.0
 112
    1UNL     C1    1  -0.597   0.223  -0.089
    1UNL     C2    2  -0.527   0.150   0.015
    1UNL     C3    3  -0.515   0.014   0.018
    1UNL     C4    4  -0.583  -0.074  -0.084
    1UNL     N1    5  -0.511  -0.197  -0.115
    1UNL     C5    6  -0.595  -0.316  -0.140
    1UNL     C6    7  -0.387  -0.233  -0.037
    1UNL     C7    8  -0.255  -0.178  -0.094
    1UNL     C8    9  -0.259  -0.027  -0.113
    1UNL     C9   10  -0.223   0.059  -0.020
    1UNL     N2   11  -0.236   0.192  -0.067
    1UNL    C10   12  -0.282   0.193  -0.193
    1UNL    C11   13  -0.303   0.303  -0.282
    1UNL    C12   14  -0.338   0.259  -0.404
    1UNL    C13   15  -0.360   0.122  -0.437
    1UNL    C14   16  -0.336   0.019  -0.353
    1UNL    C15   17  -0.297   0.055  -0.225
    1UNL    C16   18  -0.196   0.042   0.129
    1UNL    C17   19  -0.092   0.136   0.187
    1UNL    C18   20  -0.128   0.261   0.234
    1UNL     O1   21  -0.263   0.300   0.245
    1UNL    C19   22  -0.306   0.367   0.360
    1UNL    C20   23  -0.036   0.357   0.268
    1UNL    C21   24   0.102   0.330   0.256
    1UNL    C22   25   0.146   0.210   0.195
    1UNL    C23   26   0.269   0.152   0.160
    1UNL    C24   27   0.249   0.028   0.106
    1UNL     N3   28   0.111   0.014   0.100
    1UNL    C25   29   0.046   0.107   0.169
    1UNL    C26   30   0.339  -0.056   0.015
    1UNL    C27   31   0.253  -0.177  -0.023
    1UNL     O2   32   0.158  -0.160  -0.095
    1UNL     O3   33   0.279  -0.302   0.031
    1UNL    C28   34   0.186  -0.391  -0.024
    1UNL    C29   35   0.471  -0.097   0.081
    1UNL    C30   36   0.597  -0.076  -0.020
    1UNL    C31   37   0.556  -0.145  -0.155
    1UNL    C32   38   0.448  -0.051  -0.223
    1UNL    C33   39   0.348  -0.119  -0.321
    1UNL    C34   40   0.272  -0.028  -0.416
    1UNL    C35   41   0.377   0.033  -0.109
    1UNL     N4   42   0.476   0.141  -0.067
    1UNL    C36   43   0.425   0.251   0.009
    1UNL    C37   44   0.393   0.228   0.154
    1UNL    C38   45   0.615   0.076  -0.045
    1UNL    C39   46   0.703   0.139   0.062
    1UNL    C40   47   0.844   0.099   0.045
    1UNL    C41   48   0.942   0.200   0.093
    1UNL     O4   49   0.886  -0.011   0.010
    1UNL    C42   50  -0.332   0.028   0.201
    1UNL    C43   51  -0.452  -0.057   0.136
    1UNL    C44   52  -0.409  -0.204   0.112
    1UNL    C45   53  -0.515  -0.288   0.175
    1UNL     O5   54  -0.624  -0.249   0.213
    1UNL     O6   55  -0.480  -0.418   0.192
    1UNL    C46   56  -0.573  -0.491   0.266
    1UNL     H1   57  -0.700   0.173  -0.105
    1UNL     H2   58  -0.540   0.217  -0.185
    1UNL     H3   59  -0.600   0.331  -0.071
    1UNL     H4   60  -0.464   0.204   0.084
    1UNL     H5   61  -0.614  -0.020  -0.175
    1UNL     H6   62  -0.674  -0.106  -0.033
    1UNL     H7   63  -0.672  -0.313  -0.224
    1UNL     H8   64  -0.650  -0.353  -0.056
    1UNL     H9   65  -0.530  -0.395  -0.176
    1UNL    H10   66  -0.384  -0.338  -0.042
    1UNL    H11   67  -0.247  -0.207  -0.200
    1UNL    H12   68  -0.162  -0.205  -0.046
    1UNL    H13   69  -0.224   0.268   0.001
    1UNL    H14   70  -0.292   0.406  -0.255
    1UNL    H15   71  -0.382   0.323  -0.480
    1UNL    H16   72  -0.380   0.100  -0.544
    1UNL    H17   73  -0.337  -0.081  -0.385
    1UNL    H18   74  -0.150  -0.059   0.140
    1UNL    H19   75  -0.294   0.309   0.455
    1UNL    H20   76  -0.413   0.383   0.361
    1UNL    H21   77  -0.259   0.471   0.368
    1UNL    H22   78  -0.079   0.441   0.309
    1UNL    H23   79   0.164   0.398   0.307
    1UNL    H24   80   0.067  -0.057   0.046
    1UNL    H25   81   0.204  -0.388  -0.137
    1UNL    H26   82   0.076  -0.362  -0.017
    1UNL    H27   83   0.184  -0.496   0.018
    1UNL    H28   84   0.455  -0.205   0.117
    1UNL    H29   85   0.480  -0.042   0.180
    1UNL    H30   86   0.686  -0.118   0.022
    1UNL    H31   87   0.501  -0.237  -0.137
    1UNL    H32   88   0.647  -0.163  -0.218
    1UNL    H33   89   0.510   0.023  -0.277
    1UNL    H34   90   0.385  -0.203  -0.376
    1UNL    H35   91   0.273  -0.166  -0.265
    1UNL    H36   92   0.212   0.042  -0.367
    1UNL    H37   93   0.348   0.034  -0.479
    1UNL    H38   94   0.199  -0.084  -0.482
    1UNL    H39   95   0.288   0.084  -0.142
    1UNL    H40   96   0.332   0.286  -0.038
    1UNL    H41   97   0.491   0.337  -0.009
    1UNL    H42   98   0.378   0.323   0.212
    1UNL    H43   99   0.479   0.182   0.200
    1UNL    H44  100   0.659   0.077  -0.150
    1UNL    H45  101   0.659   0.108   0.160
    1UNL    H46  102   0.699   0.242   0.053
    1UNL    H47  103   0.931   0.232   0.194
    1UNL    H48  104   1.040   0.153   0.089
    1UNL    H49  105   0.960   0.276   0.018
    1UNL    H50  106  -0.301  -0.010   0.300
    1UNL    H51  107  -0.365   0.133   0.218
    1UNL    H52  108  -0.533  -0.069   0.216
    1UNL    H53  109  -0.315  -0.231   0.164
    1UNL    H54  110  -0.523  -0.578   0.306
    1UNL    H55  111  -0.611  -0.436   0.352
    1UNL    H56  112  -0.656  -0.524   0.198
   0.00000   0.00000   0.00000   0.00000   0.00000   0.00000   0.00000   0.00000   0.00000
Generated with MDTraj, t= 73.0
 112
    1UNL     C1    1  -0.586   0.234  -0.063
    1UNL     C2    2  -0.516   0.155   0.039
    1UNL     C3    3  -0.519   0.020   0.050
    1UNL     C4    4  -0.594  -0.063  -0.045
    1UNL     N1    5  -0.517  -0.169  -0.121
    1UNL     C5    6  -0.619  -0.273  -0.166
    1UNL     C6    7  -0.388  -0.212  -0.040
    1UNL     C7    8  -0.262  -0.156  -0.101
    1UNL     C8    9  -0.248  -0.015  -0.117
    1UNL     C9   10  -0.238   0.074  -0.011
    1UNL     N2   11  -0.251   0.197  -0.061
    1UNL    C10   12  -0.273   0.196  -0.198
    1UNL    C11   13  -0.302   0.295  -0.300
    1UNL    C12   14  -0.343   0.257  -0.425
    1UNL    C13   15  -0.338   0.125  -0.469
    1UNL    C14   16  -0.305   0.031  -0.373
    1UNL    C15   17  -0.271   0.059  -0.242
    1UNL    C16   18  -0.197   0.040   0.126
    1UNL    C17   19  -0.101   0.141   0.170
    1UNL    C18   20  -0.139   0.263   0.223
    1UNL     O1   21  -0.269   0.296   0.225
    1UNL    C19   22  -0.317   0.334   0.356
    1UNL    C20   23  -0.040   0.353   0.273
    1UNL    C21   24   0.095   0.329   0.252
    1UNL    C22   25   0.139   0.204   0.207
    1UNL    C23   26   0.265   0.157   0.157
    1UNL    C24   27   0.240   0.034   0.105
    1UNL     N3   28   0.110   0.002   0.130
    1UNL    C25   29   0.044   0.111   0.174
    1UNL    C26   30   0.323  -0.054   0.011
    1UNL    C27   31   0.252  -0.188  -0.020
    1UNL     O2   32   0.157  -0.186  -0.096
    1UNL     O3   33   0.301  -0.301   0.044
    1UNL    C28   34   0.220  -0.411   0.031
    1UNL    C29   35   0.453  -0.098   0.087
    1UNL    C30   36   0.573  -0.101  -0.012
    1UNL    C31   37   0.536  -0.165  -0.147
    1UNL    C32   38   0.441  -0.064  -0.229
    1UNL    C33   39   0.339  -0.135  -0.316
    1UNL    C34   40   0.238  -0.061  -0.406
    1UNL    C35   41   0.373   0.030  -0.121
    1UNL     N4   42   0.478   0.123  -0.067
    1UNL    C36   43   0.447   0.249   0.009
    1UNL    C37   44   0.392   0.234   0.156
    1UNL    C38   45   0.610   0.047  -0.032
    1UNL    C39   46   0.700   0.117   0.077
    1UNL    C40   47   0.842   0.126   0.031
    1UNL    C41   48   0.929   0.230   0.102
    1UNL     O4   49   0.891   0.049  -0.050
    1UNL    C42   50  -0.320   0.021   0.216
    1UNL    C43   51  -0.444  -0.053   0.156
    1UNL    C44   52  -0.399  -0.198   0.112
    1UNL    C45   53  -0.501  -0.297   0.171
    1UNL     O5   54  -0.612  -0.255   0.199
    1UNL     O6   55  -0.454  -0.420   0.188
    1UNL    C46   56  -0.555  -0.503   0.230
    1UNL     H1   57  -0.700   0.221  -0.045
    1UNL     H2   58  -0.562   0.195  -0.160
    1UNL     H3   59  -0.541   0.337  -0.068
    1UNL     H4   60  -0.446   0.206   0.104
    1UNL     H5   61  -0.641   0.001  -0.110
    1UNL     H6   62  -0.680  -0.109   0.009
    1UNL     H7   63  -0.713  -0.221  -0.199
    1UNL     H8   64  -0.657  -0.338  -0.087
    1UNL     H9   65  -0.591  -0.331  -0.254
    1UNL    H10   66  -0.386  -0.320  -0.054
    1UNL    H11   67  -0.233  -0.221  -0.185
    1UNL    H12   68  -0.184  -0.183  -0.024
    1UNL    H13   69  -0.259   0.280  -0.003
    1UNL    H14   70  -0.293   0.400  -0.271
    1UNL    H15   71  -0.382   0.332  -0.490
    1UNL    H16   72  -0.353   0.099  -0.571
    1UNL    H17   73  -0.285  -0.069  -0.410
    1UNL    H18   74  -0.140  -0.056   0.126
    1UNL    H19   75  -0.275   0.274   0.438
    1UNL    H20   76  -0.420   0.313   0.372
    1UNL    H21   77  -0.298   0.444   0.374
    1UNL    H22   78  -0.071   0.457   0.309
    1UNL    H23   79   0.160   0.418   0.269
    1UNL    H24   80   0.059  -0.083   0.104
    1UNL    H25   81   0.266  -0.479  -0.047
    1UNL    H26   82   0.119  -0.388  -0.008
    1UNL    H27   83   0.207  -0.459   0.127
    1UNL    H28   84   0.443  -0.205   0.127
    1UNL    H29   85   0.475  -0.034   0.179
    1UNL    H30   86   0.654  -0.151   0.037
    1UNL    H31   87   0.484  -0.262  -0.131
    1UNL    H32   88   0.623  -0.179  -0.214
    1UNL    H33   89   0.504  -0.005  -0.296
    1UNL    H34   90   0.391  -0.200  -0.383
    1UNL    H35   91   0.282  -0.204  -0.256
    1UNL    H36   92   0.180   0.018  -0.362
    1UNL    H37   93   0.299  -0.014  -0.488
    1UNL    H38   94   0.162  -0.135  -0.453
    1UNL    H39   95   0.290   0.084  -0.162
    1UNL    H40   96   0.379   0.302  -0.057
    1UNL    H41   97   0.538   0.314   0.008
    1UNL    H42   98   0.386   0.334   0.207
    1UNL    H43   99   0.463   0.186   0.223
    1UNL    H44  100   0.660   0.051  -0.134
    1UNL    H45  101   0.703   0.050   0.165
    1UNL    H46  102   0.657   0.213   0.105
    1UNL    H47  103   0.924   0.223   0.207
    1UNL    H48  104   1.031   0.214   0.071
    1UNL    H49  105   0.906   0.326   0.058
    1UNL    H50  106  -0.284  -0.019   0.313
    1UNL    H51  107  -0.350   0.123   0.235
    1UNL    H52  108  -0.512  -0.064   0.247
    1UNL    H53  109  -0.301  -0.224   0.156
    1UNL    H54  110  -0.527  -0.591   0.287
    1UNL    H55  111  -0.622  -0.449   0.297
    1UNL    H56  112  -0.608  -0.530   0.133
   0.00000   0.00000   0.00000   0.00000   0.00000   0.00000   0.00000   0.00000   0.00000
Generated with MDTraj, t= 74.0
 112
    1UNL     C1    1  -0.581   0.249  -0.029
    1UNL     C2    2  -0.505   0.155   0.058
    1UNL     C3    3  -0.518   0.019   0.069
    1UNL     C4    4  -0.600  -0.064  -0.027
    1UNL     N1    5  -0.522  -0.151  -0.111
    1UNL     C5    6  -0.601  -0.231  -0.207
    1UNL     C6    7  -0.403  -0.207  -0.035
    1UNL     C7    8  -0.273  -0.155  -0.102
    1UNL     C8    9  -0.272  -0.012  -0.116
    1UNL     C9   10  -0.251   0.077  -0.013
    1UNL     N2   11  -0.243   0.202  -0.065
    1UNL    C10   12  -0.274   0.197  -0.200
    1UNL    C11   13  -0.272   0.302  -0.298
    1UNL    C12   14  -0.305   0.270  -0.427
    1UNL    C13   15  -0.327   0.139  -0.457
    1UNL    C14   16  -0.321   0.029  -0.368
    1UNL    C15   17  -0.285   0.061  -0.236
    1UNL    C16   18  -0.206   0.041   0.127
    1UNL    C17   19  -0.102   0.145   0.173
    1UNL    C18   20  -0.137   0.268   0.223
    1UNL     O1   21  -0.271   0.306   0.225
    1UNL    C19   22  -0.298   0.375   0.344
    1UNL    C20   23  -0.036   0.357   0.258
    1UNL    C21   24   0.099   0.320   0.244
    1UNL    C22   25   0.139   0.207   0.176
    1UNL    C23   26   0.265   0.149   0.152
    1UNL    C24   27   0.241   0.023   0.100
    1UNL     N3   28   0.103   0.000   0.112
    1UNL    C25   29   0.036   0.116   0.145
    1UNL    C26   30   0.330  -0.075   0.022
    1UNL    C27   31   0.244  -0.203   0.000
    1UNL     O2   32   0.142  -0.196  -0.065
    1UNL     O3   33   0.286  -0.317   0.058
    1UNL    C28   34   0.209  -0.429   0.024
    1UNL    C29   35   0.460  -0.117   0.102
    1UNL    C30   36   0.584  -0.104   0.004
    1UNL    C31   37   0.552  -0.169  -0.129
    1UNL    C32   38   0.442  -0.100  -0.215
    1UNL    C33   39   0.337  -0.176  -0.301
    1UNL    C34   40   0.230  -0.075  -0.353
    1UNL    C35   41   0.377  -0.002  -0.116
    1UNL     N4   42   0.475   0.112  -0.073
    1UNL    C36   43   0.422   0.237  -0.006
    1UNL    C37   44   0.396   0.222   0.142
    1UNL    C38   45   0.609   0.052  -0.032
    1UNL    C39   46   0.685   0.142   0.066
    1UNL    C40   47   0.824   0.164   0.018
    1UNL    C41   48   0.918   0.251   0.097
    1UNL     O4   49   0.867   0.108  -0.076
    1UNL    C42   50  -0.315   0.024   0.231
    1UNL    C43   51  -0.440  -0.053   0.172
    1UNL    C44   52  -0.403  -0.194   0.115
    1UNL    C45   53  -0.491  -0.303   0.165
    1UNL     O5   54  -0.613  -0.288   0.161
    1UNL     O6   55  -0.429  -0.428   0.167
    1UNL    C46   56  -0.519  -0.526   0.206
    1UNL     H1   57  -0.690   0.229  -0.018
    1UNL     H2   58  -0.558   0.230  -0.133
    1UNL     H3   59  -0.550   0.360  -0.024
    1UNL     H4   60  -0.440   0.202   0.127
    1UNL     H5   61  -0.656  -0.004  -0.085
    1UNL     H6   62  -0.679  -0.129   0.019
    1UNL     H7   63  -0.659  -0.161  -0.269
    1UNL     H8   64  -0.675  -0.301  -0.164
    1UNL     H9   65  -0.525  -0.276  -0.272
    1UNL    H10   66  -0.411  -0.315  -0.058
    1UNL    H11   67  -0.266  -0.209  -0.195
    1UNL    H12   68  -0.181  -0.187  -0.039
    1UNL    H13   69  -0.233   0.292  -0.017
    1UNL    H14   70  -0.254   0.399  -0.260
    1UNL    H15   71  -0.306   0.352  -0.501
    1UNL    H16   72  -0.359   0.111  -0.556
    1UNL    H17   73  -0.343  -0.076  -0.399
    1UNL    H18   74  -0.153  -0.056   0.112
    1UNL    H19   75  -0.286   0.313   0.432
    1UNL    H20   76  -0.402   0.390   0.344
    1UNL    H21   77  -0.246   0.472   0.345
    1UNL    H22   78  -0.063   0.450   0.297
    1UNL    H23   79   0.167   0.386   0.285
    1UNL    H24   80   0.070  -0.068   0.037
    1UNL    H25   81   0.196  -0.435  -0.085
    1UNL    H26   82   0.112  -0.421   0.067
    1UNL    H27   83   0.257  -0.515   0.058
    1UNL    H28   84   0.452  -0.224   0.142
    1UNL    H29   85   0.472  -0.042   0.183
    1UNL    H30   86   0.677  -0.139   0.043
    1UNL    H31   87   0.525  -0.277  -0.119
    1UNL    H32   88   0.639  -0.168  -0.196
    1UNL    H33   89   0.488  -0.040  -0.293
    1UNL    H34   90   0.386  -0.236  -0.374
    1UNL    H35   91   0.293  -0.246  -0.229
    1UNL    H36   92   0.147  -0.053  -0.279
    1UNL    H37   93   0.272   0.021  -0.378
    1UNL    H38   94   0.176  -0.115  -0.446
    1UNL    H39   95   0.297   0.050  -0.161
    1UNL    H40   96   0.330   0.261  -0.054
    1UNL    H41   97   0.495   0.319  -0.035
    1UNL    H42   98   0.388   0.317   0.200
    1UNL    H43   99   0.477   0.174   0.197
    1UNL    H44  100   0.666   0.037  -0.127
    1UNL    H45  101   0.686   0.096   0.164
    1UNL    H46  102   0.634   0.245   0.065
    1UNL    H47  103   0.925   0.218   0.198
    1UNL    H48  104   1.016   0.249   0.052
    1UNL    H49  105   0.883   0.352   0.085
    1UNL    H50  106  -0.277  -0.031   0.321
    1UNL    H51  107  -0.340   0.117   0.277
    1UNL    H52  108  -0.506  -0.062   0.263
    1UNL    H53  109  -0.300  -0.223   0.146
    1UNL    H54  110  -0.489  -0.629   0.191
    1UNL    H55  111  -0.537  -0.521   0.313
    1UNL    H56  112  -0.609  -0.508   0.141
   0.00000   0.00000   0.00000   0.00000   0.00000   0.00000   0.00000   0.00000   0.00000
Generated with MDTraj, t= 75.0
 112
    1UNL     C1    1  -0.610   0.237  -0.012
    1UNL     C2    2  -0.527   0.152   0.071
    1UNL     C3    3  -0.524   0.019   0.064
    1UNL     C4    4  -0.610  -0.056  -0.029
    1UNL     N1    5  -0.520  -0.126  -0.129
    1UNL     C5    6  -0.592  -0.201  -0.234
    1UNL     C6    7  -0.419  -0.205  -0.062
    1UNL     C7    8  -0.283  -0.145  -0.118
    1UNL     C8    9  -0.266   0.000  -0.117
    1UNL     C9   10  -0.228   0.078  -0.013
    1UNL     N2   11  -0.213   0.211  -0.062
    1UNL    C10   12  -0.260   0.213  -0.195
    1UNL    C11   13  -0.270   0.317  -0.285
    1UNL    C12   14  -0.295   0.290  -0.419
    1UNL    C13   15  -0.317   0.153  -0.455
    1UNL    C14   16  -0.317   0.050  -0.362
    1UNL    C15   17  -0.289   0.082  -0.229
    1UNL    C16   18  -0.207   0.037   0.129
    1UNL    C17   19  -0.103   0.130   0.189
    1UNL    C18   20  -0.136   0.262   0.224
    1UNL     O1   21  -0.266   0.302   0.242
    1UNL    C19   22  -0.285   0.435   0.308
    1UNL    C20   23  -0.038   0.359   0.246
    1UNL    C21   24   0.092   0.330   0.232
    1UNL    C22   25   0.132   0.201   0.204
    1UNL    C23   26   0.260   0.142   0.160
    1UNL    C24   27   0.241   0.019   0.101
    1UNL     N3   28   0.109  -0.013   0.131
    1UNL    C25   29   0.038   0.100   0.188
    1UNL    C26   30   0.330  -0.074   0.018
    1UNL    C27   31   0.254  -0.199  -0.009
    1UNL     O2   32   0.147  -0.187  -0.066
    1UNL     O3   33   0.304  -0.316   0.034
    1UNL    C28   34   0.203  -0.418   0.024
    1UNL    C29   35   0.457  -0.101   0.097
    1UNL    C30   36   0.586  -0.096   0.008
    1UNL    C31   37   0.561  -0.181  -0.124
    1UNL    C32   38   0.435  -0.112  -0.206
    1UNL    C33   39   0.341  -0.228  -0.266
    1UNL    C34   40   0.224  -0.180  -0.349
    1UNL    C35   41   0.364  -0.005  -0.110
    1UNL     N4   42   0.462   0.107  -0.078
    1UNL    C36   43   0.414   0.233  -0.017
    1UNL    C37   44   0.382   0.226   0.134
    1UNL    C38   45   0.602   0.053  -0.033
    1UNL    C39   46   0.689   0.134   0.067
    1UNL    C40   47   0.822   0.176   0.007
    1UNL    C41   48   0.900   0.260   0.100
    1UNL     O4   49   0.859   0.141  -0.102
    1UNL    C42   50  -0.326   0.010   0.227
    1UNL    C43   51  -0.450  -0.065   0.165
    1UNL    C44   52  -0.410  -0.200   0.098
    1UNL    C45   53  -0.478  -0.322   0.152
    1UNL     O5   54  -0.592  -0.302   0.186
    1UNL     O6   55  -0.417  -0.443   0.162
    1UNL    C46   56  -0.504  -0.538   0.214
    1UNL     H1   57  -0.711   0.206  -0.016
    1UNL     H2   58  -0.575   0.239  -0.117
    1UNL     H3   59  -0.597   0.353   0.005
    1UNL     H4   60  -0.481   0.194   0.161
    1UNL     H5   61  -0.688  -0.002  -0.077
    1UNL     H6   62  -0.669  -0.126   0.034
    1UNL     H7   63  -0.667  -0.137  -0.273
    1UNL     H8   64  -0.638  -0.289  -0.184
    1UNL     H9   65  -0.518  -0.230  -0.310
    1UNL    H10   66  -0.429  -0.313  -0.097
    1UNL    H11   67  -0.256  -0.179  -0.216
    1UNL    H12   68  -0.200  -0.186  -0.046
    1UNL    H13   69  -0.171   0.294  -0.018
    1UNL    H14   70  -0.269   0.422  -0.256
    1UNL    H15   71  -0.318   0.366  -0.488
    1UNL    H16   72  -0.325   0.131  -0.565
    1UNL    H17   73  -0.355  -0.041  -0.392
    1UNL    H18   74  -0.161  -0.063   0.112
    1UNL    H19   75  -0.220   0.456   0.391
    1UNL    H20   76  -0.380   0.425   0.353
    1UNL    H21   77  -0.281   0.512   0.230
    1UNL    H22   78  -0.067   0.457   0.281
    1UNL    H23   79   0.164   0.408   0.267
    1UNL    H24   80   0.065  -0.107   0.129
    1UNL    H25   81   0.138  -0.400  -0.060
    1UNL    H26   82   0.147  -0.408   0.111
    1UNL    H27   83   0.247  -0.511   0.020
    1UNL    H28   84   0.453  -0.203   0.145
    1UNL    H29   85   0.462  -0.023   0.176
    1UNL    H30   86   0.669  -0.129   0.065
    1UNL    H31   87   0.531  -0.286  -0.095
    1UNL    H32   88   0.648  -0.197  -0.187
    1UNL    H33   89   0.474  -0.062  -0.294
    1UNL    H34   90   0.411  -0.283  -0.327
    1UNL    H35   91   0.312  -0.296  -0.185
    1UNL    H36   92   0.138  -0.138  -0.279
    1UNL    H37   93   0.262  -0.101  -0.410
    1UNL    H38   94   0.185  -0.265  -0.414
    1UNL    H39   95   0.279   0.034  -0.160
    1UNL    H40   96   0.323   0.254  -0.065
    1UNL    H41   97   0.491   0.316  -0.032
    1UNL    H42   98   0.374   0.330   0.169
    1UNL    H43   99   0.468   0.190   0.192
    1UNL    H44  100   0.652   0.050  -0.131
    1UNL    H45  101   0.711   0.079   0.157
    1UNL    H46  102   0.624   0.227   0.090
    1UNL    H47  103   0.900   0.213   0.197
    1UNL    H48  104   1.001   0.281   0.071
    1UNL    H49  105   0.849   0.354   0.111
    1UNL    H50  106  -0.290  -0.054   0.312
    1UNL    H51  107  -0.352   0.098   0.281
    1UNL    H52  108  -0.519  -0.086   0.251
    1UNL    H53  109  -0.302  -0.221   0.116
    1UNL    H54  110  -0.464  -0.636   0.231
    1UNL    H55  111  -0.545  -0.510   0.310
    1UNL    H56  112  -0.582  -0.551   0.135
   0.00000   0.00000   0.00000   0.00000   0.00000   0.00000   0.00000   0.00000   0.00000
Generated with MDTraj, t= 76.0
 112
    1UNL     C1    1  -0.636   0.226  -0.021
    1UNL     C2    2  -0.541   0.160   0.069
    1UNL     C3    3  -0.530   0.027   0.069
    1UNL     C4    4  -0.606  -0.057  -0.026
    1UNL     N1    5  -0.520  -0.134  -0.124
    1UNL     C5    6  -0.581  -0.200  -0.249
    1UNL     C6    7  -0.402  -0.199  -0.067
    1UNL     C7    8  -0.267  -0.149  -0.127
    1UNL     C8    9  -0.260  -0.004  -0.120
    1UNL     C9   10  -0.237   0.070  -0.003
    1UNL     N2   11  -0.237   0.208  -0.033
    1UNL    C10   12  -0.256   0.221  -0.169
    1UNL    C11   13  -0.276   0.336  -0.248
    1UNL    C12   14  -0.299   0.321  -0.384
    1UNL    C13   15  -0.308   0.190  -0.445
    1UNL    C14   16  -0.303   0.083  -0.361
    1UNL    C15   17  -0.271   0.092  -0.222
    1UNL    C16   18  -0.199   0.032   0.132
    1UNL    C17   19  -0.098   0.133   0.189
    1UNL    C18   20  -0.135   0.256   0.239
    1UNL     O1   21  -0.276   0.273   0.243
    1UNL    C19   22  -0.322   0.412   0.237
    1UNL    C20   23  -0.029   0.350   0.268
    1UNL    C21   24   0.103   0.326   0.246
    1UNL    C22   25   0.141   0.207   0.187
    1UNL    C23   26   0.256   0.156   0.132
    1UNL    C24   27   0.233   0.024   0.090
    1UNL     N3   28   0.097  -0.001   0.119
    1UNL    C25   29   0.039   0.115   0.163
    1UNL    C26   30   0.321  -0.085   0.020
    1UNL    C27   31   0.240  -0.222   0.008
    1UNL     O2   32   0.125  -0.225  -0.037
    1UNL     O3   33   0.300  -0.335   0.053
    1UNL    C28   34   0.207  -0.445   0.031
    1UNL    C29   35   0.450  -0.107   0.107
    1UNL    C30   36   0.577  -0.088   0.016
    1UNL    C31   37   0.570  -0.174  -0.110
    1UNL    C32   38   0.453  -0.125  -0.200
    1UNL    C33   39   0.363  -0.240  -0.264
    1UNL    C34   40   0.238  -0.196  -0.345
    1UNL    C35   41   0.372  -0.027  -0.115
    1UNL     N4   42   0.456   0.096  -0.084
    1UNL    C36   43   0.399   0.223  -0.044
    1UNL    C37   44   0.381   0.235   0.105
    1UNL    C38   45   0.592   0.056  -0.032
    1UNL    C39   46   0.679   0.145   0.059
    1UNL    C40   47   0.814   0.181   0.000
    1UNL    C41   48   0.901   0.260   0.091
    1UNL     O4   49   0.846   0.151  -0.114
    1UNL    C42   50  -0.316   0.018   0.231
    1UNL    C43   51  -0.433  -0.056   0.162
    1UNL    C44   52  -0.391  -0.188   0.094
    1UNL    C45   53  -0.474  -0.306   0.147
    1UNL     O5   54  -0.586  -0.291   0.188
    1UNL     O6   55  -0.409  -0.426   0.155
    1UNL    C46   56  -0.485  -0.526   0.212
    1UNL     H1   57  -0.735   0.198   0.003
    1UNL     H2   58  -0.617   0.194  -0.127
    1UNL     H3   59  -0.604   0.336  -0.028
    1UNL     H4   60  -0.491   0.214   0.144
    1UNL     H5   61  -0.677   0.004  -0.090
    1UNL     H6   62  -0.672  -0.118   0.033
    1UNL     H7   63  -0.635  -0.134  -0.312
    1UNL     H8   64  -0.643  -0.280  -0.204
    1UNL     H9   65  -0.493  -0.245  -0.297
    1UNL    H10   66  -0.418  -0.311  -0.092
    1UNL    H11   67  -0.265  -0.165  -0.234
    1UNL    H12   68  -0.173  -0.203  -0.085
    1UNL    H13   69  -0.243   0.277   0.042
    1UNL    H14   70  -0.292   0.431  -0.201
    1UNL    H15   71  -0.306   0.410  -0.450
    1UNL    H16   72  -0.325   0.184  -0.545
    1UNL    H17   73  -0.309  -0.017  -0.410
    1UNL    H18   74  -0.162  -0.072   0.118
    1UNL    H19   75  -0.320   0.450   0.337
    1UNL    H20   76  -0.424   0.412   0.204
    1UNL    H21   77  -0.251   0.463   0.172
    1UNL    H22   78  -0.056   0.451   0.307
    1UNL    H23   79   0.183   0.391   0.272
    1UNL    H24   80   0.053  -0.071   0.064
    1UNL    H25   81   0.201  -0.463  -0.078
    1UNL    H26   82   0.115  -0.406   0.072
    1UNL    H27   83   0.241  -0.533   0.077
    1UNL    H28   84   0.454  -0.212   0.144
    1UNL    H29   85   0.456  -0.043   0.198
    1UNL    H30   86   0.660  -0.118   0.074
    1UNL    H31   87   0.545  -0.282  -0.088
    1UNL    H32   88   0.665  -0.180  -0.162
    1UNL    H33   89   0.508  -0.071  -0.278
    1UNL    H34   90   0.428  -0.308  -0.320
    1UNL    H35   91   0.330  -0.302  -0.178
    1UNL    H36   92   0.162  -0.143  -0.272
    1UNL    H37   93   0.268  -0.124  -0.424
    1UNL    H38   94   0.191  -0.286  -0.392
    1UNL    H39   95   0.287   0.004  -0.172
    1UNL    H40   96   0.303   0.232  -0.084
    1UNL    H41   97   0.468   0.304  -0.087
    1UNL    H42   98   0.365   0.340   0.131
    1UNL    H43   99   0.469   0.199   0.161
    1UNL    H44  100   0.645   0.050  -0.127
    1UNL    H45  101   0.686   0.088   0.152
    1UNL    H46  102   0.626   0.240   0.082
    1UNL    H47  103   0.912   0.223   0.193
    1UNL    H48  104   0.996   0.282   0.049
    1UNL    H49  105   0.856   0.355   0.104
    1UNL    H50  106  -0.274  -0.032   0.323
    1UNL    H51  107  -0.350   0.112   0.273
    1UNL    H52  108  -0.498  -0.097   0.243
    1UNL    H53  109  -0.287  -0.219   0.118
    1UNL    H54  110  -0.440  -0.623   0.224
    1UNL    H55  111  -0.517  -0.498   0.310
    1UNL    H56  112  -0.572  -0.539   0.145
   0.00000   0.00000   0.00000   0.00000   0.00000   0.00000   0.00000   0.00000   0.00000
Generated with MDTraj, t= 77.0
 112
    1UNL     C1    1  -0.607   0.236  -0.028
    1UNL     C2    2  -0.538   0.151   0.071
    1UNL     C3    3  -0.529   0.018   0.061
    1UNL     C4    4  -0.599  -0.066  -0.046
    1UNL     N1    5  -0.508  -0.151  -0.125
    1UNL     C5    6  -0.558  -0.225  -0.251
    1UNL     C6    7  -0.385  -0.190  -0.055
    1UNL     C7    8  -0.261  -0.128  -0.123
    1UNL     C8    9  -0.261   0.020  -0.112
    1UNL     C9   10  -0.254   0.094   0.005
    1UNL     N2   11  -0.282   0.221  -0.026
    1UNL    C10   12  -0.272   0.239  -0.166
    1UNL    C11   13  -0.299   0.359  -0.240
    1UNL    C12   14  -0.314   0.343  -0.375
    1UNL    C13   15  -0.316   0.214  -0.434
    1UNL    C14   16  -0.292   0.102  -0.363
    1UNL    C15   17  -0.265   0.109  -0.220
    1UNL    C16   18  -0.217   0.039   0.145
    1UNL    C17   19  -0.109   0.130   0.197
    1UNL    C18   20  -0.137   0.258   0.246
    1UNL     O1   21  -0.263   0.305   0.247
    1UNL    C19   22  -0.273   0.445   0.228
    1UNL    C20   23  -0.031   0.348   0.277
    1UNL    C21   24   0.094   0.323   0.238
    1UNL    C22   25   0.118   0.196   0.185
    1UNL    C23   26   0.233   0.148   0.121
    1UNL    C24   27   0.223   0.011   0.094
    1UNL     N3   28   0.095  -0.027   0.124
    1UNL    C25   29   0.024   0.093   0.171
    1UNL    C26   30   0.329  -0.076   0.023
    1UNL    C27   31   0.258  -0.212   0.010
    1UNL     O2   32   0.160  -0.224  -0.064
    1UNL     O3   33   0.319  -0.308   0.076
    1UNL    C28   34   0.237  -0.418   0.059
    1UNL    C29   35   0.449  -0.086   0.120
    1UNL    C30   36   0.572  -0.093   0.027
    1UNL    C31   37   0.563  -0.201  -0.085
    1UNL    C32   38   0.452  -0.144  -0.188
    1UNL    C33   39   0.362  -0.244  -0.267
    1UNL    C34   40   0.251  -0.190  -0.348
    1UNL    C35   41   0.371  -0.027  -0.122
    1UNL     N4   42   0.463   0.092  -0.103
    1UNL    C36   43   0.388   0.210  -0.068
    1UNL    C37   44   0.358   0.219   0.082
    1UNL    C38   45   0.593   0.046  -0.041
    1UNL    C39   46   0.673   0.144   0.043
    1UNL    C40   47   0.810   0.167  -0.009
    1UNL    C41   48   0.897   0.242   0.085
    1UNL     O4   49   0.847   0.135  -0.121
    1UNL    C42   50  -0.342   0.012   0.235
    1UNL    C43   51  -0.449  -0.072   0.158
    1UNL    C44   52  -0.393  -0.203   0.100
    1UNL    C45   53  -0.478  -0.322   0.144
    1UNL     O5   54  -0.595  -0.309   0.171
    1UNL     O6   55  -0.407  -0.439   0.157
    1UNL    C46   56  -0.479  -0.540   0.209
    1UNL     H1   57  -0.701   0.189  -0.055
    1UNL     H2   58  -0.543   0.232  -0.122
    1UNL     H3   59  -0.603   0.342  -0.002
    1UNL     H4   60  -0.491   0.200   0.154
    1UNL     H5   61  -0.672  -0.002  -0.112
    1UNL     H6   62  -0.665  -0.132   0.004
    1UNL     H7   63  -0.642  -0.169  -0.287
    1UNL     H8   64  -0.584  -0.324  -0.213
    1UNL     H9   65  -0.474  -0.230  -0.321
    1UNL    H10   66  -0.387  -0.303  -0.083
    1UNL    H11   67  -0.267  -0.148  -0.231
    1UNL    H12   68  -0.165  -0.176  -0.094
    1UNL    H13   69  -0.268   0.299   0.040
    1UNL    H14   70  -0.297   0.451  -0.182
    1UNL    H15   71  -0.325   0.428  -0.433
    1UNL    H16   72  -0.331   0.210  -0.549
    1UNL    H17   73  -0.275   0.008  -0.407
    1UNL    H18   74  -0.171  -0.061   0.128
    1UNL    H19   75  -0.256   0.490   0.325
    1UNL    H20   76  -0.380   0.456   0.203
    1UNL    H21   77  -0.199   0.478   0.153
    1UNL    H22   78  -0.056   0.433   0.329
    1UNL    H23   79   0.167   0.399   0.260
    1UNL    H24   80   0.054  -0.116   0.106
    1UNL    H25   81   0.247  -0.447  -0.051
    1UNL    H26   82   0.137  -0.386   0.101
    1UNL    H27   83   0.291  -0.497   0.116
    1UNL    H28   84   0.450  -0.169   0.192
    1UNL    H29   85   0.455   0.003   0.186
    1UNL    H30   86   0.656  -0.119   0.086
    1UNL    H31   87   0.533  -0.303  -0.054
    1UNL    H32   88   0.657  -0.207  -0.141
    1UNL    H33   89   0.514  -0.086  -0.261
    1UNL    H34   90   0.427  -0.309  -0.331
    1UNL    H35   91   0.326  -0.321  -0.197
    1UNL    H36   92   0.174  -0.139  -0.287
    1UNL    H37   93   0.278  -0.113  -0.433
    1UNL    H38   94   0.199  -0.270  -0.405
    1UNL    H39   95   0.291   0.011  -0.180
    1UNL    H40   96   0.301   0.212  -0.126
    1UNL    H41   97   0.438   0.304  -0.110
    1UNL    H42   98   0.345   0.324   0.104
    1UNL    H43   99   0.439   0.183   0.148
    1UNL    H44  100   0.653   0.028  -0.127
    1UNL    H45  101   0.678   0.107   0.147
    1UNL    H46  102   0.620   0.234   0.049
    1UNL    H47  103   0.901   0.201   0.187
    1UNL    H48  104   0.994   0.252   0.041
    1UNL    H49  105   0.862   0.341   0.103
    1UNL    H50  106  -0.305  -0.049   0.322
    1UNL    H51  107  -0.388   0.104   0.278
    1UNL    H52  108  -0.526  -0.110   0.229
    1UNL    H53  109  -0.291  -0.226   0.141
    1UNL    H54  110  -0.431  -0.637   0.202
    1UNL    H55  111  -0.501  -0.521   0.312
    1UNL    H56  112  -0.574  -0.543   0.150
   0.00000   0.00000   0.00000   0.00000   0.00000   0.00000   0.00000   0.00000   0.00000
Generated with MDTraj, t= 78.0
 112
    1UNL     C1    1  -0.627   0.223  -0.040
    1UNL     C2    2  -0.542   0.144   0.053
    1UNL     C3    3  -0.521   0.013   0.048
    1UNL     C4    4  -0.592  -0.082  -0.052
    1UNL     N1    5  -0.498  -0.147  -0.144
    1UNL     C5    6  -0.564  -0.254  -0.231
    1UNL     C6    7  -0.370  -0.197  -0.060
    1UNL     C7    8  -0.253  -0.126  -0.124
    1UNL     C8    9  -0.258   0.025  -0.110
    1UNL     C9   10  -0.236   0.107   0.000
    1UNL     N2   11  -0.263   0.236  -0.024
    1UNL    C10   12  -0.310   0.250  -0.153
    1UNL    C11   13  -0.321   0.359  -0.234
    1UNL    C12   14  -0.323   0.336  -0.371
    1UNL    C13   15  -0.328   0.205  -0.422
    1UNL    C14   16  -0.318   0.098  -0.342
    1UNL    C15   17  -0.303   0.114  -0.207
    1UNL    C16   18  -0.207   0.052   0.138
    1UNL    C17   19  -0.102   0.143   0.201
    1UNL    C18   20  -0.132   0.274   0.245
    1UNL     O1   21  -0.270   0.300   0.259
    1UNL    C19   22  -0.301   0.435   0.284
    1UNL    C20   23  -0.026   0.364   0.272
    1UNL    C21   24   0.103   0.338   0.235
    1UNL    C22   25   0.137   0.210   0.180
    1UNL    C23   26   0.257   0.149   0.137
    1UNL    C24   27   0.225   0.025   0.091
    1UNL     N3   28   0.084   0.012   0.097
    1UNL    C25   29   0.032   0.122   0.164
    1UNL    C26   30   0.324  -0.081   0.027
    1UNL    C27   31   0.252  -0.219   0.032
    1UNL     O2   32   0.152  -0.237  -0.035
    1UNL     O3   33   0.307  -0.311   0.117
    1UNL    C28   34   0.234  -0.438   0.096
    1UNL    C29   35   0.451  -0.101   0.102
    1UNL    C30   36   0.579  -0.086   0.009
    1UNL    C31   37   0.566  -0.181  -0.113
    1UNL    C32   38   0.444  -0.134  -0.206
    1UNL    C33   39   0.362  -0.250  -0.263
    1UNL    C34   40   0.269  -0.217  -0.382
    1UNL    C35   41   0.359  -0.030  -0.116
    1UNL     N4   42   0.447   0.088  -0.098
    1UNL    C36   43   0.384   0.215  -0.059
    1UNL    C37   44   0.368   0.237   0.089
    1UNL    C38   45   0.589   0.058  -0.051
    1UNL    C39   46   0.675   0.154   0.035
    1UNL    C40   47   0.820   0.146  -0.006
    1UNL    C41   48   0.916   0.216   0.088
    1UNL     O4   49   0.861   0.101  -0.108
    1UNL    C42   50  -0.329   0.022   0.223
    1UNL    C43   51  -0.435  -0.064   0.151
    1UNL    C44   52  -0.386  -0.201   0.091
    1UNL    C45   53  -0.469  -0.321   0.128
    1UNL     O5   54  -0.589  -0.311   0.128
    1UNL     O6   55  -0.402  -0.436   0.163
    1UNL    C46   56  -0.483  -0.548   0.185
    1UNL     H1   57  -0.736   0.199  -0.032
    1UNL     H2   58  -0.605   0.191  -0.146
    1UNL     H3   59  -0.603   0.326  -0.047
    1UNL     H4   60  -0.503   0.198   0.137
    1UNL     H5   61  -0.672  -0.019  -0.110
    1UNL     H6   62  -0.650  -0.154  -0.002
    1UNL     H7   63  -0.650  -0.195  -0.265
    1UNL     H8   64  -0.595  -0.337  -0.172
    1UNL     H9   65  -0.497  -0.279  -0.313
    1UNL    H10   66  -0.355  -0.309  -0.084
    1UNL    H11   67  -0.243  -0.163  -0.230
    1UNL    H12   68  -0.162  -0.159  -0.082
    1UNL    H13   69  -0.277   0.305   0.054
    1UNL    H14   70  -0.294   0.453  -0.188
    1UNL    H15   71  -0.329   0.432  -0.430
    1UNL    H16   72  -0.330   0.200  -0.527
    1UNL    H17   73  -0.320  -0.002  -0.387
    1UNL    H18   74  -0.157  -0.045   0.120
    1UNL    H19   75  -0.251   0.463   0.379
    1UNL    H20   76  -0.411   0.444   0.304
    1UNL    H21   77  -0.260   0.500   0.204
    1UNL    H22   78  -0.044   0.461   0.329
    1UNL    H23   79   0.190   0.397   0.267
    1UNL    H24   80   0.034  -0.071   0.079
    1UNL    H25   81   0.249  -0.460  -0.016
    1UNL    H26   82   0.128  -0.417   0.136
    1UNL    H27   83   0.290  -0.522   0.150
    1UNL    H28   84   0.459  -0.202   0.141
    1UNL    H29   85   0.452  -0.042   0.194
    1UNL    H30   86   0.666  -0.106   0.065
    1UNL    H31   87   0.544  -0.284  -0.084
    1UNL    H32   88   0.655  -0.177  -0.180
    1UNL    H33   89   0.480  -0.069  -0.290
    1UNL    H34   90   0.437  -0.329  -0.295
    1UNL    H35   91   0.299  -0.297  -0.188
    1UNL    H36   92   0.184  -0.158  -0.348
    1UNL    H37   93   0.318  -0.153  -0.469
    1UNL    H38   94   0.234  -0.312  -0.434
    1UNL    H39   95   0.268  -0.007  -0.162
    1UNL    H40   96   0.290   0.222  -0.105
    1UNL    H41   97   0.429   0.303  -0.117
    1UNL    H42   98   0.336   0.339   0.109
    1UNL    H43   99   0.461   0.212   0.139
    1UNL    H44  100   0.647   0.053  -0.140
    1UNL    H45  101   0.663   0.132   0.143
    1UNL    H46  102   0.641   0.251   0.027
    1UNL    H47  103   0.909   0.171   0.187
    1UNL    H48  104   1.012   0.210   0.039
    1UNL    H49  105   0.890   0.318   0.106
    1UNL    H50  106  -0.297  -0.042   0.309
    1UNL    H51  107  -0.371   0.116   0.272
    1UNL    H52  108  -0.503  -0.082   0.235
    1UNL    H53  109  -0.283  -0.216   0.134
    1UNL    H54  110  -0.433  -0.641   0.214
    1UNL    H55  111  -0.557  -0.517   0.255
    1UNL    H56  112  -0.536  -0.563   0.086
   0.00000   0.00000   0.00000   0.00000   0.00000   0.00000   0.00000   0.00000   0.00000
Generated with MDTraj, t= 79.0
 112
    1UNL     C1    1  -0.632   0.214  -0.034
    1UNL     C2    2  -0.550   0.135   0.055
    1UNL     C3    3  -0.523   0.008   0.049
    1UNL     C4    4  -0.587  -0.076  -0.062
    1UNL     N1    5  -0.495  -0.168  -0.131
    1UNL     C5    6  -0.556  -0.289  -0.204
    1UNL     C6    7  -0.357  -0.200  -0.071
    1UNL     C7    8  -0.249  -0.119  -0.143
    1UNL     C8    9  -0.252   0.031  -0.131
    1UNL     C9   10  -0.220   0.101  -0.017
    1UNL     N2   11  -0.236   0.235  -0.039
    1UNL    C10   12  -0.291   0.249  -0.173
    1UNL    C11   13  -0.330   0.359  -0.255
    1UNL    C12   14  -0.387   0.340  -0.382
    1UNL    C13   15  -0.380   0.216  -0.441
    1UNL    C14   16  -0.335   0.107  -0.365
    1UNL    C15   17  -0.293   0.124  -0.229
    1UNL    C16   18  -0.195   0.050   0.121
    1UNL    C17   19  -0.097   0.136   0.195
    1UNL    C18   20  -0.131   0.257   0.252
    1UNL     O1   21  -0.268   0.288   0.264
    1UNL    C19   22  -0.292   0.390   0.355
    1UNL    C20   23  -0.039   0.366   0.265
    1UNL    C21   24   0.090   0.346   0.223
    1UNL    C22   25   0.135   0.217   0.188
    1UNL    C23   26   0.256   0.168   0.132
    1UNL    C24   27   0.237   0.031   0.102
    1UNL     N3   28   0.108  -0.004   0.148
    1UNL    C25   29   0.042   0.109   0.182
    1UNL    C26   30   0.337  -0.066   0.037
    1UNL    C27   31   0.258  -0.198   0.037
    1UNL     O2   32   0.153  -0.208  -0.026
    1UNL     O3   33   0.309  -0.306   0.101
    1UNL    C28   34   0.200  -0.400   0.120
    1UNL    C29   35   0.467  -0.075   0.115
    1UNL    C30   36   0.582  -0.087   0.005
    1UNL    C31   37   0.539  -0.187  -0.107
    1UNL    C32   38   0.429  -0.131  -0.197
    1UNL    C33   39   0.330  -0.239  -0.240
    1UNL    C34   40   0.267  -0.208  -0.380
    1UNL    C35   41   0.361  -0.018  -0.108
    1UNL     N4   42   0.450   0.099  -0.102
    1UNL    C36   43   0.399   0.235  -0.053
    1UNL    C37   44   0.371   0.244   0.096
    1UNL    C38   45   0.589   0.050  -0.068
    1UNL    C39   46   0.682   0.158  -0.014
    1UNL    C40   47   0.824   0.118  -0.006
    1UNL    C41   48   0.901   0.179   0.103
    1UNL     O4   49   0.865   0.042  -0.089
    1UNL    C42   50  -0.317   0.026   0.208
    1UNL    C43   51  -0.429  -0.063   0.150
    1UNL    C44   52  -0.375  -0.199   0.084
    1UNL    C45   53  -0.465  -0.311   0.124
    1UNL     O5   54  -0.585  -0.309   0.110
    1UNL     O6   55  -0.395  -0.427   0.159
    1UNL    C46   56  -0.478  -0.535   0.183
    1UNL     H1   57  -0.729   0.159  -0.063
    1UNL     H2   58  -0.577   0.229  -0.127
    1UNL     H3   59  -0.650   0.312  -0.001
    1UNL     H4   60  -0.519   0.197   0.135
    1UNL     H5   61  -0.635  -0.014  -0.136
    1UNL     H6   62  -0.667  -0.136  -0.024
    1UNL     H7   63  -0.643  -0.252  -0.263
    1UNL     H8   64  -0.583  -0.369  -0.141
    1UNL     H9   65  -0.473  -0.317  -0.267
    1UNL    H10   66  -0.330  -0.305  -0.100
    1UNL    H11   67  -0.247  -0.145  -0.255
    1UNL    H12   68  -0.156  -0.148  -0.109
    1UNL    H13   69  -0.218   0.303   0.039
    1UNL    H14   70  -0.334   0.462  -0.218
    1UNL    H15   71  -0.418   0.424  -0.434
    1UNL    H16   72  -0.436   0.200  -0.529
    1UNL    H17   73  -0.352   0.011  -0.407
    1UNL    H18   74  -0.142  -0.047   0.107
    1UNL    H19   75  -0.232   0.378   0.447
    1UNL    H20   76  -0.399   0.389   0.394
    1UNL    H21   77  -0.263   0.488   0.315
    1UNL    H22   78  -0.075   0.455   0.306
    1UNL    H23   79   0.151   0.429   0.202
    1UNL    H24   80   0.064  -0.073   0.086
    1UNL    H25   81   0.198  -0.462   0.026
    1UNL    H26   82   0.108  -0.342   0.149
    1UNL    H27   83   0.247  -0.458   0.206
    1UNL    H28   84   0.464  -0.159   0.182
    1UNL    H29   85   0.481   0.010   0.179
    1UNL    H30   86   0.677  -0.109   0.047
    1UNL    H31   87   0.500  -0.278  -0.063
    1UNL    H32   88   0.630  -0.210  -0.170
    1UNL    H33   89   0.475  -0.079  -0.287
    1UNL    H34   90   0.391  -0.336  -0.248
    1UNL    H35   91   0.254  -0.249  -0.164
    1UNL    H36   92   0.216  -0.110  -0.375
    1UNL    H37   93   0.341  -0.202  -0.462
    1UNL    H38   94   0.194  -0.295  -0.411
    1UNL    H39   95   0.270   0.012  -0.150
    1UNL    H40   96   0.314   0.263  -0.109
    1UNL    H41   97   0.468   0.320  -0.086
    1UNL    H42   98   0.352   0.348   0.121
    1UNL    H43   99   0.460   0.210   0.144
    1UNL    H44  100   0.639   0.021  -0.159
    1UNL    H45  101   0.643   0.198   0.078
    1UNL    H46  102   0.676   0.245  -0.076
    1UNL    H47  103   0.872   0.125   0.193
    1UNL    H48  104   1.005   0.175   0.075
    1UNL    H49  105   0.871   0.280   0.130
    1UNL    H50  106  -0.283  -0.007   0.310
    1UNL    H51  107  -0.361   0.126   0.239
    1UNL    H52  108  -0.496  -0.091   0.232
    1UNL    H53  109  -0.277  -0.224   0.135
    1UNL    H54  110  -0.422  -0.618   0.230
    1UNL    H55  111  -0.559  -0.492   0.238
    1UNL    H56  112  -0.516  -0.567   0.081
   0.00000   0.00000   0.00000   0.00000   0.00000   0.00000   0.00000   0.00000   0.00000
Generated with MDTraj, t= 80.0
 112
    1UNL     C1    1  -0.632   0.214  -0.036
    1UNL     C2    2  -0.528   0.137   0.036
    1UNL     C3    3  -0.501   0.014   0.014
    1UNL     C4    4  -0.559  -0.053  -0.103
    1UNL     N1    5  -0.481  -0.177  -0.149
    1UNL     C5    6  -0.571  -0.290  -0.183
    1UNL     C6    7  -0.352  -0.206  -0.094
    1UNL     C7    8  -0.236  -0.116  -0.145
    1UNL     C8    9  -0.261   0.025  -0.125
    1UNL     C9   10  -0.234   0.095  -0.008
    1UNL     N2   11  -0.282   0.228  -0.035
    1UNL    C10   12  -0.302   0.242  -0.172
    1UNL    C11   13  -0.340   0.354  -0.245
    1UNL    C12   14  -0.398   0.334  -0.367
    1UNL    C13   15  -0.415   0.202  -0.412
    1UNL    C14   16  -0.360   0.092  -0.350
    1UNL    C15   17  -0.305   0.114  -0.224
    1UNL    C16   18  -0.190   0.049   0.129
    1UNL    C17   19  -0.100   0.149   0.196
    1UNL    C18   20  -0.135   0.280   0.232
    1UNL     O1   21  -0.267   0.319   0.253
    1UNL    C19   22  -0.298   0.339   0.385
    1UNL    C20   23  -0.037   0.375   0.266
    1UNL    C21   24   0.094   0.361   0.235
    1UNL    C22   25   0.133   0.239   0.179
    1UNL    C23   26   0.256   0.181   0.132
    1UNL    C24   27   0.234   0.056   0.092
    1UNL     N3   28   0.100   0.030   0.110
    1UNL    C25   29   0.037   0.137   0.167
    1UNL    C26   30   0.323  -0.052   0.026
    1UNL    C27   31   0.248  -0.188   0.055
    1UNL     O2   32   0.150  -0.211  -0.011
    1UNL     O3   33   0.299  -0.280   0.143
    1UNL    C28   34   0.228  -0.404   0.125
    1UNL    C29   35   0.464  -0.075   0.098
    1UNL    C30   36   0.583  -0.089  -0.006
    1UNL    C31   37   0.543  -0.190  -0.116
    1UNL    C32   38   0.427  -0.124  -0.197
    1UNL    C33   39   0.332  -0.224  -0.261
    1UNL    C34   40   0.241  -0.172  -0.361
    1UNL    C35   41   0.352  -0.007  -0.116
    1UNL     N4   42   0.462   0.097  -0.107
    1UNL    C36   43   0.410   0.231  -0.060
    1UNL    C37   44   0.379   0.251   0.092
    1UNL    C38   45   0.600   0.048  -0.078
    1UNL    C39   46   0.687   0.148  -0.010
    1UNL    C40   47   0.824   0.083   0.011
    1UNL    C41   48   0.914   0.122   0.123
    1UNL     O4   49   0.861  -0.006  -0.065
    1UNL    C42   50  -0.321   0.013   0.204
    1UNL    C43   51  -0.428  -0.073   0.124
    1UNL    C44   52  -0.365  -0.206   0.067
    1UNL    C45   53  -0.449  -0.325   0.117
    1UNL     O5   54  -0.568  -0.310   0.123
    1UNL     O6   55  -0.379  -0.434   0.146
    1UNL    C46   56  -0.456  -0.525   0.211
    1UNL     H1   57  -0.723   0.148  -0.051
    1UNL     H2   58  -0.594   0.237  -0.133
    1UNL     H3   59  -0.656   0.305   0.016
    1UNL     H4   60  -0.495   0.186   0.130
    1UNL     H5   61  -0.555   0.015  -0.178
    1UNL     H6   62  -0.667  -0.064  -0.088
    1UNL     H7   63  -0.653  -0.253  -0.249
    1UNL     H8   64  -0.618  -0.328  -0.096
    1UNL     H9   65  -0.509  -0.364  -0.228
    1UNL    H10   66  -0.322  -0.305  -0.128
    1UNL    H11   67  -0.228  -0.125  -0.260
    1UNL    H12   68  -0.145  -0.151  -0.108
    1UNL    H13   69  -0.283   0.310   0.031
    1UNL    H14   70  -0.331   0.452  -0.206
    1UNL    H15   71  -0.439   0.410  -0.439
    1UNL    H16   72  -0.468   0.186  -0.514
    1UNL    H17   73  -0.394  -0.003  -0.392
    1UNL    H18   74  -0.128  -0.043   0.122
    1UNL    H19   75  -0.231   0.297   0.463
    1UNL    H20   76  -0.402   0.297   0.407
    1UNL    H21   77  -0.292   0.445   0.405
    1UNL    H22   78  -0.068   0.466   0.313
    1UNL    H23   79   0.172   0.430   0.273
    1UNL    H24   80   0.061  -0.068   0.124
    1UNL    H25   81   0.185  -0.405   0.026
    1UNL    H26   82   0.159  -0.411   0.207
    1UNL    H27   83   0.319  -0.465   0.144
    1UNL    H28   84   0.465  -0.158   0.166
    1UNL    H29   85   0.490   0.009   0.157
    1UNL    H30   86   0.668  -0.124   0.045
    1UNL    H31   87   0.518  -0.282  -0.065
    1UNL    H32   88   0.634  -0.216  -0.179
    1UNL    H33   89   0.483  -0.068  -0.280
    1UNL    H34   90   0.409  -0.294  -0.309
    1UNL    H35   91   0.283  -0.271  -0.174
    1UNL    H36   92   0.160  -0.107  -0.311
    1UNL    H37   93   0.288  -0.107  -0.432
    1UNL    H38   94   0.192  -0.257  -0.423
    1UNL    H39   95   0.264   0.025  -0.163
    1UNL    H40   96   0.317   0.242  -0.107
    1UNL    H41   97   0.459   0.321  -0.109
    1UNL    H42   98   0.372   0.359   0.106
    1UNL    H43   99   0.461   0.215   0.150
    1UNL    H44  100   0.644   0.025  -0.175
    1UNL    H45  101   0.648   0.169   0.086
    1UNL    H46  102   0.690   0.250  -0.053
    1UNL    H47  103   0.895   0.073   0.216
    1UNL    H48  104   1.017   0.119   0.087
    1UNL    H49  105   0.898   0.225   0.158
    1UNL    H50  106  -0.297  -0.046   0.297
    1UNL    H51  107  -0.367   0.105   0.246
    1UNL    H52  108  -0.503  -0.117   0.187
    1UNL    H53  109  -0.265  -0.218   0.119
    1UNL    H54  110  -0.400  -0.620   0.220
    1UNL    H55  111  -0.488  -0.473   0.299
    1UNL    H56  112  -0.547  -0.538   0.146
   0.00000   0.00000   0.00000   0.00000   0.00000   0.00000   0.00000   0.00000   0.00000
Generated with MDTraj, t= 81.0
 112
    1UNL     C1    1  -0.628   0.225  -0.039
    1UNL     C2    2  -0.553   0.135   0.055
    1UNL     C3    3  -0.514   0.015   0.028
    1UNL     C4    4  -0.559  -0.059  -0.100
    1UNL     N1    5  -0.478  -0.178  -0.143
    1UNL     C5    6  -0.553  -0.298  -0.160
    1UNL     C6    7  -0.351  -0.201  -0.075
    1UNL     C7    8  -0.228  -0.120  -0.145
    1UNL     C8    9  -0.248   0.032  -0.138
    1UNL     C9   10  -0.233   0.108  -0.028
    1UNL     N2   11  -0.271   0.241  -0.048
    1UNL    C10   12  -0.318   0.250  -0.175
    1UNL    C11   13  -0.393   0.352  -0.239
    1UNL    C12   14  -0.440   0.324  -0.362
    1UNL    C13   15  -0.419   0.201  -0.431
    1UNL    C14   16  -0.345   0.104  -0.372
    1UNL    C15   17  -0.301   0.123  -0.238
    1UNL    C16   18  -0.200   0.055   0.108
    1UNL    C17   19  -0.101   0.143   0.175
    1UNL    C18   20  -0.136   0.267   0.228
    1UNL     O1   21  -0.270   0.286   0.247
    1UNL    C19   22  -0.296   0.317   0.379
    1UNL    C20   23  -0.047   0.374   0.251
    1UNL    C21   24   0.085   0.362   0.210
    1UNL    C22   25   0.132   0.239   0.170
    1UNL    C23   26   0.256   0.185   0.116
    1UNL    C24   27   0.236   0.050   0.090
    1UNL     N3   28   0.105   0.025   0.106
    1UNL    C25   29   0.036   0.130   0.159
    1UNL    C26   30   0.329  -0.048   0.025
    1UNL    C27   31   0.256  -0.196   0.024
    1UNL     O2   32   0.149  -0.219  -0.035
    1UNL     O3   33   0.326  -0.291   0.105
    1UNL    C28   34   0.221  -0.391   0.133
    1UNL    C29   35   0.460  -0.068   0.105
    1UNL    C30   36   0.573  -0.091  -0.004
    1UNL    C31   37   0.521  -0.184  -0.121
    1UNL    C32   38   0.424  -0.112  -0.211
    1UNL    C33   39   0.313  -0.207  -0.266
    1UNL    C34   40   0.190  -0.147  -0.325
    1UNL    C35   41   0.363   0.002  -0.121
    1UNL     N4   42   0.468   0.108  -0.098
    1UNL    C36   43   0.419   0.238  -0.056
    1UNL    C37   44   0.388   0.249   0.091
    1UNL    C38   45   0.606   0.048  -0.058
    1UNL    C39   46   0.704   0.128   0.027
    1UNL    C40   47   0.836   0.065   0.038
    1UNL    C41   48   0.931   0.090   0.150
    1UNL     O4   49   0.858  -0.023  -0.043
    1UNL    C42   50  -0.324   0.032   0.190
    1UNL    C43   51  -0.430  -0.062   0.127
    1UNL    C44   52  -0.365  -0.191   0.079
    1UNL    C45   53  -0.433  -0.312   0.136
    1UNL     O5   54  -0.555  -0.311   0.144
    1UNL     O6   55  -0.348  -0.422   0.169
    1UNL    C46   56  -0.430  -0.535   0.203
    1UNL     H1   57  -0.732   0.192  -0.041
    1UNL     H2   58  -0.591   0.211  -0.138
    1UNL     H3   59  -0.628   0.332  -0.016
    1UNL     H4   60  -0.551   0.176   0.154
    1UNL     H5   61  -0.573   0.007  -0.176
    1UNL     H6   62  -0.662  -0.086  -0.075
    1UNL     H7   63  -0.648  -0.281  -0.212
    1UNL     H8   64  -0.584  -0.336  -0.064
    1UNL     H9   65  -0.495  -0.373  -0.209
    1UNL    H10   66  -0.322  -0.302  -0.094
    1UNL    H11   67  -0.223  -0.160  -0.251
    1UNL    H12   68  -0.133  -0.152  -0.108
    1UNL    H13   69  -0.307   0.304   0.028
    1UNL    H14   70  -0.392   0.453  -0.199
    1UNL    H15   71  -0.480   0.405  -0.415
    1UNL    H16   72  -0.444   0.200  -0.529
    1UNL    H17   73  -0.308   0.021  -0.431
    1UNL    H18   74  -0.151  -0.044   0.098
    1UNL    H19   75  -0.296   0.233   0.450
    1UNL    H20   76  -0.401   0.359   0.391
    1UNL    H21   77  -0.220   0.379   0.416
    1UNL    H22   78  -0.089   0.471   0.288
    1UNL    H23   79   0.149   0.446   0.216
    1UNL    H24   80   0.063  -0.051   0.048
    1UNL    H25   81   0.196  -0.439   0.044
    1UNL    H26   82   0.137  -0.333   0.158
    1UNL    H27   83   0.262  -0.441   0.218
    1UNL    H28   84   0.456  -0.151   0.170
    1UNL    H29   85   0.489   0.018   0.161
    1UNL    H30   86   0.658  -0.137   0.039
    1UNL    H31   87   0.465  -0.268  -0.079
    1UNL    H32   88   0.610  -0.230  -0.173
    1UNL    H33   89   0.484  -0.056  -0.290
    1UNL    H34   90   0.364  -0.283  -0.333
    1UNL    H35   91   0.284  -0.267  -0.176
    1UNL    H36   92   0.132  -0.092  -0.239
    1UNL    H37   93   0.223  -0.067  -0.392
    1UNL    H38   94   0.128  -0.218  -0.383
    1UNL    H39   95   0.281   0.051  -0.161
    1UNL    H40   96   0.346   0.273  -0.121
    1UNL    H41   97   0.508   0.302  -0.082
    1UNL    H42   98   0.380   0.351   0.122
    1UNL    H43   99   0.473   0.213   0.149
    1UNL    H44  100   0.655   0.037  -0.157
    1UNL    H45  101   0.666   0.151   0.124
    1UNL    H46  102   0.719   0.230  -0.016
    1UNL    H47  103   0.915   0.028   0.235
    1UNL    H48  104   1.033   0.094   0.110
    1UNL    H49  105   0.911   0.187   0.197
    1UNL    H50  106  -0.286  -0.018   0.285
    1UNL    H51  107  -0.376   0.124   0.211
    1UNL    H52  108  -0.496  -0.093   0.205
    1UNL    H53  109  -0.266  -0.194   0.136
    1UNL    H54  110  -0.374  -0.631   0.191
    1UNL    H55  111  -0.476  -0.510   0.294
    1UNL    H56  112  -0.512  -0.532   0.127
   0.00000   0.00000   0.00000   0.00000   0.00000   0.00000   0.00000   0.00000   0.00000
Generated with MDTraj, t= 82.0
 112
    1UNL     C1    1  -0.662   0.191  -0.030
    1UNL     C2    2  -0.561   0.123   0.056
    1UNL     C3    3  -0.513   0.006   0.029
    1UNL     C4    4  -0.571  -0.078  -0.077
    1UNL     N1    5  -0.493  -0.178  -0.141
    1UNL     C5    6  -0.570  -0.307  -0.156
    1UNL     C6    7  -0.351  -0.202  -0.076
    1UNL     C7    8  -0.244  -0.110  -0.139
    1UNL     C8    9  -0.277   0.035  -0.125
    1UNL     C9   10  -0.244   0.115  -0.018
    1UNL     N2   11  -0.288   0.238  -0.048
    1UNL    C10   12  -0.350   0.246  -0.172
    1UNL    C11   13  -0.402   0.349  -0.260
    1UNL    C12   14  -0.424   0.319  -0.388
    1UNL    C13   15  -0.401   0.196  -0.446
    1UNL    C14   16  -0.367   0.088  -0.366
    1UNL    C15   17  -0.340   0.113  -0.228
    1UNL    C16   18  -0.196   0.074   0.118
    1UNL    C17   19  -0.096   0.171   0.175
    1UNL    C18   20  -0.128   0.297   0.225
    1UNL     O1   21  -0.263   0.338   0.233
    1UNL    C19   22  -0.296   0.337   0.369
    1UNL    C20   23  -0.024   0.390   0.244
    1UNL    C21   24   0.102   0.365   0.196
    1UNL    C22   25   0.140   0.233   0.167
    1UNL    C23   26   0.265   0.173   0.128
    1UNL    C24   27   0.236   0.040   0.098
    1UNL     N3   28   0.103   0.022   0.131
    1UNL    C25   29   0.043   0.139   0.164
    1UNL    C26   30   0.329  -0.064   0.032
    1UNL    C27   31   0.247  -0.196   0.016
    1UNL     O2   32   0.140  -0.194  -0.044
    1UNL     O3   33   0.291  -0.309   0.086
    1UNL    C28   34   0.189  -0.408   0.062
    1UNL    C29   35   0.463  -0.103   0.096
    1UNL    C30   36   0.585  -0.101  -0.005
    1UNL    C31   37   0.536  -0.184  -0.133
    1UNL    C32   38   0.421  -0.104  -0.207
    1UNL    C33   39   0.323  -0.198  -0.273
    1UNL    C34   40   0.197  -0.129  -0.328
    1UNL    C35   41   0.365   0.005  -0.109
    1UNL     N4   42   0.481   0.108  -0.089
    1UNL    C36   43   0.443   0.239  -0.037
    1UNL    C37   44   0.397   0.243   0.110
    1UNL    C38   45   0.613   0.045  -0.057
    1UNL    C39   46   0.705   0.128   0.022
    1UNL    C40   47   0.840   0.061   0.053
    1UNL    C41   48   0.914   0.095   0.179
    1UNL     O4   49   0.879  -0.024  -0.021
    1UNL    C42   50  -0.318   0.040   0.207
    1UNL    C43   51  -0.421  -0.061   0.133
    1UNL    C44   52  -0.354  -0.196   0.071
    1UNL    C45   53  -0.416  -0.320   0.127
    1UNL     O5   54  -0.534  -0.315   0.150
    1UNL     O6   55  -0.332  -0.422   0.146
    1UNL    C46   56  -0.396  -0.525   0.212
    1UNL     H1   57  -0.744   0.129  -0.038
    1UNL     H2   58  -0.619   0.215  -0.128
    1UNL     H3   59  -0.703   0.286   0.013
    1UNL     H4   60  -0.537   0.188   0.142
    1UNL     H5   61  -0.609  -0.012  -0.156
    1UNL     H6   62  -0.660  -0.123  -0.040
    1UNL     H7   63  -0.663  -0.288  -0.207
    1UNL     H8   64  -0.613  -0.335  -0.059
    1UNL     H9   65  -0.528  -0.398  -0.194
    1UNL    H10   66  -0.311  -0.298  -0.096
    1UNL    H11   67  -0.237  -0.139  -0.245
    1UNL    H12   68  -0.145  -0.133  -0.098
    1UNL    H13   69  -0.240   0.318  -0.009
    1UNL    H14   70  -0.422   0.442  -0.211
    1UNL    H15   71  -0.459   0.405  -0.448
    1UNL    H16   72  -0.434   0.176  -0.552
    1UNL    H17   73  -0.337  -0.005  -0.405
    1UNL    H18   74  -0.148  -0.025   0.105
    1UNL    H19   75  -0.282   0.242   0.417
    1UNL    H20   76  -0.404   0.354   0.393
    1UNL    H21   77  -0.226   0.398   0.417
    1UNL    H22   78  -0.050   0.483   0.281
    1UNL    H23   79   0.164   0.452   0.174
    1UNL    H24   80   0.053  -0.064   0.121
    1UNL    H25   81   0.180  -0.429  -0.040
    1UNL    H26   82   0.100  -0.365   0.100
    1UNL    H27   83   0.229  -0.485   0.123
    1UNL    H28   84   0.459  -0.201   0.132
    1UNL    H29   85   0.498  -0.038   0.174
    1UNL    H30   86   0.675  -0.137   0.036
    1UNL    H31   87   0.499  -0.285  -0.103
    1UNL    H32   88   0.614  -0.201  -0.209
    1UNL    H33   89   0.465  -0.032  -0.286
    1UNL    H34   90   0.368  -0.257  -0.357
    1UNL    H35   91   0.299  -0.282  -0.205
    1UNL    H36   92   0.147  -0.070  -0.251
    1UNL    H37   93   0.238  -0.055  -0.406
    1UNL    H38   94   0.130  -0.196  -0.379
    1UNL    H39   95   0.277   0.047  -0.145
    1UNL    H40   96   0.358   0.261  -0.097
    1UNL    H41   97   0.516   0.317  -0.069
    1UNL    H42   98   0.403   0.341   0.152
    1UNL    H43   99   0.467   0.184   0.173
    1UNL    H44  100   0.661   0.041  -0.159
    1UNL    H45  101   0.651   0.163   0.112
    1UNL    H46  102   0.718   0.223  -0.036
    1UNL    H47  103   0.911   0.015   0.251
    1UNL    H48  104   1.013   0.125   0.144
    1UNL    H49  105   0.867   0.177   0.233
    1UNL    H50  106  -0.277  -0.002   0.305
    1UNL    H51  107  -0.363   0.134   0.228
    1UNL    H52  108  -0.483  -0.094   0.213
    1UNL    H53  109  -0.249  -0.182   0.110
    1UNL    H54  110  -0.321  -0.576   0.275
    1UNL    H55  111  -0.482  -0.486   0.259
    1UNL    H56  112  -0.428  -0.596   0.133
   0.00000   0.00000   0.00000   0.00000   0.00000   0.00000   0.00000   0.00000   0.00000
Generated with MDTraj, t= 83.0
 112
    1UNL     C1    1  -0.670   0.185  -0.000
    1UNL     C2    2  -0.559   0.118   0.076
    1UNL     C3    3  -0.509  -0.002   0.052
    1UNL     C4    4  -0.569  -0.096  -0.050
    1UNL     N1    5  -0.477  -0.186  -0.124
    1UNL     C5    6  -0.534  -0.319  -0.164
    1UNL     C6    7  -0.347  -0.205  -0.062
    1UNL     C7    8  -0.254  -0.109  -0.133
    1UNL     C8    9  -0.289   0.036  -0.130
    1UNL     C9   10  -0.258   0.120  -0.024
    1UNL     N2   11  -0.280   0.247  -0.067
    1UNL    C10   12  -0.325   0.249  -0.198
    1UNL    C11   13  -0.374   0.362  -0.271
    1UNL    C12   14  -0.431   0.334  -0.393
    1UNL    C13   15  -0.436   0.201  -0.442
    1UNL    C14   16  -0.383   0.094  -0.370
    1UNL    C15   17  -0.338   0.117  -0.243
    1UNL    C16   18  -0.205   0.076   0.107
    1UNL    C17   19  -0.100   0.168   0.161
    1UNL    C18   20  -0.125   0.300   0.186
    1UNL     O1   21  -0.250   0.353   0.200
    1UNL    C19   22  -0.270   0.399   0.331
    1UNL    C20   23  -0.025   0.394   0.227
    1UNL    C21   24   0.106   0.359   0.229
    1UNL    C22   25   0.142   0.230   0.181
    1UNL    C23   26   0.262   0.159   0.153
    1UNL    C24   27   0.236   0.031   0.109
    1UNL     N3   28   0.097   0.019   0.103
    1UNL    C25   29   0.037   0.133   0.153
    1UNL    C26   30   0.319  -0.063   0.020
    1UNL    C27   31   0.229  -0.183  -0.006
    1UNL     O2   32   0.123  -0.174  -0.065
    1UNL     O3   33   0.279  -0.295   0.046
    1UNL    C28   34   0.185  -0.397   0.011
    1UNL    C29   35   0.446  -0.119   0.096
    1UNL    C30   36   0.570  -0.115   0.003
    1UNL    C31   37   0.533  -0.194  -0.122
    1UNL    C32   38   0.433  -0.109  -0.211
    1UNL    C33   39   0.340  -0.192  -0.287
    1UNL    C34   40   0.242  -0.118  -0.382
    1UNL    C35   41   0.363  -0.003  -0.113
    1UNL     N4   42   0.462   0.106  -0.083
    1UNL    C36   43   0.426   0.232  -0.014
    1UNL    C37   44   0.391   0.231   0.135
    1UNL    C38   45   0.595   0.036  -0.037
    1UNL    C39   46   0.681   0.106   0.062
    1UNL    C40   47   0.821   0.053   0.073
    1UNL    C41   48   0.899   0.095   0.192
    1UNL     O4   49   0.869  -0.016  -0.013
    1UNL    C42   50  -0.304   0.036   0.214
    1UNL    C43   51  -0.413  -0.064   0.161
    1UNL    C44   52  -0.341  -0.193   0.093
    1UNL    C45   53  -0.405  -0.317   0.147
    1UNL     O5   54  -0.525  -0.332   0.170
    1UNL     O6   55  -0.312  -0.417   0.178
    1UNL    C46   56  -0.375  -0.537   0.208
    1UNL     H1   57  -0.750   0.122  -0.000
    1UNL     H2   58  -0.641   0.206  -0.104
    1UNL     H3   59  -0.708   0.281   0.045
    1UNL     H4   60  -0.522   0.184   0.150
    1UNL     H5   61  -0.630  -0.035  -0.125
    1UNL     H6   62  -0.641  -0.155  -0.006
    1UNL     H7   63  -0.636  -0.316  -0.194
    1UNL     H8   64  -0.544  -0.389  -0.078
    1UNL     H9   65  -0.480  -0.375  -0.239
    1UNL    H10   66  -0.305  -0.302  -0.083
    1UNL    H11   67  -0.246  -0.139  -0.236
    1UNL    H12   68  -0.148  -0.115  -0.099
    1UNL    H13   69  -0.310   0.317  -0.004
    1UNL    H14   70  -0.373   0.461  -0.227
    1UNL    H15   71  -0.501   0.402  -0.440
    1UNL    H16   72  -0.488   0.184  -0.536
    1UNL    H17   73  -0.412  -0.005  -0.413
    1UNL    H18   74  -0.149  -0.016   0.083
    1UNL    H19   75  -0.211   0.354   0.408
    1UNL    H20   76  -0.373   0.364   0.354
    1UNL    H21   77  -0.257   0.503   0.335
    1UNL    H22   78  -0.059   0.499   0.252
    1UNL    H23   79   0.178   0.414   0.285
    1UNL    H24   80   0.054  -0.044   0.041
    1UNL    H25   81   0.176  -0.399  -0.096
    1UNL    H26   82   0.092  -0.370   0.065
    1UNL    H27   83   0.236  -0.490   0.042
    1UNL    H28   84   0.433  -0.213   0.140
    1UNL    H29   85   0.474  -0.047   0.171
    1UNL    H30   86   0.656  -0.158   0.048
    1UNL    H31   87   0.482  -0.291  -0.090
    1UNL    H32   88   0.621  -0.225  -0.180
    1UNL    H33   89   0.492  -0.042  -0.283
    1UNL    H34   90   0.397  -0.275  -0.334
    1UNL    H35   91   0.275  -0.252  -0.219
    1UNL    H36   92   0.164  -0.061  -0.341
    1UNL    H37   93   0.301  -0.046  -0.450
    1UNL    H38   94   0.193  -0.185  -0.454
    1UNL    H39   95   0.281   0.033  -0.165
    1UNL    H40   96   0.339   0.266  -0.066
    1UNL    H41   97   0.510   0.303  -0.032
    1UNL    H42   98   0.371   0.330   0.170
    1UNL    H43   99   0.472   0.188   0.200
    1UNL    H44  100   0.668   0.031  -0.124
    1UNL    H45  101   0.633   0.102   0.166
    1UNL    H46  102   0.681   0.213   0.033
    1UNL    H47  103   0.911   0.011   0.260
    1UNL    H48  104   0.992   0.136   0.152
    1UNL    H49  105   0.848   0.172   0.250
    1UNL    H50  106  -0.251  -0.009   0.305
    1UNL    H51  107  -0.348   0.128   0.249
    1UNL    H52  108  -0.470  -0.104   0.241
    1UNL    H53  109  -0.234  -0.188   0.131
    1UNL    H54  110  -0.300  -0.619   0.217
    1UNL    H55  111  -0.438  -0.522   0.291
    1UNL    H56  112  -0.438  -0.564   0.120
   0.00000   0.00000   0.00000   0.00000   0.00000   0.00000   0.00000   0.00000   0.00000
Generated with MDTraj, t= 84.0
 112
    1UNL     C1    1  -0.661   0.160  -0.012
    1UNL     C2    2  -0.550   0.116   0.076
    1UNL     C3    3  -0.509  -0.008   0.074
    1UNL     C4    4  -0.575  -0.121  -0.003
    1UNL     N1    5  -0.486  -0.190  -0.101
    1UNL     C5    6  -0.545  -0.315  -0.148
    1UNL     C6    7  -0.352  -0.191  -0.057
    1UNL     C7    8  -0.254  -0.098  -0.140
    1UNL     C8    9  -0.286   0.050  -0.132
    1UNL     C9   10  -0.271   0.124  -0.021
    1UNL     N2   11  -0.290   0.264  -0.057
    1UNL    C10   12  -0.337   0.256  -0.188
    1UNL    C11   13  -0.387   0.356  -0.276
    1UNL    C12   14  -0.448   0.323  -0.398
    1UNL    C13   15  -0.444   0.190  -0.441
    1UNL    C14   16  -0.387   0.097  -0.358
    1UNL    C15   17  -0.335   0.129  -0.235
    1UNL    C16   18  -0.208   0.074   0.108
    1UNL    C17   19  -0.101   0.176   0.146
    1UNL    C18   20  -0.130   0.297   0.214
    1UNL     O1   21  -0.269   0.328   0.221
    1UNL    C19   22  -0.291   0.467   0.247
    1UNL    C20   23  -0.024   0.387   0.252
    1UNL    C21   24   0.106   0.349   0.228
    1UNL    C22   25   0.139   0.220   0.172
    1UNL    C23   26   0.263   0.159   0.128
    1UNL    C24   27   0.228   0.033   0.084
    1UNL     N3   28   0.091   0.022   0.089
    1UNL    C25   29   0.032   0.138   0.139
    1UNL    C26   30   0.306  -0.073   0.007
    1UNL    C27   31   0.217  -0.193  -0.037
    1UNL     O2   32   0.115  -0.181  -0.104
    1UNL     O3   33   0.261  -0.316   0.006
    1UNL    C28   34   0.161  -0.411  -0.020
    1UNL    C29   35   0.419  -0.131   0.099
    1UNL    C30   36   0.557  -0.121   0.018
    1UNL    C31   37   0.537  -0.193  -0.119
    1UNL    C32   38   0.443  -0.101  -0.214
    1UNL    C33   39   0.355  -0.176  -0.311
    1UNL    C34   40   0.289  -0.087  -0.417
    1UNL    C35   41   0.371  -0.001  -0.113
    1UNL     N4   42   0.470   0.099  -0.060
    1UNL    C36   43   0.431   0.240  -0.016
    1UNL    C37   44   0.392   0.231   0.135
    1UNL    C38   45   0.600   0.028  -0.010
    1UNL    C39   46   0.682   0.094   0.102
    1UNL    C40   47   0.824   0.050   0.098
    1UNL    C41   48   0.924   0.080   0.207
    1UNL     O4   49   0.872  -0.014   0.008
    1UNL    C42   50  -0.302   0.043   0.216
    1UNL    C43   51  -0.401  -0.061   0.160
    1UNL    C44   52  -0.328  -0.183   0.095
    1UNL    C45   53  -0.378  -0.316   0.153
    1UNL     O5   54  -0.496  -0.325   0.181
    1UNL     O6   55  -0.294  -0.418   0.172
    1UNL    C46   56  -0.361  -0.524   0.235
    1UNL     H1   57  -0.750   0.117   0.030
    1UNL     H2   58  -0.650   0.128  -0.116
    1UNL     H3   59  -0.684   0.267  -0.012
    1UNL     H4   60  -0.509   0.188   0.142
    1UNL     H5   61  -0.678  -0.088  -0.048
    1UNL     H6   62  -0.605  -0.185   0.072
    1UNL     H7   63  -0.636  -0.307  -0.200
    1UNL     H8   64  -0.561  -0.398  -0.077
    1UNL     H9   65  -0.471  -0.349  -0.222
    1UNL    H10   66  -0.320  -0.296  -0.076
    1UNL    H11   67  -0.262  -0.117  -0.244
    1UNL    H12   68  -0.143  -0.113  -0.122
    1UNL    H13   69  -0.265   0.345   0.003
    1UNL    H14   70  -0.390   0.459  -0.244
    1UNL    H15   71  -0.482   0.399  -0.467
    1UNL    H16   72  -0.488   0.157  -0.532
    1UNL    H17   73  -0.395  -0.002  -0.389
    1UNL    H18   74  -0.152  -0.015   0.082
    1UNL    H19   75  -0.272   0.484   0.352
    1UNL    H20   76  -0.402   0.481   0.234
    1UNL    H21   77  -0.235   0.529   0.182
    1UNL    H22   78  -0.051   0.477   0.298
    1UNL    H23   79   0.185   0.420   0.248
    1UNL    H24   80   0.039  -0.059   0.063
    1UNL    H25   81   0.163  -0.421  -0.131
    1UNL    H26   82   0.064  -0.368   0.029
    1UNL    H27   83   0.198  -0.512   0.020
    1UNL    H28   84   0.404  -0.234   0.120
    1UNL    H29   85   0.421  -0.089   0.196
    1UNL    H30   86   0.629  -0.173   0.076
    1UNL    H31   87   0.488  -0.293  -0.096
    1UNL    H32   88   0.634  -0.224  -0.158
    1UNL    H33   89   0.512  -0.038  -0.278
    1UNL    H34   90   0.408  -0.257  -0.362
    1UNL    H35   91   0.274  -0.222  -0.250
    1UNL    H36   92   0.224  -0.010  -0.379
    1UNL    H37   93   0.365  -0.046  -0.478
    1UNL    H38   94   0.224  -0.150  -0.485
    1UNL    H39   95   0.310   0.057  -0.174
    1UNL    H40   96   0.341   0.275  -0.069
    1UNL    H41   97   0.520   0.303  -0.031
    1UNL    H42   98   0.385   0.328   0.182
    1UNL    H43   99   0.459   0.170   0.195
    1UNL    H44  100   0.675   0.023  -0.095
    1UNL    H45  101   0.644   0.062   0.203
    1UNL    H46  102   0.684   0.208   0.099
    1UNL    H47  103   0.948  -0.012   0.264
    1UNL    H48  104   1.013   0.120   0.160
    1UNL    H49  105   0.891   0.153   0.279
    1UNL    H50  106  -0.252   0.002   0.307
    1UNL    H51  107  -0.362   0.127   0.251
    1UNL    H52  108  -0.452  -0.109   0.240
    1UNL    H53  109  -0.219  -0.172   0.124
    1UNL    H54  110  -0.296  -0.617   0.239
    1UNL    H55  111  -0.395  -0.489   0.330
    1UNL    H56  112  -0.451  -0.556   0.179
   0.00000   0.00000   0.00000   0.00000   0.00000   0.00000   0.00000   0.00000   0.00000
Generated with MDTraj, t= 85.0
 112
    1UNL     C1    1  -0.659   0.174  -0.051
    1UNL     C2    2  -0.565   0.117   0.060
    1UNL     C3    3  -0.530  -0.013   0.071
    1UNL     C4    4  -0.593  -0.128  -0.001
    1UNL     N1    5  -0.507  -0.203  -0.098
    1UNL     C5    6  -0.559  -0.326  -0.162
    1UNL     C6    7  -0.373  -0.209  -0.049
    1UNL     C7    8  -0.284  -0.117  -0.135
    1UNL     C8    9  -0.302   0.028  -0.128
    1UNL     C9   10  -0.276   0.114  -0.021
    1UNL     N2   11  -0.327   0.237  -0.045
    1UNL    C10   12  -0.381   0.242  -0.172
    1UNL    C11   13  -0.428   0.353  -0.243
    1UNL    C12   14  -0.450   0.336  -0.374
    1UNL    C13   15  -0.430   0.204  -0.432
    1UNL    C14   16  -0.393   0.089  -0.361
    1UNL    C15   17  -0.362   0.109  -0.226
    1UNL    C16   18  -0.210   0.079   0.117
    1UNL    C17   19  -0.102   0.177   0.160
    1UNL    C18   20  -0.127   0.309   0.212
    1UNL     O1   21  -0.257   0.362   0.225
    1UNL    C19   22  -0.271   0.498   0.165
    1UNL    C20   23  -0.019   0.388   0.265
    1UNL    C21   24   0.110   0.348   0.249
    1UNL    C22   25   0.141   0.227   0.178
    1UNL    C23   26   0.262   0.173   0.123
    1UNL    C24   27   0.229   0.052   0.058
    1UNL     N3   28   0.098   0.032   0.088
    1UNL    C25   29   0.035   0.145   0.139
    1UNL    C26   30   0.317  -0.054  -0.008
    1UNL    C27   31   0.223  -0.169  -0.055
    1UNL     O2   32   0.141  -0.142  -0.140
    1UNL     O3   33   0.241  -0.293  -0.009
    1UNL    C28   34   0.148  -0.377  -0.069
    1UNL    C29   35   0.415  -0.118   0.090
    1UNL    C30   36   0.554  -0.136   0.020
    1UNL    C31   37   0.527  -0.211  -0.116
    1UNL    C32   38   0.458  -0.107  -0.213
    1UNL    C33   39   0.366  -0.172  -0.323
    1UNL    C34   40   0.324  -0.067  -0.426
    1UNL    C35   41   0.393   0.008  -0.136
    1UNL     N4   42   0.502   0.096  -0.072
    1UNL    C36   43   0.472   0.228  -0.007
    1UNL    C37   44   0.410   0.211   0.131
    1UNL    C38   45   0.613   0.010  -0.004
    1UNL    C39   46   0.693   0.072   0.115
    1UNL    C40   47   0.843   0.030   0.123
    1UNL    C41   48   0.919   0.075   0.241
    1UNL     O4   49   0.886  -0.036   0.032
    1UNL    C42   50  -0.321   0.043   0.214
    1UNL    C43   51  -0.421  -0.069   0.171
    1UNL    C44   52  -0.351  -0.195   0.102
    1UNL    C45   53  -0.387  -0.324   0.173
    1UNL     O5   54  -0.495  -0.351   0.221
    1UNL     O6   55  -0.280  -0.410   0.180
    1UNL    C46   56  -0.304  -0.525   0.254
    1UNL     H1   57  -0.761   0.137  -0.025
    1UNL     H2   58  -0.627   0.147  -0.150
    1UNL     H3   59  -0.668   0.279  -0.047
    1UNL     H4   60  -0.522   0.190   0.129
    1UNL     H5   61  -0.681  -0.081  -0.057
    1UNL     H6   62  -0.641  -0.184   0.074
    1UNL     H7   63  -0.652  -0.295  -0.207
    1UNL     H8   64  -0.583  -0.413  -0.099
    1UNL     H9   65  -0.489  -0.358  -0.241
    1UNL    H10   66  -0.335  -0.316  -0.068
    1UNL    H11   67  -0.282  -0.154  -0.232
    1UNL    H12   68  -0.178  -0.142  -0.099
    1UNL    H13   69  -0.339   0.306   0.034
    1UNL    H14   70  -0.427   0.449  -0.196
    1UNL    H15   71  -0.460   0.421  -0.446
    1UNL    H16   72  -0.439   0.198  -0.544
    1UNL    H17   73  -0.373  -0.007  -0.413
    1UNL    H18   74  -0.155  -0.014   0.108
    1UNL    H19   75  -0.240   0.568   0.243
    1UNL    H20   76  -0.380   0.513   0.138
    1UNL    H21   77  -0.207   0.499   0.078
    1UNL    H22   78  -0.033   0.486   0.309
    1UNL    H23   79   0.193   0.398   0.295
    1UNL    H24   80   0.053  -0.049   0.043
    1UNL    H25   81   0.160  -0.363  -0.181
    1UNL    H26   82   0.043  -0.347  -0.026
    1UNL    H27   83   0.178  -0.489  -0.055
    1UNL    H28   84   0.379  -0.213   0.121
    1UNL    H29   85   0.424  -0.071   0.184
    1UNL    H30   86   0.614  -0.192   0.086
    1UNL    H31   87   0.469  -0.305  -0.093
    1UNL    H32   88   0.621  -0.246  -0.160
    1UNL    H33   89   0.546  -0.063  -0.272
    1UNL    H34   90   0.423  -0.250  -0.372
    1UNL    H35   91   0.274  -0.210  -0.274
    1UNL    H36   92   0.262   0.017  -0.388
    1UNL    H37   93   0.410  -0.033  -0.470
    1UNL    H38   94   0.260  -0.112  -0.506
    1UNL    H39   95   0.324   0.066  -0.190
    1UNL    H40   96   0.390   0.265  -0.072
    1UNL    H41   97   0.557   0.296  -0.008
    1UNL    H42   98   0.411   0.301   0.192
    1UNL    H43   99   0.461   0.139   0.187
    1UNL    H44  100   0.687   0.006  -0.089
    1UNL    H45  101   0.655   0.042   0.216
    1UNL    H46  102   0.697   0.186   0.116
    1UNL    H47  103   0.952  -0.017   0.296
    1UNL    H48  104   1.004   0.136   0.214
    1UNL    H49  105   0.859   0.134   0.310
    1UNL    H50  106  -0.282   0.009   0.312
    1UNL    H51  107  -0.374   0.135   0.249
    1UNL    H52  108  -0.473  -0.109   0.257
    1UNL    H53  109  -0.239  -0.189   0.120
    1UNL    H54  110  -0.209  -0.588   0.250
    1UNL    H55  111  -0.328  -0.495   0.353
    1UNL    H56  112  -0.381  -0.593   0.212
   0.00000   0.00000   0.00000   0.00000   0.00000   0.00000   0.00000   0.00000   0.00000
Generated with MDTraj, t= 86.0
 112
    1UNL     C1    1  -0.676   0.158  -0.022
    1UNL     C2    2  -0.573   0.110   0.066
    1UNL     C3    3  -0.530  -0.015   0.075
    1UNL     C4    4  -0.595  -0.133   0.010
    1UNL     N1    5  -0.511  -0.194  -0.086
    1UNL     C5    6  -0.574  -0.321  -0.139
    1UNL     C6    7  -0.360  -0.208  -0.046
    1UNL     C7    8  -0.279  -0.115  -0.135
    1UNL     C8    9  -0.292   0.028  -0.126
    1UNL     C9   10  -0.265   0.112  -0.020
    1UNL     N2   11  -0.303   0.240  -0.049
    1UNL    C10   12  -0.350   0.246  -0.173
    1UNL    C11   13  -0.426   0.345  -0.245
    1UNL    C12   14  -0.479   0.313  -0.369
    1UNL    C13   15  -0.475   0.182  -0.421
    1UNL    C14   16  -0.410   0.087  -0.353
    1UNL    C15   17  -0.348   0.112  -0.223
    1UNL    C16   18  -0.209   0.071   0.111
    1UNL    C17   19  -0.102   0.166   0.154
    1UNL    C18   20  -0.132   0.298   0.187
    1UNL     O1   21  -0.261   0.355   0.196
    1UNL    C19   22  -0.266   0.497   0.182
    1UNL    C20   23  -0.022   0.375   0.230
    1UNL    C21   24   0.106   0.339   0.223
    1UNL    C22   25   0.135   0.220   0.156
    1UNL    C23   26   0.257   0.168   0.105
    1UNL    C24   27   0.224   0.049   0.042
    1UNL     N3   28   0.089   0.019   0.064
    1UNL    C25   29   0.033   0.128   0.129
    1UNL    C26   30   0.322  -0.055  -0.021
    1UNL    C27   31   0.225  -0.158  -0.079
    1UNL     O2   32   0.140  -0.119  -0.156
    1UNL     O3   33   0.226  -0.290  -0.042
    1UNL    C28   34   0.111  -0.355  -0.092
    1UNL    C29   35   0.413  -0.125   0.078
    1UNL    C30   36   0.556  -0.127   0.025
    1UNL    C31   37   0.555  -0.185  -0.121
    1UNL    C32   38   0.486  -0.087  -0.217
    1UNL    C33   39   0.401  -0.158  -0.330
    1UNL    C34   40   0.347  -0.055  -0.428
    1UNL    C35   41   0.408   0.017  -0.134
    1UNL     N4   42   0.511   0.106  -0.055
    1UNL    C36   43   0.472   0.230   0.011
    1UNL    C37   44   0.392   0.226   0.131
    1UNL    C38   45   0.607   0.016   0.012
    1UNL    C39   46   0.682   0.057   0.141
    1UNL    C40   47   0.827   0.001   0.147
    1UNL    C41   48   0.911   0.043   0.262
    1UNL     O4   49   0.875  -0.071   0.065
    1UNL    C42   50  -0.313   0.046   0.216
    1UNL    C43   51  -0.419  -0.060   0.167
    1UNL    C44   52  -0.343  -0.183   0.101
    1UNL    C45   53  -0.375  -0.309   0.186
    1UNL     O5   54  -0.483  -0.333   0.233
    1UNL     O6   55  -0.271  -0.393   0.201
    1UNL    C46   56  -0.300  -0.521   0.260
    1UNL     H1   57  -0.773   0.120   0.026
    1UNL     H2   58  -0.657   0.132  -0.124
    1UNL     H3   59  -0.683   0.262  -0.014
    1UNL     H4   60  -0.524   0.185   0.120
    1UNL     H5   61  -0.694  -0.111  -0.034
    1UNL     H6   62  -0.623  -0.209   0.084
    1UNL     H7   63  -0.672  -0.299  -0.185
    1UNL     H8   64  -0.594  -0.389  -0.059
    1UNL     H9   65  -0.502  -0.364  -0.210
    1UNL    H10   66  -0.325  -0.316  -0.066
    1UNL    H11   67  -0.298  -0.157  -0.228
    1UNL    H12   68  -0.168  -0.141  -0.124
    1UNL    H13   69  -0.298   0.318   0.021
    1UNL    H14   70  -0.423   0.444  -0.200
    1UNL    H15   71  -0.538   0.392  -0.403
    1UNL    H16   72  -0.518   0.168  -0.514
    1UNL    H17   73  -0.402  -0.016  -0.385
    1UNL    H18   74  -0.162  -0.022   0.097
    1UNL    H19   75  -0.266   0.532   0.287
    1UNL    H20   76  -0.369   0.510   0.136
    1UNL    H21   77  -0.183   0.526   0.116
    1UNL    H22   78  -0.059   0.459   0.292
    1UNL    H23   79   0.184   0.399   0.266
    1UNL    H24   80   0.026  -0.049   0.016
    1UNL    H25   81   0.125  -0.371  -0.202
    1UNL    H26   82   0.023  -0.286  -0.070
    1UNL    H27   83   0.091  -0.458  -0.049
    1UNL    H28   84   0.385  -0.224   0.102
    1UNL    H29   85   0.413  -0.071   0.169
    1UNL    H30   86   0.627  -0.182   0.082
    1UNL    H31   87   0.497  -0.279  -0.131
    1UNL    H32   88   0.662  -0.209  -0.148
    1UNL    H33   89   0.565  -0.027  -0.274
    1UNL    H34   90   0.461  -0.230  -0.382
    1UNL    H35   91   0.317  -0.209  -0.280
    1UNL    H36   92   0.264   0.004  -0.383
    1UNL    H37   93   0.425   0.012  -0.456
    1UNL    H38   94   0.301  -0.088  -0.516
    1UNL    H39   95   0.353   0.092  -0.188
    1UNL    H40   96   0.416   0.293  -0.066
    1UNL    H41   97   0.562   0.281   0.038
    1UNL    H42   98   0.381   0.329   0.166
    1UNL    H43   99   0.438   0.176   0.210
    1UNL    H44  100   0.688   0.017  -0.066
    1UNL    H45  101   0.623   0.028   0.232
    1UNL    H46  102   0.696   0.170   0.150
    1UNL    H47  103   0.964  -0.049   0.297
    1UNL    H48  104   0.984   0.114   0.225
    1UNL    H49  105   0.853   0.097   0.338
    1UNL    H50  106  -0.263   0.018   0.310
    1UNL    H51  107  -0.361   0.145   0.240
    1UNL    H52  108  -0.483  -0.091   0.250
    1UNL    H53  109  -0.232  -0.167   0.110
    1UNL    H54  110  -0.206  -0.584   0.268
    1UNL    H55  111  -0.343  -0.502   0.355
    1UNL    H56  112  -0.366  -0.588   0.203
   0.00000   0.00000   0.00000   0.00000   0.00000   0.00000   0.00000   0.00000   0.00000
Generated with MDTraj, t= 87.0
 112
    1UNL     C1    1  -0.675   0.167   0.008
    1UNL     C2    2  -0.560   0.110   0.082
    1UNL     C3    3  -0.507  -0.014   0.095
    1UNL     C4    4  -0.579  -0.126   0.027
    1UNL     N1    5  -0.500  -0.200  -0.075
    1UNL     C5    6  -0.569  -0.327  -0.123
    1UNL     C6    7  -0.352  -0.207  -0.038
    1UNL     C7    8  -0.280  -0.120  -0.140
    1UNL     C8    9  -0.315   0.030  -0.138
    1UNL     C9   10  -0.267   0.119  -0.045
    1UNL     N2   11  -0.296   0.249  -0.079
    1UNL    C10   12  -0.372   0.247  -0.200
    1UNL    C11   13  -0.426   0.338  -0.290
    1UNL    C12   14  -0.500   0.289  -0.398
    1UNL    C13   15  -0.517   0.150  -0.429
    1UNL    C14   16  -0.467   0.062  -0.338
    1UNL    C15   17  -0.390   0.107  -0.229
    1UNL    C16   18  -0.194   0.082   0.080
    1UNL    C17   19  -0.089   0.182   0.123
    1UNL    C18   20  -0.113   0.301   0.192
    1UNL     O1   21  -0.248   0.323   0.233
    1UNL    C19   22  -0.300   0.455   0.242
    1UNL    C20   23  -0.013   0.396   0.215
    1UNL    C21   24   0.115   0.354   0.209
    1UNL    C22   25   0.150   0.228   0.166
    1UNL    C23   26   0.270   0.170   0.125
    1UNL    C24   27   0.240   0.055   0.054
    1UNL     N3   28   0.102   0.042   0.041
    1UNL    C25   29   0.046   0.150   0.106
    1UNL    C26   30   0.322  -0.045  -0.029
    1UNL    C27   31   0.228  -0.145  -0.094
    1UNL     O2   32   0.168  -0.100  -0.186
    1UNL     O3   33   0.211  -0.270  -0.044
    1UNL    C28   34   0.129  -0.347  -0.126
    1UNL    C29   35   0.408  -0.127   0.076
    1UNL    C30   36   0.553  -0.132   0.019
    1UNL    C31   37   0.566  -0.185  -0.132
    1UNL    C32   38   0.492  -0.076  -0.225
    1UNL    C33   39   0.410  -0.137  -0.341
    1UNL    C34   40   0.343  -0.035  -0.434
    1UNL    C35   41   0.406   0.024  -0.128
    1UNL     N4   42   0.509   0.103  -0.044
    1UNL    C36   43   0.481   0.246   0.010
    1UNL    C37   44   0.404   0.239   0.145
    1UNL    C38   45   0.609   0.006   0.003
    1UNL    C39   46   0.680   0.044   0.137
    1UNL    C40   47   0.806  -0.030   0.182
    1UNL    C41   48   0.880   0.023   0.305
    1UNL     O4   49   0.846  -0.125   0.121
    1UNL    C42   50  -0.285   0.052   0.197
    1UNL    C43   51  -0.389  -0.059   0.176
    1UNL    C44   52  -0.328  -0.186   0.112
    1UNL    C45   53  -0.373  -0.310   0.183
    1UNL     O5   54  -0.489  -0.322   0.213
    1UNL     O6   55  -0.275  -0.404   0.210
    1UNL    C46   56  -0.324  -0.512   0.284
    1UNL     H1   57  -0.770   0.125   0.051
    1UNL     H2   58  -0.670   0.162  -0.099
    1UNL     H3   59  -0.688   0.271   0.028
    1UNL     H4   60  -0.506   0.183   0.143
    1UNL     H5   61  -0.661  -0.082  -0.021
    1UNL     H6   62  -0.628  -0.203   0.096
    1UNL     H7   63  -0.675  -0.293  -0.141
    1UNL     H8   64  -0.577  -0.384  -0.033
    1UNL     H9   65  -0.524  -0.380  -0.208
    1UNL    H10   66  -0.319  -0.314  -0.060
    1UNL    H11   67  -0.300  -0.156  -0.236
    1UNL    H12   68  -0.166  -0.136  -0.129
    1UNL    H13   69  -0.280   0.341  -0.030
    1UNL    H14   70  -0.434   0.441  -0.266
    1UNL    H15   71  -0.558   0.359  -0.464
    1UNL    H16   72  -0.601   0.113  -0.497
    1UNL    H17   73  -0.479  -0.043  -0.358
    1UNL    H18   74  -0.145  -0.010   0.060
    1UNL    H19   75  -0.250   0.499   0.331
    1UNL    H20   76  -0.408   0.440   0.264
    1UNL    H21   77  -0.279   0.499   0.141
    1UNL    H22   78  -0.031   0.494   0.248
    1UNL    H23   79   0.199   0.423   0.204
    1UNL    H24   80   0.056  -0.032  -0.018
    1UNL    H25   81   0.126  -0.303  -0.226
    1UNL    H26   82   0.029  -0.341  -0.085
    1UNL    H27   83   0.155  -0.451  -0.137
    1UNL    H28   84   0.376  -0.228   0.073
    1UNL    H29   85   0.404  -0.096   0.178
    1UNL    H30   86   0.618  -0.188   0.082
    1UNL    H31   87   0.506  -0.276  -0.137
    1UNL    H32   88   0.672  -0.203  -0.167
    1UNL    H33   89   0.575  -0.017  -0.278
    1UNL    H34   90   0.468  -0.201  -0.405
    1UNL    H35   91   0.332  -0.204  -0.307
    1UNL    H36   92   0.257   0.007  -0.387
    1UNL    H37   93   0.420   0.042  -0.459
    1UNL    H38   94   0.301  -0.072  -0.520
    1UNL    H39   95   0.340   0.087  -0.188
    1UNL    H40   96   0.419   0.298  -0.074
    1UNL    H41   97   0.570   0.300   0.026
    1UNL    H42   98   0.384   0.337   0.185
    1UNL    H43   99   0.460   0.192   0.226
    1UNL    H44  100   0.689   0.010  -0.071
    1UNL    H45  101   0.603   0.020   0.216
    1UNL    H46  102   0.696   0.156   0.146
    1UNL    H47  103   0.936  -0.058   0.354
    1UNL    H48  104   0.948   0.103   0.271
    1UNL    H49  105   0.807   0.078   0.367
    1UNL    H50  106  -0.217   0.006   0.270
    1UNL    H51  107  -0.330   0.150   0.233
    1UNL    H52  108  -0.435  -0.080   0.275
    1UNL    H53  109  -0.217  -0.194   0.125
    1UNL    H54  110  -0.242  -0.589   0.284
    1UNL    H55  111  -0.347  -0.476   0.381
    1UNL    H56  112  -0.405  -0.569   0.239
   0.00000   0.00000   0.00000   0.00000   0.00000   0.00000   0.00000   0.00000   0.00000
Generated with MDTraj, t= 88.0
 112
    1UNL     C1    1  -0.650   0.189   0.031
    1UNL     C2    2  -0.535   0.120   0.099
    1UNL     C3    3  -0.503  -0.011   0.090
    1UNL     C4    4  -0.581  -0.112   0.017
    1UNL     N1    5  -0.504  -0.206  -0.066
    1UNL     C5    6  -0.576  -0.332  -0.089
    1UNL     C6    7  -0.359  -0.216  -0.041
    1UNL     C7    8  -0.289  -0.131  -0.148
    1UNL     C8    9  -0.319   0.019  -0.141
    1UNL     C9   10  -0.278   0.110  -0.044
    1UNL     N2   11  -0.326   0.235  -0.091
    1UNL    C10   12  -0.401   0.220  -0.208
    1UNL    C11   13  -0.465   0.323  -0.284
    1UNL    C12   14  -0.532   0.275  -0.400
    1UNL    C13   15  -0.537   0.136  -0.421
    1UNL    C14   16  -0.470   0.041  -0.348
    1UNL    C15   17  -0.400   0.086  -0.237
    1UNL    C16   18  -0.191   0.086   0.076
    1UNL    C17   19  -0.084   0.193   0.115
    1UNL    C18   20  -0.118   0.312   0.178
    1UNL     O1   21  -0.251   0.354   0.196
    1UNL    C19   22  -0.289   0.442   0.308
    1UNL    C20   23  -0.014   0.383   0.239
    1UNL    C21   24   0.120   0.366   0.202
    1UNL    C22   25   0.153   0.254   0.127
    1UNL    C23   26   0.280   0.196   0.080
    1UNL    C24   27   0.244   0.072   0.020
    1UNL     N3   28   0.107   0.063   0.020
    1UNL    C25   29   0.052   0.168   0.089
    1UNL    C26   30   0.334  -0.036  -0.040
    1UNL    C27   31   0.240  -0.126  -0.109
    1UNL     O2   32   0.158  -0.081  -0.184
    1UNL     O3   33   0.253  -0.261  -0.085
    1UNL    C28   34   0.142  -0.326  -0.122
    1UNL    C29   35   0.416  -0.122   0.063
    1UNL    C30   36   0.563  -0.142   0.010
    1UNL    C31   37   0.560  -0.185  -0.139
    1UNL    C32   38   0.500  -0.072  -0.230
    1UNL    C33   39   0.407  -0.117  -0.345
    1UNL    C34   40   0.345   0.001  -0.421
    1UNL    C35   41   0.432   0.033  -0.140
    1UNL     N4   42   0.544   0.098  -0.051
    1UNL    C36   43   0.511   0.230   0.007
    1UNL    C37   44   0.413   0.227   0.130
    1UNL    C38   45   0.626  -0.001   0.023
    1UNL    C39   46   0.682   0.040   0.167
    1UNL    C40   47   0.784  -0.053   0.219
    1UNL    C41   48   0.859  -0.001   0.335
    1UNL     O4   49   0.822  -0.157   0.171
    1UNL    C42   50  -0.278   0.038   0.191
    1UNL    C43   51  -0.384  -0.071   0.173
    1UNL    C44   52  -0.330  -0.194   0.113
    1UNL    C45   53  -0.383  -0.319   0.187
    1UNL     O5   54  -0.501  -0.326   0.213
    1UNL     O6   55  -0.288  -0.413   0.212
    1UNL    C46   56  -0.338  -0.508   0.301
    1UNL     H1   57  -0.741   0.155   0.077
    1UNL     H2   58  -0.655   0.183  -0.076
    1UNL     H3   59  -0.641   0.296   0.057
    1UNL     H4   60  -0.469   0.177   0.161
    1UNL     H5   61  -0.662  -0.079  -0.035
    1UNL     H6   62  -0.626  -0.179   0.102
    1UNL     H7   63  -0.686  -0.308  -0.097
    1UNL     H8   64  -0.561  -0.392   0.001
    1UNL     H9   65  -0.534  -0.373  -0.181
    1UNL    H10   66  -0.344  -0.325  -0.067
    1UNL    H11   67  -0.327  -0.159  -0.243
    1UNL    H12   68  -0.177  -0.139  -0.167
    1UNL    H13   69  -0.293   0.328  -0.055
    1UNL    H14   70  -0.469   0.432  -0.260
    1UNL    H15   71  -0.588   0.341  -0.457
    1UNL    H16   72  -0.592   0.106  -0.505
    1UNL    H17   73  -0.492  -0.065  -0.372
    1UNL    H18   74  -0.135  -0.000   0.051
    1UNL    H19   75  -0.289   0.381   0.400
    1UNL    H20   76  -0.394   0.473   0.298
    1UNL    H21   77  -0.218   0.528   0.305
    1UNL    H22   78  -0.039   0.463   0.311
    1UNL    H23   79   0.192   0.425   0.252
    1UNL    H24   80   0.055   0.002  -0.042
    1UNL    H25   81   0.131  -0.336  -0.228
    1UNL    H26   82   0.063  -0.267  -0.091
    1UNL    H27   83   0.131  -0.419  -0.079
    1UNL    H28   84   0.370  -0.216   0.081
    1UNL    H29   85   0.421  -0.066   0.154
    1UNL    H30   86   0.616  -0.218   0.064
    1UNL    H31   87   0.514  -0.281  -0.161
    1UNL    H32   88   0.671  -0.190  -0.166
    1UNL    H33   89   0.594  -0.024  -0.274
    1UNL    H34   90   0.458  -0.185  -0.411
    1UNL    H35   91   0.329  -0.186  -0.316
    1UNL    H36   92   0.291   0.064  -0.360
    1UNL    H37   93   0.425   0.054  -0.479
    1UNL    H38   94   0.266  -0.028  -0.485
    1UNL    H39   95   0.393   0.114  -0.203
    1UNL    H40   96   0.470   0.303  -0.074
    1UNL    H41   97   0.606   0.266   0.031
    1UNL    H42   98   0.411   0.329   0.163
    1UNL    H43   99   0.443   0.170   0.220
    1UNL    H44  100   0.717  -0.006  -0.034
    1UNL    H45  101   0.607   0.067   0.248
    1UNL    H46  102   0.737   0.137   0.149
    1UNL    H47  103   0.899  -0.086   0.390
    1UNL    H48  104   0.945   0.065   0.310
    1UNL    H49  105   0.798   0.068   0.397
    1UNL    H50  106  -0.203  -0.006   0.257
    1UNL    H51  107  -0.320   0.127   0.245
    1UNL    H52  108  -0.421  -0.094   0.277
    1UNL    H53  109  -0.220  -0.184   0.131
    1UNL    H54  110  -0.260  -0.576   0.341
    1UNL    H55  111  -0.386  -0.454   0.380
    1UNL    H56  112  -0.408  -0.576   0.252
   0.00000   0.00000   0.00000   0.00000   0.00000   0.00000   0.00000   0.00000   0.00000
Generated with MDTraj, t= 89.0
 112
    1UNL     C1    1  -0.659   0.184   0.033
    1UNL     C2    2  -0.539   0.133   0.093
    1UNL     C3    3  -0.500   0.004   0.088
    1UNL     C4    4  -0.587  -0.097   0.022
    1UNL     N1    5  -0.512  -0.193  -0.061
    1UNL     C5    6  -0.602  -0.316  -0.065
    1UNL     C6    7  -0.367  -0.211  -0.038
    1UNL     C7    8  -0.288  -0.129  -0.146
    1UNL     C8    9  -0.308   0.015  -0.145
    1UNL     C9   10  -0.270   0.105  -0.046
    1UNL     N2   11  -0.320   0.232  -0.071
    1UNL    C10   12  -0.404   0.213  -0.183
    1UNL    C11   13  -0.496   0.294  -0.247
    1UNL    C12   14  -0.569   0.248  -0.352
    1UNL    C13   15  -0.546   0.122  -0.408
    1UNL    C14   16  -0.455   0.041  -0.350
    1UNL    C15   17  -0.392   0.084  -0.232
    1UNL    C16   18  -0.182   0.075   0.077
    1UNL    C17   19  -0.083   0.188   0.110
    1UNL    C18   20  -0.114   0.312   0.165
    1UNL     O1   21  -0.246   0.353   0.179
    1UNL    C19   22  -0.284   0.357   0.309
    1UNL    C20   23  -0.014   0.406   0.194
    1UNL    C21   24   0.120   0.377   0.173
    1UNL    C22   25   0.155   0.251   0.115
    1UNL    C23   26   0.282   0.195   0.079
    1UNL    C24   27   0.248   0.082   0.013
    1UNL     N3   28   0.110   0.061   0.015
    1UNL    C25   29   0.051   0.162   0.081
    1UNL    C26   30   0.328  -0.030  -0.048
    1UNL    C27   31   0.243  -0.125  -0.130
    1UNL     O2   32   0.180  -0.084  -0.224
    1UNL     O3   33   0.254  -0.255  -0.094
    1UNL    C28   34   0.171  -0.338  -0.169
    1UNL    C29   35   0.400  -0.113   0.057
    1UNL    C30   36   0.557  -0.128   0.022
    1UNL    C31   37   0.572  -0.176  -0.126
    1UNL    C32   38   0.528  -0.061  -0.230
    1UNL    C33   39   0.460  -0.108  -0.367
    1UNL    C34   40   0.377  -0.001  -0.434
    1UNL    C35   41   0.441   0.034  -0.146
    1UNL     N4   42   0.536   0.101  -0.040
    1UNL    C36   43   0.511   0.235   0.010
    1UNL    C37   44   0.422   0.244   0.127
    1UNL    C38   45   0.625   0.008   0.034
    1UNL    C39   46   0.666   0.043   0.181
    1UNL    C40   47   0.760  -0.063   0.239
    1UNL    C41   48   0.847  -0.029   0.355
    1UNL     O4   49   0.755  -0.171   0.185
    1UNL    C42   50  -0.267   0.040   0.196
    1UNL    C43   51  -0.385  -0.058   0.167
    1UNL    C44   52  -0.325  -0.187   0.112
    1UNL    C45   53  -0.381  -0.303   0.199
    1UNL     O5   54  -0.499  -0.310   0.230
    1UNL     O6   55  -0.285  -0.396   0.236
    1UNL    C46   56  -0.348  -0.505   0.284
    1UNL     H1   57  -0.736   0.129   0.071
    1UNL     H2   58  -0.663   0.179  -0.076
    1UNL     H3   59  -0.669   0.291   0.067
    1UNL     H4   60  -0.470   0.201   0.141
    1UNL     H5   61  -0.653  -0.056  -0.047
    1UNL     H6   62  -0.651  -0.154   0.102
    1UNL     H7   63  -0.703  -0.295  -0.103
    1UNL     H8   64  -0.612  -0.351   0.040
    1UNL     H9   65  -0.555  -0.389  -0.130
    1UNL    H10   66  -0.360  -0.317  -0.065
    1UNL    H11   67  -0.304  -0.146  -0.253
    1UNL    H12   68  -0.179  -0.154  -0.139
    1UNL    H13   69  -0.325   0.312  -0.001
    1UNL    H14   70  -0.498   0.394  -0.215
    1UNL    H15   71  -0.631   0.323  -0.410
    1UNL    H16   72  -0.587   0.100  -0.509
    1UNL    H17   73  -0.436  -0.053  -0.393
    1UNL    H18   74  -0.121  -0.008   0.056
    1UNL    H19   75  -0.236   0.279   0.370
    1UNL    H20   76  -0.388   0.332   0.317
    1UNL    H21   77  -0.266   0.459   0.351
    1UNL    H22   78  -0.032   0.497   0.244
    1UNL    H23   79   0.195   0.458   0.190
    1UNL    H24   80   0.075  -0.022  -0.029
    1UNL    H25   81   0.141  -0.293  -0.262
    1UNL    H26   82   0.080  -0.337  -0.123
    1UNL    H27   83   0.199  -0.436  -0.185
    1UNL    H28   84   0.354  -0.209   0.053
    1UNL    H29   85   0.377  -0.073   0.154
    1UNL    H30   86   0.601  -0.202   0.086
    1UNL    H31   87   0.518  -0.269  -0.142
    1UNL    H32   88   0.681  -0.200  -0.149
    1UNL    H33   89   0.623  -0.007  -0.257
    1UNL    H34   90   0.532  -0.150  -0.433
    1UNL    H35   91   0.401  -0.196  -0.344
    1UNL    H36   92   0.290   0.016  -0.382
    1UNL    H37   93   0.433   0.088  -0.452
    1UNL    H38   94   0.338  -0.037  -0.528
    1UNL    H39   95   0.392   0.111  -0.213
    1UNL    H40   96   0.477   0.290  -0.087
    1UNL    H41   97   0.602   0.281   0.029
    1UNL    H42   98   0.432   0.328   0.193
    1UNL    H43   99   0.457   0.160   0.191
    1UNL    H44  100   0.715   0.003  -0.023
    1UNL    H45  101   0.577   0.043   0.249
    1UNL    H46  102   0.704   0.147   0.201
    1UNL    H47  103   0.857  -0.119   0.415
    1UNL    H48  104   0.952   0.004   0.336
    1UNL    H49  105   0.812   0.056   0.419
    1UNL    H50  106  -0.203   0.013   0.281
    1UNL    H51  107  -0.310   0.136   0.228
    1UNL    H52  108  -0.438  -0.089   0.263
    1UNL    H53  109  -0.216  -0.185   0.135
    1UNL    H54  110  -0.270  -0.579   0.314
    1UNL    H55  111  -0.410  -0.477   0.367
    1UNL    H56  112  -0.401  -0.550   0.202
   0.00000   0.00000   0.00000   0.00000   0.00000   0.00000   0.00000   0.00000   0.00000
Generated with MDTraj, t= 90.0
 112
    1UNL     C1    1  -0.668   0.202   0.039
    1UNL     C2    2  -0.558   0.140   0.119
    1UNL     C3    3  -0.519   0.008   0.106
    1UNL     C4    4  -0.593  -0.094   0.021
    1UNL     N1    5  -0.506  -0.187  -0.065
    1UNL     C5    6  -0.564  -0.322  -0.092
    1UNL     C6    7  -0.361  -0.208  -0.031
    1UNL     C7    8  -0.279  -0.131  -0.136
    1UNL     C8    9  -0.314   0.010  -0.133
    1UNL     C9   10  -0.265   0.103  -0.045
    1UNL     N2   11  -0.315   0.226  -0.077
    1UNL    C10   12  -0.404   0.223  -0.184
    1UNL    C11   13  -0.490   0.310  -0.255
    1UNL    C12   14  -0.581   0.258  -0.338
    1UNL    C13   15  -0.577   0.122  -0.376
    1UNL    C14   16  -0.494   0.033  -0.317
    1UNL    C15   17  -0.406   0.079  -0.216
    1UNL    C16   18  -0.192   0.066   0.082
    1UNL    C17   19  -0.087   0.171   0.109
    1UNL    C18   20  -0.130   0.288   0.160
    1UNL     O1   21  -0.261   0.329   0.193
    1UNL    C19   22  -0.267   0.388   0.322
    1UNL    C20   23  -0.037   0.399   0.173
    1UNL    C21   24   0.097   0.376   0.142
    1UNL    C22   25   0.148   0.253   0.098
    1UNL    C23   26   0.279   0.195   0.060
    1UNL    C24   27   0.254   0.067   0.015
    1UNL     N3   28   0.118   0.049   0.016
    1UNL    C25   29   0.049   0.156   0.067
    1UNL    C26   30   0.337  -0.036  -0.055
    1UNL    C27   31   0.264  -0.116  -0.158
    1UNL     O2   32   0.208  -0.065  -0.253
    1UNL     O3   33   0.253  -0.250  -0.130
    1UNL    C28   34   0.189  -0.317  -0.232
    1UNL    C29   35   0.416  -0.129   0.056
    1UNL    C30   36   0.569  -0.151   0.019
    1UNL    C31   37   0.594  -0.181  -0.130
    1UNL    C32   38   0.538  -0.068  -0.226
    1UNL    C33   39   0.472  -0.117  -0.362
    1UNL    C34   40   0.450   0.000  -0.462
    1UNL    C35   41   0.448   0.031  -0.137
    1UNL     N4   42   0.551   0.098  -0.037
    1UNL    C36   43   0.517   0.235   0.006
    1UNL    C37   44   0.403   0.258   0.100
    1UNL    C38   45   0.628  -0.014   0.043
    1UNL    C39   46   0.659   0.034   0.187
    1UNL    C40   47   0.748  -0.062   0.261
    1UNL    C41   48   0.829  -0.014   0.373
    1UNL     O4   49   0.758  -0.178   0.236
    1UNL    C42   50  -0.286   0.054   0.205
    1UNL    C43   51  -0.402  -0.050   0.186
    1UNL    C44   52  -0.344  -0.184   0.120
    1UNL    C45   53  -0.393  -0.304   0.203
    1UNL     O5   54  -0.504  -0.308   0.251
    1UNL     O6   55  -0.298  -0.396   0.212
    1UNL    C46   56  -0.339  -0.494   0.302
    1UNL     H1   57  -0.760   0.169   0.076
    1UNL     H2   58  -0.674   0.182  -0.068
    1UNL     H3   59  -0.666   0.313   0.050
    1UNL     H4   60  -0.494   0.193   0.190
    1UNL     H5   61  -0.664  -0.041  -0.046
    1UNL     H6   62  -0.645  -0.172   0.087
    1UNL     H7   63  -0.667  -0.297  -0.115
    1UNL     H8   64  -0.574  -0.386   0.000
    1UNL     H9   65  -0.529  -0.376  -0.181
    1UNL    H10   66  -0.350  -0.312  -0.053
    1UNL    H11   67  -0.278  -0.177  -0.238
    1UNL    H12   68  -0.168  -0.128  -0.120
    1UNL    H13   69  -0.314   0.308  -0.017
    1UNL    H14   70  -0.485   0.417  -0.230
    1UNL    H15   71  -0.639   0.328  -0.390
    1UNL    H16   72  -0.656   0.092  -0.444
    1UNL    H17   73  -0.482  -0.074  -0.346
    1UNL    H18   74  -0.133  -0.021   0.071
    1UNL    H19   75  -0.187   0.348   0.384
    1UNL    H20   76  -0.347   0.355   0.381
    1UNL    H21   77  -0.264   0.499   0.327
    1UNL    H22   78  -0.078   0.497   0.198
    1UNL    H23   79   0.163   0.456   0.158
    1UNL    H24   80   0.073  -0.032  -0.025
    1UNL    H25   81   0.187  -0.259  -0.326
    1UNL    H26   82   0.085  -0.325  -0.217
    1UNL    H27   83   0.228  -0.416  -0.248
    1UNL    H28   84   0.363  -0.222   0.060
    1UNL    H29   85   0.408  -0.087   0.154
    1UNL    H30   86   0.621  -0.225   0.078
    1UNL    H31   87   0.538  -0.273  -0.153
    1UNL    H32   88   0.703  -0.202  -0.150
    1UNL    H33   89   0.623  -0.008  -0.265
    1UNL    H34   90   0.541  -0.185  -0.403
    1UNL    H35   91   0.382  -0.167  -0.334
    1UNL    H36   92   0.373   0.065  -0.429
    1UNL    H37   93   0.538   0.047  -0.480
    1UNL    H38   94   0.415  -0.045  -0.555
    1UNL    H39   95   0.391   0.109  -0.200
    1UNL    H40   96   0.500   0.300  -0.088
    1UNL    H41   97   0.610   0.275   0.037
    1UNL    H42   98   0.389   0.363   0.101
    1UNL    H43   99   0.433   0.243   0.206
    1UNL    H44  100   0.721  -0.010  -0.010
    1UNL    H45  101   0.567   0.046   0.244
    1UNL    H46  102   0.694   0.141   0.195
    1UNL    H47  103   0.811  -0.088   0.452
    1UNL    H48  104   0.939  -0.022   0.356
    1UNL    H49  105   0.809   0.093   0.398
    1UNL    H50  106  -0.229   0.037   0.297
    1UNL    H51  107  -0.326   0.149   0.225
    1UNL    H52  108  -0.444  -0.083   0.286
    1UNL    H53  109  -0.234  -0.184   0.138
    1UNL    H54  110  -0.259  -0.570   0.324
    1UNL    H55  111  -0.368  -0.448   0.397
    1UNL    H56  112  -0.421  -0.546   0.256
   0.00000   0.00000   0.00000   0.00000   0.00000   0.00000   0.00000   0.00000   0.00000
Generated with MDTraj, t= 91.0
 112
    1UNL     C1    1  -0.681   0.169   0.045
    1UNL     C2    2  -0.547   0.118   0.098
    1UNL     C3    3  -0.504  -0.013   0.092
    1UNL     C4    4  -0.602  -0.114   0.040
    1UNL     N1    5  -0.543  -0.211  -0.055
    1UNL     C5    6  -0.621  -0.318  -0.107
    1UNL     C6    7  -0.385  -0.231  -0.030
    1UNL     C7    8  -0.309  -0.134  -0.132
    1UNL     C8    9  -0.333   0.013  -0.116
    1UNL     C9   10  -0.263   0.104  -0.041
    1UNL     N2   11  -0.314   0.231  -0.066
    1UNL    C10   12  -0.412   0.221  -0.161
    1UNL    C11   13  -0.499   0.313  -0.237
    1UNL    C12   14  -0.580   0.267  -0.340
    1UNL    C13   15  -0.591   0.130  -0.369
    1UNL    C14   16  -0.509   0.042  -0.309
    1UNL    C15   17  -0.427   0.086  -0.197
    1UNL    C16   18  -0.180   0.070   0.081
    1UNL    C17   19  -0.076   0.174   0.108
    1UNL    C18   20  -0.097   0.300   0.170
    1UNL     O1   21  -0.228   0.348   0.202
    1UNL    C19   22  -0.240   0.468   0.276
    1UNL    C20   23   0.006   0.385   0.199
    1UNL    C21   24   0.133   0.371   0.150
    1UNL    C22   25   0.161   0.245   0.089
    1UNL    C23   26   0.286   0.187   0.051
    1UNL    C24   27   0.255   0.071  -0.015
    1UNL     N3   28   0.115   0.050   0.001
    1UNL    C25   29   0.057   0.156   0.068
    1UNL    C26   30   0.339  -0.034  -0.083
    1UNL    C27   31   0.255  -0.114  -0.176
    1UNL     O2   32   0.175  -0.054  -0.245
    1UNL     O3   33   0.273  -0.244  -0.195
    1UNL    C28   34   0.160  -0.299  -0.254
    1UNL    C29   35   0.401  -0.128   0.032
    1UNL    C30   36   0.557  -0.142   0.034
    1UNL    C31   37   0.592  -0.191  -0.104
    1UNL    C32   38   0.563  -0.076  -0.212
    1UNL    C33   39   0.521  -0.114  -0.351
    1UNL    C34   40   0.528   0.005  -0.449
    1UNL    C35   41   0.470   0.032  -0.147
    1UNL     N4   42   0.556   0.093  -0.042
    1UNL    C36   43   0.532   0.229  -0.003
    1UNL    C37   44   0.418   0.244   0.106
    1UNL    C38   45   0.619  -0.004   0.050
    1UNL    C39   46   0.623   0.036   0.199
    1UNL    C40   47   0.727  -0.044   0.270
    1UNL    C41   48   0.805   0.031   0.379
    1UNL     O4   49   0.739  -0.161   0.247
    1UNL    C42   50  -0.275   0.037   0.203
    1UNL    C43   51  -0.391  -0.065   0.172
    1UNL    C44   52  -0.347  -0.208   0.112
    1UNL    C45   53  -0.392  -0.314   0.203
    1UNL     O5   54  -0.501  -0.311   0.258
    1UNL     O6   55  -0.301  -0.417   0.224
    1UNL    C46   56  -0.361  -0.510   0.315
    1UNL     H1   57  -0.757   0.097   0.077
    1UNL     H2   58  -0.696   0.176  -0.061
    1UNL     H3   59  -0.706   0.265   0.090
    1UNL     H4   60  -0.475   0.179   0.146
    1UNL     H5   61  -0.698  -0.069  -0.016
    1UNL     H6   62  -0.627  -0.182   0.126
    1UNL     H7   63  -0.712  -0.286  -0.154
    1UNL     H8   64  -0.653  -0.395  -0.032
    1UNL     H9   65  -0.565  -0.360  -0.192
    1UNL    H10   66  -0.365  -0.333  -0.050
    1UNL    H11   67  -0.331  -0.170  -0.239
    1UNL    H12   68  -0.199  -0.152  -0.140
    1UNL    H13   69  -0.297   0.312  -0.011
    1UNL    H14   70  -0.493   0.418  -0.219
    1UNL    H15   71  -0.663   0.332  -0.374
    1UNL    H16   72  -0.662   0.100  -0.442
    1UNL    H17   73  -0.513  -0.061  -0.329
    1UNL    H18   74  -0.122  -0.016   0.058
    1UNL    H19   75  -0.183   0.466   0.369
    1UNL    H20   76  -0.335   0.474   0.316
    1UNL    H21   77  -0.224   0.561   0.219
    1UNL    H22   78  -0.013   0.468   0.265
    1UNL    H23   79   0.216   0.427   0.196
    1UNL    H24   80   0.073  -0.023  -0.054
    1UNL    H25   81   0.177  -0.310  -0.367
    1UNL    H26   82   0.073  -0.231  -0.255
    1UNL    H27   83   0.133  -0.397  -0.207
    1UNL    H28   84   0.355  -0.224   0.028
    1UNL    H29   85   0.365  -0.082   0.121
    1UNL    H30   86   0.597  -0.210   0.108
    1UNL    H31   87   0.539  -0.287  -0.130
    1UNL    H32   88   0.699  -0.219  -0.106
    1UNL    H33   89   0.660  -0.025  -0.233
    1UNL    H34   90   0.592  -0.188  -0.381
    1UNL    H35   91   0.421  -0.151  -0.341
    1UNL    H36   92   0.445   0.072  -0.435
    1UNL    H37   93   0.618   0.055  -0.444
    1UNL    H38   94   0.516  -0.036  -0.547
    1UNL    H39   95   0.437   0.117  -0.218
    1UNL    H40   96   0.525   0.289  -0.100
    1UNL    H41   97   0.624   0.264   0.038
    1UNL    H42   98   0.406   0.346   0.132
    1UNL    H43   99   0.445   0.202   0.205
    1UNL    H44  100   0.722  -0.014   0.018
    1UNL    H45  101   0.527   0.016   0.245
    1UNL    H46  102   0.637   0.145   0.215
    1UNL    H47  103   0.764  -0.010   0.473
    1UNL    H48  104   0.913   0.007   0.384
    1UNL    H49  105   0.789   0.140   0.363
    1UNL    H50  106  -0.210  -0.001   0.281
    1UNL    H51  107  -0.305   0.133   0.240
    1UNL    H52  108  -0.446  -0.090   0.270
    1UNL    H53  109  -0.236  -0.215   0.113
    1UNL    H54  110  -0.314  -0.613   0.311
    1UNL    H55  111  -0.348  -0.478   0.420
    1UNL    H56  112  -0.464  -0.522   0.288
   0.00000   0.00000   0.00000   0.00000   0.00000   0.00000   0.00000   0.00000   0.00000
Generated with MDTraj, t= 92.0
 112
    1UNL     C1    1  -0.656   0.165   0.060
    1UNL     C2    2  -0.546   0.119   0.144
    1UNL     C3    3  -0.502  -0.009   0.133
    1UNL     C4    4  -0.591  -0.111   0.080
    1UNL     N1    5  -0.528  -0.187  -0.045
    1UNL     C5    6  -0.602  -0.311  -0.073
    1UNL     C6    7  -0.383  -0.209  -0.021
    1UNL     C7    8  -0.304  -0.141  -0.133
    1UNL     C8    9  -0.327   0.006  -0.138
    1UNL     C9   10  -0.269   0.096  -0.049
    1UNL     N2   11  -0.319   0.224  -0.067
    1UNL    C10   12  -0.409   0.220  -0.169
    1UNL    C11   13  -0.494   0.323  -0.210
    1UNL    C12   14  -0.590   0.287  -0.303
    1UNL    C13   15  -0.601   0.159  -0.365
    1UNL    C14   16  -0.514   0.059  -0.318
    1UNL    C15   17  -0.414   0.085  -0.221
    1UNL    C16   18  -0.181   0.068   0.063
    1UNL    C17   19  -0.081   0.175   0.092
    1UNL    C18   20  -0.113   0.285   0.173
    1UNL     O1   21  -0.249   0.320   0.183
    1UNL    C19   22  -0.287   0.457   0.181
    1UNL    C20   23  -0.004   0.369   0.220
    1UNL    C21   24   0.128   0.335   0.196
    1UNL    C22   25   0.161   0.229   0.114
    1UNL    C23   26   0.287   0.186   0.060
    1UNL    C24   27   0.255   0.076  -0.023
    1UNL     N3   28   0.121   0.057  -0.017
    1UNL    C25   29   0.055   0.153   0.061
    1UNL    C26   30   0.339  -0.029  -0.086
    1UNL    C27   31   0.259  -0.103  -0.191
    1UNL     O2   32   0.186  -0.049  -0.272
    1UNL     O3   33   0.274  -0.235  -0.188
    1UNL    C28   34   0.202  -0.292  -0.299
    1UNL    C29   35   0.385  -0.120   0.034
    1UNL    C30   36   0.540  -0.145   0.031
    1UNL    C31   37   0.572  -0.188  -0.113
    1UNL    C32   38   0.570  -0.078  -0.222
    1UNL    C33   39   0.527  -0.132  -0.360
    1UNL    C34   40   0.559  -0.031  -0.470
    1UNL    C35   41   0.474   0.029  -0.155
    1UNL     N4   42   0.558   0.090  -0.037
    1UNL    C36   43   0.536   0.229  -0.016
    1UNL    C37   44   0.418   0.255   0.084
    1UNL    C38   45   0.610  -0.008   0.058
    1UNL    C39   46   0.607   0.023   0.213
    1UNL    C40   47   0.713  -0.041   0.291
    1UNL    C41   48   0.778   0.052   0.383
    1UNL     O4   49   0.738  -0.159   0.292
    1UNL    C42   50  -0.254   0.042   0.201
    1UNL    C43   51  -0.378  -0.056   0.199
    1UNL    C44   52  -0.335  -0.193   0.130
    1UNL    C45   53  -0.387  -0.314   0.205
    1UNL     O5   54  -0.499  -0.315   0.252
    1UNL     O6   55  -0.307  -0.421   0.214
    1UNL    C46   56  -0.367  -0.516   0.289
    1UNL     H1   57  -0.744   0.171   0.130
    1UNL     H2   58  -0.686   0.108  -0.026
    1UNL     H3   59  -0.628   0.261   0.026
    1UNL     H4   60  -0.487   0.182   0.214
    1UNL     H5   61  -0.696  -0.069   0.046
    1UNL     H6   62  -0.612  -0.194   0.153
    1UNL     H7   63  -0.711  -0.308  -0.074
    1UNL     H8   64  -0.579  -0.384   0.005
    1UNL     H9   65  -0.577  -0.352  -0.174
    1UNL    H10   66  -0.377  -0.316  -0.038
    1UNL    H11   67  -0.330  -0.193  -0.235
    1UNL    H12   68  -0.197  -0.171  -0.136
    1UNL    H13   69  -0.313   0.294   0.005
    1UNL    H14   70  -0.500   0.425  -0.174
    1UNL    H15   71  -0.664   0.348  -0.352
    1UNL    H16   72  -0.676   0.122  -0.440
    1UNL    H17   73  -0.522  -0.035  -0.369
    1UNL    H18   74  -0.124  -0.017   0.035
    1UNL    H19   75  -0.305   0.502   0.278
    1UNL    H20   76  -0.379   0.466   0.133
    1UNL    H21   77  -0.211   0.518   0.128
    1UNL    H22   78  -0.027   0.438   0.299
    1UNL    H23   79   0.202   0.392   0.246
    1UNL    H24   80   0.072   0.006  -0.086
    1UNL    H25   81   0.236  -0.240  -0.395
    1UNL    H26   82   0.094  -0.254  -0.293
    1UNL    H27   83   0.204  -0.408  -0.314
    1UNL    H28   84   0.331  -0.212   0.026
    1UNL    H29   85   0.349  -0.074   0.123
    1UNL    H30   86   0.570  -0.219   0.103
    1UNL    H31   87   0.506  -0.275  -0.140
    1UNL    H32   88   0.674  -0.226  -0.123
    1UNL    H33   89   0.669  -0.030  -0.227
    1UNL    H34   90   0.576  -0.224  -0.380
    1UNL    H35   91   0.423  -0.153  -0.358
    1UNL    H36   92   0.516   0.065  -0.455
    1UNL    H37   93   0.666  -0.011  -0.478
    1UNL    H38   94   0.527  -0.055  -0.565
    1UNL    H39   95   0.449   0.104  -0.241
    1UNL    H40   96   0.502   0.272  -0.114
    1UNL    H41   97   0.632   0.274   0.008
    1UNL    H42   98   0.403   0.359   0.098
    1UNL    H43   99   0.447   0.221   0.183
    1UNL    H44  100   0.715  -0.019   0.034
    1UNL    H45  101   0.512  -0.004   0.259
    1UNL    H46  102   0.622   0.131   0.224
    1UNL    H47  103   0.721   0.043   0.480
    1UNL    H48  104   0.876   0.015   0.418
    1UNL    H49  105   0.784   0.154   0.342
    1UNL    H50  106  -0.173   0.012   0.267
    1UNL    H51  107  -0.290   0.137   0.239
    1UNL    H52  108  -0.415  -0.074   0.307
    1UNL    H53  109  -0.224  -0.190   0.122
    1UNL    H54  110  -0.294  -0.593   0.325
    1UNL    H55  111  -0.402  -0.469   0.384
    1UNL    H56  112  -0.448  -0.559   0.232
   0.00000   0.00000   0.00000   0.00000   0.00000   0.00000   0.00000   0.00000   0.00000
Generated with MDTraj, t= 93.0
 112
    1UNL     C1    1  -0.625   0.217   0.111
    1UNL     C2    2  -0.506   0.134   0.133
    1UNL     C3    3  -0.492  -0.001   0.118
    1UNL     C4    4  -0.593  -0.088   0.054
    1UNL     N1    5  -0.546  -0.197  -0.042
    1UNL     C5    6  -0.630  -0.319  -0.050
    1UNL     C6    7  -0.401  -0.221  -0.028
    1UNL     C7    8  -0.322  -0.134  -0.129
    1UNL     C8    9  -0.340   0.012  -0.112
    1UNL     C9   10  -0.280   0.103  -0.035
    1UNL     N2   11  -0.328   0.234  -0.065
    1UNL    C10   12  -0.415   0.219  -0.169
    1UNL    C11   13  -0.491   0.325  -0.225
    1UNL    C12   14  -0.582   0.282  -0.321
    1UNL    C13   15  -0.598   0.146  -0.354
    1UNL    C14   16  -0.529   0.044  -0.291
    1UNL    C15   17  -0.426   0.084  -0.205
    1UNL    C16   18  -0.184   0.065   0.075
    1UNL    C17   19  -0.079   0.175   0.090
    1UNL    C18   20  -0.111   0.293   0.160
    1UNL     O1   21  -0.243   0.327   0.201
    1UNL    C19   22  -0.280   0.460   0.174
    1UNL    C20   23  -0.004   0.375   0.206
    1UNL    C21   24   0.121   0.359   0.158
    1UNL    C22   25   0.157   0.235   0.093
    1UNL    C23   26   0.276   0.182   0.046
    1UNL    C24   27   0.245   0.070  -0.019
    1UNL     N3   28   0.112   0.040  -0.008
    1UNL    C25   29   0.051   0.153   0.046
    1UNL    C26   30   0.338  -0.030  -0.087
    1UNL    C27   31   0.275  -0.104  -0.203
    1UNL     O2   32   0.213  -0.039  -0.286
    1UNL     O3   33   0.283  -0.238  -0.197
    1UNL    C28   34   0.209  -0.293  -0.300
    1UNL    C29   35   0.385  -0.123   0.035
    1UNL    C30   36   0.541  -0.143   0.036
    1UNL    C31   37   0.587  -0.198  -0.102
    1UNL    C32   38   0.559  -0.077  -0.207
    1UNL    C33   39   0.530  -0.131  -0.347
    1UNL    C34   40   0.562  -0.040  -0.467
    1UNL    C35   41   0.465   0.036  -0.142
    1UNL     N4   42   0.560   0.101  -0.041
    1UNL    C36   43   0.521   0.232  -0.008
    1UNL    C37   44   0.404   0.242   0.086
    1UNL    C38   45   0.607  -0.003   0.061
    1UNL    C39   46   0.600   0.045   0.211
    1UNL    C40   47   0.694  -0.040   0.295
    1UNL    C41   48   0.776   0.031   0.396
    1UNL     O4   49   0.694  -0.160   0.286
    1UNL    C42   50  -0.246   0.027   0.205
    1UNL    C43   51  -0.368  -0.069   0.189
    1UNL    C44   52  -0.338  -0.203   0.114
    1UNL    C45   53  -0.373  -0.323   0.202
    1UNL     O5   54  -0.477  -0.329   0.265
    1UNL     O6   55  -0.283  -0.427   0.195
    1UNL    C46   56  -0.341  -0.533   0.260
    1UNL     H1   57  -0.720   0.156   0.132
    1UNL     H2   58  -0.635   0.268   0.018
    1UNL     H3   59  -0.627   0.291   0.184
    1UNL     H4   60  -0.415   0.178   0.165
    1UNL     H5   61  -0.670  -0.040  -0.009
    1UNL     H6   62  -0.650  -0.142   0.138
    1UNL     H7   63  -0.738  -0.317  -0.075
    1UNL     H8   64  -0.622  -0.369   0.046
    1UNL     H9   65  -0.585  -0.379  -0.133
    1UNL    H10   66  -0.396  -0.331  -0.047
    1UNL    H11   67  -0.344  -0.163  -0.241
    1UNL    H12   68  -0.217  -0.169  -0.133
    1UNL    H13   69  -0.313   0.309  -0.001
    1UNL    H14   70  -0.479   0.430  -0.200
    1UNL    H15   71  -0.629   0.358  -0.385
    1UNL    H16   72  -0.651   0.115  -0.439
    1UNL    H17   73  -0.547  -0.065  -0.311
    1UNL    H18   74  -0.141  -0.025   0.038
    1UNL    H19   75  -0.267   0.535   0.254
    1UNL    H20   76  -0.383   0.461   0.149
    1UNL    H21   77  -0.216   0.493   0.088
    1UNL    H22   78  -0.033   0.463   0.261
    1UNL    H23   79   0.203   0.417   0.194
    1UNL    H24   80   0.070  -0.038  -0.051
    1UNL    H25   81   0.169  -0.209  -0.363
    1UNL    H26   82   0.122  -0.348  -0.248
    1UNL    H27   83   0.277  -0.367  -0.358
    1UNL    H28   84   0.338  -0.217   0.012
    1UNL    H29   85   0.345  -0.088   0.128
    1UNL    H30   86   0.566  -0.205   0.122
    1UNL    H31   87   0.525  -0.284  -0.140
    1UNL    H32   88   0.690  -0.231  -0.095
    1UNL    H33   89   0.653  -0.021  -0.201
    1UNL    H34   90   0.586  -0.220  -0.363
    1UNL    H35   91   0.429  -0.169  -0.363
    1UNL    H36   92   0.530   0.059  -0.454
    1UNL    H37   93   0.672  -0.034  -0.485
    1UNL    H38   94   0.521  -0.068  -0.556
    1UNL    H39   95   0.435   0.104  -0.232
    1UNL    H40   96   0.504   0.286  -0.104
    1UNL    H41   97   0.604   0.277   0.050
    1UNL    H42   98   0.390   0.346   0.106
    1UNL    H43   99   0.422   0.200   0.183
    1UNL    H44  100   0.714  -0.010   0.034
    1UNL    H45  101   0.500   0.021   0.248
    1UNL    H46  102   0.631   0.149   0.220
    1UNL    H47  103   0.708   0.083   0.470
    1UNL    H48  104   0.828  -0.030   0.473
    1UNL    H49  105   0.843   0.107   0.357
    1UNL    H50  106  -0.179  -0.020   0.275
    1UNL    H51  107  -0.280   0.122   0.249
    1UNL    H52  108  -0.403  -0.106   0.292
    1UNL    H53  109  -0.227  -0.216   0.104
    1UNL    H54  110  -0.267  -0.608   0.298
    1UNL    H55  111  -0.378  -0.494   0.356
    1UNL    H56  112  -0.418  -0.574   0.200
   0.00000   0.00000   0.00000   0.00000   0.00000   0.00000   0.00000   0.00000   0.00000
Generated with MDTraj, t= 94.0
 112
    1UNL     C1    1  -0.631   0.207   0.133
    1UNL     C2    2  -0.523   0.123   0.188
    1UNL     C3    3  -0.493   0.001   0.132
    1UNL     C4    4  -0.597  -0.057   0.034
    1UNL     N1    5  -0.561  -0.188  -0.027
    1UNL     C5    6  -0.648  -0.304   0.013
    1UNL     C6    7  -0.411  -0.221  -0.025
    1UNL     C7    8  -0.339  -0.141  -0.137
    1UNL     C8    9  -0.354   0.006  -0.131
    1UNL     C9   10  -0.283   0.092  -0.044
    1UNL     N2   11  -0.319   0.221  -0.076
    1UNL    C10   12  -0.412   0.223  -0.182
    1UNL    C11   13  -0.492   0.314  -0.241
    1UNL    C12   14  -0.584   0.281  -0.329
    1UNL    C13   15  -0.608   0.146  -0.362
    1UNL    C14   16  -0.528   0.047  -0.307
    1UNL    C15   17  -0.432   0.087  -0.220
    1UNL    C16   18  -0.179   0.058   0.063
    1UNL    C17   19  -0.083   0.178   0.075
    1UNL    C18   20  -0.117   0.303   0.135
    1UNL     O1   21  -0.250   0.325   0.166
    1UNL    C19   22  -0.259   0.434   0.256
    1UNL    C20   23  -0.009   0.396   0.157
    1UNL    C21   24   0.120   0.376   0.126
    1UNL    C22   25   0.153   0.254   0.066
    1UNL    C23   26   0.287   0.213   0.028
    1UNL    C24   27   0.265   0.075  -0.012
    1UNL     N3   28   0.126   0.052  -0.006
    1UNL    C25   29   0.054   0.159   0.042
    1UNL    C26   30   0.352  -0.031  -0.079
    1UNL    C27   31   0.263  -0.106  -0.179
    1UNL     O2   32   0.208  -0.049  -0.271
    1UNL     O3   33   0.262  -0.243  -0.166
    1UNL    C28   34   0.190  -0.301  -0.275
    1UNL    C29   35   0.395  -0.134   0.034
    1UNL    C30   36   0.547  -0.137   0.035
    1UNL    C31   37   0.608  -0.183  -0.102
    1UNL    C32   38   0.583  -0.072  -0.206
    1UNL    C33   39   0.548  -0.122  -0.344
    1UNL    C34   40   0.538  -0.014  -0.447
    1UNL    C35   41   0.482   0.027  -0.143
    1UNL     N4   42   0.561   0.095  -0.032
    1UNL    C36   43   0.548   0.237  -0.014
    1UNL    C37   44   0.421   0.277   0.067
    1UNL    C38   45   0.612   0.001   0.066
    1UNL    C39   46   0.598   0.042   0.215
    1UNL    C40   47   0.680  -0.054   0.302
    1UNL    C41   48   0.773  -0.006   0.404
    1UNL     O4   49   0.663  -0.172   0.296
    1UNL    C42   50  -0.250   0.025   0.190
    1UNL    C43   51  -0.374  -0.072   0.187
    1UNL    C44   52  -0.343  -0.206   0.111
    1UNL    C45   53  -0.369  -0.338   0.186
    1UNL     O5   54  -0.468  -0.353   0.253
    1UNL     O6   55  -0.279  -0.434   0.165
    1UNL    C46   56  -0.309  -0.538   0.252
    1UNL     H1   57  -0.723   0.148   0.112
    1UNL     H2   58  -0.601   0.251   0.038
    1UNL     H3   59  -0.661   0.282   0.200
    1UNL     H4   60  -0.453   0.163   0.261
    1UNL     H5   61  -0.610   0.010  -0.045
    1UNL     H6   62  -0.705  -0.072   0.078
    1UNL     H7   63  -0.754  -0.274   0.004
    1UNL     H8   64  -0.632  -0.322   0.118
    1UNL     H9   65  -0.640  -0.391  -0.056
    1UNL    H10   66  -0.409  -0.334  -0.041
    1UNL    H11   67  -0.356  -0.189  -0.243
    1UNL    H12   68  -0.230  -0.152  -0.131
    1UNL    H13   69  -0.272   0.299  -0.026
    1UNL    H14   70  -0.470   0.411  -0.204
    1UNL    H15   71  -0.651   0.359  -0.363
    1UNL    H16   72  -0.672   0.123  -0.450
    1UNL    H17   73  -0.544  -0.055  -0.311
    1UNL    H18   74  -0.121  -0.027   0.034
    1UNL    H19   75  -0.173   0.445   0.327
    1UNL    H20   76  -0.350   0.427   0.314
    1UNL    H21   77  -0.248   0.530   0.197
    1UNL    H22   78  -0.030   0.470   0.231
    1UNL    H23   79   0.202   0.448   0.146
    1UNL    H24   80   0.085  -0.025  -0.052
    1UNL    H25   81   0.098  -0.245  -0.283
    1UNL    H26   82   0.169  -0.407  -0.237
    1UNL    H27   83   0.253  -0.303  -0.367
    1UNL    H28   84   0.355  -0.232   0.015
    1UNL    H29   85   0.359  -0.094   0.127
    1UNL    H30   86   0.581  -0.209   0.109
    1UNL    H31   87   0.546  -0.272  -0.133
    1UNL    H32   88   0.713  -0.212  -0.102
    1UNL    H33   89   0.672  -0.007  -0.207
    1UNL    H34   90   0.616  -0.199  -0.375
    1UNL    H35   91   0.451  -0.176  -0.342
    1UNL    H36   92   0.447   0.034  -0.437
    1UNL    H37   93   0.619   0.061  -0.443
    1UNL    H38   94   0.538  -0.058  -0.544
    1UNL    H39   95   0.450   0.101  -0.225
    1UNL    H40   96   0.549   0.280  -0.115
    1UNL    H41   97   0.640   0.267   0.048
    1UNL    H42   98   0.403   0.381   0.055
    1UNL    H43   99   0.446   0.263   0.170
    1UNL    H44  100   0.718  -0.011   0.031
    1UNL    H45  101   0.492   0.024   0.235
    1UNL    H46  102   0.624   0.144   0.230
    1UNL    H47  103   0.744   0.095   0.443
    1UNL    H48  104   0.761  -0.065   0.497
    1UNL    H49  105   0.876  -0.000   0.367
    1UNL    H50  106  -0.176  -0.015   0.259
    1UNL    H51  107  -0.282   0.116   0.244
    1UNL    H52  108  -0.406  -0.101   0.293
    1UNL    H53  109  -0.233  -0.203   0.094
    1UNL    H54  110  -0.263  -0.637   0.229
    1UNL    H55  111  -0.256  -0.513   0.346
    1UNL    H56  112  -0.413  -0.545   0.266
   0.00000   0.00000   0.00000   0.00000   0.00000   0.00000   0.00000   0.00000   0.00000
Generated with MDTraj, t= 95.0
 112
    1UNL     C1    1  -0.648   0.190   0.179
    1UNL     C2    2  -0.531   0.111   0.212
    1UNL     C3    3  -0.488   0.008   0.133
    1UNL     C4    4  -0.574  -0.034   0.016
    1UNL     N1    5  -0.546  -0.168  -0.026
    1UNL     C5    6  -0.616  -0.275   0.061
    1UNL     C6    7  -0.402  -0.210  -0.036
    1UNL     C7    8  -0.334  -0.147  -0.153
    1UNL     C8    9  -0.343   0.007  -0.152
    1UNL     C9   10  -0.284   0.097  -0.065
    1UNL     N2   11  -0.326   0.229  -0.089
    1UNL    C10   12  -0.428   0.218  -0.182
    1UNL    C11   13  -0.505   0.321  -0.244
    1UNL    C12   14  -0.601   0.291  -0.334
    1UNL    C13   15  -0.600   0.160  -0.387
    1UNL    C14   16  -0.525   0.060  -0.337
    1UNL    C15   17  -0.435   0.089  -0.231
    1UNL    C16   18  -0.188   0.059   0.044
    1UNL    C17   19  -0.081   0.167   0.056
    1UNL    C18   20  -0.121   0.289   0.112
    1UNL     O1   21  -0.256   0.307   0.167
    1UNL    C19   22  -0.266   0.330   0.308
    1UNL    C20   23  -0.034   0.398   0.117
    1UNL    C21   24   0.100   0.384   0.104
    1UNL    C22   25   0.155   0.257   0.059
    1UNL    C23   26   0.285   0.196   0.032
    1UNL    C24   27   0.265   0.067  -0.018
    1UNL     N3   28   0.130   0.039  -0.014
    1UNL    C25   29   0.058   0.157   0.020
    1UNL    C26   30   0.363  -0.038  -0.071
    1UNL    C27   31   0.285  -0.121  -0.178
    1UNL     O2   32   0.254  -0.061  -0.278
    1UNL     O3   33   0.265  -0.252  -0.152
    1UNL    C28   34   0.156  -0.300  -0.236
    1UNL    C29   35   0.408  -0.130   0.037
    1UNL    C30   36   0.557  -0.141   0.031
    1UNL    C31   37   0.601  -0.184  -0.114
    1UNL    C32   38   0.568  -0.071  -0.210
    1UNL    C33   39   0.512  -0.121  -0.346
    1UNL    C34   40   0.481  -0.004  -0.441
    1UNL    C35   41   0.483   0.032  -0.141
    1UNL     N4   42   0.575   0.097  -0.034
    1UNL    C36   43   0.545   0.239  -0.002
    1UNL    C37   44   0.417   0.255   0.082
    1UNL    C38   45   0.627  -0.001   0.067
    1UNL    C39   46   0.616   0.042   0.218
    1UNL    C40   47   0.666  -0.053   0.317
    1UNL    C41   48   0.769  -0.013   0.420
    1UNL     O4   49   0.615  -0.162   0.325
    1UNL    C42   50  -0.245   0.025   0.184
    1UNL    C43   51  -0.367  -0.071   0.180
    1UNL    C44   52  -0.327  -0.195   0.099
    1UNL    C45   53  -0.340  -0.312   0.191
    1UNL     O5   54  -0.431  -0.315   0.274
    1UNL     O6   55  -0.261  -0.420   0.159
    1UNL    C46   56  -0.303  -0.521   0.237
    1UNL     H1   57  -0.721   0.182   0.256
    1UNL     H2   58  -0.691   0.165   0.080
    1UNL     H3   59  -0.629   0.295   0.181
    1UNL     H4   60  -0.470   0.135   0.296
    1UNL     H5   61  -0.567   0.029  -0.065
    1UNL     H6   62  -0.684  -0.028   0.049
    1UNL     H7   63  -0.722  -0.266   0.030
    1UNL     H8   64  -0.610  -0.247   0.165
    1UNL     H9   65  -0.588  -0.377   0.032
    1UNL    H10   66  -0.408  -0.323  -0.055
    1UNL    H11   67  -0.391  -0.174  -0.248
    1UNL    H12   68  -0.229  -0.170  -0.173
    1UNL    H13   69  -0.342   0.298  -0.010
    1UNL    H14   70  -0.501   0.416  -0.190
    1UNL    H15   71  -0.672   0.368  -0.361
    1UNL    H16   72  -0.677   0.131  -0.450
    1UNL    H17   73  -0.513  -0.042  -0.383
    1UNL    H18   74  -0.140  -0.027   0.002
    1UNL    H19   75  -0.232   0.243   0.369
    1UNL    H20   76  -0.374   0.344   0.324
    1UNL    H21   77  -0.192   0.407   0.344
    1UNL    H22   78  -0.075   0.485   0.166
    1UNL    H23   79   0.169   0.462   0.116
    1UNL    H24   80   0.083  -0.041  -0.054
    1UNL    H25   81   0.082  -0.296  -0.164
    1UNL    H26   82   0.177  -0.401  -0.269
    1UNL    H27   83   0.130  -0.231  -0.312
    1UNL    H28   84   0.359  -0.223   0.019
    1UNL    H29   85   0.379  -0.092   0.135
    1UNL    H30   86   0.595  -0.213   0.105
    1UNL    H31   87   0.546  -0.273  -0.147
    1UNL    H32   88   0.708  -0.212  -0.110
    1UNL    H33   89   0.659  -0.014  -0.234
    1UNL    H34   90   0.586  -0.193  -0.383
    1UNL    H35   91   0.425  -0.183  -0.319
    1UNL    H36   92   0.401   0.054  -0.405
    1UNL    H37   93   0.565   0.057  -0.455
    1UNL    H38   94   0.454  -0.046  -0.541
    1UNL    H39   95   0.438   0.111  -0.213
    1UNL    H40   96   0.525   0.282  -0.101
    1UNL    H41   97   0.641   0.289   0.046
    1UNL    H42   98   0.397   0.360   0.090
    1UNL    H43   99   0.425   0.218   0.182
    1UNL    H44  100   0.734  -0.018   0.037
    1UNL    H45  101   0.515   0.065   0.249
    1UNL    H46  102   0.666   0.135   0.226
    1UNL    H47  103   0.790   0.096   0.416
    1UNL    H48  104   0.711  -0.030   0.512
    1UNL    H49  105   0.864  -0.069   0.402
    1UNL    H50  106  -0.165  -0.011   0.249
    1UNL    H51  107  -0.272   0.117   0.240
    1UNL    H52  108  -0.391  -0.104   0.287
    1UNL    H53  109  -0.218  -0.186   0.079
    1UNL    H54  110  -0.229  -0.603   0.237
    1UNL    H55  111  -0.306  -0.483   0.341
    1UNL    H56  112  -0.399  -0.551   0.204
   0.00000   0.00000   0.00000   0.00000   0.00000   0.00000   0.00000   0.00000   0.00000
Generated with MDTraj, t= 96.0
 112
    1UNL     C1    1  -0.654   0.162   0.225
    1UNL     C2    2  -0.529   0.088   0.226
    1UNL     C3    3  -0.492  -0.005   0.136
    1UNL     C4    4  -0.573  -0.044   0.021
    1UNL     N1    5  -0.555  -0.181  -0.034
    1UNL     C5    6  -0.618  -0.290   0.049
    1UNL     C6    7  -0.405  -0.207  -0.047
    1UNL     C7    8  -0.345  -0.134  -0.165
    1UNL     C8    9  -0.357   0.013  -0.154
    1UNL     C9   10  -0.281   0.100  -0.073
    1UNL     N2   11  -0.335   0.226  -0.097
    1UNL    C10   12  -0.435   0.221  -0.190
    1UNL    C11   13  -0.518   0.321  -0.243
    1UNL    C12   14  -0.596   0.291  -0.356
    1UNL    C13   15  -0.596   0.158  -0.409
    1UNL    C14   16  -0.514   0.062  -0.358
    1UNL    C15   17  -0.441   0.090  -0.241
    1UNL    C16   18  -0.183   0.068   0.031
    1UNL    C17   19  -0.077   0.187   0.051
    1UNL    C18   20  -0.105   0.311   0.116
    1UNL     O1   21  -0.234   0.335   0.181
    1UNL    C19   22  -0.233   0.370   0.321
    1UNL    C20   23   0.004   0.398   0.149
    1UNL    C21   24   0.132   0.367   0.120
    1UNL    C22   25   0.168   0.250   0.057
    1UNL    C23   26   0.296   0.193   0.035
    1UNL    C24   27   0.257   0.069  -0.018
    1UNL     N3   28   0.120   0.049  -0.032
    1UNL    C25   29   0.059   0.166   0.009
    1UNL    C26   30   0.355  -0.040  -0.068
    1UNL    C27   31   0.266  -0.124  -0.163
    1UNL     O2   32   0.229  -0.072  -0.265
    1UNL     O3   33   0.216  -0.244  -0.112
    1UNL    C28   34   0.161  -0.318  -0.220
    1UNL    C29   35   0.407  -0.136   0.042
    1UNL    C30   36   0.563  -0.136   0.042
    1UNL    C31   37   0.616  -0.170  -0.101
    1UNL    C32   38   0.572  -0.060  -0.205
    1UNL    C33   39   0.531  -0.135  -0.337
    1UNL    C34   40   0.474  -0.041  -0.439
    1UNL    C35   41   0.474   0.040  -0.138
    1UNL     N4   42   0.561   0.109  -0.039
    1UNL    C36   43   0.527   0.248  -0.005
    1UNL    C37   44   0.416   0.261   0.090
    1UNL    C38   45   0.608   0.017   0.069
    1UNL    C39   46   0.584   0.047   0.219
    1UNL    C40   47   0.649  -0.055   0.308
    1UNL    C41   48   0.776  -0.027   0.388
    1UNL     O4   49   0.594  -0.163   0.318
    1UNL    C42   50  -0.237   0.035   0.169
    1UNL    C43   51  -0.354  -0.067   0.169
    1UNL    C44   52  -0.321  -0.196   0.093
    1UNL    C45   53  -0.342  -0.322   0.178
    1UNL     O5   54  -0.391  -0.318   0.289
    1UNL     O6   55  -0.279  -0.432   0.132
    1UNL    C46   56  -0.275  -0.524   0.234
    1UNL     H1   57  -0.720   0.126   0.297
    1UNL     H2   58  -0.695   0.166   0.122
    1UNL     H3   59  -0.649   0.264   0.264
    1UNL     H4   60  -0.464   0.104   0.310
    1UNL     H5   61  -0.562   0.033  -0.062
    1UNL     H6   62  -0.676  -0.035   0.053
    1UNL     H7   63  -0.722  -0.265   0.071
    1UNL     H8   64  -0.562  -0.296   0.142
    1UNL     H9   65  -0.615  -0.375  -0.018
    1UNL    H10   66  -0.399  -0.318  -0.075
    1UNL    H11   67  -0.388  -0.154  -0.265
    1UNL    H12   68  -0.235  -0.153  -0.167
    1UNL    H13   69  -0.306   0.316  -0.057
    1UNL    H14   70  -0.531   0.415  -0.198
    1UNL    H15   71  -0.684   0.350  -0.383
    1UNL    H16   72  -0.659   0.137  -0.500
    1UNL    H17   73  -0.502  -0.031  -0.406
    1UNL    H18   74  -0.140  -0.023  -0.008
    1UNL    H19   75  -0.166   0.297   0.369
    1UNL    H20   76  -0.337   0.358   0.354
    1UNL    H21   77  -0.176   0.464   0.339
    1UNL    H22   78  -0.021   0.494   0.191
    1UNL    H23   79   0.215   0.423   0.165
    1UNL    H24   80   0.069  -0.037  -0.055
    1UNL    H25   81   0.082  -0.360  -0.170
    1UNL    H26   82   0.234  -0.389  -0.251
    1UNL    H27   83   0.126  -0.260  -0.298
    1UNL    H28   84   0.381  -0.238   0.022
    1UNL    H29   85   0.352  -0.111   0.132
    1UNL    H30   86   0.594  -0.202   0.125
    1UNL    H31   87   0.574  -0.268  -0.122
    1UNL    H32   88   0.728  -0.180  -0.100
    1UNL    H33   89   0.657   0.001  -0.236
    1UNL    H34   90   0.629  -0.181  -0.367
    1UNL    H35   91   0.464  -0.216  -0.309
    1UNL    H36   92   0.382   0.003  -0.402
    1UNL    H37   93   0.543   0.031  -0.453
    1UNL    H38   94   0.461  -0.097  -0.535
    1UNL    H39   95   0.423   0.116  -0.207
    1UNL    H40   96   0.504   0.291  -0.102
    1UNL    H41   97   0.623   0.305   0.037
    1UNL    H42   98   0.391   0.366   0.096
    1UNL    H43   99   0.434   0.225   0.188
    1UNL    H44  100   0.719   0.022   0.046
    1UNL    H45  101   0.482   0.063   0.249
    1UNL    H46  102   0.626   0.140   0.247
    1UNL    H47  103   0.850   0.035   0.337
    1UNL    H48  104   0.730   0.024   0.475
    1UNL    H49  105   0.825  -0.126   0.408
    1UNL    H50  106  -0.168  -0.005   0.244
    1UNL    H51  107  -0.262   0.133   0.212
    1UNL    H52  108  -0.364  -0.103   0.275
    1UNL    H53  109  -0.209  -0.192   0.082
    1UNL    H54  110  -0.206  -0.609   0.217
    1UNL    H55  111  -0.249  -0.474   0.330
    1UNL    H56  112  -0.376  -0.556   0.244
   0.00000   0.00000   0.00000   0.00000   0.00000   0.00000   0.00000   0.00000   0.00000
Generated with MDTraj, t= 97.0
 112
    1UNL     C1    1  -0.676   0.136   0.234
    1UNL     C2    2  -0.541   0.067   0.254
    1UNL     C3    3  -0.491  -0.022   0.164
    1UNL     C4    4  -0.565  -0.058   0.042
    1UNL     N1    5  -0.525  -0.184  -0.035
    1UNL     C5    6  -0.599  -0.303   0.011
    1UNL     C6    7  -0.380  -0.198  -0.037
    1UNL     C7    8  -0.320  -0.117  -0.152
    1UNL     C8    9  -0.348   0.027  -0.139
    1UNL     C9   10  -0.292   0.119  -0.053
    1UNL     N2   11  -0.339   0.247  -0.082
    1UNL    C10   12  -0.422   0.241  -0.193
    1UNL    C11   13  -0.495   0.332  -0.266
    1UNL    C12   14  -0.583   0.291  -0.366
    1UNL    C13   15  -0.596   0.154  -0.398
    1UNL    C14   16  -0.525   0.060  -0.324
    1UNL    C15   17  -0.430   0.104  -0.227
    1UNL    C16   18  -0.187   0.087   0.054
    1UNL    C17   19  -0.087   0.190   0.068
    1UNL    C18   20  -0.119   0.315   0.132
    1UNL     O1   21  -0.254   0.337   0.165
    1UNL    C19   22  -0.297   0.432   0.269
    1UNL    C20   23  -0.017   0.407   0.155
    1UNL    C21   24   0.115   0.376   0.136
    1UNL    C22   25   0.153   0.253   0.076
    1UNL    C23   26   0.283   0.207   0.029
    1UNL    C24   27   0.260   0.074  -0.015
    1UNL     N3   28   0.116   0.049  -0.012
    1UNL    C25   29   0.053   0.159   0.039
    1UNL    C26   30   0.355  -0.035  -0.074
    1UNL    C27   31   0.272  -0.122  -0.166
    1UNL     O2   32   0.247  -0.084  -0.278
    1UNL     O3   33   0.230  -0.240  -0.111
    1UNL    C28   34   0.137  -0.305  -0.204
    1UNL    C29   35   0.398  -0.133   0.052
    1UNL    C30   36   0.548  -0.142   0.041
    1UNL    C31   37   0.587  -0.196  -0.096
    1UNL    C32   38   0.575  -0.092  -0.209
    1UNL    C33   39   0.526  -0.158  -0.337
    1UNL    C34   40   0.492  -0.069  -0.455
    1UNL    C35   41   0.481   0.019  -0.153
    1UNL     N4   42   0.563   0.092  -0.050
    1UNL    C36   43   0.545   0.236  -0.025
    1UNL    C37   44   0.415   0.277   0.058
    1UNL    C38   45   0.609  -0.004   0.058
    1UNL    C39   46   0.598   0.042   0.201
    1UNL    C40   47   0.652  -0.049   0.309
    1UNL    C41   48   0.785  -0.027   0.369
    1UNL     O4   49   0.587  -0.138   0.355
    1UNL    C42   50  -0.239   0.044   0.190
    1UNL    C43   51  -0.349  -0.069   0.184
    1UNL    C44   52  -0.308  -0.190   0.099
    1UNL    C45   53  -0.323  -0.320   0.168
    1UNL     O5   54  -0.394  -0.336   0.265
    1UNL     O6   55  -0.260  -0.423   0.104
    1UNL    C46   56  -0.275  -0.539   0.183
    1UNL     H1   57  -0.752   0.071   0.206
    1UNL     H2   58  -0.657   0.211   0.157
    1UNL     H3   59  -0.726   0.176   0.325
    1UNL     H4   60  -0.485   0.103   0.340
    1UNL     H5   61  -0.557   0.038  -0.026
    1UNL     H6   62  -0.665  -0.065   0.067
    1UNL     H7   63  -0.697  -0.296  -0.032
    1UNL     H8   64  -0.600  -0.295   0.122
    1UNL     H9   65  -0.552  -0.391  -0.028
    1UNL    H10   66  -0.368  -0.304  -0.074
    1UNL    H11   67  -0.369  -0.156  -0.240
    1UNL    H12   68  -0.209  -0.135  -0.158
    1UNL    H13   69  -0.335   0.326  -0.018
    1UNL    H14   70  -0.484   0.440  -0.254
    1UNL    H15   71  -0.638   0.358  -0.427
    1UNL    H16   72  -0.630   0.128  -0.491
    1UNL    H17   73  -0.522  -0.044  -0.355
    1UNL    H18   74  -0.139  -0.002   0.014
    1UNL    H19   75  -0.217   0.425   0.342
    1UNL    H20   76  -0.393   0.394   0.305
    1UNL    H21   77  -0.295   0.535   0.235
    1UNL    H22   78  -0.041   0.494   0.214
    1UNL    H23   79   0.190   0.451   0.138
    1UNL    H24   80   0.071  -0.042  -0.039
    1UNL    H25   81   0.140  -0.409  -0.184
    1UNL    H26   82   0.167  -0.288  -0.307
    1UNL    H27   83   0.037  -0.279  -0.188
    1UNL    H28   84   0.346  -0.228   0.044
    1UNL    H29   85   0.368  -0.100   0.151
    1UNL    H30   86   0.585  -0.201   0.129
    1UNL    H31   87   0.509  -0.267  -0.119
    1UNL    H32   88   0.686  -0.251  -0.089
    1UNL    H33   89   0.671  -0.044  -0.225
    1UNL    H34   90   0.598  -0.242  -0.368
    1UNL    H35   91   0.435  -0.207  -0.301
    1UNL    H36   92   0.412  -0.001  -0.428
    1UNL    H37   93   0.576  -0.013  -0.486
    1UNL    H38   94   0.464  -0.130  -0.541
    1UNL    H39   95   0.447   0.097  -0.230
    1UNL    H40   96   0.536   0.278  -0.125
    1UNL    H41   97   0.651   0.275   0.012
    1UNL    H42   98   0.393   0.381   0.042
    1UNL    H43   99   0.439   0.259   0.161
    1UNL    H44  100   0.716  -0.024   0.023
    1UNL    H45  101   0.495   0.053   0.228
    1UNL    H46  102   0.640   0.138   0.212
    1UNL    H47  103   0.870  -0.040   0.303
    1UNL    H48  104   0.785   0.075   0.411
    1UNL    H49  105   0.809  -0.105   0.448
    1UNL    H50  106  -0.155   0.023   0.260
    1UNL    H51  107  -0.286   0.125   0.246
    1UNL    H52  108  -0.355  -0.109   0.286
    1UNL    H53  109  -0.195  -0.188   0.085
    1UNL    H54  110  -0.319  -0.621   0.125
    1UNL    H55  111  -0.181  -0.570   0.237
    1UNL    H56  112  -0.340  -0.510   0.263
   0.00000   0.00000   0.00000   0.00000   0.00000   0.00000   0.00000   0.00000   0.00000
Generated with MDTraj, t= 98.0
 112
    1UNL     C1    1  -0.700   0.091   0.242
    1UNL     C2    2  -0.561   0.028   0.262
    1UNL     C3    3  -0.496  -0.042   0.169
    1UNL     C4    4  -0.554  -0.063   0.032
    1UNL     N1    5  -0.511  -0.187  -0.030
    1UNL     C5    6  -0.585  -0.307   0.002
    1UNL     C6    7  -0.364  -0.203  -0.039
    1UNL     C7    8  -0.298  -0.117  -0.151
    1UNL     C8    9  -0.324   0.030  -0.142
    1UNL     C9   10  -0.278   0.118  -0.048
    1UNL     N2   11  -0.328   0.244  -0.070
    1UNL    C10   12  -0.408   0.244  -0.180
    1UNL    C11   13  -0.484   0.345  -0.237
    1UNL    C12   14  -0.571   0.303  -0.336
    1UNL    C13   15  -0.572   0.172  -0.380
    1UNL    C14   16  -0.499   0.070  -0.326
    1UNL    C15   17  -0.400   0.109  -0.232
    1UNL    C16   18  -0.179   0.083   0.060
    1UNL    C17   19  -0.080   0.196   0.078
    1UNL    C18   20  -0.110   0.317   0.133
    1UNL     O1   21  -0.240   0.350   0.182
    1UNL    C19   22  -0.272   0.493   0.182
    1UNL    C20   23  -0.007   0.405   0.152
    1UNL    C21   24   0.127   0.387   0.120
    1UNL    C22   25   0.160   0.261   0.066
    1UNL    C23   26   0.283   0.196   0.026
    1UNL    C24   27   0.244   0.073  -0.027
    1UNL     N3   28   0.111   0.054  -0.011
    1UNL    C25   29   0.053   0.169   0.041
    1UNL    C26   30   0.332  -0.042  -0.075
    1UNL    C27   31   0.239  -0.127  -0.164
    1UNL     O2   32   0.214  -0.072  -0.269
    1UNL     O3   33   0.191  -0.247  -0.120
    1UNL    C28   34   0.107  -0.297  -0.223
    1UNL    C29   35   0.377  -0.122   0.048
    1UNL    C30   36   0.524  -0.139   0.058
    1UNL    C31   37   0.557  -0.218  -0.068
    1UNL    C32   38   0.546  -0.113  -0.184
    1UNL    C33   39   0.496  -0.174  -0.311
    1UNL    C34   40   0.513  -0.085  -0.431
    1UNL    C35   41   0.462   0.010  -0.144
    1UNL     N4   42   0.547   0.093  -0.051
    1UNL    C36   43   0.527   0.238  -0.031
    1UNL    C37   44   0.411   0.272   0.064
    1UNL    C38   45   0.604  -0.003   0.055
    1UNL    C39   46   0.620   0.069   0.190
    1UNL    C40   47   0.669  -0.026   0.301
    1UNL    C41   48   0.809  -0.025   0.353
    1UNL     O4   49   0.587  -0.092   0.358
    1UNL    C42   50  -0.256   0.050   0.187
    1UNL    C43   51  -0.351  -0.081   0.198
    1UNL    C44   52  -0.296  -0.201   0.099
    1UNL    C45   53  -0.312  -0.335   0.167
    1UNL     O5   54  -0.398  -0.362   0.249
    1UNL     O6   55  -0.230  -0.427   0.114
    1UNL    C46   56  -0.289  -0.553   0.133
    1UNL     H1   57  -0.778   0.020   0.235
    1UNL     H2   58  -0.691   0.140   0.148
    1UNL     H3   59  -0.738   0.153   0.325
    1UNL     H4   60  -0.514   0.052   0.355
    1UNL     H5   61  -0.525   0.024  -0.031
    1UNL     H6   62  -0.657  -0.063   0.038
    1UNL     H7   63  -0.685  -0.284   0.030
    1UNL     H8   64  -0.537  -0.352   0.092
    1UNL     H9   65  -0.594  -0.372  -0.083
    1UNL    H10   66  -0.349  -0.303  -0.080
    1UNL    H11   67  -0.338  -0.155  -0.240
    1UNL    H12   68  -0.190  -0.152  -0.143
    1UNL    H13   69  -0.296   0.313  -0.003
    1UNL    H14   70  -0.490   0.443  -0.193
    1UNL    H15   71  -0.618   0.389  -0.387
    1UNL    H16   72  -0.638   0.143  -0.466
    1UNL    H17   73  -0.501  -0.036  -0.347
    1UNL    H18   74  -0.128  -0.009   0.028
    1UNL    H19   75  -0.236   0.533   0.275
    1UNL    H20   76  -0.382   0.497   0.181
    1UNL    H21   77  -0.235   0.544   0.095
    1UNL    H22   78  -0.038   0.493   0.204
    1UNL    H23   79   0.197   0.470   0.136
    1UNL    H24   80   0.061  -0.014  -0.073
    1UNL    H25   81   0.151  -0.395  -0.254
    1UNL    H26   82   0.103  -0.239  -0.318
    1UNL    H27   83   0.009  -0.322  -0.182
    1UNL    H28   84   0.331  -0.222   0.052
    1UNL    H29   85   0.336  -0.070   0.134
    1UNL    H30   86   0.550  -0.197   0.152
    1UNL    H31   87   0.487  -0.298  -0.081
    1UNL    H32   88   0.662  -0.260  -0.065
    1UNL    H33   89   0.645  -0.072  -0.195
    1UNL    H34   90   0.545  -0.277  -0.328
    1UNL    H35   91   0.388  -0.198  -0.306
    1UNL    H36   92   0.458   0.007  -0.429
    1UNL    H37   93   0.621  -0.055  -0.439
    1UNL    H38   94   0.496  -0.130  -0.526
    1UNL    H39   95   0.433   0.066  -0.238
    1UNL    H40   96   0.519   0.274  -0.134
    1UNL    H41   97   0.623   0.298  -0.002
    1UNL    H42   98   0.395   0.377   0.045
    1UNL    H43   99   0.429   0.260   0.171
    1UNL    H44  100   0.705  -0.035   0.015
    1UNL    H45  101   0.522   0.103   0.215
    1UNL    H46  102   0.687   0.149   0.176
    1UNL    H47  103   0.875  -0.103   0.314
    1UNL    H48  104   0.859   0.072   0.340
    1UNL    H49  105   0.817  -0.054   0.460
    1UNL    H50  106  -0.172   0.026   0.256
    1UNL    H51  107  -0.301   0.137   0.236
    1UNL    H52  108  -0.346  -0.121   0.298
    1UNL    H53  109  -0.185  -0.192   0.078
    1UNL    H54  110  -0.389  -0.546   0.092
    1UNL    H55  111  -0.233  -0.644   0.091
    1UNL    H56  112  -0.287  -0.564   0.241
   0.00000   0.00000   0.00000   0.00000   0.00000   0.00000   0.00000   0.00000   0.00000
Generated with MDTraj, t= 99.0
 112
    1UNL     C1    1  -0.711   0.017   0.270
    1UNL     C2    2  -0.567  -0.017   0.258
    1UNL     C3    3  -0.496  -0.048   0.155
    1UNL     C4    4  -0.548  -0.051   0.017
    1UNL     N1    5  -0.505  -0.179  -0.054
    1UNL     C5    6  -0.583  -0.298   0.001
    1UNL     C6    7  -0.354  -0.196  -0.065
    1UNL     C7    8  -0.278  -0.101  -0.161
    1UNL     C8    9  -0.303   0.043  -0.149
    1UNL     C9   10  -0.265   0.129  -0.043
    1UNL     N2   11  -0.334   0.242  -0.042
    1UNL    C10   12  -0.417   0.237  -0.154
    1UNL    C11   13  -0.498   0.327  -0.214
    1UNL    C12   14  -0.558   0.304  -0.335
    1UNL    C13   15  -0.548   0.175  -0.391
    1UNL    C14   16  -0.463   0.086  -0.337
    1UNL    C15   17  -0.396   0.116  -0.223
    1UNL    C16   18  -0.178   0.091   0.070
    1UNL    C17   19  -0.085   0.203   0.103
    1UNL    C18   20  -0.106   0.334   0.153
    1UNL     O1   21  -0.236   0.373   0.178
    1UNL    C19   22  -0.267   0.508   0.141
    1UNL    C20   23   0.001   0.423   0.183
    1UNL    C21   24   0.126   0.397   0.128
    1UNL    C22   25   0.156   0.281   0.061
    1UNL    C23   26   0.278   0.225   0.009
    1UNL    C24   27   0.248   0.093  -0.024
    1UNL     N3   28   0.118   0.068  -0.002
    1UNL    C25   29   0.052   0.176   0.057
    1UNL    C26   30   0.322  -0.031  -0.065
    1UNL    C27   31   0.235  -0.119  -0.156
    1UNL     O2   32   0.207  -0.083  -0.269
    1UNL     O3   33   0.186  -0.234  -0.097
    1UNL    C28   34   0.103  -0.288  -0.190
    1UNL    C29   35   0.355  -0.116   0.058
    1UNL    C30   36   0.511  -0.146   0.062
    1UNL    C31   37   0.553  -0.222  -0.071
    1UNL    C32   38   0.538  -0.124  -0.193
    1UNL    C33   39   0.485  -0.212  -0.304
    1UNL    C34   40   0.497  -0.138  -0.434
    1UNL    C35   41   0.460   0.005  -0.147
    1UNL     N4   42   0.555   0.088  -0.055
    1UNL    C36   43   0.522   0.231  -0.056
    1UNL    C37   44   0.413   0.289   0.028
    1UNL    C38   45   0.587  -0.004   0.064
    1UNL    C39   46   0.579   0.049   0.213
    1UNL    C40   47   0.664  -0.032   0.303
    1UNL    C41   48   0.811  -0.007   0.297
    1UNL     O4   49   0.616  -0.108   0.384
    1UNL    C42   50  -0.258   0.037   0.187
    1UNL    C43   51  -0.352  -0.085   0.178
    1UNL    C44   52  -0.303  -0.200   0.080
    1UNL    C45   53  -0.323  -0.335   0.139
    1UNL     O5   54  -0.391  -0.353   0.237
    1UNL     O6   55  -0.252  -0.436   0.083
    1UNL    C46   56  -0.253  -0.545   0.167
    1UNL     H1   57  -0.779  -0.065   0.248
    1UNL     H2   58  -0.732   0.088   0.197
    1UNL     H3   59  -0.742   0.043   0.373
    1UNL     H4   60  -0.514  -0.021   0.353
    1UNL     H5   61  -0.516   0.028  -0.035
    1UNL     H6   62  -0.652  -0.046   0.032
    1UNL     H7   63  -0.681  -0.322  -0.035
    1UNL     H8   64  -0.590  -0.283   0.109
    1UNL     H9   65  -0.530  -0.391  -0.012
    1UNL    H10   66  -0.340  -0.293  -0.108
    1UNL    H11   67  -0.302  -0.139  -0.256
    1UNL    H12   68  -0.166  -0.117  -0.142
    1UNL    H13   69  -0.308   0.315   0.025
    1UNL    H14   70  -0.519   0.418  -0.160
    1UNL    H15   71  -0.642   0.358  -0.368
    1UNL    H16   72  -0.601   0.150  -0.479
    1UNL    H17   73  -0.469  -0.016  -0.366
    1UNL    H18   74  -0.118   0.005   0.035
    1UNL    H19   75  -0.239   0.574   0.221
    1UNL    H20   76  -0.375   0.520   0.117
    1UNL    H21   77  -0.218   0.524   0.047
    1UNL    H22   78  -0.016   0.522   0.227
    1UNL    H23   79   0.205   0.465   0.154
    1UNL    H24   80   0.081  -0.030  -0.008
    1UNL    H25   81   0.168  -0.314  -0.283
    1UNL    H26   82   0.022  -0.224  -0.236
    1UNL    H27   83   0.063  -0.387  -0.148
    1UNL    H28   84   0.292  -0.206   0.054
    1UNL    H29   85   0.324  -0.062   0.145
    1UNL    H30   86   0.547  -0.199   0.156
    1UNL    H31   87   0.474  -0.294  -0.087
    1UNL    H32   88   0.651  -0.276  -0.077
    1UNL    H33   89   0.635  -0.088  -0.219
    1UNL    H34   90   0.545  -0.311  -0.317
    1UNL    H35   91   0.377  -0.243  -0.293
    1UNL    H36   92   0.436  -0.050  -0.442
    1UNL    H37   93   0.607  -0.103  -0.438
    1UNL    H38   94   0.486  -0.195  -0.518
    1UNL    H39   95   0.435   0.055  -0.246
    1UNL    H40   96   0.511   0.277  -0.155
    1UNL    H41   97   0.625   0.277  -0.031
    1UNL    H42   98   0.407   0.396   0.023
    1UNL    H43   99   0.439   0.260   0.131
    1UNL    H44  100   0.695  -0.028   0.052
    1UNL    H45  101   0.476   0.045   0.249
    1UNL    H46  102   0.624   0.144   0.202
    1UNL    H47  103   0.858  -0.107   0.299
    1UNL    H48  104   0.839   0.054   0.209
    1UNL    H49  105   0.853   0.035   0.390
    1UNL    H50  106  -0.191   0.015   0.275
    1UNL    H51  107  -0.314   0.125   0.220
    1UNL    H52  108  -0.344  -0.136   0.272
    1UNL    H53  109  -0.189  -0.187   0.069
    1UNL    H54  110  -0.354  -0.560   0.202
    1UNL    H55  111  -0.219  -0.644   0.120
    1UNL    H56  112  -0.179  -0.522   0.242
   0.00000   0.00000   0.00000   0.00000   0.00000   0.00000   0.00000   0.00000   0.00000
