1TPCN04319
23
    1res  C1    1   -0.335   0.444  -0.041
    1res  C2    2   -0.501   0.245   0.099
    1res  C3    3   -0.274   0.169  -0.033
    1res  C4    4   -0.562  -0.032  -0.043
    1res  C5    5   -0.769  -0.279  -0.058
    1res  C6    6   -0.820  -0.557  -0.009
    1res  C7    7   -1.039  -0.345   0.038
    1res  C8    8   -1.021  -0.114   0.010
    1res  C9    9   -0.809  -0.040   0.095
    1res  C10   10   -0.294  -0.051   0.214
    1res  C11   11   -0.157  -0.181  -0.016
    1res  C12   12   -0.021  -0.009  -0.234
    1res  C13   13    0.102  -0.107   0.034
    1res  C14   14    0.269   0.180  -0.105
    1res  C15   15    0.409  -0.093  -0.085
    1res  C16   16    0.583   0.075  -0.026
    1res  C17   17    0.795  -0.028  -0.074
    1res  C18   18    0.833  -0.360  -0.173
    1res  C19   19    1.072  -0.147  -0.112
    1res  C20   20    1.094   0.082  -0.052
    1res  C21   21    0.928   0.156   0.075
    1res  C22   22    0.499   0.222   0.152
    1res  C23   23    0.150   0.054   0.219
  10.00000  10.00000  10.00000
