[ moleculetype ]
; name        nrexcl
res           1

[ atoms ]
;    nr  type  resnr resid  atom  cgnr     charge       mass
      1 SC4       1 res   C1        1      0.000     54.000
      2 TC5       1 res   C2        2      0.000     36.000
      3 TC5       1 res   C3        3      0.000     36.000
      4 SN3a      1 res   C4        4      0.000     54.000

[ bonds ]
;  ai    aj   funct      b0(nm)          k(kJ/mol/nm^2)
    1     2     1      0.37393         203795.9
    1     3     1      0.33472         105015.2
    2     3     1      0.25496         197865.0
    3     4     1      0.23800          23581.9

[ angles ]
;  ai    aj    ak  funct     th0(deg)        k(kJ/mol/rad^2)
    1     2     3     1     60.88261          5991.42
    1     3     2     1     77.40483          7245.83
    1     3     4     1     69.96615           302.44
    2     1     3     1     41.71254         15586.37
    2     3     4     1    146.92083           295.37

[ dihedrals ]
;  ai    aj    ak    al  funct   phi0(deg)        k(kJ/mol)   mult
    1     2     3     4     1    178.69232       15.726      1
    1     2     3     4     1    177.45899       14.595      2
    1     2     3     4     1    176.39960       12.821      3
    2     1     3     4     1      1.08730       10.044      1
    2     1     3     4     1   -177.84080        9.778      2
    2     1     3     4     1      3.19914        9.344      3
