1TPCN03273
9
    1res  C1    1    0.371  -0.016   0.065
    1res  C2    2    0.314  -0.179   0.263
    1res  C3    3    0.225  -0.266   0.037
    1res  C4    4   -0.087  -0.333  -0.001
    1res  C5    5   -0.217  -0.118   0.029
    1res  C6    6   -0.200   0.046   0.153
    1res  C7    7   -0.187   0.269  -0.006
    1res  C8    8    0.104   0.166  -0.149
    1res  C9    9   -0.449  -0.019   0.038
  10.00000  10.00000  10.00000
