1TPCN05483
18
    1res  C1    1   -0.798   0.314   0.194
    1res  C2    2   -0.647   0.119  -0.050
    1res  C3    3   -0.581  -0.136  -0.261
    1res  C4    4   -0.491  -0.270  -0.052
    1res  C5    5   -0.326  -0.230   0.101
    1res  C6    6   -0.191  -0.025  -0.153
    1res  C7    7   -0.054  -0.286   0.068
    1res  C8    8    0.185  -0.219  -0.030
    1res  C9    9    0.136   0.057  -0.174
    1res  C10   10    0.382  -0.003  -0.202
    1res  C11   11    0.442  -0.015   0.003
    1res  C12   12    0.693   0.048  -0.107
    1res  C13   13    0.607   0.271  -0.263
    1res  C14   14    0.852   0.285  -0.092
    1res  C15   15    0.797   0.289   0.111
    1res  C16   16    0.778   0.037   0.124
    1res  C17   17    0.315   0.074   0.191
    1res  C18   18   -0.011  -0.062   0.240
  10.00000  10.00000  10.00000
