[ moleculetype ]
; name        nrexcl
res           1

[ atoms ]
;    nr  type resnr resid  atom  cgnr     charge       mass
      1 SX3       1 res   C1        1      0.000     54.000
      2 SN1a      1 res   C2        2      0.000     54.000
      3 SX3       1 res   C3        3      0.000     54.000
      4 TX4       1 res   C4        4      0.000     36.000

[ bonds ]
;  ai    aj   funct      b0(nm)        k
    1     2     1      0.27060    20000
    1     4     1      0.32841    20000
    2     3     1      0.27378    20000
    3     4     1      0.32844    20000
