[ moleculetype ]
; name        nrexcl
res           1

[ atoms ]
;    nr  type  resnr resid  atom  cgnr     charge       mass
      1 TX3       1 res   C1        1      0.000     36.000
      2 TX3       1 res   C2        2      0.000     36.000
      3 TX3       1 res   C3        3      0.000     36.000
      4 TX3       1 res   C4        4      0.000     36.000
      5 TC5       1 res   C5        5      0.000     36.000

[ bonds ]
;  ai    aj   funct      b0(nm)          k(kJ/mol/nm^2)
    1     2     1      0.21477          77035.8
    1     5     1      0.26883         122443.6
    2     3     1      0.22274         107581.9
    3     4     1      0.22153         110047.6
    4     5     1      0.26752         158396.8

[ angles ]
;  ai    aj    ak  funct     th0(deg)        k(kJ/mol/rad^2)
    1     2     3     1    100.93445           690.51
    1     5     4     1    100.84138          2283.90
    2     1     5     1     97.00556          1770.67
    2     3     4     1    105.41230           768.97
    3     4     5     1     88.98264          1038.20

[ dihedrals ]
;  ai    aj    ak    al  funct   phi0(deg)        k(kJ/mol)   mult
    1     2     3     4     1   -105.96824       10.759      1
    1     2     3     4     1    -31.93470       10.450      2
    1     2     3     4     1     42.10263        9.945      3
    1     5     4     3     1   -155.88306       13.682      1
    1     5     4     3     1   -131.75881       13.025      2
    1     5     4     3     1   -107.61841       11.973      3
    2     1     5     4     1   -171.19238       15.717      1
    2     1     5     4     1   -162.32368       14.627      2
    2     1     5     4     1   -153.31557       12.916      3
    2     3     4     5     1    124.89307       11.501      1
    2     3     4     5     1     69.78229       11.119      2
    2     3     4     5     1     14.66325       10.500      3
    3     2     1     5     1    139.43933       12.885      1
    3     2     1     5     1     98.80396       12.241      2
    3     2     1     5     1     58.00445       11.214      3
