[ moleculetype ]
; name        nrexcl
res           1

[ atoms ]
;    nr  type  resnr resid  atom  cgnr     charge       mass
      1 SX3       1 res   C1        1      0.000     54.000
      2 TC5       1 res   C2        2      0.000     36.000
      3 TC5e      1 res   C3        3      0.000     36.000
      4 TC5       1 res   C4        4      0.000     36.000
      5 TC5       1 res   C5        5      0.000     36.000

[ bonds ]
;  ai    aj   funct      b0(nm)          k(kJ/mol/nm^2)
    1     2     1      0.30588         238154.7
    1     3     1      0.26241         227276.0
    2     3     1      0.25175         231446.1
    3     4     1      0.25151         212608.8
    3     5     1      0.25129         420008.0
    4     5     1      0.28918         208170.6

[ angles ]
;  ai    aj    ak  funct     th0(deg)        k(kJ/mol/rad^2)
    1     2     3     1     55.11635          9050.71
    1     3     2     1     72.98200          7321.91
    1     3     4     1    175.81870          2356.06
    1     3     5     1    106.73554          2037.95
    2     1     3     1     51.90164         12340.05
    2     3     4     1    109.99147          1969.54
    2     3     5     1    176.43312          2394.02
    3     4     5     1     54.84931         13756.64
    3     5     4     1     54.92635          8103.06
    4     3     5     1     70.22433          5570.74

[ dihedrals ]
;  ai    aj    ak    al  funct   phi0(deg)        k(kJ/mol)   mult
    1     2     3     4     1      0.91830        7.026      1
    1     2     3     4     1   -178.16428        6.943      2
    1     2     3     4     1      2.75135        6.806      3
    1     2     3     5     1   -117.52921        1.662      1
    1     2     3     5     1     36.45194       14.740      2
    1     2     3     5     1      4.13147        1.954      3
    1     3     4     5     1    179.31430       27.138      1
    1     3     4     5     1   -174.50846        7.702      2
    1     3     4     5     1    -87.26072        3.585      3
    1     3     5     4     1      0.92367        7.010      1
    1     3     5     4     1   -178.15362        6.928      2
    1     3     5     4     1      2.76712        6.792      3
    2     1     3     4     1      2.64397       27.971      1
    2     1     3     4     1    173.46844        6.487      2
    2     1     3     4     1   -116.11885        3.492      3
    2     1     3     5     1     -0.94044        7.082      1
    2     1     3     5     1    178.11980        6.998      2
    2     1     3     5     1     -2.81855        6.859      3
    2     3     4     5     1     -0.94618        7.088      1
    2     3     4     5     1    178.10826        7.004      2
    2     3     4     5     1     -2.83603        6.865      3
    2     3     5     4     1    -44.78401        4.435      1
    2     3     5     4     1    -39.90788       12.055      2
    2     3     5     4     1   -133.05363        3.616      3
