1TPCN05862
22
    1res  C1    1   -0.553   0.345  -0.173
    1res  C2    2   -0.323   0.222  -0.038
    1res  C3    3   -0.144   0.072   0.110
    1res  C4    4    0.107  -0.199   0.006
    1res  C5    5    0.192   0.129   0.164
    1res  C6    6    0.399  -0.064   0.170
    1res  C7    7    0.522   0.047  -0.020
    1res  C8    8    0.773  -0.032  -0.130
    1res  C9    9    0.959   0.089  -0.334
    1res  C10   10    1.025  -0.014  -0.059
    1res  C11   11    0.870   0.059   0.110
    1res  C12   12    0.405   0.260  -0.058
    1res  C13   13    0.115   0.003  -0.182
    1res  C14   14   -0.138  -0.291   0.064
    1res  C15   15   -0.305  -0.212  -0.108
    1res  C16   16   -0.541   0.005   0.047
    1res  C17   17   -0.541  -0.117   0.312
    1res  C18   18   -0.683  -0.211   0.146
    1res  C19   19   -0.690  -0.450   0.217
    1res  C20   20   -0.119   0.339  -0.034
    1res  C21   21   -0.159   0.335  -0.293
    1res  C22   22   -0.341   0.513  -0.241
  10.00000  10.00000  10.00000
