1TPCN04159
12
    1res  C1    1    0.323  -0.190  -0.123
    1res  C2    2    0.536   0.068  -0.143
    1res  C3    3    0.640   0.176   0.123
    1res  C4    4    0.220  -0.103   0.127
    1res  C5    5    0.002  -0.064   0.093
    1res  C6    6   -0.238  -0.113   0.057
    1res  C7    7   -0.316   0.145   0.179
    1res  C8    8   -0.468  -0.073   0.067
    1res  C9    9   -0.611   0.232   0.009
    1res  C10   10   -0.703   0.084  -0.150
    1res  C11   11   -0.543  -0.124  -0.189
    1res  C12   12   -0.120  -0.179  -0.154
  10.00000  10.00000  10.00000
