1TPCN00076
13
    1res  C1    1    0.230  -0.180   0.266
    1res  C2    2    0.058   0.016   0.106
    1res  C3    3    0.174   0.043  -0.066
    1res  C4    4    0.419  -0.020  -0.216
    1res  C5    5    0.584   0.089  -0.021
    1res  C6    6    0.716   0.041   0.150
    1res  C7    7    0.698   0.032  -0.237
    1res  C8    8   -0.053  -0.100  -0.088
    1res  C9    9   -0.181  -0.242   0.064
    1res  C10   10   -0.465  -0.195   0.034
    1res  C11   11   -0.654  -0.008   0.013
    1res  C12   12   -0.513   0.215  -0.073
    1res  C13   13   -0.164   0.087   0.227
  10.00000  10.00000  10.00000
