Generated with MDTraj, t= 0.0
 28
    1UNL     C1    1  -0.297  -0.081  -0.107
    1UNL     C2    2  -0.277   0.028  -0.008
    1UNL     C3    3  -0.382   0.132   0.006
    1UNL     C4    4  -0.167   0.036   0.067
    1UNL     C5    5  -0.051  -0.058   0.063
    1UNL     O1    6   0.029  -0.044   0.181
    1UNL     C6    7   0.158  -0.010   0.148
    1UNL     O2    8   0.250   0.012   0.224
    1UNL     C7    9   0.174  -0.001   0.001
    1UNL     C8   10   0.287   0.024  -0.065
    1UNL     C9   11   0.416   0.054   0.002
    1UNL     O3   12   0.529   0.009  -0.068
    1UNL    C10   13   0.042  -0.035  -0.060
    1UNL     O4   14   0.051  -0.149  -0.145
    1UNL     H1   15  -0.402  -0.088  -0.137
    1UNL     H2   16  -0.269  -0.178  -0.065
    1UNL     H3   17  -0.238  -0.064  -0.197
    1UNL     H4   18  -0.463   0.117  -0.064
    1UNL     H5   19  -0.340   0.231  -0.012
    1UNL     H6   20  -0.424   0.132   0.107
    1UNL     H7   21  -0.158   0.118   0.135
    1UNL     H8   22  -0.086  -0.162   0.063
    1UNL     H9   23   0.285   0.023  -0.172
    1UNL    H10   24   0.427   0.163   0.016
    1UNL    H11   25   0.417   0.010   0.103
    1UNL    H12   26   0.522  -0.088  -0.085
    1UNL    H13   27   0.006   0.050  -0.120
    1UNL    H14   28  -0.038  -0.179  -0.173
   0.00000   0.00000   0.00000   0.00000   0.00000   0.00000   0.00000   0.00000   0.00000
Generated with MDTraj, t= 1.0
 28
    1UNL     C1    1  -0.276  -0.069  -0.120
    1UNL     C2    2  -0.283   0.029  -0.009
    1UNL     C3    3  -0.420   0.089   0.010
    1UNL     C4    4  -0.172   0.055   0.068
    1UNL     C5    5  -0.049  -0.033   0.072
    1UNL     O1    6   0.031   0.000   0.190
    1UNL     C6    7   0.162  -0.007   0.150
    1UNL     O2    8   0.263  -0.017   0.218
    1UNL     C7    9   0.176  -0.002  -0.003
    1UNL     C8   10   0.293   0.002  -0.069
    1UNL     C9   11   0.412   0.041   0.002
    1UNL     O3   12   0.534   0.005  -0.067
    1UNL    C10   13   0.038  -0.023  -0.065
    1UNL     O4   14   0.044  -0.148  -0.134
    1UNL     H1   15  -0.371  -0.101  -0.147
    1UNL     H2   16  -0.219  -0.156  -0.094
    1UNL     H3   17  -0.246  -0.046  -0.230
    1UNL     H4   18  -0.442   0.152  -0.075
    1UNL     H5   19  -0.401   0.152   0.099
    1UNL     H6   20  -0.501   0.016   0.005
    1UNL     H7   21  -0.182   0.116   0.158
    1UNL     H8   22  -0.078  -0.141   0.088
    1UNL     H9   23   0.296  -0.010  -0.175
    1UNL    H10   24   0.421   0.144   0.022
    1UNL    H11   25   0.425  -0.009   0.098
    1UNL    H12   26   0.546  -0.096  -0.085
    1UNL    H13   27   0.018   0.059  -0.132
    1UNL    H14   28   0.036  -0.151  -0.228
   0.00000   0.00000   0.00000   0.00000   0.00000   0.00000   0.00000   0.00000   0.00000
Generated with MDTraj, t= 2.0
 28
    1UNL     C1    1  -0.271  -0.085  -0.127
    1UNL     C2    2  -0.277   0.009  -0.016
    1UNL     C3    3  -0.403   0.101  -0.015
    1UNL     C4    4  -0.179   0.024   0.077
    1UNL     C5    5  -0.047  -0.047   0.083
    1UNL     O1    6   0.038  -0.020   0.199
    1UNL     C6    7   0.167   0.002   0.158
    1UNL     O2    8   0.263   0.032   0.227
    1UNL     C7    9   0.174   0.001   0.011
    1UNL     C8   10   0.287   0.004  -0.061
    1UNL     C9   11   0.420   0.021  -0.001
    1UNL     O3   12   0.524  -0.012  -0.092
    1UNL    C10   13   0.034  -0.017  -0.044
    1UNL     O4   14   0.028  -0.100  -0.150
    1UNL     H1   15  -0.358  -0.100  -0.178
    1UNL     H2   16  -0.220  -0.172  -0.086
    1UNL     H3   17  -0.201  -0.053  -0.216
    1UNL     H4   18  -0.389   0.206  -0.027
    1UNL     H5   19  -0.441   0.091   0.088
    1UNL     H6   20  -0.470   0.083  -0.099
    1UNL     H7   21  -0.208   0.098   0.147
    1UNL     H8   22  -0.073  -0.159   0.089
    1UNL     H9   23   0.274  -0.010  -0.170
    1UNL    H10   24   0.436   0.119   0.027
    1UNL    H11   25   0.435  -0.038   0.087
    1UNL    H12   26   0.503  -0.107  -0.128
    1UNL    H13   27  -0.001   0.079  -0.072
    1UNL    H14   28   0.020  -0.197  -0.132
   0.00000   0.00000   0.00000   0.00000   0.00000   0.00000   0.00000   0.00000   0.00000
Generated with MDTraj, t= 3.0
 28
    1UNL     C1    1  -0.279  -0.096  -0.115
    1UNL     C2    2  -0.278   0.018  -0.009
    1UNL     C3    3  -0.390   0.101  -0.003
    1UNL     C4    4  -0.172   0.022   0.074
    1UNL     C5    5  -0.046  -0.051   0.071
    1UNL     O1    6   0.034  -0.040   0.188
    1UNL     C6    7   0.161   0.007   0.158
    1UNL     O2    8   0.242   0.055   0.234
    1UNL     C7    9   0.173   0.013   0.017
    1UNL     C8   10   0.286   0.036  -0.054
    1UNL     C9   11   0.428   0.017  -0.005
    1UNL     O3   12   0.521  -0.040  -0.095
    1UNL    C10   13   0.039  -0.017  -0.049
    1UNL     O4   14   0.038  -0.111  -0.154
    1UNL     H1   15  -0.356  -0.081  -0.189
    1UNL     H2   16  -0.277  -0.186  -0.057
    1UNL     H3   17  -0.181  -0.101  -0.172
    1UNL     H4   18  -0.395   0.174   0.075
    1UNL     H5   19  -0.474   0.036   0.019
    1UNL     H6   20  -0.402   0.159  -0.092
    1UNL     H7   21  -0.183   0.100   0.148
    1UNL     H8   22  -0.066  -0.165   0.060
    1UNL     H9   23   0.273   0.038  -0.158
    1UNL    H10   24   0.465   0.111   0.015
    1UNL    H11   25   0.427  -0.039   0.083
    1UNL    H12   26   0.478  -0.116  -0.142
    1UNL    H13   27   0.014   0.082  -0.081
    1UNL    H14   28   0.081  -0.063  -0.233
   0.00000   0.00000   0.00000   0.00000   0.00000   0.00000   0.00000   0.00000   0.00000
Generated with MDTraj, t= 4.0
 28
    1UNL     C1    1  -0.287  -0.096  -0.103
    1UNL     C2    2  -0.283   0.013   0.001
    1UNL     C3    3  -0.405   0.089   0.028
    1UNL     C4    4  -0.170   0.041   0.069
    1UNL     C5    5  -0.051  -0.044   0.065
    1UNL     O1    6   0.029  -0.014   0.180
    1UNL     C6    7   0.160  -0.000   0.137
    1UNL     O2    8   0.254   0.009   0.212
    1UNL     C7    9   0.177   0.015  -0.009
    1UNL     C8   10   0.295   0.031  -0.076
    1UNL     C9   11   0.427   0.053  -0.006
    1UNL     O3   12   0.526  -0.045  -0.038
    1UNL    C10   13   0.040  -0.005  -0.068
    1UNL     O4   14   0.044  -0.114  -0.163
    1UNL     H1   15  -0.362  -0.072  -0.185
    1UNL     H2   16  -0.308  -0.193  -0.056
    1UNL     H3   17  -0.197  -0.116  -0.152
    1UNL     H4   18  -0.440   0.076   0.129
    1UNL     H5   19  -0.483   0.063  -0.044
    1UNL     H6   20  -0.400   0.195   0.013
    1UNL     H7   21  -0.178   0.117   0.145
    1UNL     H8   22  -0.080  -0.158   0.058
    1UNL     H9   23   0.305   0.009  -0.186
    1UNL    H10   24   0.462   0.146  -0.031
    1UNL    H11   25   0.412   0.046   0.097
    1UNL    H12   26   0.512  -0.132  -0.003
    1UNL    H13   27   0.003   0.089  -0.107
    1UNL    H14   28   0.069  -0.205  -0.128
   0.00000   0.00000   0.00000   0.00000   0.00000   0.00000   0.00000   0.00000   0.00000
Generated with MDTraj, t= 5.0
 28
    1UNL     C1    1  -0.283  -0.102  -0.087
    1UNL     C2    2  -0.280   0.008   0.003
    1UNL     C3    3  -0.401   0.103   0.030
    1UNL     C4    4  -0.165   0.042   0.065
    1UNL     C5    5  -0.046  -0.039   0.053
    1UNL     O1    6   0.036  -0.013   0.173
    1UNL     C6    7   0.168  -0.007   0.135
    1UNL     O2    8   0.270  -0.010   0.200
    1UNL     C7    9   0.177   0.013  -0.013
    1UNL     C8   10   0.291   0.036  -0.085
    1UNL     C9   11   0.421   0.071  -0.023
    1UNL     O3   12   0.501  -0.044   0.011
    1UNL    C10   13   0.036  -0.009  -0.075
    1UNL     O4   14   0.033  -0.125  -0.168
    1UNL     H1   15  -0.387  -0.095  -0.137
    1UNL     H2   16  -0.274  -0.202  -0.043
    1UNL     H3   17  -0.212  -0.104  -0.159
    1UNL     H4   18  -0.466   0.034   0.080
    1UNL     H5   19  -0.429   0.168  -0.052
    1UNL     H6   20  -0.383   0.173   0.108
    1UNL     H7   21  -0.174   0.120   0.138
    1UNL     H8   22  -0.067  -0.154   0.053
    1UNL     H9   23   0.289   0.023  -0.188
    1UNL    H10   24   0.484   0.128  -0.085
    1UNL    H11   25   0.401   0.127   0.065
    1UNL    H12   26   0.467  -0.085   0.088
    1UNL    H13   27  -0.006   0.086  -0.113
    1UNL    H14   28   0.119  -0.148  -0.203
   0.00000   0.00000   0.00000   0.00000   0.00000   0.00000   0.00000   0.00000   0.00000
Generated with MDTraj, t= 6.0
 28
    1UNL     C1    1  -0.287  -0.108  -0.082
    1UNL     C2    2  -0.278   0.015   0.003
    1UNL     C3    3  -0.374   0.121   0.017
    1UNL     C4    4  -0.159   0.031   0.066
    1UNL     C5    5  -0.042  -0.056   0.056
    1UNL     O1    6   0.046  -0.057   0.170
    1UNL     C6    7   0.171  -0.010   0.136
    1UNL     O2    8   0.260   0.018   0.214
    1UNL     C7    9   0.178   0.021  -0.007
    1UNL     C8   10   0.279   0.057  -0.088
    1UNL     C9   11   0.422   0.065  -0.054
    1UNL     O3   12   0.476  -0.044   0.024
    1UNL    C10   13   0.040  -0.018  -0.064
    1UNL     O4   14   0.030  -0.118  -0.167
    1UNL     H1   15  -0.391  -0.109  -0.129
    1UNL     H2   16  -0.295  -0.194  -0.019
    1UNL     H3   17  -0.205  -0.122  -0.151
    1UNL     H4   18  -0.462   0.078  -0.025
    1UNL     H5   19  -0.336   0.213  -0.020
    1UNL     H6   20  -0.394   0.130   0.122
    1UNL     H7   21  -0.142   0.123   0.122
    1UNL     H8   22  -0.060  -0.170   0.049
    1UNL     H9   23   0.239   0.082  -0.190
    1UNL    H10   24   0.479   0.063  -0.145
    1UNL    H11   25   0.458   0.154  -0.003
    1UNL    H12   26   0.424  -0.038   0.110
    1UNL    H13   27  -0.008   0.077  -0.104
    1UNL    H14   28   0.117  -0.129  -0.207
   0.00000   0.00000   0.00000   0.00000   0.00000   0.00000   0.00000   0.00000   0.00000
Generated with MDTraj, t= 7.0
 28
    1UNL     C1    1  -0.302  -0.084  -0.106
    1UNL     C2    2  -0.273   0.015   0.001
    1UNL     C3    3  -0.379   0.112   0.036
    1UNL     C4    4  -0.162   0.024   0.083
    1UNL     C5    5  -0.040  -0.063   0.061
    1UNL     O1    6   0.052  -0.048   0.171
    1UNL     C6    7   0.173  -0.008   0.126
    1UNL     O2    8   0.269   0.020   0.194
    1UNL     C7    9   0.176   0.011  -0.022
    1UNL     C8   10   0.287   0.041  -0.094
    1UNL     C9   11   0.425   0.066  -0.046
    1UNL     O3   12   0.476  -0.023   0.046
    1UNL    C10   13   0.046  -0.024  -0.070
    1UNL     O4   14   0.023  -0.124  -0.163
    1UNL     H1   15  -0.387  -0.058  -0.171
    1UNL     H2   16  -0.345  -0.161  -0.045
    1UNL     H3   17  -0.198  -0.114  -0.152
    1UNL     H4   18  -0.438   0.122  -0.053
    1UNL     H5   19  -0.354   0.211   0.060
    1UNL     H6   20  -0.453   0.075   0.106
    1UNL     H7   21  -0.165   0.108   0.150
    1UNL     H8   22  -0.069  -0.174   0.056
    1UNL     H9   23   0.272   0.049  -0.196
    1UNL    H10   24   0.508   0.064  -0.123
    1UNL    H11   25   0.423   0.167  -0.002
    1UNL    H12   26   0.411  -0.036   0.121
    1UNL    H13   27  -0.006   0.067  -0.113
    1UNL    H14   28   0.082  -0.204  -0.149
   0.00000   0.00000   0.00000   0.00000   0.00000   0.00000   0.00000   0.00000   0.00000
Generated with MDTraj, t= 8.0
 28
    1UNL     C1    1  -0.286  -0.059  -0.117
    1UNL     C2    2  -0.276   0.034  -0.002
    1UNL     C3    3  -0.404   0.090   0.047
    1UNL     C4    4  -0.163   0.042   0.077
    1UNL     C5    5  -0.043  -0.053   0.062
    1UNL     O1    6   0.041  -0.035   0.175
    1UNL     C6    7   0.173  -0.010   0.132
    1UNL     O2    8   0.272   0.006   0.202
    1UNL     C7    9   0.178  -0.004  -0.016
    1UNL     C8   10   0.281   0.017  -0.100
    1UNL     C9   11   0.414   0.071  -0.053
    1UNL     O3   12   0.484  -0.017   0.030
    1UNL    C10   13   0.047  -0.030  -0.068
    1UNL     O4   14   0.046  -0.140  -0.150
    1UNL     H1   15  -0.379  -0.049  -0.170
    1UNL     H2   16  -0.313  -0.158  -0.077
    1UNL     H3   17  -0.196  -0.069  -0.194
    1UNL     H4   18  -0.467   0.139  -0.025
    1UNL     H5   19  -0.393   0.166   0.118
    1UNL     H6   20  -0.463   0.013   0.096
    1UNL     H7   21  -0.160   0.107   0.165
    1UNL     H8   22  -0.068  -0.163   0.064
    1UNL     H9   23   0.258   0.017  -0.208
    1UNL    H10   24   0.472   0.094  -0.149
    1UNL    H11   25   0.406   0.165   0.011
    1UNL    H12   26   0.449  -0.024   0.117
    1UNL    H13   27   0.013   0.057  -0.134
    1UNL    H14   28   0.129  -0.137  -0.210
   0.00000   0.00000   0.00000   0.00000   0.00000   0.00000   0.00000   0.00000   0.00000
Generated with MDTraj, t= 9.0
 28
    1UNL     C1    1  -0.262  -0.073  -0.114
    1UNL     C2    2  -0.273   0.018  -0.004
    1UNL     C3    3  -0.388   0.113   0.017
    1UNL     C4    4  -0.170   0.026   0.088
    1UNL     C5    5  -0.042  -0.056   0.074
    1UNL     O1    6   0.052  -0.040   0.183
    1UNL     C6    7   0.179  -0.006   0.139
    1UNL     O2    8   0.283   0.001   0.202
    1UNL     C7    9   0.170   0.001  -0.012
    1UNL     C8   10   0.267   0.033  -0.103
    1UNL     C9   11   0.404   0.076  -0.052
    1UNL     O3   12   0.472  -0.027   0.021
    1UNL    C10   13   0.032  -0.026  -0.056
    1UNL     O4   14   0.035  -0.127  -0.161
    1UNL     H1   15  -0.361  -0.090  -0.153
    1UNL     H2   16  -0.242  -0.186  -0.085
    1UNL     H3   17  -0.199  -0.044  -0.199
    1UNL     H4   18  -0.436   0.160  -0.069
    1UNL     H5   19  -0.351   0.194   0.077
    1UNL     H6   20  -0.451   0.067   0.092
    1UNL     H7   21  -0.178   0.088   0.175
    1UNL     H8   22  -0.058  -0.165   0.075
    1UNL     H9   23   0.243   0.031  -0.207
    1UNL    H10   24   0.481   0.098  -0.138
    1UNL    H11   25   0.388   0.175   0.007
    1UNL    H12   26   0.420  -0.016   0.106
    1UNL    H13   27  -0.014   0.066  -0.104
    1UNL    H14   28   0.112  -0.183  -0.135
   0.00000   0.00000   0.00000   0.00000   0.00000   0.00000   0.00000   0.00000   0.00000
Generated with MDTraj, t= 10.0
 28
    1UNL     C1    1  -0.286  -0.080  -0.114
    1UNL     C2    2  -0.276   0.008   0.001
    1UNL     C3    3  -0.376   0.118   0.000
    1UNL     C4    4  -0.166   0.020   0.081
    1UNL     C5    5  -0.042  -0.066   0.074
    1UNL     O1    6   0.055  -0.046   0.186
    1UNL     C6    7   0.174  -0.004   0.141
    1UNL     O2    8   0.278   0.016   0.199
    1UNL     C7    9   0.176   0.004  -0.009
    1UNL     C8   10   0.276   0.051  -0.087
    1UNL     C9   11   0.409   0.079  -0.032
    1UNL     O3   12   0.480  -0.037  -0.005
    1UNL    C10   13   0.037  -0.022  -0.056
    1UNL     O4   14   0.022  -0.132  -0.149
    1UNL     H1   15  -0.394  -0.098  -0.139
    1UNL     H2   16  -0.238  -0.179  -0.077
    1UNL     H3   17  -0.235  -0.027  -0.187
    1UNL     H4   18  -0.435   0.130  -0.091
    1UNL     H5   19  -0.334   0.218   0.013
    1UNL     H6   20  -0.431   0.104   0.091
    1UNL     H7   21  -0.170   0.103   0.153
    1UNL     H8   22  -0.061  -0.172   0.070
    1UNL     H9   23   0.255   0.057  -0.193
    1UNL    H10   24   0.473   0.143  -0.107
    1UNL    H11   25   0.413   0.132   0.072
    1UNL    H12   26   0.426  -0.089   0.065
    1UNL    H13   27  -0.022   0.063  -0.096
    1UNL    H14   28   0.083  -0.131  -0.222
   0.00000   0.00000   0.00000   0.00000   0.00000   0.00000   0.00000   0.00000   0.00000
Generated with MDTraj, t= 11.0
 28
    1UNL     C1    1  -0.294  -0.083  -0.108
    1UNL     C2    2  -0.280   0.019   0.014
    1UNL     C3    3  -0.396   0.102   0.034
    1UNL     C4    4  -0.159   0.051   0.071
    1UNL     C5    5  -0.042  -0.043   0.055
    1UNL     O1    6   0.048  -0.050   0.167
    1UNL     C6    7   0.176  -0.014   0.127
    1UNL     O2    8   0.268  -0.007   0.206
    1UNL     C7    9   0.180   0.016  -0.016
    1UNL     C8   10   0.281   0.057  -0.094
    1UNL     C9   11   0.419   0.077  -0.050
    1UNL     O3   12   0.468  -0.033   0.027
    1UNL    C10   13   0.049  -0.019  -0.068
    1UNL     O4   14   0.050  -0.142  -0.148
    1UNL     H1   15  -0.401  -0.107  -0.144
    1UNL     H2   16  -0.248  -0.176  -0.083
    1UNL     H3   17  -0.249  -0.032  -0.189
    1UNL     H4   18  -0.477   0.061  -0.026
    1UNL     H5   19  -0.393   0.208   0.002
    1UNL     H6   20  -0.422   0.093   0.136
    1UNL     H7   21  -0.147   0.129   0.141
    1UNL     H8   22  -0.066  -0.146   0.051
    1UNL     H9   23   0.256   0.078  -0.198
    1UNL    H10   24   0.500   0.075  -0.133
    1UNL    H11   25   0.429   0.170   0.016
    1UNL    H12   26   0.404  -0.060   0.090
    1UNL    H13   27   0.013   0.064  -0.129
    1UNL    H14   28   0.051  -0.215  -0.086
   0.00000   0.00000   0.00000   0.00000   0.00000   0.00000   0.00000   0.00000   0.00000
Generated with MDTraj, t= 12.0
 28
    1UNL     C1    1  -0.298  -0.082  -0.103
    1UNL     C2    2  -0.282   0.011   0.012
    1UNL     C3    3  -0.392   0.119   0.051
    1UNL     C4    4  -0.167   0.021   0.075
    1UNL     C5    5  -0.041  -0.053   0.047
    1UNL     O1    6   0.045  -0.035   0.158
    1UNL     C6    7   0.176  -0.014   0.128
    1UNL     O2    8   0.267   0.000   0.210
    1UNL     C7    9   0.179  -0.003  -0.017
    1UNL     C8   10   0.289   0.016  -0.093
    1UNL     C9   11   0.422   0.075  -0.051
    1UNL     O3   12   0.485  -0.006   0.047
    1UNL    C10   13   0.047  -0.024  -0.072
    1UNL     O4   14   0.040  -0.122  -0.175
    1UNL     H1   15  -0.353  -0.037  -0.194
    1UNL     H2   16  -0.359  -0.163  -0.084
    1UNL     H3   17  -0.207  -0.114  -0.151
    1UNL     H4   18  -0.487   0.074   0.033
    1UNL     H5   19  -0.391   0.216  -0.005
    1UNL     H6   20  -0.392   0.140   0.156
    1UNL     H7   21  -0.159   0.092   0.158
    1UNL     H8   22  -0.055  -0.158   0.045
    1UNL     H9   23   0.273   0.015  -0.198
    1UNL    H10   24   0.484   0.082  -0.145
    1UNL    H11   25   0.408   0.176  -0.000
    1UNL    H12   26   0.417  -0.018   0.125
    1UNL    H13   27   0.010   0.067  -0.115
    1UNL    H14   28   0.051  -0.211  -0.133
   0.00000   0.00000   0.00000   0.00000   0.00000   0.00000   0.00000   0.00000   0.00000
Generated with MDTraj, t= 13.0
 28
    1UNL     C1    1  -0.277  -0.088  -0.096
    1UNL     C2    2  -0.268   0.013   0.010
    1UNL     C3    3  -0.375   0.124   0.026
    1UNL     C4    4  -0.165   0.011   0.088
    1UNL     C5    5  -0.043  -0.065   0.066
    1UNL     O1    6   0.047  -0.055   0.174
    1UNL     C6    7   0.169  -0.011   0.126
    1UNL     O2    8   0.255   0.011   0.211
    1UNL     C7    9   0.176   0.008  -0.023
    1UNL     C8   10   0.285   0.034  -0.098
    1UNL     C9   11   0.423   0.070  -0.057
    1UNL     O3   12   0.476  -0.015   0.036
    1UNL    C10   13   0.036  -0.018  -0.069
    1UNL     O4   14   0.031  -0.111  -0.174
    1UNL     H1   15  -0.248  -0.050  -0.193
    1UNL     H2   16  -0.379  -0.105  -0.113
    1UNL     H3   17  -0.207  -0.176  -0.086
    1UNL     H4   18  -0.472   0.087   0.005
    1UNL     H5   19  -0.357   0.217  -0.031
    1UNL     H6   20  -0.385   0.158   0.130
    1UNL     H7   21  -0.167   0.075   0.172
    1UNL     H8   22  -0.070  -0.168   0.052
    1UNL     H9   23   0.269   0.038  -0.207
    1UNL    H10   24   0.493   0.061  -0.141
    1UNL    H11   25   0.417   0.173  -0.018
    1UNL    H12   26   0.413  -0.006   0.116
    1UNL    H13   27  -0.021   0.063  -0.109
    1UNL    H14   28   0.061  -0.199  -0.132
   0.00000   0.00000   0.00000   0.00000   0.00000   0.00000   0.00000   0.00000   0.00000
Generated with MDTraj, t= 14.0
 28
    1UNL     C1    1  -0.271  -0.066  -0.118
    1UNL     C2    2  -0.263   0.023   0.003
    1UNL     C3    3  -0.387   0.097   0.021
    1UNL     C4    4  -0.165   0.011   0.084
    1UNL     C5    5  -0.042  -0.062   0.068
    1UNL     O1    6   0.049  -0.049   0.185
    1UNL     C6    7   0.166  -0.006   0.141
    1UNL     O2    8   0.264   0.013   0.209
    1UNL     C7    9   0.174   0.021  -0.011
    1UNL     C8   10   0.278   0.064  -0.088
    1UNL     C9   11   0.420   0.076  -0.063
    1UNL     O3   12   0.464  -0.044   0.001
    1UNL    C10   13   0.037  -0.016  -0.063
    1UNL     O4   14   0.042  -0.134  -0.147
    1UNL     H1   15  -0.182  -0.109  -0.134
    1UNL     H2   16  -0.309  -0.014  -0.204
    1UNL     H3   17  -0.337  -0.155  -0.095
    1UNL     H4   18  -0.468   0.054  -0.038
    1UNL     H5   19  -0.366   0.198  -0.010
    1UNL     H6   20  -0.422   0.105   0.125
    1UNL     H7   21  -0.170   0.057   0.181
    1UNL     H8   22  -0.059  -0.171   0.070
    1UNL     H9   23   0.254   0.065  -0.191
    1UNL    H10   24   0.473   0.093  -0.153
    1UNL    H11   25   0.442   0.154   0.006
    1UNL    H12   26   0.417  -0.050   0.082
    1UNL    H13   27  -0.014   0.058  -0.123
    1UNL    H14   28   0.085  -0.206  -0.092
   0.00000   0.00000   0.00000   0.00000   0.00000   0.00000   0.00000   0.00000   0.00000
Generated with MDTraj, t= 15.0
 28
    1UNL     C1    1  -0.271  -0.064  -0.128
    1UNL     C2    2  -0.271   0.016  -0.002
    1UNL     C3    3  -0.405   0.089   0.043
    1UNL     C4    4  -0.174   0.016   0.080
    1UNL     C5    5  -0.045  -0.052   0.069
    1UNL     O1    6   0.053  -0.026   0.176
    1UNL     C6    7   0.182  -0.006   0.127
    1UNL     O2    8   0.276   0.004   0.201
    1UNL     C7    9   0.177   0.012  -0.024
    1UNL     C8   10   0.284   0.050  -0.096
    1UNL     C9   11   0.416   0.085  -0.037
    1UNL     O3   12   0.488  -0.039   0.014
    1UNL    C10   13   0.032  -0.023  -0.060
    1UNL     O4   14   0.024  -0.139  -0.149
    1UNL     H1   15  -0.302  -0.159  -0.096
    1UNL     H2   16  -0.176  -0.070  -0.176
    1UNL     H3   17  -0.334  -0.022  -0.213
    1UNL     H4   18  -0.484   0.082  -0.032
    1UNL     H5   19  -0.374   0.189   0.059
    1UNL     H6   20  -0.452   0.056   0.139
    1UNL     H7   21  -0.187   0.078   0.169
    1UNL     H8   22  -0.060  -0.163   0.079
    1UNL     H9   23   0.263   0.050  -0.206
    1UNL    H10   24   0.480   0.124  -0.109
    1UNL    H11   25   0.401   0.162   0.031
    1UNL    H12   26   0.445  -0.073   0.102
    1UNL    H13   27  -0.015   0.059  -0.113
    1UNL    H14   28   0.063  -0.213  -0.100
   0.00000   0.00000   0.00000   0.00000   0.00000   0.00000   0.00000   0.00000   0.00000
Generated with MDTraj, t= 16.0
 28
    1UNL     C1    1  -0.285  -0.087  -0.106
    1UNL     C2    2  -0.270   0.021   0.009
    1UNL     C3    3  -0.393   0.101   0.049
    1UNL     C4    4  -0.165   0.023   0.081
    1UNL     C5    5  -0.043  -0.053   0.055
    1UNL     O1    6   0.042  -0.046   0.167
    1UNL     C6    7   0.174  -0.010   0.132
    1UNL     O2    8   0.268   0.003   0.205
    1UNL     C7    9   0.177   0.008  -0.014
    1UNL     C8   10   0.283   0.025  -0.094
    1UNL     C9   11   0.420   0.065  -0.071
    1UNL     O3   12   0.475  -0.004   0.041
    1UNL    C10   13   0.043  -0.013  -0.066
    1UNL     O4   14   0.041  -0.118  -0.167
    1UNL     H1   15  -0.363  -0.071  -0.182
    1UNL     H2   16  -0.313  -0.191  -0.080
    1UNL     H3   17  -0.186  -0.102  -0.145
    1UNL     H4   18  -0.451   0.133  -0.042
    1UNL     H5   19  -0.357   0.183   0.106
    1UNL     H6   20  -0.465   0.043   0.110
    1UNL     H7   21  -0.153   0.086   0.167
    1UNL     H8   22  -0.071  -0.163   0.041
    1UNL     H9   23   0.257   0.022  -0.194
    1UNL    H10   24   0.476   0.050  -0.158
    1UNL    H11   25   0.425   0.167  -0.051
    1UNL    H12   26   0.418   0.009   0.121
    1UNL    H13   27   0.005   0.078  -0.112
    1UNL    H14   28   0.088  -0.191  -0.131
   0.00000   0.00000   0.00000   0.00000   0.00000   0.00000   0.00000   0.00000   0.00000
Generated with MDTraj, t= 17.0
 28
    1UNL     C1    1  -0.308  -0.097  -0.091
    1UNL     C2    2  -0.271   0.010   0.018
    1UNL     C3    3  -0.372   0.114   0.039
    1UNL     C4    4  -0.159   0.013   0.082
    1UNL     C5    5  -0.038  -0.068   0.061
    1UNL     O1    6   0.049  -0.061   0.168
    1UNL     C6    7   0.172  -0.009   0.125
    1UNL     O2    8   0.256   0.026   0.201
    1UNL     C7    9   0.179   0.005  -0.023
    1UNL     C8   10   0.285   0.032  -0.102
    1UNL     C9   11   0.414   0.070  -0.053
    1UNL     O3   12   0.478  -0.009   0.040
    1UNL    C10   13   0.043  -0.019  -0.066
    1UNL     O4   14   0.039  -0.102  -0.177
    1UNL     H1   15  -0.216  -0.141  -0.127
    1UNL     H2   16  -0.367  -0.079  -0.187
    1UNL     H3   17  -0.349  -0.171  -0.037
    1UNL     H4   18  -0.414   0.157  -0.055
    1UNL     H5   19  -0.329   0.194   0.099
    1UNL     H6   20  -0.460   0.078   0.091
    1UNL     H7   21  -0.139   0.098   0.150
    1UNL     H8   22  -0.066  -0.176   0.045
    1UNL     H9   23   0.280   0.039  -0.214
    1UNL    H10   24   0.481   0.065  -0.136
    1UNL    H11   25   0.408   0.169  -0.018
    1UNL    H12   26   0.433  -0.006   0.122
    1UNL    H13   27  -0.007   0.072  -0.104
    1UNL    H14   28   0.087  -0.182  -0.158
   0.00000   0.00000   0.00000   0.00000   0.00000   0.00000   0.00000   0.00000   0.00000
Generated with MDTraj, t= 18.0
 28
    1UNL     C1    1  -0.293  -0.089  -0.092
    1UNL     C2    2  -0.274   0.011   0.015
    1UNL     C3    3  -0.394   0.099   0.043
    1UNL     C4    4  -0.164   0.027   0.078
    1UNL     C5    5  -0.035  -0.051   0.053
    1UNL     O1    6   0.052  -0.061   0.166
    1UNL     C6    7   0.173  -0.008   0.125
    1UNL     O2    8   0.271   0.015   0.189
    1UNL     C7    9   0.178   0.018  -0.019
    1UNL     C8   10   0.281   0.062  -0.095
    1UNL     C9   11   0.420   0.085  -0.043
    1UNL     O3   12   0.467  -0.031   0.025
    1UNL    C10   13   0.043  -0.021  -0.072
    1UNL     O4   14   0.041  -0.132  -0.157
    1UNL     H1   15  -0.393  -0.123  -0.086
    1UNL     H2   16  -0.231  -0.179  -0.074
    1UNL     H3   17  -0.281  -0.046  -0.189
    1UNL     H4   18  -0.469   0.125  -0.036
    1UNL     H5   19  -0.359   0.185   0.105
    1UNL     H6   20  -0.459   0.042   0.107
    1UNL     H7   21  -0.155   0.107   0.146
    1UNL     H8   22  -0.065  -0.160   0.044
    1UNL     H9   23   0.272   0.060  -0.199
    1UNL    H10   24   0.492   0.113  -0.121
    1UNL    H11   25   0.421   0.165   0.030
    1UNL    H12   26   0.414  -0.049   0.110
    1UNL    H13   27  -0.018   0.060  -0.121
    1UNL    H14   28   0.111  -0.193  -0.125
   0.00000   0.00000   0.00000   0.00000   0.00000   0.00000   0.00000   0.00000   0.00000
Generated with MDTraj, t= 19.0
 28
    1UNL     C1    1  -0.290  -0.078  -0.117
    1UNL     C2    2  -0.281   0.007   0.009
    1UNL     C3    3  -0.406   0.088   0.039
    1UNL     C4    4  -0.171   0.031   0.076
    1UNL     C5    5  -0.041  -0.055   0.063
    1UNL     O1    6   0.056  -0.037   0.178
    1UNL     C6    7   0.184  -0.009   0.137
    1UNL     O2    8   0.288  -0.009   0.204
    1UNL     C7    9   0.176   0.019  -0.011
    1UNL     C8   10   0.268   0.062  -0.098
    1UNL     C9   11   0.408   0.083  -0.056
    1UNL     O3   12   0.487  -0.026   0.007
    1UNL    C10   13   0.035  -0.019  -0.063
    1UNL     O4   14   0.040  -0.134  -0.146
    1UNL     H1   15  -0.228  -0.036  -0.193
    1UNL     H2   16  -0.388  -0.103  -0.155
    1UNL     H3   17  -0.252  -0.183  -0.093
    1UNL     H4   18  -0.491   0.066  -0.029
    1UNL     H5   19  -0.372   0.196   0.051
    1UNL     H6   20  -0.450   0.056   0.132
    1UNL     H7   21  -0.165   0.111   0.152
    1UNL     H8   22  -0.054  -0.165   0.065
    1UNL     H9   23   0.244   0.067  -0.206
    1UNL    H10   24   0.475   0.103  -0.144
    1UNL    H11   25   0.423   0.175   0.006
    1UNL    H12   26   0.437  -0.045   0.090
    1UNL    H13   27  -0.017   0.061  -0.125
    1UNL    H14   28   0.120  -0.190  -0.120
   0.00000   0.00000   0.00000   0.00000   0.00000   0.00000   0.00000   0.00000   0.00000
Generated with MDTraj, t= 20.0
 28
    1UNL     C1    1  -0.273  -0.080  -0.114
    1UNL     C2    2  -0.267   0.005   0.009
    1UNL     C3    3  -0.383   0.097   0.032
    1UNL     C4    4  -0.168   0.020   0.091
    1UNL     C5    5  -0.041  -0.065   0.075
    1UNL     O1    6   0.054  -0.048   0.186
    1UNL     C6    7   0.178  -0.012   0.136
    1UNL     O2    8   0.282  -0.001   0.203
    1UNL     C7    9   0.175   0.005  -0.012
    1UNL     C8   10   0.270   0.033  -0.103
    1UNL     C9   11   0.406   0.083  -0.076
    1UNL     O3   12   0.472   0.003   0.022
    1UNL    C10   13   0.037  -0.022  -0.056
    1UNL     O4   14   0.023  -0.116  -0.166
    1UNL     H1   15  -0.201  -0.169  -0.113
    1UNL     H2   16  -0.261  -0.035  -0.207
    1UNL     H3   17  -0.384  -0.106  -0.124
    1UNL     H4   18  -0.483   0.052   0.017
    1UNL     H5   19  -0.356   0.195  -0.018
    1UNL     H6   20  -0.389   0.126   0.138
    1UNL     H7   21  -0.175   0.090   0.169
    1UNL     H8   22  -0.070  -0.168   0.067
    1UNL     H9   23   0.253   0.011  -0.204
    1UNL    H10   24   0.474   0.102  -0.166
    1UNL    H11   25   0.401   0.184  -0.021
    1UNL    H12   26   0.415  -0.005   0.095
    1UNL    H13   27  -0.012   0.074  -0.092
    1UNL    H14   28   0.110  -0.168  -0.172
   0.00000   0.00000   0.00000   0.00000   0.00000   0.00000   0.00000   0.00000   0.00000
Generated with MDTraj, t= 21.0
 28
    1UNL     C1    1  -0.291  -0.081  -0.092
    1UNL     C2    2  -0.266   0.017   0.014
    1UNL     C3    3  -0.376   0.106   0.050
    1UNL     C4    4  -0.157   0.012   0.086
    1UNL     C5    5  -0.037  -0.078   0.059
    1UNL     O1    6   0.051  -0.062   0.167
    1UNL     C6    7   0.170  -0.012   0.119
    1UNL     O2    8   0.265   0.016   0.195
    1UNL     C7    9   0.172   0.011  -0.024
    1UNL     C8   10   0.272   0.039  -0.106
    1UNL     C9   11   0.410   0.081  -0.063
    1UNL     O3   12   0.473   0.008   0.040
    1UNL    C10   13   0.040  -0.023  -0.064
    1UNL     O4   14   0.037  -0.127  -0.163
    1UNL     H1   15  -0.394  -0.131  -0.092
    1UNL     H2   16  -0.225  -0.170  -0.100
    1UNL     H3   17  -0.267  -0.019  -0.181
    1UNL     H4   18  -0.469   0.051   0.058
    1UNL     H5   19  -0.387   0.197  -0.015
    1UNL     H6   20  -0.371   0.143   0.156
    1UNL     H7   21  -0.150   0.084   0.166
    1UNL     H8   22  -0.063  -0.180   0.037
    1UNL     H9   23   0.258   0.049  -0.215
    1UNL    H10   24   0.478   0.057  -0.153
    1UNL    H11   25   0.414   0.196  -0.043
    1UNL    H12   26   0.418   0.004   0.126
    1UNL    H13   27  -0.015   0.068  -0.101
    1UNL    H14   28   0.124  -0.173  -0.158
   0.00000   0.00000   0.00000   0.00000   0.00000   0.00000   0.00000   0.00000   0.00000
Generated with MDTraj, t= 22.0
 28
    1UNL     C1    1  -0.314  -0.086  -0.094
    1UNL     C2    2  -0.274   0.022   0.008
    1UNL     C3    3  -0.379   0.104   0.071
    1UNL     C4    4  -0.160   0.024   0.078
    1UNL     C5    5  -0.042  -0.064   0.051
    1UNL     O1    6   0.054  -0.069   0.163
    1UNL     C6    7   0.170  -0.012   0.120
    1UNL     O2    8   0.260   0.029   0.195
    1UNL     C7    9   0.172   0.010  -0.023
    1UNL     C8   10   0.275   0.055  -0.095
    1UNL     C9   11   0.413   0.093  -0.047
    1UNL     O3   12   0.485  -0.009   0.019
    1UNL    C10   13   0.041  -0.033  -0.071
    1UNL     O4   14   0.056  -0.146  -0.162
    1UNL     H1   15  -0.339  -0.036  -0.188
    1UNL     H2   16  -0.409  -0.150  -0.066
    1UNL     H3   17  -0.228  -0.155  -0.109
    1UNL     H4   18  -0.475   0.055   0.061
    1UNL     H5   19  -0.389   0.200   0.017
    1UNL     H6   20  -0.368   0.112   0.184
    1UNL     H7   21  -0.149   0.089   0.162
    1UNL     H8   22  -0.069  -0.167   0.040
    1UNL     H9   23   0.261   0.058  -0.200
    1UNL    H10   24   0.481   0.139  -0.129
    1UNL    H11   25   0.407   0.172   0.037
    1UNL    H12   26   0.437  -0.033   0.105
    1UNL    H13   27  -0.003   0.044  -0.138
    1UNL    H14   28   0.135  -0.197  -0.143
   0.00000   0.00000   0.00000   0.00000   0.00000   0.00000   0.00000   0.00000   0.00000
Generated with MDTraj, t= 23.0
 28
    1UNL     C1    1  -0.293  -0.098  -0.082
    1UNL     C2    2  -0.272   0.016   0.008
    1UNL     C3    3  -0.390   0.112   0.048
    1UNL     C4    4  -0.153   0.024   0.073
    1UNL     C5    5  -0.042  -0.067   0.054
    1UNL     O1    6   0.053  -0.059   0.172
    1UNL     C6    7   0.174  -0.016   0.126
    1UNL     O2    8   0.277  -0.005   0.192
    1UNL     C7    9   0.174   0.020  -0.016
    1UNL     C8   10   0.270   0.067  -0.095
    1UNL     C9   11   0.406   0.100  -0.048
    1UNL     O3   12   0.475  -0.004   0.010
    1UNL    C10   13   0.042  -0.029  -0.070
    1UNL     O4   14   0.043  -0.140  -0.156
    1UNL     H1   15  -0.225  -0.088  -0.165
    1UNL     H2   16  -0.399  -0.078  -0.127
    1UNL     H3   17  -0.288  -0.203  -0.037
    1UNL     H4   18  -0.477   0.104  -0.018
    1UNL     H5   19  -0.349   0.211   0.027
    1UNL     H6   20  -0.422   0.085   0.154
    1UNL     H7   21  -0.139   0.099   0.146
    1UNL     H8   22  -0.082  -0.167   0.051
    1UNL     H9   23   0.245   0.069  -0.201
    1UNL    H10   24   0.479   0.122  -0.133
    1UNL    H11   25   0.409   0.189   0.021
    1UNL    H12   26   0.423  -0.029   0.084
    1UNL    H13   27  -0.014   0.052  -0.117
    1UNL    H14   28   0.079  -0.209  -0.100
   0.00000   0.00000   0.00000   0.00000   0.00000   0.00000   0.00000   0.00000   0.00000
Generated with MDTraj, t= 24.0
 28
    1UNL     C1    1  -0.294  -0.100  -0.094
    1UNL     C2    2  -0.273   0.001   0.014
    1UNL     C3    3  -0.377   0.107   0.021
    1UNL     C4    4  -0.160   0.019   0.089
    1UNL     C5    5  -0.041  -0.060   0.079
    1UNL     O1    6   0.061  -0.039   0.187
    1UNL     C6    7   0.182  -0.020   0.134
    1UNL     O2    8   0.287  -0.029   0.193
    1UNL     C7    9   0.172   0.011  -0.014
    1UNL     C8   10   0.264   0.050  -0.105
    1UNL     C9   11   0.406   0.097  -0.068
    1UNL     O3   12   0.484   0.016   0.018
    1UNL    C10   13   0.029  -0.024  -0.056
    1UNL     O4   14   0.024  -0.122  -0.165
    1UNL     H1   15  -0.202  -0.149  -0.137
    1UNL     H2   16  -0.327  -0.037  -0.183
    1UNL     H3   17  -0.378  -0.180  -0.088
    1UNL     H4   18  -0.415   0.143  -0.078
    1UNL     H5   19  -0.329   0.198   0.054
    1UNL     H6   20  -0.465   0.069   0.081
    1UNL     H7   21  -0.160   0.103   0.160
    1UNL     H8   22  -0.068  -0.166   0.073
    1UNL     H9   23   0.234   0.055  -0.209
    1UNL    H10   24   0.464   0.108  -0.162
    1UNL    H11   25   0.398   0.195  -0.020
    1UNL    H12   26   0.431  -0.009   0.099
    1UNL    H13   27  -0.013   0.061  -0.106
    1UNL    H14   28   0.067  -0.205  -0.138
   0.00000   0.00000   0.00000   0.00000   0.00000   0.00000   0.00000   0.00000   0.00000
Generated with MDTraj, t= 25.0
 28
    1UNL     C1    1  -0.275  -0.070  -0.103
    1UNL     C2    2  -0.273   0.017   0.016
    1UNL     C3    3  -0.394   0.085   0.046
    1UNL     C4    4  -0.156   0.028   0.087
    1UNL     C5    5  -0.045  -0.062   0.065
    1UNL     O1    6   0.052  -0.051   0.180
    1UNL     C6    7   0.179  -0.017   0.133
    1UNL     O2    8   0.281   0.003   0.194
    1UNL     C7    9   0.172  -0.002  -0.014
    1UNL     C8   10   0.266   0.039  -0.098
    1UNL     C9   11   0.401   0.097  -0.065
    1UNL     O3   12   0.482   0.005   0.009
    1UNL    C10   13   0.037  -0.028  -0.063
    1UNL     O4   14   0.034  -0.134  -0.159
    1UNL     H1   15  -0.168  -0.118  -0.113
    1UNL     H2   16  -0.292  -0.011  -0.195
    1UNL     H3   17  -0.351  -0.156  -0.104
    1UNL     H4   18  -0.428   0.144  -0.045
    1UNL     H5   19  -0.380   0.175   0.106
    1UNL     H6   20  -0.478   0.021   0.077
    1UNL     H7   21  -0.155   0.097   0.167
    1UNL     H8   22  -0.086  -0.167   0.063
    1UNL     H9   23   0.236   0.035  -0.201
    1UNL    H10   24   0.455   0.121  -0.155
    1UNL    H11   25   0.393   0.187  -0.007
    1UNL    H12   26   0.435  -0.018   0.096
    1UNL    H13   27   0.002   0.059  -0.116
    1UNL    H14   28   0.096  -0.207  -0.128
   0.00000   0.00000   0.00000   0.00000   0.00000   0.00000   0.00000   0.00000   0.00000
Generated with MDTraj, t= 26.0
 28
    1UNL     C1    1  -0.291  -0.052  -0.118
    1UNL     C2    2  -0.278   0.017   0.015
    1UNL     C3    3  -0.393   0.093   0.076
    1UNL     C4    4  -0.165  -0.000   0.092
    1UNL     C5    5  -0.042  -0.074   0.062
    1UNL     O1    6   0.053  -0.056   0.173
    1UNL     C6    7   0.176  -0.003   0.122
    1UNL     O2    8   0.265   0.035   0.193
    1UNL     C7    9   0.173   0.014  -0.028
    1UNL     C8   10   0.272   0.058  -0.107
    1UNL     C9   11   0.416   0.083  -0.066
    1UNL     O3   12   0.466  -0.016   0.021
    1UNL    C10   13   0.041  -0.039  -0.064
    1UNL     O4   14   0.067  -0.147  -0.154
    1UNL     H1   15  -0.210  -0.131  -0.117
    1UNL     H2   16  -0.282   0.016  -0.209
    1UNL     H3   17  -0.392  -0.109  -0.129
    1UNL     H4   18  -0.452   0.136  -0.010
    1UNL     H5   19  -0.356   0.189   0.113
    1UNL     H6   20  -0.461   0.048   0.150
    1UNL     H7   21  -0.177   0.055   0.187
    1UNL     H8   22  -0.068  -0.184   0.066
    1UNL     H9   23   0.243   0.079  -0.211
    1UNL    H10   24   0.486   0.085  -0.144
    1UNL    H11   25   0.427   0.175  -0.017
    1UNL    H12   26   0.416  -0.016   0.102
    1UNL    H13   27  -0.011   0.038  -0.117
    1UNL    H14   28   0.135  -0.215  -0.119
   0.00000   0.00000   0.00000   0.00000   0.00000   0.00000   0.00000   0.00000   0.00000
Generated with MDTraj, t= 27.0
 28
    1UNL     C1    1  -0.267  -0.060  -0.109
    1UNL     C2    2  -0.263   0.017   0.019
    1UNL     C3    3  -0.381   0.101   0.060
    1UNL     C4    4  -0.157  -0.010   0.103
    1UNL     C5    5  -0.035  -0.076   0.064
    1UNL     O1    6   0.059  -0.069   0.174
    1UNL     C6    7   0.173  -0.004   0.124
    1UNL     O2    8   0.260   0.050   0.184
    1UNL     C7    9   0.176  -0.003  -0.024
    1UNL     C8   10   0.273   0.047  -0.103
    1UNL     C9   11   0.412   0.081  -0.061
    1UNL     O3   12   0.461  -0.005   0.032
    1UNL    C10   13   0.037  -0.032  -0.065
    1UNL     O4   14   0.022  -0.132  -0.171
    1UNL     H1   15  -0.223  -0.162  -0.108
    1UNL     H2   16  -0.235  -0.001  -0.206
    1UNL     H3   17  -0.377  -0.080  -0.139
    1UNL     H4   18  -0.464   0.071  -0.008
    1UNL     H5   19  -0.357   0.207   0.038
    1UNL     H6   20  -0.399   0.096   0.167
    1UNL     H7   21  -0.167   0.029   0.201
    1UNL     H8   22  -0.059  -0.186   0.055
    1UNL     H9   23   0.255   0.061  -0.206
    1UNL    H10   24   0.474   0.079  -0.145
    1UNL    H11   25   0.415   0.174  -0.014
    1UNL    H12   26   0.400  -0.004   0.110
    1UNL    H13   27  -0.001   0.059  -0.109
    1UNL    H14   28   0.088  -0.205  -0.178
   0.00000   0.00000   0.00000   0.00000   0.00000   0.00000   0.00000   0.00000   0.00000
Generated with MDTraj, t= 28.0
 28
    1UNL     C1    1  -0.276  -0.072  -0.108
    1UNL     C2    2  -0.274   0.008   0.011
    1UNL     C3    3  -0.392   0.092   0.042
    1UNL     C4    4  -0.166   0.000   0.097
    1UNL     C5    5  -0.038  -0.074   0.072
    1UNL     O1    6   0.054  -0.052   0.179
    1UNL     C6    7   0.176  -0.004   0.133
    1UNL     O2    8   0.268   0.017   0.205
    1UNL     C7    9   0.180   0.008  -0.012
    1UNL     C8   10   0.268   0.037  -0.107
    1UNL     C9   11   0.408   0.077  -0.076
    1UNL     O3   12   0.488  -0.000   0.014
    1UNL    C10   13   0.038  -0.025  -0.054
    1UNL     O4   14   0.035  -0.108  -0.170
    1UNL     H1   15  -0.219  -0.167  -0.094
    1UNL     H2   16  -0.243  -0.005  -0.199
    1UNL     H3   17  -0.380  -0.106  -0.142
    1UNL     H4   18  -0.482   0.039   0.010
    1UNL     H5   19  -0.389   0.196  -0.002
    1UNL     H6   20  -0.386   0.117   0.147
    1UNL     H7   21  -0.181   0.075   0.177
    1UNL     H8   22  -0.075  -0.180   0.070
    1UNL     H9   23   0.232   0.045  -0.212
    1UNL    H10   24   0.467   0.077  -0.165
    1UNL    H11   25   0.400   0.177  -0.044
    1UNL    H12   26   0.419  -0.018   0.089
    1UNL    H13   27  -0.007   0.073  -0.075
    1UNL    H14   28   0.044  -0.196  -0.133
   0.00000   0.00000   0.00000   0.00000   0.00000   0.00000   0.00000   0.00000   0.00000
Generated with MDTraj, t= 29.0
 28
    1UNL     C1    1  -0.270  -0.093  -0.102
    1UNL     C2    2  -0.277   0.005   0.018
    1UNL     C3    3  -0.401   0.070   0.042
    1UNL     C4    4  -0.164   0.030   0.092
    1UNL     C5    5  -0.040  -0.046   0.066
    1UNL     O1    6   0.050  -0.025   0.174
    1UNL     C6    7   0.178   0.001   0.129
    1UNL     O2    8   0.284  -0.024   0.181
    1UNL     C7    9   0.174   0.029  -0.015
    1UNL     C8   10   0.275   0.056  -0.098
    1UNL     C9   11   0.412   0.090  -0.052
    1UNL     O3   12   0.479  -0.024   0.012
    1UNL    C10   13   0.032  -0.015  -0.062
    1UNL     O4   14   0.033  -0.126  -0.158
    1UNL     H1   15  -0.229  -0.195  -0.066
    1UNL     H2   16  -0.206  -0.046  -0.182
    1UNL     H3   17  -0.366  -0.120  -0.156
    1UNL     H4   18  -0.485   0.014   0.005
    1UNL     H5   19  -0.411   0.179   0.009
    1UNL     H6   20  -0.411   0.092   0.148
    1UNL     H7   21  -0.173   0.107   0.166
    1UNL     H8   22  -0.063  -0.153   0.074
    1UNL     H9   23   0.257   0.046  -0.201
    1UNL    H10   24   0.469   0.128  -0.138
    1UNL    H11   25   0.415   0.172   0.019
    1UNL    H12   26   0.418  -0.062   0.074
    1UNL    H13   27  -0.009   0.071  -0.122
    1UNL    H14   28   0.050  -0.213  -0.118
   0.00000   0.00000   0.00000   0.00000   0.00000   0.00000   0.00000   0.00000   0.00000
Generated with MDTraj, t= 30.0
 28
    1UNL     C1    1  -0.296  -0.119  -0.083
    1UNL     C2    2  -0.277   0.001   0.007
    1UNL     C3    3  -0.399   0.080   0.038
    1UNL     C4    4  -0.161   0.033   0.074
    1UNL     C5    5  -0.038  -0.050   0.062
    1UNL     O1    6   0.047  -0.034   0.176
    1UNL     C6    7   0.178  -0.000   0.129
    1UNL     O2    8   0.281  -0.005   0.197
    1UNL     C7    9   0.175   0.021  -0.019
    1UNL     C8   10   0.280   0.063  -0.089
    1UNL     C9   11   0.412   0.083  -0.033
    1UNL     O3   12   0.498  -0.031  -0.015
    1UNL    C10   13   0.034  -0.012  -0.062
    1UNL     O4   14   0.028  -0.113  -0.155
    1UNL     H1   15  -0.325  -0.210  -0.016
    1UNL     H2   16  -0.202  -0.141  -0.133
    1UNL     H3   17  -0.375  -0.119  -0.166
    1UNL     H4   18  -0.491   0.052  -0.011
    1UNL     H5   19  -0.387   0.190   0.028
    1UNL     H6   20  -0.414   0.076   0.147
    1UNL     H7   21  -0.157   0.127   0.130
    1UNL     H8   22  -0.069  -0.153   0.072
    1UNL     H9   23   0.268   0.078  -0.198
    1UNL    H10   24   0.473   0.150  -0.099
    1UNL    H11   25   0.399   0.145   0.061
    1UNL    H12   26   0.468  -0.081   0.064
    1UNL    H13   27  -0.016   0.080  -0.105
    1UNL    H14   28   0.083  -0.093  -0.238
   0.00000   0.00000   0.00000   0.00000   0.00000   0.00000   0.00000   0.00000   0.00000
Generated with MDTraj, t= 31.0
 28
    1UNL     C1    1  -0.306  -0.124  -0.066
    1UNL     C2    2  -0.276  -0.005   0.006
    1UNL     C3    3  -0.383   0.095   0.043
    1UNL     C4    4  -0.158   0.016   0.074
    1UNL     C5    5  -0.030  -0.059   0.057
    1UNL     O1    6   0.058  -0.058   0.170
    1UNL     C6    7   0.176  -0.001   0.125
    1UNL     O2    8   0.276   0.022   0.192
    1UNL     C7    9   0.179   0.019  -0.020
    1UNL     C8   10   0.280   0.068  -0.090
    1UNL     C9   11   0.417   0.078  -0.048
    1UNL     O3   12   0.465  -0.034   0.019
    1UNL    C10   13   0.038  -0.005  -0.071
    1UNL     O4   14   0.030  -0.097  -0.176
    1UNL     H1   15  -0.328  -0.201   0.013
    1UNL     H2   16  -0.219  -0.152  -0.129
    1UNL     H3   17  -0.399  -0.118  -0.134
    1UNL     H4   18  -0.475   0.105  -0.014
    1UNL     H5   19  -0.331   0.191   0.053
    1UNL     H6   20  -0.409   0.065   0.146
    1UNL     H7   21  -0.154   0.096   0.148
    1UNL     H8   22  -0.050  -0.163   0.040
    1UNL     H9   23   0.263   0.082  -0.192
    1UNL    H10   24   0.480   0.118  -0.134
    1UNL    H11   25   0.422   0.161   0.035
    1UNL    H12   26   0.402  -0.049   0.098
    1UNL    H13   27  -0.006   0.092  -0.108
    1UNL    H14   28   0.096  -0.170  -0.151
   0.00000   0.00000   0.00000   0.00000   0.00000   0.00000   0.00000   0.00000   0.00000
Generated with MDTraj, t= 32.0
 28
    1UNL     C1    1  -0.299  -0.100  -0.086
    1UNL     C2    2  -0.285   0.006   0.018
    1UNL     C3    3  -0.400   0.081   0.070
    1UNL     C4    4  -0.160   0.024   0.076
    1UNL     C5    5  -0.038  -0.061   0.056
    1UNL     O1    6   0.052  -0.063   0.165
    1UNL     C6    7   0.167  -0.006   0.125
    1UNL     O2    8   0.258   0.026   0.199
    1UNL     C7    9   0.182   0.013  -0.023
    1UNL     C8   10   0.287   0.042  -0.102
    1UNL     C9   11   0.426   0.067  -0.067
    1UNL     O3   12   0.483  -0.012   0.038
    1UNL    C10   13   0.042  -0.006  -0.072
    1UNL     O4   14   0.045  -0.104  -0.176
    1UNL     H1   15  -0.255  -0.190  -0.045
    1UNL     H2   16  -0.253  -0.068  -0.186
    1UNL     H3   17  -0.408  -0.123  -0.097
    1UNL     H4   18  -0.498   0.060   0.029
    1UNL     H5   19  -0.379   0.186   0.063
    1UNL     H6   20  -0.406   0.051   0.178
    1UNL     H7   21  -0.141   0.086   0.162
    1UNL     H8   22  -0.064  -0.161   0.034
    1UNL     H9   23   0.270   0.066  -0.210
    1UNL    H10   24   0.487   0.033  -0.157
    1UNL    H11   25   0.438   0.184  -0.063
    1UNL    H12   26   0.421  -0.008   0.112
    1UNL    H13   27  -0.005   0.090  -0.114
    1UNL    H14   28   0.136  -0.115  -0.210
   0.00000   0.00000   0.00000   0.00000   0.00000   0.00000   0.00000   0.00000   0.00000
Generated with MDTraj, t= 33.0
 28
    1UNL     C1    1  -0.284  -0.076  -0.106
    1UNL     C2    2  -0.278   0.003   0.020
    1UNL     C3    3  -0.406   0.073   0.067
    1UNL     C4    4  -0.168   0.012   0.098
    1UNL     C5    5  -0.042  -0.057   0.061
    1UNL     O1    6   0.053  -0.036   0.168
    1UNL     C6    7   0.174  -0.001   0.121
    1UNL     O2    8   0.276   0.015   0.185
    1UNL     C7    9   0.179   0.003  -0.021
    1UNL     C8   10   0.284   0.023  -0.097
    1UNL     C9   11   0.417   0.082  -0.055
    1UNL     O3   12   0.492  -0.007   0.031
    1UNL    C10   13   0.033  -0.017  -0.070
    1UNL     O4   14   0.035  -0.110  -0.179
    1UNL     H1   15  -0.296  -0.180  -0.081
    1UNL     H2   16  -0.181  -0.068  -0.159
    1UNL     H3   17  -0.365  -0.051  -0.175
    1UNL     H4   18  -0.492   0.026   0.018
    1UNL     H5   19  -0.427   0.174   0.041
    1UNL     H6   20  -0.436   0.050   0.171
    1UNL     H7   21  -0.153   0.061   0.195
    1UNL     H8   22  -0.056  -0.164   0.060
    1UNL     H9   23   0.264   0.006  -0.199
    1UNL    H10   24   0.475   0.121  -0.145
    1UNL    H11   25   0.401   0.177   0.011
    1UNL    H12   26   0.444  -0.014   0.111
    1UNL    H13   27  -0.021   0.076  -0.103
    1UNL    H14   28   0.041  -0.199  -0.147
   0.00000   0.00000   0.00000   0.00000   0.00000   0.00000   0.00000   0.00000   0.00000
Generated with MDTraj, t= 34.0
 28
    1UNL     C1    1  -0.267  -0.081  -0.116
    1UNL     C2    2  -0.269  -0.002   0.010
    1UNL     C3    3  -0.390   0.087   0.040
    1UNL     C4    4  -0.166   0.003   0.092
    1UNL     C5    5  -0.039  -0.069   0.074
    1UNL     O1    6   0.058  -0.037   0.182
    1UNL     C6    7   0.181   0.003   0.137
    1UNL     O2    8   0.284   0.004   0.205
    1UNL     C7    9   0.169   0.029  -0.011
    1UNL     C8   10   0.262   0.077  -0.093
    1UNL     C9   11   0.404   0.084  -0.064
    1UNL     O3   12   0.456  -0.031  -0.011
    1UNL    C10   13   0.033  -0.024  -0.055
    1UNL     O4   14   0.044  -0.122  -0.161
    1UNL     H1   15  -0.313  -0.181  -0.102
    1UNL     H2   16  -0.167  -0.097  -0.150
    1UNL     H3   17  -0.326  -0.033  -0.193
    1UNL     H4   18  -0.468   0.046  -0.026
    1UNL     H5   19  -0.392   0.192   0.019
    1UNL     H6   20  -0.429   0.063   0.139
    1UNL     H7   21  -0.151   0.064   0.177
    1UNL     H8   22  -0.048  -0.180   0.076
    1UNL     H9   23   0.238   0.090  -0.199
    1UNL    H10   24   0.459   0.082  -0.160
    1UNL    H11   25   0.434   0.182  -0.013
    1UNL    H12   26   0.415  -0.041   0.083
    1UNL    H13   27  -0.010   0.065  -0.103
    1UNL    H14   28   0.079  -0.197  -0.114
   0.00000   0.00000   0.00000   0.00000   0.00000   0.00000   0.00000   0.00000   0.00000
Generated with MDTraj, t= 35.0
 28
    1UNL     C1    1  -0.282  -0.095  -0.095
    1UNL     C2    2  -0.269   0.005   0.012
    1UNL     C3    3  -0.388   0.094   0.031
    1UNL     C4    4  -0.163   0.017   0.083
    1UNL     C5    5  -0.036  -0.058   0.071
    1UNL     O1    6   0.057  -0.061   0.181
    1UNL     C6    7   0.177  -0.012   0.133
    1UNL     O2    8   0.277   0.011   0.200
    1UNL     C7    9   0.171   0.019  -0.012
    1UNL     C8   10   0.260   0.078  -0.086
    1UNL     C9   11   0.410   0.091  -0.063
    1UNL     O3   12   0.473  -0.021  -0.009
    1UNL    C10   13   0.039  -0.019  -0.060
    1UNL     O4   14   0.039  -0.128  -0.160
    1UNL     H1   15  -0.341  -0.180  -0.053
    1UNL     H2   16  -0.192  -0.135  -0.126
    1UNL     H3   17  -0.347  -0.052  -0.171
    1UNL     H4   18  -0.452   0.076  -0.056
    1UNL     H5   19  -0.366   0.199   0.038
    1UNL     H6   20  -0.431   0.061   0.124
    1UNL     H7   21  -0.150   0.098   0.156
    1UNL     H8   22  -0.070  -0.166   0.056
    1UNL     H9   23   0.224   0.107  -0.182
    1UNL    H10   24   0.455   0.134  -0.149
    1UNL    H11   25   0.423   0.164   0.019
    1UNL    H12   26   0.427  -0.038   0.078
    1UNL    H13   27  -0.011   0.062  -0.112
    1UNL    H14   28   0.080  -0.209  -0.117
   0.00000   0.00000   0.00000   0.00000   0.00000   0.00000   0.00000   0.00000   0.00000
Generated with MDTraj, t= 36.0
 28
    1UNL     C1    1  -0.304  -0.099  -0.078
    1UNL     C2    2  -0.279   0.011   0.018
    1UNL     C3    3  -0.396   0.104   0.060
    1UNL     C4    4  -0.166   0.023   0.076
    1UNL     C5    5  -0.042  -0.061   0.057
    1UNL     O1    6   0.048  -0.050   0.168
    1UNL     C6    7   0.174  -0.021   0.118
    1UNL     O2    8   0.276  -0.012   0.180
    1UNL     C7    9   0.180   0.002  -0.034
    1UNL     C8   10   0.288   0.035  -0.106
    1UNL     C9   11   0.417   0.104  -0.050
    1UNL     O3   12   0.494   0.028   0.046
    1UNL    C10   13   0.043  -0.023  -0.074
    1UNL     O4   14   0.031  -0.131  -0.168
    1UNL     H1   15  -0.302  -0.191  -0.019
    1UNL     H2   16  -0.223  -0.122  -0.142
    1UNL     H3   17  -0.403  -0.087  -0.119
    1UNL     H4   18  -0.469   0.114  -0.021
    1UNL     H5   19  -0.370   0.206   0.087
    1UNL     H6   20  -0.438   0.071   0.151
    1UNL     H7   21  -0.150   0.107   0.136
    1UNL     H8   22  -0.079  -0.169   0.050
    1UNL     H9   23   0.281   0.033  -0.214
    1UNL    H10   24   0.489   0.105  -0.126
    1UNL    H11   25   0.397   0.206  -0.028
    1UNL    H12   26   0.436  -0.003   0.112
    1UNL    H13   27  -0.001   0.063  -0.118
    1UNL    H14   28   0.081  -0.214  -0.139
   0.00000   0.00000   0.00000   0.00000   0.00000   0.00000   0.00000   0.00000   0.00000
Generated with MDTraj, t= 37.0
 28
    1UNL     C1    1  -0.315  -0.106  -0.065
    1UNL     C2    2  -0.270   0.020   0.014
    1UNL     C3    3  -0.374   0.110   0.066
    1UNL     C4    4  -0.155   0.031   0.067
    1UNL     C5    5  -0.043  -0.066   0.043
    1UNL     O1    6   0.043  -0.061   0.160
    1UNL     C6    7   0.171  -0.020   0.125
    1UNL     O2    8   0.264  -0.020   0.199
    1UNL     C7    9   0.172   0.015  -0.017
    1UNL     C8   10   0.269   0.051  -0.101
    1UNL     C9   11   0.415   0.092  -0.069
    1UNL     O3   12   0.480   0.033   0.041
    1UNL    C10   13   0.040  -0.030  -0.080
    1UNL     O4   14   0.062  -0.135  -0.174
    1UNL     H1   15  -0.281  -0.192  -0.016
    1UNL     H2   16  -0.258  -0.130  -0.155
    1UNL     H3   17  -0.420  -0.115  -0.072
    1UNL     H4   18  -0.463   0.125   0.005
    1UNL     H5   19  -0.336   0.211   0.090
    1UNL     H6   20  -0.396   0.077   0.164
    1UNL     H7   21  -0.125   0.114   0.135
    1UNL     H8   22  -0.078  -0.175   0.040
    1UNL     H9   23   0.243   0.047  -0.206
    1UNL    H10   24   0.475   0.093  -0.154
    1UNL    H11   25   0.413   0.191  -0.029
    1UNL    H12   26   0.408   0.019   0.114
    1UNL    H13   27   0.002   0.053  -0.136
    1UNL    H14   28   0.131  -0.195  -0.132
   0.00000   0.00000   0.00000   0.00000   0.00000   0.00000   0.00000   0.00000   0.00000
Generated with MDTraj, t= 38.0
 28
    1UNL     C1    1  -0.318  -0.102  -0.056
    1UNL     C2    2  -0.262   0.014   0.016
    1UNL     C3    3  -0.365   0.117   0.048
    1UNL     C4    4  -0.146   0.024   0.068
    1UNL     C5    5  -0.042  -0.085   0.045
    1UNL     O1    6   0.050  -0.073   0.158
    1UNL     C6    7   0.170  -0.012   0.124
    1UNL     O2    8   0.264   0.016   0.192
    1UNL     C7    9   0.168   0.019  -0.021
    1UNL     C8   10   0.269   0.067  -0.094
    1UNL     C9   11   0.399   0.109  -0.019
    1UNL     O3   12   0.486   0.003   0.008
    1UNL    C10   13   0.038  -0.040  -0.079
    1UNL     O4   14   0.047  -0.141  -0.174
    1UNL     H1   15  -0.368  -0.166   0.005
    1UNL     H2   16  -0.230  -0.159  -0.089
    1UNL     H3   17  -0.388  -0.080  -0.130
    1UNL     H4   18  -0.464   0.106   0.007
    1UNL     H5   19  -0.316   0.217   0.035
    1UNL     H6   20  -0.370   0.108   0.154
    1UNL     H7   21  -0.112   0.106   0.126
    1UNL     H8   22  -0.087  -0.189   0.042
    1UNL     H9   23   0.259   0.078  -0.200
    1UNL    H10   24   0.462   0.159  -0.087
    1UNL    H11   25   0.380   0.178   0.063
    1UNL    H12   26   0.451  -0.050   0.085
    1UNL    H13   27  -0.012   0.042  -0.127
    1UNL    H14   28   0.126  -0.195  -0.153
   0.00000   0.00000   0.00000   0.00000   0.00000   0.00000   0.00000   0.00000   0.00000
Generated with MDTraj, t= 39.0
 28
    1UNL     C1    1  -0.310  -0.091  -0.087
    1UNL     C2    2  -0.276   0.015   0.017
    1UNL     C3    3  -0.389   0.110   0.043
    1UNL     C4    4  -0.161   0.027   0.075
    1UNL     C5    5  -0.042  -0.072   0.059
    1UNL     O1    6   0.056  -0.077   0.164
    1UNL     C6    7   0.177  -0.024   0.127
    1UNL     O2    8   0.279  -0.010   0.189
    1UNL     C7    9   0.168   0.029  -0.014
    1UNL     C8   10   0.266   0.076  -0.095
    1UNL     C9   11   0.416   0.115  -0.054
    1UNL     O3   12   0.479   0.003   0.011
    1UNL    C10   13   0.041  -0.030  -0.066
    1UNL     O4   14   0.052  -0.150  -0.148
    1UNL     H1   15  -0.315  -0.186  -0.045
    1UNL     H2   16  -0.230  -0.085  -0.161
    1UNL     H3   17  -0.407  -0.080  -0.122
    1UNL     H4   18  -0.485   0.067   0.027
    1UNL     H5   19  -0.361   0.201  -0.013
    1UNL     H6   20  -0.373   0.138   0.147
    1UNL     H7   21  -0.138   0.102   0.152
    1UNL     H8   22  -0.091  -0.169   0.042
    1UNL     H9   23   0.236   0.098  -0.198
    1UNL    H10   24   0.481   0.155  -0.130
    1UNL    H11   25   0.413   0.196   0.023
    1UNL    H12   26   0.415  -0.020   0.078
    1UNL    H13   27  -0.015   0.039  -0.128
    1UNL    H14   28   0.129  -0.205  -0.131
   0.00000   0.00000   0.00000   0.00000   0.00000   0.00000   0.00000   0.00000   0.00000
Generated with MDTraj, t= 40.0
 28
    1UNL     C1    1  -0.275  -0.073  -0.112
    1UNL     C2    2  -0.271   0.015   0.012
    1UNL     C3    3  -0.400   0.090   0.043
    1UNL     C4    4  -0.167   0.028   0.086
    1UNL     C5    5  -0.039  -0.057   0.069
    1UNL     O1    6   0.053  -0.042   0.182
    1UNL     C6    7   0.187  -0.038   0.130
    1UNL     O2    8   0.292  -0.032   0.193
    1UNL     C7    9   0.175  -0.006  -0.018
    1UNL     C8   10   0.266   0.040  -0.103
    1UNL     C9   11   0.397   0.105  -0.061
    1UNL     O3   12   0.487   0.034   0.016
    1UNL    C10   13   0.036  -0.025  -0.062
    1UNL     O4   14   0.020  -0.136  -0.155
    1UNL     H1   15  -0.241  -0.171  -0.089
    1UNL     H2   16  -0.213  -0.025  -0.181
    1UNL     H3   17  -0.373  -0.092  -0.143
    1UNL     H4   18  -0.485   0.025   0.045
    1UNL     H5   19  -0.416   0.169  -0.029
    1UNL     H6   20  -0.395   0.147   0.138
    1UNL     H7   21  -0.165   0.076   0.184
    1UNL     H8   22  -0.062  -0.163   0.069
    1UNL     H9   23   0.224   0.074  -0.194
    1UNL    H10   24   0.458   0.132  -0.150
    1UNL    H11   25   0.382   0.205  -0.008
    1UNL    H12   26   0.444   0.014   0.108
    1UNL    H13   27   0.008   0.069  -0.111
    1UNL    H14   28   0.093  -0.196  -0.139
   0.00000   0.00000   0.00000   0.00000   0.00000   0.00000   0.00000   0.00000   0.00000
Generated with MDTraj, t= 41.0
 28
    1UNL     C1    1  -0.261  -0.065  -0.117
    1UNL     C2    2  -0.267   0.005   0.013
    1UNL     C3    3  -0.385   0.096   0.051
    1UNL     C4    4  -0.171   0.001   0.097
    1UNL     C5    5  -0.039  -0.070   0.076
    1UNL     O1    6   0.052  -0.038   0.184
    1UNL     C6    7   0.179  -0.023   0.128
    1UNL     O2    8   0.280  -0.000   0.192
    1UNL     C7    9   0.172  -0.004  -0.020
    1UNL     C8   10   0.267   0.044  -0.104
    1UNL     C9   11   0.402   0.100  -0.063
    1UNL     O3   12   0.471   0.009   0.010
    1UNL    C10   13   0.033  -0.032  -0.057
    1UNL     O4   14   0.034  -0.124  -0.167
    1UNL     H1   15  -0.222  -0.165  -0.109
    1UNL     H2   16  -0.204  -0.006  -0.175
    1UNL     H3   17  -0.356  -0.088  -0.157
    1UNL     H4   18  -0.475   0.038   0.070
    1UNL     H5   19  -0.410   0.163  -0.028
    1UNL     H6   20  -0.373   0.168   0.135
    1UNL     H7   21  -0.173   0.044   0.193
    1UNL     H8   22  -0.052  -0.175   0.089
    1UNL     H9   23   0.239   0.054  -0.211
    1UNL    H10   24   0.461   0.138  -0.151
    1UNL    H11   25   0.376   0.191   0.005
    1UNL    H12   26   0.424  -0.004   0.094
    1UNL    H13   27  -0.014   0.064  -0.089
    1UNL    H14   28   0.067  -0.214  -0.144
   0.00000   0.00000   0.00000   0.00000   0.00000   0.00000   0.00000   0.00000   0.00000
Generated with MDTraj, t= 42.0
 28
    1UNL     C1    1  -0.276  -0.062  -0.107
    1UNL     C2    2  -0.267   0.011   0.022
    1UNL     C3    3  -0.387   0.091   0.061
    1UNL     C4    4  -0.160  -0.001   0.093
    1UNL     C5    5  -0.037  -0.080   0.061
    1UNL     O1    6   0.056  -0.071   0.168
    1UNL     C6    7   0.172  -0.009   0.128
    1UNL     O2    8   0.260   0.037   0.200
    1UNL     C7    9   0.168   0.031  -0.014
    1UNL     C8   10   0.265   0.076  -0.096
    1UNL     C9   11   0.412   0.081  -0.069
    1UNL     O3   12   0.450  -0.028   0.010
    1UNL    C10   13   0.038  -0.026  -0.068
    1UNL     O4   14   0.068  -0.130  -0.162
    1UNL     H1   15  -0.215  -0.149  -0.117
    1UNL     H2   16  -0.259   0.014  -0.177
    1UNL     H3   17  -0.369  -0.110  -0.115
    1UNL     H4   18  -0.453   0.024   0.117
    1UNL     H5   19  -0.431   0.120  -0.031
    1UNL     H6   20  -0.364   0.182   0.117
    1UNL     H7   21  -0.147   0.056   0.186
    1UNL     H8   22  -0.065  -0.181   0.045
    1UNL     H9   23   0.232   0.094  -0.194
    1UNL    H10   24   0.466   0.070  -0.169
    1UNL    H11   25   0.445   0.183  -0.021
    1UNL    H12   26   0.383  -0.033   0.079
    1UNL    H13   27  -0.028   0.047  -0.123
    1UNL    H14   28   0.117  -0.207  -0.119
   0.00000   0.00000   0.00000   0.00000   0.00000   0.00000   0.00000   0.00000   0.00000
Generated with MDTraj, t= 43.0
 28
    1UNL     C1    1  -0.295  -0.068  -0.109
    1UNL     C2    2  -0.273   0.006   0.023
    1UNL     C3    3  -0.397   0.082   0.068
    1UNL     C4    4  -0.165   0.000   0.095
    1UNL     C5    5  -0.036  -0.075   0.059
    1UNL     O1    6   0.065  -0.061   0.164
    1UNL     C6    7   0.176  -0.003   0.122
    1UNL     O2    8   0.261   0.052   0.192
    1UNL     C7    9   0.177   0.011  -0.027
    1UNL     C8   10   0.286   0.052  -0.094
    1UNL     C9   11   0.416   0.082  -0.037
    1UNL     O3   12   0.492  -0.027   0.026
    1UNL    C10   13   0.034  -0.026  -0.076
    1UNL     O4   14   0.023  -0.118  -0.185
    1UNL     H1   15  -0.217  -0.132  -0.130
    1UNL     H2   16  -0.315   0.012  -0.182
    1UNL     H3   17  -0.370  -0.139  -0.095
    1UNL     H4   18  -0.413   0.060   0.175
    1UNL     H5   19  -0.475   0.048   0.001
    1UNL     H6   20  -0.390   0.189   0.054
    1UNL     H7   21  -0.156   0.060   0.179
    1UNL     H8   22  -0.056  -0.180   0.054
    1UNL     H9   23   0.272   0.056  -0.204
    1UNL    H10   24   0.488   0.123  -0.113
    1UNL    H11   25   0.405   0.172   0.037
    1UNL    H12   26   0.444  -0.050   0.115
    1UNL    H13   27  -0.008   0.072  -0.113
    1UNL    H14   28   0.056  -0.206  -0.147
   0.00000   0.00000   0.00000   0.00000   0.00000   0.00000   0.00000   0.00000   0.00000
Generated with MDTraj, t= 44.0
 28
    1UNL     C1    1  -0.285  -0.085  -0.105
    1UNL     C2    2  -0.278   0.007   0.012
    1UNL     C3    3  -0.407   0.070   0.054
    1UNL     C4    4  -0.167   0.014   0.085
    1UNL     C5    5  -0.034  -0.061   0.063
    1UNL     O1    6   0.052  -0.042   0.176
    1UNL     C6    7   0.180  -0.006   0.133
    1UNL     O2    8   0.280  -0.005   0.207
    1UNL     C7    9   0.182   0.022  -0.014
    1UNL     C8   10   0.280   0.048  -0.102
    1UNL     C9   11   0.423   0.069  -0.078
    1UNL     O3   12   0.472  -0.007   0.031
    1UNL    C10   13   0.042  -0.013  -0.064
    1UNL     O4   14   0.029  -0.097  -0.177
    1UNL     H1   15  -0.192  -0.107  -0.145
    1UNL     H2   16  -0.358  -0.057  -0.182
    1UNL     H3   17  -0.306  -0.179  -0.067
    1UNL     H4   18  -0.397   0.108   0.158
    1UNL     H5   19  -0.493   0.002   0.037
    1UNL     H6   20  -0.438   0.155  -0.002
    1UNL     H7   21  -0.156   0.092   0.163
    1UNL     H8   22  -0.047  -0.168   0.059
    1UNL     H9   23   0.242   0.031  -0.198
    1UNL    H10   24   0.474   0.040  -0.171
    1UNL    H11   25   0.452   0.176  -0.055
    1UNL    H12   26   0.415   0.006   0.106
    1UNL    H13   27  -0.010   0.082  -0.097
    1UNL    H14   28   0.063  -0.187  -0.157
   0.00000   0.00000   0.00000   0.00000   0.00000   0.00000   0.00000   0.00000   0.00000
Generated with MDTraj, t= 45.0
 28
    1UNL     C1    1  -0.279  -0.107  -0.091
    1UNL     C2    2  -0.272   0.000   0.010
    1UNL     C3    3  -0.399   0.072   0.024
    1UNL     C4    4  -0.169   0.019   0.095
    1UNL     C5    5  -0.034  -0.045   0.073
    1UNL     O1    6   0.053  -0.030   0.178
    1UNL     C6    7   0.180  -0.009   0.132
    1UNL     O2    8   0.288  -0.017   0.195
    1UNL     C7    9   0.172   0.020  -0.014
    1UNL     C8   10   0.272   0.054  -0.099
    1UNL     C9   11   0.407   0.078  -0.052
    1UNL     O3   12   0.479  -0.027   0.007
    1UNL    C10   13   0.034  -0.001  -0.058
    1UNL     O4   14   0.030  -0.087  -0.169
    1UNL     H1   15  -0.235  -0.085  -0.185
    1UNL     H2   16  -0.380  -0.141  -0.105
    1UNL     H3   17  -0.228  -0.194  -0.061
    1UNL     H4   18  -0.388   0.140   0.109
    1UNL     H5   19  -0.488   0.005   0.027
    1UNL     H6   20  -0.427   0.140  -0.055
    1UNL     H7   21  -0.167   0.093   0.168
    1UNL     H8   22  -0.046  -0.154   0.065
    1UNL     H9   23   0.257   0.047  -0.211
    1UNL    H10   24   0.470   0.109  -0.132
    1UNL    H11   25   0.391   0.160   0.020
    1UNL    H12   26   0.426  -0.071   0.076
    1UNL    H13   27  -0.012   0.096  -0.088
    1UNL    H14   28   0.073  -0.171  -0.155
   0.00000   0.00000   0.00000   0.00000   0.00000   0.00000   0.00000   0.00000   0.00000
Generated with MDTraj, t= 46.0
 28
    1UNL     C1    1  -0.280  -0.112  -0.086
    1UNL     C2    2  -0.275  -0.001   0.011
    1UNL     C3    3  -0.403   0.078   0.034
    1UNL     C4    4  -0.166   0.025   0.087
    1UNL     C5    5  -0.038  -0.048   0.066
    1UNL     O1    6   0.051  -0.053   0.171
    1UNL     C6    7   0.175  -0.007   0.127
    1UNL     O2    8   0.281   0.007   0.188
    1UNL     C7    9   0.177   0.025  -0.015
    1UNL     C8   10   0.281   0.064  -0.097
    1UNL     C9   11   0.413   0.080  -0.040
    1UNL     O3   12   0.479  -0.040  -0.002
    1UNL    C10   13   0.035   0.002  -0.059
    1UNL     O4   14   0.034  -0.096  -0.160
    1UNL     H1   15  -0.192  -0.101  -0.151
    1UNL     H2   16  -0.373  -0.108  -0.136
    1UNL     H3   17  -0.284  -0.209  -0.040
    1UNL     H4   18  -0.383   0.152   0.111
    1UNL     H5   19  -0.489   0.007   0.044
    1UNL     H6   20  -0.434   0.137  -0.053
    1UNL     H7   21  -0.171   0.103   0.162
    1UNL     H8   22  -0.062  -0.156   0.042
    1UNL     H9   23   0.267   0.045  -0.199
    1UNL    H10   24   0.468   0.136  -0.110
    1UNL    H11   25   0.402   0.130   0.052
    1UNL    H12   26   0.443  -0.071   0.087
    1UNL    H13   27  -0.010   0.099  -0.088
    1UNL    H14   28   0.094  -0.164  -0.131
   0.00000   0.00000   0.00000   0.00000   0.00000   0.00000   0.00000   0.00000   0.00000
Generated with MDTraj, t= 47.0
 28
    1UNL     C1    1  -0.304  -0.099  -0.104
    1UNL     C2    2  -0.283  -0.003   0.013
    1UNL     C3    3  -0.391   0.083   0.076
    1UNL     C4    4  -0.162   0.017   0.070
    1UNL     C5    5  -0.036  -0.060   0.052
    1UNL     O1    6   0.053  -0.053   0.165
    1UNL     C6    7   0.180  -0.009   0.128
    1UNL     O2    8   0.275   0.015   0.202
    1UNL     C7    9   0.183   0.020  -0.017
    1UNL     C8   10   0.280   0.072  -0.096
    1UNL     C9   11   0.418   0.075  -0.062
    1UNL     O3   12   0.467  -0.025   0.035
    1UNL    C10   13   0.044  -0.006  -0.073
    1UNL     O4   14   0.041  -0.110  -0.170
    1UNL     H1   15  -0.207  -0.104  -0.157
    1UNL     H2   16  -0.380  -0.064  -0.163
    1UNL     H3   17  -0.355  -0.196  -0.081
    1UNL     H4   18  -0.348   0.159   0.139
    1UNL     H5   19  -0.465   0.014   0.119
    1UNL     H6   20  -0.443   0.137  -0.007
    1UNL     H7   21  -0.162   0.079   0.159
    1UNL     H8   22  -0.057  -0.172   0.040
    1UNL     H9   23   0.248   0.082  -0.204
    1UNL    H10   24   0.469   0.038  -0.146
    1UNL    H11   25   0.446   0.174  -0.038
    1UNL    H12   26   0.417  -0.009   0.112
    1UNL    H13   27   0.004   0.088  -0.113
    1UNL    H14   28   0.104  -0.183  -0.151
   0.00000   0.00000   0.00000   0.00000   0.00000   0.00000   0.00000   0.00000   0.00000
Generated with MDTraj, t= 48.0
 28
    1UNL     C1    1  -0.288  -0.075  -0.105
    1UNL     C2    2  -0.271   0.003   0.020
    1UNL     C3    3  -0.384   0.081   0.074
    1UNL     C4    4  -0.153   0.018   0.080
    1UNL     C5    5  -0.035  -0.069   0.053
    1UNL     O1    6   0.056  -0.062   0.164
    1UNL     C6    7   0.174  -0.011   0.125
    1UNL     O2    8   0.259   0.032   0.198
    1UNL     C7    9   0.176  -0.002  -0.020
    1UNL     C8   10   0.279   0.038  -0.098
    1UNL     C9   11   0.408   0.084  -0.051
    1UNL     O3   12   0.486  -0.006   0.040
    1UNL    C10   13   0.039  -0.023  -0.074
    1UNL     O4   14   0.025  -0.104  -0.187
    1UNL     H1   15  -0.206  -0.043  -0.169
    1UNL     H2   16  -0.382  -0.057  -0.153
    1UNL     H3   17  -0.298  -0.187  -0.103
    1UNL     H4   18  -0.359   0.184   0.099
    1UNL     H5   19  -0.432   0.037   0.162
    1UNL     H6   20  -0.458   0.096  -0.011
    1UNL     H7   21  -0.154   0.079   0.167
    1UNL     H8   22  -0.067  -0.179   0.054
    1UNL     H9   23   0.257   0.027  -0.200
    1UNL    H10   24   0.465   0.106  -0.137
    1UNL    H11   25   0.396   0.171   0.009
    1UNL    H12   26   0.431   0.003   0.126
    1UNL    H13   27  -0.004   0.073  -0.093
    1UNL    H14   28   0.078  -0.191  -0.186
   0.00000   0.00000   0.00000   0.00000   0.00000   0.00000   0.00000   0.00000   0.00000
Generated with MDTraj, t= 49.0
 28
    1UNL     C1    1  -0.271  -0.067  -0.107
    1UNL     C2    2  -0.275   0.006   0.021
    1UNL     C3    3  -0.388   0.092   0.042
    1UNL     C4    4  -0.166   0.005   0.099
    1UNL     C5    5  -0.040  -0.073   0.068
    1UNL     O1    6   0.048  -0.069   0.175
    1UNL     C6    7   0.169  -0.012   0.128
    1UNL     O2    8   0.269   0.002   0.193
    1UNL     C7    9   0.163   0.033  -0.013
    1UNL     C8   10   0.273   0.060  -0.094
    1UNL     C9   11   0.414   0.092  -0.061
    1UNL     O3   12   0.480  -0.011   0.010
    1UNL    C10   13   0.033  -0.026  -0.060
    1UNL     O4   14   0.049  -0.114  -0.167
    1UNL     H1   15  -0.205  -0.014  -0.172
    1UNL     H2   16  -0.373  -0.082  -0.158
    1UNL     H3   17  -0.244  -0.174  -0.104
    1UNL     H4   18  -0.368   0.197   0.016
    1UNL     H5   19  -0.422   0.104   0.144
    1UNL     H6   20  -0.469   0.069  -0.034
    1UNL     H7   21  -0.179   0.054   0.197
    1UNL     H8   22  -0.061  -0.184   0.051
    1UNL     H9   23   0.254   0.030  -0.200
    1UNL    H10   24   0.474   0.085  -0.150
    1UNL    H11   25   0.425   0.189  -0.012
    1UNL    H12   26   0.425  -0.010   0.097
    1UNL    H13   27  -0.023   0.055  -0.101
    1UNL    H14   28   0.123  -0.177  -0.143
   0.00000   0.00000   0.00000   0.00000   0.00000   0.00000   0.00000   0.00000   0.00000
Generated with MDTraj, t= 50.0
 28
    1UNL     C1    1  -0.264  -0.072  -0.118
    1UNL     C2    2  -0.270   0.016   0.004
    1UNL     C3    3  -0.395   0.092   0.035
    1UNL     C4    4  -0.166   0.006   0.093
    1UNL     C5    5  -0.037  -0.067   0.071
    1UNL     O1    6   0.054  -0.041   0.177
    1UNL     C6    7   0.183  -0.023   0.131
    1UNL     O2    8   0.286  -0.022   0.193
    1UNL     C7    9   0.168   0.015  -0.015
    1UNL     C8   10   0.261   0.089  -0.085
    1UNL     C9   11   0.405   0.100  -0.049
    1UNL     O3   12   0.477  -0.012  -0.000
    1UNL    C10   13   0.032  -0.029  -0.059
    1UNL     O4   14   0.026  -0.133  -0.152
    1UNL     H1   15  -0.222  -0.016  -0.201
    1UNL     H2   16  -0.368  -0.113  -0.144
    1UNL     H3   17  -0.209  -0.165  -0.103
    1UNL     H4   18  -0.401   0.186  -0.027
    1UNL     H5   19  -0.395   0.137   0.134
    1UNL     H6   20  -0.482   0.036  -0.006
    1UNL     H7   21  -0.191   0.040   0.188
    1UNL     H8   22  -0.050  -0.178   0.069
    1UNL     H9   23   0.233   0.118  -0.184
    1UNL    H10   24   0.460   0.143  -0.136
    1UNL    H11   25   0.410   0.165   0.043
    1UNL    H12   26   0.429  -0.031   0.078
    1UNL    H13   27  -0.019   0.054  -0.104
    1UNL    H14   28   0.094  -0.201  -0.131
   0.00000   0.00000   0.00000   0.00000   0.00000   0.00000   0.00000   0.00000   0.00000
Generated with MDTraj, t= 51.0
 28
    1UNL     C1    1  -0.276  -0.072  -0.113
    1UNL     C2    2  -0.273   0.024  -0.001
    1UNL     C3    3  -0.396   0.089   0.050
    1UNL     C4    4  -0.167   0.024   0.084
    1UNL     C5    5  -0.044  -0.062   0.068
    1UNL     O1    6   0.048  -0.055   0.181
    1UNL     C6    7   0.179  -0.032   0.132
    1UNL     O2    8   0.279  -0.023   0.199
    1UNL     C7    9   0.183  -0.005  -0.017
    1UNL     C8   10   0.271   0.067  -0.093
    1UNL     C9   11   0.405   0.112  -0.052
    1UNL     O3   12   0.488   0.009   0.007
    1UNL    C10   13   0.045  -0.029  -0.062
    1UNL     O4   14   0.027  -0.131  -0.162
    1UNL     H1   15  -0.256  -0.022  -0.212
    1UNL     H2   16  -0.382  -0.109  -0.117
    1UNL     H3   17  -0.220  -0.166  -0.096
    1UNL     H4   18  -0.418   0.173  -0.023
    1UNL     H5   19  -0.370   0.147   0.140
    1UNL     H6   20  -0.480   0.019   0.041
    1UNL     H7   21  -0.191   0.067   0.185
    1UNL     H8   22  -0.074  -0.168   0.065
    1UNL     H9   23   0.236   0.080  -0.196
    1UNL    H10   24   0.466   0.139  -0.143
    1UNL    H11   25   0.391   0.202   0.018
    1UNL    H12   26   0.452  -0.013   0.101
    1UNL    H13   27  -0.003   0.060  -0.101
    1UNL    H14   28   0.083  -0.207  -0.148
   0.00000   0.00000   0.00000   0.00000   0.00000   0.00000   0.00000   0.00000   0.00000
Generated with MDTraj, t= 52.0
 28
    1UNL     C1    1  -0.292  -0.069  -0.095
    1UNL     C2    2  -0.274   0.013   0.020
    1UNL     C3    3  -0.376   0.108   0.058
    1UNL     C4    4  -0.161   0.002   0.091
    1UNL     C5    5  -0.045  -0.086   0.052
    1UNL     O1    6   0.047  -0.075   0.162
    1UNL     C6    7   0.164  -0.019   0.123
    1UNL     O2    8   0.262   0.005   0.189
    1UNL     C7    9   0.170   0.020  -0.018
    1UNL     C8   10   0.274   0.053  -0.100
    1UNL     C9   11   0.413   0.097  -0.061
    1UNL     O3   12   0.483   0.012   0.041
    1UNL    C10   13   0.036  -0.028  -0.066
    1UNL     O4   14   0.055  -0.126  -0.172
    1UNL     H1   15  -0.248  -0.020  -0.190
    1UNL     H2   16  -0.397  -0.076  -0.120
    1UNL     H3   17  -0.256  -0.176  -0.078
    1UNL     H4   18  -0.398   0.166  -0.035
    1UNL     H5   19  -0.338   0.190   0.124
    1UNL     H6   20  -0.470   0.062   0.086
    1UNL     H7   21  -0.151   0.061   0.177
    1UNL     H8   22  -0.061  -0.191   0.040
    1UNL     H9   23   0.246   0.043  -0.203
    1UNL    H10   24   0.480   0.108  -0.153
    1UNL    H11   25   0.407   0.199  -0.006
    1UNL    H12   26   0.415  -0.019   0.107
    1UNL    H13   27  -0.012   0.062  -0.108
    1UNL    H14   28   0.126  -0.184  -0.147
   0.00000   0.00000   0.00000   0.00000   0.00000   0.00000   0.00000   0.00000   0.00000
Generated with MDTraj, t= 53.0
 28
    1UNL     C1    1  -0.289  -0.078  -0.101
    1UNL     C2    2  -0.263   0.013   0.022
    1UNL     C3    3  -0.366   0.107   0.067
    1UNL     C4    4  -0.147   0.016   0.093
    1UNL     C5    5  -0.040  -0.081   0.049
    1UNL     O1    6   0.052  -0.077   0.157
    1UNL     C6    7   0.171  -0.016   0.124
    1UNL     O2    8   0.263   0.021   0.198
    1UNL     C7    9   0.164   0.013  -0.022
    1UNL     C8   10   0.264   0.061  -0.096
    1UNL     C9   11   0.396   0.094  -0.038
    1UNL     O3   12   0.470   0.001   0.038
    1UNL    C10   13   0.033  -0.035  -0.080
    1UNL     O4   14   0.050  -0.131  -0.186
    1UNL     H1   15  -0.197  -0.086  -0.170
    1UNL     H2   16  -0.359  -0.034  -0.172
    1UNL     H3   17  -0.324  -0.184  -0.073
    1UNL     H4   18  -0.429   0.141  -0.016
    1UNL     H5   19  -0.334   0.205   0.113
    1UNL     H6   20  -0.434   0.062   0.139
    1UNL     H7   21  -0.128   0.087   0.176
    1UNL     H8   22  -0.070  -0.182   0.034
    1UNL     H9   23   0.242   0.071  -0.201
    1UNL    H10   24   0.467   0.111  -0.127
    1UNL    H11   25   0.385   0.190   0.024
    1UNL    H12   26   0.418  -0.029   0.109
    1UNL    H13   27  -0.022   0.051  -0.126
    1UNL    H14   28   0.124  -0.187  -0.157
   0.00000   0.00000   0.00000   0.00000   0.00000   0.00000   0.00000   0.00000   0.00000
Generated with MDTraj, t= 54.0
 28
    1UNL     C1    1  -0.304  -0.080  -0.111
    1UNL     C2    2  -0.283   0.012   0.011
    1UNL     C3    3  -0.391   0.099   0.062
    1UNL     C4    4  -0.160   0.015   0.071
    1UNL     C5    5  -0.036  -0.078   0.055
    1UNL     O1    6   0.052  -0.065   0.169
    1UNL     C6    7   0.176  -0.017   0.136
    1UNL     O2    8   0.277  -0.001   0.207
    1UNL     C7    9   0.174   0.016  -0.012
    1UNL     C8   10   0.272   0.073  -0.084
    1UNL     C9   11   0.416   0.102  -0.045
    1UNL     O3   12   0.484  -0.004   0.007
    1UNL    C10   13   0.045  -0.032  -0.069
    1UNL     O4   14   0.040  -0.127  -0.172
    1UNL     H1   15  -0.204  -0.124  -0.136
    1UNL     H2   16  -0.332  -0.020  -0.205
    1UNL     H3   17  -0.380  -0.161  -0.091
    1UNL     H4   18  -0.489   0.071   0.028
    1UNL     H5   19  -0.370   0.209   0.041
    1UNL     H6   20  -0.384   0.096   0.173
    1UNL     H7   21  -0.146   0.096   0.139
    1UNL     H8   22  -0.061  -0.181   0.046
    1UNL     H9   23   0.252   0.069  -0.191
    1UNL    H10   24   0.469   0.143  -0.136
    1UNL    H11   25   0.412   0.181   0.035
    1UNL    H12   26   0.418  -0.020   0.087
    1UNL    H13   27  -0.018   0.053  -0.109
    1UNL    H14   28   0.104  -0.203  -0.158
   0.00000   0.00000   0.00000   0.00000   0.00000   0.00000   0.00000   0.00000   0.00000
Generated with MDTraj, t= 55.0
 28
    1UNL     C1    1  -0.283  -0.083  -0.100
    1UNL     C2    2  -0.270   0.015   0.003
    1UNL     C3    3  -0.401   0.076   0.029
    1UNL     C4    4  -0.168   0.021   0.091
    1UNL     C5    5  -0.036  -0.053   0.070
    1UNL     O1    6   0.053  -0.055   0.181
    1UNL     C6    7   0.175  -0.030   0.123
    1UNL     O2    8   0.281  -0.035   0.184
    1UNL     C7    9   0.173   0.019  -0.021
    1UNL     C8   10   0.273   0.073  -0.092
    1UNL     C9   11   0.419   0.102  -0.049
    1UNL     O3   12   0.490  -0.004   0.019
    1UNL    C10   13   0.033  -0.011  -0.061
    1UNL     O4   14   0.022  -0.114  -0.154
    1UNL     H1   15  -0.185  -0.120  -0.138
    1UNL     H2   16  -0.338  -0.044  -0.197
    1UNL     H3   17  -0.337  -0.173  -0.062
    1UNL     H4   18  -0.477  -0.000   0.032
    1UNL     H5   19  -0.420   0.169  -0.034
    1UNL     H6   20  -0.388   0.125   0.130
    1UNL     H7   21  -0.179   0.089   0.173
    1UNL     H8   22  -0.044  -0.162   0.059
    1UNL     H9   23   0.246   0.094  -0.192
    1UNL    H10   24   0.480   0.115  -0.139
    1UNL    H11   25   0.425   0.196   0.005
    1UNL    H12   26   0.425  -0.034   0.083
    1UNL    H13   27  -0.014   0.082  -0.106
    1UNL    H14   28   0.088  -0.189  -0.131
   0.00000   0.00000   0.00000   0.00000   0.00000   0.00000   0.00000   0.00000   0.00000
Generated with MDTraj, t= 56.0
 28
    1UNL     C1    1  -0.285  -0.094  -0.099
    1UNL     C2    2  -0.266   0.016   0.004
    1UNL     C3    3  -0.391   0.091   0.037
    1UNL     C4    4  -0.169   0.008   0.091
    1UNL     C5    5  -0.038  -0.064   0.063
    1UNL     O1    6   0.050  -0.048   0.177
    1UNL     C6    7   0.176  -0.024   0.131
    1UNL     O2    8   0.279  -0.023   0.197
    1UNL     C7    9   0.175   0.012  -0.013
    1UNL     C8   10   0.271   0.057  -0.094
    1UNL     C9   11   0.408   0.097  -0.050
    1UNL     O3   12   0.483  -0.007   0.015
    1UNL    C10   13   0.031  -0.008  -0.064
    1UNL     O4   14   0.038  -0.099  -0.174
    1UNL     H1   15  -0.292  -0.055  -0.206
    1UNL     H2   16  -0.388  -0.141  -0.081
    1UNL     H3   17  -0.204  -0.176  -0.088
    1UNL     H4   18  -0.468   0.026   0.081
    1UNL     H5   19  -0.426   0.160  -0.043
    1UNL     H6   20  -0.375   0.170   0.116
    1UNL     H7   21  -0.175   0.074   0.177
    1UNL     H8   22  -0.045  -0.175   0.057
    1UNL     H9   23   0.241   0.058  -0.200
    1UNL    H10   24   0.467   0.135  -0.131
    1UNL    H11   25   0.402   0.171   0.025
    1UNL    H12   26   0.433  -0.051   0.091
    1UNL    H13   27  -0.011   0.092  -0.093
    1UNL    H14   28   0.114  -0.160  -0.152
   0.00000   0.00000   0.00000   0.00000   0.00000   0.00000   0.00000   0.00000   0.00000
Generated with MDTraj, t= 57.0
 28
    1UNL     C1    1  -0.285  -0.084  -0.101
    1UNL     C2    2  -0.272   0.013   0.017
    1UNL     C3    3  -0.385   0.098   0.064
    1UNL     C4    4  -0.160   0.015   0.078
    1UNL     C5    5  -0.042  -0.079   0.053
    1UNL     O1    6   0.053  -0.073   0.164
    1UNL     C6    7   0.172  -0.012   0.133
    1UNL     O2    8   0.266   0.015   0.205
    1UNL     C7    9   0.176   0.017  -0.015
    1UNL     C8   10   0.277   0.055  -0.095
    1UNL     C9   11   0.411   0.090  -0.045
    1UNL     O3   12   0.462  -0.018   0.026
    1UNL    C10   13   0.039  -0.019  -0.072
    1UNL     O4   14   0.050  -0.103  -0.187
    1UNL     H1   15  -0.361  -0.165  -0.069
    1UNL     H2   16  -0.191  -0.134  -0.130
    1UNL     H3   17  -0.325  -0.030  -0.197
    1UNL     H4   18  -0.431   0.044   0.152
    1UNL     H5   19  -0.452   0.113  -0.021
    1UNL     H6   20  -0.364   0.201   0.102
    1UNL     H7   21  -0.143   0.096   0.144
    1UNL     H8   22  -0.078  -0.185   0.041
    1UNL     H9   23   0.271   0.042  -0.198
    1UNL    H10   24   0.483   0.104  -0.122
    1UNL    H11   25   0.403   0.174   0.017
    1UNL    H12   26   0.425  -0.035   0.119
    1UNL    H13   27  -0.017   0.072  -0.104
    1UNL    H14   28   0.119  -0.172  -0.179
   0.00000   0.00000   0.00000   0.00000   0.00000   0.00000   0.00000   0.00000   0.00000
Generated with MDTraj, t= 58.0
 28
    1UNL     C1    1  -0.312  -0.055  -0.107
    1UNL     C2    2  -0.278   0.004   0.026
    1UNL     C3    3  -0.389   0.089   0.066
    1UNL     C4    4  -0.162   0.008   0.083
    1UNL     C5    5  -0.034  -0.066   0.050
    1UNL     O1    6   0.058  -0.075   0.155
    1UNL     C6    7   0.175  -0.010   0.122
    1UNL     O2    8   0.263   0.026   0.195
    1UNL     C7    9   0.177   0.017  -0.023
    1UNL     C8   10   0.279   0.063  -0.093
    1UNL     C9   11   0.421   0.082  -0.039
    1UNL     O3   12   0.475  -0.022   0.045
    1UNL    C10   13   0.043  -0.021  -0.077
    1UNL     O4   14   0.047  -0.126  -0.179
    1UNL     H1   15  -0.232  -0.032  -0.188
    1UNL     H2   16  -0.410  -0.027  -0.152
    1UNL     H3   17  -0.313  -0.171  -0.104
    1UNL     H4   18  -0.427   0.058   0.169
    1UNL     H5   19  -0.464   0.068  -0.011
    1UNL     H6   20  -0.373   0.198   0.064
    1UNL     H7   21  -0.147   0.081   0.166
    1UNL     H8   22  -0.066  -0.173   0.024
    1UNL     H9   23   0.262   0.099  -0.198
    1UNL    H10   24   0.492   0.100  -0.118
    1UNL    H11   25   0.424   0.164   0.027
    1UNL    H12   26   0.426  -0.046   0.122
    1UNL    H13   27  -0.011   0.066  -0.118
    1UNL    H14   28   0.114  -0.190  -0.158
   0.00000   0.00000   0.00000   0.00000   0.00000   0.00000   0.00000   0.00000   0.00000
Generated with MDTraj, t= 59.0
 28
    1UNL     C1    1  -0.283  -0.063  -0.118
    1UNL     C2    2  -0.282   0.016   0.014
    1UNL     C3    3  -0.401   0.096   0.050
    1UNL     C4    4  -0.171   0.016   0.080
    1UNL     C5    5  -0.041  -0.064   0.058
    1UNL     O1    6   0.053  -0.075   0.169
    1UNL     C6    7   0.178  -0.018   0.135
    1UNL     O2    8   0.274   0.001   0.204
    1UNL     C7    9   0.179   0.014  -0.012
    1UNL     C8   10   0.278   0.055  -0.092
    1UNL     C9   11   0.417   0.088  -0.052
    1UNL     O3   12   0.481  -0.012   0.024
    1UNL    C10   13   0.045  -0.023  -0.062
    1UNL     O4   14   0.032  -0.117  -0.170
    1UNL     H1   15  -0.376  -0.126  -0.148
    1UNL     H2   16  -0.195  -0.136  -0.124
    1UNL     H3   17  -0.269   0.012  -0.200
    1UNL     H4   18  -0.425   0.099   0.162
    1UNL     H5   19  -0.487   0.048   0.001
    1UNL     H6   20  -0.400   0.200   0.015
    1UNL     H7   21  -0.159   0.080   0.162
    1UNL     H8   22  -0.055  -0.178   0.045
    1UNL     H9   23   0.258   0.078  -0.191
    1UNL    H10   24   0.484   0.092  -0.139
    1UNL    H11   25   0.428   0.185  -0.004
    1UNL    H12   26   0.428  -0.024   0.112
    1UNL    H13   27   0.008   0.073  -0.098
    1UNL    H14   28   0.096  -0.187  -0.155
   0.00000   0.00000   0.00000   0.00000   0.00000   0.00000   0.00000   0.00000   0.00000
Generated with MDTraj, t= 60.0
 28
    1UNL     C1    1  -0.261  -0.076  -0.121
    1UNL     C2    2  -0.264   0.008   0.006
    1UNL     C3    3  -0.382   0.100   0.027
    1UNL     C4    4  -0.172   0.014   0.094
    1UNL     C5    5  -0.044  -0.063   0.071
    1UNL     O1    6   0.047  -0.042   0.184
    1UNL     C6    7   0.177  -0.024   0.135
    1UNL     O2    8   0.276  -0.037   0.202
    1UNL     C7    9   0.177   0.004  -0.011
    1UNL     C8   10   0.266   0.053  -0.095
    1UNL     C9   11   0.402   0.089  -0.053
    1UNL     O3   12   0.473  -0.010   0.012
    1UNL    C10   13   0.039  -0.012  -0.059
    1UNL     O4   14   0.030  -0.099  -0.168
    1UNL     H1   15  -0.154  -0.100  -0.147
    1UNL     H2   16  -0.298  -0.018  -0.215
    1UNL     H3   17  -0.323  -0.167  -0.110
    1UNL     H4   18  -0.385   0.138   0.133
    1UNL     H5   19  -0.485   0.054   0.025
    1UNL     H6   20  -0.384   0.194  -0.032
    1UNL     H7   21  -0.185   0.076   0.186
    1UNL     H8   22  -0.053  -0.177   0.065
    1UNL     H9   23   0.235   0.074  -0.200
    1UNL    H10   24   0.465   0.131  -0.136
    1UNL    H11   25   0.395   0.171   0.021
    1UNL    H12   26   0.427  -0.026   0.096
    1UNL    H13   27  -0.011   0.079  -0.087
    1UNL    H14   28   0.102  -0.167  -0.165
   0.00000   0.00000   0.00000   0.00000   0.00000   0.00000   0.00000   0.00000   0.00000
Generated with MDTraj, t= 61.0
 28
    1UNL     C1    1  -0.288  -0.085  -0.103
    1UNL     C2    2  -0.268   0.014   0.010
    1UNL     C3    3  -0.388   0.099   0.034
    1UNL     C4    4  -0.166   0.023   0.090
    1UNL     C5    5  -0.044  -0.057   0.054
    1UNL     O1    6   0.043  -0.051   0.165
    1UNL     C6    7   0.168  -0.025   0.131
    1UNL     O2    8   0.270  -0.028   0.195
    1UNL     C7    9   0.177   0.012  -0.018
    1UNL     C8   10   0.277   0.064  -0.088
    1UNL     C9   11   0.416   0.093  -0.030
    1UNL     O3   12   0.484  -0.024   0.016
    1UNL    C10   13   0.040  -0.007  -0.072
    1UNL     O4   14   0.040  -0.111  -0.163
    1UNL     H1   15  -0.274  -0.035  -0.199
    1UNL     H2   16  -0.396  -0.129  -0.108
    1UNL     H3   17  -0.222  -0.177  -0.097
    1UNL     H4   18  -0.372   0.138   0.135
    1UNL     H5   19  -0.485   0.040   0.049
    1UNL     H6   20  -0.386   0.183  -0.041
    1UNL     H7   21  -0.166   0.078   0.180
    1UNL     H8   22  -0.062  -0.167   0.039
    1UNL     H9   23   0.267   0.089  -0.189
    1UNL    H10   24   0.481   0.138  -0.113
    1UNL    H11   25   0.411   0.178   0.045
    1UNL    H12   26   0.437  -0.043   0.101
    1UNL    H13   27  -0.011   0.078  -0.115
    1UNL    H14   28   0.111  -0.177  -0.132
   0.00000   0.00000   0.00000   0.00000   0.00000   0.00000   0.00000   0.00000   0.00000
Generated with MDTraj, t= 62.0
 28
    1UNL     C1    1  -0.309  -0.085  -0.092
    1UNL     C2    2  -0.283   0.019   0.010
    1UNL     C3    3  -0.395   0.108   0.060
    1UNL     C4    4  -0.164   0.029   0.062
    1UNL     C5    5  -0.039  -0.065   0.043
    1UNL     O1    6   0.049  -0.080   0.152
    1UNL     C6    7   0.168  -0.015   0.125
    1UNL     O2    8   0.255  -0.002   0.210
    1UNL     C7    9   0.183   0.026  -0.020
    1UNL     C8   10   0.291   0.066  -0.087
    1UNL     C9   11   0.433   0.093  -0.029
    1UNL     O3   12   0.484  -0.028   0.029
    1UNL    C10   13   0.047  -0.018  -0.076
    1UNL     O4   14   0.042  -0.121  -0.174
    1UNL     H1   15  -0.396  -0.063  -0.155
    1UNL     H2   16  -0.322  -0.187  -0.046
    1UNL     H3   17  -0.217  -0.096  -0.162
    1UNL     H4   18  -0.361   0.123   0.161
    1UNL     H5   19  -0.494   0.051   0.077
    1UNL     H6   20  -0.394   0.204  -0.000
    1UNL     H7   21  -0.148   0.107   0.136
    1UNL     H8   22  -0.057  -0.169   0.014
    1UNL     H9   23   0.282   0.066  -0.197
    1UNL    H10   24   0.509   0.127  -0.108
    1UNL    H11   25   0.436   0.180   0.045
    1UNL    H12   26   0.425  -0.042   0.112
    1UNL    H13   27  -0.008   0.067  -0.116
    1UNL    H14   28   0.083  -0.197  -0.124
   0.00000   0.00000   0.00000   0.00000   0.00000   0.00000   0.00000   0.00000   0.00000
Generated with MDTraj, t= 63.0
 28
    1UNL     C1    1  -0.321  -0.088  -0.085
    1UNL     C2    2  -0.272   0.009   0.015
    1UNL     C3    3  -0.371   0.115   0.057
    1UNL     C4    4  -0.154   0.017   0.068
    1UNL     C5    5  -0.034  -0.069   0.033
    1UNL     O1    6   0.051  -0.072   0.152
    1UNL     C6    7   0.172  -0.014   0.130
    1UNL     O2    8   0.258   0.003   0.218
    1UNL     C7    9   0.179   0.014  -0.020
    1UNL     C8   10   0.283   0.050  -0.089
    1UNL     C9   11   0.418   0.076  -0.038
    1UNL     O3   12   0.474  -0.012   0.052
    1UNL    C10   13   0.045  -0.009  -0.084
    1UNL     O4   14   0.039  -0.109  -0.193
    1UNL     H1   15  -0.433  -0.098  -0.081
    1UNL     H2   16  -0.270  -0.182  -0.063
    1UNL     H3   17  -0.287  -0.058  -0.190
    1UNL     H4   18  -0.382   0.117   0.165
    1UNL     H5   19  -0.480   0.089   0.030
    1UNL     H6   20  -0.350   0.217   0.010
    1UNL     H7   21  -0.140   0.085   0.151
    1UNL     H8   22  -0.044  -0.174   0.015
    1UNL     H9   23   0.270   0.066  -0.193
    1UNL    H10   24   0.491   0.090  -0.124
    1UNL    H11   25   0.418   0.177   0.010
    1UNL    H12   26   0.419  -0.010   0.131
    1UNL    H13   27   0.001   0.089  -0.112
    1UNL    H14   28   0.083  -0.193  -0.172
   0.00000   0.00000   0.00000   0.00000   0.00000   0.00000   0.00000   0.00000   0.00000
Generated with MDTraj, t= 64.0
 28
    1UNL     C1    1  -0.293  -0.090  -0.094
    1UNL     C2    2  -0.274   0.013   0.022
    1UNL     C3    3  -0.382   0.107   0.044
    1UNL     C4    4  -0.156   0.026   0.079
    1UNL     C5    5  -0.039  -0.065   0.053
    1UNL     O1    6   0.048  -0.069   0.163
    1UNL     C6    7   0.172  -0.017   0.127
    1UNL     O2    8   0.262  -0.015   0.212
    1UNL     C7    9   0.179   0.019  -0.018
    1UNL     C8   10   0.282   0.034  -0.097
    1UNL     C9   11   0.414   0.079  -0.050
    1UNL     O3   12   0.469  -0.007   0.046
    1UNL    C10   13   0.041  -0.006  -0.074
    1UNL     O4   14   0.049  -0.096  -0.190
    1UNL     H1   15  -0.403  -0.075  -0.127
    1UNL     H2   16  -0.291  -0.198  -0.070
    1UNL     H3   17  -0.237  -0.079  -0.186
    1UNL     H4   18  -0.441   0.085   0.135
    1UNL     H5   19  -0.461   0.109  -0.036
    1UNL     H6   20  -0.349   0.215   0.036
    1UNL     H7   21  -0.139   0.107   0.148
    1UNL     H8   22  -0.074  -0.163   0.035
    1UNL     H9   23   0.268   0.031  -0.204
    1UNL    H10   24   0.485   0.091  -0.135
    1UNL    H11   25   0.403   0.179  -0.007
    1UNL    H12   26   0.399  -0.034   0.104
    1UNL    H13   27  -0.010   0.090  -0.098
    1UNL    H14   28   0.094  -0.177  -0.171
   0.00000   0.00000   0.00000   0.00000   0.00000   0.00000   0.00000   0.00000   0.00000
Generated with MDTraj, t= 65.0
 28
    1UNL     C1    1  -0.284  -0.075  -0.112
    1UNL     C2    2  -0.285   0.011   0.006
    1UNL     C3    3  -0.413   0.090   0.034
    1UNL     C4    4  -0.174   0.025   0.078
    1UNL     C5    5  -0.041  -0.051   0.062
    1UNL     O1    6   0.051  -0.043   0.172
    1UNL     C6    7   0.179  -0.020   0.132
    1UNL     O2    8   0.284  -0.029   0.195
    1UNL     C7    9   0.187   0.013  -0.012
    1UNL     C8   10   0.285   0.051  -0.089
    1UNL     C9   11   0.423   0.092  -0.040
    1UNL     O3   12   0.477  -0.027   0.016
    1UNL    C10   13   0.043  -0.010  -0.060
    1UNL     O4   14   0.035  -0.112  -0.159
    1UNL     H1   15  -0.343  -0.029  -0.195
    1UNL     H2   16  -0.342  -0.170  -0.091
    1UNL     H3   17  -0.187  -0.099  -0.150
    1UNL     H4   18  -0.483   0.026   0.096
    1UNL     H5   19  -0.467   0.118  -0.057
    1UNL     H6   20  -0.389   0.191   0.077
    1UNL     H7   21  -0.189   0.104   0.152
    1UNL     H8   22  -0.067  -0.151   0.047
    1UNL     H9   23   0.265   0.074  -0.194
    1UNL    H10   24   0.490   0.133  -0.115
    1UNL    H11   25   0.411   0.169   0.033
    1UNL    H12   26   0.431  -0.049   0.106
    1UNL    H13   27   0.009   0.089  -0.101
    1UNL    H14   28   0.082  -0.188  -0.124
   0.00000   0.00000   0.00000   0.00000   0.00000   0.00000   0.00000   0.00000   0.00000
Generated with MDTraj, t= 66.0
 28
    1UNL     C1    1  -0.270  -0.064  -0.125
    1UNL     C2    2  -0.278   0.018  -0.000
    1UNL     C3    3  -0.403   0.084   0.031
    1UNL     C4    4  -0.178   0.015   0.088
    1UNL     C5    5  -0.041  -0.046   0.063
    1UNL     O1    6   0.056  -0.049   0.176
    1UNL     C6    7   0.185  -0.020   0.136
    1UNL     O2    8   0.282  -0.003   0.207
    1UNL     C7    9   0.184   0.003  -0.014
    1UNL     C8   10   0.271   0.068  -0.087
    1UNL     C9   11   0.411   0.085  -0.033
    1UNL     O3   12   0.471  -0.040  -0.003
    1UNL    C10   13   0.039  -0.013  -0.065
    1UNL     O4   14   0.034  -0.116  -0.153
    1UNL     H1   15  -0.266  -0.012  -0.219
    1UNL     H2   16  -0.363  -0.128  -0.127
    1UNL     H3   17  -0.184  -0.132  -0.112
    1UNL     H4   18  -0.460   0.008   0.097
    1UNL     H5   19  -0.455   0.104  -0.061
    1UNL     H6   20  -0.375   0.183   0.076
    1UNL     H7   21  -0.207   0.067   0.176
    1UNL     H8   22  -0.062  -0.150   0.060
    1UNL     H9   23   0.237   0.136  -0.162
    1UNL    H10   24   0.473   0.128  -0.107
    1UNL    H11   25   0.418   0.146   0.052
    1UNL    H12   26   0.431  -0.089   0.069
    1UNL    H13   27   0.010   0.078  -0.121
    1UNL    H14   28   0.083  -0.198  -0.122
   0.00000   0.00000   0.00000   0.00000   0.00000   0.00000   0.00000   0.00000   0.00000
Generated with MDTraj, t= 67.0
 28
    1UNL     C1    1  -0.265  -0.056  -0.125
    1UNL     C2    2  -0.275   0.008   0.013
    1UNL     C3    3  -0.379   0.105   0.043
    1UNL     C4    4  -0.174  -0.013   0.099
    1UNL     C5    5  -0.038  -0.077   0.061
    1UNL     O1    6   0.048  -0.055   0.176
    1UNL     C6    7   0.171  -0.006   0.131
    1UNL     O2    8   0.266   0.006   0.203
    1UNL     C7    9   0.176   0.018  -0.016
    1UNL     C8   10   0.275   0.046  -0.097
    1UNL     C9   11   0.416   0.077  -0.056
    1UNL     O3   12   0.460  -0.025   0.026
    1UNL    C10   13   0.039  -0.018  -0.062
    1UNL     O4   14   0.041  -0.102  -0.172
    1UNL     H1   15  -0.194  -0.021  -0.198
    1UNL     H2   16  -0.359  -0.063  -0.178
    1UNL     H3   17  -0.232  -0.163  -0.108
    1UNL     H4   18  -0.439   0.067   0.134
    1UNL     H5   19  -0.447   0.112  -0.041
    1UNL     H6   20  -0.339   0.208   0.054
    1UNL     H7   21  -0.179   0.049   0.191
    1UNL     H8   22  -0.050  -0.184   0.067
    1UNL     H9   23   0.250   0.057  -0.205
    1UNL    H10   24   0.488   0.093  -0.133
    1UNL    H11   25   0.410   0.165   0.001
    1UNL    H12   26   0.394  -0.023   0.102
    1UNL    H13   27  -0.013   0.076  -0.089
    1UNL    H14   28   0.093  -0.189  -0.157
   0.00000   0.00000   0.00000   0.00000   0.00000   0.00000   0.00000   0.00000   0.00000
Generated with MDTraj, t= 68.0
 28
    1UNL     C1    1  -0.269  -0.051  -0.116
    1UNL     C2    2  -0.269   0.011   0.021
    1UNL     C3    3  -0.391   0.094   0.055
    1UNL     C4    4  -0.157   0.012   0.096
    1UNL     C5    5  -0.039  -0.075   0.057
    1UNL     O1    6   0.046  -0.067   0.165
    1UNL     C6    7   0.169  -0.015   0.129
    1UNL     O2    8   0.253   0.012   0.211
    1UNL     C7    9   0.179   0.006  -0.024
    1UNL     C8   10   0.284   0.020  -0.101
    1UNL     C9   11   0.422   0.072  -0.060
    1UNL     O3   12   0.475   0.001   0.050
    1UNL    C10   13   0.038  -0.016  -0.072
    1UNL     O4   14   0.031  -0.102  -0.186
    1UNL     H1   15  -0.185  -0.027  -0.184
    1UNL     H2   16  -0.356  -0.028  -0.171
    1UNL     H3   17  -0.264  -0.163  -0.110
    1UNL     H4   18  -0.423   0.072   0.159
    1UNL     H5   19  -0.485   0.066  -0.000
    1UNL     H6   20  -0.392   0.204   0.040
    1UNL     H7   21  -0.157   0.078   0.177
    1UNL     H8   22  -0.062  -0.180   0.030
    1UNL     H9   23   0.268   0.027  -0.204
    1UNL    H10   24   0.490   0.057  -0.143
    1UNL    H11   25   0.423   0.177  -0.037
    1UNL    H12   26   0.393  -0.004   0.111
    1UNL    H13   27   0.005   0.083  -0.108
    1UNL    H14   28   0.064  -0.192  -0.156
   0.00000   0.00000   0.00000   0.00000   0.00000   0.00000   0.00000   0.00000   0.00000
Generated with MDTraj, t= 69.0
 28
    1UNL     C1    1  -0.306  -0.072  -0.115
    1UNL     C2    2  -0.286   0.009   0.006
    1UNL     C3    3  -0.392   0.096   0.056
    1UNL     C4    4  -0.168   0.016   0.070
    1UNL     C5    5  -0.036  -0.054   0.049
    1UNL     O1    6   0.049  -0.057   0.164
    1UNL     C6    7   0.179  -0.017   0.139
    1UNL     O2    8   0.266  -0.002   0.221
    1UNL     C7    9   0.178   0.009  -0.011
    1UNL     C8   10   0.281   0.049  -0.082
    1UNL     C9   11   0.430   0.076  -0.050
    1UNL     O3   12   0.495  -0.015   0.030
    1UNL    C10   13   0.043  -0.010  -0.077
    1UNL     O4   14   0.034  -0.116  -0.181
    1UNL     H1   15  -0.224  -0.065  -0.190
    1UNL     H2   16  -0.397  -0.036  -0.159
    1UNL     H3   17  -0.317  -0.175  -0.087
    1UNL     H4   18  -0.375   0.087   0.162
    1UNL     H5   19  -0.496   0.052   0.034
    1UNL     H6   20  -0.388   0.202   0.022
    1UNL     H7   21  -0.173   0.082   0.158
    1UNL     H8   22  -0.059  -0.164   0.037
    1UNL     H9   23   0.258   0.075  -0.188
    1UNL    H10   24   0.487   0.089  -0.145
    1UNL    H11   25   0.428   0.174  -0.001
    1UNL    H12   26   0.441  -0.019   0.109
    1UNL    H13   27   0.001   0.086  -0.108
    1UNL    H14   28   0.057  -0.198  -0.135
   0.00000   0.00000   0.00000   0.00000   0.00000   0.00000   0.00000   0.00000   0.00000
Generated with MDTraj, t= 70.0
 28
    1UNL     C1    1  -0.279  -0.103  -0.085
    1UNL     C2    2  -0.275   0.008   0.009
    1UNL     C3    3  -0.389   0.104   0.027
    1UNL     C4    4  -0.157   0.033   0.067
    1UNL     C5    5  -0.042  -0.059   0.054
    1UNL     O1    6   0.047  -0.061   0.167
    1UNL     C6    7   0.169  -0.016   0.128
    1UNL     O2    8   0.268  -0.022   0.193
    1UNL     C7    9   0.178   0.031  -0.016
    1UNL     C8   10   0.282   0.076  -0.083
    1UNL     C9   11   0.422   0.087  -0.025
    1UNL     O3   12   0.468  -0.039   0.011
    1UNL    C10   13   0.038  -0.002  -0.064
    1UNL     O4   14   0.033  -0.106  -0.162
    1UNL     H1   15  -0.179  -0.120  -0.131
    1UNL     H2   16  -0.351  -0.087  -0.166
    1UNL     H3   17  -0.296  -0.192  -0.034
    1UNL     H4   18  -0.391   0.118   0.133
    1UNL     H5   19  -0.482   0.051  -0.012
    1UNL     H6   20  -0.373   0.203  -0.024
    1UNL     H7   21  -0.146   0.119   0.128
    1UNL     H8   22  -0.059  -0.174   0.044
    1UNL     H9   23   0.269   0.091  -0.184
    1UNL    H10   24   0.494   0.122  -0.108
    1UNL    H11   25   0.427   0.162   0.059
    1UNL    H12   26   0.413  -0.062   0.086
    1UNL    H13   27  -0.015   0.084  -0.108
    1UNL    H14   28   0.067  -0.188  -0.127
   0.00000   0.00000   0.00000   0.00000   0.00000   0.00000   0.00000   0.00000   0.00000
Generated with MDTraj, t= 71.0
 28
    1UNL     C1    1  -0.301  -0.115  -0.093
    1UNL     C2    2  -0.274   0.001   0.006
    1UNL     C3    3  -0.376   0.106   0.022
    1UNL     C4    4  -0.166   0.028   0.084
    1UNL     C5    5  -0.045  -0.049   0.059
    1UNL     O1    6   0.042  -0.049   0.175
    1UNL     C6    7   0.167  -0.016   0.132
    1UNL     O2    8   0.268  -0.028   0.195
    1UNL     C7    9   0.176   0.024  -0.014
    1UNL     C8   10   0.282   0.051  -0.086
    1UNL     C9   11   0.417   0.084  -0.034
    1UNL     O3   12   0.490  -0.031   0.010
    1UNL    C10   13   0.037   0.005  -0.061
    1UNL     O4   14   0.044  -0.090  -0.170
    1UNL     H1   15  -0.258  -0.106  -0.191
    1UNL     H2   16  -0.409  -0.136  -0.108
    1UNL     H3   17  -0.258  -0.202  -0.050
    1UNL     H4   18  -0.399   0.132   0.125
    1UNL     H5   19  -0.470   0.073  -0.026
    1UNL     H6   20  -0.358   0.207  -0.027
    1UNL     H7   21  -0.165   0.099   0.166
    1UNL     H8   22  -0.057  -0.163   0.043
    1UNL     H9   23   0.254   0.061  -0.195
    1UNL    H10   24   0.486   0.134  -0.114
    1UNL    H11   25   0.414   0.160   0.051
    1UNL    H12   26   0.447  -0.066   0.098
    1UNL    H13   27  -0.005   0.099  -0.101
    1UNL    H14   28   0.080  -0.169  -0.130
   0.00000   0.00000   0.00000   0.00000   0.00000   0.00000   0.00000   0.00000   0.00000
Generated with MDTraj, t= 72.0
 28
    1UNL     C1    1  -0.281  -0.094  -0.101
    1UNL     C2    2  -0.278   0.013   0.006
    1UNL     C3    3  -0.392   0.090   0.055
    1UNL     C4    4  -0.160   0.031   0.069
    1UNL     C5    5  -0.041  -0.049   0.045
    1UNL     O1    6   0.043  -0.049   0.162
    1UNL     C6    7   0.173  -0.015   0.136
    1UNL     O2    8   0.271  -0.017   0.208
    1UNL     C7    9   0.177   0.006  -0.016
    1UNL     C8   10   0.277   0.038  -0.090
    1UNL     C9   11   0.415   0.073  -0.044
    1UNL     O3   12   0.485  -0.019   0.035
    1UNL    C10   13   0.045  -0.003  -0.072
    1UNL     O4   14   0.034  -0.092  -0.179
    1UNL     H1   15  -0.206  -0.102  -0.174
    1UNL     H2   16  -0.369  -0.072  -0.161
    1UNL     H3   17  -0.296  -0.187  -0.046
    1UNL     H4   18  -0.401   0.085   0.168
    1UNL     H5   19  -0.485   0.062   0.008
    1UNL     H6   20  -0.385   0.201   0.039
    1UNL     H7   21  -0.148   0.091   0.160
    1UNL     H8   22  -0.068  -0.159   0.026
    1UNL     H9   23   0.251   0.066  -0.187
    1UNL    H10   24   0.482   0.092  -0.136
    1UNL    H11   25   0.401   0.172   0.010
    1UNL    H12   26   0.437  -0.031   0.119
    1UNL    H13   27   0.004   0.096  -0.103
    1UNL    H14   28   0.069  -0.181  -0.146
   0.00000   0.00000   0.00000   0.00000   0.00000   0.00000   0.00000   0.00000   0.00000
Generated with MDTraj, t= 73.0
 28
    1UNL     C1    1  -0.298  -0.064  -0.119
    1UNL     C2    2  -0.288   0.002   0.009
    1UNL     C3    3  -0.404   0.088   0.062
    1UNL     C4    4  -0.171   0.015   0.079
    1UNL     C5    5  -0.041  -0.062   0.060
    1UNL     O1    6   0.054  -0.061   0.168
    1UNL     C6    7   0.175  -0.008   0.129
    1UNL     O2    8   0.268   0.008   0.203
    1UNL     C7    9   0.188   0.016  -0.021
    1UNL     C8   10   0.293   0.054  -0.094
    1UNL     C9   11   0.439   0.068  -0.055
    1UNL     O3   12   0.473  -0.020   0.046
    1UNL    C10   13   0.047  -0.021  -0.065
    1UNL     O4   14   0.034  -0.103  -0.179
    1UNL     H1   15  -0.209  -0.103  -0.156
    1UNL     H2   16  -0.325   0.010  -0.192
    1UNL     H3   17  -0.372  -0.146  -0.103
    1UNL     H4   18  -0.428   0.052   0.169
    1UNL     H5   19  -0.484   0.080  -0.009
    1UNL     H6   20  -0.376   0.194   0.079
    1UNL     H7   21  -0.172   0.085   0.160
    1UNL     H8   22  -0.065  -0.169   0.033
    1UNL     H9   23   0.278   0.067  -0.204
    1UNL    H10   24   0.501   0.041  -0.147
    1UNL    H11   25   0.463   0.171  -0.018
    1UNL    H12   26   0.403  -0.023   0.108
    1UNL    H13   27  -0.002   0.070  -0.111
    1UNL    H14   28   0.063  -0.199  -0.161
   0.00000   0.00000   0.00000   0.00000   0.00000   0.00000   0.00000   0.00000   0.00000
Generated with MDTraj, t= 74.0
 28
    1UNL     C1    1  -0.272  -0.044  -0.120
    1UNL     C2    2  -0.270   0.010   0.017
    1UNL     C3    3  -0.391   0.088   0.035
    1UNL     C4    4  -0.163  -0.005   0.102
    1UNL     C5    5  -0.035  -0.076   0.060
    1UNL     O1    6   0.057  -0.063   0.175
    1UNL     C6    7   0.174  -0.008   0.131
    1UNL     O2    8   0.267   0.032   0.197
    1UNL     C7    9   0.176   0.007  -0.016
    1UNL     C8   10   0.271   0.056  -0.091
    1UNL     C9   11   0.412   0.073  -0.049
    1UNL     O3   12   0.464  -0.038   0.027
    1UNL    C10   13   0.035  -0.018  -0.066
    1UNL     O4   14   0.037  -0.107  -0.178
    1UNL     H1   15  -0.185  -0.101  -0.148
    1UNL     H2   16  -0.266   0.043  -0.182
    1UNL     H3   17  -0.362  -0.104  -0.132
    1UNL     H4   18  -0.449   0.034   0.117
    1UNL     H5   19  -0.440   0.087  -0.063
    1UNL     H6   20  -0.374   0.190   0.071
    1UNL     H7   21  -0.158   0.051   0.197
    1UNL     H8   22  -0.041  -0.185   0.052
    1UNL     H9   23   0.243   0.087  -0.187
    1UNL    H10   24   0.483   0.081  -0.133
    1UNL    H11   25   0.416   0.161   0.014
    1UNL    H12   26   0.413  -0.045   0.116
    1UNL    H13   27  -0.008   0.082  -0.092
    1UNL    H14   28   0.095  -0.183  -0.146
   0.00000   0.00000   0.00000   0.00000   0.00000   0.00000   0.00000   0.00000   0.00000
Generated with MDTraj, t= 75.0
 28
    1UNL     C1    1  -0.262  -0.049  -0.131
    1UNL     C2    2  -0.277   0.021   0.005
    1UNL     C3    3  -0.402   0.089   0.046
    1UNL     C4    4  -0.173   0.004   0.097
    1UNL     C5    5  -0.040  -0.072   0.071
    1UNL     O1    6   0.051  -0.050   0.184
    1UNL     C6    7   0.176  -0.014   0.140
    1UNL     O2    8   0.275   0.006   0.211
    1UNL     C7    9   0.176   0.007  -0.013
    1UNL     C8   10   0.270   0.043  -0.097
    1UNL     C9   11   0.407   0.084  -0.059
    1UNL     O3   12   0.470  -0.025   0.012
    1UNL    C10   13   0.034  -0.024  -0.059
    1UNL     O4   14   0.053  -0.109  -0.178
    1UNL     H1   15  -0.243  -0.157  -0.121
    1UNL     H2   16  -0.172  -0.022  -0.182
    1UNL     H3   17  -0.346  -0.041  -0.195
    1UNL     H4   18  -0.467   0.026   0.109
    1UNL     H5   19  -0.458   0.119  -0.048
    1UNL     H6   20  -0.400   0.182   0.102
    1UNL     H7   21  -0.181   0.054   0.190
    1UNL     H8   22  -0.051  -0.179   0.064
    1UNL     H9   23   0.248   0.038  -0.207
    1UNL    H10   24   0.466   0.097  -0.147
    1UNL    H11   25   0.411   0.168   0.004
    1UNL    H12   26   0.424  -0.029   0.102
    1UNL    H13   27  -0.014   0.071  -0.091
    1UNL    H14   28   0.107  -0.188  -0.166
   0.00000   0.00000   0.00000   0.00000   0.00000   0.00000   0.00000   0.00000   0.00000
Generated with MDTraj, t= 76.0
 28
    1UNL     C1    1  -0.279  -0.073  -0.106
    1UNL     C2    2  -0.278   0.023  -0.001
    1UNL     C3    3  -0.406   0.091   0.048
    1UNL     C4    4  -0.166   0.020   0.080
    1UNL     C5    5  -0.037  -0.057   0.061
    1UNL     O1    6   0.050  -0.044   0.172
    1UNL     C6    7   0.179  -0.028   0.129
    1UNL     O2    8   0.281  -0.029   0.198
    1UNL     C7    9   0.178   0.005  -0.019
    1UNL     C8   10   0.282   0.043  -0.092
    1UNL     C9   11   0.420   0.087  -0.055
    1UNL     O3   12   0.478   0.003   0.040
    1UNL    C10   13   0.037  -0.016  -0.068
    1UNL     O4   14   0.029  -0.112  -0.170
    1UNL     H1   15  -0.293  -0.176  -0.070
    1UNL     H2   16  -0.186  -0.090  -0.161
    1UNL     H3   17  -0.362  -0.055  -0.166
    1UNL     H4   18  -0.470   0.023   0.103
    1UNL     H5   19  -0.465   0.140  -0.039
    1UNL     H6   20  -0.395   0.174   0.118
    1UNL     H7   21  -0.167   0.097   0.161
    1UNL     H8   22  -0.065  -0.158   0.043
    1UNL     H9   23   0.267   0.056  -0.196
    1UNL    H10   24   0.489   0.080  -0.136
    1UNL    H11   25   0.413   0.182  -0.013
    1UNL    H12   26   0.417  -0.019   0.107
    1UNL    H13   27  -0.011   0.078  -0.099
    1UNL    H14   28   0.075  -0.193  -0.151
   0.00000   0.00000   0.00000   0.00000   0.00000   0.00000   0.00000   0.00000   0.00000
Generated with MDTraj, t= 77.0
 28
    1UNL     C1    1  -0.318  -0.104  -0.070
    1UNL     C2    2  -0.277   0.015   0.001
    1UNL     C3    3  -0.386   0.104   0.029
    1UNL     C4    4  -0.158   0.035   0.068
    1UNL     C5    5  -0.040  -0.050   0.053
    1UNL     O1    6   0.049  -0.065   0.166
    1UNL     C6    7   0.177  -0.033   0.121
    1UNL     O2    8   0.274  -0.031   0.196
    1UNL     C7    9   0.181   0.013  -0.021
    1UNL     C8   10   0.284   0.065  -0.085
    1UNL     C9   11   0.421   0.096  -0.037
    1UNL     O3   12   0.491  -0.005   0.038
    1UNL    C10   13   0.038  -0.012  -0.075
    1UNL     O4   14   0.030  -0.111  -0.173
    1UNL     H1   15  -0.315  -0.195  -0.013
    1UNL     H2   16  -0.260  -0.130  -0.159
    1UNL     H3   17  -0.421  -0.079  -0.088
    1UNL     H4   18  -0.454   0.045   0.088
    1UNL     H5   19  -0.426   0.149  -0.066
    1UNL     H6   20  -0.343   0.182   0.095
    1UNL     H7   21  -0.148   0.123   0.125
    1UNL     H8   22  -0.075  -0.147   0.033
    1UNL     H9   23   0.257   0.113  -0.182
    1UNL    H10   24   0.484   0.116  -0.121
    1UNL    H11   25   0.419   0.177   0.030
    1UNL    H12   26   0.431  -0.033   0.113
    1UNL    H13   27   0.007   0.084  -0.116
    1UNL    H14   28   0.071  -0.190  -0.132
   0.00000   0.00000   0.00000   0.00000   0.00000   0.00000   0.00000   0.00000   0.00000
Generated with MDTraj, t= 78.0
 28
    1UNL     C1    1  -0.317  -0.116  -0.045
    1UNL     C2    2  -0.277   0.018   0.002
    1UNL     C3    3  -0.381   0.125   0.039
    1UNL     C4    4  -0.147   0.035   0.045
    1UNL     C5    5  -0.044  -0.071   0.034
    1UNL     O1    6   0.039  -0.077   0.161
    1UNL     C6    7   0.165  -0.024   0.134
    1UNL     O2    8   0.266  -0.021   0.201
    1UNL     C7    9   0.177   0.028  -0.007
    1UNL     C8   10   0.280   0.066  -0.083
    1UNL     C9   11   0.410   0.100  -0.029
    1UNL     O3   12   0.477  -0.019   0.016
    1UNL    C10   13   0.048  -0.016  -0.075
    1UNL     O4   14   0.066  -0.106  -0.177
    1UNL     H1   15  -0.294  -0.190   0.026
    1UNL     H2   16  -0.257  -0.144  -0.132
    1UNL     H3   17  -0.424  -0.111  -0.059
    1UNL     H4   18  -0.443   0.079   0.117
    1UNL     H5   19  -0.449   0.151  -0.044
    1UNL     H6   20  -0.338   0.219   0.084
    1UNL     H7   21  -0.117   0.131   0.088
    1UNL     H8   22  -0.084  -0.166   0.012
    1UNL     H9   23   0.260   0.080  -0.186
    1UNL    H10   24   0.475   0.151  -0.099
    1UNL    H11   25   0.388   0.158   0.060
    1UNL    H12   26   0.417  -0.053   0.093
    1UNL    H13   27   0.009   0.074  -0.123
    1UNL    H14   28   0.113  -0.193  -0.156
   0.00000   0.00000   0.00000   0.00000   0.00000   0.00000   0.00000   0.00000   0.00000
Generated with MDTraj, t= 79.0
 28
    1UNL     C1    1  -0.323  -0.118  -0.048
    1UNL     C2    2  -0.286   0.020   0.011
    1UNL     C3    3  -0.382   0.119   0.061
    1UNL     C4    4  -0.157   0.044   0.045
    1UNL     C5    5  -0.047  -0.058   0.028
    1UNL     O1    6   0.042  -0.069   0.146
    1UNL     C6    7   0.172  -0.021   0.118
    1UNL     O2    8   0.270  -0.028   0.189
    1UNL     C7    9   0.174   0.033  -0.022
    1UNL     C8   10   0.283   0.059  -0.092
    1UNL     C9   11   0.409   0.093  -0.018
    1UNL     O3   12   0.484  -0.012   0.052
    1UNL    C10   13   0.046  -0.015  -0.088
    1UNL     O4   14   0.072  -0.118  -0.178
    1UNL     H1   15  -0.314  -0.195   0.024
    1UNL     H2   16  -0.253  -0.149  -0.122
    1UNL     H3   17  -0.426  -0.129  -0.084
    1UNL     H4   18  -0.411   0.094   0.168
    1UNL     H5   19  -0.473   0.109   0.009
    1UNL     H6   20  -0.359   0.229   0.064
    1UNL     H7   21  -0.122   0.130   0.100
    1UNL     H8   22  -0.098  -0.148   0.002
    1UNL     H9   23   0.269   0.068  -0.201
    1UNL    H10   24   0.480   0.135  -0.094
    1UNL    H11   25   0.381   0.168   0.059
    1UNL    H12   26   0.431  -0.039   0.126
    1UNL    H13   27  -0.002   0.067  -0.141
    1UNL    H14   28   0.126  -0.194  -0.139
   0.00000   0.00000   0.00000   0.00000   0.00000   0.00000   0.00000   0.00000   0.00000
Generated with MDTraj, t= 80.0
 28
    1UNL     C1    1  -0.336  -0.105  -0.049
    1UNL     C2    2  -0.281   0.014   0.015
    1UNL     C3    3  -0.382   0.104   0.059
    1UNL     C4    4  -0.154   0.045   0.044
    1UNL     C5    5  -0.043  -0.051   0.027
    1UNL     O1    6   0.038  -0.068   0.144
    1UNL     C6    7   0.170  -0.031   0.120
    1UNL     O2    8   0.266  -0.021   0.195
    1UNL     C7    9   0.185   0.005  -0.024
    1UNL     C8   10   0.291   0.061  -0.085
    1UNL     C9   11   0.427   0.093  -0.030
    1UNL     O3   12   0.484   0.002   0.063
    1UNL    C10   13   0.050  -0.017  -0.084
    1UNL     O4   14   0.053  -0.113  -0.188
    1UNL     H1   15  -0.319  -0.188   0.018
    1UNL     H2   16  -0.290  -0.126  -0.141
    1UNL     H3   17  -0.445  -0.101  -0.060
    1UNL     H4   18  -0.374   0.116   0.173
    1UNL     H5   19  -0.480   0.063   0.040
    1UNL     H6   20  -0.373   0.203   0.012
    1UNL     H7   21  -0.122   0.123   0.111
    1UNL     H8   22  -0.088  -0.144  -0.006
    1UNL     H9   23   0.273   0.086  -0.186
    1UNL    H10   24   0.500   0.093  -0.118
    1UNL    H11   25   0.422   0.195   0.022
    1UNL    H12   26   0.418  -0.020   0.131
    1UNL    H13   27   0.031   0.083  -0.122
    1UNL    H14   28   0.094  -0.198  -0.158
   0.00000   0.00000   0.00000   0.00000   0.00000   0.00000   0.00000   0.00000   0.00000
Generated with MDTraj, t= 81.0
 28
    1UNL     C1    1  -0.315  -0.106  -0.058
    1UNL     C2    2  -0.280   0.018   0.010
    1UNL     C3    3  -0.396   0.119   0.038
    1UNL     C4    4  -0.155   0.038   0.051
    1UNL     C5    5  -0.042  -0.064   0.041
    1UNL     O1    6   0.043  -0.084   0.158
    1UNL     C6    7   0.174  -0.036   0.126
    1UNL     O2    8   0.259  -0.020   0.211
    1UNL     C7    9   0.189   0.005  -0.016
    1UNL     C8   10   0.286   0.067  -0.084
    1UNL     C9   11   0.422   0.097  -0.038
    1UNL     O3   12   0.481  -0.003   0.032
    1UNL    C10   13   0.051  -0.019  -0.069
    1UNL     O4   14   0.051  -0.098  -0.185
    1UNL     H1   15  -0.310  -0.178   0.027
    1UNL     H2   16  -0.246  -0.126  -0.137
    1UNL     H3   17  -0.415  -0.096  -0.090
    1UNL     H4   18  -0.372   0.172   0.132
    1UNL     H5   19  -0.494   0.066   0.046
    1UNL     H6   20  -0.398   0.190  -0.044
    1UNL     H7   21  -0.123   0.125   0.109
    1UNL     H8   22  -0.090  -0.158   0.009
    1UNL     H9   23   0.260   0.078  -0.189
    1UNL    H10   24   0.496   0.110  -0.126
    1UNL    H11   25   0.423   0.188   0.033
    1UNL    H12   26   0.411  -0.019   0.109
    1UNL    H13   27   0.014   0.080  -0.100
    1UNL    H14   28   0.094  -0.183  -0.178
   0.00000   0.00000   0.00000   0.00000   0.00000   0.00000   0.00000   0.00000   0.00000
Generated with MDTraj, t= 82.0
 28
    1UNL     C1    1  -0.291  -0.102  -0.094
    1UNL     C2    2  -0.280   0.012   0.012
    1UNL     C3    3  -0.399   0.119   0.028
    1UNL     C4    4  -0.174   0.014   0.090
    1UNL     C5    5  -0.040  -0.054   0.054
    1UNL     O1    6   0.055  -0.056   0.169
    1UNL     C6    7   0.181  -0.025   0.126
    1UNL     O2    8   0.280  -0.024   0.193
    1UNL     C7    9   0.175   0.020  -0.016
    1UNL     C8   10   0.278   0.067  -0.086
    1UNL     C9   11   0.410   0.091  -0.023
    1UNL     O3   12   0.483  -0.024   0.022
    1UNL    C10   13   0.037  -0.010  -0.073
    1UNL     O4   14   0.043  -0.109  -0.178
    1UNL     H1   15  -0.299  -0.195  -0.035
    1UNL     H2   16  -0.210  -0.102  -0.166
    1UNL     H3   17  -0.380  -0.094  -0.146
    1UNL     H4   18  -0.363   0.199   0.090
    1UNL     H5   19  -0.498   0.077   0.066
    1UNL     H6   20  -0.424   0.165  -0.067
    1UNL     H7   21  -0.155   0.069   0.178
    1UNL     H8   22  -0.074  -0.161   0.043
    1UNL     H9   23   0.269   0.068  -0.194
    1UNL    H10   24   0.474   0.142  -0.104
    1UNL    H11   25   0.391   0.159   0.067
    1UNL    H12   26   0.439  -0.047   0.109
    1UNL    H13   27  -0.005   0.087  -0.109
    1UNL    H14   28   0.107  -0.177  -0.159
   0.00000   0.00000   0.00000   0.00000   0.00000   0.00000   0.00000   0.00000   0.00000
Generated with MDTraj, t= 83.0
 28
    1UNL     C1    1  -0.262  -0.052  -0.124
    1UNL     C2    2  -0.270   0.016   0.007
    1UNL     C3    3  -0.405   0.075   0.035
    1UNL     C4    4  -0.171   0.014   0.089
    1UNL     C5    5  -0.040  -0.060   0.068
    1UNL     O1    6   0.047  -0.032   0.181
    1UNL     C6    7   0.175  -0.020   0.135
    1UNL     O2    8   0.268  -0.020   0.209
    1UNL     C7    9   0.177   0.009  -0.011
    1UNL     C8   10   0.272   0.062  -0.089
    1UNL     C9   11   0.409   0.091  -0.041
    1UNL     O3   12   0.481  -0.035  -0.004
    1UNL    C10   13   0.035  -0.017  -0.062
    1UNL     O4   14   0.042  -0.113  -0.165
    1UNL     H1   15  -0.254  -0.156  -0.107
    1UNL     H2   16  -0.175  -0.012  -0.177
    1UNL     H3   17  -0.342  -0.040  -0.194
    1UNL     H4   18  -0.401   0.166   0.089
    1UNL     H5   19  -0.473   0.004   0.090
    1UNL     H6   20  -0.462   0.107  -0.055
    1UNL     H7   21  -0.157   0.063   0.189
    1UNL     H8   22  -0.058  -0.172   0.052
    1UNL     H9   23   0.250   0.061  -0.193
    1UNL    H10   24   0.470   0.133  -0.127
    1UNL    H11   25   0.405   0.158   0.048
    1UNL    H12   26   0.442  -0.072   0.075
    1UNL    H13   27   0.005   0.079  -0.110
    1UNL    H14   28   0.102  -0.184  -0.133
   0.00000   0.00000   0.00000   0.00000   0.00000   0.00000   0.00000   0.00000   0.00000
Generated with MDTraj, t= 84.0
 28
    1UNL     C1    1  -0.259  -0.037  -0.133
    1UNL     C2    2  -0.272   0.008   0.005
    1UNL     C3    3  -0.399   0.069   0.042
    1UNL     C4    4  -0.175   0.005   0.091
    1UNL     C5    5  -0.039  -0.061   0.070
    1UNL     O1    6   0.051  -0.052   0.182
    1UNL     C6    7   0.174  -0.011   0.138
    1UNL     O2    8   0.266   0.010   0.213
    1UNL     C7    9   0.179   0.007  -0.013
    1UNL     C8   10   0.281   0.053  -0.090
    1UNL     C9   11   0.424   0.078  -0.061
    1UNL     O3   12   0.468  -0.035   0.014
    1UNL    C10   13   0.041  -0.019  -0.060
    1UNL     O4   14   0.026  -0.101  -0.174
    1UNL     H1   15  -0.174  -0.095  -0.139
    1UNL     H2   16  -0.248   0.057  -0.186
    1UNL     H3   17  -0.346  -0.092  -0.170
    1UNL     H4   18  -0.382   0.167   0.083
    1UNL     H5   19  -0.438   0.003   0.122
    1UNL     H6   20  -0.471   0.082  -0.044
    1UNL     H7   21  -0.171   0.055   0.183
    1UNL     H8   22  -0.069  -0.172   0.053
    1UNL     H9   23   0.264   0.036  -0.198
    1UNL    H10   24   0.489   0.078  -0.150
    1UNL    H11   25   0.445   0.162   0.005
    1UNL    H12   26   0.416  -0.034   0.104
    1UNL    H13   27  -0.002   0.083  -0.082
    1UNL    H14   28   0.045  -0.199  -0.156
   0.00000   0.00000   0.00000   0.00000   0.00000   0.00000   0.00000   0.00000   0.00000
Generated with MDTraj, t= 85.0
 28
    1UNL     C1    1  -0.291  -0.061  -0.122
    1UNL     C2    2  -0.280  -0.001   0.014
    1UNL     C3    3  -0.392   0.095   0.064
    1UNL     C4    4  -0.169  -0.008   0.084
    1UNL     C5    5  -0.034  -0.067   0.045
    1UNL     O1    6   0.055  -0.066   0.158
    1UNL     C6    7   0.180  -0.008   0.126
    1UNL     O2    8   0.266   0.022   0.209
    1UNL     C7    9   0.179   0.014  -0.021
    1UNL     C8   10   0.284   0.052  -0.093
    1UNL     C9   11   0.426   0.055  -0.048
    1UNL     O3   12   0.478  -0.024   0.059
    1UNL    C10   13   0.039  -0.005  -0.076
    1UNL     O4   14   0.022  -0.094  -0.182
    1UNL     H1   15  -0.192  -0.078  -0.161
    1UNL     H2   16  -0.340   0.013  -0.181
    1UNL     H3   17  -0.347  -0.154  -0.123
    1UNL     H4   18  -0.349   0.196   0.087
    1UNL     H5   19  -0.421   0.052   0.158
    1UNL     H6   20  -0.473   0.115  -0.011
    1UNL     H7   21  -0.147   0.055   0.174
    1UNL     H8   22  -0.052  -0.177   0.012
    1UNL     H9   23   0.267   0.075  -0.194
    1UNL    H10   24   0.488   0.011  -0.124
    1UNL    H11   25   0.455   0.154  -0.025
    1UNL    H12   26   0.423  -0.011   0.139
    1UNL    H13   27  -0.011   0.091  -0.100
    1UNL    H14   28   0.040  -0.193  -0.165
   0.00000   0.00000   0.00000   0.00000   0.00000   0.00000   0.00000   0.00000   0.00000
Generated with MDTraj, t= 86.0
 28
    1UNL     C1    1  -0.300  -0.092  -0.095
    1UNL     C2    2  -0.270   0.010   0.018
    1UNL     C3    3  -0.387   0.097   0.063
    1UNL     C4    4  -0.156   0.030   0.079
    1UNL     C5    5  -0.037  -0.056   0.037
    1UNL     O1    6   0.046  -0.075   0.150
    1UNL     C6    7   0.166  -0.013   0.130
    1UNL     O2    8   0.251   0.007   0.214
    1UNL     C7    9   0.179   0.020  -0.016
    1UNL     C8   10   0.287   0.035  -0.096
    1UNL     C9   11   0.420   0.071  -0.039
    1UNL     O3   12   0.477  -0.026   0.046
    1UNL    C10   13   0.043  -0.003  -0.078
    1UNL     O4   14   0.049  -0.089  -0.192
    1UNL     H1   15  -0.223  -0.085  -0.174
    1UNL     H2   16  -0.394  -0.084  -0.141
    1UNL     H3   17  -0.288  -0.191  -0.056
    1UNL     H4   18  -0.365   0.209   0.061
    1UNL     H5   19  -0.407   0.076   0.165
    1UNL     H6   20  -0.475   0.091  -0.003
    1UNL     H7   21  -0.127   0.100   0.153
    1UNL     H8   22  -0.071  -0.161   0.003
    1UNL     H9   23   0.280   0.022  -0.207
    1UNL    H10   24   0.485   0.096  -0.119
    1UNL    H11   25   0.411   0.152   0.026
    1UNL    H12   26   0.411  -0.043   0.109
    1UNL    H13   27   0.014   0.099  -0.110
    1UNL    H14   28   0.053  -0.179  -0.153
   0.00000   0.00000   0.00000   0.00000   0.00000   0.00000   0.00000   0.00000   0.00000
Generated with MDTraj, t= 87.0
 28
    1UNL     C1    1  -0.315  -0.109  -0.073
    1UNL     C2    2  -0.285   0.015   0.007
    1UNL     C3    3  -0.393   0.103   0.040
    1UNL     C4    4  -0.164   0.037   0.055
    1UNL     C5    5  -0.038  -0.053   0.047
    1UNL     O1    6   0.037  -0.052   0.165
    1UNL     C6    7   0.168  -0.021   0.131
    1UNL     O2    8   0.265  -0.040   0.202
    1UNL     C7    9   0.189   0.019  -0.010
    1UNL     C8   10   0.293   0.060  -0.088
    1UNL     C9   11   0.426   0.093  -0.027
    1UNL     O3   12   0.478  -0.031   0.017
    1UNL    C10   13   0.055  -0.001  -0.068
    1UNL     O4   14   0.052  -0.102  -0.170
    1UNL     H1   15  -0.250  -0.112  -0.165
    1UNL     H2   16  -0.416  -0.121  -0.099
    1UNL     H3   17  -0.280  -0.188  -0.012
    1UNL     H4   18  -0.379   0.208   0.001
    1UNL     H5   19  -0.403   0.117   0.147
    1UNL     H6   20  -0.486   0.077  -0.011
    1UNL     H7   21  -0.137   0.120   0.120
    1UNL     H8   22  -0.076  -0.158   0.021
    1UNL     H9   23   0.281   0.061  -0.192
    1UNL    H10   24   0.496   0.133  -0.097
    1UNL    H11   25   0.409   0.165   0.047
    1UNL    H12   26   0.405  -0.066   0.074
    1UNL    H13   27   0.006   0.093  -0.097
    1UNL    H14   28   0.099  -0.066  -0.244
   0.00000   0.00000   0.00000   0.00000   0.00000   0.00000   0.00000   0.00000   0.00000
Generated with MDTraj, t= 88.0
 28
    1UNL     C1    1  -0.308  -0.116  -0.063
    1UNL     C2    2  -0.281   0.010   0.002
    1UNL     C3    3  -0.393   0.107   0.014
    1UNL     C4    4  -0.170   0.040   0.065
    1UNL     C5    5  -0.038  -0.037   0.052
    1UNL     O1    6   0.057  -0.052   0.159
    1UNL     C6    7   0.186  -0.031   0.122
    1UNL     O2    8   0.285  -0.051   0.194
    1UNL     C7    9   0.183   0.015  -0.020
    1UNL     C8   10   0.287   0.076  -0.080
    1UNL     C9   11   0.417   0.091  -0.012
    1UNL     O3   12   0.481  -0.029   0.028
    1UNL    C10   13   0.042   0.005  -0.073
    1UNL     O4   14   0.022  -0.100  -0.173
    1UNL     H1   15  -0.220  -0.152  -0.117
    1UNL     H2   16  -0.396  -0.111  -0.126
    1UNL     H3   17  -0.322  -0.186   0.016
    1UNL     H4   18  -0.378   0.191  -0.054
    1UNL     H5   19  -0.385   0.154   0.117
    1UNL     H6   20  -0.488   0.062  -0.015
    1UNL     H7   21  -0.163   0.118   0.140
    1UNL     H8   22  -0.073  -0.143   0.032
    1UNL     H9   23   0.272   0.120  -0.181
    1UNL    H10   24   0.479   0.155  -0.075
    1UNL    H11   25   0.403   0.151   0.076
    1UNL    H12   26   0.420  -0.089   0.082
    1UNL    H13   27   0.007   0.099  -0.116
    1UNL    H14   28   0.039  -0.185  -0.128
   0.00000   0.00000   0.00000   0.00000   0.00000   0.00000   0.00000   0.00000   0.00000
Generated with MDTraj, t= 89.0
 28
    1UNL     C1    1  -0.300  -0.094  -0.087
    1UNL     C2    2  -0.278   0.015   0.012
    1UNL     C3    3  -0.399   0.111   0.031
    1UNL     C4    4  -0.160   0.037   0.070
    1UNL     C5    5  -0.041  -0.053   0.048
    1UNL     O1    6   0.041  -0.066   0.165
    1UNL     C6    7   0.175  -0.032   0.133
    1UNL     O2    8   0.267  -0.033   0.216
    1UNL     C7    9   0.183   0.004  -0.013
    1UNL     C8   10   0.284   0.054  -0.086
    1UNL     C9   11   0.418   0.087  -0.042
    1UNL     O3   12   0.488  -0.015   0.021
    1UNL    C10   13   0.043  -0.006  -0.067
    1UNL     O4   14   0.045  -0.103  -0.171
    1UNL     H1   15  -0.238  -0.092  -0.172
    1UNL     H2   16  -0.406  -0.085  -0.120
    1UNL     H3   17  -0.283  -0.192  -0.046
    1UNL     H4   18  -0.404   0.185  -0.045
    1UNL     H5   19  -0.372   0.172   0.124
    1UNL     H6   20  -0.493   0.054   0.031
    1UNL     H7   21  -0.142   0.111   0.144
    1UNL     H8   22  -0.068  -0.160   0.030
    1UNL     H9   23   0.256   0.074  -0.184
    1UNL    H10   24   0.481   0.125  -0.127
    1UNL    H11   25   0.414   0.179   0.021
    1UNL    H12   26   0.428  -0.041   0.088
    1UNL    H13   27   0.008   0.086  -0.115
    1UNL    H14   28   0.093  -0.064  -0.251
   0.00000   0.00000   0.00000   0.00000   0.00000   0.00000   0.00000   0.00000   0.00000
Generated with MDTraj, t= 90.0
 28
    1UNL     C1    1  -0.280  -0.053  -0.120
    1UNL     C2    2  -0.276   0.010   0.018
    1UNL     C3    3  -0.391   0.103   0.056
    1UNL     C4    4  -0.165   0.005   0.091
    1UNL     C5    5  -0.037  -0.069   0.055
    1UNL     O1    6   0.048  -0.063   0.167
    1UNL     C6    7   0.165  -0.014   0.123
    1UNL     O2    8   0.260  -0.003   0.198
    1UNL     C7    9   0.177   0.012  -0.023
    1UNL     C8   10   0.290   0.042  -0.095
    1UNL     C9   11   0.421   0.081  -0.040
    1UNL     O3   12   0.472  -0.019   0.040
    1UNL    C10   13   0.040  -0.021  -0.070
    1UNL     O4   14   0.043  -0.106  -0.180
    1UNL     H1   15  -0.192  -0.036  -0.171
    1UNL     H2   16  -0.366  -0.009  -0.175
    1UNL     H3   17  -0.283  -0.162  -0.116
    1UNL     H4   18  -0.429   0.169  -0.019
    1UNL     H5   19  -0.358   0.182   0.131
    1UNL     H6   20  -0.479   0.047   0.093
    1UNL     H7   21  -0.157   0.065   0.184
    1UNL     H8   22  -0.064  -0.175   0.058
    1UNL     H9   23   0.274   0.042  -0.205
    1UNL    H10   24   0.492   0.112  -0.125
    1UNL    H11   25   0.409   0.180   0.015
    1UNL    H12   26   0.402  -0.032   0.105
    1UNL    H13   27  -0.017   0.066  -0.104
    1UNL    H14   28   0.080  -0.196  -0.151
   0.00000   0.00000   0.00000   0.00000   0.00000   0.00000   0.00000   0.00000   0.00000
Generated with MDTraj, t= 91.0
 28
    1UNL     C1    1  -0.260  -0.029  -0.132
    1UNL     C2    2  -0.273   0.019   0.007
    1UNL     C3    3  -0.388   0.087   0.056
    1UNL     C4    4  -0.172  -0.009   0.092
    1UNL     C5    5  -0.034  -0.069   0.059
    1UNL     O1    6   0.052  -0.055   0.170
    1UNL     C6    7   0.172  -0.011   0.134
    1UNL     O2    8   0.264   0.013   0.210
    1UNL     C7    9   0.175   0.001  -0.011
    1UNL     C8   10   0.275   0.051  -0.088
    1UNL     C9   11   0.410   0.077  -0.043
    1UNL     O3   12   0.473  -0.031   0.022
    1UNL    C10   13   0.039  -0.019  -0.069
    1UNL     O4   14   0.028  -0.120  -0.172
    1UNL     H1   15  -0.155  -0.026  -0.158
    1UNL     H2   16  -0.316   0.030  -0.204
    1UNL     H3   17  -0.274  -0.137  -0.141
    1UNL     H4   18  -0.459   0.120  -0.021
    1UNL     H5   19  -0.365   0.183   0.104
    1UNL     H6   20  -0.445   0.015   0.117
    1UNL     H7   21  -0.192   0.013   0.192
    1UNL     H8   22  -0.049  -0.172   0.036
    1UNL     H9   23   0.245   0.088  -0.182
    1UNL    H10   24   0.465   0.101  -0.142
    1UNL    H11   25   0.411   0.178   0.012
    1UNL    H12   26   0.426  -0.066   0.104
    1UNL    H13   27   0.005   0.073  -0.121
    1UNL    H14   28   0.113  -0.122  -0.224
   0.00000   0.00000   0.00000   0.00000   0.00000   0.00000   0.00000   0.00000   0.00000
Generated with MDTraj, t= 92.0
 28
    1UNL     C1    1  -0.275  -0.057  -0.131
    1UNL     C2    2  -0.280   0.019   0.000
    1UNL     C3    3  -0.402   0.081   0.050
    1UNL     C4    4  -0.173   0.018   0.084
    1UNL     C5    5  -0.041  -0.060   0.060
    1UNL     O1    6   0.048  -0.056   0.175
    1UNL     C6    7   0.172  -0.012   0.137
    1UNL     O2    8   0.267  -0.006   0.215
    1UNL     C7    9   0.181   0.009  -0.009
    1UNL     C8   10   0.284   0.058  -0.082
    1UNL     C9   11   0.422   0.079  -0.045
    1UNL     O3   12   0.485  -0.040   0.005
    1UNL    C10   13   0.042  -0.011  -0.059
    1UNL     O4   14   0.029  -0.105  -0.167
    1UNL     H1   15  -0.170  -0.083  -0.166
    1UNL     H2   16  -0.322  -0.005  -0.208
    1UNL     H3   17  -0.315  -0.158  -0.129
    1UNL     H4   18  -0.487   0.056  -0.021
    1UNL     H5   19  -0.392   0.187   0.048
    1UNL     H6   20  -0.424   0.031   0.146
    1UNL     H7   21  -0.182   0.070   0.181
    1UNL     H8   22  -0.064  -0.162   0.046
    1UNL     H9   23   0.256   0.079  -0.186
    1UNL    H10   24   0.484   0.127  -0.130
    1UNL    H11   25   0.427   0.161   0.033
    1UNL    H12   26   0.444  -0.066   0.085
    1UNL    H13   27  -0.004   0.086  -0.087
    1UNL    H14   28   0.105  -0.107  -0.226
   0.00000   0.00000   0.00000   0.00000   0.00000   0.00000   0.00000   0.00000   0.00000
Generated with MDTraj, t= 93.0
 28
    1UNL     C1    1  -0.301  -0.106  -0.091
    1UNL     C2    2  -0.276  -0.000   0.009
    1UNL     C3    3  -0.395   0.095   0.036
    1UNL     C4    4  -0.161   0.020   0.078
    1UNL     C5    5  -0.036  -0.053   0.047
    1UNL     O1    6   0.043  -0.047   0.168
    1UNL     C6    7   0.174  -0.008   0.124
    1UNL     O2    8   0.277  -0.032   0.187
    1UNL     C7    9   0.183   0.025  -0.020
    1UNL     C8   10   0.296   0.070  -0.083
    1UNL     C9   11   0.422   0.076  -0.017
    1UNL     O3   12   0.475  -0.046   0.027
    1UNL    C10   13   0.039   0.008  -0.068
    1UNL     O4   14   0.032  -0.078  -0.177
    1UNL     H1   15  -0.216  -0.146  -0.156
    1UNL     H2   16  -0.380  -0.067  -0.148
    1UNL     H3   17  -0.341  -0.194  -0.041
    1UNL     H4   18  -0.488   0.055  -0.015
    1UNL     H5   19  -0.378   0.189  -0.009
    1UNL     H6   20  -0.420   0.098   0.143
    1UNL     H7   21  -0.165   0.100   0.146
    1UNL     H8   22  -0.051  -0.155   0.033
    1UNL     H9   23   0.286   0.087  -0.188
    1UNL    H10   24   0.503   0.121  -0.082
    1UNL    H11   25   0.425   0.147   0.067
    1UNL    H12   26   0.408  -0.090   0.091
    1UNL    H13   27  -0.004   0.107  -0.096
    1UNL    H14   28   0.060  -0.167  -0.158
   0.00000   0.00000   0.00000   0.00000   0.00000   0.00000   0.00000   0.00000   0.00000
Generated with MDTraj, t= 94.0
 28
    1UNL     C1    1  -0.301  -0.127  -0.053
    1UNL     C2    2  -0.283   0.006   0.014
    1UNL     C3    3  -0.394   0.096   0.037
    1UNL     C4    4  -0.162   0.045   0.059
    1UNL     C5    5  -0.041  -0.039   0.036
    1UNL     O1    6   0.038  -0.067   0.153
    1UNL     C6    7   0.167  -0.020   0.133
    1UNL     O2    8   0.257  -0.040   0.213
    1UNL     C7    9   0.182   0.023  -0.009
    1UNL     C8   10   0.291   0.061  -0.084
    1UNL     C9   11   0.425   0.072  -0.033
    1UNL     O3   12   0.488  -0.039   0.028
    1UNL    C10   13   0.045   0.013  -0.075
    1UNL     O4   14   0.053  -0.070  -0.191
    1UNL     H1   15  -0.257  -0.138  -0.154
    1UNL     H2   16  -0.409  -0.140  -0.058
    1UNL     H3   17  -0.268  -0.208   0.011
    1UNL     H4   18  -0.493   0.049   0.018
    1UNL     H5   19  -0.393   0.180  -0.032
    1UNL     H6   20  -0.402   0.128   0.141
    1UNL     H7   21  -0.165   0.145   0.103
    1UNL     H8   22  -0.075  -0.132   0.004
    1UNL     H9   23   0.271   0.094  -0.185
    1UNL    H10   24   0.490   0.118  -0.109
    1UNL    H11   25   0.423   0.150   0.039
    1UNL    H12   26   0.430  -0.063   0.106
    1UNL    H13   27   0.014   0.115  -0.105
    1UNL    H14   28   0.115  -0.033  -0.257
   0.00000   0.00000   0.00000   0.00000   0.00000   0.00000   0.00000   0.00000   0.00000
Generated with MDTraj, t= 95.0
 28
    1UNL     C1    1  -0.323  -0.130  -0.035
    1UNL     C2    2  -0.298   0.003   0.020
    1UNL     C3    3  -0.394   0.099   0.059
    1UNL     C4    4  -0.165   0.032   0.043
    1UNL     C5    5  -0.038  -0.047   0.018
    1UNL     O1    6   0.040  -0.052   0.140
    1UNL     C6    7   0.170  -0.021   0.122
    1UNL     O2    8   0.264  -0.036   0.199
    1UNL     C7    9   0.190   0.016  -0.015
    1UNL     C8   10   0.306   0.049  -0.078
    1UNL     C9   11   0.429   0.080  -0.009
    1UNL     O3   12   0.487  -0.037   0.051
    1UNL    C10   13   0.056   0.017  -0.089
    1UNL     O4   14   0.043  -0.061  -0.207
    1UNL     H1   15  -0.249  -0.158  -0.106
    1UNL     H2   16  -0.420  -0.150  -0.087
    1UNL     H3   17  -0.328  -0.203   0.045
    1UNL     H4   18  -0.486   0.043   0.066
    1UNL     H5   19  -0.414   0.176  -0.021
    1UNL     H6   20  -0.379   0.141   0.160
    1UNL     H7   21  -0.161   0.131   0.090
    1UNL     H8   22  -0.069  -0.141  -0.017
    1UNL     H9   23   0.295   0.086  -0.181
    1UNL    H10   24   0.496   0.112  -0.086
    1UNL    H11   25   0.423   0.168   0.048
    1UNL    H12   26   0.432  -0.059   0.123
    1UNL    H13   27   0.023   0.119  -0.112
    1UNL    H14   28   0.131  -0.099  -0.238
   0.00000   0.00000   0.00000   0.00000   0.00000   0.00000   0.00000   0.00000   0.00000
Generated with MDTraj, t= 96.0
 28
    1UNL     C1    1  -0.325  -0.130  -0.026
    1UNL     C2    2  -0.287   0.005   0.027
    1UNL     C3    3  -0.397   0.098   0.068
    1UNL     C4    4  -0.156   0.047   0.039
    1UNL     C5    5  -0.038  -0.046   0.015
    1UNL     O1    6   0.038  -0.070   0.136
    1UNL     C6    7   0.164  -0.025   0.109
    1UNL     O2    8   0.246  -0.032   0.197
    1UNL     C7    9   0.191   0.031  -0.023
    1UNL     C8   10   0.311   0.072  -0.078
    1UNL     C9   11   0.438   0.081  -0.006
    1UNL     O3   12   0.469  -0.045   0.050
    1UNL    C10   13   0.054   0.012  -0.092
    1UNL     O4   14   0.064  -0.073  -0.203
    1UNL     H1   15  -0.309  -0.133  -0.129
    1UNL     H2   16  -0.435  -0.154  -0.007
    1UNL     H3   17  -0.283  -0.216   0.026
    1UNL     H4   18  -0.479   0.035   0.085
    1UNL     H5   19  -0.428   0.169  -0.015
    1UNL     H6   20  -0.376   0.148   0.164
    1UNL     H7   21  -0.153   0.152   0.057
    1UNL     H8   22  -0.074  -0.143  -0.011
    1UNL     H9   23   0.303   0.107  -0.179
    1UNL    H10   24   0.518   0.121  -0.063
    1UNL    H11   25   0.431   0.157   0.064
    1UNL    H12   26   0.405  -0.054   0.128
    1UNL    H13   27   0.017   0.108  -0.127
    1UNL    H14   28   0.146  -0.133  -0.195
   0.00000   0.00000   0.00000   0.00000   0.00000   0.00000   0.00000   0.00000   0.00000
Generated with MDTraj, t= 97.0
 28
    1UNL     C1    1  -0.331  -0.136  -0.005
    1UNL     C2    2  -0.284   0.008   0.026
    1UNL     C3    3  -0.390   0.109   0.061
    1UNL     C4    4  -0.150   0.043   0.032
    1UNL     C5    5  -0.037  -0.048   0.001
    1UNL     O1    6   0.035  -0.086   0.125
    1UNL     C6    7   0.164  -0.030   0.120
    1UNL     O2    8   0.243  -0.023   0.215
    1UNL     C7    9   0.183   0.026  -0.016
    1UNL     C8   10   0.297   0.075  -0.068
    1UNL     C9   11   0.426   0.082   0.000
    1UNL     O3   12   0.474  -0.042   0.028
    1UNL    C10   13   0.058   0.013  -0.096
    1UNL     O4   14   0.081  -0.070  -0.207
    1UNL     H1   15  -0.323  -0.153  -0.110
    1UNL     H2   16  -0.441  -0.126   0.016
    1UNL     H3   17  -0.301  -0.216   0.061
    1UNL     H4   18  -0.485   0.065   0.082
    1UNL     H5   19  -0.408   0.180  -0.023
    1UNL     H6   20  -0.355   0.168   0.147
    1UNL     H7   21  -0.136   0.148   0.064
    1UNL     H8   22  -0.074  -0.141  -0.040
    1UNL     H9   23   0.287   0.111  -0.173
    1UNL    H10   24   0.495   0.133  -0.065
    1UNL    H11   25   0.430   0.152   0.079
    1UNL    H12   26   0.421  -0.068   0.113
    1UNL    H13   27   0.023   0.106  -0.140
    1UNL    H14   28   0.118  -0.159  -0.183
   0.00000   0.00000   0.00000   0.00000   0.00000   0.00000   0.00000   0.00000   0.00000
Generated with MDTraj, t= 98.0
 28
    1UNL     C1    1  -0.329  -0.133   0.019
    1UNL     C2    2  -0.291   0.006   0.033
    1UNL     C3    3  -0.393   0.114   0.058
    1UNL     C4    4  -0.159   0.045   0.023
    1UNL     C5    5  -0.037  -0.044   0.000
    1UNL     O1    6   0.039  -0.071   0.123
    1UNL     C6    7   0.171  -0.037   0.109
    1UNL     O2    8   0.258  -0.054   0.193
    1UNL     C7    9   0.186   0.020  -0.028
    1UNL     C8   10   0.302   0.077  -0.075
    1UNL     C9   11   0.421   0.091   0.015
    1UNL     O3   12   0.472  -0.031   0.057
    1UNL    C10   13   0.063   0.013  -0.102
    1UNL     O4   14   0.069  -0.076  -0.217
    1UNL     H1   15  -0.296  -0.167  -0.081
    1UNL     H2   16  -0.435  -0.149   0.020
    1UNL     H3   17  -0.293  -0.196   0.099
    1UNL     H4   18  -0.499   0.081   0.060
    1UNL     H5   19  -0.395   0.185  -0.022
    1UNL     H6   20  -0.377   0.175   0.148
    1UNL     H7   21  -0.149   0.144   0.056
    1UNL     H8   22  -0.074  -0.134  -0.051
    1UNL     H9   23   0.304   0.116  -0.172
    1UNL    H10   24   0.496   0.159  -0.029
    1UNL    H11   25   0.392   0.153   0.099
    1UNL    H12   26   0.420  -0.055   0.131
    1UNL    H13   27   0.027   0.108  -0.139
    1UNL    H14   28   0.088  -0.161  -0.178
   0.00000   0.00000   0.00000   0.00000   0.00000   0.00000   0.00000   0.00000   0.00000
Generated with MDTraj, t= 99.0
 28
    1UNL     C1    1  -0.316  -0.127   0.047
    1UNL     C2    2  -0.287   0.016   0.036
    1UNL     C3    3  -0.393   0.108   0.062
    1UNL     C4    4  -0.160   0.054   0.005
    1UNL     C5    5  -0.044  -0.040  -0.008
    1UNL     O1    6   0.019  -0.078   0.121
    1UNL     C6    7   0.154  -0.048   0.108
    1UNL     O2    8   0.235  -0.081   0.190
    1UNL     C7    9   0.195   0.019  -0.024
    1UNL     C8   10   0.311   0.071  -0.084
    1UNL     C9   11   0.429   0.102   0.003
    1UNL     O3   12   0.475  -0.014   0.066
    1UNL    C10   13   0.068   0.014  -0.095
    1UNL     O4   14   0.084  -0.073  -0.217
    1UNL     H1   15  -0.323  -0.175  -0.054
    1UNL     H2   16  -0.400  -0.155   0.101
    1UNL     H3   17  -0.239  -0.183   0.102
    1UNL     H4   18  -0.489   0.052   0.032
    1UNL     H5   19  -0.386   0.186  -0.008
    1UNL     H6   20  -0.394   0.148   0.163
    1UNL     H7   21  -0.140   0.164  -0.002
    1UNL     H8   22  -0.075  -0.134  -0.061
    1UNL     H9   23   0.306   0.109  -0.191
    1UNL    H10   24   0.513   0.134  -0.065
    1UNL    H11   25   0.410   0.191   0.070
    1UNL    H12   26   0.402  -0.032   0.138
    1UNL    H13   27   0.039   0.112  -0.131
    1UNL    H14   28   0.106  -0.159  -0.183
   0.00000   0.00000   0.00000   0.00000   0.00000   0.00000   0.00000   0.00000   0.00000
