[ moleculetype ]
; name        nrexcl
res           1

[ atoms ]
;    nr  type  resnr resid  atom  cgnr     charge       mass
      1 SC4       1 res   C1        1      0.000     54.000
      2 TN4a      1 res   C2        2      0.000     36.000
      3 TN6a      1 res   C3        3      0.000     36.000
      4 SN6       1 res   C4        4      0.000     54.000
      5 SP1       1 res   C5        5      0.000     54.000

[ constraints ]
;  ai    aj   funct      b0(nm)
    1     2     1      0.32685
    2     3     1      0.26717
    4     5     1      0.34756
    3     4     1      0.31289
    2     4     1      0.21920

[ bonds ]
;  ai    aj   funct      b0(nm)          k(kJ/mol/nm^2)

[ angles ]
;  ai    aj    ak  funct     th0(deg)        k(kJ/mol/rad^2)
    1     2     3     1    141.00147           208.91
    1     2     4     1     92.11821           141.05
    2     3     4     1     43.50269          2350.17
    2     4     3     1     57.09441          1598.39
    2     4     5     1    107.05005           886.60
    3     2     4     1     79.40292          1360.61
    3     4     5     1     50.35639          1703.11

[ dihedrals ]
;  ai    aj    ak    al  funct   phi0(deg)        k(kJ/mol)   mult
    1     2     3     4     1     91.39420       17.310      1
    1     2     4     3     1    -37.06762       11.536      1
    1     2     4     5     1    -33.72296       12.165      1
    2     3     4     5     1      3.26770       14.275      1
    3     2     4     5     1   -176.69455       11.435      1
