[ moleculetype ]
; name        nrexcl
res           1

[ atoms ]
;    nr  type  resnr resid  atom  cgnr     charge       mass
      1 TN3r      1 res   C1        1      0.000     36.000
      2 TN4a      1 res   C2        2      0.000     36.000
      3 SC3       1 res   C3        3      0.000     54.000
      4 SN6a      1 res   C4        4      0.000     54.000
      5 TC3       1 res   C5        5      0.000     36.000
      6 SP4       1 res   C6        6      0.000     54.000
      7 TN4a      1 res   C7        7      0.000     36.000
      8 N4a       1 res   C8        8      0.000     72.000
      9 TC5       1 res   C9        9      0.000     36.000
     10 TC5       1 res   C10      10      0.000     36.000
     11 TC5       1 res   C11      11      0.000     36.000
     12 SP4       1 res   C12      12      0.000     54.000
     13 N4a       1 res   C13      13      0.000     72.000
     14 TC5       1 res   C14      14      0.000     36.000
     15 TC5       1 res   C15      15      0.000     36.000
     16 TC5       1 res   C16      16      0.000     36.000

[ constraints ]
;  ai    aj   funct      b0(nm)
    4     5     1      0.28414
   13    14     1      0.31537
    9    10     1      0.25618
    3     6     1      0.36033
   14    15     1      0.25599
    7    12     1      0.27946
    6     7     1      0.30899
   15    16     1      0.28781
    1     2     1      0.23564
   10    11     1      0.28770
    3     5     1      0.32402
    2     3     1      0.27230
    6    12     1      0.28424
    9    11     1      0.29768
    3     4     1      0.28243
   14    16     1      0.29767
    8     9     1      0.31550

[ bonds ]
;  ai    aj   funct      b0(nm)          k(kJ/mol/nm^2)
    7     8     1      0.27290          16596.3
    3    13     1      0.47019          19891.0

[ angles ]
;  ai    aj    ak  funct     th0(deg)        k(kJ/mol/rad^2)
    1     2     3     1    123.13292           182.58
    2     3     4     1     74.86138          1377.62
    2     3     5     1     76.27323          3841.09
    2     3     6     1     72.84936           643.46
    2     3    13     1     37.68048          1796.35
    3     4     5     1     69.78245          1839.51
    3     5     4     1     54.85749          3814.58
    3     6     7     1     62.23293           499.84
    3     6    12     1    109.30185           441.33
    3    13    14     1    126.40948            48.84
    4     3     5     1     55.36006          3232.19
    4     3     6     1    127.49096           939.45
    4     3    13     1     85.02048          1272.53
    5     3     6     1     77.61259          1277.49
    5     3    13     1     52.36149          3556.82
    6     3    13     1     45.46740          1723.19
    6     7     8     1    108.28684            71.61
    6     7    12     1     57.51626          2181.87
    6    12     7     1     66.46954          3095.37
    7     6    12     1     56.01416          3812.72
    7     8     9     1    120.41252           106.65
    8     7    12     1     88.53946           152.56
    8     9    10     1    160.09464           660.24
    8     9    11     1     99.27821           755.38
    9    10    11     1     66.07246          8743.23
    9    11    10     1     51.87260          8679.55
   10     9    11     1     62.05495         10789.27
   13    14    15     1    160.64976           493.47
   13    14    16     1    100.36320           747.90
   14    15    16     1     66.07468          6175.74
   14    16    15     1     51.81874          9815.87
   15    14    16     1     62.10659          6718.83

[ dihedrals ]
;  ai    aj    ak    al  funct   phi0(deg)        k(kJ/mol)   mult
    1     2     3     4     1    140.75574       11.466      1
    1     2     3     5     1     82.00852       12.173      1
    1     2     3     6     1      1.21116       12.916      1
    1     2     3    13     1     37.02896       12.898      1
    2     3     4     5     1     96.03195        4.736      1
    2     3     5     4     1    -98.98879        7.034      1
    2     3     6     7     1     98.08236       12.272      1
    2     3     6    12     1    130.14137       10.733      1
    2     3    13    14     1   -160.92359       21.006      1
    3     6     7     8     1     41.06345       18.451      1
    3     6     7    12     1    -34.93523       12.948      1
    3     6    12     7     1    147.92411       12.205      1
    3    13    14    15     1     62.09909       31.566      1
    3    13    14    16     1     70.65282       27.506      1
    4     3     6     7     1     44.80853       15.722      1
    4     3     6    12     1     75.97320       13.660      1
    4     3    13    14     1    127.44753       19.767      1
    4     5     3     6     1    -22.76058       10.025      1
    4     5     3    13     1    -65.11110        8.553      1
    5     3     6     7     1     19.07205       12.939      1
    5     3     6    12     1     52.05650       10.683      1
    5     3    13    14     1     79.26297       18.455      1
    5     4     3     6     1    150.02113       12.225      1
    5     4     3    13     1    133.96435        6.237      1
    6     3    13    14     1    -31.95213       19.124      1
    6     7     8     9     1     55.92157       19.063      1
    6    12     7     8     1     69.75007       15.676      1
    7     6     3    13     1     66.17257       12.219      1
    7     8     9    10     1    -22.65319       29.785      1
    7     8     9    11     1    -24.88124       32.157      1
    8     7     6    12     1   -104.02094       13.622      1
    8     9    10    11     1    177.27490       27.375      1
    8     9    11    10     1      0.04087       12.279      1
    9     8     7    12     1    111.60076       19.508      1
   12     6     3    13     1     99.01249        8.612      1
   13    14    15    16     1   -170.10412       26.156      1
   13    14    16    15     1      4.26226       14.982      1
