[ moleculetype ]
; name        nrexcl
res           1

[ atoms ]
;    nr  type  resnr resid  atom  cgnr     charge       mass
      1 SC4       1 res   C1        1      0.000     54.000
      2 TN6a      1 res   C2        2      0.000     36.000
      3 TC5e      1 res   C3        3      0.000     36.000
      4 TC5       1 res   C4        4      0.000     36.000
      5 TC5       1 res   C5        5      0.000     36.000

[ constraints ]
;  ai    aj   funct      b0(nm)
    1     2     1      0.34681
    3     5     1      0.25228
    2     3     1      0.25001
    4     5     1      0.28880
    3     4     1      0.25124
    1     3     1      0.28607

[ bonds ]
;  ai    aj   funct      b0(nm)          k(kJ/mol/nm^2)

[ angles ]
;  ai    aj    ak  funct     th0(deg)        k(kJ/mol/rad^2)
    1     2     3     1     54.39908          7332.92
    1     3     2     1     80.32002          4679.41
    1     3     4     1    162.58500          3652.64
    1     3     5     1     93.19660          3745.41
    2     1     3     1     45.28093         12187.53
    2     3     4     1    116.08767          2498.22
    2     3     5     1    171.90307          1536.02
    3     4     5     1     55.16834          9186.74
    3     5     4     1     54.83160          9601.53
    4     3     5     1     70.00006          6413.20

[ dihedrals ]
;  ai    aj    ak    al  funct   phi0(deg)        k(kJ/mol)   mult
    1     2     3     4     1      0.93268       11.486      1
    1     2     3     5     1   -178.33881       32.878      1
    1     3     4     5     1    178.82379       22.256      1
    1     3     5     4     1      0.91679        8.590      1
    2     1     3     4     1     -0.10522       23.866      1
    2     1     3     5     1     -0.02504        9.343      1
    2     3     4     5     1     -0.95918       11.485      1
    2     3     5     4     1     -1.44177       32.343      1
