Generated with MDTraj, t= 0.0
 15
    1UNL     O1    1  -0.322  -0.088  -0.060
    1UNL     C1    2  -0.259   0.004  -0.016
    1UNL     C2    3  -0.114   0.006  -0.005
    1UNL     C3    4  -0.040  -0.103  -0.048
    1UNL     C4    5   0.097  -0.104  -0.039
    1UNL     C5    6   0.165   0.006   0.014
    1UNL     O2    7   0.302   0.009   0.024
    1UNL     C6    8   0.090   0.116   0.057
    1UNL     C7    9  -0.046   0.116   0.048
    1UNL     H1   10  -0.315   0.089   0.018
    1UNL     H2   11  -0.093  -0.188  -0.089
    1UNL     H3   12   0.153  -0.190  -0.073
    1UNL     H4   13   0.341  -0.075  -0.010
    1UNL     H5   14   0.143   0.200   0.097
    1UNL     H6   15  -0.103   0.202   0.081
   0.00000   0.00000   0.00000   0.00000   0.00000   0.00000   0.00000   0.00000   0.00000
Generated with MDTraj, t= 1.0
 15
    1UNL     O1    1  -0.321  -0.085  -0.059
    1UNL     C1    2  -0.257   0.005  -0.019
    1UNL     C2    3  -0.111   0.003  -0.007
    1UNL     C3    4  -0.039  -0.107  -0.049
    1UNL     C4    5   0.096  -0.104  -0.039
    1UNL     C5    6   0.164   0.005   0.020
    1UNL     O2    7   0.301   0.010   0.018
    1UNL     C6    8   0.091   0.115   0.065
    1UNL     C7    9  -0.048   0.117   0.044
    1UNL     H1   10  -0.313   0.086   0.021
    1UNL     H2   11  -0.099  -0.203  -0.067
    1UNL     H3   12   0.159  -0.193  -0.064
    1UNL     H4   13   0.338  -0.063  -0.029
    1UNL     H5   14   0.135   0.201   0.119
    1UNL     H6   15  -0.099   0.207   0.060
   0.00000   0.00000   0.00000   0.00000   0.00000   0.00000   0.00000   0.00000   0.00000
Generated with MDTraj, t= 2.0
 15
    1UNL     O1    1  -0.321  -0.086  -0.061
    1UNL     C1    2  -0.256   0.002  -0.009
    1UNL     C2    3  -0.113   0.005  -0.004
    1UNL     C3    4  -0.038  -0.104  -0.049
    1UNL     C4    5   0.100  -0.101  -0.049
    1UNL     C5    6   0.163   0.006   0.015
    1UNL     O2    7   0.300   0.005   0.028
    1UNL     C6    8   0.087   0.115   0.062
    1UNL     C7    9  -0.049   0.121   0.036
    1UNL     H1   10  -0.307   0.080   0.059
    1UNL     H2   11  -0.088  -0.190  -0.063
    1UNL     H3   12   0.152  -0.190  -0.057
    1UNL     H4   13   0.337  -0.068  -0.020
    1UNL     H5   14   0.145   0.197   0.094
    1UNL     H6   15  -0.105   0.217   0.070
   0.00000   0.00000   0.00000   0.00000   0.00000   0.00000   0.00000   0.00000   0.00000
Generated with MDTraj, t= 3.0
 15
    1UNL     O1    1  -0.325  -0.089  -0.053
    1UNL     C1    2  -0.255   0.009  -0.029
    1UNL     C2    3  -0.111   0.006  -0.005
    1UNL     C3    4  -0.039  -0.105  -0.043
    1UNL     C4    5   0.099  -0.100  -0.048
    1UNL     C5    6   0.163   0.004   0.019
    1UNL     O2    7   0.300   0.011   0.020
    1UNL     C6    8   0.088   0.110   0.068
    1UNL     C7    9  -0.045   0.118   0.047
    1UNL     H1   10  -0.311   0.091  -0.017
    1UNL     H2   11  -0.096  -0.204  -0.065
    1UNL     H3   12   0.149  -0.200  -0.062
    1UNL     H4   13   0.345  -0.059  -0.028
    1UNL     H5   14   0.146   0.197   0.106
    1UNL     H6   15  -0.099   0.202   0.059
   0.00000   0.00000   0.00000   0.00000   0.00000   0.00000   0.00000   0.00000   0.00000
Generated with MDTraj, t= 4.0
 15
    1UNL     O1    1  -0.318  -0.085  -0.066
    1UNL     C1    2  -0.260  -0.002  -0.003
    1UNL     C2    3  -0.116   0.004   0.001
    1UNL     C3    4  -0.046  -0.105  -0.049
    1UNL     C4    5   0.098  -0.098  -0.051
    1UNL     C5    6   0.169   0.008   0.010
    1UNL     O2    7   0.303   0.004   0.035
    1UNL     C6    8   0.090   0.118   0.052
    1UNL     C7    9  -0.046   0.117   0.043
    1UNL     H1   10  -0.324   0.088   0.042
    1UNL     H2   11  -0.089  -0.202  -0.050
    1UNL     H3   12   0.147  -0.183  -0.086
    1UNL     H4   13   0.349  -0.075   0.000
    1UNL     H5   14   0.145   0.203   0.075
    1UNL     H6   15  -0.100   0.214   0.055
   0.00000   0.00000   0.00000   0.00000   0.00000   0.00000   0.00000   0.00000   0.00000
Generated with MDTraj, t= 5.0
 15
    1UNL     O1    1  -0.324  -0.089  -0.059
    1UNL     C1    2  -0.258   0.006  -0.028
    1UNL     C2    3  -0.113   0.009  -0.004
    1UNL     C3    4  -0.040  -0.106  -0.040
    1UNL     C4    5   0.097  -0.105  -0.041
    1UNL     C5    6   0.162   0.003   0.015
    1UNL     O2    7   0.302   0.015   0.017
    1UNL     C6    8   0.093   0.111   0.064
    1UNL     C7    9  -0.047   0.114   0.058
    1UNL     H1   10  -0.298   0.098  -0.029
    1UNL     H2   11  -0.098  -0.191  -0.066
    1UNL     H3   12   0.147  -0.199  -0.072
    1UNL     H4   13   0.346  -0.066  -0.023
    1UNL     H5   14   0.151   0.204   0.085
    1UNL     H6   15  -0.098   0.212   0.077
   0.00000   0.00000   0.00000   0.00000   0.00000   0.00000   0.00000   0.00000   0.00000
Generated with MDTraj, t= 6.0
 15
    1UNL     O1    1  -0.321  -0.085  -0.064
    1UNL     C1    2  -0.260  -0.001  -0.002
    1UNL     C2    3  -0.113   0.008  -0.008
    1UNL     C3    4  -0.038  -0.100  -0.052
    1UNL     C4    5   0.096  -0.106  -0.043
    1UNL     C5    6   0.166   0.004   0.013
    1UNL     O2    7   0.305   0.008   0.031
    1UNL     C6    8   0.091   0.116   0.052
    1UNL     C7    9  -0.051   0.117   0.046
    1UNL     H1   10  -0.330   0.069   0.055
    1UNL     H2   11  -0.098  -0.188  -0.095
    1UNL     H3   12   0.153  -0.191  -0.068
    1UNL     H4   13   0.349  -0.082   0.011
    1UNL     H5   14   0.137   0.211   0.062
    1UNL     H6   15  -0.102   0.203   0.069
   0.00000   0.00000   0.00000   0.00000   0.00000   0.00000   0.00000   0.00000   0.00000
Generated with MDTraj, t= 7.0
 15
    1UNL     O1    1  -0.321  -0.093  -0.055
    1UNL     C1    2  -0.255   0.004  -0.021
    1UNL     C2    3  -0.114   0.011  -0.016
    1UNL     C3    4  -0.042  -0.101  -0.057
    1UNL     C4    5   0.094  -0.108  -0.028
    1UNL     C5    6   0.164   0.004   0.015
    1UNL     O2    7   0.300   0.012   0.017
    1UNL     C6    8   0.093   0.116   0.066
    1UNL     C7    9  -0.043   0.114   0.056
    1UNL     H1   10  -0.305   0.098  -0.002
    1UNL     H2   11  -0.095  -0.177  -0.096
    1UNL     H3   12   0.153  -0.195  -0.057
    1UNL     H4   13   0.332  -0.079  -0.015
    1UNL     H5   14   0.141   0.207   0.102
    1UNL     H6   15  -0.100   0.209   0.084
   0.00000   0.00000   0.00000   0.00000   0.00000   0.00000   0.00000   0.00000   0.00000
Generated with MDTraj, t= 8.0
 15
    1UNL     O1    1  -0.322  -0.082  -0.061
    1UNL     C1    2  -0.259   0.003  -0.008
    1UNL     C2    3  -0.112   0.005  -0.010
    1UNL     C3    4  -0.037  -0.102  -0.053
    1UNL     C4    5   0.099  -0.106  -0.033
    1UNL     C5    6   0.165   0.005   0.011
    1UNL     O2    7   0.305   0.009   0.025
    1UNL     C6    8   0.083   0.118   0.051
    1UNL     C7    9  -0.049   0.112   0.052
    1UNL     H1   10  -0.316   0.075   0.045
    1UNL     H2   11  -0.082  -0.186  -0.118
    1UNL     H3   12   0.159  -0.193  -0.058
    1UNL     H4   13   0.338  -0.083   0.006
    1UNL     H5   14   0.144   0.201   0.087
    1UNL     H6   15  -0.111   0.191   0.073
   0.00000   0.00000   0.00000   0.00000   0.00000   0.00000   0.00000   0.00000   0.00000
Generated with MDTraj, t= 9.0
 15
    1UNL     O1    1  -0.322  -0.086  -0.064
    1UNL     C1    2  -0.255   0.001  -0.020
    1UNL     C2    3  -0.112   0.004   0.005
    1UNL     C3    4  -0.039  -0.106  -0.049
    1UNL     C4    5   0.096  -0.110  -0.034
    1UNL     C5    6   0.163   0.010   0.009
    1UNL     O2    7   0.298   0.009   0.021
    1UNL     C6    8   0.091   0.120   0.053
    1UNL     C7    9  -0.044   0.117   0.056
    1UNL     H1   10  -0.310   0.095   0.018
    1UNL     H2   11  -0.089  -0.178  -0.106
    1UNL     H3   12   0.153  -0.193  -0.069
    1UNL     H4   13   0.337  -0.076  -0.005
    1UNL     H5   14   0.143   0.208   0.083
    1UNL     H6   15  -0.109   0.197   0.104
   0.00000   0.00000   0.00000   0.00000   0.00000   0.00000   0.00000   0.00000   0.00000
Generated with MDTraj, t= 10.0
 15
    1UNL     O1    1  -0.321  -0.087  -0.057
    1UNL     C1    2  -0.257   0.010  -0.019
    1UNL     C2    3  -0.116   0.004  -0.002
    1UNL     C3    4  -0.040  -0.107  -0.049
    1UNL     C4    5   0.096  -0.103  -0.039
    1UNL     C5    6   0.168   0.009   0.013
    1UNL     O2    7   0.305   0.009   0.024
    1UNL     C6    8   0.089   0.118   0.051
    1UNL     C7    9  -0.050   0.109   0.050
    1UNL     H1   10  -0.302   0.099  -0.001
    1UNL     H2   11  -0.096  -0.184  -0.101
    1UNL     H3   12   0.160  -0.189  -0.065
    1UNL     H4   13   0.344  -0.076   0.005
    1UNL     H5   14   0.136   0.190   0.117
    1UNL     H6   15  -0.104   0.186   0.096
   0.00000   0.00000   0.00000   0.00000   0.00000   0.00000   0.00000   0.00000   0.00000
Generated with MDTraj, t= 11.0
 15
    1UNL     O1    1  -0.324  -0.091  -0.059
    1UNL     C1    2  -0.257   0.000  -0.013
    1UNL     C2    3  -0.111   0.006  -0.002
    1UNL     C3    4  -0.039  -0.100  -0.051
    1UNL     C4    5   0.094  -0.106  -0.044
    1UNL     C5    6   0.163   0.004   0.011
    1UNL     O2    7   0.302   0.008   0.031
    1UNL     C6    8   0.094   0.118   0.053
    1UNL     C7    9  -0.044   0.124   0.043
    1UNL     H1   10  -0.332   0.079   0.034
    1UNL     H2   11  -0.098  -0.191  -0.095
    1UNL     H3   12   0.145  -0.182  -0.097
    1UNL     H4   13   0.334  -0.077   0.008
    1UNL     H5   14   0.147   0.195   0.107
    1UNL     H6   15  -0.104   0.195   0.101
   0.00000   0.00000   0.00000   0.00000   0.00000   0.00000   0.00000   0.00000   0.00000
Generated with MDTraj, t= 12.0
 15
    1UNL     O1    1  -0.321  -0.088  -0.057
    1UNL     C1    2  -0.260   0.009  -0.024
    1UNL     C2    3  -0.116   0.005  -0.008
    1UNL     C3    4  -0.044  -0.105  -0.039
    1UNL     C4    5   0.100  -0.106  -0.037
    1UNL     C5    6   0.167  -0.002   0.018
    1UNL     O2    7   0.305   0.016   0.017
    1UNL     C6    8   0.088   0.110   0.061
    1UNL     C7    9  -0.048   0.117   0.046
    1UNL     H1   10  -0.305   0.097  -0.000
    1UNL     H2   11  -0.093  -0.177  -0.085
    1UNL     H3   12   0.161  -0.186  -0.084
    1UNL     H4   13   0.344  -0.054  -0.035
    1UNL     H5   14   0.135   0.183   0.124
    1UNL     H6   15  -0.099   0.197   0.101
   0.00000   0.00000   0.00000   0.00000   0.00000   0.00000   0.00000   0.00000   0.00000
Generated with MDTraj, t= 13.0
 15
    1UNL     O1    1  -0.320  -0.085  -0.067
    1UNL     C1    2  -0.260  -0.005  -0.004
    1UNL     C2    3  -0.111   0.006  -0.005
    1UNL     C3    4  -0.044  -0.105  -0.046
    1UNL     C4    5   0.094  -0.102  -0.041
    1UNL     C5    6   0.165   0.003   0.015
    1UNL     O2    7   0.301   0.010   0.029
    1UNL     C6    8   0.094   0.118   0.054
    1UNL     C7    9  -0.043   0.122   0.036
    1UNL     H1   10  -0.325   0.064   0.057
    1UNL     H2   11  -0.105  -0.191  -0.087
    1UNL     H3   12   0.144  -0.178  -0.097
    1UNL     H4   13   0.338  -0.064  -0.024
    1UNL     H5   14   0.140   0.194   0.115
    1UNL     H6   15  -0.093   0.201   0.086
   0.00000   0.00000   0.00000   0.00000   0.00000   0.00000   0.00000   0.00000   0.00000
Generated with MDTraj, t= 14.0
 15
    1UNL     O1    1  -0.321  -0.090  -0.052
    1UNL     C1    2  -0.256   0.010  -0.027
    1UNL     C2    3  -0.112   0.007  -0.007
    1UNL     C3    4  -0.038  -0.106  -0.044
    1UNL     C4    5   0.096  -0.107  -0.040
    1UNL     C5    6   0.162   0.005   0.018
    1UNL     O2    7   0.303   0.012   0.019
    1UNL     C6    8   0.089   0.111   0.067
    1UNL     C7    9  -0.049   0.118   0.044
    1UNL     H1   10  -0.322   0.100  -0.017
    1UNL     H2   11  -0.094  -0.189  -0.095
    1UNL     H3   12   0.159  -0.178  -0.094
    1UNL     H4   13   0.352  -0.056  -0.037
    1UNL     H5   14   0.139   0.183   0.127
    1UNL     H6   15  -0.107   0.202   0.092
   0.00000   0.00000   0.00000   0.00000   0.00000   0.00000   0.00000   0.00000   0.00000
Generated with MDTraj, t= 15.0
 15
    1UNL     O1    1  -0.321  -0.087  -0.063
    1UNL     C1    2  -0.255   0.002  -0.006
    1UNL     C2    3  -0.115   0.005  -0.001
    1UNL     C3    4  -0.038  -0.107  -0.045
    1UNL     C4    5   0.100  -0.101  -0.048
    1UNL     C5    6   0.167   0.011   0.009
    1UNL     O2    7   0.296   0.003   0.033
    1UNL     C6    8   0.090   0.119   0.050
    1UNL     C7    9  -0.049   0.119   0.042
    1UNL     H1   10  -0.300   0.081   0.043
    1UNL     H2   11  -0.089  -0.175  -0.099
    1UNL     H3   12   0.151  -0.186  -0.093
    1UNL     H4   13   0.338  -0.084   0.001
    1UNL     H5   14   0.142   0.197   0.107
    1UNL     H6   15  -0.101   0.201   0.078
   0.00000   0.00000   0.00000   0.00000   0.00000   0.00000   0.00000   0.00000   0.00000
Generated with MDTraj, t= 16.0
 15
    1UNL     O1    1  -0.320  -0.086  -0.061
    1UNL     C1    2  -0.256   0.007  -0.024
    1UNL     C2    3  -0.111   0.000   0.003
    1UNL     C3    4  -0.042  -0.109  -0.045
    1UNL     C4    5   0.097  -0.106  -0.034
    1UNL     C5    6   0.162   0.010   0.008
    1UNL     O2    7   0.301   0.010   0.019
    1UNL     C6    8   0.089   0.119   0.063
    1UNL     C7    9  -0.044   0.114   0.053
    1UNL     H1   10  -0.323   0.103  -0.017
    1UNL     H2   11  -0.094  -0.198  -0.101
    1UNL     H3   12   0.153  -0.180  -0.086
    1UNL     H4   13   0.345  -0.075  -0.017
    1UNL     H5   14   0.141   0.198   0.105
    1UNL     H6   15  -0.109   0.199   0.079
   0.00000   0.00000   0.00000   0.00000   0.00000   0.00000   0.00000   0.00000   0.00000
Generated with MDTraj, t= 17.0
 15
    1UNL     O1    1  -0.320  -0.084  -0.064
    1UNL     C1    2  -0.261   0.001  -0.008
    1UNL     C2    3  -0.113   0.004  -0.008
    1UNL     C3    4  -0.041  -0.103  -0.049
    1UNL     C4    5   0.099  -0.105  -0.037
    1UNL     C5    6   0.166   0.006   0.011
    1UNL     O2    7   0.302   0.010   0.027
    1UNL     C6    8   0.088   0.117   0.051
    1UNL     C7    9  -0.046   0.115   0.052
    1UNL     H1   10  -0.306   0.076   0.042
    1UNL     H2   11  -0.086  -0.176  -0.106
    1UNL     H3   12   0.152  -0.200  -0.064
    1UNL     H4   13   0.334  -0.079  -0.009
    1UNL     H5   14   0.146   0.202   0.099
    1UNL     H6   15  -0.103   0.205   0.068
   0.00000   0.00000   0.00000   0.00000   0.00000   0.00000   0.00000   0.00000   0.00000
Generated with MDTraj, t= 18.0
 15
    1UNL     O1    1  -0.323  -0.092  -0.057
    1UNL     C1    2  -0.257   0.002  -0.019
    1UNL     C2    3  -0.115   0.012  -0.009
    1UNL     C3    4  -0.039  -0.097  -0.057
    1UNL     C4    5   0.096  -0.108  -0.033
    1UNL     C5    6   0.164   0.000   0.014
    1UNL     O2    7   0.301   0.011   0.023
    1UNL     C6    8   0.094   0.115   0.062
    1UNL     C7    9  -0.046   0.119   0.049
    1UNL     H1   10  -0.321   0.087   0.020
    1UNL     H2   11  -0.100  -0.178  -0.101
    1UNL     H3   12   0.154  -0.191  -0.059
    1UNL     H4   13   0.345  -0.072  -0.006
    1UNL     H5   14   0.144   0.203   0.081
    1UNL     H6   15  -0.097   0.201   0.095
   0.00000   0.00000   0.00000   0.00000   0.00000   0.00000   0.00000   0.00000   0.00000
Generated with MDTraj, t= 19.0
 15
    1UNL     O1    1  -0.324  -0.088  -0.057
    1UNL     C1    2  -0.263   0.008  -0.013
    1UNL     C2    3  -0.115   0.007  -0.012
    1UNL     C3    4  -0.038  -0.103  -0.057
    1UNL     C4    5   0.093  -0.107  -0.039
    1UNL     C5    6   0.170   0.005   0.020
    1UNL     O2    7   0.308   0.015   0.025
    1UNL     C6    8   0.093   0.113   0.053
    1UNL     C7    9  -0.049   0.110   0.051
    1UNL     H1   10  -0.326   0.092   0.017
    1UNL     H2   11  -0.089  -0.192  -0.092
    1UNL     H3   12   0.145  -0.203  -0.058
    1UNL     H4   13   0.348  -0.072   0.010
    1UNL     H5   14   0.140   0.206   0.091
    1UNL     H6   15  -0.106   0.196   0.084
   0.00000   0.00000   0.00000   0.00000   0.00000   0.00000   0.00000   0.00000   0.00000
Generated with MDTraj, t= 20.0
 15
    1UNL     O1    1  -0.322  -0.089  -0.067
    1UNL     C1    2  -0.258  -0.003  -0.013
    1UNL     C2    3  -0.114   0.012   0.000
    1UNL     C3    4  -0.042  -0.099  -0.051
    1UNL     C4    5   0.097  -0.106  -0.039
    1UNL     C5    6   0.162   0.005   0.014
    1UNL     O2    7   0.299   0.009   0.024
    1UNL     C6    8   0.094   0.117   0.052
    1UNL     C7    9  -0.042   0.115   0.053
    1UNL     H1   10  -0.305   0.083   0.028
    1UNL     H2   11  -0.103  -0.187  -0.067
    1UNL     H3   12   0.155  -0.189  -0.066
    1UNL     H4   13   0.346  -0.072   0.010
    1UNL     H5   14   0.157   0.207   0.071
    1UNL     H6   15  -0.097   0.200   0.089
   0.00000   0.00000   0.00000   0.00000   0.00000   0.00000   0.00000   0.00000   0.00000
Generated with MDTraj, t= 21.0
 15
    1UNL     O1    1  -0.320  -0.085  -0.058
    1UNL     C1    2  -0.260   0.010  -0.023
    1UNL     C2    3  -0.114   0.004  -0.002
    1UNL     C3    4  -0.040  -0.107  -0.046
    1UNL     C4    5   0.102  -0.104  -0.043
    1UNL     C5    6   0.169   0.006   0.015
    1UNL     O2    7   0.304   0.011   0.021
    1UNL     C6    8   0.083   0.113   0.058
    1UNL     C7    9  -0.050   0.113   0.055
    1UNL     H1   10  -0.319   0.109  -0.015
    1UNL     H2   11  -0.078  -0.204  -0.076
    1UNL     H3   12   0.142  -0.203  -0.063
    1UNL     H4   13   0.342  -0.072  -0.007
    1UNL     H5   14   0.131   0.199   0.075
    1UNL     H6   15  -0.114   0.194   0.086
   0.00000   0.00000   0.00000   0.00000   0.00000   0.00000   0.00000   0.00000   0.00000
Generated with MDTraj, t= 22.0
 15
    1UNL     O1    1  -0.322  -0.090  -0.059
    1UNL     C1    2  -0.254  -0.001  -0.011
    1UNL     C2    3  -0.110   0.004  -0.003
    1UNL     C3    4  -0.042  -0.104  -0.053
    1UNL     C4    5   0.096  -0.098  -0.050
    1UNL     C5    6   0.158   0.009   0.012
    1UNL     O2    7   0.296   0.003   0.032
    1UNL     C6    8   0.093   0.122   0.056
    1UNL     C7    9  -0.041   0.118   0.047
    1UNL     H1   10  -0.308   0.077   0.020
    1UNL     H2   11  -0.096  -0.196  -0.072
    1UNL     H3   12   0.161  -0.188  -0.071
    1UNL     H4   13   0.342  -0.075  -0.004
    1UNL     H5   14   0.157   0.214   0.086
    1UNL     H6   15  -0.105   0.206   0.062
   0.00000   0.00000   0.00000   0.00000   0.00000   0.00000   0.00000   0.00000   0.00000
Generated with MDTraj, t= 23.0
 15
    1UNL     O1    1  -0.317  -0.089  -0.054
    1UNL     C1    2  -0.257   0.012  -0.022
    1UNL     C2    3  -0.115   0.005  -0.009
    1UNL     C3    4  -0.037  -0.105  -0.048
    1UNL     C4    5   0.099  -0.103  -0.042
    1UNL     C5    6   0.166   0.006   0.016
    1UNL     O2    7   0.303   0.010   0.019
    1UNL     C6    8   0.086   0.109   0.069
    1UNL     C7    9  -0.054   0.114   0.046
    1UNL     H1   10  -0.309   0.114  -0.000
    1UNL     H2   11  -0.090  -0.197  -0.067
    1UNL     H3   12   0.149  -0.186  -0.073
    1UNL     H4   13   0.329  -0.076  -0.025
    1UNL     H5   14   0.132   0.198   0.103
    1UNL     H6   15  -0.096   0.209   0.057
   0.00000   0.00000   0.00000   0.00000   0.00000   0.00000   0.00000   0.00000   0.00000
Generated with MDTraj, t= 24.0
 15
    1UNL     O1    1  -0.324  -0.082  -0.067
    1UNL     C1    2  -0.257  -0.007  -0.006
    1UNL     C2    3  -0.109   0.008  -0.009
    1UNL     C3    4  -0.039  -0.106  -0.042
    1UNL     C4    5   0.097  -0.106  -0.045
    1UNL     C5    6   0.160   0.004   0.011
    1UNL     O2    7   0.298   0.010   0.026
    1UNL     C6    8   0.094   0.117   0.063
    1UNL     C7    9  -0.044   0.122   0.042
    1UNL     H1   10  -0.320   0.052   0.055
    1UNL     H2   11  -0.098  -0.186  -0.081
    1UNL     H3   12   0.164  -0.197  -0.057
    1UNL     H4   13   0.348  -0.069  -0.014
    1UNL     H5   14   0.144   0.203   0.099
    1UNL     H6   15  -0.096   0.221   0.051
   0.00000   0.00000   0.00000   0.00000   0.00000   0.00000   0.00000   0.00000   0.00000
Generated with MDTraj, t= 25.0
 15
    1UNL     O1    1  -0.316  -0.089  -0.060
    1UNL     C1    2  -0.263   0.009  -0.021
    1UNL     C2    3  -0.117   0.005  -0.006
    1UNL     C3    4  -0.045  -0.103  -0.044
    1UNL     C4    5   0.096  -0.105  -0.034
    1UNL     C5    6   0.168   0.006   0.011
    1UNL     O2    7   0.305   0.013   0.020
    1UNL     C6    8   0.088   0.108   0.067
    1UNL     C7    9  -0.046   0.113   0.048
    1UNL     H1   10  -0.311   0.105  -0.007
    1UNL     H2   11  -0.096  -0.191  -0.084
    1UNL     H3   12   0.139  -0.190  -0.073
    1UNL     H4   13   0.341  -0.058  -0.044
    1UNL     H5   14   0.145   0.203   0.096
    1UNL     H6   15  -0.092   0.205   0.060
   0.00000   0.00000   0.00000   0.00000   0.00000   0.00000   0.00000   0.00000   0.00000
Generated with MDTraj, t= 26.0
 15
    1UNL     O1    1  -0.328  -0.088  -0.060
    1UNL     C1    2  -0.259  -0.002  -0.011
    1UNL     C2    3  -0.114   0.007  -0.004
    1UNL     C3    4  -0.043  -0.104  -0.050
    1UNL     C4    5   0.099  -0.105  -0.050
    1UNL     C5    6   0.164   0.004   0.011
    1UNL     O2    7   0.301   0.011   0.035
    1UNL     C6    8   0.095   0.119   0.051
    1UNL     C7    9  -0.041   0.116   0.051
    1UNL     H1   10  -0.323   0.085   0.024
    1UNL     H2   11  -0.096  -0.183  -0.094
    1UNL     H3   12   0.162  -0.186  -0.097
    1UNL     H4   13   0.353  -0.071   0.008
    1UNL     H5   14   0.157   0.189   0.090
    1UNL     H6   15  -0.100   0.212   0.062
   0.00000   0.00000   0.00000   0.00000   0.00000   0.00000   0.00000   0.00000   0.00000
Generated with MDTraj, t= 27.0
 15
    1UNL     O1    1  -0.317  -0.092  -0.060
    1UNL     C1    2  -0.261   0.010  -0.019
    1UNL     C2    3  -0.117   0.009  -0.003
    1UNL     C3    4  -0.037  -0.103  -0.046
    1UNL     C4    5   0.094  -0.105  -0.039
    1UNL     C5    6   0.169   0.007   0.009
    1UNL     O2    7   0.304   0.009   0.023
    1UNL     C6    8   0.088   0.110   0.056
    1UNL     C7    9  -0.049   0.117   0.052
    1UNL     H1   10  -0.315   0.095  -0.005
    1UNL     H2   11  -0.091  -0.189  -0.083
    1UNL     H3   12   0.143  -0.189  -0.082
    1UNL     H4   13   0.346  -0.079   0.007
    1UNL     H5   14   0.135   0.206   0.093
    1UNL     H6   15  -0.104   0.187   0.104
   0.00000   0.00000   0.00000   0.00000   0.00000   0.00000   0.00000   0.00000   0.00000
Generated with MDTraj, t= 28.0
 15
    1UNL     O1    1  -0.324  -0.083  -0.064
    1UNL     C1    2  -0.255  -0.001  -0.014
    1UNL     C2    3  -0.114   0.004  -0.004
    1UNL     C3    4  -0.040  -0.109  -0.048
    1UNL     C4    5   0.095  -0.107  -0.037
    1UNL     C5    6   0.164   0.005   0.018
    1UNL     O2    7   0.300   0.014   0.021
    1UNL     C6    8   0.093   0.121   0.053
    1UNL     C7    9  -0.046   0.112   0.049
    1UNL     H1   10  -0.309   0.096   0.026
    1UNL     H2   11  -0.101  -0.181  -0.102
    1UNL     H3   12   0.168  -0.186  -0.057
    1UNL     H4   13   0.338  -0.073   0.003
    1UNL     H5   14   0.152   0.202   0.091
    1UNL     H6   15  -0.101   0.192   0.105
   0.00000   0.00000   0.00000   0.00000   0.00000   0.00000   0.00000   0.00000   0.00000
Generated with MDTraj, t= 29.0
 15
    1UNL     O1    1  -0.318  -0.087  -0.060
    1UNL     C1    2  -0.259   0.004  -0.013
    1UNL     C2    3  -0.113   0.003  -0.007
    1UNL     C3    4  -0.036  -0.101  -0.057
    1UNL     C4    5   0.096  -0.107  -0.031
    1UNL     C5    6   0.162   0.004   0.018
    1UNL     O2    7   0.303   0.008   0.021
    1UNL     C6    8   0.087   0.120   0.052
    1UNL     C7    9  -0.048   0.118   0.050
    1UNL     H1   10  -0.311   0.077   0.033
    1UNL     H2   11  -0.085  -0.186  -0.099
    1UNL     H3   12   0.154  -0.192  -0.072
    1UNL     H4   13   0.325  -0.077  -0.015
    1UNL     H5   14   0.131   0.201   0.105
    1UNL     H6   15  -0.107   0.193   0.097
   0.00000   0.00000   0.00000   0.00000   0.00000   0.00000   0.00000   0.00000   0.00000
Generated with MDTraj, t= 30.0
 15
    1UNL     O1    1  -0.324  -0.089  -0.051
    1UNL     C1    2  -0.254   0.005  -0.022
    1UNL     C2    3  -0.109   0.006  -0.009
    1UNL     C3    4  -0.038  -0.099  -0.057
    1UNL     C4    5   0.100  -0.106  -0.033
    1UNL     C5    6   0.165   0.003   0.015
    1UNL     O2    7   0.299   0.009   0.022
    1UNL     C6    8   0.087   0.117   0.056
    1UNL     C7    9  -0.048   0.115   0.048
    1UNL     H1   10  -0.316   0.095   0.017
    1UNL     H2   11  -0.090  -0.181  -0.104
    1UNL     H3   12   0.165  -0.179  -0.061
    1UNL     H4   13   0.337  -0.071  -0.011
    1UNL     H5   14   0.139   0.195   0.120
    1UNL     H6   15  -0.113   0.186   0.098
   0.00000   0.00000   0.00000   0.00000   0.00000   0.00000   0.00000   0.00000   0.00000
Generated with MDTraj, t= 31.0
 15
    1UNL     O1    1  -0.321  -0.090  -0.062
    1UNL     C1    2  -0.259   0.002  -0.010
    1UNL     C2    3  -0.116   0.006  -0.003
    1UNL     C3    4  -0.042  -0.107  -0.051
    1UNL     C4    5   0.095  -0.104  -0.042
    1UNL     C5    6   0.163   0.008   0.013
    1UNL     O2    7   0.304   0.007   0.028
    1UNL     C6    8   0.094   0.121   0.052
    1UNL     C7    9  -0.045   0.119   0.044
    1UNL     H1   10  -0.308   0.083   0.040
    1UNL     H2   11  -0.090  -0.179  -0.116
    1UNL     H3   12   0.146  -0.202  -0.076
    1UNL     H4   13   0.331  -0.084   0.015
    1UNL     H5   14   0.138   0.195   0.104
    1UNL     H6   15  -0.099   0.199   0.094
   0.00000   0.00000   0.00000   0.00000   0.00000   0.00000   0.00000   0.00000   0.00000
Generated with MDTraj, t= 32.0
 15
    1UNL     O1    1  -0.322  -0.088  -0.062
    1UNL     C1    2  -0.259   0.008  -0.027
    1UNL     C2    3  -0.113   0.006   0.005
    1UNL     C3    4  -0.043  -0.105  -0.039
    1UNL     C4    5   0.096  -0.108  -0.035
    1UNL     C5    6   0.167   0.008   0.009
    1UNL     O2    7   0.305   0.014   0.019
    1UNL     C6    8   0.091   0.110   0.058
    1UNL     C7    9  -0.049   0.113   0.052
    1UNL     H1   10  -0.319   0.096  -0.019
    1UNL     H2   11  -0.091  -0.188  -0.088
    1UNL     H3   12   0.152  -0.177  -0.088
    1UNL     H4   13   0.352  -0.064  -0.018
    1UNL     H5   14   0.155   0.188   0.110
    1UNL     H6   15  -0.108   0.191   0.093
   0.00000   0.00000   0.00000   0.00000   0.00000   0.00000   0.00000   0.00000   0.00000
Generated with MDTraj, t= 33.0
 15
    1UNL     O1    1  -0.326  -0.086  -0.066
    1UNL     C1    2  -0.261  -0.004  -0.007
    1UNL     C2    3  -0.115   0.008   0.000
    1UNL     C3    4  -0.040  -0.106  -0.042
    1UNL     C4    5   0.100  -0.102  -0.047
    1UNL     C5    6   0.167   0.005   0.008
    1UNL     O2    7   0.301   0.009   0.034
    1UNL     C6    8   0.094   0.116   0.048
    1UNL     C7    9  -0.043   0.118   0.047
    1UNL     H1   10  -0.313   0.086   0.041
    1UNL     H2   11  -0.091  -0.184  -0.098
    1UNL     H3   12   0.143  -0.184  -0.101
    1UNL     H4   13   0.351  -0.067  -0.009
    1UNL     H5   14   0.135   0.198   0.110
    1UNL     H6   15  -0.097   0.214   0.073
   0.00000   0.00000   0.00000   0.00000   0.00000   0.00000   0.00000   0.00000   0.00000
Generated with MDTraj, t= 34.0
 15
    1UNL     O1    1  -0.317  -0.094  -0.052
    1UNL     C1    2  -0.261   0.010  -0.023
    1UNL     C2    3  -0.116   0.008  -0.010
    1UNL     C3    4  -0.046  -0.103  -0.046
    1UNL     C4    5   0.095  -0.104  -0.038
    1UNL     C5    6   0.165   0.005   0.014
    1UNL     O2    7   0.306   0.008   0.023
    1UNL     C6    8   0.091   0.113   0.070
    1UNL     C7    9  -0.048   0.119   0.042
    1UNL     H1   10  -0.321   0.091  -0.022
    1UNL     H2   11  -0.097  -0.181  -0.098
    1UNL     H3   12   0.161  -0.178  -0.096
    1UNL     H4   13   0.347  -0.061  -0.039
    1UNL     H5   14   0.149   0.187   0.107
    1UNL     H6   15  -0.100   0.198   0.078
   0.00000   0.00000   0.00000   0.00000   0.00000   0.00000   0.00000   0.00000   0.00000
Generated with MDTraj, t= 35.0
 15
    1UNL     O1    1  -0.328  -0.083  -0.063
    1UNL     C1    2  -0.255  -0.005  -0.007
    1UNL     C2    3  -0.108   0.004  -0.013
    1UNL     C3    4  -0.036  -0.105  -0.045
    1UNL     C4    5   0.098  -0.102  -0.043
    1UNL     C5    6   0.162   0.005   0.015
    1UNL     O2    7   0.299   0.010   0.029
    1UNL     C6    8   0.091   0.116   0.056
    1UNL     C7    9  -0.043   0.118   0.042
    1UNL     H1   10  -0.310   0.071   0.066
    1UNL     H2   11  -0.091  -0.191  -0.087
    1UNL     H3   12   0.143  -0.183  -0.080
    1UNL     H4   13   0.336  -0.070  -0.021
    1UNL     H5   14   0.138   0.203   0.117
    1UNL     H6   15  -0.103   0.211   0.067
   0.00000   0.00000   0.00000   0.00000   0.00000   0.00000   0.00000   0.00000   0.00000
Generated with MDTraj, t= 36.0
 15
    1UNL     O1    1  -0.313  -0.085  -0.066
    1UNL     C1    2  -0.257   0.008  -0.019
    1UNL     C2    3  -0.117   0.006   0.000
    1UNL     C3    4  -0.040  -0.108  -0.042
    1UNL     C4    5   0.101  -0.108  -0.034
    1UNL     C5    6   0.166   0.006   0.016
    1UNL     O2    7   0.300   0.008   0.011
    1UNL     C6    8   0.085   0.115   0.065
    1UNL     C7    9  -0.054   0.118   0.049
    1UNL     H1   10  -0.312   0.088   0.006
    1UNL     H2   11  -0.096  -0.193  -0.067
    1UNL     H3   12   0.169  -0.189  -0.075
    1UNL     H4   13   0.345  -0.075  -0.026
    1UNL     H5   14   0.135   0.197   0.105
    1UNL     H6   15  -0.105   0.203   0.087
   0.00000   0.00000   0.00000   0.00000   0.00000   0.00000   0.00000   0.00000   0.00000
Generated with MDTraj, t= 37.0
 15
    1UNL     O1    1  -0.326  -0.085  -0.061
    1UNL     C1    2  -0.256   0.000  -0.015
    1UNL     C2    3  -0.109   0.001  -0.001
    1UNL     C3    4  -0.036  -0.108  -0.051
    1UNL     C4    5   0.095  -0.102  -0.046
    1UNL     C5    6   0.162   0.011   0.015
    1UNL     O2    7   0.298   0.008   0.028
    1UNL     C6    8   0.092   0.121   0.053
    1UNL     C7    9  -0.042   0.115   0.048
    1UNL     H1   10  -0.311   0.092   0.025
    1UNL     H2   11  -0.093  -0.198  -0.087
    1UNL     H3   12   0.140  -0.197  -0.070
    1UNL     H4   13   0.339  -0.078   0.004
    1UNL     H5   14   0.148   0.207   0.085
    1UNL     H6   15  -0.102   0.196   0.085
   0.00000   0.00000   0.00000   0.00000   0.00000   0.00000   0.00000   0.00000   0.00000
Generated with MDTraj, t= 38.0
 15
    1UNL     O1    1  -0.317  -0.093  -0.049
    1UNL     C1    2  -0.259   0.009  -0.022
    1UNL     C2    3  -0.117   0.009  -0.006
    1UNL     C3    4  -0.040  -0.099  -0.057
    1UNL     C4    5   0.098  -0.101  -0.044
    1UNL     C5    6   0.168   0.007   0.013
    1UNL     O2    7   0.304   0.004   0.031
    1UNL     C6    8   0.086   0.116   0.051
    1UNL     C7    9  -0.048   0.112   0.052
    1UNL     H1   10  -0.319   0.097  -0.001
    1UNL     H2   11  -0.098  -0.181  -0.085
    1UNL     H3   12   0.154  -0.191  -0.060
    1UNL     H4   13   0.347  -0.078   0.005
    1UNL     H5   14   0.153   0.199   0.088
    1UNL     H6   15  -0.112   0.195   0.089
   0.00000   0.00000   0.00000   0.00000   0.00000   0.00000   0.00000   0.00000   0.00000
Generated with MDTraj, t= 39.0
 15
    1UNL     O1    1  -0.328  -0.088  -0.059
    1UNL     C1    2  -0.259   0.002  -0.020
    1UNL     C2    3  -0.115   0.006  -0.003
    1UNL     C3    4  -0.038  -0.100  -0.055
    1UNL     C4    5   0.097  -0.110  -0.038
    1UNL     C5    6   0.168   0.002   0.011
    1UNL     O2    7   0.300   0.015   0.022
    1UNL     C6    8   0.091   0.117   0.059
    1UNL     C7    9  -0.041   0.117   0.056
    1UNL     H1   10  -0.310   0.093  -0.002
    1UNL     H2   11  -0.092  -0.194  -0.088
    1UNL     H3   12   0.151  -0.207  -0.057
    1UNL     H4   13   0.343  -0.069   0.018
    1UNL     H5   14   0.140   0.203   0.083
    1UNL     H6   15  -0.093   0.202   0.088
   0.00000   0.00000   0.00000   0.00000   0.00000   0.00000   0.00000   0.00000   0.00000
Generated with MDTraj, t= 40.0
 15
    1UNL     O1    1  -0.319  -0.084  -0.067
    1UNL     C1    2  -0.264   0.002  -0.009
    1UNL     C2    3  -0.116   0.005  -0.006
    1UNL     C3    4  -0.041  -0.101  -0.048
    1UNL     C4    5   0.093  -0.104  -0.037
    1UNL     C5    6   0.166   0.004   0.014
    1UNL     O2    7   0.309   0.014   0.021
    1UNL     C6    8   0.092   0.113   0.052
    1UNL     C7    9  -0.047   0.110   0.052
    1UNL     H1   10  -0.332   0.070   0.055
    1UNL     H2   11  -0.098  -0.177  -0.087
    1UNL     H3   12   0.150  -0.190  -0.042
    1UNL     H4   13   0.345  -0.073   0.024
    1UNL     H5   14   0.152   0.206   0.080
    1UNL     H6   15  -0.110   0.200   0.073
   0.00000   0.00000   0.00000   0.00000   0.00000   0.00000   0.00000   0.00000   0.00000
Generated with MDTraj, t= 41.0
 15
    1UNL     O1    1  -0.323  -0.094  -0.053
    1UNL     C1    2  -0.259   0.006  -0.026
    1UNL     C2    3  -0.113   0.012  -0.012
    1UNL     C3    4  -0.040  -0.100  -0.057
    1UNL     C4    5   0.093  -0.109  -0.034
    1UNL     C5    6   0.166   0.003   0.015
    1UNL     O2    7   0.302   0.013   0.021
    1UNL     C6    8   0.094   0.114   0.067
    1UNL     C7    9  -0.046   0.117   0.053
    1UNL     H1   10  -0.304   0.094  -0.009
    1UNL     H2   11  -0.100  -0.193  -0.081
    1UNL     H3   12   0.151  -0.199  -0.066
    1UNL     H4   13   0.328  -0.070  -0.022
    1UNL     H5   14   0.144   0.204   0.084
    1UNL     H6   15  -0.086   0.205   0.085
   0.00000   0.00000   0.00000   0.00000   0.00000   0.00000   0.00000   0.00000   0.00000
Generated with MDTraj, t= 42.0
 15
    1UNL     O1    1  -0.323  -0.085  -0.058
    1UNL     C1    2  -0.256  -0.002  -0.001
    1UNL     C2    3  -0.112   0.007  -0.012
    1UNL     C3    4  -0.039  -0.100  -0.055
    1UNL     C4    5   0.103  -0.101  -0.050
    1UNL     C5    6   0.163   0.003   0.015
    1UNL     O2    7   0.301   0.004   0.037
    1UNL     C6    8   0.088   0.115   0.049
    1UNL     C7    9  -0.048   0.117   0.045
    1UNL     H1   10  -0.326   0.085   0.041
    1UNL     H2   11  -0.086  -0.183  -0.095
    1UNL     H3   12   0.162  -0.185  -0.067
    1UNL     H4   13   0.351  -0.072  -0.002
    1UNL     H5   14   0.130   0.213   0.079
    1UNL     H6   15  -0.115   0.209   0.058
   0.00000   0.00000   0.00000   0.00000   0.00000   0.00000   0.00000   0.00000   0.00000
Generated with MDTraj, t= 43.0
 15
    1UNL     O1    1  -0.317  -0.089  -0.065
    1UNL     C1    2  -0.253   0.008  -0.025
    1UNL     C2    3  -0.110   0.005  -0.000
    1UNL     C3    4  -0.044  -0.110  -0.038
    1UNL     C4    5   0.094  -0.104  -0.038
    1UNL     C5    6   0.161   0.010   0.013
    1UNL     O2    7   0.299   0.010   0.014
    1UNL     C6    8   0.090   0.116   0.070
    1UNL     C7    9  -0.047   0.116   0.055
    1UNL     H1   10  -0.301   0.096  -0.012
    1UNL     H2   11  -0.091  -0.209  -0.065
    1UNL     H3   12   0.142  -0.192  -0.084
    1UNL     H4   13   0.324  -0.080  -0.027
    1UNL     H5   14   0.153   0.203   0.085
    1UNL     H6   15  -0.104   0.200   0.077
   0.00000   0.00000   0.00000   0.00000   0.00000   0.00000   0.00000   0.00000   0.00000
Generated with MDTraj, t= 44.0
 15
    1UNL     O1    1  -0.321  -0.076  -0.070
    1UNL     C1    2  -0.256  -0.003  -0.004
    1UNL     C2    3  -0.115   0.001  -0.000
    1UNL     C3    4  -0.039  -0.112  -0.041
    1UNL     C4    5   0.100  -0.101  -0.047
    1UNL     C5    6   0.162   0.010   0.013
    1UNL     O2    7   0.303   0.009   0.026
    1UNL     C6    8   0.088   0.117   0.055
    1UNL     C7    9  -0.049   0.114   0.042
    1UNL     H1   10  -0.305   0.086   0.050
    1UNL     H2   11  -0.090  -0.202  -0.069
    1UNL     H3   12   0.162  -0.186  -0.079
    1UNL     H4   13   0.349  -0.080   0.009
    1UNL     H5   14   0.136   0.202   0.094
    1UNL     H6   15  -0.107   0.206   0.052
   0.00000   0.00000   0.00000   0.00000   0.00000   0.00000   0.00000   0.00000   0.00000
Generated with MDTraj, t= 45.0
 15
    1UNL     O1    1  -0.319  -0.094  -0.052
    1UNL     C1    2  -0.258   0.006  -0.026
    1UNL     C2    3  -0.110   0.011  -0.005
    1UNL     C3    4  -0.039  -0.099  -0.048
    1UNL     C4    5   0.096  -0.104  -0.045
    1UNL     C5    6   0.167   0.004   0.014
    1UNL     O2    7   0.299   0.006   0.025
    1UNL     C6    8   0.088   0.110   0.065
    1UNL     C7    9  -0.049   0.121   0.046
    1UNL     H1   10  -0.322   0.091  -0.009
    1UNL     H2   11  -0.092  -0.188  -0.075
    1UNL     H3   12   0.147  -0.189  -0.070
    1UNL     H4   13   0.340  -0.063  -0.037
    1UNL     H5   14   0.139   0.202   0.113
    1UNL     H6   15  -0.110   0.208   0.076
   0.00000   0.00000   0.00000   0.00000   0.00000   0.00000   0.00000   0.00000   0.00000
Generated with MDTraj, t= 46.0
 15
    1UNL     O1    1  -0.328  -0.088  -0.054
    1UNL     C1    2  -0.260   0.004  -0.014
    1UNL     C2    3  -0.117   0.004  -0.008
    1UNL     C3    4  -0.039  -0.105  -0.057
    1UNL     C4    5   0.097  -0.103  -0.046
    1UNL     C5    6   0.163   0.002   0.012
    1UNL     O2    7   0.307   0.012   0.036
    1UNL     C6    8   0.093   0.116   0.057
    1UNL     C7    9  -0.044   0.116   0.041
    1UNL     H1   10  -0.308   0.086   0.037
    1UNL     H2   11  -0.101  -0.192  -0.091
    1UNL     H3   12   0.163  -0.196  -0.064
    1UNL     H4   13   0.352  -0.049  -0.027
    1UNL     H5   14   0.143   0.195   0.097
    1UNL     H6   15  -0.094   0.201   0.078
   0.00000   0.00000   0.00000   0.00000   0.00000   0.00000   0.00000   0.00000   0.00000
Generated with MDTraj, t= 47.0
 15
    1UNL     O1    1  -0.318  -0.089  -0.067
    1UNL     C1    2  -0.260   0.003  -0.016
    1UNL     C2    3  -0.116   0.004  -0.000
    1UNL     C3    4  -0.046  -0.101  -0.044
    1UNL     C4    5   0.092  -0.105  -0.035
    1UNL     C5    6   0.171   0.003   0.015
    1UNL     O2    7   0.304   0.013   0.019
    1UNL     C6    8   0.092   0.113   0.055
    1UNL     C7    9  -0.045   0.118   0.050
    1UNL     H1   10  -0.324   0.091   0.020
    1UNL     H2   11  -0.097  -0.182  -0.083
    1UNL     H3   12   0.142  -0.190  -0.064
    1UNL     H4   13   0.335  -0.069  -0.020
    1UNL     H5   14   0.151   0.195   0.105
    1UNL     H6   15  -0.102   0.210   0.079
   0.00000   0.00000   0.00000   0.00000   0.00000   0.00000   0.00000   0.00000   0.00000
Generated with MDTraj, t= 48.0
 15
    1UNL     O1    1  -0.325  -0.087  -0.060
    1UNL     C1    2  -0.259   0.004  -0.022
    1UNL     C2    3  -0.112   0.009  -0.004
    1UNL     C3    4  -0.037  -0.103  -0.045
    1UNL     C4    5   0.098  -0.109  -0.034
    1UNL     C5    6   0.162   0.004   0.008
    1UNL     O2    7   0.303   0.013   0.020
    1UNL     C6    8   0.088   0.112   0.058
    1UNL     C7    9  -0.045   0.117   0.052
    1UNL     H1   10  -0.313   0.085   0.006
    1UNL     H2   11  -0.095  -0.192  -0.084
    1UNL     H3   12   0.155  -0.193  -0.076
    1UNL     H4   13   0.354  -0.066   0.009
    1UNL     H5   14   0.142   0.198   0.102
    1UNL     H6   15  -0.102   0.193   0.095
   0.00000   0.00000   0.00000   0.00000   0.00000   0.00000   0.00000   0.00000   0.00000
Generated with MDTraj, t= 49.0
 15
    1UNL     O1    1  -0.321  -0.089  -0.051
    1UNL     C1    2  -0.257   0.003  -0.011
    1UNL     C2    3  -0.116   0.007  -0.010
    1UNL     C3    4  -0.040  -0.106  -0.058
    1UNL     C4    5   0.097  -0.103  -0.048
    1UNL     C5    6   0.169   0.010   0.016
    1UNL     O2    7   0.302   0.005   0.034
    1UNL     C6    8   0.090   0.123   0.048
    1UNL     C7    9  -0.049   0.113   0.047
    1UNL     H1   10  -0.307   0.104   0.025
    1UNL     H2   11  -0.088  -0.176  -0.118
    1UNL     H3   12   0.154  -0.192  -0.085
    1UNL     H4   13   0.332  -0.085   0.024
    1UNL     H5   14   0.147   0.196   0.092
    1UNL     H6   15  -0.112   0.191   0.095
   0.00000   0.00000   0.00000   0.00000   0.00000   0.00000   0.00000   0.00000   0.00000
Generated with MDTraj, t= 50.0
 15
    1UNL     O1    1  -0.320  -0.090  -0.054
    1UNL     C1    2  -0.251   0.006  -0.027
    1UNL     C2    3  -0.110   0.006  -0.004
    1UNL     C3    4  -0.038  -0.101  -0.053
    1UNL     C4    5   0.092  -0.106  -0.031
    1UNL     C5    6   0.159   0.010   0.014
    1UNL     O2    7   0.298   0.008   0.020
    1UNL     C6    8   0.089   0.116   0.059
    1UNL     C7    9  -0.043   0.113   0.053
    1UNL     H1   10  -0.301   0.091  -0.026
    1UNL     H2   11  -0.095  -0.185  -0.102
    1UNL     H3   12   0.149  -0.174  -0.082
    1UNL     H4   13   0.346  -0.067  -0.022
    1UNL     H5   14   0.141   0.210   0.099
    1UNL     H6   15  -0.105   0.181   0.105
   0.00000   0.00000   0.00000   0.00000   0.00000   0.00000   0.00000   0.00000   0.00000
Generated with MDTraj, t= 51.0
 15
    1UNL     O1    1  -0.322  -0.074  -0.072
    1UNL     C1    2  -0.258  -0.003  -0.002
    1UNL     C2    3  -0.114   0.003  -0.003
    1UNL     C3    4  -0.036  -0.110  -0.044
    1UNL     C4    5   0.102  -0.109  -0.035
    1UNL     C5    6   0.168   0.004   0.012
    1UNL     O2    7   0.303   0.011   0.025
    1UNL     C6    8   0.083   0.123   0.043
    1UNL     C7    9  -0.053   0.114   0.051
    1UNL     H1   10  -0.319   0.073   0.065
    1UNL     H2   11  -0.087  -0.182  -0.101
    1UNL     H3   12   0.161  -0.196  -0.080
    1UNL     H4   13   0.334  -0.079  -0.010
    1UNL     H5   14   0.136   0.195   0.096
    1UNL     H6   15  -0.115   0.199   0.082
   0.00000   0.00000   0.00000   0.00000   0.00000   0.00000   0.00000   0.00000   0.00000
Generated with MDTraj, t= 52.0
 15
    1UNL     O1    1  -0.316  -0.092  -0.062
    1UNL     C1    2  -0.256   0.004  -0.026
    1UNL     C2    3  -0.114   0.007  -0.004
    1UNL     C3    4  -0.045  -0.102  -0.042
    1UNL     C4    5   0.092  -0.108  -0.030
    1UNL     C5    6   0.161   0.005   0.011
    1UNL     O2    7   0.300   0.011   0.013
    1UNL     C6    8   0.093   0.114   0.068
    1UNL     C7    9  -0.042   0.121   0.053
    1UNL     H1   10  -0.304   0.092  -0.006
    1UNL     H2   11  -0.097  -0.175  -0.105
    1UNL     H3   12   0.153  -0.175  -0.077
    1UNL     H4   13   0.341  -0.079  -0.009
    1UNL     H5   14   0.147   0.197   0.113
    1UNL     H6   15  -0.096   0.200   0.101
   0.00000   0.00000   0.00000   0.00000   0.00000   0.00000   0.00000   0.00000   0.00000
Generated with MDTraj, t= 53.0
 15
    1UNL     O1    1  -0.328  -0.084  -0.055
    1UNL     C1    2  -0.260   0.002  -0.006
    1UNL     C2    3  -0.113   0.003  -0.010
    1UNL     C3    4  -0.040  -0.105  -0.054
    1UNL     C4    5   0.097  -0.100  -0.047
    1UNL     C5    6   0.171   0.006   0.011
    1UNL     O2    7   0.306   0.012   0.039
    1UNL     C6    8   0.092   0.113   0.051
    1UNL     C7    9  -0.048   0.114   0.037
    1UNL     H1   10  -0.324   0.074   0.053
    1UNL     H2   11  -0.093  -0.180  -0.111
    1UNL     H3   12   0.146  -0.190  -0.090
    1UNL     H4   13   0.345  -0.078   0.013
    1UNL     H5   14   0.140   0.186   0.118
    1UNL     H6   15  -0.104   0.195   0.080
   0.00000   0.00000   0.00000   0.00000   0.00000   0.00000   0.00000   0.00000   0.00000
Generated with MDTraj, t= 54.0
 15
    1UNL     O1    1  -0.318  -0.096  -0.061
    1UNL     C1    2  -0.258   0.005  -0.025
    1UNL     C2    3  -0.116   0.014   0.003
    1UNL     C3    4  -0.043  -0.100  -0.045
    1UNL     C4    5   0.097  -0.109  -0.038
    1UNL     C5    6   0.161   0.002   0.014
    1UNL     O2    7   0.302   0.009   0.020
    1UNL     C6    8   0.092   0.114   0.061
    1UNL     C7    9  -0.046   0.122   0.048
    1UNL     H1   10  -0.317   0.095  -0.004
    1UNL     H2   11  -0.100  -0.183  -0.083
    1UNL     H3   12   0.147  -0.190  -0.087
    1UNL     H4   13   0.353  -0.051  -0.042
    1UNL     H5   14   0.145   0.179   0.124
    1UNL     H6   15  -0.089   0.213   0.091
   0.00000   0.00000   0.00000   0.00000   0.00000   0.00000   0.00000   0.00000   0.00000
Generated with MDTraj, t= 55.0
 15
    1UNL     O1    1  -0.324  -0.080  -0.068
    1UNL     C1    2  -0.259   0.005  -0.010
    1UNL     C2    3  -0.113  -0.003   0.004
    1UNL     C3    4  -0.044  -0.108  -0.041
    1UNL     C4    5   0.100  -0.105  -0.040
    1UNL     C5    6   0.168   0.007   0.016
    1UNL     O2    7   0.303   0.012   0.025
    1UNL     C6    8   0.092   0.113   0.053
    1UNL     C7    9  -0.048   0.115   0.040
    1UNL     H1   10  -0.314   0.081   0.039
    1UNL     H2   11  -0.088  -0.197  -0.083
    1UNL     H3   12   0.147  -0.190  -0.083
    1UNL     H4   13   0.353  -0.041  -0.039
    1UNL     H5   14   0.137   0.204   0.105
    1UNL     H6   15  -0.110   0.194   0.078
   0.00000   0.00000   0.00000   0.00000   0.00000   0.00000   0.00000   0.00000   0.00000
Generated with MDTraj, t= 56.0
 15
    1UNL     O1    1  -0.322  -0.089  -0.056
    1UNL     C1    2  -0.255   0.004  -0.019
    1UNL     C2    3  -0.110   0.007  -0.008
    1UNL     C3    4  -0.043  -0.111  -0.043
    1UNL     C4    5   0.098  -0.099  -0.047
    1UNL     C5    6   0.160   0.005   0.014
    1UNL     O2    7   0.303   0.009   0.026
    1UNL     C6    8   0.091   0.118   0.063
    1UNL     C7    9  -0.047   0.116   0.043
    1UNL     H1   10  -0.321   0.096   0.006
    1UNL     H2   11  -0.096  -0.194  -0.088
    1UNL     H3   12   0.152  -0.189  -0.083
    1UNL     H4   13   0.340  -0.065  -0.020
    1UNL     H5   14   0.141   0.192   0.117
    1UNL     H6   15  -0.096   0.202   0.086
   0.00000   0.00000   0.00000   0.00000   0.00000   0.00000   0.00000   0.00000   0.00000
Generated with MDTraj, t= 57.0
 15
    1UNL     O1    1  -0.322  -0.091  -0.044
    1UNL     C1    2  -0.256   0.009  -0.024
    1UNL     C2    3  -0.111   0.005  -0.012
    1UNL     C3    4  -0.037  -0.101  -0.053
    1UNL     C4    5   0.102  -0.102  -0.046
    1UNL     C5    6   0.163   0.006   0.014
    1UNL     O2    7   0.299   0.007   0.029
    1UNL     C6    8   0.087   0.109   0.063
    1UNL     C7    9  -0.052   0.120   0.043
    1UNL     H1   10  -0.300   0.098  -0.015
    1UNL     H2   11  -0.088  -0.193  -0.078
    1UNL     H3   12   0.160  -0.168  -0.105
    1UNL     H4   13   0.326  -0.080   0.001
    1UNL     H5   14   0.135   0.198   0.107
    1UNL     H6   15  -0.108   0.206   0.081
   0.00000   0.00000   0.00000   0.00000   0.00000   0.00000   0.00000   0.00000   0.00000
Generated with MDTraj, t= 58.0
 15
    1UNL     O1    1  -0.322  -0.085  -0.062
    1UNL     C1    2  -0.257  -0.000  -0.006
    1UNL     C2    3  -0.110   0.004  -0.008
    1UNL     C3    4  -0.040  -0.107  -0.048
    1UNL     C4    5   0.096  -0.102  -0.045
    1UNL     C5    6   0.163   0.005   0.014
    1UNL     O2    7   0.299   0.007   0.030
    1UNL     C6    8   0.092   0.122   0.050
    1UNL     C7    9  -0.048   0.117   0.047
    1UNL     H1   10  -0.323   0.089   0.035
    1UNL     H2   11  -0.089  -0.192  -0.091
    1UNL     H3   12   0.165  -0.181  -0.076
    1UNL     H4   13   0.342  -0.076   0.003
    1UNL     H5   14   0.138   0.212   0.097
    1UNL     H6   15  -0.105   0.204   0.070
   0.00000   0.00000   0.00000   0.00000   0.00000   0.00000   0.00000   0.00000   0.00000
Generated with MDTraj, t= 59.0
 15
    1UNL     O1    1  -0.316  -0.088  -0.067
    1UNL     C1    2  -0.258   0.008  -0.023
    1UNL     C2    3  -0.116   0.008  -0.001
    1UNL     C3    4  -0.042  -0.108  -0.044
    1UNL     C4    5   0.092  -0.109  -0.027
    1UNL     C5    6   0.163   0.006   0.012
    1UNL     O2    7   0.305   0.015   0.011
    1UNL     C6    8   0.091   0.114   0.067
    1UNL     C7    9  -0.046   0.112   0.056
    1UNL     H1   10  -0.311   0.091  -0.009
    1UNL     H2   11  -0.100  -0.189  -0.083
    1UNL     H3   12   0.143  -0.198  -0.063
    1UNL     H4   13   0.331  -0.064  -0.043
    1UNL     H5   14   0.140   0.202   0.077
    1UNL     H6   15  -0.101   0.199   0.096
   0.00000   0.00000   0.00000   0.00000   0.00000   0.00000   0.00000   0.00000   0.00000
Generated with MDTraj, t= 60.0
 15
    1UNL     O1    1  -0.329  -0.082  -0.063
    1UNL     C1    2  -0.259  -0.006  -0.004
    1UNL     C2    3  -0.113   0.007  -0.008
    1UNL     C3    4  -0.037  -0.097  -0.054
    1UNL     C4    5   0.100  -0.109  -0.043
    1UNL     C5    6   0.168   0.005   0.012
    1UNL     O2    7   0.302   0.013   0.033
    1UNL     C6    8   0.089   0.113   0.047
    1UNL     C7    9  -0.046   0.114   0.049
    1UNL     H1   10  -0.308   0.071   0.071
    1UNL     H2   11  -0.090  -0.178  -0.106
    1UNL     H3   12   0.161  -0.195  -0.058
    1UNL     H4   13   0.351  -0.075   0.019
    1UNL     H5   14   0.152   0.206   0.074
    1UNL     H6   15  -0.106   0.198   0.056
   0.00000   0.00000   0.00000   0.00000   0.00000   0.00000   0.00000   0.00000   0.00000
Generated with MDTraj, t= 61.0
 15
    1UNL     O1    1  -0.315  -0.098  -0.050
    1UNL     C1    2  -0.261   0.007  -0.028
    1UNL     C2    3  -0.117   0.017  -0.011
    1UNL     C3    4  -0.042  -0.098  -0.057
    1UNL     C4    5   0.091  -0.107  -0.035
    1UNL     C5    6   0.166   0.004   0.010
    1UNL     O2    7   0.303   0.009   0.021
    1UNL     C6    8   0.090   0.115   0.065
    1UNL     C7    9  -0.042   0.117   0.059
    1UNL     H1   10  -0.323   0.089  -0.026
    1UNL     H2   11  -0.094  -0.185  -0.088
    1UNL     H3   12   0.139  -0.206  -0.056
    1UNL     H4   13   0.345  -0.084   0.011
    1UNL     H5   14   0.142   0.200   0.098
    1UNL     H6   15  -0.106   0.209   0.081
   0.00000   0.00000   0.00000   0.00000   0.00000   0.00000   0.00000   0.00000   0.00000
Generated with MDTraj, t= 62.0
 15
    1UNL     O1    1  -0.328  -0.079  -0.065
    1UNL     C1    2  -0.259   0.001  -0.007
    1UNL     C2    3  -0.114  -0.002   0.000
    1UNL     C3    4  -0.038  -0.105  -0.054
    1UNL     C4    5   0.098  -0.104  -0.043
    1UNL     C5    6   0.168   0.009   0.010
    1UNL     O2    7   0.304   0.013   0.030
    1UNL     C6    8   0.090   0.117   0.049
    1UNL     C7    9  -0.044   0.109   0.050
    1UNL     H1   10  -0.311   0.080   0.052
    1UNL     H2   11  -0.100  -0.191  -0.091
    1UNL     H3   12   0.160  -0.186  -0.048
    1UNL     H4   13   0.335  -0.083   0.037
    1UNL     H5   14   0.151   0.207   0.060
    1UNL     H6   15  -0.101   0.191   0.072
   0.00000   0.00000   0.00000   0.00000   0.00000   0.00000   0.00000   0.00000   0.00000
Generated with MDTraj, t= 63.0
 15
    1UNL     O1    1  -0.318  -0.086  -0.067
    1UNL     C1    2  -0.257   0.006  -0.023
    1UNL     C2    3  -0.113   0.004   0.002
    1UNL     C3    4  -0.035  -0.104  -0.042
    1UNL     C4    5   0.095  -0.105  -0.037
    1UNL     C5    6   0.162   0.005   0.015
    1UNL     O2    7   0.301   0.010   0.013
    1UNL     C6    8   0.088   0.116   0.056
    1UNL     C7    9  -0.049   0.115   0.062
    1UNL     H1   10  -0.312   0.098  -0.002
    1UNL     H2   11  -0.089  -0.190  -0.068
    1UNL     H3   12   0.157  -0.200  -0.044
    1UNL     H4   13   0.338  -0.076  -0.018
    1UNL     H5   14   0.136   0.211   0.082
    1UNL     H6   15  -0.104   0.207   0.091
   0.00000   0.00000   0.00000   0.00000   0.00000   0.00000   0.00000   0.00000   0.00000
Generated with MDTraj, t= 64.0
 15
    1UNL     O1    1  -0.323  -0.085  -0.056
    1UNL     C1    2  -0.257   0.003  -0.012
    1UNL     C2    3  -0.112   0.004  -0.008
    1UNL     C3    4  -0.037  -0.105  -0.059
    1UNL     C4    5   0.100  -0.103  -0.042
    1UNL     C5    6   0.166   0.006   0.016
    1UNL     O2    7   0.300   0.006   0.028
    1UNL     C6    8   0.090   0.121   0.057
    1UNL     C7    9  -0.051   0.114   0.047
    1UNL     H1   10  -0.317   0.087   0.015
    1UNL     H2   11  -0.092  -0.201  -0.068
    1UNL     H3   12   0.157  -0.185  -0.069
    1UNL     H4   13   0.337  -0.072  -0.016
    1UNL     H5   14   0.137   0.210   0.086
    1UNL     H6   15  -0.106   0.201   0.078
   0.00000   0.00000   0.00000   0.00000   0.00000   0.00000   0.00000   0.00000   0.00000
Generated with MDTraj, t= 65.0
 15
    1UNL     O1    1  -0.322  -0.094  -0.050
    1UNL     C1    2  -0.258   0.004  -0.015
    1UNL     C2    3  -0.112   0.008  -0.017
    1UNL     C3    4  -0.042  -0.102  -0.052
    1UNL     C4    5   0.098  -0.099  -0.047
    1UNL     C5    6   0.161   0.007   0.023
    1UNL     O2    7   0.302   0.006   0.028
    1UNL     C6    8   0.090   0.114   0.061
    1UNL     C7    9  -0.044   0.116   0.041
    1UNL     H1   10  -0.306   0.099   0.027
    1UNL     H2   11  -0.095  -0.183  -0.087
    1UNL     H3   12   0.147  -0.190  -0.079
    1UNL     H4   13   0.340  -0.072  -0.010
    1UNL     H5   14   0.145   0.204   0.103
    1UNL     H6   15  -0.098   0.204   0.068
   0.00000   0.00000   0.00000   0.00000   0.00000   0.00000   0.00000   0.00000   0.00000
Generated with MDTraj, t= 66.0
 15
    1UNL     O1    1  -0.326  -0.088  -0.059
    1UNL     C1    2  -0.259   0.007  -0.022
    1UNL     C2    3  -0.113   0.008  -0.005
    1UNL     C3    4  -0.039  -0.106  -0.040
    1UNL     C4    5   0.103  -0.105  -0.042
    1UNL     C5    6   0.167   0.004   0.014
    1UNL     O2    7   0.304   0.013   0.018
    1UNL     C6    8   0.089   0.110   0.069
    1UNL     C7    9  -0.050   0.118   0.045
    1UNL     H1   10  -0.319   0.087  -0.009
    1UNL     H2   11  -0.089  -0.204  -0.073
    1UNL     H3   12   0.149  -0.197  -0.087
    1UNL     H4   13   0.350  -0.060  -0.020
    1UNL     H5   14   0.146   0.188   0.106
    1UNL     H6   15  -0.107   0.204   0.086
   0.00000   0.00000   0.00000   0.00000   0.00000   0.00000   0.00000   0.00000   0.00000
Generated with MDTraj, t= 67.0
 15
    1UNL     O1    1  -0.324  -0.084  -0.070
    1UNL     C1    2  -0.262  -0.004  -0.006
    1UNL     C2    3  -0.115   0.003   0.003
    1UNL     C3    4  -0.043  -0.105  -0.040
    1UNL     C4    5   0.099  -0.100  -0.045
    1UNL     C5    6   0.167   0.006   0.011
    1UNL     O2    7   0.302   0.009   0.029
    1UNL     C6    8   0.095   0.115   0.050
    1UNL     C7    9  -0.045   0.118   0.043
    1UNL     H1   10  -0.323   0.080   0.051
    1UNL     H2   11  -0.089  -0.192  -0.073
    1UNL     H3   12   0.147  -0.180  -0.091
    1UNL     H4   13   0.355  -0.060  -0.010
    1UNL     H5   14   0.140   0.202   0.105
    1UNL     H6   15  -0.089   0.210   0.061
   0.00000   0.00000   0.00000   0.00000   0.00000   0.00000   0.00000   0.00000   0.00000
Generated with MDTraj, t= 68.0
 15
    1UNL     O1    1  -0.321  -0.094  -0.053
    1UNL     C1    2  -0.262   0.009  -0.031
    1UNL     C2    3  -0.115   0.006  -0.001
    1UNL     C3    4  -0.044  -0.104  -0.043
    1UNL     C4    5   0.094  -0.101  -0.040
    1UNL     C5    6   0.165   0.008   0.011
    1UNL     O2    7   0.306   0.010   0.023
    1UNL     C6    8   0.096   0.111   0.065
    1UNL     C7    9  -0.047   0.114   0.050
    1UNL     H1   10  -0.311   0.095  -0.040
    1UNL     H2   11  -0.105  -0.182  -0.097
    1UNL     H3   12   0.151  -0.185  -0.086
    1UNL     H4   13   0.337  -0.061  -0.036
    1UNL     H5   14   0.154   0.187   0.114
    1UNL     H6   15  -0.096   0.211   0.084
   0.00000   0.00000   0.00000   0.00000   0.00000   0.00000   0.00000   0.00000   0.00000
Generated with MDTraj, t= 69.0
 15
    1UNL     O1    1  -0.328  -0.085  -0.059
    1UNL     C1    2  -0.260  -0.002  -0.005
    1UNL     C2    3  -0.113   0.005  -0.004
    1UNL     C3    4  -0.034  -0.103  -0.050
    1UNL     C4    5   0.101  -0.103  -0.048
    1UNL     C5    6   0.167   0.006   0.004
    1UNL     O2    7   0.302   0.006   0.038
    1UNL     C6    8   0.090   0.119   0.051
    1UNL     C7    9  -0.049   0.119   0.041
    1UNL     H1   10  -0.327   0.070   0.058
    1UNL     H2   11  -0.082  -0.175  -0.110
    1UNL     H3   12   0.156  -0.185  -0.084
    1UNL     H4   13   0.342  -0.084   0.013
    1UNL     H5   14   0.135   0.204   0.102
    1UNL     H6   15  -0.099   0.201   0.080
   0.00000   0.00000   0.00000   0.00000   0.00000   0.00000   0.00000   0.00000   0.00000
Generated with MDTraj, t= 70.0
 15
    1UNL     O1    1  -0.318  -0.090  -0.063
    1UNL     C1    2  -0.257   0.006  -0.025
    1UNL     C2    3  -0.115   0.006  -0.005
    1UNL     C3    4  -0.042  -0.101  -0.044
    1UNL     C4    5   0.097  -0.108  -0.027
    1UNL     C5    6   0.166   0.008   0.015
    1UNL     O2    7   0.298   0.009   0.010
    1UNL     C6    8   0.091   0.117   0.062
    1UNL     C7    9  -0.045   0.116   0.057
    1UNL     H1   10  -0.303   0.095   0.001
    1UNL     H2   11  -0.093  -0.180  -0.103
    1UNL     H3   12   0.160  -0.188  -0.065
    1UNL     H4   13   0.330  -0.079  -0.032
    1UNL     H5   14   0.137   0.188   0.127
    1UNL     H6   15  -0.114   0.192   0.091
   0.00000   0.00000   0.00000   0.00000   0.00000   0.00000   0.00000   0.00000   0.00000
Generated with MDTraj, t= 71.0
 15
    1UNL     O1    1  -0.324  -0.078  -0.068
    1UNL     C1    2  -0.259  -0.002  -0.004
    1UNL     C2    3  -0.112   0.002  -0.004
    1UNL     C3    4  -0.036  -0.107  -0.055
    1UNL     C4    5   0.097  -0.107  -0.029
    1UNL     C5    6   0.162   0.009   0.018
    1UNL     O2    7   0.305   0.009   0.022
    1UNL     C6    8   0.086   0.124   0.051
    1UNL     C7    9  -0.044   0.113   0.044
    1UNL     H1   10  -0.317   0.062   0.067
    1UNL     H2   11  -0.077  -0.193  -0.105
    1UNL     H3   12   0.157  -0.186  -0.074
    1UNL     H4   13   0.335  -0.085  -0.005
    1UNL     H5   14   0.147   0.201   0.092
    1UNL     H6   15  -0.111   0.183   0.097
   0.00000   0.00000   0.00000   0.00000   0.00000   0.00000   0.00000   0.00000   0.00000
Generated with MDTraj, t= 72.0
 15
    1UNL     O1    1  -0.322  -0.092  -0.054
    1UNL     C1    2  -0.256   0.003  -0.023
    1UNL     C2    3  -0.113   0.012  -0.009
    1UNL     C3    4  -0.036  -0.101  -0.051
    1UNL     C4    5   0.098  -0.106  -0.035
    1UNL     C5    6   0.166   0.005   0.019
    1UNL     O2    7   0.298   0.006   0.019
    1UNL     C6    8   0.089   0.118   0.054
    1UNL     C7    9  -0.047   0.119   0.053
    1UNL     H1   10  -0.315   0.094  -0.002
    1UNL     H2   11  -0.086  -0.178  -0.105
    1UNL     H3   12   0.157  -0.185  -0.069
    1UNL     H4   13   0.338  -0.084  -0.005
    1UNL     H5   14   0.143   0.197   0.114
    1UNL     H6   15  -0.112   0.178   0.111
   0.00000   0.00000   0.00000   0.00000   0.00000   0.00000   0.00000   0.00000   0.00000
Generated with MDTraj, t= 73.0
 15
    1UNL     O1    1  -0.329  -0.088  -0.054
    1UNL     C1    2  -0.262   0.006  -0.017
    1UNL     C2    3  -0.117   0.003  -0.005
    1UNL     C3    4  -0.036  -0.103  -0.054
    1UNL     C4    5   0.098  -0.104  -0.041
    1UNL     C5    6   0.170   0.008   0.012
    1UNL     O2    7   0.306   0.008   0.031
    1UNL     C6    8   0.090   0.119   0.050
    1UNL     C7    9  -0.048   0.112   0.048
    1UNL     H1   10  -0.303   0.100   0.002
    1UNL     H2   11  -0.093  -0.190  -0.096
    1UNL     H3   12   0.171  -0.176  -0.089
    1UNL     H4   13   0.342  -0.081   0.013
    1UNL     H5   14   0.136   0.198   0.095
    1UNL     H6   15  -0.103   0.184   0.113
   0.00000   0.00000   0.00000   0.00000   0.00000   0.00000   0.00000   0.00000   0.00000
Generated with MDTraj, t= 74.0
 15
    1UNL     O1    1  -0.323  -0.091  -0.065
    1UNL     C1    2  -0.263   0.000  -0.017
    1UNL     C2    3  -0.116   0.005   0.001
    1UNL     C3    4  -0.041  -0.104  -0.044
    1UNL     C4    5   0.090  -0.101  -0.041
    1UNL     C5    6   0.165   0.005   0.013
    1UNL     O2    7   0.308   0.009   0.026
    1UNL     C6    8   0.096   0.121   0.051
    1UNL     C7    9  -0.042   0.115   0.050
    1UNL     H1   10  -0.340   0.084   0.011
    1UNL     H2   11  -0.099  -0.177  -0.090
    1UNL     H3   12   0.143  -0.179  -0.082
    1UNL     H4   13   0.333  -0.077  -0.009
    1UNL     H5   14   0.158   0.204   0.100
    1UNL     H6   15  -0.095   0.194   0.091
   0.00000   0.00000   0.00000   0.00000   0.00000   0.00000   0.00000   0.00000   0.00000
Generated with MDTraj, t= 75.0
 15
    1UNL     O1    1  -0.326  -0.089  -0.062
    1UNL     C1    2  -0.263   0.006  -0.023
    1UNL     C2    3  -0.118   0.003  -0.003
    1UNL     C3    4  -0.040  -0.100  -0.040
    1UNL     C4    5   0.101  -0.107  -0.036
    1UNL     C5    6   0.172   0.003   0.012
    1UNL     O2    7   0.305   0.012   0.018
    1UNL     C6    8   0.089   0.112   0.063
    1UNL     C7    9  -0.046   0.118   0.049
    1UNL     H1   10  -0.306   0.092   0.002
    1UNL     H2   11  -0.097  -0.186  -0.079
    1UNL     H3   12   0.163  -0.191  -0.072
    1UNL     H4   13   0.347  -0.060  -0.027
    1UNL     H5   14   0.136   0.192   0.111
    1UNL     H6   15  -0.105   0.206   0.087
   0.00000   0.00000   0.00000   0.00000   0.00000   0.00000   0.00000   0.00000   0.00000
Generated with MDTraj, t= 76.0
 15
    1UNL     O1    1  -0.328  -0.088  -0.060
    1UNL     C1    2  -0.261  -0.004  -0.007
    1UNL     C2    3  -0.114   0.008  -0.009
    1UNL     C3    4  -0.039  -0.102  -0.052
    1UNL     C4    5   0.101  -0.101  -0.043
    1UNL     C5    6   0.165   0.006   0.013
    1UNL     O2    7   0.304   0.006   0.030
    1UNL     C6    8   0.090   0.117   0.061
    1UNL     C7    9  -0.043   0.122   0.038
    1UNL     H1   10  -0.323   0.066   0.064
    1UNL     H2   11  -0.090  -0.187  -0.092
    1UNL     H3   12   0.146  -0.193  -0.076
    1UNL     H4   13   0.344  -0.073  -0.006
    1UNL     H5   14   0.145   0.196   0.113
    1UNL     H6   15  -0.092   0.215   0.054
   0.00000   0.00000   0.00000   0.00000   0.00000   0.00000   0.00000   0.00000   0.00000
Generated with MDTraj, t= 77.0
 15
    1UNL     O1    1  -0.322  -0.093  -0.051
    1UNL     C1    2  -0.260   0.009  -0.029
    1UNL     C2    3  -0.112   0.006  -0.010
    1UNL     C3    4  -0.040  -0.104  -0.047
    1UNL     C4    5   0.096  -0.099  -0.039
    1UNL     C5    6   0.165   0.012   0.019
    1UNL     O2    7   0.304   0.006   0.017
    1UNL     C6    8   0.092   0.111   0.073
    1UNL     C7    9  -0.049   0.113   0.048
    1UNL     H1   10  -0.320   0.094  -0.018
    1UNL     H2   11  -0.093  -0.187  -0.096
    1UNL     H3   12   0.148  -0.186  -0.072
    1UNL     H4   13   0.339  -0.066  -0.038
    1UNL     H5   14   0.150   0.192   0.115
    1UNL     H6   15  -0.100   0.209   0.055
   0.00000   0.00000   0.00000   0.00000   0.00000   0.00000   0.00000   0.00000   0.00000
Generated with MDTraj, t= 78.0
 15
    1UNL     O1    1  -0.327  -0.083  -0.068
    1UNL     C1    2  -0.258  -0.005  -0.003
    1UNL     C2    3  -0.114   0.004  -0.001
    1UNL     C3    4  -0.035  -0.105  -0.045
    1UNL     C4    5   0.104  -0.100  -0.046
    1UNL     C5    6   0.166   0.012   0.007
    1UNL     O2    7   0.299   0.000   0.031
    1UNL     C6    8   0.091   0.120   0.055
    1UNL     C7    9  -0.051   0.117   0.044
    1UNL     H1   10  -0.305   0.080   0.051
    1UNL     H2   11  -0.084  -0.193  -0.078
    1UNL     H3   12   0.165  -0.189  -0.074
    1UNL     H4   13   0.348  -0.080  -0.003
    1UNL     H5   14   0.133   0.217   0.082
    1UNL     H6   15  -0.097   0.217   0.063
   0.00000   0.00000   0.00000   0.00000   0.00000   0.00000   0.00000   0.00000   0.00000
Generated with MDTraj, t= 79.0
 15
    1UNL     O1    1  -0.321  -0.089  -0.063
    1UNL     C1    2  -0.257   0.006  -0.026
    1UNL     C2    3  -0.112   0.005   0.000
    1UNL     C3    4  -0.040  -0.106  -0.040
    1UNL     C4    5   0.099  -0.100  -0.039
    1UNL     C5    6   0.164   0.008   0.014
    1UNL     O2    7   0.304   0.006   0.014
    1UNL     C6    8   0.089   0.117   0.063
    1UNL     C7    9  -0.050   0.115   0.060
    1UNL     H1   10  -0.325   0.096  -0.038
    1UNL     H2   11  -0.096  -0.196  -0.071
    1UNL     H3   12   0.146  -0.188  -0.072
    1UNL     H4   13   0.328  -0.084  -0.025
    1UNL     H5   14   0.143   0.210   0.093
    1UNL     H6   15  -0.107   0.201   0.079
   0.00000   0.00000   0.00000   0.00000   0.00000   0.00000   0.00000   0.00000   0.00000
Generated with MDTraj, t= 80.0
 15
    1UNL     O1    1  -0.330  -0.085  -0.061
    1UNL     C1    2  -0.261  -0.001  -0.007
    1UNL     C2    3  -0.112  -0.000  -0.009
    1UNL     C3    4  -0.041  -0.100  -0.056
    1UNL     C4    5   0.098  -0.097  -0.044
    1UNL     C5    6   0.166   0.008   0.016
    1UNL     O2    7   0.306   0.008   0.033
    1UNL     C6    8   0.091   0.118   0.053
    1UNL     C7    9  -0.043   0.111   0.047
    1UNL     H1   10  -0.303   0.076   0.044
    1UNL     H2   11  -0.084  -0.195  -0.082
    1UNL     H3   12   0.163  -0.183  -0.076
    1UNL     H4   13   0.343  -0.085   0.010
    1UNL     H5   14   0.138   0.209   0.058
    1UNL     H6   15  -0.103   0.198   0.079
   0.00000   0.00000   0.00000   0.00000   0.00000   0.00000   0.00000   0.00000   0.00000
Generated with MDTraj, t= 81.0
 15
    1UNL     O1    1  -0.324  -0.095  -0.060
    1UNL     C1    2  -0.260  -0.001  -0.021
    1UNL     C2    3  -0.119   0.018  -0.009
    1UNL     C3    4  -0.040  -0.098  -0.053
    1UNL     C4    5   0.098  -0.105  -0.038
    1UNL     C5    6   0.170   0.000   0.019
    1UNL     O2    7   0.305   0.008   0.019
    1UNL     C6    8   0.093   0.116   0.061
    1UNL     C7    9  -0.048   0.120   0.056
    1UNL     H1   10  -0.327   0.095   0.001
    1UNL     H2   11  -0.093  -0.187  -0.077
    1UNL     H3   12   0.144  -0.198  -0.049
    1UNL     H4   13   0.341  -0.084  -0.007
    1UNL     H5   14   0.150   0.213   0.087
    1UNL     H6   15  -0.105   0.200   0.096
   0.00000   0.00000   0.00000   0.00000   0.00000   0.00000   0.00000   0.00000   0.00000
Generated with MDTraj, t= 82.0
 15
    1UNL     O1    1  -0.332  -0.083  -0.066
    1UNL     C1    2  -0.264   0.001  -0.012
    1UNL     C2    3  -0.113   0.007  -0.005
    1UNL     C3    4  -0.036  -0.100  -0.053
    1UNL     C4    5   0.095  -0.107  -0.033
    1UNL     C5    6   0.170   0.006   0.020
    1UNL     O2    7   0.312   0.014   0.020
    1UNL     C6    8   0.089   0.112   0.054
    1UNL     C7    9  -0.047   0.111   0.050
    1UNL     H1   10  -0.316   0.077   0.026
    1UNL     H2   11  -0.087  -0.195  -0.078
    1UNL     H3   12   0.157  -0.195  -0.049
    1UNL     H4   13   0.359  -0.072  -0.001
    1UNL     H5   14   0.138   0.199   0.077
    1UNL     H6   15  -0.109   0.195   0.082
   0.00000   0.00000   0.00000   0.00000   0.00000   0.00000   0.00000   0.00000   0.00000
Generated with MDTraj, t= 83.0
 15
    1UNL     O1    1  -0.325  -0.090  -0.063
    1UNL     C1    2  -0.258  -0.002  -0.018
    1UNL     C2    3  -0.117   0.008  -0.003
    1UNL     C3    4  -0.043  -0.102  -0.054
    1UNL     C4    5   0.092  -0.102  -0.037
    1UNL     C5    6   0.168   0.010   0.016
    1UNL     O2    7   0.305   0.008   0.023
    1UNL     C6    8   0.094   0.119   0.055
    1UNL     C7    9  -0.042   0.115   0.052
    1UNL     H1   10  -0.313   0.079   0.044
    1UNL     H2   11  -0.100  -0.188  -0.083
    1UNL     H3   12   0.151  -0.194  -0.055
    1UNL     H4   13   0.334  -0.082  -0.003
    1UNL     H5   14   0.155   0.203   0.090
    1UNL     H6   15  -0.104   0.197   0.079
   0.00000   0.00000   0.00000   0.00000   0.00000   0.00000   0.00000   0.00000   0.00000
Generated with MDTraj, t= 84.0
 15
    1UNL     O1    1  -0.327  -0.089  -0.048
    1UNL     C1    2  -0.258   0.006  -0.030
    1UNL     C2    3  -0.116   0.005  -0.002
    1UNL     C3    4  -0.034  -0.103  -0.051
    1UNL     C4    5   0.102  -0.100  -0.044
    1UNL     C5    6   0.171   0.007   0.011
    1UNL     O2    7   0.306   0.004   0.024
    1UNL     C6    8   0.082   0.117   0.061
    1UNL     C7    9  -0.050   0.115   0.053
    1UNL     H1   10  -0.307   0.099  -0.034
    1UNL     H2   11  -0.081  -0.186  -0.103
    1UNL     H3   12   0.154  -0.188  -0.059
    1UNL     H4   13   0.345  -0.075  -0.012
    1UNL     H5   14   0.133   0.205   0.104
    1UNL     H6   15  -0.115   0.195   0.086
   0.00000   0.00000   0.00000   0.00000   0.00000   0.00000   0.00000   0.00000   0.00000
Generated with MDTraj, t= 85.0
 15
    1UNL     O1    1  -0.325  -0.091  -0.059
    1UNL     C1    2  -0.258  -0.005  -0.010
    1UNL     C2    3  -0.111   0.002  -0.000
    1UNL     C3    4  -0.037  -0.099  -0.051
    1UNL     C4    5   0.097  -0.098  -0.047
    1UNL     C5    6   0.165   0.014   0.008
    1UNL     O2    7   0.300  -0.004   0.034
    1UNL     C6    8   0.089   0.122   0.053
    1UNL     C7    9  -0.044   0.124   0.042
    1UNL     H1   10  -0.313   0.082   0.027
    1UNL     H2   11  -0.093  -0.182  -0.090
    1UNL     H3   12   0.159  -0.184  -0.082
    1UNL     H4   13   0.329  -0.088   0.005
    1UNL     H5   14   0.146   0.199   0.096
    1UNL     H6   15  -0.111   0.209   0.069
   0.00000   0.00000   0.00000   0.00000   0.00000   0.00000   0.00000   0.00000   0.00000
Generated with MDTraj, t= 86.0
 15
    1UNL     O1    1  -0.323  -0.087  -0.059
    1UNL     C1    2  -0.256   0.008  -0.029
    1UNL     C2    3  -0.117   0.004  -0.009
    1UNL     C3    4  -0.040  -0.112  -0.038
    1UNL     C4    5   0.097  -0.102  -0.034
    1UNL     C5    6   0.168   0.010   0.018
    1UNL     O2    7   0.307   0.010   0.011
    1UNL     C6    8   0.089   0.115   0.069
    1UNL     C7    9  -0.050   0.111   0.052
    1UNL     H1   10  -0.313   0.100   0.001
    1UNL     H2   11  -0.099  -0.189  -0.085
    1UNL     H3   12   0.153  -0.171  -0.089
    1UNL     H4   13   0.334  -0.067  -0.037
    1UNL     H5   14   0.139   0.192   0.133
    1UNL     H6   15  -0.097   0.202   0.070
   0.00000   0.00000   0.00000   0.00000   0.00000   0.00000   0.00000   0.00000   0.00000
Generated with MDTraj, t= 87.0
 15
    1UNL     O1    1  -0.329  -0.082  -0.070
    1UNL     C1    2  -0.259  -0.011  -0.000
    1UNL     C2    3  -0.110   0.009  -0.007
    1UNL     C3    4  -0.036  -0.103  -0.042
    1UNL     C4    5   0.097  -0.103  -0.038
    1UNL     C5    6   0.167   0.007   0.013
    1UNL     O2    7   0.302   0.004   0.026
    1UNL     C6    8   0.091   0.116   0.059
    1UNL     C7    9  -0.047   0.123   0.036
    1UNL     H1   10  -0.315   0.048   0.062
    1UNL     H2   11  -0.092  -0.185  -0.089
    1UNL     H3   12   0.152  -0.179  -0.096
    1UNL     H4   13   0.355  -0.064  -0.018
    1UNL     H5   14   0.136   0.201   0.103
    1UNL     H6   15  -0.101   0.211   0.079
   0.00000   0.00000   0.00000   0.00000   0.00000   0.00000   0.00000   0.00000   0.00000
Generated with MDTraj, t= 88.0
 15
    1UNL     O1    1  -0.322  -0.093  -0.058
    1UNL     C1    2  -0.261   0.003  -0.022
    1UNL     C2    3  -0.116   0.010  -0.009
    1UNL     C3    4  -0.043  -0.102  -0.040
    1UNL     C4    5   0.100  -0.102  -0.038
    1UNL     C5    6   0.166   0.006   0.019
    1UNL     O2    7   0.309   0.006   0.018
    1UNL     C6    8   0.090   0.112   0.064
    1UNL     C7    9  -0.049   0.120   0.047
    1UNL     H1   10  -0.315   0.108  -0.028
    1UNL     H2   11  -0.096  -0.172  -0.096
    1UNL     H3   12   0.148  -0.190  -0.082
    1UNL     H4   13   0.347  -0.055  -0.051
    1UNL     H5   14   0.146   0.186   0.126
    1UNL     H6   15  -0.102   0.197   0.094
   0.00000   0.00000   0.00000   0.00000   0.00000   0.00000   0.00000   0.00000   0.00000
Generated with MDTraj, t= 89.0
 15
    1UNL     O1    1  -0.334  -0.087  -0.060
    1UNL     C1    2  -0.262  -0.001  -0.014
    1UNL     C2    3  -0.113   0.001  -0.002
    1UNL     C3    4  -0.044  -0.105  -0.050
    1UNL     C4    5   0.099  -0.100  -0.044
    1UNL     C5    6   0.170   0.008   0.014
    1UNL     O2    7   0.308   0.007   0.035
    1UNL     C6    8   0.095   0.123   0.050
    1UNL     C7    9  -0.044   0.114   0.043
    1UNL     H1   10  -0.314   0.072   0.031
    1UNL     H2   11  -0.090  -0.199  -0.093
    1UNL     H3   12   0.146  -0.164  -0.116
    1UNL     H4   13   0.352  -0.078   0.001
    1UNL     H5   14   0.147   0.198   0.100
    1UNL     H6   15  -0.093   0.201   0.087
   0.00000   0.00000   0.00000   0.00000   0.00000   0.00000   0.00000   0.00000   0.00000
Generated with MDTraj, t= 90.0
 15
    1UNL     O1    1  -0.322  -0.091  -0.065
    1UNL     C1    2  -0.261   0.003  -0.022
    1UNL     C2    3  -0.117   0.006   0.003
    1UNL     C3    4  -0.040  -0.100  -0.041
    1UNL     C4    5   0.099  -0.098  -0.036
    1UNL     C5    6   0.168   0.008   0.012
    1UNL     O2    7   0.306   0.004   0.018
    1UNL     C6    8   0.091   0.116   0.053
    1UNL     C7    9  -0.050   0.118   0.053
    1UNL     H1   10  -0.326   0.096   0.003
    1UNL     H2   11  -0.094  -0.175  -0.085
    1UNL     H3   12   0.152  -0.187  -0.082
    1UNL     H4   13   0.343  -0.090  -0.002
    1UNL     H5   14   0.130   0.200   0.114
    1UNL     H6   15  -0.110   0.194   0.104
   0.00000   0.00000   0.00000   0.00000   0.00000   0.00000   0.00000   0.00000   0.00000
Generated with MDTraj, t= 91.0
 15
    1UNL     O1    1  -0.333  -0.084  -0.063
    1UNL     C1    2  -0.258   0.001  -0.018
    1UNL     C2    3  -0.112   0.002  -0.003
    1UNL     C3    4  -0.036  -0.105  -0.047
    1UNL     C4    5   0.100  -0.107  -0.036
    1UNL     C5    6   0.165   0.008   0.013
    1UNL     O2    7   0.308   0.010   0.019
    1UNL     C6    8   0.091   0.121   0.058
    1UNL     C7    9  -0.050   0.116   0.049
    1UNL     H1   10  -0.306   0.086   0.019
    1UNL     H2   11  -0.084  -0.186  -0.110
    1UNL     H3   12   0.157  -0.191  -0.041
    1UNL     H4   13   0.334  -0.085   0.000
    1UNL     H5   14   0.147   0.197   0.109
    1UNL     H6   15  -0.098   0.193   0.105
   0.00000   0.00000   0.00000   0.00000   0.00000   0.00000   0.00000   0.00000   0.00000
Generated with MDTraj, t= 92.0
 15
    1UNL     O1    1  -0.322  -0.091  -0.058
    1UNL     C1    2  -0.259   0.001  -0.015
    1UNL     C2    3  -0.114   0.004  -0.005
    1UNL     C3    4  -0.039  -0.097  -0.062
    1UNL     C4    5   0.093  -0.099  -0.030
    1UNL     C5    6   0.167   0.011   0.016
    1UNL     O2    7   0.305   0.000   0.024
    1UNL     C6    8   0.092   0.121   0.054
    1UNL     C7    9  -0.047   0.117   0.047
    1UNL     H1   10  -0.318   0.070   0.047
    1UNL     H2   11  -0.088  -0.178  -0.102
    1UNL     H3   12   0.157  -0.188  -0.062
    1UNL     H4   13   0.328  -0.089  -0.009
    1UNL     H5   14   0.133   0.209   0.100
    1UNL     H6   15  -0.116   0.196   0.083
   0.00000   0.00000   0.00000   0.00000   0.00000   0.00000   0.00000   0.00000   0.00000
Generated with MDTraj, t= 93.0
 15
    1UNL     O1    1  -0.332  -0.088  -0.050
    1UNL     C1    2  -0.258   0.004  -0.026
    1UNL     C2    3  -0.112   0.008  -0.011
    1UNL     C3    4  -0.035  -0.100  -0.057
    1UNL     C4    5   0.100  -0.105  -0.031
    1UNL     C5    6   0.169   0.005   0.020
    1UNL     O2    7   0.304   0.008   0.017
    1UNL     C6    8   0.086   0.118   0.058
    1UNL     C7    9  -0.047   0.110   0.054
    1UNL     H1   10  -0.305   0.103  -0.002
    1UNL     H2   11  -0.078  -0.188  -0.113
    1UNL     H3   12   0.161  -0.190  -0.048
    1UNL     H4   13   0.342  -0.073  -0.019
    1UNL     H5   14   0.131   0.196   0.117
    1UNL     H6   15  -0.106   0.192   0.081
   0.00000   0.00000   0.00000   0.00000   0.00000   0.00000   0.00000   0.00000   0.00000
Generated with MDTraj, t= 94.0
 15
    1UNL     O1    1  -0.324  -0.088  -0.068
    1UNL     C1    2  -0.260  -0.007  -0.004
    1UNL     C2    3  -0.118   0.010  -0.002
    1UNL     C3    4  -0.039  -0.100  -0.050
    1UNL     C4    5   0.098  -0.105  -0.038
    1UNL     C5    6   0.167   0.011   0.010
    1UNL     O2    7   0.307   0.001   0.026
    1UNL     C6    8   0.091   0.121   0.053
    1UNL     C7    9  -0.046   0.122   0.048
    1UNL     H1   10  -0.317   0.063   0.043
    1UNL     H2   11  -0.090  -0.178  -0.096
    1UNL     H3   12   0.153  -0.189  -0.069
    1UNL     H4   13   0.329  -0.090   0.018
    1UNL     H5   14   0.151   0.211   0.056
    1UNL     H6   15  -0.115   0.198   0.093
   0.00000   0.00000   0.00000   0.00000   0.00000   0.00000   0.00000   0.00000   0.00000
Generated with MDTraj, t= 95.0
 15
    1UNL     O1    1  -0.329  -0.089  -0.058
    1UNL     C1    2  -0.261   0.006  -0.030
    1UNL     C2    3  -0.113   0.007  -0.008
    1UNL     C3    4  -0.040  -0.107  -0.038
    1UNL     C4    5   0.092  -0.100  -0.036
    1UNL     C5    6   0.170   0.008   0.015
    1UNL     O2    7   0.309   0.012   0.013
    1UNL     C6    8   0.091   0.113   0.063
    1UNL     C7    9  -0.046   0.108   0.060
    1UNL     H1   10  -0.310   0.113  -0.037
    1UNL     H2   11  -0.089  -0.192  -0.089
    1UNL     H3   12   0.157  -0.185  -0.076
    1UNL     H4   13   0.349  -0.074   0.003
    1UNL     H5   14   0.144   0.205   0.088
    1UNL     H6   15  -0.106   0.190   0.084
   0.00000   0.00000   0.00000   0.00000   0.00000   0.00000   0.00000   0.00000   0.00000
Generated with MDTraj, t= 96.0
 15
    1UNL     O1    1  -0.328  -0.089  -0.061
    1UNL     C1    2  -0.261  -0.008  -0.005
    1UNL     C2    3  -0.117   0.011  -0.006
    1UNL     C3    4  -0.038  -0.101  -0.054
    1UNL     C4    5   0.098  -0.099  -0.047
    1UNL     C5    6   0.170   0.007   0.009
    1UNL     O2    7   0.305   0.001   0.037
    1UNL     C6    8   0.093   0.121   0.048
    1UNL     C7    9  -0.045   0.119   0.049
    1UNL     H1   10  -0.317   0.069   0.029
    1UNL     H2   11  -0.102  -0.188  -0.068
    1UNL     H3   12   0.158  -0.168  -0.094
    1UNL     H4   13   0.335  -0.086   0.009
    1UNL     H5   14   0.140   0.212   0.074
    1UNL     H6   15  -0.098   0.216   0.066
   0.00000   0.00000   0.00000   0.00000   0.00000   0.00000   0.00000   0.00000   0.00000
Generated with MDTraj, t= 97.0
 15
    1UNL     O1    1  -0.323  -0.093  -0.055
    1UNL     C1    2  -0.262   0.005  -0.025
    1UNL     C2    3  -0.116   0.007  -0.008
    1UNL     C3    4  -0.038  -0.098  -0.047
    1UNL     C4    5   0.097  -0.102  -0.038
    1UNL     C5    6   0.167   0.007   0.016
    1UNL     O2    7   0.307   0.005   0.019
    1UNL     C6    8   0.088   0.111   0.068
    1UNL     C7    9  -0.049   0.118   0.050
    1UNL     H1   10  -0.318   0.107  -0.025
    1UNL     H2   11  -0.090  -0.185  -0.078
    1UNL     H3   12   0.156  -0.193  -0.064
    1UNL     H4   13   0.340  -0.061  -0.047
    1UNL     H5   14   0.148   0.202   0.093
    1UNL     H6   15  -0.102   0.206   0.072
   0.00000   0.00000   0.00000   0.00000   0.00000   0.00000   0.00000   0.00000   0.00000
Generated with MDTraj, t= 98.0
 15
    1UNL     O1    1  -0.331  -0.079  -0.070
    1UNL     C1    2  -0.259  -0.004  -0.007
    1UNL     C2    3  -0.111  -0.000  -0.007
    1UNL     C3    4  -0.039  -0.109  -0.042
    1UNL     C4    5   0.101  -0.099  -0.043
    1UNL     C5    6   0.166   0.008   0.018
    1UNL     O2    7   0.303   0.008   0.022
    1UNL     C6    8   0.092   0.122   0.063
    1UNL     C7    9  -0.045   0.116   0.042
    1UNL     H1   10  -0.309   0.051   0.067
    1UNL     H2   11  -0.089  -0.201  -0.081
    1UNL     H3   12   0.148  -0.193  -0.052
    1UNL     H4   13   0.342  -0.070  -0.029
    1UNL     H5   14   0.145   0.205   0.092
    1UNL     H6   15  -0.103   0.211   0.046
   0.00000   0.00000   0.00000   0.00000   0.00000   0.00000   0.00000   0.00000   0.00000
Generated with MDTraj, t= 99.0
 15
    1UNL     O1    1  -0.320  -0.085  -0.068
    1UNL     C1    2  -0.258   0.004  -0.016
    1UNL     C2    3  -0.116   0.004   0.002
    1UNL     C3    4  -0.040  -0.105  -0.043
    1UNL     C4    5   0.102  -0.101  -0.038
    1UNL     C5    6   0.165   0.013   0.011
    1UNL     O2    7   0.303   0.005   0.015
    1UNL     C6    8   0.088   0.112   0.068
    1UNL     C7    9  -0.050   0.116   0.045
    1UNL     H1   10  -0.322   0.082   0.028
    1UNL     H2   11  -0.090  -0.200  -0.043
    1UNL     H3   12   0.153  -0.191  -0.070
    1UNL     H4   13   0.342  -0.084  -0.016
    1UNL     H5   14   0.132   0.207   0.109
    1UNL     H6   15  -0.100   0.206   0.062
   0.00000   0.00000   0.00000   0.00000   0.00000   0.00000   0.00000   0.00000   0.00000
