[ moleculetype ]
; name        nrexcl
res           1

[ atoms ]
;    nr  type  resnr resid  atom  cgnr     charge       mass
      1 TX2       1 res   C1        1      0.000     36.000
      2 TX3       1 res   C2        2      0.000     36.000
      3 TX3       1 res   C3        3      0.000     36.000
      4 TX3       1 res   C4        4      0.000     36.000
      5 TX3       1 res   C5        5      0.000     36.000
      6 TX3       1 res   C6        6      0.000     36.000

[ constraints ]
;  ai    aj   funct      b0(nm)
    1     2     1      0.22544
    2     3     1      0.21737
    4     5     1      0.23000
    3     4     1      0.22393
    5     6     1      0.22163
    1     6     1      0.22618

[ bonds ]
;  ai    aj   funct      b0(nm)          k(kJ/mol/nm^2)

[ angles ]
;  ai    aj    ak  funct     th0(deg)        k(kJ/mol/rad^2)
    1     2     3     1    100.61849           443.57
    1     6     5     1     96.21640           558.69
    2     1     6     1    103.53423          1093.34
    2     3     4     1     97.90217           281.93
    3     4     5     1     95.86210           412.24
    4     5     6     1     96.84614           519.70

[ dihedrals ]
;  ai    aj    ak    al  funct   phi0(deg)        k(kJ/mol)   mult
    1     2     3     4     1    104.94548       12.977      1
    1     6     5     4     1   -100.03763       10.801      1
    2     1     6     5     1    105.02808       12.901      1
    2     3     4     5     1    -99.84988       12.270      1
    3     2     1     6     1   -106.95603       11.435      1
    3     4     5     6     1     94.95075       11.492      1
