[ moleculetype ]
; name        nrexcl
res           1

[ atoms ]
;    nr  type  resnr resid  atom  cgnr     charge       mass
      1 SN6a      1 res   C1        1      0.000     54.000
      2 TN6d      1 res   C2        2      0.000     36.000
      3 SC4       1 res   C3        3      0.000     54.000

[ constraints ]
;  ai    aj   funct      b0(nm)
    1     2     1      0.35417
    1     3     1      0.39825
    2     3     1      0.25268

[ bonds ]
;  ai    aj   funct      b0(nm)          k(kJ/mol/nm^2)

[ angles ]
;  ai    aj    ak  funct     th0(deg)        k(kJ/mol/rad^2)
    1     2     3     1     80.14676          2161.38
    1     3     2     1     61.16772          3831.05
    2     1     3     1     38.68547          4297.02

[ dihedrals ]
;  ai    aj    ak    al  funct   phi0(deg)        k(kJ/mol)   mult
