1TPCN06119
42
    1res  C1    1    2.001   0.265  -0.038
    1res  C2    2    2.050  -0.064   0.004
    1res  C3    3    1.786  -0.159  -0.109
    1res  C4    4    1.850  -0.420  -0.052
    1res  C5    5    1.649  -0.310   0.072
    1res  C6    6    1.421  -0.417   0.089
    1res  C7    7    1.327  -0.256  -0.020
    1res  C8    8    1.144  -0.116  -0.048
    1res  C9    9    0.963   0.050  -0.105
    1res  C10   10    0.869  -0.010   0.152
    1res  C11   11    0.904  -0.226   0.230
    1res  C12   12    0.712   0.153   0.108
    1res  C13   13    0.509   0.292   0.219
    1res  C14   14    0.445   0.008   0.235
    1res  C15   15    0.212   0.100   0.154
    1res  C16   16   -0.025   0.064   0.201
    1res  C17   17    0.013   0.219  -0.076
    1res  C18   18   -0.220   0.209  -0.154
    1res  C19   19   -0.105  -0.058  -0.016
    1res  C20   20   -0.231  -0.210  -0.004
    1res  C21   21   -0.418  -0.165  -0.092
    1res  C22   22   -0.614  -0.016  -0.162
    1res  C23   23   -0.816  -0.125   0.032
    1res  C24   24   -0.833   0.239  -0.071
    1res  C25   25   -1.021   0.055  -0.250
    1res  C26   26   -1.145  -0.086   0.025
    1res  C27   27   -1.203   0.262  -0.162
    1res  C28   28   -1.451   0.098  -0.024
    1res  C29   29   -1.732   0.074   0.003
    1res  C30   30   -1.584   0.298   0.123
    1res  C31   31   -1.320   0.079   0.310
    1res  C32   32   -1.176   0.311   0.104
    1res  C33   33   -0.576   0.053   0.184
    1res  C34   34   -0.489  -0.416  -0.109
    1res  C35   35   -0.335  -0.560   0.006
    1res  C36   36   -0.237  -0.378   0.116
    1res  C37   37    0.317   0.282   0.027
    1res  C38   38    0.836   0.242  -0.075
    1res  C39   39    1.232  -0.081  -0.249
    1res  C40   40    1.189  -0.357  -0.298
    1res  C41   41    1.408  -0.394  -0.221
    1res  C42   42    1.719   0.105  -0.152
  10.00000  10.00000  10.00000
