1TPCN05896
37
    1res  C1    1    1.403  -0.253   0.172
    1res  C2    2    1.394  -0.030  -0.023
    1res  C3    3    1.236   0.070  -0.198
    1res  C4    4    1.334   0.262  -0.219
    1res  C5    5    1.164   0.358  -0.066
    1res  C6    6    0.974   0.181  -0.014
    1res  C7    7    0.802   0.049   0.076
    1res  C8    8    0.658   0.262  -0.162
    1res  C9    9    0.499   0.121   0.080
    1res  C10   10    0.396  -0.065   0.027
    1res  C11   11    0.289  -0.067  -0.237
    1res  C12   12    0.127   0.071   0.001
    1res  C13   13   -0.125   0.201   0.013
    1res  C14   14   -0.138   0.029   0.259
    1res  C15   15   -0.221   0.309   0.280
    1res  C16   16   -0.290  -0.062  -0.203
    1res  C17   17   -0.466   0.181  -0.170
    1res  C18   18   -0.532  -0.183  -0.139
    1res  C19   19   -0.719   0.066   0.021
    1res  C20   20   -0.916   0.128  -0.153
    1res  C21   21   -1.059  -0.065  -0.063
    1res  C22   22   -1.301  -0.105   0.034
    1res  C23   23   -1.496  -0.072   0.273
    1res  C24   24   -1.553  -0.037  -0.011
    1res  C25   25   -1.396   0.120  -0.155
    1res  C26   26   -1.315  -0.067  -0.251
    1res  C27   27   -0.963  -0.237   0.096
    1res  C28   28   -0.989   0.003   0.247
    1res  C29   29   -0.593  -0.169   0.150
    1res  C30   30   -0.148  -0.169  -0.006
    1res  C31   31    0.226  -0.325  -0.191
    1res  C32   32    0.436  -0.273  -0.034
    1res  C33   33    0.618   0.024   0.253
    1res  C34   34    1.123  -0.006  -0.025
    1res  C35   35    1.562  -0.026  -0.179
    1res  C36   36    1.659  -0.167  -0.047
    1res  C37   37    1.633  -0.076   0.178
  10.00000  10.00000  10.00000
