1TPCN00100
11
    1res  C1    1    0.298   0.311  -0.002
    1res  C2    2   -0.022   0.139  -0.002
    1res  C3    3   -0.205   0.044   0.139
    1res  C4    4   -0.119  -0.156   0.022
    1res  C5    5    0.082  -0.222   0.131
    1res  C6    6    0.225  -0.136   0.064
    1res  C7    7    0.413  -0.267   0.165
    1res  C8    8    0.441  -0.047  -0.026
    1res  C9    9    0.019  -0.034  -0.169
    1res  C10   10   -0.383  -0.084  -0.090
    1res  C11   11   -0.499   0.100   0.053
  10.00000  10.00000  10.00000
