[ moleculetype ]
; name        nrexcl
res           1

[ atoms ]
;    nr  type  resnr resid  atom  cgnr     charge       mass
      1 TC3       1 res   C1        1      0.000     36.000
      2 TC3       1 res   C2        2      0.000     36.000
      3 TN6d      1 res   C3        3      0.000     36.000
      4 TC3       1 res   C4        4      0.000     36.000
      5 TC5       1 res   C5        5      0.000     36.000
      6 TN6d      1 res   C6        6      0.000     36.000
      7 TC5       1 res   C7        7      0.000     36.000
      8 TC5       1 res   C8        8      0.000     36.000
      9 TC5       1 res   C9        9      0.000     36.000
     10 SC3       1 res   C10      10      0.000     54.000
     11 N4a       1 res   C11      11      0.000     72.000

[ constraints ]
;  ai    aj   funct      b0(nm)
    1     2     1      0.26585
   10    11     1      0.42557
    3     5     1      0.22608
    2     3     1      0.26310
    4     5     1      0.23599
    5    10     1      0.24599
    7     9     1      0.24855
    5     7     1      0.18411
    3     4     1      0.28999
    3    10     1      0.26463
    5     6     1      0.17329
    7     8     1      0.24796
    6     7     1      0.17965
    2    10     1      0.30690
    8     9     1      0.28959

[ bonds ]
;  ai    aj   funct      b0(nm)          k(kJ/mol/nm^2)

[ angles ]
;  ai    aj    ak  funct     th0(deg)        k(kJ/mol/rad^2)
    1     2     3     1    148.23722           559.10
    1     2    10     1     98.72389          1996.69
    2     3     4     1     68.67820          2690.11
    2     3     5     1     98.05134          2030.15
    2     3    10     1     71.11838          3388.95
    2    10     3     1     54.20459          4176.09
    2    10     5     1     83.26187          3279.04
    2    10    11     1     93.61884           475.22
    3     2    10     1     54.67707          4331.68
    3     4     5     1     49.61596          5344.26
    3     5     4     1     77.72365          2444.56
    3     5     6     1     88.54132          1881.10
    3     5     7     1    147.60293          1582.80
    3     5    10     1     68.04452          3944.58
    3    10     5     1     52.39919          8195.18
    3    10    11     1    126.36765          1070.65
    4     3     5     1     52.66039          5799.06
    4     3    10     1     90.62183          3322.49
    4     5     6     1    123.14726           258.59
    4     5     7     1    110.99415           789.15
    4     5    10     1    109.94992          1785.98
    5     3    10     1     59.55635          5338.39
    5     6     7     1     62.86521          4218.08
    5     7     6     1     56.88104          6190.42
    5     7     8     1    158.29258          1966.43
    5     7     9     1    129.39798          2010.71
    5    10    11     1     86.27968           981.49
    6     5     7     1     60.25376          5194.40
    6     5    10     1    115.02744           331.27
    6     7     8     1    101.93344          2183.75
    6     7     9     1    171.72836          1267.07
    7     5    10     1    130.41925           655.84
    7     8     9     1     54.41284         13818.40
    7     9     8     1     54.22527         11086.88
    8     7     9     1     71.36188          7243.95

[ dihedrals ]
;  ai    aj    ak    al  funct   phi0(deg)        k(kJ/mol)   mult
    1     2     3     4     1    114.10243       21.711      1
    1     2     3     5     1    157.99328       20.325      1
    1     2     3    10     1   -148.23616       20.339      1
    1     2    10     3     1     18.91465       14.339      1
    1     2    10     5     1     65.35467       12.930      1
    1     2    10    11     1    150.94554       14.317      1
    2     3     4     5     1    -60.95012        5.512      1
    2     3     5     4     1    124.07651        4.761      1
    2     3     5     6     1      0.00451       10.779      1
    2     3     5     7     1     14.01601       12.216      1
    2     3     5    10     1   -118.89739        3.991      1
    2     3    10     5     1     67.98968        4.774      1
    2     3    10    11     1    113.82954       10.731      1
    2    10     3     4     1   -112.99180        4.017      1
    2    10     3     5     1    -67.98968        4.774      1
    2    10     5     3     1    130.98475        4.037      1
    2    10     5     4     1   -161.06711        5.548      1
    2    10     5     6     1     54.89728        8.574      1
    2    10     5     7     1    -17.99701        6.273      1
    3     2    10     5     1   -132.95594        3.935      1
    3     2    10    11     1    -47.92188        7.777      1
    3     4     5     6     1   -100.91234        5.468      1
    3     4     5     7     1    -32.96185        5.568      1
    3     4     5    10     1    119.00385        3.974      1
    3     5     6     7     1     -7.13228        5.530      1
    3     5     7     6     1    164.91183       10.006      1
    3     5     7     8     1    164.64101       21.533      1
    3     5     7     9     1    -15.05340       14.430      1
    3     5    10    11     1     36.49247        9.218      1
    3    10     5     4     1   -112.99088        4.031      1
    3    10     5     6     1    103.00341        8.548      1
    3    10     5     7     1     31.98605        6.285      1
    4     3     2    10     1     81.06700        3.988      1
    4     3     5     6     1     55.04030       10.089      1
    4     3     5     7     1     68.10180       12.226      1
    4     3     5    10     1    -62.02583        4.772      1
    4     3    10     5     1    135.02036        3.966      1
    4     3    10    11     1   -178.89452       11.407      1
    4     5     3    10     1     62.02583        4.772      1
    4     5     6     7     1    -82.23856        7.732      1
    4     5     7     6     1     63.92900       10.775      1
    4     5     7     8     1     64.58142       19.710      1
    4     5     7     9     1   -117.61150       16.436      1
    4     5    10    11     1    103.99384        9.305      1
    5     3     2    10     1    126.94216        3.988      1
    5     3    10    11     1   -134.73814       11.431      1
    5     4     3    10     1   -130.91757        3.983      1
    5     6     7     8     1      1.86417       10.749      1
    5     6     7     9     1     -4.74402       29.868      1
    5     7     8     9     1      0.49558       21.498      1
    5     7     9     8     1      1.73903       13.597      1
    6     5     3    10     1    -61.99119       10.763      1
    6     5     7     8     1   -178.38806       20.998      1
    6     5     7     9     1      2.13218       12.212      1
    6     5    10    11     1    -40.00998       10.715      1
    6     7     5    10     1    -80.90054       10.070      1
    6     7     8     9     1      1.11669       10.035      1
    6     7     9     8     1   -174.28187       32.045      1
    7     5     3    10     1    -49.28506       12.855      1
    7     5    10    11     1   -111.99774        9.284      1
    7     6     5    10     1     55.08755        7.010      1
    8     7     5    10     1    -80.02558       21.651      1
    9     7     5    10     1    100.92123       15.808      1
