1TPCN06235
25
    1res  C1    1    0.593  -0.173  -0.484
    1res  C2    2    0.650  -0.009  -0.265
    1res  C3    3    0.414  -0.059  -0.181
    1res  C4    4    0.481   0.091  -0.002
    1res  C5    5    0.551   0.078   0.275
    1res  C6    6    0.701   0.266   0.359
    1res  C7    7    0.678  -0.016   0.495
    1res  C8    8    0.492  -0.141   0.468
    1res  C9    9    0.528  -0.221   0.229
    1res  C10   10    0.303   0.209  -0.240
    1res  C11   11    0.183  -0.005  -0.204
    1res  C12   12    0.093  -0.009  -0.447
    1res  C13   13    0.081  -0.209  -0.076
    1res  C14   14   -0.080   0.104  -0.218
    1res  C15   15   -0.240  -0.102   0.007
    1res  C16   16   -0.412  -0.022  -0.186
    1res  C17   17   -0.533   0.020   0.036
    1res  C18   18   -0.712   0.012   0.136
    1res  C19   19   -0.799  -0.110   0.338
    1res  C20   20   -0.996   0.094   0.307
    1res  C21   21   -1.005  -0.027   0.054
    1res  C22   22   -0.863   0.122  -0.040
    1res  C23   23   -0.376   0.136   0.188
    1res  C24   24   -0.019   0.118   0.076
    1res  C25   25    0.339  -0.243  -0.378
  10.00000  10.00000  10.00000
