1TPCN00450
12
    1res  C1    1    0.586   0.017   0.078
    1res  C2    2    0.348  -0.213   0.095
    1res  C3    3    0.053  -0.098   0.161
    1res  C4    4    0.024   0.015  -0.084
    1res  C5    5   -0.206  -0.057  -0.056
    1res  C6    6   -0.316   0.110   0.040
    1res  C7    7   -0.646   0.143   0.046
    1res  C8    8   -0.442  -0.128  -0.099
    1res  C9    9   -0.123  -0.307  -0.209
    1res  C10   10    0.219  -0.134  -0.151
    1res  C11   11    0.267   0.070   0.036
    1res  C12   12   -0.076   0.396   0.060
  10.00000  10.00000  10.00000
