[ moleculetype ]
; name        nrexcl
res           1

[ atoms ]
;    nr  type resnr resid  atom  cgnr     charge       mass
      1 TC5       1 res   C1        1      0.000     36.000
      2 TC4       1 res   C2        2      0.000     36.000
      3 SC3       1 res   C3        3      0.000     54.000
      4 SN4a      1 res   C4        4      0.000     54.000
      5 TC5       1 res   C5        5      0.000     36.000
      6 TP1d      1 res   C6        6      0.000     36.000
      7 TC5       1 res   C7        7      0.000     36.000
      8 TN4a      1 res   C8        8      0.000     36.000
      9 TN3r      1 res   C9        9      0.000     36.000
     10 SN6       1 res   C10      10      0.000     54.000
     11 TC5       1 res   C11      11      0.000     36.000
     12 TP1d      1 res   C12      12      0.000     36.000

[ bonds ]
;  ai    aj   funct      b0(nm)        k
    1     2     1      0.29287    20000
    2     3     1      0.28065    20000
    2    10     1      0.34050    20000
    3     4     1      0.24169    20000
    3     7     1      0.36770    20000
    3    10     1      0.27986    20000
    4     5     1      0.28205    20000
    5     6     1      0.26708    20000
    7     8     1      0.24960    20000
    8     9     1      0.25199    20000
   10    11     1      0.28432    20000
   11    12     1      0.26204    20000
