1TPCN03848
15
    1res  C1    1    0.542  -0.016   0.215
    1res  C2    2    0.567  -0.105  -0.079
    1res  C3    3    0.346   0.084  -0.119
    1res  C4    4    0.407   0.097  -0.369
    1res  C5    5    0.245  -0.197  -0.120
    1res  C6    6    0.123  -0.053   0.126
    1res  C7    7    0.014   0.250   0.052
    1res  C8    8   -0.058  -0.020  -0.162
    1res  C9    9   -0.280   0.036   0.171
    1res  C10   10   -0.416   0.183  -0.102
    1res  C11   11   -0.617  -0.002  -0.119
    1res  C12   12   -0.541  -0.228  -0.012
    1res  C13   13   -0.599  -0.015   0.195
    1res  C14   14   -0.186  -0.217  -0.029
    1res  C15   15    0.492   0.205   0.056
  10.00000  10.00000  10.00000
