1TPCN03649
31
    1res  C1    1    0.612  -0.763   0.286
    1res  C2    2    0.538  -0.471   0.198
    1res  C3    3    0.409  -0.278  -0.051
    1res  C4    4    0.617  -0.078   0.023
    1res  C5    5    0.628   0.159  -0.152
    1res  C6    6    0.674   0.473  -0.293
    1res  C7    7    0.887   0.569  -0.432
    1res  C8    8    1.009   0.488  -0.267
    1res  C9    9    0.887   0.276  -0.249
    1res  C10   10    0.801   0.150   0.083
    1res  C11   11    0.896  -0.081   0.172
    1res  C12   12    0.694  -0.126   0.267
    1res  C13   13    0.268  -0.285   0.233
    1res  C14   14    0.041  -0.323   0.182
    1res  C15   15    0.168   0.007   0.060
    1res  C16   16   -0.160  -0.133   0.256
    1res  C17   17   -0.121   0.179   0.028
    1res  C18   18   -0.397   0.065   0.081
    1res  C19   19   -0.427   0.201  -0.134
    1res  C20   20   -0.624   0.271  -0.267
    1res  C21   21   -0.706   0.444  -0.490
    1res  C22   22   -0.848   0.211  -0.404
    1res  C23   23   -0.748  -0.010  -0.297
    1res  C24   24   -0.762   0.128  -0.117
    1res  C25   25   -0.847   0.133   0.141
    1res  C26   26   -0.788  -0.074   0.248
    1res  C27   27   -1.028   0.181   0.360
    1res  C28   28   -1.155   0.100   0.165
    1res  C29   29   -1.039   0.272   0.031
    1res  C30   30   -0.235   0.166  -0.284
    1res  C31   31   -0.199  -0.194  -0.084
  10.00000  10.00000  10.00000
