1TPCN04997
30
    1res  C1    1    0.029  -0.435   0.115
    1res  C2    2    0.191  -0.217   0.228
    1res  C3    3    0.012  -0.153  -0.007
    1res  C4    4    0.223  -0.050  -0.050
    1res  C5    5    0.400   0.083  -0.058
    1res  C6    6    0.657   0.096   0.081
    1res  C7    7    0.930   0.261   0.058
    1res  C8    8    1.123   0.163  -0.078
    1res  C9    9    1.348  -0.033  -0.128
    1res  C10   10    1.368  -0.289  -0.093
    1res  C11   11    1.282  -0.230   0.136
    1res  C12   12    1.129  -0.175  -0.149
    1res  C13   13    0.977   0.187  -0.272
    1res  C14   14    0.828   0.356  -0.172
    1res  C15   15    0.441   0.308   0.131
    1res  C16   16    0.455   0.414  -0.090
    1res  C17   17    0.308   0.300  -0.239
    1res  C18   18   -0.054   0.062   0.164
    1res  C19   19   -0.212  -0.192   0.236
    1res  C20   20   -0.357  -0.247  -0.074
    1res  C21   21   -0.430  -0.035   0.229
    1res  C22   22   -0.671  -0.041   0.155
    1res  C23   23   -0.802  -0.141  -0.045
    1res  C24   24   -1.053   0.074  -0.056
    1res  C25   25   -1.232  -0.086   0.056
    1res  C26   26   -1.435  -0.015   0.002
    1res  C27   27   -1.391   0.154  -0.124
    1res  C28   28   -1.200   0.103  -0.218
    1res  C29   29   -0.742   0.164  -0.161
    1res  C30   30   -0.401   0.113  -0.036
  10.00000  10.00000  10.00000
