[ moleculetype ]
; name        nrexcl
res           1

[ atoms ]
;    nr  type  resnr resid  atom  cgnr     charge       mass
      1 TC5       1 res   C1        1      0.000     36.000
      2 TC3       1 res   C2        2      0.000     36.000
      3 TN4a      1 res   C3        3      0.000     36.000
      4 TN6       1 res   C4        4      0.000     36.000
      5 TN4a      1 res   C5        5      0.000     36.000
      6 TP1       1 res   C6        6      0.000     36.000
      7 TN6       1 res   C7        7      0.000     36.000
      8 TN6       1 res   C8        8      0.000     36.000
      9 TN6       1 res   C9        9      0.000     36.000
     10 TC5       1 res   C10      10      0.000     36.000
     11 N4a       1 res   C11      11      0.000     72.000
     12 TC4       1 res   C12      12      0.000     36.000
     13 SN6d      1 res   C13      13      0.000     54.000
     14 SP2       1 res   C14      14      0.000     54.000
     15 TC5       1 res   C15      15      0.000     36.000
     16 TN6d      1 res   C16      16      0.000     36.000
     17 TC5       1 res   C17      17      0.000     36.000
     18 TC5       1 res   C18      18      0.000     36.000
     19 TC5       1 res   C19      19      0.000     36.000

[ bonds ]
;  ai    aj   funct      b0(nm)          k(kJ/mol/nm^2)
    1     2     1      0.26172          12239.3
    2     3     1      0.26347         132032.1
    2    10     1      0.29511         144809.4
    2    12     1      0.24768          73879.9
    3     4     1      0.23793          47603.7
    3    10     1      0.26516         152593.3
    4     5     1      0.27474         109683.7
    4     9     1      0.21484          24723.4
    5     6     1      0.22836          85165.5
    5     7     1      0.26542         102709.7
    7     8     1      0.23820          46234.0
    8     9     1      0.24055          38524.7
   10    11     1      0.36156          61386.7
   12    13     1      0.30412          40303.0
   12    15     1      0.26590          57271.5
   13    14     1      0.25610          62587.6
   13    15     1      0.21737         126245.1
   15    16     1      0.21659         187129.7
   15    17     1      0.18333         380323.7
   16    17     1      0.21904         202381.0
   17    18     1      0.25019         300557.5
   17    19     1      0.25044         259806.4
   18    19     1      0.29113         189859.7

[ angles ]
;  ai    aj    ak  funct     th0(deg)        k(kJ/mol/rad^2)
    1     2     3     1     76.66455            90.32
    1     2    10     1     88.51416            71.44
    1     2    12     1    162.47262           120.92
    2     3     4     1     87.73547           802.03
    2     3    10     1     67.87301          5052.09
    2    10     3     1     55.79518          5720.35
    2    10    11     1     86.49697           793.53
    2    12    13     1    141.87731            83.87
    2    12    15     1    108.13904           106.95
    3     2    10     1     56.33180          7593.36
    3     2    12     1    102.35248           491.97
    3     4     5     1    108.67998           325.46
    3     4     9     1    134.26810           406.82
    3    10    11     1    141.78519           710.71
    4     3    10     1    123.63702           476.42
    4     5     6     1     96.63146           680.33
    4     5     7     1     94.87816           418.10
    4     9     8     1    109.08937           920.62
    5     4     9     1    100.05972          1408.71
    5     7     8     1     88.21302           423.03
    6     5     7     1     70.64303           959.11
    7     8     9     1     97.40671           487.59
   10     2    12     1     80.97073           672.24
   12    13    14     1    123.73697           515.78
   12    13    15     1     58.52129          2315.14
   12    15    13     1     77.28255          1647.47
   12    15    16     1     80.00629          1012.83
   12    15    17     1    140.23885           793.88
   13    12    15     1     44.19595          4869.94
   13    15    16     1    149.67620           797.67
   13    15    17     1    141.04042          1162.08
   14    13    15     1    172.58886           499.74
   15    16    17     1     49.77340          6661.24
   15    17    16     1     64.41860          4640.29
   15    17    18     1    160.99204           960.54
   15    17    19     1    126.75239          1403.20
   16    15    17     1     65.80794          4615.37
   16    17    18     1     97.27973          1258.96
   16    17    19     1    167.25829           946.97
   17    18    19     1     54.48317          8444.71
   17    19    18     1     54.39728         12047.56
   18    17    19     1     71.11956          5974.85
