Generated with MDTraj, t= 0.0
 69
    1UNL     C1    1  -0.493  -0.404  -0.073
    1UNL     C2    2  -0.453  -0.290   0.021
    1UNL     C3    3  -0.487  -0.155  -0.041
    1UNL     C4    4  -0.302  -0.300   0.062
    1UNL     C5    5  -0.209  -0.268  -0.052
    1UNL     C6    6  -0.100  -0.193  -0.041
    1UNL     C7    7  -0.057  -0.129   0.089
    1UNL     C8    8  -0.122  -0.198   0.212
    1UNL     C9    9  -0.273  -0.216   0.189
    1UNL    C10   10   0.097  -0.108   0.101
    1UNL    C11   11   0.079   0.041   0.063
    1UNL    C12   12   0.150   0.137   0.155
    1UNL     O1   13   0.103   0.165   0.262
    1UNL    C13   14   0.283   0.191   0.114
    1UNL    C14   15   0.397   0.100   0.160
    1UNL    C15   16   0.538   0.160   0.134
    1UNL    C16   17   0.588   0.138  -0.011
    1UNL    C17   18   0.497   0.046  -0.093
    1UNL    C18   19   0.468  -0.073  -0.002
    1UNL    C19   20   0.600  -0.133   0.051
    1UNL    C20   21   0.725  -0.054   0.018
    1UNL     O2   22   0.829  -0.117   0.015
    1UNL     O3   23   0.720   0.081  -0.008
    1UNL     O4   24   0.382  -0.036   0.109
    1UNL    C21   25  -0.073   0.028   0.091
    1UNL    C22   26  -0.163   0.090  -0.011
    1UNL    C23   27  -0.175   0.222  -0.024
    1UNL    C24   28  -0.261   0.288  -0.122
    1UNL    C25   29  -0.236   0.420  -0.158
    1UNL    C26   30  -0.316   0.485  -0.250
    1UNL    C27   31  -0.423   0.419  -0.307
    1UNL    C28   32  -0.450   0.288  -0.272
    1UNL    C29   33  -0.370   0.223  -0.181
    1UNL     H1   34  -0.599  -0.402  -0.096
    1UNL     H2   35  -0.470  -0.502  -0.030
    1UNL     H3   36  -0.439  -0.398  -0.168
    1UNL     H4   37  -0.512  -0.301   0.113
    1UNL     H5   38  -0.429  -0.138  -0.132
    1UNL     H6   39  -0.592  -0.148  -0.068
    1UNL     H7   40  -0.465  -0.072   0.027
    1UNL     H8   41  -0.283  -0.405   0.089
    1UNL     H9   42  -0.234  -0.308  -0.149
    1UNL    H10   43  -0.039  -0.175  -0.127
    1UNL    H11   44  -0.075  -0.295   0.226
    1UNL    H12   45  -0.102  -0.140   0.302
    1UNL    H13   46  -0.319  -0.117   0.178
    1UNL    H14   47  -0.321  -0.261   0.277
    1UNL    H15   48   0.156  -0.167   0.029
    1UNL    H16   49   0.135  -0.121   0.203
    1UNL    H17   50   0.100   0.061  -0.043
    1UNL    H18   51   0.295   0.291   0.156
    1UNL    H19   52   0.286   0.203   0.005
    1UNL    H20   53   0.385   0.086   0.269
    1UNL    H21   54   0.537   0.267   0.159
    1UNL    H22   55   0.611   0.114   0.202
    1UNL    H23   56   0.599   0.236  -0.062
    1UNL    H24   57   0.549   0.014  -0.184
    1UNL    H25   58   0.404   0.096  -0.125
    1UNL    H26   59   0.411  -0.150  -0.058
    1UNL    H27   60   0.592  -0.140   0.160
    1UNL    H28   61   0.614  -0.235   0.015
    1UNL    H29   62  -0.097   0.065   0.192
    1UNL    H30   63  -0.217   0.025  -0.076
    1UNL    H31   64  -0.116   0.285   0.040
    1UNL    H32   65  -0.153   0.472  -0.114
    1UNL    H33   66  -0.295   0.587  -0.277
    1UNL    H34   67  -0.486   0.469  -0.379
    1UNL    H35   68  -0.533   0.237  -0.316
    1UNL    H36   69  -0.392   0.122  -0.152
   0.00000   0.00000   0.00000   0.00000   0.00000   0.00000   0.00000   0.00000   0.00000
Generated with MDTraj, t= 1.0
 69
    1UNL     C1    1  -0.503  -0.428  -0.025
    1UNL     C2    2  -0.440  -0.291   0.020
    1UNL     C3    3  -0.462  -0.181  -0.087
    1UNL     C4    4  -0.294  -0.303   0.062
    1UNL     C5    5  -0.193  -0.280  -0.044
    1UNL     C6    6  -0.093  -0.190  -0.035
    1UNL     C7    7  -0.047  -0.127   0.101
    1UNL     C8    8  -0.123  -0.193   0.217
    1UNL     C9    9  -0.270  -0.210   0.183
    1UNL    C10   10   0.101  -0.095   0.120
    1UNL    C11   11   0.075   0.051   0.072
    1UNL    C12   12   0.148   0.151   0.163
    1UNL     O1   13   0.079   0.189   0.258
    1UNL    C13   14   0.290   0.193   0.120
    1UNL    C14   15   0.387   0.082   0.151
    1UNL    C15   16   0.531   0.136   0.148
    1UNL    C16   17   0.608   0.135   0.015
    1UNL    C17   18   0.526   0.081  -0.097
    1UNL    C18   19   0.465  -0.052  -0.039
    1UNL    C19   20   0.581  -0.135   0.031
    1UNL    C20   21   0.724  -0.071   0.010
    1UNL     O2   22   0.820  -0.144  -0.008
    1UNL     O3   23   0.736   0.066   0.017
    1UNL     O4   24   0.370  -0.023   0.061
    1UNL    C21   25  -0.070   0.028   0.101
    1UNL    C22   26  -0.161   0.097  -0.002
    1UNL    C23   27  -0.231   0.212   0.012
    1UNL    C24   28  -0.291   0.283  -0.110
    1UNL    C25   29  -0.248   0.414  -0.139
    1UNL    C26   30  -0.296   0.485  -0.248
    1UNL    C27   31  -0.389   0.424  -0.337
    1UNL    C28   32  -0.447   0.303  -0.296
    1UNL    C29   33  -0.394   0.235  -0.186
    1UNL     H1   34  -0.614  -0.413  -0.040
    1UNL     H2   35  -0.480  -0.513   0.038
    1UNL     H3   36  -0.469  -0.449  -0.126
    1UNL     H4   37  -0.492  -0.257   0.110
    1UNL     H5   38  -0.442  -0.218  -0.190
    1UNL     H6   39  -0.558  -0.131  -0.094
    1UNL     H7   40  -0.391  -0.097  -0.089
    1UNL     H8   41  -0.261  -0.402   0.097
    1UNL     H9   42  -0.201  -0.330  -0.146
    1UNL    H10   43  -0.023  -0.164  -0.118
    1UNL    H11   44  -0.083  -0.287   0.239
    1UNL    H12   45  -0.098  -0.137   0.311
    1UNL    H13   46  -0.300  -0.109   0.152
    1UNL    H14   47  -0.325  -0.240   0.272
    1UNL    H15   48   0.160  -0.162   0.062
    1UNL    H16   49   0.143  -0.100   0.226
    1UNL    H17   50   0.098   0.081  -0.034
    1UNL    H18   51   0.314   0.285   0.184
    1UNL    H19   52   0.289   0.222   0.020
    1UNL    H20   53   0.364   0.048   0.258
    1UNL    H21   54   0.507   0.240   0.153
    1UNL    H22   55   0.595   0.112   0.242
    1UNL    H23   56   0.626   0.244  -0.010
    1UNL    H24   57   0.597   0.057  -0.176
    1UNL    H25   58   0.455   0.153  -0.137
    1UNL    H26   59   0.431  -0.116  -0.126
    1UNL    H27   60   0.557  -0.139   0.133
    1UNL    H28   61   0.585  -0.239  -0.006
    1UNL    H29   62  -0.108   0.068   0.197
    1UNL    H30   63  -0.153   0.055  -0.099
    1UNL    H31   64  -0.232   0.256   0.112
    1UNL    H32   65  -0.173   0.461  -0.074
    1UNL    H33   66  -0.270   0.588  -0.276
    1UNL    H34   67  -0.412   0.489  -0.428
    1UNL    H35   68  -0.534   0.259  -0.344
    1UNL    H36   69  -0.432   0.134  -0.153
   0.00000   0.00000   0.00000   0.00000   0.00000   0.00000   0.00000   0.00000   0.00000
Generated with MDTraj, t= 2.0
 69
    1UNL     C1    1  -0.486  -0.442  -0.034
    1UNL     C2    2  -0.443  -0.304   0.011
    1UNL     C3    3  -0.462  -0.207  -0.101
    1UNL     C4    4  -0.300  -0.304   0.079
    1UNL     C5    5  -0.195  -0.276  -0.018
    1UNL     C6    6  -0.096  -0.187  -0.016
    1UNL     C7    7  -0.055  -0.112   0.105
    1UNL     C8    8  -0.131  -0.167   0.227
    1UNL     C9    9  -0.281  -0.200   0.198
    1UNL    C10   10   0.100  -0.093   0.110
    1UNL    C11   11   0.081   0.055   0.072
    1UNL    C12   12   0.147   0.156   0.154
    1UNL     O1   13   0.093   0.205   0.251
    1UNL    C13   14   0.286   0.195   0.117
    1UNL    C14   15   0.384   0.081   0.148
    1UNL    C15   16   0.534   0.136   0.171
    1UNL    C16   17   0.617   0.140   0.033
    1UNL    C17   18   0.528   0.116  -0.086
    1UNL    C18   19   0.468  -0.024  -0.060
    1UNL    C19   20   0.576  -0.126  -0.052
    1UNL    C20   21   0.708  -0.082   0.004
    1UNL     O2   22   0.789  -0.172   0.013
    1UNL     O3   23   0.730   0.048   0.039
    1UNL     O4   24   0.373  -0.026   0.047
    1UNL    C21   25  -0.073   0.045   0.099
    1UNL    C22   26  -0.154   0.094  -0.011
    1UNL    C23   27  -0.229   0.203   0.002
    1UNL    C24   28  -0.286   0.278  -0.105
    1UNL    C25   29  -0.244   0.409  -0.131
    1UNL    C26   30  -0.290   0.482  -0.235
    1UNL    C27   31  -0.386   0.423  -0.324
    1UNL    C28   32  -0.432   0.294  -0.300
    1UNL    C29   33  -0.381   0.217  -0.190
    1UNL     H1   34  -0.572  -0.449  -0.111
    1UNL     H2   35  -0.508  -0.505   0.050
    1UNL     H3   36  -0.408  -0.495  -0.087
    1UNL     H4   37  -0.520  -0.282   0.083
    1UNL     H5   38  -0.381  -0.219  -0.176
    1UNL     H6   39  -0.560  -0.209  -0.146
    1UNL     H7   40  -0.450  -0.102  -0.071
    1UNL     H8   41  -0.280  -0.407   0.104
    1UNL     H9   42  -0.196  -0.326  -0.106
    1UNL    H10   43  -0.030  -0.186  -0.096
    1UNL    H11   44  -0.084  -0.252   0.257
    1UNL    H12   45  -0.116  -0.102   0.320
    1UNL    H13   46  -0.327  -0.108   0.159
    1UNL    H14   47  -0.328  -0.237   0.292
    1UNL    H15   48   0.149  -0.147   0.035
    1UNL    H16   49   0.136  -0.098   0.220
    1UNL    H17   50   0.111   0.063  -0.039
    1UNL    H18   51   0.311   0.289   0.180
    1UNL    H19   52   0.290   0.222   0.017
    1UNL    H20   53   0.351   0.043   0.253
    1UNL    H21   54   0.546   0.222   0.230
    1UNL    H22   55   0.587   0.048   0.230
    1UNL    H23   56   0.668   0.242   0.009
    1UNL    H24   57   0.592   0.123  -0.173
    1UNL    H25   58   0.448   0.189  -0.097
    1UNL    H26   59   0.399  -0.051  -0.149
    1UNL    H27   60   0.541  -0.206   0.003
    1UNL    H28   61   0.596  -0.156  -0.158
    1UNL    H29   62  -0.089   0.098   0.198
    1UNL    H30   63  -0.129   0.049  -0.110
    1UNL    H31   64  -0.242   0.251   0.095
    1UNL    H32   65  -0.177   0.457  -0.066
    1UNL    H33   66  -0.247   0.580  -0.242
    1UNL    H34   67  -0.430   0.469  -0.405
    1UNL    H35   68  -0.502   0.246  -0.369
    1UNL    H36   69  -0.405   0.122  -0.159
   0.00000   0.00000   0.00000   0.00000   0.00000   0.00000   0.00000   0.00000   0.00000
Generated with MDTraj, t= 3.0
 69
    1UNL     C1    1  -0.453  -0.449  -0.056
    1UNL     C2    2  -0.433  -0.320   0.023
    1UNL     C3    3  -0.496  -0.199  -0.055
    1UNL     C4    4  -0.287  -0.297   0.075
    1UNL     C5    5  -0.181  -0.275  -0.027
    1UNL     C6    6  -0.070  -0.206  -0.001
    1UNL     C7    7  -0.057  -0.120   0.122
    1UNL     C8    8  -0.151  -0.164   0.242
    1UNL     C9    9  -0.291  -0.185   0.194
    1UNL    C10   10   0.093  -0.099   0.155
    1UNL    C11   11   0.086   0.039   0.084
    1UNL    C12   12   0.145   0.153   0.165
    1UNL     O1   13   0.088   0.209   0.252
    1UNL    C13   14   0.288   0.188   0.136
    1UNL    C14   15   0.392   0.071   0.139
    1UNL    C15   16   0.537   0.109   0.176
    1UNL    C16   17   0.629   0.136   0.049
    1UNL    C17   18   0.535   0.148  -0.074
    1UNL    C18   19   0.463   0.004  -0.087
    1UNL    C19   20   0.575  -0.098  -0.105
    1UNL    C20   21   0.688  -0.086  -0.005
    1UNL     O2   22   0.741  -0.190   0.033
    1UNL     O3   23   0.730   0.033   0.041
    1UNL     O4   24   0.381  -0.029   0.033
    1UNL    C21   25  -0.070   0.041   0.088
    1UNL    C22   26  -0.142   0.093  -0.030
    1UNL    C23   27  -0.188   0.219  -0.022
    1UNL    C24   28  -0.278   0.292  -0.120
    1UNL    C25   29  -0.261   0.425  -0.136
    1UNL    C26   30  -0.320   0.492  -0.244
    1UNL    C27   31  -0.406   0.424  -0.329
    1UNL    C28   32  -0.425   0.279  -0.311
    1UNL    C29   33  -0.361   0.222  -0.202
    1UNL     H1   34  -0.562  -0.481  -0.081
    1UNL     H2   35  -0.403  -0.534  -0.013
    1UNL     H3   36  -0.414  -0.434  -0.157
    1UNL     H4   37  -0.495  -0.339   0.109
    1UNL     H5   38  -0.440  -0.186  -0.152
    1UNL     H6   39  -0.600  -0.226  -0.064
    1UNL     H7   40  -0.495  -0.106   0.005
    1UNL     H8   41  -0.257  -0.391   0.115
    1UNL     H9   42  -0.200  -0.329  -0.125
    1UNL    H10   43   0.007  -0.199  -0.081
    1UNL    H11   44  -0.114  -0.251   0.283
    1UNL    H12   45  -0.135  -0.088   0.327
    1UNL    H13   46  -0.319  -0.083   0.159
    1UNL    H14   47  -0.355  -0.232   0.272
    1UNL    H15   48   0.150  -0.170   0.103
    1UNL    H16   49   0.101  -0.086   0.270
    1UNL    H17   50   0.144   0.018  -0.016
    1UNL    H18   51   0.321   0.274   0.205
    1UNL    H19   52   0.292   0.223   0.032
    1UNL    H20   53   0.359   0.007   0.228
    1UNL    H21   54   0.544   0.191   0.240
    1UNL    H22   55   0.589   0.026   0.241
    1UNL    H23   56   0.690   0.235   0.060
    1UNL    H24   57   0.582   0.180  -0.166
    1UNL    H25   58   0.471   0.234  -0.050
    1UNL    H26   59   0.389   0.002  -0.174
    1UNL    H27   60   0.534  -0.187  -0.067
    1UNL    H28   61   0.609  -0.105  -0.211
    1UNL    H29   62  -0.092   0.106   0.179
    1UNL    H30   63  -0.154   0.038  -0.117
    1UNL    H31   64  -0.162   0.272   0.071
    1UNL    H32   65  -0.190   0.479  -0.071
    1UNL    H33   66  -0.309   0.600  -0.255
    1UNL    H34   67  -0.454   0.479  -0.416
    1UNL    H35   68  -0.485   0.217  -0.372
    1UNL    H36   69  -0.358   0.111  -0.178
   0.00000   0.00000   0.00000   0.00000   0.00000   0.00000   0.00000   0.00000   0.00000
Generated with MDTraj, t= 4.0
 69
    1UNL     C1    1  -0.424  -0.434  -0.089
    1UNL     C2    2  -0.438  -0.340   0.034
    1UNL     C3    3  -0.511  -0.208  -0.018
    1UNL     C4    4  -0.293  -0.305   0.077
    1UNL     C5    5  -0.192  -0.272  -0.026
    1UNL     C6    6  -0.096  -0.182  -0.007
    1UNL     C7    7  -0.068  -0.110   0.121
    1UNL     C8    8  -0.157  -0.158   0.247
    1UNL     C9    9  -0.297  -0.195   0.198
    1UNL    C10   10   0.083  -0.096   0.143
    1UNL    C11   11   0.083   0.047   0.095
    1UNL    C12   12   0.157   0.153   0.179
    1UNL     O1   13   0.095   0.214   0.262
    1UNL    C13   14   0.302   0.186   0.157
    1UNL    C14   15   0.393   0.065   0.142
    1UNL    C15   16   0.542   0.094   0.182
    1UNL    C16   17   0.631   0.133   0.059
    1UNL    C17   18   0.555   0.165  -0.067
    1UNL    C18   19   0.463   0.038  -0.087
    1UNL    C19   20   0.547  -0.093  -0.101
    1UNL    C20   21   0.675  -0.101  -0.010
    1UNL     O2   22   0.719  -0.214   0.013
    1UNL     O3   23   0.728   0.025   0.040
    1UNL     O4   24   0.361   0.018   0.007
    1UNL    C21   25  -0.070   0.048   0.111
    1UNL    C22   26  -0.149   0.103  -0.005
    1UNL    C23   27  -0.146   0.227  -0.052
    1UNL    C24   28  -0.233   0.281  -0.151
    1UNL    C25   29  -0.244   0.421  -0.156
    1UNL    C26   30  -0.352   0.480  -0.233
    1UNL    C27   31  -0.435   0.401  -0.307
    1UNL    C28   32  -0.412   0.258  -0.314
    1UNL    C29   33  -0.308   0.205  -0.238
    1UNL     H1   34  -0.520  -0.483  -0.117
    1UNL     H2   35  -0.348  -0.508  -0.063
    1UNL     H3   36  -0.394  -0.372  -0.175
    1UNL     H4   37  -0.490  -0.382   0.116
    1UNL     H5   38  -0.433  -0.153  -0.075
    1UNL     H6   39  -0.592  -0.241  -0.082
    1UNL     H7   40  -0.563  -0.147   0.060
    1UNL     H8   41  -0.251  -0.387   0.128
    1UNL     H9   42  -0.206  -0.324  -0.120
    1UNL    H10   43  -0.036  -0.164  -0.092
    1UNL    H11   44  -0.105  -0.246   0.288
    1UNL    H12   45  -0.149  -0.085   0.334
    1UNL    H13   46  -0.329  -0.107   0.140
    1UNL    H14   47  -0.351  -0.223   0.292
    1UNL    H15   48   0.134  -0.168   0.082
    1UNL    H16   49   0.111  -0.104   0.250
    1UNL    H17   50   0.139   0.063  -0.008
    1UNL    H18   51   0.344   0.245   0.243
    1UNL    H19   52   0.305   0.248   0.057
    1UNL    H20   53   0.363  -0.023   0.204
    1UNL    H21   54   0.540   0.178   0.248
    1UNL    H22   55   0.604   0.021   0.241
    1UNL    H23   56   0.692   0.225   0.094
    1UNL    H24   57   0.630   0.166  -0.145
    1UNL    H25   58   0.509   0.266  -0.067
    1UNL    H26   59   0.404   0.051  -0.183
    1UNL    H27   60   0.483  -0.174  -0.075
    1UNL    H28   61   0.582  -0.113  -0.202
    1UNL    H29   62  -0.104   0.104   0.203
    1UNL    H30   63  -0.214   0.032  -0.060
    1UNL    H31   64  -0.091   0.297   0.004
    1UNL    H32   65  -0.186   0.484  -0.095
    1UNL    H33   66  -0.358   0.586  -0.225
    1UNL    H34   67  -0.519   0.445  -0.351
    1UNL    H35   68  -0.464   0.184  -0.385
    1UNL    H36   69  -0.284   0.103  -0.245
   0.00000   0.00000   0.00000   0.00000   0.00000   0.00000   0.00000   0.00000   0.00000
Generated with MDTraj, t= 5.0
 69
    1UNL     C1    1  -0.435  -0.450  -0.065
    1UNL     C2    2  -0.425  -0.335   0.031
    1UNL     C3    3  -0.509  -0.205  -0.012
    1UNL     C4    4  -0.273  -0.307   0.071
    1UNL     C5    5  -0.195  -0.236  -0.037
    1UNL     C6    6  -0.098  -0.145  -0.024
    1UNL     C7    7  -0.059  -0.098   0.119
    1UNL     C8    8  -0.140  -0.166   0.233
    1UNL     C9    9  -0.275  -0.219   0.201
    1UNL    C10   10   0.090  -0.085   0.143
    1UNL    C11   11   0.077   0.067   0.107
    1UNL    C12   12   0.147   0.160   0.207
    1UNL     O1   13   0.087   0.221   0.298
    1UNL    C13   14   0.291   0.185   0.181
    1UNL    C14   15   0.370   0.064   0.137
    1UNL    C15   16   0.519   0.081   0.185
    1UNL    C16   17   0.621   0.113   0.071
    1UNL    C17   18   0.555   0.152  -0.061
    1UNL    C18   19   0.458   0.045  -0.101
    1UNL    C19   20   0.533  -0.087  -0.107
    1UNL    C20   21   0.665  -0.102  -0.027
    1UNL     O2   22   0.719  -0.213  -0.021
    1UNL     O3   23   0.709  -0.002   0.051
    1UNL     O4   24   0.351   0.041  -0.007
    1UNL    C21   25  -0.072   0.065   0.125
    1UNL    C22   26  -0.153   0.128   0.016
    1UNL    C23   27  -0.112   0.228  -0.063
    1UNL    C24   28  -0.206   0.281  -0.170
    1UNL    C25   29  -0.253   0.409  -0.157
    1UNL    C26   30  -0.363   0.461  -0.225
    1UNL    C27   31  -0.430   0.373  -0.319
    1UNL    C28   32  -0.388   0.242  -0.329
    1UNL    C29   33  -0.278   0.194  -0.254
    1UNL     H1   34  -0.538  -0.473  -0.090
    1UNL     H2   35  -0.390  -0.537  -0.011
    1UNL     H3   36  -0.379  -0.429  -0.158
    1UNL     H4   37  -0.468  -0.377   0.117
    1UNL     H5   38  -0.445  -0.120  -0.039
    1UNL     H6   39  -0.582  -0.213  -0.095
    1UNL     H7   40  -0.579  -0.162   0.064
    1UNL     H8   41  -0.237  -0.402   0.101
    1UNL     H9   42  -0.223  -0.265  -0.132
    1UNL    H10   43  -0.044  -0.108  -0.109
    1UNL    H11   44  -0.071  -0.254   0.272
    1UNL    H12   45  -0.138  -0.091   0.316
    1UNL    H13   46  -0.322  -0.119   0.179
    1UNL    H14   47  -0.315  -0.283   0.285
    1UNL    H15   48   0.143  -0.154   0.071
    1UNL    H16   49   0.123  -0.094   0.243
    1UNL    H17   50   0.108   0.095  -0.003
    1UNL    H18   51   0.328   0.212   0.284
    1UNL    H19   52   0.300   0.273   0.102
    1UNL    H20   53   0.329  -0.026   0.179
    1UNL    H21   54   0.538   0.146   0.270
    1UNL    H22   55   0.540  -0.015   0.220
    1UNL    H23   56   0.692   0.194   0.107
    1UNL    H24   57   0.635   0.165  -0.134
    1UNL    H25   58   0.496   0.247  -0.060
    1UNL    H26   59   0.409   0.062  -0.198
    1UNL    H27   60   0.473  -0.171  -0.068
    1UNL    H28   61   0.550  -0.114  -0.209
    1UNL    H29   62  -0.103   0.108   0.226
    1UNL    H30   63  -0.247   0.082  -0.008
    1UNL    H31   64  -0.024   0.287  -0.032
    1UNL    H32   65  -0.196   0.470  -0.084
    1UNL    H33   66  -0.398   0.557  -0.190
    1UNL    H34   67  -0.518   0.399  -0.382
    1UNL    H35   68  -0.446   0.185  -0.390
    1UNL    H36   69  -0.242   0.093  -0.271
   0.00000   0.00000   0.00000   0.00000   0.00000   0.00000   0.00000   0.00000   0.00000
Generated with MDTraj, t= 6.0
 69
    1UNL     C1    1  -0.423  -0.452  -0.051
    1UNL     C2    2  -0.425  -0.324   0.035
    1UNL     C3    3  -0.498  -0.203  -0.032
    1UNL     C4    4  -0.274  -0.289   0.075
    1UNL     C5    5  -0.197  -0.232  -0.032
    1UNL     C6    6  -0.103  -0.142  -0.024
    1UNL     C7    7  -0.057  -0.089   0.112
    1UNL     C8    8  -0.116  -0.172   0.236
    1UNL     C9    9  -0.263  -0.213   0.207
    1UNL    C10   10   0.095  -0.071   0.120
    1UNL    C11   11   0.085   0.085   0.114
    1UNL    C12   12   0.150   0.165   0.219
    1UNL     O1   13   0.076   0.198   0.310
    1UNL    C13   14   0.296   0.200   0.207
    1UNL    C14   15   0.372   0.073   0.152
    1UNL    C15   16   0.531   0.066   0.185
    1UNL    C16   17   0.630   0.099   0.076
    1UNL    C17   18   0.558   0.147  -0.045
    1UNL    C18   19   0.457   0.043  -0.082
    1UNL    C19   20   0.510  -0.100  -0.084
    1UNL    C20   21   0.650  -0.107  -0.043
    1UNL     O2   22   0.712  -0.202  -0.087
    1UNL     O3   23   0.710  -0.010   0.031
    1UNL     O4   24   0.342   0.054   0.012
    1UNL    C21   25  -0.072   0.065   0.130
    1UNL    C22   26  -0.165   0.132   0.039
    1UNL    C23   27  -0.144   0.230  -0.049
    1UNL    C24   28  -0.241   0.272  -0.147
    1UNL    C25   29  -0.289   0.405  -0.146
    1UNL    C26   30  -0.362   0.454  -0.251
    1UNL    C27   31  -0.389   0.369  -0.363
    1UNL    C28   32  -0.352   0.237  -0.358
    1UNL    C29   33  -0.281   0.188  -0.253
    1UNL     H1   34  -0.520  -0.485  -0.079
    1UNL     H2   35  -0.384  -0.544   0.004
    1UNL     H3   36  -0.370  -0.453  -0.150
    1UNL     H4   37  -0.475  -0.356   0.121
    1UNL     H5   38  -0.503  -0.219  -0.140
    1UNL     H6   39  -0.603  -0.205   0.007
    1UNL     H7   40  -0.468  -0.096  -0.021
    1UNL     H8   41  -0.244  -0.389   0.096
    1UNL     H9   42  -0.209  -0.285  -0.135
    1UNL    H10   43  -0.033  -0.133  -0.109
    1UNL    H11   44  -0.048  -0.269   0.259
    1UNL    H12   45  -0.114  -0.111   0.329
    1UNL    H13   46  -0.317  -0.121   0.177
    1UNL    H14   47  -0.298  -0.266   0.301
    1UNL    H15   48   0.140  -0.114   0.024
    1UNL    H16   49   0.138  -0.102   0.208
    1UNL    H17   50   0.108   0.121   0.004
    1UNL    H18   51   0.329   0.223   0.313
    1UNL    H19   52   0.300   0.288   0.134
    1UNL    H20   53   0.321  -0.000   0.207
    1UNL    H21   54   0.547   0.120   0.278
    1UNL    H22   55   0.551  -0.031   0.204
    1UNL    H23   56   0.707   0.166   0.114
    1UNL    H24   57   0.621   0.163  -0.134
    1UNL    H25   58   0.506   0.243  -0.022
    1UNL    H26   59   0.415   0.055  -0.179
    1UNL    H27   60   0.448  -0.162  -0.015
    1UNL    H28   61   0.502  -0.147  -0.179
    1UNL    H29   62  -0.086   0.084   0.241
    1UNL    H30   63  -0.258   0.080   0.032
    1UNL    H31   64  -0.063   0.300  -0.046
    1UNL    H32   65  -0.254   0.457  -0.061
    1UNL    H33   66  -0.406   0.551  -0.261
    1UNL    H34   67  -0.454   0.411  -0.435
    1UNL    H35   68  -0.365   0.160  -0.443
    1UNL    H36   69  -0.250   0.084  -0.265
   0.00000   0.00000   0.00000   0.00000   0.00000   0.00000   0.00000   0.00000   0.00000
Generated with MDTraj, t= 7.0
 69
    1UNL     C1    1  -0.439  -0.445  -0.039
    1UNL     C2    2  -0.429  -0.323   0.040
    1UNL     C3    3  -0.488  -0.192  -0.035
    1UNL     C4    4  -0.273  -0.302   0.075
    1UNL     C5    5  -0.181  -0.246  -0.033
    1UNL     C6    6  -0.087  -0.152  -0.018
    1UNL     C7    7  -0.057  -0.095   0.114
    1UNL     C8    8  -0.116  -0.180   0.232
    1UNL     C9    9  -0.267  -0.216   0.206
    1UNL    C10   10   0.094  -0.069   0.126
    1UNL    C11   11   0.077   0.086   0.121
    1UNL    C12   12   0.145   0.154   0.241
    1UNL     O1   13   0.081   0.209   0.325
    1UNL    C13   14   0.302   0.160   0.250
    1UNL    C14   15   0.387   0.061   0.163
    1UNL    C15   16   0.537   0.093   0.184
    1UNL    C16   17   0.626   0.103   0.062
    1UNL    C17   18   0.550   0.147  -0.071
    1UNL    C18   19   0.444   0.040  -0.082
    1UNL    C19   20   0.499  -0.106  -0.084
    1UNL    C20   21   0.648  -0.102  -0.061
    1UNL     O2   22   0.711  -0.185  -0.127
    1UNL     O3   23   0.698  -0.021   0.046
    1UNL     O4   24   0.341   0.056   0.021
    1UNL    C21   25  -0.078   0.067   0.130
    1UNL    C22   26  -0.150   0.127   0.014
    1UNL    C23   27  -0.188   0.252  -0.014
    1UNL    C24   28  -0.252   0.288  -0.143
    1UNL    C25   29  -0.296   0.418  -0.164
    1UNL    C26   30  -0.360   0.451  -0.280
    1UNL    C27   31  -0.382   0.354  -0.377
    1UNL    C28   32  -0.319   0.233  -0.367
    1UNL    C29   33  -0.258   0.200  -0.252
    1UNL     H1   34  -0.535  -0.487  -0.050
    1UNL     H2   35  -0.373  -0.525   0.008
    1UNL     H3   36  -0.400  -0.430  -0.143
    1UNL     H4   37  -0.482  -0.341   0.129
    1UNL     H5   38  -0.415  -0.153  -0.105
    1UNL     H6   39  -0.577  -0.232  -0.089
    1UNL     H7   40  -0.521  -0.114   0.036
    1UNL     H8   41  -0.231  -0.395   0.111
    1UNL     H9   42  -0.186  -0.299  -0.121
    1UNL    H10   43  -0.032  -0.116  -0.101
    1UNL    H11   44  -0.049  -0.274   0.246
    1UNL    H12   45  -0.108  -0.114   0.326
    1UNL    H13   46  -0.310  -0.114   0.196
    1UNL    H14   47  -0.312  -0.279   0.287
    1UNL    H15   48   0.162  -0.121   0.054
    1UNL    H16   49   0.123  -0.100   0.221
    1UNL    H17   50   0.103   0.127   0.012
    1UNL    H18   51   0.326   0.149   0.363
    1UNL    H19   52   0.325   0.258   0.209
    1UNL    H20   53   0.368  -0.042   0.179
    1UNL    H21   54   0.541   0.194   0.228
    1UNL    H22   55   0.571   0.027   0.254
    1UNL    H23   56   0.708   0.165   0.086
    1UNL    H24   57   0.613   0.152  -0.163
    1UNL    H25   58   0.498   0.245  -0.066
    1UNL    H26   59   0.390   0.049  -0.173
    1UNL    H27   60   0.455  -0.159   0.005
    1UNL    H28   61   0.463  -0.159  -0.168
    1UNL    H29   62  -0.112   0.109   0.229
    1UNL    H30   63  -0.172   0.052  -0.065
    1UNL    H31   64  -0.183   0.329   0.062
    1UNL    H32   65  -0.280   0.477  -0.071
    1UNL    H33   66  -0.397   0.555  -0.293
    1UNL    H34   67  -0.436   0.377  -0.473
    1UNL    H35   68  -0.326   0.164  -0.445
    1UNL    H36   69  -0.210   0.106  -0.250
   0.00000   0.00000   0.00000   0.00000   0.00000   0.00000   0.00000   0.00000   0.00000
Generated with MDTraj, t= 8.0
 69
    1UNL     C1    1  -0.436  -0.432  -0.053
    1UNL     C2    2  -0.427  -0.312   0.041
    1UNL     C3    3  -0.477  -0.178  -0.025
    1UNL     C4    4  -0.282  -0.300   0.092
    1UNL     C5    5  -0.176  -0.271  -0.016
    1UNL     C6    6  -0.082  -0.177  -0.005
    1UNL     C7    7  -0.057  -0.104   0.121
    1UNL     C8    8  -0.132  -0.162   0.246
    1UNL     C9    9  -0.273  -0.197   0.206
    1UNL    C10   10   0.096  -0.101   0.146
    1UNL    C11   11   0.106   0.049   0.117
    1UNL    C12   12   0.156   0.131   0.231
    1UNL     O1   13   0.080   0.172   0.312
    1UNL    C13   14   0.301   0.144   0.255
    1UNL    C14   15   0.396   0.071   0.156
    1UNL    C15   16   0.541   0.139   0.167
    1UNL    C16   17   0.630   0.122   0.047
    1UNL    C17   18   0.548   0.156  -0.082
    1UNL    C18   19   0.422   0.067  -0.091
    1UNL    C19   20   0.466  -0.082  -0.073
    1UNL    C20   21   0.610  -0.100  -0.045
    1UNL     O2   22   0.669  -0.195  -0.096
    1UNL     O3   23   0.674  -0.014   0.037
    1UNL     O4   24   0.336   0.100   0.021
    1UNL    C21   25  -0.051   0.049   0.111
    1UNL    C22   26  -0.120   0.098  -0.011
    1UNL    C23   27  -0.175   0.217  -0.026
    1UNL    C24   28  -0.240   0.269  -0.147
    1UNL    C25   29  -0.296   0.398  -0.148
    1UNL    C26   30  -0.356   0.456  -0.260
    1UNL    C27   31  -0.358   0.383  -0.375
    1UNL    C28   32  -0.309   0.253  -0.381
    1UNL    C29   33  -0.251   0.195  -0.270
    1UNL     H1   34  -0.538  -0.447  -0.088
    1UNL     H2   35  -0.401  -0.516   0.013
    1UNL     H3   36  -0.364  -0.420  -0.136
    1UNL     H4   37  -0.484  -0.330   0.126
    1UNL     H5   38  -0.429  -0.160  -0.121
    1UNL     H6   39  -0.587  -0.192  -0.045
    1UNL     H7   40  -0.465  -0.084   0.032
    1UNL     H8   41  -0.249  -0.389   0.147
    1UNL     H9   42  -0.210  -0.304  -0.114
    1UNL    H10   43  -0.020  -0.156  -0.094
    1UNL    H11   44  -0.082  -0.255   0.278
    1UNL    H12   45  -0.126  -0.094   0.342
    1UNL    H13   46  -0.324  -0.110   0.164
    1UNL    H14   47  -0.320  -0.233   0.300
    1UNL    H15   48   0.164  -0.164   0.089
    1UNL    H16   49   0.134  -0.131   0.245
    1UNL    H17   50   0.162   0.074   0.016
    1UNL    H18   51   0.329   0.115   0.363
    1UNL    H19   52   0.311   0.248   0.235
    1UNL    H20   53   0.396  -0.035   0.166
    1UNL    H21   54   0.545   0.241   0.200
    1UNL    H22   55   0.589   0.088   0.249
    1UNL    H23   56   0.725   0.167   0.061
    1UNL    H24   57   0.613   0.141  -0.171
    1UNL    H25   58   0.515   0.261  -0.084
    1UNL    H26   59   0.371   0.083  -0.184
    1UNL    H27   60   0.404  -0.126   0.009
    1UNL    H28   61   0.443  -0.139  -0.159
    1UNL    H29   62  -0.092   0.105   0.199
    1UNL    H30   63  -0.128   0.035  -0.093
    1UNL    H31   64  -0.172   0.287   0.058
    1UNL    H32   65  -0.301   0.455  -0.059
    1UNL    H33   66  -0.395   0.552  -0.243
    1UNL    H34   67  -0.388   0.430  -0.464
    1UNL    H35   68  -0.322   0.213  -0.483
    1UNL    H36   69  -0.217   0.091  -0.289
   0.00000   0.00000   0.00000   0.00000   0.00000   0.00000   0.00000   0.00000   0.00000
Generated with MDTraj, t= 9.0
 69
    1UNL     C1    1  -0.472  -0.427  -0.040
    1UNL     C2    2  -0.444  -0.301   0.036
    1UNL     C3    3  -0.479  -0.177  -0.049
    1UNL     C4    4  -0.302  -0.291   0.097
    1UNL     C5    5  -0.187  -0.301  -0.012
    1UNL     C6    6  -0.081  -0.220  -0.001
    1UNL     C7    7  -0.045  -0.137   0.132
    1UNL     C8    8  -0.135  -0.175   0.248
    1UNL     C9    9  -0.277  -0.177   0.203
    1UNL    C10   10   0.107  -0.132   0.165
    1UNL    C11   11   0.120   0.017   0.127
    1UNL    C12   12   0.164   0.111   0.237
    1UNL     O1   13   0.083   0.142   0.323
    1UNL    C13   14   0.299   0.174   0.237
    1UNL    C14   15   0.397   0.127   0.124
    1UNL    C15   16   0.543   0.181   0.145
    1UNL    C16   17   0.637   0.134   0.035
    1UNL    C17   18   0.571   0.172  -0.103
    1UNL    C18   19   0.438   0.109  -0.112
    1UNL    C19   20   0.447  -0.041  -0.111
    1UNL    C20   21   0.562  -0.095  -0.024
    1UNL     O2   22   0.566  -0.220  -0.021
    1UNL     O3   23   0.657  -0.005   0.043
    1UNL     O4   24   0.353   0.157  -0.006
    1UNL    C21   25  -0.039   0.020   0.106
    1UNL    C22   26  -0.073   0.075  -0.028
    1UNL    C23   27  -0.168   0.170  -0.036
    1UNL    C24   28  -0.215   0.250  -0.155
    1UNL    C25   29  -0.271   0.374  -0.124
    1UNL    C26   30  -0.332   0.446  -0.224
    1UNL    C27   31  -0.337   0.397  -0.346
    1UNL    C28   32  -0.293   0.271  -0.379
    1UNL    C29   33  -0.226   0.195  -0.286
    1UNL     H1   34  -0.579  -0.424  -0.080
    1UNL     H2   35  -0.464  -0.512   0.028
    1UNL     H3   36  -0.400  -0.443  -0.120
    1UNL     H4   37  -0.515  -0.309   0.112
    1UNL     H5   38  -0.421  -0.168  -0.142
    1UNL     H6   39  -0.584  -0.190  -0.085
    1UNL     H7   40  -0.467  -0.077  -0.005
    1UNL     H8   41  -0.295  -0.386   0.153
    1UNL     H9   42  -0.192  -0.378  -0.096
    1UNL    H10   43  -0.010  -0.214  -0.079
    1UNL    H11   44  -0.102  -0.267   0.292
    1UNL    H12   45  -0.122  -0.099   0.339
    1UNL    H13   46  -0.295  -0.083   0.150
    1UNL    H14   47  -0.356  -0.187   0.280
    1UNL    H15   48   0.170  -0.208   0.125
    1UNL    H16   49   0.136  -0.137   0.274
    1UNL    H17   50   0.159   0.044   0.022
    1UNL    H18   51   0.345   0.157   0.340
    1UNL    H19   52   0.290   0.276   0.218
    1UNL    H20   53   0.390   0.020   0.137
    1UNL    H21   54   0.540   0.285   0.147
    1UNL    H22   55   0.584   0.161   0.249
    1UNL    H23   56   0.735   0.179   0.046
    1UNL    H24   57   0.627   0.127  -0.190
    1UNL    H25   58   0.572   0.280  -0.117
    1UNL    H26   59   0.389   0.152  -0.203
    1UNL    H27   60   0.349  -0.080  -0.081
    1UNL    H28   61   0.462  -0.076  -0.211
    1UNL    H29   62  -0.089   0.076   0.191
    1UNL    H30   63  -0.019   0.049  -0.119
    1UNL    H31   64  -0.211   0.210   0.053
    1UNL    H32   65  -0.264   0.406  -0.019
    1UNL    H33   66  -0.380   0.546  -0.203
    1UNL    H34   67  -0.391   0.469  -0.413
    1UNL    H35   68  -0.294   0.238  -0.486
    1UNL    H36   69  -0.195   0.099  -0.315
   0.00000   0.00000   0.00000   0.00000   0.00000   0.00000   0.00000   0.00000   0.00000
Generated with MDTraj, t= 10.0
 69
    1UNL     C1    1  -0.486  -0.404  -0.023
    1UNL     C2    2  -0.443  -0.279   0.032
    1UNL     C3    3  -0.452  -0.175  -0.087
    1UNL     C4    4  -0.296  -0.283   0.101
    1UNL     C5    5  -0.189  -0.288  -0.006
    1UNL     C6    6  -0.072  -0.232   0.006
    1UNL     C7    7  -0.039  -0.150   0.128
    1UNL     C8    8  -0.132  -0.181   0.252
    1UNL     C9    9  -0.275  -0.177   0.202
    1UNL    C10   10   0.114  -0.158   0.162
    1UNL    C11   11   0.130  -0.007   0.117
    1UNL    C12   12   0.172   0.084   0.224
    1UNL     O1   13   0.125   0.071   0.336
    1UNL    C13   14   0.271   0.193   0.200
    1UNL    C14   15   0.382   0.152   0.096
    1UNL    C15   16   0.528   0.202   0.129
    1UNL    C16   17   0.632   0.131   0.036
    1UNL    C17   18   0.599   0.177  -0.111
    1UNL    C18   19   0.450   0.130  -0.146
    1UNL    C19   20   0.453  -0.024  -0.141
    1UNL    C20   21   0.509  -0.070  -0.006
    1UNL     O2   22   0.441  -0.157   0.046
    1UNL     O3   23   0.622  -0.012   0.044
    1UNL     O4   24   0.356   0.185  -0.039
    1UNL    C21   25  -0.022   0.005   0.111
    1UNL    C22   26  -0.076   0.068  -0.018
    1UNL    C23   27  -0.175   0.157  -0.019
    1UNL    C24   28  -0.226   0.229  -0.131
    1UNL    C25   29  -0.276   0.356  -0.108
    1UNL    C26   30  -0.299   0.432  -0.214
    1UNL    C27   31  -0.286   0.390  -0.343
    1UNL    C28   32  -0.243   0.266  -0.365
    1UNL    C29   33  -0.216   0.181  -0.258
    1UNL     H1   34  -0.600  -0.393  -0.043
    1UNL     H2   35  -0.478  -0.489   0.043
    1UNL     H3   36  -0.443  -0.439  -0.116
    1UNL     H4   37  -0.514  -0.249   0.102
    1UNL     H5   38  -0.377  -0.197  -0.165
    1UNL     H6   39  -0.550  -0.189  -0.135
    1UNL     H7   40  -0.429  -0.070  -0.066
    1UNL     H8   41  -0.283  -0.382   0.151
    1UNL     H9   42  -0.196  -0.340  -0.092
    1UNL    H10   43   0.004  -0.232  -0.072
    1UNL    H11   44  -0.103  -0.273   0.300
    1UNL    H12   45  -0.120  -0.108   0.343
    1UNL    H13   46  -0.308  -0.088   0.149
    1UNL    H14   47  -0.344  -0.191   0.287
    1UNL    H15   48   0.168  -0.235   0.118
    1UNL    H16   49   0.138  -0.169   0.273
    1UNL    H17   50   0.180   0.005   0.019
    1UNL    H18   51   0.313   0.223   0.296
    1UNL    H19   52   0.221   0.277   0.158
    1UNL    H20   53   0.390   0.045   0.125
    1UNL    H21   54   0.544   0.304   0.128
    1UNL    H22   55   0.547   0.185   0.240
    1UNL    H23   56   0.738   0.158   0.057
    1UNL    H24   57   0.673   0.131  -0.181
    1UNL    H25   58   0.610   0.284  -0.123
    1UNL    H26   59   0.415   0.178  -0.243
    1UNL    H27   60   0.362  -0.076  -0.164
    1UNL    H28   61   0.524  -0.063  -0.214
    1UNL    H29   62  -0.062   0.060   0.201
    1UNL    H30   63  -0.027   0.049  -0.114
    1UNL    H31   64  -0.211   0.200   0.076
    1UNL    H32   65  -0.291   0.398  -0.010
    1UNL    H33   66  -0.336   0.527  -0.198
    1UNL    H34   67  -0.310   0.454  -0.421
    1UNL    H35   68  -0.239   0.238  -0.462
    1UNL    H36   69  -0.168   0.087  -0.289
   0.00000   0.00000   0.00000   0.00000   0.00000   0.00000   0.00000   0.00000   0.00000
Generated with MDTraj, t= 11.0
 69
    1UNL     C1    1  -0.516  -0.379  -0.030
    1UNL     C2    2  -0.439  -0.261   0.024
    1UNL     C3    3  -0.426  -0.154  -0.090
    1UNL     C4    4  -0.293  -0.298   0.086
    1UNL     C5    5  -0.176  -0.283  -0.016
    1UNL     C6    6  -0.058  -0.223   0.008
    1UNL     C7    7  -0.035  -0.149   0.139
    1UNL     C8    8  -0.113  -0.212   0.251
    1UNL     C9    9  -0.266  -0.221   0.213
    1UNL    C10   10   0.117  -0.148   0.171
    1UNL    C11   11   0.120  -0.002   0.135
    1UNL    C12   12   0.189   0.094   0.228
    1UNL     O1   13   0.211   0.064   0.341
    1UNL    C13   14   0.250   0.218   0.168
    1UNL    C14   15   0.368   0.172   0.085
    1UNL    C15   16   0.513   0.201   0.136
    1UNL    C16   17   0.608   0.119   0.044
    1UNL    C17   18   0.588   0.170  -0.105
    1UNL    C18   19   0.443   0.142  -0.142
    1UNL    C19   20   0.431  -0.009  -0.141
    1UNL    C20   21   0.474  -0.070  -0.010
    1UNL     O2   22   0.414  -0.166   0.035
    1UNL     O3   23   0.586  -0.021   0.054
    1UNL     O4   24   0.351   0.208  -0.056
    1UNL    C21   25  -0.033   0.003   0.130
    1UNL    C22   26  -0.090   0.059   0.003
    1UNL    C23   27  -0.188   0.148   0.002
    1UNL    C24   28  -0.221   0.221  -0.125
    1UNL    C25   29  -0.272   0.353  -0.119
    1UNL    C26   30  -0.293   0.428  -0.228
    1UNL    C27   31  -0.263   0.375  -0.348
    1UNL    C28   32  -0.212   0.254  -0.365
    1UNL    C29   33  -0.186   0.175  -0.255
    1UNL     H1   34  -0.616  -0.345  -0.076
    1UNL     H2   35  -0.534  -0.444   0.055
    1UNL     H3   36  -0.465  -0.442  -0.103
    1UNL     H4   37  -0.490  -0.207   0.097
    1UNL     H5   38  -0.407  -0.206  -0.185
    1UNL     H6   39  -0.526  -0.111  -0.097
    1UNL     H7   40  -0.344  -0.081  -0.086
    1UNL     H8   41  -0.282  -0.409   0.109
    1UNL     H9   42  -0.203  -0.321  -0.121
    1UNL    H10   43   0.028  -0.225  -0.054
    1UNL    H11   44  -0.075  -0.310   0.276
    1UNL    H12   45  -0.102  -0.155   0.345
    1UNL    H13   46  -0.290  -0.118   0.197
    1UNL    H14   47  -0.336  -0.258   0.291
    1UNL    H15   48   0.186  -0.192   0.108
    1UNL    H16   49   0.139  -0.151   0.283
    1UNL    H17   50   0.151   0.009   0.032
    1UNL    H18   51   0.286   0.282   0.241
    1UNL    H19   52   0.177   0.269   0.104
    1UNL    H20   53   0.359   0.064   0.077
    1UNL    H21   54   0.519   0.306   0.128
    1UNL    H22   55   0.540   0.191   0.245
    1UNL    H23   56   0.718   0.134   0.070
    1UNL    H24   57   0.652   0.112  -0.177
    1UNL    H25   58   0.607   0.275  -0.122
    1UNL    H26   59   0.428   0.179  -0.250
    1UNL    H27   60   0.335  -0.043  -0.168
    1UNL    H28   61   0.494  -0.061  -0.217
    1UNL    H29   62  -0.083   0.055   0.216
    1UNL    H30   63  -0.046   0.033  -0.088
    1UNL    H31   64  -0.230   0.181   0.091
    1UNL    H32   65  -0.298   0.393  -0.024
    1UNL    H33   66  -0.335   0.533  -0.217
    1UNL    H34   67  -0.291   0.431  -0.441
    1UNL    H35   68  -0.182   0.226  -0.473
    1UNL    H36   69  -0.142   0.079  -0.268
   0.00000   0.00000   0.00000   0.00000   0.00000   0.00000   0.00000   0.00000   0.00000
Generated with MDTraj, t= 12.0
 69
    1UNL     C1    1  -0.497  -0.355  -0.071
    1UNL     C2    2  -0.426  -0.248   0.019
    1UNL     C3    3  -0.396  -0.112  -0.063
    1UNL     C4    4  -0.293  -0.300   0.088
    1UNL     C5    5  -0.166  -0.298  -0.012
    1UNL     C6    6  -0.056  -0.232   0.017
    1UNL     C7    7  -0.027  -0.165   0.149
    1UNL     C8    8  -0.110  -0.225   0.265
    1UNL     C9    9  -0.266  -0.226   0.219
    1UNL    C10   10   0.126  -0.148   0.200
    1UNL    C11   11   0.119   0.002   0.145
    1UNL    C12   12   0.172   0.110   0.236
    1UNL     O1   13   0.178   0.102   0.355
    1UNL    C13   14   0.233   0.223   0.159
    1UNL    C14   15   0.355   0.173   0.077
    1UNL    C15   16   0.495   0.197   0.131
    1UNL    C16   17   0.585   0.114   0.049
    1UNL    C17   18   0.587   0.159  -0.091
    1UNL    C18   19   0.443   0.153  -0.142
    1UNL    C19   20   0.411   0.005  -0.149
    1UNL    C20   21   0.471  -0.085  -0.038
    1UNL     O2   22   0.449  -0.204  -0.052
    1UNL     O3   23   0.548  -0.029   0.058
    1UNL     O4   24   0.356   0.220  -0.056
    1UNL    C21   25  -0.030  -0.007   0.141
    1UNL    C22   26  -0.094   0.064   0.017
    1UNL    C23   27  -0.180   0.163   0.015
    1UNL    C24   28  -0.205   0.230  -0.116
    1UNL    C25   29  -0.272   0.355  -0.122
    1UNL    C26   30  -0.300   0.414  -0.244
    1UNL    C27   31  -0.263   0.353  -0.357
    1UNL    C28   32  -0.196   0.231  -0.354
    1UNL    C29   33  -0.166   0.171  -0.238
    1UNL     H1   34  -0.580  -0.313  -0.132
    1UNL     H2   35  -0.529  -0.426   0.007
    1UNL     H3   36  -0.418  -0.407  -0.128
    1UNL     H4   37  -0.494  -0.226   0.097
    1UNL     H5   38  -0.309  -0.113  -0.132
    1UNL     H6   39  -0.486  -0.083  -0.113
    1UNL     H7   40  -0.363  -0.030   0.002
    1UNL     H8   41  -0.305  -0.411   0.105
    1UNL     H9   42  -0.173  -0.351  -0.102
    1UNL    H10   43   0.025  -0.234  -0.058
    1UNL    H11   44  -0.082  -0.330   0.278
    1UNL    H12   45  -0.095  -0.184   0.359
    1UNL    H13   46  -0.309  -0.129   0.204
    1UNL    H14   47  -0.316  -0.276   0.303
    1UNL    H15   48   0.188  -0.213   0.146
    1UNL    H16   49   0.133  -0.154   0.311
    1UNL    H17   50   0.158   0.015   0.049
    1UNL    H18   51   0.265   0.300   0.218
    1UNL    H19   52   0.162   0.267   0.089
    1UNL    H20   53   0.337   0.069   0.051
    1UNL    H21   54   0.527   0.302   0.127
    1UNL    H22   55   0.495   0.170   0.237
    1UNL    H23   56   0.696   0.121   0.085
    1UNL    H24   57   0.651   0.090  -0.150
    1UNL    H25   58   0.625   0.260  -0.102
    1UNL    H26   59   0.443   0.195  -0.248
    1UNL    H27   60   0.309  -0.012  -0.165
    1UNL    H28   61   0.451  -0.040  -0.242
    1UNL    H29   62  -0.077   0.037   0.232
    1UNL    H30   63  -0.055   0.036  -0.083
    1UNL    H31   64  -0.230   0.187   0.112
    1UNL    H32   65  -0.305   0.412  -0.032
    1UNL    H33   66  -0.357   0.500  -0.265
    1UNL    H34   67  -0.276   0.407  -0.448
    1UNL    H35   68  -0.164   0.188  -0.443
    1UNL    H36   69  -0.119   0.073  -0.239
   0.00000   0.00000   0.00000   0.00000   0.00000   0.00000   0.00000   0.00000   0.00000
Generated with MDTraj, t= 13.0
 69
    1UNL     C1    1  -0.415  -0.323  -0.123
    1UNL     C2    2  -0.408  -0.238   0.008
    1UNL     C3    3  -0.405  -0.086  -0.036
    1UNL     C4    4  -0.287  -0.283   0.098
    1UNL     C5    5  -0.160  -0.292   0.010
    1UNL     C6    6  -0.048  -0.243   0.055
    1UNL     C7    7  -0.036  -0.158   0.182
    1UNL     C8    8  -0.134  -0.211   0.290
    1UNL     C9    9  -0.276  -0.218   0.233
    1UNL    C10   10   0.117  -0.130   0.229
    1UNL    C11   11   0.101   0.004   0.151
    1UNL    C12   12   0.144   0.122   0.235
    1UNL     O1   13   0.097   0.133   0.348
    1UNL    C13   14   0.235   0.217   0.167
    1UNL    C14   15   0.346   0.155   0.077
    1UNL    C15   16   0.486   0.141   0.148
    1UNL    C16   17   0.593   0.088   0.049
    1UNL    C17   18   0.595   0.173  -0.079
    1UNL    C18   19   0.452   0.169  -0.143
    1UNL    C19   20   0.425   0.022  -0.177
    1UNL    C20   21   0.483  -0.082  -0.089
    1UNL     O2   22   0.456  -0.198  -0.109
    1UNL     O3   23   0.570  -0.056   0.016
    1UNL     O4   24   0.357   0.226  -0.048
    1UNL    C21   25  -0.051  -0.008   0.163
    1UNL    C22   26  -0.116   0.034   0.033
    1UNL    C23   27  -0.123   0.161  -0.006
    1UNL    C24   28  -0.186   0.215  -0.123
    1UNL    C25   29  -0.260   0.334  -0.113
    1UNL    C26   30  -0.307   0.389  -0.231
    1UNL    C27   31  -0.281   0.340  -0.357
    1UNL    C28   32  -0.209   0.226  -0.360
    1UNL    C29   33  -0.164   0.162  -0.249
    1UNL     H1   34  -0.517  -0.331  -0.154
    1UNL     H2   35  -0.369  -0.421  -0.100
    1UNL     H3   36  -0.360  -0.273  -0.207
    1UNL     H4   37  -0.493  -0.263   0.068
    1UNL     H5   38  -0.328  -0.044  -0.102
    1UNL     H6   39  -0.503  -0.059  -0.068
    1UNL     H7   40  -0.386  -0.023   0.054
    1UNL     H8   41  -0.302  -0.396   0.113
    1UNL     H9   42  -0.164  -0.349  -0.080
    1UNL    H10   43   0.037  -0.251  -0.007
    1UNL    H11   44  -0.094  -0.306   0.329
    1UNL    H12   45  -0.137  -0.156   0.375
    1UNL    H13   46  -0.302  -0.115   0.230
    1UNL    H14   47  -0.354  -0.265   0.296
    1UNL    H15   48   0.187  -0.202   0.191
    1UNL    H16   49   0.120  -0.108   0.335
    1UNL    H17   50   0.131   0.012   0.052
    1UNL    H18   51   0.292   0.275   0.237
    1UNL    H19   52   0.176   0.293   0.118
    1UNL    H20   53   0.321   0.053   0.040
    1UNL    H21   54   0.519   0.241   0.194
    1UNL    H22   55   0.474   0.085   0.239
    1UNL    H23   56   0.702   0.085   0.088
    1UNL    H24   57   0.672   0.133  -0.145
    1UNL    H25   58   0.620   0.279  -0.060
    1UNL    H26   59   0.443   0.235  -0.233
    1UNL    H27   60   0.320   0.001  -0.188
    1UNL    H28   61   0.468   0.008  -0.277
    1UNL    H29   62  -0.096   0.047   0.247
    1UNL    H30   63  -0.150  -0.048  -0.024
    1UNL    H31   64  -0.090   0.230   0.066
    1UNL    H32   65  -0.300   0.377  -0.028
    1UNL    H33   66  -0.364   0.483  -0.221
    1UNL    H34   67  -0.300   0.383  -0.454
    1UNL    H35   68  -0.183   0.185  -0.459
    1UNL    H36   69  -0.107   0.069  -0.250
   0.00000   0.00000   0.00000   0.00000   0.00000   0.00000   0.00000   0.00000   0.00000
Generated with MDTraj, t= 14.0
 69
    1UNL     C1    1  -0.402  -0.309  -0.145
    1UNL     C2    2  -0.415  -0.253  -0.005
    1UNL     C3    3  -0.423  -0.104  -0.006
    1UNL     C4    4  -0.298  -0.304   0.092
    1UNL     C5    5  -0.158  -0.310   0.030
    1UNL     C6    6  -0.045  -0.249   0.072
    1UNL     C7    7  -0.057  -0.153   0.195
    1UNL     C8    8  -0.163  -0.214   0.293
    1UNL     C9    9  -0.300  -0.224   0.224
    1UNL    C10   10   0.080  -0.127   0.270
    1UNL    C11   11   0.093   0.006   0.186
    1UNL    C12   12   0.141   0.136   0.241
    1UNL     O1   13   0.088   0.181   0.341
    1UNL    C13   14   0.259   0.215   0.186
    1UNL    C14   15   0.356   0.152   0.084
    1UNL    C15   16   0.494   0.099   0.148
    1UNL    C16   17   0.604   0.070   0.041
    1UNL    C17   18   0.625   0.175  -0.067
    1UNL    C18   19   0.486   0.186  -0.136
    1UNL    C19   20   0.438   0.054  -0.201
    1UNL    C20   21   0.482  -0.068  -0.119
    1UNL     O2   22   0.434  -0.172  -0.160
    1UNL     O3   23   0.575  -0.065  -0.012
    1UNL     O4   24   0.385   0.234  -0.030
    1UNL    C21   25  -0.057  -0.002   0.156
    1UNL    C22   26  -0.097   0.043   0.019
    1UNL    C23   27  -0.115   0.174  -0.005
    1UNL    C24   28  -0.167   0.227  -0.131
    1UNL    C25   29  -0.249   0.339  -0.123
    1UNL    C26   30  -0.320   0.379  -0.234
    1UNL    C27   31  -0.308   0.302  -0.349
    1UNL    C28   32  -0.219   0.199  -0.363
    1UNL    C29   33  -0.152   0.159  -0.249
    1UNL     H1   34  -0.481  -0.267  -0.200
    1UNL     H2   35  -0.422  -0.419  -0.140
    1UNL     H3   36  -0.318  -0.292  -0.218
    1UNL     H4   37  -0.505  -0.290   0.045
    1UNL     H5   38  -0.330  -0.049  -0.000
    1UNL     H6   39  -0.489  -0.079  -0.089
    1UNL     H7   40  -0.478  -0.067   0.082
    1UNL     H8   41  -0.309  -0.413   0.117
    1UNL     H9   42  -0.155  -0.360  -0.071
    1UNL    H10   43   0.054  -0.249   0.023
    1UNL    H11   44  -0.133  -0.306   0.344
    1UNL    H12   45  -0.166  -0.152   0.375
    1UNL    H13   46  -0.340  -0.126   0.207
    1UNL    H14   47  -0.370  -0.267   0.297
    1UNL    H15   48   0.166  -0.193   0.248
    1UNL    H16   49   0.062  -0.116   0.372
    1UNL    H17   50   0.139  -0.021   0.100
    1UNL    H18   51   0.304   0.255   0.282
    1UNL    H19   52   0.224   0.304   0.142
    1UNL    H20   53   0.310   0.062   0.041
    1UNL    H21   54   0.524   0.186   0.221
    1UNL    H22   55   0.487   0.024   0.224
    1UNL    H23   56   0.703   0.055   0.093
    1UNL    H24   57   0.693   0.147  -0.147
    1UNL    H25   58   0.668   0.266  -0.018
    1UNL    H26   59   0.485   0.273  -0.198
    1UNL    H27   60   0.326   0.064  -0.203
    1UNL    H28   61   0.477   0.052  -0.302
    1UNL    H29   62  -0.108   0.057   0.233
    1UNL    H30   63  -0.109  -0.044  -0.043
    1UNL    H31   64  -0.104   0.243   0.078
    1UNL    H32   65  -0.271   0.396  -0.027
    1UNL    H33   66  -0.384   0.465  -0.238
    1UNL    H34   67  -0.364   0.325  -0.442
    1UNL    H35   68  -0.193   0.146  -0.458
    1UNL    H36   69  -0.084   0.077  -0.244
   0.00000   0.00000   0.00000   0.00000   0.00000   0.00000   0.00000   0.00000   0.00000
Generated with MDTraj, t= 15.0
 69
    1UNL     C1    1  -0.389  -0.346  -0.129
    1UNL     C2    2  -0.415  -0.264   0.000
    1UNL     C3    3  -0.432  -0.115  -0.044
    1UNL     C4    4  -0.297  -0.284   0.100
    1UNL     C5    5  -0.159  -0.291   0.029
    1UNL     C6    6  -0.053  -0.226   0.076
    1UNL     C7    7  -0.053  -0.140   0.195
    1UNL     C8    8  -0.162  -0.183   0.298
    1UNL     C9    9  -0.302  -0.195   0.225
    1UNL    C10   10   0.091  -0.128   0.252
    1UNL    C11   11   0.108   0.002   0.170
    1UNL    C12   12   0.171   0.116   0.250
    1UNL     O1   13   0.141   0.135   0.363
    1UNL    C13   14   0.267   0.209   0.177
    1UNL    C14   15   0.372   0.146   0.082
    1UNL    C15   16   0.489   0.083   0.164
    1UNL    C16   17   0.596   0.038   0.059
    1UNL    C17   18   0.632   0.152  -0.033
    1UNL    C18   19   0.507   0.209  -0.111
    1UNL    C19   20   0.444   0.095  -0.200
    1UNL    C20   21   0.459  -0.044  -0.141
    1UNL     O2   22   0.401  -0.133  -0.200
    1UNL     O3   23   0.532  -0.070  -0.021
    1UNL     O4   24   0.416   0.247  -0.007
    1UNL    C21   25  -0.052   0.016   0.168
    1UNL    C22   26  -0.118   0.054   0.042
    1UNL    C23   27  -0.132   0.178   0.002
    1UNL    C24   28  -0.184   0.219  -0.131
    1UNL    C25   29  -0.269   0.330  -0.142
    1UNL    C26   30  -0.326   0.372  -0.263
    1UNL    C27   31  -0.304   0.291  -0.375
    1UNL    C28   32  -0.226   0.173  -0.366
    1UNL    C29   33  -0.172   0.139  -0.242
    1UNL     H1   34  -0.467  -0.319  -0.194
    1UNL     H2   35  -0.395  -0.456  -0.109
    1UNL     H3   36  -0.303  -0.332  -0.197
    1UNL     H4   37  -0.506  -0.302   0.052
    1UNL     H5   38  -0.356  -0.083  -0.115
    1UNL     H6   39  -0.533  -0.108  -0.086
    1UNL     H7   40  -0.422  -0.045   0.038
    1UNL     H8   41  -0.303  -0.389   0.138
    1UNL     H9   42  -0.137  -0.360  -0.042
    1UNL    H10   43   0.045  -0.236   0.035
    1UNL    H11   44  -0.135  -0.272   0.350
    1UNL    H12   45  -0.162  -0.119   0.382
    1UNL    H13   46  -0.339  -0.096   0.197
    1UNL    H14   47  -0.380  -0.235   0.291
    1UNL    H15   48   0.162  -0.212   0.228
    1UNL    H16   49   0.104  -0.116   0.355
    1UNL    H17   50   0.155  -0.014   0.076
    1UNL    H18   51   0.322   0.282   0.248
    1UNL    H19   52   0.210   0.278   0.121
    1UNL    H20   53   0.323   0.062   0.026
    1UNL    H21   54   0.531   0.148   0.252
    1UNL    H22   55   0.442   0.012   0.230
    1UNL    H23   56   0.682  -0.009   0.109
    1UNL    H24   57   0.708   0.119  -0.102
    1UNL    H25   58   0.678   0.237   0.025
    1UNL    H26   59   0.528   0.300  -0.163
    1UNL    H27   60   0.332   0.114  -0.214
    1UNL    H28   61   0.491   0.101  -0.296
    1UNL    H29   62  -0.086   0.069   0.257
    1UNL    H30   63  -0.161  -0.035  -0.008
    1UNL    H31   64  -0.074   0.247   0.064
    1UNL    H32   65  -0.285   0.396  -0.065
    1UNL    H33   66  -0.387   0.460  -0.281
    1UNL    H34   67  -0.345   0.320  -0.466
    1UNL    H35   68  -0.189   0.114  -0.444
    1UNL    H36   69  -0.108   0.050  -0.231
   0.00000   0.00000   0.00000   0.00000   0.00000   0.00000   0.00000   0.00000   0.00000
Generated with MDTraj, t= 16.0
 69
    1UNL     C1    1  -0.458  -0.397  -0.062
    1UNL     C2    2  -0.420  -0.263   0.010
    1UNL     C3    3  -0.403  -0.142  -0.095
    1UNL     C4    4  -0.291  -0.278   0.100
    1UNL     C5    5  -0.166  -0.267   0.013
    1UNL     C6    6  -0.057  -0.206   0.055
    1UNL     C7    7  -0.042  -0.136   0.190
    1UNL     C8    8  -0.160  -0.161   0.282
    1UNL     C9    9  -0.296  -0.181   0.214
    1UNL    C10   10   0.100  -0.130   0.250
    1UNL    C11   11   0.128   0.005   0.174
    1UNL    C12   12   0.204   0.114   0.255
    1UNL     O1   13   0.224   0.103   0.372
    1UNL    C13   14   0.261   0.225   0.177
    1UNL    C14   15   0.368   0.165   0.080
    1UNL    C15   16   0.453   0.059   0.161
    1UNL    C16   17   0.557   0.008   0.066
    1UNL    C17   18   0.633   0.122   0.008
    1UNL    C18   19   0.540   0.214  -0.071
    1UNL    C19   20   0.464   0.133  -0.183
    1UNL    C20   21   0.432  -0.015  -0.146
    1UNL     O2   22   0.354  -0.081  -0.215
    1UNL     O3   23   0.485  -0.072  -0.030
    1UNL     O4   24   0.447   0.266   0.020
    1UNL    C21   25  -0.023   0.019   0.153
    1UNL    C22   26  -0.076   0.070   0.025
    1UNL    C23   27  -0.160   0.169   0.003
    1UNL    C24   28  -0.205   0.205  -0.133
    1UNL    C25   29  -0.269   0.327  -0.154
    1UNL    C26   30  -0.322   0.360  -0.278
    1UNL    C27   31  -0.302   0.275  -0.389
    1UNL    C28   32  -0.234   0.154  -0.370
    1UNL    C29   33  -0.183   0.120  -0.243
    1UNL     H1   34  -0.559  -0.393  -0.101
    1UNL     H2   35  -0.443  -0.474   0.014
    1UNL     H3   36  -0.392  -0.415  -0.146
    1UNL     H4   37  -0.506  -0.256   0.083
    1UNL     H5   38  -0.305  -0.131  -0.137
    1UNL     H6   39  -0.480  -0.132  -0.173
    1UNL     H7   40  -0.410  -0.052  -0.038
    1UNL     H8   41  -0.287  -0.379   0.140
    1UNL     H9   42  -0.171  -0.316  -0.090
    1UNL    H10   43   0.020  -0.208  -0.019
    1UNL    H11   44  -0.127  -0.246   0.332
    1UNL    H12   45  -0.172  -0.090   0.363
    1UNL    H13   46  -0.332  -0.084   0.173
    1UNL    H14   47  -0.368  -0.223   0.285
    1UNL    H15   48   0.161  -0.222   0.229
    1UNL    H16   49   0.095  -0.123   0.356
    1UNL    H17   50   0.176  -0.012   0.075
    1UNL    H18   51   0.316   0.300   0.247
    1UNL    H19   52   0.195   0.289   0.125
    1UNL    H20   53   0.304   0.121  -0.001
    1UNL    H21   54   0.489   0.116   0.254
    1UNL    H22   55   0.404  -0.027   0.210
    1UNL    H23   56   0.622  -0.067   0.109
    1UNL    H24   57   0.713   0.086  -0.056
    1UNL    H25   58   0.684   0.188   0.085
    1UNL    H26   59   0.598   0.288  -0.122
    1UNL    H27   60   0.367   0.192  -0.200
    1UNL    H28   61   0.510   0.130  -0.280
    1UNL    H29   62  -0.073   0.065   0.239
    1UNL    H30   63  -0.035   0.010  -0.050
    1UNL    H31   64  -0.178   0.233   0.085
    1UNL    H32   65  -0.289   0.394  -0.066
    1UNL    H33   66  -0.363   0.461  -0.284
    1UNL    H34   67  -0.333   0.291  -0.498
    1UNL    H35   68  -0.215   0.087  -0.460
    1UNL    H36   69  -0.127   0.035  -0.219
   0.00000   0.00000   0.00000   0.00000   0.00000   0.00000   0.00000   0.00000   0.00000
Generated with MDTraj, t= 17.0
 69
    1UNL     C1    1  -0.483  -0.410  -0.006
    1UNL     C2    2  -0.430  -0.264   0.013
    1UNL     C3    3  -0.396  -0.189  -0.111
    1UNL     C4    4  -0.303  -0.265   0.106
    1UNL     C5    5  -0.175  -0.277   0.018
    1UNL     C6    6  -0.067  -0.204   0.049
    1UNL     C7    7  -0.047  -0.117   0.173
    1UNL     C8    8  -0.162  -0.131   0.267
    1UNL     C9    9  -0.298  -0.146   0.195
    1UNL    C10   10   0.098  -0.135   0.235
    1UNL    C11   11   0.139   0.005   0.175
    1UNL    C12   12   0.206   0.098   0.268
    1UNL     O1   13   0.198   0.091   0.388
    1UNL    C13   14   0.296   0.213   0.218
    1UNL    C14   15   0.391   0.163   0.102
    1UNL    C15   16   0.474   0.046   0.160
    1UNL    C16   17   0.558  -0.012   0.051
    1UNL    C17   18   0.658   0.102   0.007
    1UNL    C18   19   0.568   0.209  -0.059
    1UNL    C19   20   0.490   0.150  -0.177
    1UNL    C20   21   0.409   0.026  -0.149
    1UNL     O2   22   0.308   0.009  -0.217
    1UNL     O3   23   0.458  -0.054  -0.051
    1UNL     O4   24   0.478   0.263   0.040
    1UNL    C21   25  -0.012   0.036   0.148
    1UNL    C22   26  -0.053   0.089   0.019
    1UNL    C23   27  -0.176   0.120  -0.013
    1UNL    C24   28  -0.220   0.174  -0.143
    1UNL    C25   29  -0.269   0.305  -0.155
    1UNL    C26   30  -0.312   0.354  -0.280
    1UNL    C27   31  -0.307   0.273  -0.396
    1UNL    C28   32  -0.237   0.144  -0.384
    1UNL    C29   33  -0.195   0.103  -0.260
    1UNL     H1   34  -0.573  -0.421  -0.070
    1UNL     H2   35  -0.495  -0.446   0.094
    1UNL     H3   36  -0.408  -0.471  -0.052
    1UNL     H4   37  -0.510  -0.214   0.079
    1UNL     H5   38  -0.336  -0.243  -0.181
    1UNL     H6   39  -0.490  -0.157  -0.157
    1UNL     H7   40  -0.338  -0.102  -0.089
    1UNL     H8   41  -0.309  -0.347   0.174
    1UNL     H9   42  -0.183  -0.336  -0.070
    1UNL    H10   43   0.013  -0.217  -0.026
    1UNL    H11   44  -0.158  -0.210   0.331
    1UNL    H12   45  -0.158  -0.048   0.339
    1UNL    H13   46  -0.302  -0.061   0.121
    1UNL    H14   47  -0.379  -0.147   0.267
    1UNL    H15   48   0.159  -0.216   0.191
    1UNL    H16   49   0.095  -0.131   0.345
    1UNL    H17   50   0.189  -0.010   0.072
    1UNL    H18   51   0.372   0.242   0.295
    1UNL    H19   52   0.251   0.310   0.192
    1UNL    H20   53   0.319   0.128   0.021
    1UNL    H21   54   0.542   0.070   0.244
    1UNL    H22   55   0.404  -0.028   0.212
    1UNL    H23   56   0.618  -0.094   0.078
    1UNL    H24   57   0.740   0.080  -0.062
    1UNL    H25   58   0.714   0.150   0.092
    1UNL    H26   59   0.630   0.287  -0.107
    1UNL    H27   60   0.413   0.228  -0.209
    1UNL    H28   61   0.550   0.129  -0.264
    1UNL    H29   62  -0.038   0.086   0.241
    1UNL    H30   63   0.035   0.100  -0.048
    1UNL    H31   64  -0.252   0.124   0.068
    1UNL    H32   65  -0.284   0.364  -0.067
    1UNL    H33   66  -0.365   0.447  -0.283
    1UNL    H34   67  -0.332   0.308  -0.489
    1UNL    H35   68  -0.234   0.075  -0.460
    1UNL    H36   69  -0.148   0.004  -0.246
   0.00000   0.00000   0.00000   0.00000   0.00000   0.00000   0.00000   0.00000   0.00000
Generated with MDTraj, t= 18.0
 69
    1UNL     C1    1  -0.463  -0.414   0.021
    1UNL     C2    2  -0.434  -0.269   0.031
    1UNL     C3    3  -0.429  -0.202  -0.104
    1UNL     C4    4  -0.299  -0.250   0.110
    1UNL     C5    5  -0.177  -0.262   0.023
    1UNL     C6    6  -0.058  -0.211   0.060
    1UNL     C7    7  -0.047  -0.117   0.177
    1UNL     C8    8  -0.169  -0.119   0.280
    1UNL     C9    9  -0.309  -0.130   0.201
    1UNL    C10   10   0.090  -0.129   0.250
    1UNL    C11   11   0.142  -0.004   0.180
    1UNL    C12   12   0.204   0.102   0.271
    1UNL     O1   13   0.145   0.125   0.374
    1UNL    C13   14   0.332   0.172   0.244
    1UNL    C14   15   0.426   0.135   0.132
    1UNL    C15   16   0.495  -0.002   0.133
    1UNL    C16   17   0.564  -0.029   0.003
    1UNL    C17   18   0.663   0.090  -0.025
    1UNL    C18   19   0.576   0.219  -0.034
    1UNL    C19   20   0.458   0.207  -0.135
    1UNL    C20   21   0.398   0.065  -0.146
    1UNL     O2   22   0.283   0.054  -0.190
    1UNL     O3   23   0.471  -0.048  -0.106
    1UNL     O4   24   0.519   0.240   0.100
    1UNL    C21   25  -0.003   0.037   0.136
    1UNL    C22   26  -0.049   0.076  -0.003
    1UNL    C23   27  -0.167   0.126  -0.032
    1UNL    C24   28  -0.219   0.173  -0.166
    1UNL    C25   29  -0.287   0.294  -0.176
    1UNL    C26   30  -0.330   0.342  -0.302
    1UNL    C27   31  -0.300   0.262  -0.414
    1UNL    C28   32  -0.236   0.137  -0.402
    1UNL    C29   33  -0.192   0.099  -0.278
    1UNL     H1   34  -0.546  -0.426  -0.053
    1UNL     H2   35  -0.484  -0.471   0.108
    1UNL     H3   36  -0.389  -0.470  -0.033
    1UNL     H4   37  -0.514  -0.217   0.098
    1UNL     H5   38  -0.361  -0.251  -0.172
    1UNL     H6   39  -0.531  -0.209  -0.137
    1UNL     H7   40  -0.400  -0.099  -0.097
    1UNL     H8   41  -0.291  -0.327   0.184
    1UNL     H9   42  -0.181  -0.325  -0.064
    1UNL    H10   43   0.028  -0.220   0.004
    1UNL    H11   44  -0.146  -0.195   0.345
    1UNL    H12   45  -0.177  -0.035   0.349
    1UNL    H13   46  -0.327  -0.033   0.146
    1UNL    H14   47  -0.384  -0.154   0.276
    1UNL    H15   48   0.152  -0.215   0.229
    1UNL    H16   49   0.079  -0.138   0.364
    1UNL    H17   50   0.206  -0.032   0.084
    1UNL    H18   51   0.389   0.162   0.335
    1UNL    H19   52   0.310   0.283   0.237
    1UNL    H20   53   0.357   0.127   0.040
    1UNL    H21   54   0.553  -0.014   0.223
    1UNL    H22   55   0.419  -0.091   0.149
    1UNL    H23   56   0.624  -0.115   0.008
    1UNL    H24   57   0.727   0.076  -0.113
    1UNL    H25   58   0.734   0.111   0.057
    1UNL    H26   59   0.635   0.316  -0.047
    1UNL    H27   60   0.374   0.276  -0.112
    1UNL    H28   61   0.496   0.226  -0.238
    1UNL    H29   62  -0.035   0.115   0.204
    1UNL    H30   63   0.028   0.066  -0.076
    1UNL    H31   64  -0.235   0.128   0.046
    1UNL    H32   65  -0.303   0.340  -0.082
    1UNL    H33   66  -0.393   0.430  -0.310
    1UNL    H34   67  -0.350   0.297  -0.509
    1UNL    H35   68  -0.212   0.064  -0.486
    1UNL    H36   69  -0.155   0.003  -0.252
   0.00000   0.00000   0.00000   0.00000   0.00000   0.00000   0.00000   0.00000   0.00000
Generated with MDTraj, t= 19.0
 69
    1UNL     C1    1  -0.450  -0.429   0.005
    1UNL     C2    2  -0.437  -0.283   0.052
    1UNL     C3    3  -0.459  -0.186  -0.064
    1UNL     C4    4  -0.296  -0.267   0.133
    1UNL     C5    5  -0.182  -0.277   0.032
    1UNL     C6    6  -0.072  -0.202   0.050
    1UNL     C7    7  -0.051  -0.097   0.166
    1UNL     C8    8  -0.161  -0.100   0.275
    1UNL     C9    9  -0.304  -0.134   0.222
    1UNL    C10   10   0.088  -0.117   0.230
    1UNL    C11   11   0.137   0.017   0.172
    1UNL    C12   12   0.202   0.110   0.275
    1UNL     O1   13   0.139   0.184   0.344
    1UNL    C13   14   0.350   0.093   0.283
    1UNL    C14   15   0.417   0.087   0.149
    1UNL    C15   16   0.500  -0.044   0.113
    1UNL    C16   17   0.549  -0.027  -0.031
    1UNL    C17   18   0.643   0.094  -0.034
    1UNL    C18   19   0.558   0.211  -0.006
    1UNL    C19   20   0.455   0.230  -0.117
    1UNL    C20   21   0.379   0.102  -0.147
    1UNL     O2   22   0.264   0.114  -0.188
    1UNL     O3   23   0.441  -0.019  -0.130
    1UNL     O4   24   0.501   0.203   0.129
    1UNL    C21   25  -0.007   0.046   0.128
    1UNL    C22   26  -0.014   0.095  -0.012
    1UNL    C23   27  -0.127   0.150  -0.046
    1UNL    C24   28  -0.179   0.185  -0.173
    1UNL    C25   29  -0.279   0.279  -0.188
    1UNL    C26   30  -0.341   0.303  -0.307
    1UNL    C27   31  -0.298   0.220  -0.421
    1UNL    C28   32  -0.207   0.118  -0.405
    1UNL    C29   33  -0.149   0.099  -0.276
    1UNL     H1   34  -0.554  -0.438  -0.034
    1UNL     H2   35  -0.437  -0.504   0.076
    1UNL     H3   36  -0.396  -0.456  -0.084
    1UNL     H4   37  -0.522  -0.262   0.130
    1UNL     H5   38  -0.373  -0.181  -0.128
    1UNL     H6   39  -0.543  -0.216  -0.120
    1UNL     H7   40  -0.478  -0.084  -0.032
    1UNL     H8   41  -0.294  -0.346   0.203
    1UNL     H9   42  -0.186  -0.347  -0.055
    1UNL    H10   43   0.018  -0.210  -0.018
    1UNL    H11   44  -0.141  -0.174   0.349
    1UNL    H12   45  -0.156  -0.007   0.330
    1UNL    H13   46  -0.340  -0.049   0.157
    1UNL    H14   47  -0.365  -0.153   0.310
    1UNL    H15   48   0.143  -0.207   0.203
    1UNL    H16   49   0.091  -0.130   0.346
    1UNL    H17   50   0.212  -0.006   0.085
    1UNL    H18   51   0.365   0.011   0.347
    1UNL    H19   52   0.392   0.184   0.340
    1UNL    H20   53   0.338   0.098   0.067
    1UNL    H21   54   0.575  -0.060   0.189
    1UNL    H22   55   0.433  -0.139   0.138
    1UNL    H23   56   0.604  -0.120  -0.051
    1UNL    H24   57   0.694   0.110  -0.131
    1UNL    H25   58   0.716   0.085   0.047
    1UNL    H26   59   0.630   0.301   0.009
    1UNL    H27   60   0.383   0.308  -0.092
    1UNL    H28   61   0.513   0.255  -0.215
    1UNL    H29   62  -0.044   0.122   0.196
    1UNL    H30   63   0.062   0.073  -0.088
    1UNL    H31   64  -0.199   0.164   0.037
    1UNL    H32   65  -0.302   0.352  -0.106
    1UNL    H33   66  -0.412   0.386  -0.309
    1UNL    H34   67  -0.342   0.229  -0.519
    1UNL    H35   68  -0.188   0.050  -0.482
    1UNL    H36   69  -0.067   0.028  -0.267
   0.00000   0.00000   0.00000   0.00000   0.00000   0.00000   0.00000   0.00000   0.00000
Generated with MDTraj, t= 20.0
 69
    1UNL     C1    1  -0.424  -0.428  -0.019
    1UNL     C2    2  -0.444  -0.293   0.068
    1UNL     C3    3  -0.498  -0.179  -0.018
    1UNL     C4    4  -0.305  -0.260   0.136
    1UNL     C5    5  -0.190  -0.249   0.035
    1UNL     C6    6  -0.077  -0.184   0.061
    1UNL     C7    7  -0.059  -0.098   0.187
    1UNL     C8    8  -0.176  -0.105   0.289
    1UNL     C9    9  -0.304  -0.130   0.218
    1UNL    C10   10   0.080  -0.122   0.252
    1UNL    C11   11   0.139  -0.001   0.176
    1UNL    C12   12   0.213   0.089   0.263
    1UNL     O1   13   0.167   0.185   0.320
    1UNL    C13   14   0.366   0.066   0.288
    1UNL    C14   15   0.449   0.073   0.157
    1UNL    C15   16   0.511  -0.052   0.090
    1UNL    C16   17   0.529  -0.022  -0.058
    1UNL    C17   18   0.626   0.096  -0.076
    1UNL    C18   19   0.569   0.211   0.008
    1UNL    C19   20   0.433   0.244  -0.069
    1UNL    C20   21   0.359   0.135  -0.131
    1UNL     O2   22   0.254   0.163  -0.188
    1UNL     O3   23   0.405   0.007  -0.127
    1UNL     O4   24   0.546   0.178   0.145
    1UNL    C21   25  -0.014   0.049   0.142
    1UNL    C22   26  -0.036   0.092   0.001
    1UNL    C23   27  -0.145   0.159  -0.041
    1UNL    C24   28  -0.178   0.180  -0.184
    1UNL    C25   29  -0.290   0.256  -0.213
    1UNL    C26   30  -0.338   0.263  -0.345
    1UNL    C27   31  -0.273   0.197  -0.450
    1UNL    C28   32  -0.162   0.117  -0.417
    1UNL    C29   33  -0.116   0.108  -0.283
    1UNL     H1   34  -0.519  -0.453  -0.067
    1UNL     H2   35  -0.392  -0.505   0.048
    1UNL     H3   36  -0.355  -0.411  -0.100
    1UNL     H4   37  -0.528  -0.316   0.147
    1UNL     H5   38  -0.435  -0.176  -0.106
    1UNL     H6   39  -0.599  -0.175  -0.046
    1UNL     H7   40  -0.478  -0.084   0.029
    1UNL     H8   41  -0.295  -0.342   0.202
    1UNL     H9   42  -0.196  -0.295  -0.057
    1UNL    H10   43  -0.003  -0.193  -0.011
    1UNL    H11   44  -0.152  -0.191   0.358
    1UNL    H12   45  -0.187  -0.021   0.353
    1UNL    H13   46  -0.310  -0.052   0.136
    1UNL    H14   47  -0.391  -0.133   0.284
    1UNL    H15   48   0.124  -0.222   0.238
    1UNL    H16   49   0.077  -0.099   0.365
    1UNL    H17   50   0.183  -0.032   0.073
    1UNL    H18   51   0.376  -0.024   0.341
    1UNL    H19   52   0.405   0.143   0.363
    1UNL    H20   53   0.364   0.099   0.083
    1UNL    H21   54   0.603  -0.075   0.143
    1UNL    H22   55   0.445  -0.140   0.128
    1UNL    H23   56   0.557  -0.120  -0.109
    1UNL    H24   57   0.626   0.127  -0.182
    1UNL    H25   58   0.724   0.065  -0.043
    1UNL    H26   59   0.641   0.301   0.010
    1UNL    H27   60   0.363   0.295  -0.003
    1UNL    H28   61   0.454   0.313  -0.161
    1UNL    H29   62  -0.047   0.126   0.210
    1UNL    H30   63   0.039   0.064  -0.074
    1UNL    H31   64  -0.224   0.181   0.024
    1UNL    H32   65  -0.331   0.309  -0.134
    1UNL    H33   66  -0.414   0.336  -0.369
    1UNL    H34   67  -0.314   0.204  -0.549
    1UNL    H35   68  -0.102   0.061  -0.492
    1UNL    H36   69  -0.025   0.055  -0.260
   0.00000   0.00000   0.00000   0.00000   0.00000   0.00000   0.00000   0.00000   0.00000
Generated with MDTraj, t= 21.0
 69
    1UNL     C1    1  -0.443  -0.425  -0.005
    1UNL     C2    2  -0.443  -0.293   0.074
    1UNL     C3    3  -0.503  -0.173  -0.008
    1UNL     C4    4  -0.311  -0.252   0.134
    1UNL     C5    5  -0.198  -0.231   0.029
    1UNL     C6    6  -0.089  -0.158   0.053
    1UNL     C7    7  -0.064  -0.092   0.181
    1UNL     C8    8  -0.192  -0.086   0.277
    1UNL     C9    9  -0.325  -0.120   0.213
    1UNL    C10   10   0.068  -0.123   0.256
    1UNL    C11   11   0.141   0.001   0.189
    1UNL    C12   12   0.234   0.076   0.281
    1UNL     O1   13   0.184   0.169   0.338
    1UNL    C13   14   0.377   0.039   0.281
    1UNL    C14   15   0.432   0.079   0.140
    1UNL    C15   16   0.459  -0.046   0.056
    1UNL    C16   17   0.503  -0.011  -0.080
    1UNL    C17   18   0.613   0.090  -0.076
    1UNL    C18   19   0.563   0.208  -0.001
    1UNL    C19   20   0.447   0.267  -0.088
    1UNL    C20   21   0.351   0.159  -0.134
    1UNL     O2   22   0.237   0.200  -0.156
    1UNL     O3   23   0.394   0.028  -0.164
    1UNL     O4   24   0.531   0.180   0.138
    1UNL    C21   25   0.000   0.055   0.163
    1UNL    C22   26  -0.030   0.109   0.027
    1UNL    C23   27  -0.150   0.099  -0.032
    1UNL    C24   28  -0.170   0.125  -0.178
    1UNL    C25   29  -0.290   0.185  -0.215
    1UNL    C26   30  -0.309   0.229  -0.347
    1UNL    C27   31  -0.220   0.202  -0.444
    1UNL    C28   32  -0.095   0.141  -0.408
    1UNL    C29   33  -0.074   0.099  -0.277
    1UNL     H1   34  -0.541  -0.447  -0.038
    1UNL     H2   35  -0.401  -0.505   0.057
    1UNL     H3   36  -0.383  -0.404  -0.094
    1UNL     H4   37  -0.517  -0.304   0.164
    1UNL     H5   38  -0.423  -0.119  -0.056
    1UNL     H6   39  -0.582  -0.190  -0.076
    1UNL     H7   40  -0.540  -0.103   0.066
    1UNL     H8   41  -0.283  -0.324   0.207
    1UNL     H9   42  -0.209  -0.291  -0.065
    1UNL    H10   43  -0.013  -0.151  -0.026
    1UNL    H11   44  -0.172  -0.153   0.370
    1UNL    H12   45  -0.200   0.010   0.323
    1UNL    H13   46  -0.352  -0.047   0.133
    1UNL    H14   47  -0.408  -0.127   0.284
    1UNL    H15   48   0.117  -0.219   0.228
    1UNL    H16   49   0.055  -0.112   0.368
    1UNL    H17   50   0.185  -0.036   0.093
    1UNL    H18   51   0.396  -0.065   0.304
    1UNL    H19   52   0.427   0.095   0.363
    1UNL    H20   53   0.338   0.124   0.095
    1UNL    H21   54   0.544  -0.090   0.115
    1UNL    H22   55   0.382  -0.124   0.063
    1UNL    H23   56   0.535  -0.102  -0.146
    1UNL    H24   57   0.653   0.120  -0.175
    1UNL    H25   58   0.690   0.047  -0.013
    1UNL    H26   59   0.648   0.281  -0.004
    1UNL    H27   60   0.393   0.348  -0.037
    1UNL    H28   61   0.490   0.312  -0.185
    1UNL    H29   62  -0.029   0.126   0.238
    1UNL    H30   63   0.048   0.157  -0.026
    1UNL    H31   64  -0.234   0.051   0.013
    1UNL    H32   65  -0.365   0.212  -0.135
    1UNL    H33   66  -0.401   0.282  -0.366
    1UNL    H34   67  -0.242   0.232  -0.548
    1UNL    H35   68  -0.016   0.123  -0.479
    1UNL    H36   69   0.009   0.036  -0.255
   0.00000   0.00000   0.00000   0.00000   0.00000   0.00000   0.00000   0.00000   0.00000
Generated with MDTraj, t= 22.0
 69
    1UNL     C1    1  -0.462  -0.423   0.019
    1UNL     C2    2  -0.467  -0.277   0.072
    1UNL     C3    3  -0.497  -0.183  -0.042
    1UNL     C4    4  -0.336  -0.243   0.150
    1UNL     C5    5  -0.220  -0.238   0.056
    1UNL     C6    6  -0.099  -0.181   0.083
    1UNL     C7    7  -0.072  -0.092   0.208
    1UNL     C8    8  -0.193  -0.093   0.309
    1UNL     C9    9  -0.332  -0.116   0.238
    1UNL    C10   10   0.063  -0.128   0.267
    1UNL    C11   11   0.134  -0.014   0.198
    1UNL    C12   12   0.224   0.058   0.301
    1UNL     O1   13   0.169   0.095   0.401
    1UNL    C13   14   0.375   0.076   0.277
    1UNL    C14   15   0.415   0.089   0.120
    1UNL    C15   16   0.441  -0.039   0.034
    1UNL    C16   17   0.485  -0.009  -0.114
    1UNL    C17   18   0.607   0.086  -0.108
    1UNL    C18   19   0.567   0.212  -0.027
    1UNL    C19   20   0.450   0.278  -0.102
    1UNL    C20   21   0.346   0.179  -0.143
    1UNL     O2   22   0.235   0.224  -0.138
    1UNL     O3   23   0.373   0.056  -0.192
    1UNL     O4   24   0.529   0.179   0.109
    1UNL    C21   25  -0.007   0.046   0.173
    1UNL    C22   26  -0.019   0.094   0.030
    1UNL    C23   27  -0.131   0.105  -0.039
    1UNL    C24   28  -0.141   0.136  -0.183
    1UNL    C25   29  -0.265   0.147  -0.241
    1UNL    C26   30  -0.284   0.169  -0.376
    1UNL    C27   31  -0.172   0.183  -0.454
    1UNL    C28   32  -0.043   0.187  -0.399
    1UNL    C29   33  -0.030   0.165  -0.265
    1UNL     H1   34  -0.550  -0.467  -0.016
    1UNL     H2   35  -0.416  -0.493   0.091
    1UNL     H3   36  -0.400  -0.435  -0.071
    1UNL     H4   37  -0.556  -0.247   0.141
    1UNL     H5   38  -0.431  -0.197  -0.123
    1UNL     H6   39  -0.596  -0.205  -0.077
    1UNL     H7   40  -0.491  -0.079  -0.018
    1UNL     H8   41  -0.319  -0.324   0.220
    1UNL     H9   42  -0.240  -0.292  -0.033
    1UNL    H10   43  -0.014  -0.191   0.016
    1UNL    H11   44  -0.180  -0.164   0.400
    1UNL    H12   45  -0.185   0.002   0.359
    1UNL    H13   46  -0.352  -0.030   0.171
    1UNL    H14   47  -0.419  -0.121   0.304
    1UNL    H15   48   0.095  -0.231   0.227
    1UNL    H16   49   0.072  -0.119   0.377
    1UNL    H17   50   0.185  -0.052   0.114
    1UNL    H18   51   0.435   0.001   0.334
    1UNL    H19   52   0.417   0.168   0.321
    1UNL    H20   53   0.329   0.148   0.075
    1UNL    H21   54   0.507  -0.114   0.088
    1UNL    H22   55   0.350  -0.084   0.038
    1UNL    H23   56   0.519  -0.102  -0.173
    1UNL    H24   57   0.635   0.124  -0.208
    1UNL    H25   58   0.694   0.040  -0.063
    1UNL    H26   59   0.648   0.285  -0.024
    1UNL    H27   60   0.407   0.362  -0.042
    1UNL    H28   61   0.483   0.323  -0.200
    1UNL    H29   62  -0.025   0.135   0.230
    1UNL    H30   63   0.078   0.126  -0.018
    1UNL    H31   64  -0.224   0.075   0.012
    1UNL    H32   65  -0.352   0.141  -0.182
    1UNL    H33   66  -0.389   0.177  -0.412
    1UNL    H34   67  -0.176   0.209  -0.557
    1UNL    H35   68   0.033   0.198  -0.475
    1UNL    H36   69   0.070   0.163  -0.224
   0.00000   0.00000   0.00000   0.00000   0.00000   0.00000   0.00000   0.00000   0.00000
Generated with MDTraj, t= 23.0
 69
    1UNL     C1    1  -0.520  -0.407   0.061
    1UNL     C2    2  -0.476  -0.263   0.086
    1UNL     C3    3  -0.480  -0.185  -0.045
    1UNL     C4    4  -0.332  -0.242   0.160
    1UNL     C5    5  -0.211  -0.265   0.077
    1UNL     C6    6  -0.097  -0.203   0.095
    1UNL     C7    7  -0.069  -0.103   0.199
    1UNL     C8    8  -0.194  -0.069   0.292
    1UNL     C9    9  -0.329  -0.096   0.219
    1UNL    C10   10   0.061  -0.142   0.275
    1UNL    C11   11   0.144  -0.040   0.198
    1UNL    C12   12   0.221   0.032   0.304
    1UNL     O1   13   0.183   0.037   0.417
    1UNL    C13   14   0.354   0.083   0.268
    1UNL    C14   15   0.398   0.085   0.117
    1UNL    C15   16   0.434  -0.040   0.039
    1UNL    C16   17   0.452   0.002  -0.108
    1UNL    C17   18   0.581   0.084  -0.116
    1UNL    C18   19   0.559   0.215  -0.043
    1UNL    C19   20   0.461   0.295  -0.126
    1UNL    C20   21   0.334   0.215  -0.155
    1UNL     O2   22   0.231   0.279  -0.168
    1UNL     O3   23   0.341   0.073  -0.161
    1UNL     O4   24   0.508   0.186   0.096
    1UNL    C21   25   0.006   0.031   0.159
    1UNL    C22   26  -0.004   0.066   0.012
    1UNL    C23   27  -0.114   0.114  -0.041
    1UNL    C24   28  -0.130   0.146  -0.180
    1UNL    C25   29  -0.231   0.087  -0.256
    1UNL    C26   30  -0.225   0.098  -0.392
    1UNL    C27   31  -0.137   0.187  -0.446
    1UNL    C28   32  -0.034   0.237  -0.376
    1UNL    C29   33  -0.032   0.223  -0.241
    1UNL     H1   34  -0.601  -0.420  -0.004
    1UNL     H2   35  -0.537  -0.471   0.150
    1UNL     H3   36  -0.444  -0.462   0.006
    1UNL     H4   37  -0.557  -0.202   0.140
    1UNL     H5   38  -0.401  -0.211  -0.113
    1UNL     H6   39  -0.575  -0.186  -0.098
    1UNL     H7   40  -0.458  -0.082  -0.030
    1UNL     H8   41  -0.327  -0.320   0.237
    1UNL     H9   42  -0.207  -0.326  -0.013
    1UNL    H10   43  -0.020  -0.217   0.026
    1UNL    H11   44  -0.180  -0.131   0.388
    1UNL    H12   45  -0.188   0.036   0.333
    1UNL    H13   46  -0.340  -0.025   0.136
    1UNL    H14   47  -0.413  -0.073   0.286
    1UNL    H15   48   0.091  -0.251   0.248
    1UNL    H16   49   0.045  -0.117   0.379
    1UNL    H17   50   0.194  -0.077   0.113
    1UNL    H18   51   0.433   0.034   0.333
    1UNL    H19   52   0.361   0.180   0.315
    1UNL    H20   53   0.320   0.137   0.055
    1UNL    H21   54   0.532  -0.065   0.091
    1UNL    H22   55   0.377  -0.131   0.046
    1UNL    H23   56   0.469  -0.093  -0.169
    1UNL    H24   57   0.608   0.102  -0.221
    1UNL    H25   58   0.668   0.039  -0.067
    1UNL    H26   59   0.650   0.267  -0.028
    1UNL    H27   60   0.433   0.395  -0.079
    1UNL    H28   61   0.508   0.319  -0.221
    1UNL    H29   62  -0.011   0.125   0.210
    1UNL    H30   63   0.075   0.045  -0.052
    1UNL    H31   64  -0.196   0.127   0.021
    1UNL    H32   65  -0.302   0.026  -0.200
    1UNL    H33   66  -0.298   0.065  -0.456
    1UNL    H34   67  -0.144   0.203  -0.555
    1UNL    H35   68   0.059   0.283  -0.418
    1UNL    H36   69   0.047   0.267  -0.181
   0.00000   0.00000   0.00000   0.00000   0.00000   0.00000   0.00000   0.00000   0.00000
Generated with MDTraj, t= 24.0
 69
    1UNL     C1    1  -0.538  -0.390   0.091
    1UNL     C2    2  -0.486  -0.238   0.097
    1UNL     C3    3  -0.496  -0.184  -0.044
    1UNL     C4    4  -0.342  -0.217   0.156
    1UNL     C5    5  -0.228  -0.249   0.065
    1UNL     C6    6  -0.105  -0.214   0.095
    1UNL     C7    7  -0.072  -0.116   0.211
    1UNL     C8    8  -0.197  -0.077   0.299
    1UNL     C9    9  -0.325  -0.075   0.219
    1UNL    C10   10   0.050  -0.169   0.298
    1UNL    C11   11   0.147  -0.073   0.214
    1UNL    C12   12   0.236   0.013   0.308
    1UNL     O1   13   0.182   0.052   0.409
    1UNL    C13   14   0.373   0.064   0.267
    1UNL    C14   15   0.400   0.102   0.118
    1UNL    C15   16   0.403  -0.022   0.026
    1UNL    C16   17   0.439   0.018  -0.118
    1UNL    C17   18   0.571   0.096  -0.120
    1UNL    C18   19   0.551   0.221  -0.031
    1UNL    C19   20   0.436   0.306  -0.087
    1UNL    C20   21   0.323   0.237  -0.168
    1UNL     O2   22   0.234   0.305  -0.215
    1UNL     O3   23   0.332   0.100  -0.176
    1UNL     O4   24   0.523   0.173   0.104
    1UNL    C21   25   0.019   0.001   0.171
    1UNL    C22   26   0.022   0.047   0.023
    1UNL    C23   27  -0.091   0.072  -0.044
    1UNL    C24   28  -0.099   0.118  -0.187
    1UNL    C25   29  -0.162   0.032  -0.279
    1UNL    C26   30  -0.181   0.070  -0.406
    1UNL    C27   31  -0.135   0.193  -0.456
    1UNL    C28   32  -0.069   0.276  -0.373
    1UNL    C29   33  -0.048   0.239  -0.240
    1UNL     H1   34  -0.621  -0.389   0.025
    1UNL     H2   35  -0.563  -0.426   0.192
    1UNL     H3   36  -0.465  -0.454   0.042
    1UNL     H4   37  -0.563  -0.179   0.156
    1UNL     H5   38  -0.415  -0.219  -0.105
    1UNL     H6   39  -0.591  -0.188  -0.098
    1UNL     H7   40  -0.470  -0.081  -0.040
    1UNL     H8   41  -0.337  -0.302   0.226
    1UNL     H9   42  -0.247  -0.308  -0.026
    1UNL    H10   43  -0.016  -0.246   0.030
    1UNL    H11   44  -0.212  -0.161   0.373
    1UNL    H12   45  -0.176   0.015   0.369
    1UNL    H13   46  -0.314   0.004   0.147
    1UNL    H14   47  -0.413  -0.045   0.279
    1UNL    H15   48   0.076  -0.281   0.282
    1UNL    H16   49   0.044  -0.132   0.399
    1UNL    H17   50   0.194  -0.140   0.137
    1UNL    H18   51   0.431  -0.033   0.285
    1UNL    H19   52   0.420   0.127   0.337
    1UNL    H20   53   0.322   0.170   0.076
    1UNL    H21   54   0.482  -0.092   0.060
    1UNL    H22   55   0.306  -0.090   0.027
    1UNL    H23   56   0.454  -0.076  -0.174
    1UNL    H24   57   0.590   0.127  -0.223
    1UNL    H25   58   0.661   0.039  -0.095
    1UNL    H26   59   0.644   0.271  -0.018
    1UNL    H27   60   0.389   0.367  -0.001
    1UNL    H28   61   0.478   0.380  -0.153
    1UNL    H29   62  -0.005   0.087   0.232
    1UNL    H30   63   0.114   0.060  -0.037
    1UNL    H31   64  -0.188   0.057   0.004
    1UNL    H32   65  -0.207  -0.062  -0.248
    1UNL    H33   66  -0.226   0.004  -0.489
    1UNL    H34   67  -0.141   0.214  -0.560
    1UNL    H35   68  -0.022   0.361  -0.412
    1UNL    H36   69   0.020   0.305  -0.191
   0.00000   0.00000   0.00000   0.00000   0.00000   0.00000   0.00000   0.00000   0.00000
Generated with MDTraj, t= 25.0
 69
    1UNL     C1    1  -0.536  -0.380   0.080
    1UNL     C2    2  -0.495  -0.225   0.110
    1UNL     C3    3  -0.486  -0.155  -0.028
    1UNL     C4    4  -0.361  -0.209   0.182
    1UNL     C5    5  -0.245  -0.246   0.091
    1UNL     C6    6  -0.121  -0.210   0.107
    1UNL     C7    7  -0.078  -0.116   0.218
    1UNL     C8    8  -0.197  -0.052   0.296
    1UNL     C9    9  -0.329  -0.061   0.224
    1UNL    C10   10   0.032  -0.162   0.312
    1UNL    C11   11   0.137  -0.085   0.223
    1UNL    C12   12   0.244   0.001   0.296
    1UNL     O1   13   0.223   0.076   0.389
    1UNL    C13   14   0.384  -0.007   0.246
    1UNL    C14   15   0.395   0.069   0.111
    1UNL    C15   16   0.405  -0.028  -0.009
    1UNL    C16   17   0.448   0.045  -0.144
    1UNL    C17   18   0.567   0.135  -0.117
    1UNL    C18   19   0.522   0.242  -0.013
    1UNL    C19   20   0.393   0.316  -0.047
    1UNL    C20   21   0.315   0.257  -0.159
    1UNL     O2   22   0.243   0.328  -0.225
    1UNL     O3   23   0.326   0.121  -0.189
    1UNL     O4   24   0.498   0.168   0.112
    1UNL    C21   25   0.020  -0.004   0.164
    1UNL    C22   26   0.028   0.032   0.014
    1UNL    C23   27  -0.079   0.023  -0.066
    1UNL    C24   28  -0.077   0.081  -0.203
    1UNL    C25   29  -0.117  -0.003  -0.309
    1UNL    C26   30  -0.140   0.054  -0.430
    1UNL    C27   31  -0.108   0.186  -0.448
    1UNL    C28   32  -0.076   0.266  -0.347
    1UNL    C29   33  -0.056   0.220  -0.220
    1UNL     H1   34  -0.645  -0.378   0.062
    1UNL     H2   35  -0.503  -0.437   0.166
    1UNL     H3   36  -0.494  -0.413  -0.014
    1UNL     H4   37  -0.574  -0.175   0.174
    1UNL     H5   38  -0.421  -0.213  -0.089
    1UNL     H6   39  -0.581  -0.131  -0.078
    1UNL     H7   40  -0.434  -0.063  -0.015
    1UNL     H8   41  -0.354  -0.281   0.267
    1UNL     H9   42  -0.274  -0.313   0.016
    1UNL    H10   43  -0.049  -0.252   0.048
    1UNL    H11   44  -0.205  -0.095   0.400
    1UNL    H12   45  -0.169   0.062   0.316
    1UNL    H13   46  -0.318   0.000   0.137
    1UNL    H14   47  -0.405  -0.006   0.284
    1UNL    H15   48   0.032  -0.274   0.298
    1UNL    H16   49   0.027  -0.130   0.416
    1UNL    H17   50   0.183  -0.146   0.144
    1UNL    H18   51   0.426  -0.113   0.244
    1UNL    H19   52   0.443   0.034   0.322
    1UNL    H20   53   0.297   0.116   0.094
    1UNL    H21   54   0.478  -0.111   0.020
    1UNL    H22   55   0.320  -0.080  -0.030
    1UNL    H23   56   0.468  -0.020  -0.225
    1UNL    H24   57   0.609   0.179  -0.207
    1UNL    H25   58   0.654   0.076  -0.083
    1UNL    H26   59   0.604   0.311  -0.004
    1UNL    H27   60   0.325   0.313   0.045
    1UNL    H28   61   0.409   0.421  -0.069
    1UNL    H29   62   0.002   0.087   0.218
    1UNL    H30   63   0.113   0.079  -0.029
    1UNL    H31   64  -0.174  -0.018  -0.036
    1UNL    H32   65  -0.141  -0.105  -0.286
    1UNL    H33   66  -0.174  -0.007  -0.506
    1UNL    H34   67  -0.119   0.229  -0.550
    1UNL    H35   68  -0.071   0.376  -0.377
    1UNL    H36   69  -0.010   0.277  -0.139
   0.00000   0.00000   0.00000   0.00000   0.00000   0.00000   0.00000   0.00000   0.00000
Generated with MDTraj, t= 26.0
 69
    1UNL     C1    1  -0.545  -0.348   0.080
    1UNL     C2    2  -0.504  -0.204   0.111
    1UNL     C3    3  -0.483  -0.125  -0.018
    1UNL     C4    4  -0.376  -0.195   0.194
    1UNL     C5    5  -0.259  -0.260   0.126
    1UNL     C6    6  -0.134  -0.230   0.140
    1UNL     C7    7  -0.082  -0.124   0.226
    1UNL     C8    8  -0.197  -0.045   0.307
    1UNL     C9    9  -0.330  -0.049   0.225
    1UNL    C10   10   0.042  -0.149   0.314
    1UNL    C11   11   0.132  -0.088   0.217
    1UNL    C12   12   0.245  -0.009   0.274
    1UNL     O1   13   0.226   0.051   0.377
    1UNL    C13   14   0.385  -0.024   0.208
    1UNL    C14   15   0.407   0.055   0.078
    1UNL    C15   16   0.442  -0.028  -0.043
    1UNL    C16   17   0.451   0.075  -0.158
    1UNL    C17   18   0.554   0.178  -0.128
    1UNL    C18   19   0.509   0.258  -0.004
    1UNL    C19   20   0.372   0.332  -0.017
    1UNL    C20   21   0.298   0.267  -0.135
    1UNL     O2   22   0.215   0.342  -0.179
    1UNL     O3   23   0.316   0.130  -0.179
    1UNL     O4   24   0.498   0.168   0.104
    1UNL    C21   25   0.013  -0.008   0.161
    1UNL    C22   26   0.010   0.012   0.013
    1UNL    C23   27  -0.090  -0.008  -0.073
    1UNL    C24   28  -0.086   0.057  -0.205
    1UNL    C25   29  -0.105  -0.017  -0.321
    1UNL    C26   30  -0.091   0.040  -0.446
    1UNL    C27   31  -0.062   0.169  -0.460
    1UNL    C28   32  -0.037   0.244  -0.346
    1UNL    C29   33  -0.049   0.191  -0.223
    1UNL     H1   34  -0.643  -0.350   0.022
    1UNL     H2   35  -0.546  -0.402   0.172
    1UNL     H3   36  -0.480  -0.400   0.011
    1UNL     H4   37  -0.583  -0.151   0.170
    1UNL     H5   38  -0.391  -0.159  -0.064
    1UNL     H6   39  -0.570  -0.139  -0.082
    1UNL     H7   40  -0.478  -0.020   0.004
    1UNL     H8   41  -0.392  -0.250   0.292
    1UNL     H9   42  -0.291  -0.348   0.068
    1UNL    H10   43  -0.064  -0.291   0.077
    1UNL    H11   44  -0.205  -0.082   0.414
    1UNL    H12   45  -0.157   0.065   0.322
    1UNL    H13   46  -0.308   0.008   0.137
    1UNL    H14   47  -0.411   0.009   0.275
    1UNL    H15   48   0.063  -0.253   0.341
    1UNL    H16   49   0.036  -0.095   0.410
    1UNL    H17   50   0.176  -0.158   0.144
    1UNL    H18   51   0.406  -0.135   0.198
    1UNL    H19   52   0.464   0.007   0.270
    1UNL    H20   53   0.311   0.103   0.062
    1UNL    H21   54   0.542  -0.075  -0.024
    1UNL    H22   55   0.377  -0.104  -0.064
    1UNL    H23   56   0.470   0.035  -0.254
    1UNL    H24   57   0.577   0.238  -0.215
    1UNL    H25   58   0.649   0.127  -0.106
    1UNL    H26   59   0.589   0.331   0.018
    1UNL    H27   60   0.321   0.319   0.080
    1UNL    H28   61   0.374   0.440  -0.040
    1UNL    H29   62  -0.003   0.077   0.225
    1UNL    H30   63   0.090   0.067  -0.033
    1UNL    H31   64  -0.182  -0.055  -0.056
    1UNL    H32   65  -0.121  -0.125  -0.321
    1UNL    H33   66  -0.131  -0.014  -0.533
    1UNL    H34   67  -0.076   0.210  -0.555
    1UNL    H35   68  -0.011   0.342  -0.356
    1UNL    H36   69  -0.037   0.258  -0.141
   0.00000   0.00000   0.00000   0.00000   0.00000   0.00000   0.00000   0.00000   0.00000
Generated with MDTraj, t= 27.0
 69
    1UNL     C1    1  -0.585  -0.294   0.106
    1UNL     C2    2  -0.512  -0.165   0.108
    1UNL     C3    3  -0.488  -0.113  -0.031
    1UNL     C4    4  -0.374  -0.185   0.183
    1UNL     C5    5  -0.262  -0.247   0.104
    1UNL     C6    6  -0.136  -0.236   0.140
    1UNL     C7    7  -0.075  -0.127   0.237
    1UNL     C8    8  -0.190  -0.065   0.322
    1UNL     C9    9  -0.332  -0.053   0.256
    1UNL    C10   10   0.055  -0.169   0.314
    1UNL    C11   11   0.141  -0.115   0.204
    1UNL    C12   12   0.255  -0.025   0.256
    1UNL     O1   13   0.226   0.050   0.345
    1UNL    C13   14   0.392  -0.026   0.191
    1UNL    C14   15   0.397   0.069   0.074
    1UNL    C15   16   0.418  -0.001  -0.057
    1UNL    C16   17   0.436   0.106  -0.172
    1UNL    C17   18   0.548   0.200  -0.127
    1UNL    C18   19   0.509   0.270   0.007
    1UNL    C19   20   0.372   0.338  -0.011
    1UNL    C20   21   0.273   0.281  -0.108
    1UNL     O2   22   0.161   0.321  -0.102
    1UNL     O3   23   0.309   0.179  -0.188
    1UNL     O4   24   0.496   0.168   0.108
    1UNL    C21   25   0.022  -0.028   0.156
    1UNL    C22   26   0.017   0.002   0.011
    1UNL    C23   27  -0.085  -0.004  -0.071
    1UNL    C24   28  -0.074   0.045  -0.212
    1UNL    C25   29  -0.103  -0.038  -0.317
    1UNL    C26   30  -0.081   0.004  -0.444
    1UNL    C27   31  -0.026   0.123  -0.469
    1UNL    C28   32   0.013   0.210  -0.370
    1UNL    C29   33  -0.016   0.169  -0.241
    1UNL     H1   34  -0.668  -0.310   0.029
    1UNL     H2   35  -0.616  -0.328   0.202
    1UNL     H3   36  -0.525  -0.378   0.070
    1UNL     H4   37  -0.567  -0.095   0.172
    1UNL     H5   38  -0.427  -0.182  -0.089
    1UNL     H6   39  -0.585  -0.106  -0.076
    1UNL     H7   40  -0.452  -0.009  -0.040
    1UNL     H8   41  -0.398  -0.259   0.268
    1UNL     H9   42  -0.296  -0.296   0.017
    1UNL    H10   43  -0.063  -0.293   0.082
    1UNL    H11   44  -0.190  -0.117   0.425
    1UNL    H12   45  -0.145   0.038   0.347
    1UNL    H13   46  -0.337   0.031   0.190
    1UNL    H14   47  -0.405  -0.027   0.335
    1UNL    H15   48   0.070  -0.272   0.336
    1UNL    H16   49   0.075  -0.111   0.407
    1UNL    H17   50   0.168  -0.195   0.133
    1UNL    H18   51   0.421  -0.121   0.141
    1UNL    H19   52   0.464  -0.012   0.271
    1UNL    H20   53   0.303   0.122   0.068
    1UNL    H21   54   0.495  -0.070  -0.060
    1UNL    H22   55   0.325  -0.057  -0.069
    1UNL    H23   56   0.456   0.060  -0.266
    1UNL    H24   57   0.563   0.277  -0.200
    1UNL    H25   58   0.639   0.140  -0.120
    1UNL    H26   59   0.591   0.341   0.044
    1UNL    H27   60   0.314   0.333   0.079
    1UNL    H28   61   0.390   0.447  -0.025
    1UNL    H29   62   0.021   0.055   0.225
    1UNL    H30   63   0.103   0.042  -0.045
    1UNL    H31   64  -0.178  -0.049  -0.030
    1UNL    H32   65  -0.136  -0.137  -0.293
    1UNL    H33   66  -0.102  -0.064  -0.528
    1UNL    H34   67  -0.013   0.160  -0.574
    1UNL    H35   68   0.069   0.305  -0.396
    1UNL    H36   69   0.013   0.231  -0.158
   0.00000   0.00000   0.00000   0.00000   0.00000   0.00000   0.00000   0.00000   0.00000
Generated with MDTraj, t= 28.0
 69
    1UNL     C1    1  -0.606  -0.253   0.123
    1UNL     C2    2  -0.511  -0.132   0.117
    1UNL     C3    3  -0.474  -0.081  -0.024
    1UNL     C4    4  -0.372  -0.169   0.192
    1UNL     C5    5  -0.277  -0.253   0.113
    1UNL     C6    6  -0.148  -0.249   0.122
    1UNL     C7    7  -0.071  -0.141   0.203
    1UNL     C8    8  -0.170  -0.078   0.305
    1UNL     C9    9  -0.301  -0.041   0.248
    1UNL    C10   10   0.055  -0.200   0.275
    1UNL    C11   11   0.147  -0.114   0.179
    1UNL    C12   12   0.251  -0.040   0.253
    1UNL     O1   13   0.239   0.013   0.358
    1UNL    C13   14   0.385  -0.018   0.191
    1UNL    C14   15   0.387   0.086   0.083
    1UNL    C15   16   0.395   0.029  -0.064
    1UNL    C16   17   0.407   0.143  -0.165
    1UNL    C17   18   0.533   0.219  -0.138
    1UNL    C18   19   0.512   0.272  -0.004
    1UNL    C19   20   0.389   0.366   0.012
    1UNL    C20   21   0.265   0.309  -0.056
    1UNL     O2   22   0.156   0.340  -0.015
    1UNL     O3   23   0.281   0.212  -0.160
    1UNL     O4   24   0.506   0.169   0.101
    1UNL    C21   25   0.021  -0.025   0.144
    1UNL    C22   26   0.017   0.015   0.003
    1UNL    C23   27  -0.081  -0.000  -0.084
    1UNL    C24   28  -0.063   0.029  -0.221
    1UNL    C25   29  -0.117  -0.065  -0.311
    1UNL    C26   30  -0.099  -0.046  -0.444
    1UNL    C27   31  -0.016   0.054  -0.489
    1UNL    C28   32   0.042   0.143  -0.403
    1UNL    C29   33   0.019   0.132  -0.265
    1UNL     H1   34  -0.712  -0.234   0.086
    1UNL     H2   35  -0.606  -0.302   0.219
    1UNL     H3   36  -0.580  -0.325   0.046
    1UNL     H4   37  -0.564  -0.064   0.183
    1UNL     H5   38  -0.416  -0.158  -0.075
    1UNL     H6   39  -0.556  -0.056  -0.087
    1UNL     H7   40  -0.413   0.012  -0.026
    1UNL     H8   41  -0.409  -0.226   0.285
    1UNL     H9   42  -0.319  -0.322   0.039
    1UNL    H10   43  -0.089  -0.309   0.063
    1UNL    H11   44  -0.190  -0.171   0.375
    1UNL    H12   45  -0.119  -0.002   0.370
    1UNL    H13   46  -0.285   0.030   0.169
    1UNL    H14   47  -0.365   0.003   0.327
    1UNL    H15   48   0.057  -0.304   0.256
    1UNL    H16   49   0.064  -0.186   0.386
    1UNL    H17   50   0.188  -0.154   0.084
    1UNL    H18   51   0.426  -0.114   0.169
    1UNL    H19   52   0.453   0.026   0.266
    1UNL    H20   53   0.308   0.158   0.098
    1UNL    H21   54   0.479  -0.024  -0.060
    1UNL    H22   55   0.316  -0.041  -0.105
    1UNL    H23   56   0.419   0.103  -0.267
    1UNL    H24   57   0.539   0.304  -0.204
    1UNL    H25   58   0.620   0.153  -0.139
    1UNL    H26   59   0.605   0.325   0.038
    1UNL    H27   60   0.370   0.381   0.113
    1UNL    H28   61   0.407   0.470  -0.028
    1UNL    H29   62   0.016   0.062   0.212
    1UNL    H30   63   0.105   0.051  -0.042
    1UNL    H31   64  -0.177  -0.033  -0.053
    1UNL    H32   65  -0.177  -0.151  -0.279
    1UNL    H33   66  -0.130  -0.126  -0.501
    1UNL    H34   67   0.019   0.053  -0.588
    1UNL    H35   68   0.105   0.217  -0.444
    1UNL    H36   69   0.075   0.197  -0.198
   0.00000   0.00000   0.00000   0.00000   0.00000   0.00000   0.00000   0.00000   0.00000
Generated with MDTraj, t= 29.0
 69
    1UNL     C1    1  -0.586  -0.232   0.114
    1UNL     C2    2  -0.495  -0.111   0.129
    1UNL     C3    3  -0.463  -0.031  -0.001
    1UNL     C4    4  -0.361  -0.150   0.186
    1UNL     C5    5  -0.279  -0.212   0.078
    1UNL     C6    6  -0.147  -0.217   0.090
    1UNL     C7    7  -0.068  -0.134   0.193
    1UNL     C8    8  -0.157  -0.083   0.309
    1UNL     C9    9  -0.294  -0.031   0.269
    1UNL    C10   10   0.059  -0.214   0.251
    1UNL    C11   11   0.154  -0.114   0.173
    1UNL    C12   12   0.271  -0.056   0.259
    1UNL     O1   13   0.256  -0.048   0.379
    1UNL    C13   14   0.397  -0.012   0.196
    1UNL    C14   15   0.398   0.095   0.095
    1UNL    C15   16   0.378   0.040  -0.044
    1UNL    C16   17   0.362   0.150  -0.151
    1UNL    C17   18   0.492   0.239  -0.141
    1UNL    C18   19   0.504   0.288   0.011
    1UNL    C19   20   0.382   0.378   0.035
    1UNL    C20   21   0.250   0.327  -0.022
    1UNL     O2   22   0.153   0.375   0.029
    1UNL     O3   23   0.243   0.231  -0.119
    1UNL     O4   24   0.515   0.173   0.100
    1UNL    C21   25   0.029  -0.024   0.139
    1UNL    C22   26   0.028   0.011  -0.009
    1UNL    C23   27  -0.067  -0.027  -0.097
    1UNL    C24   28  -0.056  -0.005  -0.244
    1UNL    C25   29  -0.144  -0.077  -0.329
    1UNL    C26   30  -0.125  -0.076  -0.467
    1UNL    C27   31  -0.024   0.005  -0.522
    1UNL    C28   32   0.058   0.076  -0.435
    1UNL    C29   33   0.045   0.073  -0.298
    1UNL     H1   34  -0.678  -0.200   0.058
    1UNL     H2   35  -0.600  -0.270   0.215
    1UNL     H3   36  -0.543  -0.307   0.047
    1UNL     H4   37  -0.549  -0.057   0.204
    1UNL     H5   38  -0.444  -0.103  -0.081
    1UNL     H6   39  -0.544   0.031  -0.030
    1UNL     H7   40  -0.373   0.035   0.008
    1UNL     H8   41  -0.380  -0.233   0.265
    1UNL     H9   42  -0.332  -0.268   0.003
    1UNL    H10   43  -0.080  -0.280   0.020
    1UNL    H11   44  -0.166  -0.175   0.381
    1UNL    H12   45  -0.106  -0.006   0.372
    1UNL    H13   46  -0.282   0.056   0.206
    1UNL    H14   47  -0.350  -0.006   0.361
    1UNL    H15   48   0.068  -0.315   0.222
    1UNL    H16   49   0.056  -0.201   0.361
    1UNL    H17   50   0.192  -0.155   0.078
    1UNL    H18   51   0.446  -0.094   0.155
    1UNL    H19   52   0.456   0.019   0.285
    1UNL    H20   53   0.314   0.161   0.116
    1UNL    H21   54   0.460  -0.027  -0.080
    1UNL    H22   55   0.288  -0.025  -0.036
    1UNL    H23   56   0.352   0.099  -0.252
    1UNL    H24   57   0.478   0.320  -0.210
    1UNL    H25   58   0.579   0.179  -0.165
    1UNL    H26   59   0.602   0.344   0.022
    1UNL    H27   60   0.358   0.395   0.136
    1UNL    H28   61   0.407   0.479  -0.008
    1UNL    H29   62   0.029   0.074   0.188
    1UNL    H30   63   0.108   0.080  -0.046
    1UNL    H31   64  -0.157  -0.068  -0.061
    1UNL    H32   65  -0.217  -0.142  -0.286
    1UNL    H33   66  -0.200  -0.119  -0.541
    1UNL    H34   67  -0.018  -0.004  -0.631
    1UNL    H35   68   0.137   0.137  -0.480
    1UNL    H36   69   0.097   0.142  -0.235
   0.00000   0.00000   0.00000   0.00000   0.00000   0.00000   0.00000   0.00000   0.00000
Generated with MDTraj, t= 30.0
 69
    1UNL     C1    1  -0.571  -0.196   0.084
    1UNL     C2    2  -0.490  -0.082   0.139
    1UNL     C3    3  -0.464   0.029   0.032
    1UNL     C4    4  -0.358  -0.133   0.191
    1UNL     C5    5  -0.277  -0.214   0.089
    1UNL     C6    6  -0.143  -0.228   0.093
    1UNL     C7    7  -0.049  -0.145   0.184
    1UNL     C8    8  -0.131  -0.075   0.300
    1UNL     C9    9  -0.267  -0.021   0.242
    1UNL    C10   10   0.076  -0.231   0.238
    1UNL    C11   11   0.167  -0.132   0.160
    1UNL    C12   12   0.271  -0.073   0.253
    1UNL     O1   13   0.240  -0.058   0.368
    1UNL    C13   14   0.406  -0.023   0.206
    1UNL    C14   15   0.396   0.089   0.105
    1UNL    C15   16   0.366   0.046  -0.039
    1UNL    C16   17   0.343   0.167  -0.127
    1UNL    C17   18   0.472   0.260  -0.122
    1UNL    C18   19   0.486   0.301   0.027
    1UNL    C19   20   0.366   0.386   0.061
    1UNL    C20   21   0.234   0.337  -0.003
    1UNL     O2   22   0.135   0.385   0.042
    1UNL     O3   23   0.221   0.235  -0.100
    1UNL     O4   24   0.503   0.186   0.110
    1UNL    C21   25   0.051  -0.038   0.121
    1UNL    C22   26   0.049   0.008  -0.025
    1UNL    C23   27  -0.034  -0.050  -0.112
    1UNL    C24   28  -0.047  -0.024  -0.254
    1UNL    C25   29  -0.153  -0.080  -0.324
    1UNL    C26   30  -0.152  -0.087  -0.461
    1UNL    C27   31  -0.043  -0.031  -0.534
    1UNL    C28   32   0.058   0.032  -0.469
    1UNL    C29   33   0.056   0.038  -0.331
    1UNL     H1   34  -0.674  -0.167   0.057
    1UNL     H2   35  -0.563  -0.275   0.162
    1UNL     H3   36  -0.534  -0.231  -0.014
    1UNL     H4   37  -0.542  -0.038   0.219
    1UNL     H5   38  -0.395  -0.015  -0.040
    1UNL     H6   39  -0.560   0.037  -0.018
    1UNL     H7   40  -0.432   0.132   0.064
    1UNL     H8   41  -0.372  -0.196   0.287
    1UNL     H9   42  -0.336  -0.281   0.027
    1UNL    H10   43  -0.098  -0.296   0.032
    1UNL    H11   44  -0.150  -0.127   0.402
    1UNL    H12   45  -0.072   0.015   0.333
    1UNL    H13   46  -0.240   0.048   0.162
    1UNL    H14   47  -0.323   0.027   0.324
    1UNL    H15   48   0.093  -0.325   0.188
    1UNL    H16   49   0.099  -0.219   0.345
    1UNL    H17   50   0.220  -0.184   0.078
    1UNL    H18   51   0.454  -0.105   0.166
    1UNL    H19   52   0.468   0.018   0.288
    1UNL    H20   53   0.310   0.144   0.145
    1UNL    H21   54   0.460  -0.019  -0.084
    1UNL    H22   55   0.277  -0.019  -0.045
    1UNL    H23   56   0.328   0.131  -0.237
    1UNL    H24   57   0.459   0.345  -0.186
    1UNL    H25   58   0.559   0.203  -0.153
    1UNL    H26   59   0.579   0.360   0.029
    1UNL    H27   60   0.366   0.391   0.168
    1UNL    H28   61   0.371   0.489   0.021
    1UNL    H29   62   0.064   0.054   0.178
    1UNL    H30   63   0.106   0.092  -0.052
    1UNL    H31   64  -0.097  -0.133  -0.079
    1UNL    H32   65  -0.239  -0.109  -0.265
    1UNL    H33   66  -0.230  -0.132  -0.512
    1UNL    H34   67  -0.054  -0.013  -0.643
    1UNL    H35   68   0.139   0.089  -0.517
    1UNL    H36   69   0.130   0.092  -0.272
   0.00000   0.00000   0.00000   0.00000   0.00000   0.00000   0.00000   0.00000   0.00000
Generated with MDTraj, t= 31.0
 69
    1UNL     C1    1  -0.568  -0.147   0.075
    1UNL     C2    2  -0.475  -0.049   0.130
    1UNL     C3    3  -0.447   0.069   0.032
    1UNL     C4    4  -0.348  -0.117   0.195
    1UNL     C5    5  -0.268  -0.213   0.106
    1UNL     C6    6  -0.139  -0.243   0.120
    1UNL     C7    7  -0.043  -0.158   0.197
    1UNL     C8    8  -0.116  -0.087   0.313
    1UNL     C9    9  -0.249  -0.015   0.263
    1UNL    C10   10   0.090  -0.239   0.233
    1UNL    C11   11   0.175  -0.133   0.157
    1UNL    C12   12   0.268  -0.066   0.247
    1UNL     O1   13   0.232  -0.048   0.360
    1UNL    C13   14   0.405  -0.030   0.193
    1UNL    C14   15   0.383   0.086   0.097
    1UNL    C15   16   0.395   0.061  -0.056
    1UNL    C16   17   0.376   0.195  -0.130
    1UNL    C17   18   0.484   0.297  -0.091
    1UNL    C18   19   0.471   0.315   0.057
    1UNL    C19   20   0.338   0.382   0.082
    1UNL    C20   21   0.220   0.327   0.007
    1UNL     O2   22   0.110   0.361   0.043
    1UNL     O3   23   0.246   0.248  -0.107
    1UNL     O4   24   0.488   0.188   0.127
    1UNL    C21   25   0.053  -0.051   0.111
    1UNL    C22   26   0.029  -0.027  -0.034
    1UNL    C23   27  -0.049  -0.088  -0.124
    1UNL    C24   28  -0.044  -0.076  -0.267
    1UNL    C25   29  -0.150  -0.115  -0.346
    1UNL    C26   30  -0.169  -0.086  -0.479
    1UNL    C27   31  -0.071  -0.011  -0.552
    1UNL    C28   32   0.041   0.028  -0.474
    1UNL    C29   33   0.050  -0.005  -0.338
    1UNL     H1   34  -0.657  -0.100   0.035
    1UNL     H2   35  -0.596  -0.225   0.151
    1UNL     H3   36  -0.538  -0.197  -0.019
    1UNL     H4   37  -0.526  -0.001   0.208
    1UNL     H5   38  -0.408   0.030  -0.062
    1UNL     H6   39  -0.546   0.115   0.012
    1UNL     H7   40  -0.388   0.157   0.064
    1UNL     H8   41  -0.384  -0.182   0.283
    1UNL     H9   42  -0.315  -0.270   0.029
    1UNL    H10   43  -0.102  -0.326   0.058
    1UNL    H11   44  -0.134  -0.157   0.396
    1UNL    H12   45  -0.053  -0.005   0.362
    1UNL    H13   46  -0.218   0.054   0.183
    1UNL    H14   47  -0.294   0.031   0.350
    1UNL    H15   48   0.086  -0.338   0.188
    1UNL    H16   49   0.101  -0.232   0.340
    1UNL    H17   50   0.224  -0.160   0.062
    1UNL    H18   51   0.463  -0.106   0.144
    1UNL    H19   52   0.464   0.008   0.277
    1UNL    H20   53   0.281   0.124   0.121
    1UNL    H21   54   0.499   0.019  -0.082
    1UNL    H22   55   0.317  -0.013  -0.097
    1UNL    H23   56   0.381   0.186  -0.245
    1UNL    H24   57   0.459   0.391  -0.141
    1UNL    H25   58   0.585   0.269  -0.121
    1UNL    H26   59   0.548   0.387   0.078
    1UNL    H27   60   0.309   0.378   0.187
    1UNL    H28   61   0.352   0.484   0.051
    1UNL    H29   62   0.037   0.048   0.156
    1UNL    H30   63   0.098   0.045  -0.075
    1UNL    H31   64  -0.122  -0.163  -0.087
    1UNL    H32   65  -0.222  -0.180  -0.301
    1UNL    H33   66  -0.252  -0.131  -0.539
    1UNL    H34   67  -0.070   0.014  -0.651
    1UNL    H35   68   0.114   0.088  -0.517
    1UNL    H36   69   0.143   0.017  -0.292
   0.00000   0.00000   0.00000   0.00000   0.00000   0.00000   0.00000   0.00000   0.00000
Generated with MDTraj, t= 32.0
 69
    1UNL     C1    1  -0.579  -0.074   0.086
    1UNL     C2    2  -0.446  -0.011   0.129
    1UNL     C3    3  -0.363   0.052   0.009
    1UNL     C4    4  -0.344  -0.103   0.216
    1UNL     C5    5  -0.291  -0.224   0.143
    1UNL     C6    6  -0.159  -0.244   0.122
    1UNL     C7    7  -0.044  -0.165   0.190
    1UNL     C8    8  -0.107  -0.091   0.318
    1UNL     C9    9  -0.234  -0.017   0.291
    1UNL    C10   10   0.082  -0.258   0.215
    1UNL    C11   11   0.168  -0.156   0.137
    1UNL    C12   12   0.261  -0.078   0.232
    1UNL     O1   13   0.218  -0.030   0.332
    1UNL    C13   14   0.403  -0.033   0.191
    1UNL    C14   15   0.394   0.095   0.100
    1UNL    C15   16   0.422   0.081  -0.049
    1UNL    C16   17   0.394   0.216  -0.128
    1UNL    C17   18   0.485   0.324  -0.066
    1UNL    C18   19   0.449   0.334   0.084
    1UNL    C19   20   0.300   0.379   0.089
    1UNL    C20   21   0.208   0.307  -0.007
    1UNL     O2   22   0.093   0.300   0.019
    1UNL     O3   23   0.258   0.259  -0.122
    1UNL     O4   24   0.475   0.205   0.146
    1UNL    C21   25   0.041  -0.076   0.097
    1UNL    C22   26   0.018  -0.042  -0.046
    1UNL    C23   27  -0.019  -0.130  -0.137
    1UNL    C24   28  -0.038  -0.083  -0.277
    1UNL    C25   29  -0.152  -0.129  -0.345
    1UNL    C26   30  -0.176  -0.095  -0.482
    1UNL    C27   31  -0.084  -0.012  -0.541
    1UNL    C28   32   0.025   0.040  -0.466
    1UNL    C29   33   0.051   0.002  -0.338
    1UNL     H1   34  -0.650  -0.005   0.044
    1UNL     H2   35  -0.623  -0.132   0.172
    1UNL     H3   36  -0.569  -0.143  -0.001
    1UNL     H4   37  -0.480   0.072   0.185
    1UNL     H5   38  -0.295  -0.024  -0.029
    1UNL     H6   39  -0.423   0.095  -0.076
    1UNL     H7   40  -0.304   0.140   0.036
    1UNL     H8   41  -0.407  -0.153   0.297
    1UNL     H9   42  -0.360  -0.294   0.097
    1UNL    H10   43  -0.129  -0.330   0.055
    1UNL    H11   44  -0.123  -0.162   0.397
    1UNL    H12   45  -0.035  -0.018   0.373
    1UNL    H13   46  -0.206   0.066   0.224
    1UNL    H14   47  -0.279   0.017   0.385
    1UNL    H15   48   0.069  -0.358   0.167
    1UNL    H16   49   0.123  -0.271   0.313
    1UNL    H17   50   0.233  -0.195   0.058
    1UNL    H18   51   0.460  -0.105   0.129
    1UNL    H19   52   0.463  -0.009   0.276
    1UNL    H20   53   0.287   0.130   0.108
    1UNL    H21   54   0.519   0.047  -0.068
    1UNL    H22   55   0.347  -0.001  -0.092
    1UNL    H23   56   0.415   0.206  -0.238
    1UNL    H24   57   0.460   0.421  -0.110
    1UNL    H25   58   0.591   0.308  -0.083
    1UNL    H26   59   0.504   0.400   0.145
    1UNL    H27   60   0.267   0.378   0.194
    1UNL    H28   61   0.294   0.477   0.053
    1UNL    H29   62   0.033   0.018   0.158
    1UNL    H30   63   0.019   0.066  -0.065
    1UNL    H31   64  -0.024  -0.231  -0.107
    1UNL    H32   65  -0.201  -0.208  -0.287
    1UNL    H33   66  -0.256  -0.140  -0.529
    1UNL    H34   67  -0.094   0.012  -0.653
    1UNL    H35   68   0.108   0.102  -0.514
    1UNL    H36   69   0.132   0.038  -0.276
   0.00000   0.00000   0.00000   0.00000   0.00000   0.00000   0.00000   0.00000   0.00000
Generated with MDTraj, t= 33.0
 69
    1UNL     C1    1  -0.538  -0.004   0.120
    1UNL     C2    2  -0.386   0.028   0.133
    1UNL     C3    3  -0.326   0.027  -0.010
    1UNL     C4    4  -0.324  -0.077   0.219
    1UNL     C5    5  -0.293  -0.202   0.136
    1UNL     C6    6  -0.164  -0.242   0.115
    1UNL     C7    7  -0.048  -0.174   0.185
    1UNL     C8    8  -0.098  -0.130   0.329
    1UNL     C9    9  -0.199  -0.020   0.303
    1UNL    C10   10   0.080  -0.261   0.185
    1UNL    C11   11   0.160  -0.141   0.134
    1UNL    C12   12   0.250  -0.073   0.236
    1UNL     O1   13   0.219  -0.045   0.349
    1UNL    C13   14   0.384  -0.038   0.179
    1UNL    C14   15   0.383   0.090   0.094
    1UNL    C15   16   0.436   0.085  -0.048
    1UNL    C16   17   0.406   0.224  -0.120
    1UNL    C17   18   0.463   0.336  -0.035
    1UNL    C18   19   0.401   0.333   0.101
    1UNL    C19   20   0.252   0.369   0.084
    1UNL    C20   21   0.191   0.278  -0.032
    1UNL     O2   22   0.074   0.253  -0.014
    1UNL     O3   23   0.271   0.245  -0.146
    1UNL     O4   24   0.428   0.206   0.164
    1UNL    C21   25   0.031  -0.060   0.106
    1UNL    C22   26   0.003  -0.037  -0.039
    1UNL    C23   27   0.006  -0.125  -0.139
    1UNL    C24   28  -0.019  -0.086  -0.275
    1UNL    C25   29  -0.121  -0.154  -0.337
    1UNL    C26   30  -0.159  -0.118  -0.469
    1UNL    C27   31  -0.102  -0.009  -0.541
    1UNL    C28   32   0.008   0.056  -0.476
    1UNL    C29   33   0.043   0.020  -0.346
    1UNL     H1   34  -0.588   0.066   0.055
    1UNL     H2   35  -0.575  -0.008   0.225
    1UNL     H3   36  -0.555  -0.105   0.072
    1UNL     H4   37  -0.378   0.125   0.172
    1UNL     H5   38  -0.354  -0.063  -0.065
    1UNL     H6   39  -0.354   0.122  -0.063
    1UNL     H7   40  -0.219   0.031  -0.013
    1UNL     H8   41  -0.401  -0.121   0.289
    1UNL     H9   42  -0.374  -0.256   0.089
    1UNL    H10   43  -0.140  -0.321   0.056
    1UNL    H11   44  -0.139  -0.201   0.399
    1UNL    H12   45  -0.010  -0.092   0.395
    1UNL    H13   46  -0.152   0.060   0.243
    1UNL    H14   47  -0.236   0.018   0.398
    1UNL    H15   48   0.065  -0.358   0.127
    1UNL    H16   49   0.108  -0.296   0.281
    1UNL    H17   50   0.220  -0.156   0.042
    1UNL    H18   51   0.418  -0.122   0.110
    1UNL    H19   52   0.458  -0.028   0.253
    1UNL    H20   53   0.274   0.118   0.085
    1UNL    H21   54   0.539   0.072  -0.040
    1UNL    H22   55   0.398  -0.004  -0.108
    1UNL    H23   56   0.459   0.220  -0.215
    1UNL    H24   57   0.450   0.436  -0.081
    1UNL    H25   58   0.570   0.320  -0.025
    1UNL    H26   59   0.446   0.401   0.170
    1UNL    H27   60   0.187   0.360   0.173
    1UNL    H28   61   0.253   0.469   0.058
    1UNL    H29   62   0.033   0.031   0.171
    1UNL    H30   63  -0.007   0.067  -0.059
    1UNL    H31   64   0.032  -0.228  -0.119
    1UNL    H32   65  -0.181  -0.226  -0.286
    1UNL    H33   66  -0.242  -0.178  -0.510
    1UNL    H34   67  -0.137   0.023  -0.634
    1UNL    H35   68   0.045   0.142  -0.522
    1UNL    H36   69   0.108   0.089  -0.295
   0.00000   0.00000   0.00000   0.00000   0.00000   0.00000   0.00000   0.00000   0.00000
Generated with MDTraj, t= 34.0
 69
    1UNL     C1    1  -0.521   0.053   0.143
    1UNL     C2    2  -0.371   0.057   0.149
    1UNL     C3    3  -0.315   0.091   0.012
    1UNL     C4    4  -0.315  -0.069   0.210
    1UNL     C5    5  -0.271  -0.169   0.110
    1UNL     C6    6  -0.149  -0.221   0.095
    1UNL     C7    7  -0.041  -0.178   0.183
    1UNL     C8    8  -0.085  -0.124   0.320
    1UNL     C9    9  -0.202  -0.026   0.309
    1UNL    C10   10   0.087  -0.270   0.189
    1UNL    C11   11   0.181  -0.163   0.136
    1UNL    C12   12   0.277  -0.103   0.238
    1UNL     O1   13   0.238  -0.119   0.352
    1UNL    C13   14   0.402  -0.039   0.195
    1UNL    C14   15   0.375   0.091   0.116
    1UNL    C15   16   0.450   0.099  -0.021
    1UNL    C16   17   0.406   0.226  -0.107
    1UNL    C17   18   0.434   0.350  -0.025
    1UNL    C18   19   0.353   0.342   0.107
    1UNL    C19   20   0.202   0.342   0.061
    1UNL    C20   21   0.167   0.270  -0.064
    1UNL     O2   22   0.053   0.268  -0.101
    1UNL     O3   23   0.261   0.210  -0.144
    1UNL     O4   24   0.389   0.223   0.183
    1UNL    C21   25   0.054  -0.074   0.103
    1UNL    C22   26   0.022  -0.049  -0.036
    1UNL    C23   27   0.013  -0.133  -0.139
    1UNL    C24   28  -0.029  -0.101  -0.277
    1UNL    C25   29  -0.103  -0.182  -0.361
    1UNL    C26   30  -0.137  -0.139  -0.487
    1UNL    C27   31  -0.090  -0.015  -0.533
    1UNL    C28   32  -0.020   0.071  -0.450
    1UNL    C29   33   0.009   0.028  -0.319
    1UNL     H1   34  -0.559   0.142   0.091
    1UNL     H2   35  -0.555   0.047   0.247
    1UNL     H3   36  -0.564  -0.033   0.087
    1UNL     H4   37  -0.347   0.141   0.213
    1UNL     H5   38  -0.349   0.020  -0.065
    1UNL     H6   39  -0.335   0.196  -0.017
    1UNL     H7   40  -0.208   0.084   0.010
    1UNL     H8   41  -0.393  -0.135   0.256
    1UNL     H9   42  -0.345  -0.197   0.035
    1UNL    H10   43  -0.130  -0.291   0.007
    1UNL    H11   44  -0.100  -0.209   0.385
    1UNL    H12   45   0.001  -0.072   0.379
    1UNL    H13   46  -0.158   0.072   0.280
    1UNL    H14   47  -0.253  -0.012   0.405
    1UNL    H15   48   0.076  -0.365   0.127
    1UNL    H16   49   0.107  -0.307   0.287
    1UNL    H17   50   0.226  -0.187   0.039
    1UNL    H18   51   0.459  -0.113   0.131
    1UNL    H19   52   0.459  -0.023   0.282
    1UNL    H20   53   0.267   0.092   0.085
    1UNL    H21   54   0.555   0.099  -0.001
    1UNL    H22   55   0.431   0.014  -0.071
    1UNL    H23   56   0.459   0.228  -0.199
    1UNL    H24   57   0.401   0.434  -0.089
    1UNL    H25   58   0.540   0.368  -0.010
    1UNL    H26   59   0.374   0.426   0.175
    1UNL    H27   60   0.137   0.301   0.139
    1UNL    H28   61   0.168   0.438   0.036
    1UNL    H29   62   0.062   0.024   0.160
    1UNL    H30   63   0.020   0.060  -0.055
    1UNL    H31   64   0.041  -0.235  -0.111
    1UNL    H32   65  -0.140  -0.272  -0.311
    1UNL    H33   66  -0.196  -0.204  -0.549
    1UNL    H34   67  -0.109   0.015  -0.637
    1UNL    H35   68  -0.007   0.179  -0.471
    1UNL    H36   69   0.054   0.093  -0.246
   0.00000   0.00000   0.00000   0.00000   0.00000   0.00000   0.00000   0.00000   0.00000
Generated with MDTraj, t= 35.0
 69
    1UNL     C1    1  -0.508   0.059   0.133
    1UNL     C2    2  -0.362   0.093   0.172
    1UNL     C3    3  -0.286   0.169   0.056
    1UNL     C4    4  -0.286  -0.039   0.219
    1UNL     C5    5  -0.268  -0.146   0.121
    1UNL     C6    6  -0.153  -0.208   0.098
    1UNL     C7    7  -0.027  -0.176   0.172
    1UNL     C8    8  -0.060  -0.124   0.304
    1UNL     C9    9  -0.158  -0.008   0.290
    1UNL    C10   10   0.081  -0.287   0.170
    1UNL    C11   11   0.189  -0.175   0.129
    1UNL    C12   12   0.282  -0.138   0.244
    1UNL     O1   13   0.266  -0.191   0.350
    1UNL    C13   14   0.388  -0.027   0.224
    1UNL    C14   15   0.345   0.090   0.131
    1UNL    C15   16   0.425   0.093  -0.001
    1UNL    C16   17   0.390   0.218  -0.085
    1UNL    C17   18   0.395   0.346  -0.012
    1UNL    C18   19   0.296   0.331   0.101
    1UNL    C19   20   0.156   0.311   0.040
    1UNL    C20   21   0.152   0.258  -0.104
    1UNL     O2   22   0.047   0.262  -0.162
    1UNL     O3   23   0.260   0.201  -0.161
    1UNL     O4   24   0.338   0.222   0.193
    1UNL    C21   25   0.074  -0.077   0.112
    1UNL    C22   26   0.051  -0.033  -0.031
    1UNL    C23   27   0.023  -0.120  -0.132
    1UNL    C24   28  -0.015  -0.085  -0.269
    1UNL    C25   29  -0.048  -0.185  -0.361
    1UNL    C26   30  -0.092  -0.164  -0.488
    1UNL    C27   31  -0.092  -0.029  -0.533
    1UNL    C28   32  -0.060   0.075  -0.447
    1UNL    C29   33  -0.016   0.043  -0.318
    1UNL     H1   34  -0.575   0.145   0.103
    1UNL     H2   35  -0.562   0.006   0.208
    1UNL     H3   36  -0.521  -0.004   0.044
    1UNL     H4   37  -0.369   0.158   0.260
    1UNL     H5   38  -0.234   0.095  -0.007
    1UNL     H6   39  -0.343   0.240  -0.004
    1UNL     H7   40  -0.203   0.228   0.096
    1UNL     H8   41  -0.356  -0.092   0.284
    1UNL     H9   42  -0.358  -0.176   0.066
    1UNL    H10   43  -0.160  -0.290   0.027
    1UNL    H11   44  -0.099  -0.202   0.370
    1UNL    H12   45   0.038  -0.097   0.355
    1UNL    H13   46  -0.107   0.069   0.228
    1UNL    H14   47  -0.181   0.034   0.389
    1UNL    H15   48   0.066  -0.367   0.093
    1UNL    H16   49   0.117  -0.334   0.261
    1UNL    H17   50   0.246  -0.196   0.037
    1UNL    H18   51   0.478  -0.077   0.178
    1UNL    H19   52   0.418   0.012   0.320
    1UNL    H20   53   0.238   0.074   0.101
    1UNL    H21   54   0.526   0.099   0.031
    1UNL    H22   55   0.415   0.006  -0.056
    1UNL    H23   56   0.456   0.223  -0.167
    1UNL    H24   57   0.381   0.437  -0.075
    1UNL    H25   58   0.499   0.355   0.019
    1UNL    H26   59   0.302   0.429   0.157
    1UNL    H27   60   0.099   0.243   0.102
    1UNL    H28   61   0.103   0.403   0.036
    1UNL    H29   62   0.089   0.005   0.190
    1UNL    H30   63   0.046   0.071  -0.044
    1UNL    H31   64   0.024  -0.221  -0.104
    1UNL    H32   65  -0.023  -0.285  -0.336
    1UNL    H33   66  -0.113  -0.242  -0.559
    1UNL    H34   67  -0.111  -0.018  -0.640
    1UNL    H35   68  -0.049   0.180  -0.472
    1UNL    H36   69   0.007   0.129  -0.256
   0.00000   0.00000   0.00000   0.00000   0.00000   0.00000   0.00000   0.00000   0.00000
Generated with MDTraj, t= 36.0
 69
    1UNL     C1    1  -0.478   0.085   0.115
    1UNL     C2    2  -0.345   0.112   0.188
    1UNL     C3    3  -0.253   0.203   0.112
    1UNL     C4    4  -0.291  -0.026   0.245
    1UNL     C5    5  -0.275  -0.125   0.133
    1UNL     C6    6  -0.166  -0.194   0.102
    1UNL     C7    7  -0.034  -0.169   0.168
    1UNL     C8    8  -0.059  -0.131   0.315
    1UNL     C9    9  -0.162  -0.011   0.337
    1UNL    C10   10   0.075  -0.278   0.150
    1UNL    C11   11   0.183  -0.176   0.119
    1UNL    C12   12   0.276  -0.147   0.231
    1UNL     O1   13   0.291  -0.220   0.324
    1UNL    C13   14   0.363  -0.024   0.224
    1UNL    C14   15   0.338   0.095   0.124
    1UNL    C15   16   0.432   0.104   0.006
    1UNL    C16   17   0.391   0.218  -0.081
    1UNL    C17   18   0.386   0.345   0.004
    1UNL    C18   19   0.280   0.328   0.111
    1UNL    C19   20   0.141   0.319   0.050
    1UNL    C20   21   0.143   0.272  -0.091
    1UNL     O2   22   0.046   0.293  -0.160
    1UNL     O3   23   0.251   0.191  -0.133
    1UNL     O4   24   0.321   0.215   0.191
    1UNL    C21   25   0.069  -0.064   0.098
    1UNL    C22   26   0.029  -0.037  -0.054
    1UNL    C23   27   0.050  -0.126  -0.157
    1UNL    C24   28   0.006  -0.105  -0.295
    1UNL    C25   29  -0.001  -0.212  -0.386
    1UNL    C26   30  -0.052  -0.191  -0.513
    1UNL    C27   31  -0.105  -0.066  -0.545
    1UNL    C28   32  -0.086   0.042  -0.464
    1UNL    C29   33  -0.037   0.021  -0.334
    1UNL     H1   34  -0.543   0.178   0.109
    1UNL     H2   35  -0.533   0.010   0.169
    1UNL     H3   36  -0.463   0.052   0.013
    1UNL     H4   37  -0.367   0.166   0.284
    1UNL     H5   38  -0.228   0.165   0.013
    1UNL     H6   39  -0.299   0.300   0.108
    1UNL     H7   40  -0.158   0.222   0.166
    1UNL     H8   41  -0.373  -0.064   0.303
    1UNL     H9   42  -0.356  -0.142   0.068
    1UNL    H10   43  -0.170  -0.260   0.023
    1UNL    H11   44  -0.110  -0.220   0.357
    1UNL    H12   45   0.037  -0.131   0.367
    1UNL    H13   46  -0.104   0.083   0.322
    1UNL    H14   47  -0.189  -0.007   0.443
    1UNL    H15   48   0.048  -0.351   0.071
    1UNL    H16   49   0.094  -0.324   0.250
    1UNL    H17   50   0.243  -0.181   0.026
    1UNL    H18   51   0.466  -0.058   0.209
    1UNL    H19   52   0.362   0.025   0.324
    1UNL    H20   53   0.240   0.071   0.082
    1UNL    H21   54   0.524   0.126   0.045
    1UNL    H22   55   0.435   0.003  -0.047
    1UNL    H23   56   0.459   0.240  -0.162
    1UNL    H24   57   0.370   0.432  -0.061
    1UNL    H25   58   0.482   0.366   0.052
    1UNL    H26   59   0.284   0.416   0.186
    1UNL    H27   60   0.078   0.259   0.106
    1UNL    H28   61   0.100   0.419   0.047
    1UNL    H29   62   0.091   0.029   0.159
    1UNL    H30   63  -0.022   0.056  -0.065
    1UNL    H31   64   0.089  -0.226  -0.129
    1UNL    H32   65   0.049  -0.307  -0.362
    1UNL    H33   66  -0.047  -0.276  -0.586
    1UNL    H34   67  -0.157  -0.056  -0.637
    1UNL    H35   68  -0.124   0.139  -0.495
    1UNL    H36   69  -0.018   0.106  -0.271
   0.00000   0.00000   0.00000   0.00000   0.00000   0.00000   0.00000   0.00000   0.00000
Generated with MDTraj, t= 37.0
 69
    1UNL     C1    1  -0.465   0.129   0.151
    1UNL     C2    2  -0.325   0.125   0.221
    1UNL     C3    3  -0.219   0.193   0.131
    1UNL     C4    4  -0.282  -0.023   0.245
    1UNL     C5    5  -0.282  -0.114   0.121
    1UNL     C6    6  -0.176  -0.184   0.085
    1UNL     C7    7  -0.047  -0.175   0.161
    1UNL     C8    8  -0.070  -0.148   0.313
    1UNL     C9    9  -0.155  -0.025   0.338
    1UNL    C10   10   0.064  -0.285   0.126
    1UNL    C11   11   0.167  -0.175   0.107
    1UNL    C12   12   0.262  -0.134   0.217
    1UNL     O1   13   0.280  -0.215   0.304
    1UNL    C13   14   0.334  -0.005   0.229
    1UNL    C14   15   0.327   0.101   0.119
    1UNL    C15   16   0.427   0.118   0.002
    1UNL    C16   17   0.389   0.242  -0.083
    1UNL    C17   18   0.395   0.366   0.003
    1UNL    C18   19   0.294   0.347   0.116
    1UNL    C19   20   0.150   0.321   0.064
    1UNL    C20   21   0.144   0.259  -0.073
    1UNL     O2   22   0.036   0.229  -0.115
    1UNL     O3   23   0.257   0.221  -0.138
    1UNL     O4   24   0.334   0.223   0.193
    1UNL    C21   25   0.049  -0.074   0.087
    1UNL    C22   26  -0.003  -0.051  -0.060
    1UNL    C23   27   0.063  -0.108  -0.164
    1UNL    C24   28   0.003  -0.109  -0.299
    1UNL    C25   29   0.014  -0.224  -0.378
    1UNL    C26   30  -0.026  -0.213  -0.511
    1UNL    C27   31  -0.074  -0.095  -0.561
    1UNL    C28   32  -0.087   0.020  -0.480
    1UNL    C29   33  -0.055   0.011  -0.350
    1UNL     H1   34  -0.486   0.235   0.123
    1UNL     H2   35  -0.541   0.082   0.214
    1UNL     H3   36  -0.444   0.071   0.063
    1UNL     H4   37  -0.330   0.177   0.322
    1UNL     H5   38  -0.176   0.113   0.071
    1UNL     H6   39  -0.262   0.268   0.070
    1UNL     H7   40  -0.136   0.243   0.186
    1UNL     H8   41  -0.359  -0.066   0.302
    1UNL     H9   42  -0.377  -0.129   0.066
    1UNL    H10   43  -0.171  -0.257  -0.004
    1UNL    H11   44  -0.120  -0.245   0.344
    1UNL    H12   45   0.020  -0.148   0.367
    1UNL    H13   46  -0.094   0.067   0.329
    1UNL    H14   47  -0.178  -0.023   0.446
    1UNL    H15   48   0.046  -0.339   0.033
    1UNL    H16   49   0.080  -0.347   0.221
    1UNL    H17   50   0.226  -0.193   0.016
    1UNL    H18   51   0.439  -0.021   0.250
    1UNL    H19   52   0.286   0.038   0.324
    1UNL    H20   53   0.225   0.091   0.082
    1UNL    H21   54   0.519   0.120   0.050
    1UNL    H22   55   0.423   0.023  -0.068
    1UNL    H23   56   0.467   0.256  -0.161
    1UNL    H24   57   0.380   0.456  -0.059
    1UNL    H25   58   0.494   0.381   0.049
    1UNL    H26   59   0.295   0.436   0.189
    1UNL    H27   60   0.103   0.260   0.133
    1UNL    H28   61   0.088   0.410   0.069
    1UNL    H29   62   0.063   0.012   0.157
    1UNL    H30   63  -0.093   0.009  -0.080
    1UNL    H31   64   0.140  -0.180  -0.147
    1UNL    H32   65   0.046  -0.315  -0.334
    1UNL    H33   66  -0.004  -0.291  -0.573
    1UNL    H34   67  -0.131  -0.092  -0.656
    1UNL    H35   68  -0.125   0.110  -0.524
    1UNL    H36   69  -0.065   0.101  -0.288
   0.00000   0.00000   0.00000   0.00000   0.00000   0.00000   0.00000   0.00000   0.00000
Generated with MDTraj, t= 38.0
 69
    1UNL     C1    1  -0.456   0.143   0.192
    1UNL     C2    2  -0.309   0.120   0.225
    1UNL     C3    3  -0.212   0.189   0.126
    1UNL     C4    4  -0.273  -0.031   0.260
    1UNL     C5    5  -0.283  -0.119   0.133
    1UNL     C6    6  -0.179  -0.193   0.097
    1UNL     C7    7  -0.034  -0.179   0.152
    1UNL     C8    8  -0.046  -0.147   0.302
    1UNL     C9    9  -0.132  -0.030   0.325
    1UNL    C10   10   0.074  -0.281   0.115
    1UNL    C11   11   0.172  -0.159   0.091
    1UNL    C12   12   0.249  -0.126   0.219
    1UNL     O1   13   0.247  -0.200   0.316
    1UNL    C13   14   0.330   0.002   0.231
    1UNL    C14   15   0.298   0.111   0.138
    1UNL    C15   16   0.384   0.088   0.010
    1UNL    C16   17   0.371   0.216  -0.077
    1UNL    C17   18   0.414   0.339   0.005
    1UNL    C18   19   0.307   0.351   0.112
    1UNL    C19   20   0.161   0.367   0.051
    1UNL    C20   21   0.132   0.274  -0.065
    1UNL     O2   22   0.016   0.243  -0.081
    1UNL     O3   23   0.237   0.216  -0.137
    1UNL     O4   24   0.315   0.241   0.207
    1UNL    C21   25   0.045  -0.079   0.071
    1UNL    C22   26   0.005  -0.057  -0.073
    1UNL    C23   27   0.038  -0.142  -0.171
    1UNL    C24   28   0.022  -0.115  -0.310
    1UNL    C25   29   0.025  -0.225  -0.397
    1UNL    C26   30  -0.024  -0.215  -0.529
    1UNL    C27   31  -0.073  -0.099  -0.576
    1UNL    C28   32  -0.070   0.015  -0.491
    1UNL    C29   33  -0.022   0.007  -0.365
    1UNL     H1   34  -0.470   0.250   0.170
    1UNL     H2   35  -0.522   0.114   0.276
    1UNL     H3   36  -0.473   0.082   0.105
    1UNL     H4   37  -0.294   0.172   0.326
    1UNL     H5   38  -0.249   0.167   0.026
    1UNL     H6   39  -0.199   0.294   0.137
    1UNL     H7   40  -0.110   0.147   0.125
    1UNL     H8   41  -0.343  -0.052   0.334
    1UNL     H9   42  -0.372  -0.111   0.077
    1UNL    H10   43  -0.186  -0.245   0.007
    1UNL    H11   44  -0.105  -0.233   0.344
    1UNL    H12   45   0.047  -0.153   0.348
    1UNL    H13   46  -0.080   0.060   0.290
    1UNL    H14   47  -0.147  -0.012   0.433
    1UNL    H15   48   0.043  -0.338   0.029
    1UNL    H16   49   0.121  -0.344   0.199
    1UNL    H17   50   0.247  -0.167   0.011
    1UNL    H18   51   0.433  -0.030   0.223
    1UNL    H19   52   0.313   0.045   0.336
    1UNL    H20   53   0.194   0.121   0.116
    1UNL    H21   54   0.493   0.067   0.045
    1UNL    H22   55   0.347  -0.008  -0.036
    1UNL    H23   56   0.454   0.212  -0.157
    1UNL    H24   57   0.405   0.428  -0.058
    1UNL    H25   58   0.517   0.339   0.047
    1UNL    H26   59   0.330   0.444   0.170
    1UNL    H27   60   0.087   0.375   0.127
    1UNL    H28   61   0.156   0.469   0.013
    1UNL    H29   62   0.064   0.011   0.131
    1UNL    H30   63  -0.036   0.033  -0.106
    1UNL    H31   64   0.077  -0.241  -0.152
    1UNL    H32   65   0.087  -0.308  -0.366
    1UNL    H33   66  -0.039  -0.307  -0.598
    1UNL    H34   67  -0.101  -0.087  -0.678
    1UNL    H35   68  -0.111   0.105  -0.534
    1UNL    H36   69  -0.023   0.097  -0.305
   0.00000   0.00000   0.00000   0.00000   0.00000   0.00000   0.00000   0.00000   0.00000
Generated with MDTraj, t= 39.0
 69
    1UNL     C1    1  -0.459   0.139   0.222
    1UNL     C2    2  -0.312   0.118   0.214
    1UNL     C3    3  -0.249   0.153   0.082
    1UNL     C4    4  -0.264  -0.024   0.262
    1UNL     C5    5  -0.274  -0.123   0.142
    1UNL     C6    6  -0.176  -0.192   0.090
    1UNL     C7    7  -0.038  -0.193   0.152
    1UNL     C8    8  -0.054  -0.160   0.305
    1UNL     C9    9  -0.124  -0.026   0.328
    1UNL    C10   10   0.073  -0.304   0.127
    1UNL    C11   11   0.170  -0.185   0.108
    1UNL    C12   12   0.248  -0.125   0.237
    1UNL     O1   13   0.258  -0.205   0.326
    1UNL    C13   14   0.303   0.014   0.259
    1UNL    C14   15   0.301   0.127   0.151
    1UNL    C15   16   0.364   0.086   0.017
    1UNL    C16   17   0.338   0.196  -0.094
    1UNL    C17   18   0.399   0.324  -0.040
    1UNL    C18   19   0.341   0.361   0.095
    1UNL    C19   20   0.186   0.379   0.068
    1UNL    C20   21   0.127   0.306  -0.049
    1UNL     O2   22   0.014   0.337  -0.084
    1UNL     O3   23   0.196   0.208  -0.118
    1UNL     O4   24   0.360   0.247   0.191
    1UNL    C21   25   0.054  -0.090   0.070
    1UNL    C22   26   0.020  -0.077  -0.074
    1UNL    C23   27   0.045  -0.156  -0.175
    1UNL    C24   28   0.002  -0.126  -0.315
    1UNL    C25   29  -0.004  -0.230  -0.409
    1UNL    C26   30  -0.031  -0.209  -0.540
    1UNL    C27   31  -0.037  -0.075  -0.585
    1UNL    C28   32  -0.032   0.025  -0.494
    1UNL    C29   33  -0.009   0.003  -0.363
    1UNL     H1   34  -0.485   0.243   0.226
    1UNL     H2   35  -0.517   0.100   0.310
    1UNL     H3   36  -0.511   0.102   0.134
    1UNL     H4   37  -0.255   0.182   0.292
    1UNL     H5   38  -0.258   0.069   0.014
    1UNL     H6   39  -0.302   0.235   0.034
    1UNL     H7   40  -0.147   0.186   0.083
    1UNL     H8   41  -0.323  -0.048   0.344
    1UNL     H9   42  -0.374  -0.128   0.098
    1UNL    H10   43  -0.195  -0.248   0.000
    1UNL    H11   44  -0.106  -0.251   0.346
    1UNL    H12   45   0.039  -0.163   0.353
    1UNL    H13   46  -0.066   0.054   0.282
    1UNL    H14   47  -0.135  -0.001   0.436
    1UNL    H15   48   0.058  -0.378   0.049
    1UNL    H16   49   0.084  -0.358   0.226
    1UNL    H17   50   0.242  -0.205   0.028
    1UNL    H18   51   0.409  -0.000   0.276
    1UNL    H19   52   0.251   0.052   0.356
    1UNL    H20   53   0.200   0.149   0.134
    1UNL    H21   54   0.484   0.064   0.036
    1UNL    H22   55   0.320  -0.012  -0.009
    1UNL    H23   56   0.373   0.168  -0.202
    1UNL    H24   57   0.382   0.405  -0.109
    1UNL    H25   58   0.510   0.312  -0.031
    1UNL    H26   59   0.392   0.448   0.138
    1UNL    H27   60   0.134   0.350   0.159
    1UNL    H28   61   0.158   0.481   0.060
    1UNL    H29   62   0.052   0.007   0.119
    1UNL    H30   63  -0.026   0.016  -0.112
    1UNL    H31   64   0.088  -0.253  -0.150
    1UNL    H32   65   0.022  -0.325  -0.366
    1UNL    H33   66  -0.027  -0.294  -0.597
    1UNL    H34   67  -0.050  -0.054  -0.692
    1UNL    H35   68  -0.045   0.125  -0.534
    1UNL    H36   69   0.004   0.085  -0.295
   0.00000   0.00000   0.00000   0.00000   0.00000   0.00000   0.00000   0.00000   0.00000
Generated with MDTraj, t= 40.0
 69
    1UNL     C1    1  -0.489   0.111   0.183
    1UNL     C2    2  -0.336   0.109   0.187
    1UNL     C3    3  -0.285   0.138   0.048
    1UNL     C4    4  -0.278  -0.027   0.247
    1UNL     C5    5  -0.272  -0.136   0.141
    1UNL     C6    6  -0.163  -0.204   0.112
    1UNL     C7    7  -0.035  -0.182   0.173
    1UNL     C8    8  -0.052  -0.134   0.325
    1UNL     C9    9  -0.145  -0.013   0.330
    1UNL    C10   10   0.077  -0.287   0.155
    1UNL    C11   11   0.180  -0.180   0.110
    1UNL    C12   12   0.273  -0.147   0.222
    1UNL     O1   13   0.286  -0.224   0.312
    1UNL    C13   14   0.341  -0.012   0.235
    1UNL    C14   15   0.305   0.103   0.134
    1UNL    C15   16   0.331   0.067  -0.017
    1UNL    C16   17   0.308   0.188  -0.113
    1UNL    C17   18   0.394   0.305  -0.061
    1UNL    C18   19   0.348   0.336   0.077
    1UNL    C19   20   0.200   0.381   0.072
    1UNL    C20   21   0.115   0.320  -0.041
    1UNL     O2   22   0.001   0.364  -0.049
    1UNL     O3   23   0.169   0.221  -0.128
    1UNL     O4   24   0.370   0.224   0.165
    1UNL    C21   25   0.058  -0.080   0.087
    1UNL    C22   26   0.032  -0.043  -0.051
    1UNL    C23   27   0.013  -0.129  -0.148
    1UNL    C24   28   0.008  -0.106  -0.288
    1UNL    C25   29  -0.024  -0.214  -0.374
    1UNL    C26   30  -0.034  -0.197  -0.510
    1UNL    C27   31  -0.011  -0.069  -0.568
    1UNL    C28   32   0.032   0.037  -0.491
    1UNL    C29   33   0.035   0.016  -0.351
    1UNL     H1   34  -0.532   0.195   0.137
    1UNL     H2   35  -0.538   0.109   0.283
    1UNL     H3   36  -0.526   0.022   0.128
    1UNL     H4   37  -0.293   0.186   0.261
    1UNL     H5   38  -0.359   0.101  -0.021
    1UNL     H6   39  -0.280   0.247   0.031
    1UNL     H7   40  -0.188   0.102   0.024
    1UNL     H8   41  -0.341  -0.051   0.327
    1UNL     H9   42  -0.370  -0.165   0.108
    1UNL    H10   43  -0.168  -0.301   0.049
    1UNL    H11   44  -0.082  -0.216   0.388
    1UNL    H12   45   0.041  -0.105   0.371
    1UNL    H13   46  -0.095   0.080   0.303
    1UNL    H14   47  -0.181  -0.001   0.435
    1UNL    H15   48   0.049  -0.358   0.076
    1UNL    H16   49   0.100  -0.336   0.252
    1UNL    H17   50   0.244  -0.213   0.026
    1UNL    H18   51   0.449  -0.024   0.230
    1UNL    H19   52   0.315   0.032   0.337
    1UNL    H20   53   0.204   0.128   0.142
    1UNL    H21   54   0.441   0.058  -0.032
    1UNL    H22   55   0.281  -0.030  -0.047
    1UNL    H23   56   0.325   0.161  -0.225
    1UNL    H24   57   0.382   0.400  -0.115
    1UNL    H25   58   0.501   0.273  -0.067
    1UNL    H26   59   0.414   0.413   0.109
    1UNL    H27   60   0.150   0.370   0.172
    1UNL    H28   61   0.198   0.486   0.058
    1UNL    H29   62   0.067   0.003   0.154
    1UNL    H30   63   0.040   0.057  -0.085
    1UNL    H31   64   0.002  -0.230  -0.119
    1UNL    H32   65  -0.047  -0.312  -0.336
    1UNL    H33   66  -0.061  -0.279  -0.584
    1UNL    H34   67  -0.043  -0.063  -0.668
    1UNL    H35   68   0.027   0.133  -0.536
    1UNL    H36   69   0.070   0.100  -0.293
   0.00000   0.00000   0.00000   0.00000   0.00000   0.00000   0.00000   0.00000   0.00000
Generated with MDTraj, t= 41.0
 69
    1UNL     C1    1  -0.515   0.075   0.122
    1UNL     C2    2  -0.371   0.092   0.167
    1UNL     C3    3  -0.284   0.145   0.048
    1UNL     C4    4  -0.312  -0.042   0.233
    1UNL     C5    5  -0.288  -0.152   0.136
    1UNL     C6    6  -0.175  -0.221   0.124
    1UNL     C7    7  -0.044  -0.168   0.191
    1UNL     C8    8  -0.089  -0.120   0.328
    1UNL     C9    9  -0.186  -0.002   0.313
    1UNL    C10   10   0.076  -0.266   0.197
    1UNL    C11   11   0.164  -0.162   0.119
    1UNL    C12   12   0.297  -0.140   0.206
    1UNL     O1   13   0.316  -0.206   0.306
    1UNL    C13   14   0.387  -0.020   0.172
    1UNL    C14   15   0.336   0.096   0.085
    1UNL    C15   16   0.359   0.064  -0.070
    1UNL    C16   17   0.305   0.193  -0.139
    1UNL    C17   18   0.385   0.318  -0.090
    1UNL    C18   19   0.367   0.332   0.061
    1UNL    C19   20   0.212   0.364   0.082
    1UNL    C20   21   0.115   0.296  -0.010
    1UNL     O2   22  -0.005   0.308   0.012
    1UNL     O3   23   0.164   0.224  -0.122
    1UNL     O4   24   0.406   0.208   0.131
    1UNL    C21   25   0.045  -0.068   0.109
    1UNL    C22   26   0.012  -0.033  -0.026
    1UNL    C23   27  -0.001  -0.125  -0.124
    1UNL    C24   28   0.003  -0.100  -0.270
    1UNL    C25   29  -0.064  -0.183  -0.357
    1UNL    C26   30  -0.048  -0.158  -0.489
    1UNL    C27   31   0.022  -0.052  -0.539
    1UNL    C28   32   0.080   0.032  -0.447
    1UNL    C29   33   0.073   0.012  -0.311
    1UNL     H1   34  -0.549   0.165   0.078
    1UNL     H2   35  -0.577   0.056   0.211
    1UNL     H3   36  -0.517  -0.012   0.053
    1UNL     H4   37  -0.379   0.172   0.250
    1UNL     H5   38  -0.237   0.062  -0.000
    1UNL     H6   39  -0.343   0.199  -0.028
    1UNL     H7   40  -0.213   0.213   0.089
    1UNL     H8   41  -0.383  -0.062   0.307
    1UNL     H9   42  -0.376  -0.173   0.078
    1UNL    H10   43  -0.167  -0.292   0.052
    1UNL    H11   44  -0.126  -0.196   0.386
    1UNL    H12   45   0.004  -0.085   0.374
    1UNL    H13   46  -0.137   0.073   0.250
    1UNL    H14   47  -0.213   0.042   0.412
    1UNL    H15   48   0.061  -0.366   0.148
    1UNL    H16   49   0.113  -0.279   0.297
    1UNL    H17   50   0.197  -0.195   0.019
    1UNL    H18   51   0.480  -0.058   0.123
    1UNL    H19   52   0.420   0.025   0.271
    1UNL    H20   53   0.234   0.114   0.105
    1UNL    H21   54   0.455   0.053  -0.097
    1UNL    H22   55   0.299  -0.030  -0.095
    1UNL    H23   56   0.301   0.177  -0.250
    1UNL    H24   57   0.347   0.409  -0.139
    1UNL    H25   58   0.493   0.310  -0.119
    1UNL    H26   59   0.431   0.407   0.099
    1UNL    H27   60   0.182   0.341   0.189
    1UNL    H28   61   0.187   0.466   0.069
    1UNL    H29   62   0.055   0.022   0.167
    1UNL    H30   63   0.011   0.072  -0.053
    1UNL    H31   64   0.007  -0.230  -0.091
    1UNL    H32   65  -0.106  -0.276  -0.313
    1UNL    H33   66  -0.100  -0.224  -0.557
    1UNL    H34   67   0.017  -0.028  -0.649
    1UNL    H35   68   0.138   0.124  -0.472
    1UNL    H36   69   0.094   0.089  -0.239
   0.00000   0.00000   0.00000   0.00000   0.00000   0.00000   0.00000   0.00000   0.00000
Generated with MDTraj, t= 42.0
 69
    1UNL     C1    1  -0.509   0.014   0.049
    1UNL     C2    2  -0.396   0.074   0.142
    1UNL     C3    3  -0.289   0.149   0.058
    1UNL     C4    4  -0.328  -0.041   0.222
    1UNL     C5    5  -0.284  -0.161   0.140
    1UNL     C6    6  -0.164  -0.203   0.113
    1UNL     C7    7  -0.052  -0.152   0.197
    1UNL     C8    8  -0.099  -0.091   0.335
    1UNL     C9    9  -0.213   0.016   0.312
    1UNL    C10   10   0.064  -0.249   0.236
    1UNL    C11   11   0.159  -0.163   0.147
    1UNL    C12   12   0.296  -0.122   0.207
    1UNL     O1   13   0.306  -0.143   0.327
    1UNL    C13   14   0.404  -0.051   0.122
    1UNL    C14   15   0.352   0.080   0.052
    1UNL    C15   16   0.366   0.084  -0.105
    1UNL    C16   17   0.300   0.212  -0.156
    1UNL    C17   18   0.382   0.331  -0.101
    1UNL    C18   19   0.376   0.323   0.047
    1UNL    C19   20   0.232   0.342   0.099
    1UNL    C20   21   0.134   0.258   0.020
    1UNL     O2   22   0.037   0.214   0.079
    1UNL     O3   23   0.158   0.229  -0.114
    1UNL     O4   24   0.423   0.196   0.094
    1UNL    C21   25   0.045  -0.058   0.118
    1UNL    C22   26   0.020  -0.039  -0.018
    1UNL    C23   27   0.001  -0.129  -0.116
    1UNL    C24   28  -0.012  -0.084  -0.252
    1UNL    C25   29  -0.091  -0.152  -0.349
    1UNL    C26   30  -0.075  -0.133  -0.489
    1UNL    C27   31   0.023  -0.044  -0.528
    1UNL    C28   32   0.091   0.040  -0.438
    1UNL    C29   33   0.071   0.018  -0.300
    1UNL     H1   34  -0.575   0.094   0.017
    1UNL     H2   35  -0.569  -0.063   0.099
    1UNL     H3   36  -0.462  -0.033  -0.038
    1UNL     H4   37  -0.448   0.143   0.216
    1UNL     H5   38  -0.277   0.110  -0.041
    1UNL     H6   39  -0.310   0.257   0.048
    1UNL     H7   40  -0.194   0.149   0.107
    1UNL     H8   41  -0.400  -0.072   0.290
    1UNL     H9   42  -0.359  -0.211   0.082
    1UNL    H10   43  -0.152  -0.289   0.046
    1UNL    H11   44  -0.121  -0.168   0.399
    1UNL    H12   45  -0.010  -0.045   0.380
    1UNL    H13   46  -0.163   0.108   0.279
    1UNL    H14   47  -0.258   0.044   0.411
    1UNL    H15   48   0.043  -0.352   0.194
    1UNL    H16   49   0.091  -0.247   0.338
    1UNL    H17   50   0.187  -0.211   0.050
    1UNL    H18   51   0.467  -0.126   0.064
    1UNL    H19   52   0.470  -0.015   0.205
    1UNL    H20   53   0.254   0.096   0.089
    1UNL    H21   54   0.465   0.083  -0.130
    1UNL    H22   55   0.317  -0.005  -0.146
    1UNL    H23   56   0.299   0.201  -0.262
    1UNL    H24   57   0.336   0.425  -0.137
    1UNL    H25   58   0.491   0.332  -0.127
    1UNL    H26   59   0.441   0.397   0.092
    1UNL    H27   60   0.221   0.318   0.209
    1UNL    H28   61   0.206   0.446   0.089
    1UNL    H29   62   0.066   0.037   0.165
    1UNL    H30   63   0.016   0.069  -0.045
    1UNL    H31   64  -0.007  -0.233  -0.100
    1UNL    H32   65  -0.154  -0.234  -0.331
    1UNL    H33   66  -0.113  -0.202  -0.557
    1UNL    H34   67   0.060  -0.045  -0.624
    1UNL    H35   68   0.154   0.112  -0.480
    1UNL    H36   69   0.118   0.087  -0.231
   0.00000   0.00000   0.00000   0.00000   0.00000   0.00000   0.00000   0.00000   0.00000
Generated with MDTraj, t= 43.0
 69
    1UNL     C1    1  -0.509  -0.001   0.035
    1UNL     C2    2  -0.382   0.055   0.106
    1UNL     C3    3  -0.288   0.117   0.002
    1UNL     C4    4  -0.325  -0.053   0.205
    1UNL     C5    5  -0.274  -0.168   0.122
    1UNL     C6    6  -0.157  -0.227   0.140
    1UNL     C7    7  -0.051  -0.154   0.220
    1UNL     C8    8  -0.111  -0.081   0.346
    1UNL     C9    9  -0.209   0.018   0.285
    1UNL    C10   10   0.082  -0.240   0.261
    1UNL    C11   11   0.162  -0.175   0.145
    1UNL    C12   12   0.282  -0.103   0.196
    1UNL     O1   13   0.290  -0.046   0.303
    1UNL    C13   14   0.396  -0.077   0.102
    1UNL    C14   15   0.370   0.067   0.048
    1UNL    C15   16   0.348   0.081  -0.112
    1UNL    C16   17   0.301   0.220  -0.139
    1UNL    C17   18   0.398   0.319  -0.078
    1UNL    C18   19   0.403   0.303   0.073
    1UNL    C19   20   0.262   0.325   0.136
    1UNL    C20   21   0.146   0.277   0.048
    1UNL     O2   22   0.040   0.267   0.108
    1UNL     O3   23   0.168   0.244  -0.084
    1UNL     O4   24   0.454   0.168   0.110
    1UNL    C21   25   0.049  -0.066   0.124
    1UNL    C22   26   0.017  -0.032  -0.022
    1UNL    C23   27  -0.007  -0.121  -0.121
    1UNL    C24   28  -0.010  -0.088  -0.266
    1UNL    C25   29  -0.082  -0.173  -0.347
    1UNL    C26   30  -0.093  -0.144  -0.480
    1UNL    C27   31  -0.037  -0.033  -0.537
    1UNL    C28   32   0.041   0.047  -0.459
    1UNL    C29   33   0.049   0.023  -0.325
    1UNL     H1   34  -0.574   0.073  -0.016
    1UNL     H2   35  -0.577  -0.048   0.104
    1UNL     H3   36  -0.500  -0.081  -0.039
    1UNL     H4   37  -0.412   0.138   0.174
    1UNL     H5   38  -0.200   0.057  -0.016
    1UNL     H6   39  -0.337   0.134  -0.093
    1UNL     H7   40  -0.252   0.216   0.033
    1UNL     H8   41  -0.392  -0.089   0.275
    1UNL     H9   42  -0.343  -0.209   0.049
    1UNL    H10   43  -0.129  -0.326   0.092
    1UNL    H11   44  -0.151  -0.150   0.416
    1UNL    H12   45  -0.027  -0.037   0.399
    1UNL    H13   46  -0.152   0.090   0.225
    1UNL    H14   47  -0.244   0.083   0.370
    1UNL    H15   48   0.060  -0.350   0.259
    1UNL    H16   49   0.123  -0.201   0.351
    1UNL    H17   50   0.186  -0.254   0.069
    1UNL    H18   51   0.391  -0.160   0.022
    1UNL    H19   52   0.489  -0.087   0.160
    1UNL    H20   53   0.276   0.089   0.094
    1UNL    H21   54   0.441   0.065  -0.165
    1UNL    H22   55   0.281   0.014  -0.148
    1UNL    H23   56   0.307   0.227  -0.245
    1UNL    H24   57   0.372   0.423  -0.105
    1UNL    H25   58   0.502   0.298  -0.111
    1UNL    H26   59   0.472   0.373   0.125
    1UNL    H27   60   0.265   0.276   0.235
    1UNL    H28   61   0.245   0.434   0.154
    1UNL    H29   62   0.072   0.022   0.181
    1UNL    H30   63   0.044   0.066  -0.045
    1UNL    H31   64  -0.024  -0.225  -0.093
    1UNL    H32   65  -0.134  -0.259  -0.299
    1UNL    H33   66  -0.143  -0.223  -0.547
    1UNL    H34   67  -0.034  -0.017  -0.649
    1UNL    H35   68   0.065   0.152  -0.491
    1UNL    H36   69   0.106   0.085  -0.257
   0.00000   0.00000   0.00000   0.00000   0.00000   0.00000   0.00000   0.00000   0.00000
Generated with MDTraj, t= 44.0
 69
    1UNL     C1    1  -0.526  -0.015   0.008
    1UNL     C2    2  -0.392   0.048   0.061
    1UNL     C3    3  -0.308   0.056  -0.068
    1UNL     C4    4  -0.328  -0.042   0.175
    1UNL     C5    5  -0.279  -0.174   0.116
    1UNL     C6    6  -0.156  -0.226   0.135
    1UNL     C7    7  -0.044  -0.153   0.211
    1UNL     C8    8  -0.114  -0.052   0.319
    1UNL     C9    9  -0.220   0.038   0.260
    1UNL    C10   10   0.075  -0.246   0.249
    1UNL    C11   11   0.170  -0.176   0.149
    1UNL    C12   12   0.300  -0.112   0.199
    1UNL     O1   13   0.310  -0.082   0.314
    1UNL    C13   14   0.409  -0.073   0.099
    1UNL    C14   15   0.385   0.075   0.050
    1UNL    C15   16   0.378   0.090  -0.103
    1UNL    C16   17   0.315   0.229  -0.130
    1UNL    C17   18   0.413   0.337  -0.062
    1UNL    C18   19   0.424   0.303   0.091
    1UNL    C19   20   0.283   0.310   0.155
    1UNL    C20   21   0.169   0.299   0.061
    1UNL     O2   22   0.061   0.334   0.103
    1UNL     O3   23   0.180   0.246  -0.066
    1UNL     O4   24   0.478   0.171   0.104
    1UNL    C21   25   0.057  -0.067   0.131
    1UNL    C22   26   0.029  -0.042  -0.013
    1UNL    C23   27  -0.001  -0.129  -0.108
    1UNL    C24   28  -0.026  -0.096  -0.247
    1UNL    C25   29  -0.073  -0.195  -0.332
    1UNL    C26   30  -0.103  -0.168  -0.463
    1UNL    C27   31  -0.097  -0.036  -0.509
    1UNL    C28   32  -0.049   0.062  -0.426
    1UNL    C29   33  -0.006   0.033  -0.299
    1UNL     H1   34  -0.563   0.039  -0.084
    1UNL     H2   35  -0.610  -0.013   0.077
    1UNL     H3   36  -0.521  -0.120  -0.021
    1UNL     H4   37  -0.416   0.151   0.093
    1UNL     H5   38  -0.325  -0.032  -0.132
    1UNL     H6   39  -0.317   0.148  -0.122
    1UNL     H7   40  -0.203   0.048  -0.032
    1UNL     H8   41  -0.406  -0.073   0.238
    1UNL     H9   42  -0.361  -0.235   0.082
    1UNL    H10   43  -0.137  -0.319   0.102
    1UNL    H11   44  -0.162  -0.113   0.398
    1UNL    H12   45  -0.037   0.002   0.370
    1UNL    H13   46  -0.162   0.108   0.199
    1UNL    H14   47  -0.268   0.105   0.336
    1UNL    H15   48   0.061  -0.354   0.226
    1UNL    H16   49   0.113  -0.230   0.348
    1UNL    H17   50   0.195  -0.226   0.052
    1UNL    H18   51   0.414  -0.147   0.009
    1UNL    H19   52   0.500  -0.084   0.158
    1UNL    H20   53   0.287   0.098   0.085
    1UNL    H21   54   0.479   0.079  -0.143
    1UNL    H22   55   0.318   0.017  -0.142
    1UNL    H23   56   0.313   0.254  -0.233
    1UNL    H24   57   0.375   0.440  -0.077
    1UNL    H25   58   0.518   0.339  -0.097
    1UNL    H26   59   0.495   0.374   0.146
    1UNL    H27   60   0.263   0.231   0.228
    1UNL    H28   61   0.279   0.412   0.209
    1UNL    H29   62   0.077   0.025   0.182
    1UNL    H30   63   0.039   0.064  -0.045
    1UNL    H31   64  -0.000  -0.233  -0.080
    1UNL    H32   65  -0.081  -0.294  -0.299
    1UNL    H33   66  -0.137  -0.232  -0.534
    1UNL    H34   67  -0.153  -0.008  -0.593
    1UNL    H35   68  -0.038   0.159  -0.461
    1UNL    H36   69   0.011   0.115  -0.233
   0.00000   0.00000   0.00000   0.00000   0.00000   0.00000   0.00000   0.00000   0.00000
Generated with MDTraj, t= 45.0
 69
    1UNL     C1    1  -0.545  -0.023   0.018
    1UNL     C2    2  -0.390   0.025   0.027
    1UNL     C3    3  -0.317   0.021  -0.112
    1UNL     C4    4  -0.319  -0.055   0.138
    1UNL     C5    5  -0.245  -0.181   0.094
    1UNL     C6    6  -0.121  -0.215   0.126
    1UNL     C7    7  -0.033  -0.130   0.208
    1UNL     C8    8  -0.110  -0.028   0.299
    1UNL     C9    9  -0.225   0.040   0.222
    1UNL    C10   10   0.076  -0.211   0.283
    1UNL    C11   11   0.174  -0.169   0.172
    1UNL    C12   12   0.312  -0.141   0.219
    1UNL     O1   13   0.354  -0.173   0.327
    1UNL    C13   14   0.401  -0.071   0.116
    1UNL    C14   15   0.356   0.073   0.073
    1UNL    C15   16   0.367   0.090  -0.078
    1UNL    C16   17   0.337   0.231  -0.114
    1UNL    C17   18   0.445   0.317  -0.057
    1UNL    C18   19   0.435   0.300   0.097
    1UNL    C19   20   0.297   0.355   0.149
    1UNL    C20   21   0.177   0.316   0.053
    1UNL     O2   22   0.066   0.331   0.103
    1UNL     O3   23   0.200   0.267  -0.077
    1UNL     O4   24   0.447   0.163   0.137
    1UNL    C21   25   0.086  -0.054   0.130
    1UNL    C22   26   0.047  -0.018  -0.018
    1UNL    C23   27   0.014  -0.105  -0.111
    1UNL    C24   28  -0.040  -0.083  -0.247
    1UNL    C25   29  -0.075  -0.195  -0.332
    1UNL    C26   30  -0.124  -0.177  -0.459
    1UNL    C27   31  -0.150  -0.048  -0.498
    1UNL    C28   32  -0.125   0.063  -0.422
    1UNL    C29   33  -0.073   0.048  -0.294
    1UNL     H1   34  -0.598   0.058  -0.042
    1UNL     H2   35  -0.594  -0.031   0.114
    1UNL     H3   36  -0.547  -0.117  -0.035
    1UNL     H4   37  -0.402   0.130   0.049
    1UNL     H5   38  -0.268  -0.077  -0.130
    1UNL     H6   39  -0.376   0.045  -0.198
    1UNL     H7   40  -0.234   0.094  -0.110
    1UNL     H8   41  -0.396  -0.089   0.199
    1UNL     H9   42  -0.286  -0.236   0.011
    1UNL    H10   43  -0.076  -0.309   0.081
    1UNL    H11   44  -0.153  -0.088   0.388
    1UNL    H12   45  -0.042   0.039   0.343
    1UNL    H13   46  -0.179   0.105   0.148
    1UNL    H14   47  -0.269   0.110   0.297
    1UNL    H15   48   0.047  -0.314   0.283
    1UNL    H16   49   0.097  -0.182   0.388
    1UNL    H17   50   0.175  -0.240   0.086
    1UNL    H18   51   0.408  -0.146   0.029
    1UNL    H19   52   0.503  -0.063   0.158
    1UNL    H20   53   0.260   0.106   0.107
    1UNL    H21   54   0.468   0.068  -0.101
    1UNL    H22   55   0.299   0.020  -0.141
    1UNL    H23   56   0.343   0.248  -0.223
    1UNL    H24   57   0.437   0.424  -0.087
    1UNL    H25   58   0.540   0.277  -0.094
    1UNL    H26   59   0.532   0.353   0.132
    1UNL    H27   60   0.292   0.304   0.244
    1UNL    H28   61   0.287   0.470   0.161
    1UNL    H29   62   0.112   0.030   0.190
    1UNL    H30   63   0.023   0.082  -0.044
    1UNL    H31   64   0.039  -0.204  -0.084
    1UNL    H32   65  -0.031  -0.295  -0.311
    1UNL    H33   66  -0.140  -0.266  -0.527
    1UNL    H34   67  -0.188  -0.024  -0.598
    1UNL    H35   68  -0.161   0.163  -0.459
    1UNL    H36   69  -0.042   0.136  -0.237
   0.00000   0.00000   0.00000   0.00000   0.00000   0.00000   0.00000   0.00000   0.00000
Generated with MDTraj, t= 46.0
 69
    1UNL     C1    1  -0.546  -0.081   0.017
    1UNL     C2    2  -0.418   0.007   0.022
    1UNL     C3    3  -0.347   0.036  -0.109
    1UNL     C4    4  -0.325  -0.050   0.131
    1UNL     C5    5  -0.261  -0.177   0.090
    1UNL     C6    6  -0.135  -0.211   0.112
    1UNL     C7    7  -0.041  -0.118   0.197
    1UNL     C8    8  -0.124  -0.013   0.279
    1UNL     C9    9  -0.220   0.054   0.175
    1UNL    C10   10   0.064  -0.199   0.267
    1UNL    C11   11   0.167  -0.168   0.161
    1UNL    C12   12   0.303  -0.142   0.212
    1UNL     O1   13   0.346  -0.189   0.316
    1UNL    C13   14   0.400  -0.065   0.128
    1UNL    C14   15   0.375   0.085   0.086
    1UNL    C15   16   0.379   0.092  -0.067
    1UNL    C16   17   0.358   0.241  -0.123
    1UNL    C17   18   0.462   0.331  -0.049
    1UNL    C18   19   0.442   0.308   0.108
    1UNL    C19   20   0.294   0.336   0.143
    1UNL    C20   21   0.188   0.298   0.045
    1UNL     O2   22   0.073   0.278   0.084
    1UNL     O3   23   0.220   0.279  -0.089
    1UNL     O4   24   0.470   0.176   0.145
    1UNL    C21   25   0.085  -0.042   0.130
    1UNL    C22   26   0.056  -0.008  -0.015
    1UNL    C23   27   0.048  -0.101  -0.110
    1UNL    C24   28  -0.016  -0.082  -0.246
    1UNL    C25   29  -0.052  -0.191  -0.323
    1UNL    C26   30  -0.151  -0.167  -0.420
    1UNL    C27   31  -0.188  -0.041  -0.460
    1UNL    C28   32  -0.145   0.064  -0.384
    1UNL    C29   33  -0.057   0.043  -0.282
    1UNL     H1   34  -0.615  -0.053  -0.065
    1UNL     H2   35  -0.598  -0.072   0.114
    1UNL     H3   36  -0.512  -0.185   0.010
    1UNL     H4   37  -0.445   0.106   0.052
    1UNL     H5   38  -0.332  -0.057  -0.167
    1UNL     H6   39  -0.391   0.110  -0.177
    1UNL     H7   40  -0.245   0.069  -0.089
    1UNL     H8   41  -0.380  -0.069   0.219
    1UNL     H9   42  -0.318  -0.247   0.027
    1UNL    H10   43  -0.090  -0.303   0.069
    1UNL    H11   44  -0.189  -0.068   0.358
    1UNL    H12   45  -0.058   0.053   0.326
    1UNL    H13   46  -0.149   0.086   0.100
    1UNL    H14   47  -0.265   0.146   0.216
    1UNL    H15   48   0.051  -0.304   0.271
    1UNL    H16   49   0.100  -0.161   0.367
    1UNL    H17   50   0.163  -0.246   0.081
    1UNL    H18   51   0.425  -0.126   0.038
    1UNL    H19   52   0.493  -0.073   0.193
    1UNL    H20   53   0.274   0.123   0.112
    1UNL    H21   54   0.472   0.054  -0.105
    1UNL    H22   55   0.298   0.016  -0.114
    1UNL    H23   56   0.371   0.247  -0.236
    1UNL    H24   57   0.441   0.438  -0.075
    1UNL    H25   58   0.561   0.302  -0.080
    1UNL    H26   59   0.519   0.378   0.155
    1UNL    H27   60   0.263   0.275   0.229
    1UNL    H28   61   0.281   0.448   0.165
    1UNL    H29   62   0.122   0.037   0.195
    1UNL    H30   63   0.026   0.093  -0.040
    1UNL    H31   64   0.055  -0.203  -0.068
    1UNL    H32   65  -0.024  -0.291  -0.295
    1UNL    H33   66  -0.162  -0.245  -0.490
    1UNL    H34   67  -0.249  -0.028  -0.552
    1UNL    H35   68  -0.182   0.160  -0.409
    1UNL    H36   69  -0.023   0.122  -0.221
   0.00000   0.00000   0.00000   0.00000   0.00000   0.00000   0.00000   0.00000   0.00000
Generated with MDTraj, t= 47.0
 69
    1UNL     C1    1  -0.549  -0.103   0.003
    1UNL     C2    2  -0.443   0.001   0.040
    1UNL     C3    3  -0.386   0.058  -0.087
    1UNL     C4    4  -0.332  -0.066   0.134
    1UNL     C5    5  -0.247  -0.169   0.070
    1UNL     C6    6  -0.115  -0.185   0.091
    1UNL     C7    7  -0.038  -0.106   0.194
    1UNL     C8    8  -0.127  -0.008   0.275
    1UNL     C9    9  -0.257   0.050   0.206
    1UNL    C10   10   0.070  -0.193   0.269
    1UNL    C11   11   0.183  -0.154   0.165
    1UNL    C12   12   0.320  -0.117   0.215
    1UNL     O1   13   0.345  -0.121   0.333
    1UNL    C13   14   0.416  -0.077   0.113
    1UNL    C14   15   0.394   0.070   0.075
    1UNL    C15   16   0.428   0.087  -0.068
    1UNL    C16   17   0.376   0.225  -0.109
    1UNL    C17   18   0.458   0.323  -0.035
    1UNL    C18   19   0.427   0.305   0.115
    1UNL    C19   20   0.274   0.329   0.144
    1UNL    C20   21   0.187   0.265   0.034
    1UNL     O2   22   0.073   0.251   0.073
    1UNL     O3   23   0.230   0.227  -0.091
    1UNL     O4   24   0.461   0.169   0.160
    1UNL    C21   25   0.085  -0.034   0.126
    1UNL    C22   26   0.062  -0.012  -0.028
    1UNL    C23   27   0.060  -0.102  -0.130
    1UNL    C24   28  -0.019  -0.081  -0.248
    1UNL    C25   29  -0.087  -0.186  -0.315
    1UNL    C26   30  -0.171  -0.157  -0.422
    1UNL    C27   31  -0.197  -0.027  -0.451
    1UNL    C28   32  -0.124   0.080  -0.397
    1UNL    C29   33  -0.041   0.050  -0.291
    1UNL     H1   34  -0.632  -0.072  -0.060
    1UNL     H2   35  -0.599  -0.152   0.090
    1UNL     H3   36  -0.496  -0.187  -0.045
    1UNL     H4   37  -0.475   0.085   0.093
    1UNL     H5   38  -0.311  -0.015  -0.122
    1UNL     H6   39  -0.465   0.060  -0.164
    1UNL     H7   40  -0.343   0.158  -0.080
    1UNL     H8   41  -0.386  -0.118   0.211
    1UNL     H9   42  -0.300  -0.244   0.020
    1UNL    H10   43  -0.067  -0.265   0.051
    1UNL    H11   44  -0.163  -0.068   0.366
    1UNL    H12   45  -0.057   0.066   0.309
    1UNL    H13   46  -0.227   0.115   0.125
    1UNL    H14   47  -0.311   0.113   0.279
    1UNL    H15   48   0.044  -0.296   0.276
    1UNL    H16   49   0.091  -0.148   0.371
    1UNL    H17   50   0.188  -0.237   0.090
    1UNL    H18   51   0.399  -0.144   0.029
    1UNL    H19   52   0.527  -0.086   0.141
    1UNL    H20   53   0.286   0.095   0.098
    1UNL    H21   54   0.542   0.074  -0.083
    1UNL    H22   55   0.390   0.005  -0.138
    1UNL    H23   56   0.385   0.239  -0.224
    1UNL    H24   57   0.427   0.424  -0.069
    1UNL    H25   58   0.562   0.297  -0.051
    1UNL    H26   59   0.487   0.367   0.182
    1UNL    H27   60   0.242   0.283   0.242
    1UNL    H28   61   0.240   0.437   0.149
    1UNL    H29   62   0.112   0.061   0.171
    1UNL    H30   63   0.016   0.082  -0.056
    1UNL    H31   64   0.090  -0.202  -0.122
    1UNL    H32   65  -0.073  -0.292  -0.303
    1UNL    H33   66  -0.228  -0.233  -0.474
    1UNL    H34   67  -0.258  -0.008  -0.531
    1UNL    H35   68  -0.137   0.185  -0.425
    1UNL    H36   69  -0.002   0.134  -0.232
   0.00000   0.00000   0.00000   0.00000   0.00000   0.00000   0.00000   0.00000   0.00000
Generated with MDTraj, t= 48.0
 69
    1UNL     C1    1  -0.535  -0.114   0.021
    1UNL     C2    2  -0.430  -0.012   0.056
    1UNL     C3    3  -0.398   0.074  -0.074
    1UNL     C4    4  -0.316  -0.077   0.150
    1UNL     C5    5  -0.240  -0.183   0.082
    1UNL     C6    6  -0.115  -0.211   0.110
    1UNL     C7    7  -0.036  -0.132   0.204
    1UNL     C8    8  -0.113  -0.031   0.291
    1UNL     C9    9  -0.218   0.030   0.205
    1UNL    C10   10   0.070  -0.215   0.270
    1UNL    C11   11   0.178  -0.161   0.165
    1UNL    C12   12   0.303  -0.097   0.225
    1UNL     O1   13   0.300  -0.049   0.335
    1UNL    C13   14   0.417  -0.076   0.134
    1UNL    C14   15   0.403   0.062   0.069
    1UNL    C15   16   0.435   0.081  -0.075
    1UNL    C16   17   0.391   0.224  -0.114
    1UNL    C17   18   0.453   0.326  -0.022
    1UNL    C18   19   0.414   0.289   0.119
    1UNL    C19   20   0.266   0.288   0.143
    1UNL    C20   21   0.185   0.268   0.013
    1UNL     O2   22   0.065   0.286   0.020
    1UNL     O3   23   0.246   0.234  -0.106
    1UNL     O4   24   0.462   0.160   0.156
    1UNL    C21   25   0.077  -0.050   0.128
    1UNL    C22   26   0.047  -0.013  -0.014
    1UNL    C23   27   0.040  -0.101  -0.117
    1UNL    C24   28  -0.034  -0.062  -0.249
    1UNL    C25   29  -0.120  -0.154  -0.304
    1UNL    C26   30  -0.187  -0.135  -0.418
    1UNL    C27   31  -0.176  -0.014  -0.483
    1UNL    C28   32  -0.090   0.079  -0.435
    1UNL    C29   33  -0.020   0.061  -0.314
    1UNL     H1   34  -0.632  -0.072   0.008
    1UNL     H2   35  -0.558  -0.199   0.093
    1UNL     H3   36  -0.503  -0.168  -0.072
    1UNL     H4   37  -0.475   0.061   0.115
    1UNL     H5   38  -0.387   0.005  -0.157
    1UNL     H6   39  -0.482   0.143  -0.105
    1UNL     H7   40  -0.309   0.134  -0.060
    1UNL     H8   41  -0.379  -0.120   0.228
    1UNL     H9   42  -0.296  -0.236   0.002
    1UNL    H10   43  -0.072  -0.302   0.056
    1UNL    H11   44  -0.159  -0.095   0.370
    1UNL    H12   45  -0.048   0.047   0.339
    1UNL    H13   46  -0.174   0.078   0.118
    1UNL    H14   47  -0.282   0.107   0.248
    1UNL    H15   48   0.038  -0.318   0.257
    1UNL    H16   49   0.092  -0.186   0.377
    1UNL    H17   50   0.194  -0.237   0.085
    1UNL    H18   51   0.429  -0.152   0.060
    1UNL    H19   52   0.510  -0.082   0.202
    1UNL    H20   53   0.291   0.079   0.076
    1UNL    H21   54   0.555   0.070  -0.093
    1UNL    H22   55   0.399  -0.001  -0.138
    1UNL    H23   56   0.414   0.246  -0.226
    1UNL    H24   57   0.411   0.427  -0.035
    1UNL    H25   58   0.561   0.319  -0.033
    1UNL    H26   59   0.451   0.350   0.199
    1UNL    H27   60   0.232   0.206   0.217
    1UNL    H28   61   0.240   0.384   0.194
    1UNL    H29   62   0.113   0.043   0.172
    1UNL    H30   63   0.023   0.085  -0.045
    1UNL    H31   64   0.078  -0.204  -0.111
    1UNL    H32   65  -0.126  -0.247  -0.247
    1UNL    H33   66  -0.251  -0.214  -0.459
    1UNL    H34   67  -0.244   0.021  -0.571
    1UNL    H35   68  -0.073   0.171  -0.488
    1UNL    H36   69   0.031   0.135  -0.256
   0.00000   0.00000   0.00000   0.00000   0.00000   0.00000   0.00000   0.00000   0.00000
Generated with MDTraj, t= 49.0
 69
    1UNL     C1    1  -0.557  -0.085   0.032
    1UNL     C2    2  -0.429  -0.011   0.071
    1UNL     C3    3  -0.352   0.040  -0.050
    1UNL     C4    4  -0.338  -0.095   0.167
    1UNL     C5    5  -0.265  -0.210   0.103
    1UNL     C6    6  -0.134  -0.222   0.113
    1UNL     C7    7  -0.044  -0.146   0.206
    1UNL     C8    8  -0.121  -0.071   0.317
    1UNL     C9    9  -0.238  -0.001   0.252
    1UNL    C10   10   0.075  -0.234   0.250
    1UNL    C11   11   0.168  -0.159   0.158
    1UNL    C12   12   0.290  -0.107   0.228
    1UNL     O1   13   0.303  -0.096   0.346
    1UNL    C13   14   0.407  -0.059   0.137
    1UNL    C14   15   0.389   0.074   0.063
    1UNL    C15   16   0.456   0.092  -0.070
    1UNL    C16   17   0.411   0.227  -0.123
    1UNL    C17   18   0.473   0.338  -0.041
    1UNL    C18   19   0.407   0.320   0.105
    1UNL    C19   20   0.261   0.344   0.101
    1UNL    C20   21   0.195   0.293  -0.017
    1UNL     O2   22   0.074   0.307  -0.020
    1UNL     O3   23   0.266   0.234  -0.120
    1UNL     O4   24   0.430   0.181   0.148
    1UNL    C21   25   0.061  -0.057   0.130
    1UNL    C22   26   0.032  -0.023  -0.013
    1UNL    C23   27  -0.007  -0.109  -0.106
    1UNL    C24   28  -0.035  -0.081  -0.242
    1UNL    C25   29  -0.145  -0.145  -0.309
    1UNL    C26   30  -0.194  -0.091  -0.427
    1UNL    C27   31  -0.125   0.015  -0.492
    1UNL    C28   32  -0.026   0.081  -0.419
    1UNL    C29   33   0.019   0.030  -0.300
    1UNL     H1   34  -0.604  -0.032  -0.048
    1UNL     H2   35  -0.635  -0.085   0.113
    1UNL     H3   36  -0.525  -0.189   0.004
    1UNL     H4   37  -0.457   0.072   0.127
    1UNL     H5   38  -0.282  -0.034  -0.081
    1UNL     H6   39  -0.408   0.058  -0.147
    1UNL     H7   40  -0.295   0.132  -0.035
    1UNL     H8   41  -0.410  -0.131   0.241
    1UNL     H9   42  -0.320  -0.284   0.051
    1UNL    H10   43  -0.088  -0.303   0.060
    1UNL    H11   44  -0.155  -0.141   0.392
    1UNL    H12   45  -0.045   0.002   0.366
    1UNL    H13   46  -0.208   0.069   0.175
    1UNL    H14   47  -0.293   0.062   0.320
    1UNL    H15   48   0.069  -0.342   0.226
    1UNL    H16   49   0.103  -0.214   0.355
    1UNL    H17   50   0.183  -0.220   0.066
    1UNL    H18   51   0.417  -0.141   0.067
    1UNL    H19   52   0.503  -0.059   0.195
    1UNL    H20   53   0.278   0.086   0.044
    1UNL    H21   54   0.568   0.079  -0.061
    1UNL    H22   55   0.429   0.007  -0.135
    1UNL    H23   56   0.428   0.237  -0.236
    1UNL    H24   57   0.449   0.434  -0.088
    1UNL    H25   58   0.581   0.325  -0.033
    1UNL    H26   59   0.445   0.379   0.184
    1UNL    H27   60   0.215   0.289   0.195
    1UNL    H28   61   0.232   0.450   0.112
    1UNL    H29   62   0.089   0.031   0.189
    1UNL    H30   63   0.037   0.082  -0.049
    1UNL    H31   64  -0.004  -0.217  -0.098
    1UNL    H32   65  -0.201  -0.223  -0.266
    1UNL    H33   66  -0.265  -0.141  -0.486
    1UNL    H34   67  -0.163   0.045  -0.583
    1UNL    H35   68   0.007   0.177  -0.453
    1UNL    H36   69   0.110   0.071  -0.255
   0.00000   0.00000   0.00000   0.00000   0.00000   0.00000   0.00000   0.00000   0.00000
Generated with MDTraj, t= 50.0
 69
    1UNL     C1    1  -0.545  -0.058   0.033
    1UNL     C2    2  -0.411  -0.012   0.099
    1UNL     C3    3  -0.307   0.013  -0.009
    1UNL     C4    4  -0.352  -0.104   0.205
    1UNL     C5    5  -0.284  -0.228   0.145
    1UNL     C6    6  -0.153  -0.253   0.136
    1UNL     C7    7  -0.054  -0.173   0.222
    1UNL     C8    8  -0.139  -0.109   0.343
    1UNL     C9    9  -0.248  -0.020   0.295
    1UNL    C10   10   0.067  -0.251   0.259
    1UNL    C11   11   0.162  -0.169   0.164
    1UNL    C12   12   0.282  -0.111   0.226
    1UNL     O1   13   0.292  -0.129   0.345
    1UNL    C13   14   0.386  -0.044   0.137
    1UNL    C14   15   0.349   0.088   0.066
    1UNL    C15   16   0.416   0.087  -0.076
    1UNL    C16   17   0.419   0.230  -0.131
    1UNL    C17   18   0.482   0.331  -0.042
    1UNL    C18   19   0.389   0.330   0.083
    1UNL    C19   20   0.249   0.366   0.057
    1UNL    C20   21   0.200   0.291  -0.065
    1UNL     O2   22   0.084   0.260  -0.073
    1UNL     O3   23   0.287   0.269  -0.172
    1UNL     O4   24   0.400   0.204   0.148
    1UNL    C21   25   0.045  -0.071   0.144
    1UNL    C22   26   0.018  -0.026   0.004
    1UNL    C23   27  -0.002  -0.102  -0.101
    1UNL    C24   28  -0.030  -0.045  -0.242
    1UNL    C25   29  -0.138  -0.099  -0.315
    1UNL    C26   30  -0.161  -0.057  -0.448
    1UNL    C27   31  -0.080   0.038  -0.507
    1UNL    C28   32   0.025   0.092  -0.434
    1UNL    C29   33   0.054   0.046  -0.310
    1UNL     H1   34  -0.584   0.017  -0.035
    1UNL     H2   35  -0.620  -0.070   0.114
    1UNL     H3   36  -0.522  -0.155  -0.016
    1UNL     H4   37  -0.423   0.078   0.151
    1UNL     H5   38  -0.320  -0.065  -0.082
    1UNL     H6   39  -0.321   0.107  -0.067
    1UNL     H7   40  -0.204   0.013   0.027
    1UNL     H8   41  -0.425  -0.130   0.284
    1UNL     H9   42  -0.346  -0.300   0.094
    1UNL    H10   43  -0.116  -0.332   0.081
    1UNL    H11   44  -0.189  -0.190   0.393
    1UNL    H12   45  -0.066  -0.058   0.421
    1UNL    H13   46  -0.206   0.068   0.246
    1UNL    H14   47  -0.311   0.021   0.372
    1UNL    H15   48   0.062  -0.364   0.243
    1UNL    H16   49   0.093  -0.239   0.363
    1UNL    H17   50   0.188  -0.222   0.070
    1UNL    H18   51   0.415  -0.120   0.062
    1UNL    H19   52   0.473  -0.028   0.200
    1UNL    H20   53   0.238   0.088   0.054
    1UNL    H21   54   0.507   0.044  -0.072
    1UNL    H22   55   0.365   0.017  -0.148
    1UNL    H23   56   0.470   0.232  -0.229
    1UNL    H24   57   0.488   0.429  -0.091
    1UNL    H25   58   0.585   0.306  -0.013
    1UNL    H26   59   0.437   0.409   0.138
    1UNL    H27   60   0.189   0.339   0.152
    1UNL    H28   61   0.244   0.476   0.045
    1UNL    H29   62   0.056   0.021   0.204
    1UNL    H30   63   0.011   0.076  -0.022
    1UNL    H31   64  -0.003  -0.206  -0.092
    1UNL    H32   65  -0.188  -0.190  -0.273
    1UNL    H33   66  -0.254  -0.100  -0.494
    1UNL    H34   67  -0.096   0.065  -0.613
    1UNL    H35   68   0.085   0.171  -0.479
    1UNL    H36   69   0.138   0.076  -0.252
   0.00000   0.00000   0.00000   0.00000   0.00000   0.00000   0.00000   0.00000   0.00000
Generated with MDTraj, t= 51.0
 69
    1UNL     C1    1  -0.538  -0.052   0.061
    1UNL     C2    2  -0.415   0.004   0.126
    1UNL     C3    3  -0.317   0.058   0.018
    1UNL     C4    4  -0.349  -0.110   0.215
    1UNL     C5    5  -0.281  -0.209   0.129
    1UNL     C6    6  -0.153  -0.245   0.137
    1UNL     C7    7  -0.046  -0.181   0.223
    1UNL     C8    8  -0.130  -0.148   0.350
    1UNL     C9    9  -0.245  -0.050   0.320
    1UNL    C10   10   0.088  -0.267   0.249
    1UNL    C11   11   0.158  -0.168   0.150
    1UNL    C12   12   0.271  -0.097   0.210
    1UNL     O1   13   0.271  -0.067   0.326
    1UNL    C13   14   0.385  -0.058   0.129
    1UNL    C14   15   0.354   0.071   0.052
    1UNL    C15   16   0.434   0.076  -0.075
    1UNL    C16   17   0.413   0.213  -0.138
    1UNL    C17   18   0.458   0.324  -0.042
    1UNL    C18   19   0.360   0.315   0.082
    1UNL    C19   20   0.221   0.345   0.031
    1UNL    C20   21   0.183   0.287  -0.097
    1UNL     O2   22   0.066   0.290  -0.130
    1UNL     O3   23   0.277   0.233  -0.181
    1UNL     O4   24   0.376   0.184   0.137
    1UNL    C21   25   0.035  -0.069   0.150
    1UNL    C22   26  -0.003  -0.023   0.014
    1UNL    C23   27  -0.012  -0.099  -0.094
    1UNL    C24   28  -0.027  -0.046  -0.228
    1UNL    C25   29  -0.115  -0.091  -0.323
    1UNL    C26   30  -0.108  -0.047  -0.458
    1UNL    C27   31  -0.026   0.059  -0.487
    1UNL    C28   32   0.070   0.101  -0.390
    1UNL    C29   33   0.070   0.042  -0.266
    1UNL     H1   34  -0.611   0.026   0.028
    1UNL     H2   35  -0.600  -0.112   0.128
    1UNL     H3   36  -0.513  -0.114  -0.024
    1UNL     H4   37  -0.441   0.082   0.190
    1UNL     H5   38  -0.283  -0.030  -0.038
    1UNL     H6   39  -0.370   0.124  -0.052
    1UNL     H7   40  -0.236   0.114   0.070
    1UNL     H8   41  -0.433  -0.149   0.279
    1UNL     H9   42  -0.340  -0.253   0.049
    1UNL    H10   43  -0.116  -0.332   0.069
    1UNL    H11   44  -0.167  -0.241   0.389
    1UNL    H12   45  -0.062  -0.092   0.428
    1UNL    H13   46  -0.209   0.034   0.263
    1UNL    H14   47  -0.282  -0.010   0.412
    1UNL    H15   48   0.075  -0.378   0.220
    1UNL    H16   49   0.136  -0.269   0.345
    1UNL    H17   50   0.181  -0.229   0.059
    1UNL    H18   51   0.396  -0.139   0.053
    1UNL    H19   52   0.477  -0.048   0.179
    1UNL    H20   53   0.247   0.071   0.023
    1UNL    H21   54   0.532   0.053  -0.055
    1UNL    H22   55   0.407  -0.002  -0.149
    1UNL    H23   56   0.472   0.222  -0.227
    1UNL    H24   57   0.455   0.425  -0.083
    1UNL    H25   58   0.563   0.311  -0.012
    1UNL    H26   59   0.388   0.387   0.163
    1UNL    H27   60   0.158   0.304   0.116
    1UNL    H28   61   0.197   0.456   0.028
    1UNL    H29   62   0.051   0.019   0.215
    1UNL    H30   63  -0.015   0.084  -0.013
    1UNL    H31   64   0.002  -0.209  -0.089
    1UNL    H32   65  -0.186  -0.162  -0.294
    1UNL    H33   66  -0.185  -0.076  -0.523
    1UNL    H34   67  -0.036   0.126  -0.572
    1UNL    H35   68   0.139   0.179  -0.418
    1UNL    H36   69   0.134   0.088  -0.193
   0.00000   0.00000   0.00000   0.00000   0.00000   0.00000   0.00000   0.00000   0.00000
Generated with MDTraj, t= 52.0
 69
    1UNL     C1    1  -0.557  -0.047   0.075
    1UNL     C2    2  -0.436   0.004   0.151
    1UNL     C3    3  -0.355   0.107   0.070
    1UNL     C4    4  -0.343  -0.110   0.218
    1UNL     C5    5  -0.285  -0.207   0.121
    1UNL     C6    6  -0.159  -0.253   0.125
    1UNL     C7    7  -0.053  -0.194   0.215
    1UNL     C8    8  -0.123  -0.155   0.352
    1UNL     C9    9  -0.239  -0.050   0.327
    1UNL    C10   10   0.084  -0.273   0.241
    1UNL    C11   11   0.155  -0.168   0.153
    1UNL    C12   12   0.276  -0.092   0.207
    1UNL     O1   13   0.268  -0.046   0.317
    1UNL    C13   14   0.397  -0.061   0.122
    1UNL    C14   15   0.377   0.076   0.052
    1UNL    C15   16   0.445   0.089  -0.078
    1UNL    C16   17   0.407   0.224  -0.139
    1UNL    C17   18   0.431   0.340  -0.042
    1UNL    C18   19   0.348   0.305   0.084
    1UNL    C19   20   0.200   0.297   0.041
    1UNL    C20   21   0.181   0.285  -0.112
    1UNL     O2   22   0.084   0.338  -0.158
    1UNL     O3   23   0.276   0.220  -0.190
    1UNL     O4   24   0.400   0.186   0.140
    1UNL    C21   25   0.022  -0.079   0.147
    1UNL    C22   26  -0.014  -0.036   0.012
    1UNL    C23   27  -0.017  -0.114  -0.097
    1UNL    C24   28  -0.015  -0.068  -0.235
    1UNL    C25   29  -0.102  -0.101  -0.339
    1UNL    C26   30  -0.091  -0.041  -0.464
    1UNL    C27   31   0.005   0.056  -0.488
    1UNL    C28   32   0.090   0.089  -0.385
    1UNL    C29   33   0.074   0.034  -0.258
    1UNL     H1   34  -0.619   0.033   0.022
    1UNL     H2   35  -0.632  -0.098   0.132
    1UNL     H3   36  -0.526  -0.113  -0.004
    1UNL     H4   37  -0.482   0.055   0.231
    1UNL     H5   38  -0.301   0.062  -0.015
    1UNL     H6   39  -0.420   0.181   0.024
    1UNL     H7   40  -0.286   0.165   0.135
    1UNL     H8   41  -0.424  -0.162   0.278
    1UNL     H9   42  -0.364  -0.257   0.069
    1UNL    H10   43  -0.140  -0.339   0.070
    1UNL    H11   44  -0.180  -0.240   0.387
    1UNL    H12   45  -0.047  -0.119   0.430
    1UNL    H13   46  -0.192   0.046   0.307
    1UNL    H14   47  -0.301  -0.034   0.412
    1UNL    H15   48   0.087  -0.382   0.205
    1UNL    H16   49   0.106  -0.268   0.346
    1UNL    H17   50   0.162  -0.209   0.052
    1UNL    H18   51   0.423  -0.143   0.051
    1UNL    H19   52   0.478  -0.045   0.185
    1UNL    H20   53   0.270   0.075   0.028
    1UNL    H21   54   0.554   0.069  -0.075
    1UNL    H22   55   0.410   0.013  -0.138
    1UNL    H23   56   0.472   0.243  -0.220
    1UNL    H24   57   0.404   0.435  -0.086
    1UNL    H25   58   0.533   0.357  -0.005
    1UNL    H26   59   0.365   0.378   0.170
    1UNL    H27   60   0.149   0.214   0.090
    1UNL    H28   61   0.152   0.387   0.094
    1UNL    H29   62   0.036   0.011   0.210
    1UNL    H30   63  -0.034   0.067  -0.003
    1UNL    H31   64  -0.005  -0.218  -0.089
    1UNL    H32   65  -0.191  -0.161  -0.306
    1UNL    H33   66  -0.153  -0.086  -0.546
    1UNL    H34   67   0.013   0.106  -0.581
    1UNL    H35   68   0.159   0.172  -0.383
    1UNL    H36   69   0.154   0.054  -0.187
   0.00000   0.00000   0.00000   0.00000   0.00000   0.00000   0.00000   0.00000   0.00000
Generated with MDTraj, t= 53.0
 69
    1UNL     C1    1  -0.554  -0.070   0.103
    1UNL     C2    2  -0.431  -0.003   0.179
    1UNL     C3    3  -0.361   0.089   0.082
    1UNL     C4    4  -0.347  -0.114   0.244
    1UNL     C5    5  -0.301  -0.220   0.144
    1UNL     C6    6  -0.173  -0.243   0.125
    1UNL     C7    7  -0.063  -0.176   0.204
    1UNL     C8    8  -0.110  -0.132   0.346
    1UNL     C9    9  -0.233  -0.044   0.336
    1UNL    C10   10   0.061  -0.268   0.229
    1UNL    C11   11   0.145  -0.165   0.145
    1UNL    C12   12   0.268  -0.111   0.215
    1UNL     O1   13   0.268  -0.105   0.334
    1UNL    C13   14   0.377  -0.063   0.126
    1UNL    C14   15   0.344   0.072   0.051
    1UNL    C15   16   0.437   0.095  -0.075
    1UNL    C16   17   0.430   0.242  -0.129
    1UNL    C17   18   0.458   0.339  -0.014
    1UNL    C18   19   0.352   0.315   0.093
    1UNL    C19   20   0.217   0.357   0.029
    1UNL    C20   21   0.201   0.301  -0.111
    1UNL     O2   22   0.090   0.311  -0.156
    1UNL     O3   23   0.302   0.248  -0.187
    1UNL     O4   24   0.353   0.183   0.147
    1UNL    C21   25   0.027  -0.067   0.131
    1UNL    C22   26   0.002  -0.013  -0.004
    1UNL    C23   27  -0.005  -0.101  -0.105
    1UNL    C24   28  -0.003  -0.059  -0.250
    1UNL    C25   29  -0.091  -0.115  -0.340
    1UNL    C26   30  -0.100  -0.069  -0.472
    1UNL    C27   31  -0.002   0.029  -0.518
    1UNL    C28   32   0.080   0.088  -0.429
    1UNL    C29   33   0.083   0.041  -0.297
    1UNL     H1   34  -0.630   0.006   0.070
    1UNL     H2   35  -0.606  -0.138   0.167
    1UNL     H3   36  -0.516  -0.122   0.016
    1UNL     H4   37  -0.468   0.051   0.262
    1UNL     H5   38  -0.324   0.039  -0.012
    1UNL     H6   39  -0.434   0.156   0.040
    1UNL     H7   40  -0.279   0.150   0.121
    1UNL     H8   41  -0.406  -0.172   0.322
    1UNL     H9   42  -0.376  -0.270   0.083
    1UNL    H10   43  -0.157  -0.311   0.045
    1UNL    H11   44  -0.121  -0.217   0.417
    1UNL    H12   45  -0.025  -0.073   0.391
    1UNL    H13   46  -0.212   0.057   0.305
    1UNL    H14   47  -0.259  -0.027   0.439
    1UNL    H15   48   0.059  -0.366   0.175
    1UNL    H16   49   0.094  -0.290   0.334
    1UNL    H17   50   0.168  -0.213   0.048
    1UNL    H18   51   0.387  -0.141   0.052
    1UNL    H19   52   0.467  -0.050   0.180
    1UNL    H20   53   0.239   0.063   0.026
    1UNL    H21   54   0.543   0.058  -0.048
    1UNL    H22   55   0.415   0.031  -0.149
    1UNL    H23   56   0.503   0.256  -0.205
    1UNL    H24   57   0.459   0.445  -0.033
    1UNL    H25   58   0.556   0.317   0.029
    1UNL    H26   59   0.365   0.379   0.188
    1UNL    H27   60   0.139   0.323   0.095
    1UNL    H28   61   0.203   0.473   0.029
    1UNL    H29   62   0.050   0.024   0.191
    1UNL    H30   63   0.002   0.096  -0.021
    1UNL    H31   64  -0.013  -0.208  -0.086
    1UNL    H32   65  -0.146  -0.197  -0.303
    1UNL    H33   66  -0.165  -0.114  -0.539
    1UNL    H34   67   0.003   0.037  -0.629
    1UNL    H35   68   0.162   0.148  -0.469
    1UNL    H36   69   0.152   0.094  -0.233
   0.00000   0.00000   0.00000   0.00000   0.00000   0.00000   0.00000   0.00000   0.00000
Generated with MDTraj, t= 54.0
 69
    1UNL     C1    1  -0.572  -0.058   0.160
    1UNL     C2    2  -0.439   0.002   0.190
    1UNL     C3    3  -0.383   0.057   0.061
    1UNL     C4    4  -0.353  -0.110   0.247
    1UNL     C5    5  -0.305  -0.207   0.145
    1UNL     C6    6  -0.177  -0.224   0.112
    1UNL     C7    7  -0.060  -0.165   0.194
    1UNL     C8    8  -0.103  -0.107   0.333
    1UNL     C9    9  -0.237  -0.042   0.321
    1UNL    C10   10   0.060  -0.262   0.213
    1UNL    C11   11   0.149  -0.159   0.137
    1UNL    C12   12   0.265  -0.121   0.221
    1UNL     O1   13   0.281  -0.155   0.337
    1UNL    C13   14   0.384  -0.052   0.145
    1UNL    C14   15   0.349   0.075   0.056
    1UNL    C15   16   0.453   0.106  -0.058
    1UNL    C16   17   0.449   0.253  -0.110
    1UNL    C17   18   0.467   0.354   0.007
    1UNL    C18   19   0.352   0.321   0.107
    1UNL    C19   20   0.219   0.366   0.031
    1UNL    C20   21   0.213   0.296  -0.098
    1UNL     O2   22   0.098   0.266  -0.125
    1UNL     O3   23   0.324   0.273  -0.181
    1UNL     O4   24   0.355   0.186   0.153
    1UNL    C21   25   0.033  -0.057   0.122
    1UNL    C22   26  -0.001  -0.018  -0.021
    1UNL    C23   27   0.006  -0.092  -0.129
    1UNL    C24   28  -0.014  -0.050  -0.262
    1UNL    C25   29  -0.088  -0.131  -0.348
    1UNL    C26   30  -0.091  -0.107  -0.484
    1UNL    C27   31  -0.025   0.004  -0.541
    1UNL    C28   32   0.052   0.078  -0.456
    1UNL    C29   33   0.055   0.060  -0.318
    1UNL     H1   34  -0.644   0.017   0.129
    1UNL     H2   35  -0.607  -0.100   0.254
    1UNL     H3   36  -0.563  -0.135   0.082
    1UNL     H4   37  -0.455   0.076   0.266
    1UNL     H5   38  -0.355  -0.027  -0.007
    1UNL     H6   39  -0.458   0.112   0.005
    1UNL     H7   40  -0.293   0.111   0.088
    1UNL     H8   41  -0.411  -0.172   0.321
    1UNL     H9   42  -0.376  -0.246   0.074
    1UNL    H10   43  -0.152  -0.268   0.008
    1UNL    H11   44  -0.107  -0.196   0.402
    1UNL    H12   45  -0.025  -0.044   0.373
    1UNL    H13   46  -0.210   0.057   0.285
    1UNL    H14   47  -0.276  -0.011   0.416
    1UNL    H15   48   0.048  -0.360   0.166
    1UNL    H16   49   0.092  -0.282   0.320
    1UNL    H17   50   0.174  -0.195   0.036
    1UNL    H18   51   0.428  -0.122   0.080
    1UNL    H19   52   0.454  -0.026   0.225
    1UNL    H20   53   0.248   0.068   0.017
    1UNL    H21   54   0.557   0.069  -0.034
    1UNL    H22   55   0.430   0.042  -0.143
    1UNL    H23   56   0.524   0.263  -0.190
    1UNL    H24   57   0.460   0.456  -0.027
    1UNL    H25   58   0.564   0.349   0.056
    1UNL    H26   59   0.357   0.381   0.205
    1UNL    H27   60   0.122   0.346   0.079
    1UNL    H28   61   0.218   0.480   0.013
    1UNL    H29   62   0.039   0.037   0.183
    1UNL    H30   63  -0.027   0.084  -0.036
    1UNL    H31   64   0.049  -0.192  -0.122
    1UNL    H32   65  -0.119  -0.225  -0.300
    1UNL    H33   66  -0.169  -0.167  -0.540
    1UNL    H34   67  -0.033   0.011  -0.646
    1UNL    H35   68   0.119   0.153  -0.499
    1UNL    H36   69   0.115   0.130  -0.262
   0.00000   0.00000   0.00000   0.00000   0.00000   0.00000   0.00000   0.00000   0.00000
Generated with MDTraj, t= 55.0
 69
    1UNL     C1    1  -0.593  -0.050   0.210
    1UNL     C2    2  -0.450   0.010   0.188
    1UNL     C3    3  -0.439   0.071   0.040
    1UNL     C4    4  -0.329  -0.081   0.226
    1UNL     C5    5  -0.296  -0.174   0.116
    1UNL     C6    6  -0.171  -0.217   0.094
    1UNL     C7    7  -0.051  -0.167   0.170
    1UNL     C8    8  -0.098  -0.106   0.305
    1UNL     C9    9  -0.211  -0.007   0.294
    1UNL    C10   10   0.068  -0.262   0.186
    1UNL    C11   11   0.170  -0.157   0.127
    1UNL    C12   12   0.275  -0.101   0.211
    1UNL     O1   13   0.264  -0.095   0.331
    1UNL    C13   14   0.409  -0.058   0.137
    1UNL    C14   15   0.395   0.085   0.076
    1UNL    C15   16   0.489   0.124  -0.033
    1UNL    C16   17   0.447   0.259  -0.085
    1UNL    C17   18   0.443   0.371   0.023
    1UNL    C18   19   0.363   0.315   0.135
    1UNL    C19   20   0.219   0.322   0.089
    1UNL    C20   21   0.206   0.278  -0.063
    1UNL     O2   22   0.094   0.267  -0.113
    1UNL     O3   23   0.315   0.250  -0.147
    1UNL     O4   24   0.403   0.187   0.180
    1UNL    C21   25   0.041  -0.064   0.099
    1UNL    C22   26   0.009  -0.030  -0.043
    1UNL    C23   27  -0.013  -0.119  -0.138
    1UNL    C24   28  -0.027  -0.080  -0.280
    1UNL    C25   29  -0.071  -0.172  -0.372
    1UNL    C26   30  -0.101  -0.140  -0.499
    1UNL    C27   31  -0.058  -0.020  -0.546
    1UNL    C28   32   0.009   0.075  -0.459
    1UNL    C29   33   0.018   0.047  -0.324
    1UNL     H1   34  -0.670   0.010   0.170
    1UNL     H2   35  -0.619  -0.065   0.315
    1UNL     H3   36  -0.606  -0.147   0.160
    1UNL     H4   37  -0.454   0.093   0.257
    1UNL     H5   38  -0.463  -0.006  -0.034
    1UNL     H6   39  -0.515   0.147   0.020
    1UNL     H7   40  -0.336   0.103   0.027
    1UNL     H8   41  -0.378  -0.154   0.296
    1UNL     H9   42  -0.372  -0.217   0.053
    1UNL    H10   43  -0.145  -0.287   0.026
    1UNL    H11   44  -0.123  -0.184   0.386
    1UNL    H12   45  -0.011  -0.062   0.345
    1UNL    H13   46  -0.193   0.088   0.243
    1UNL    H14   47  -0.227   0.031   0.393
    1UNL    H15   48   0.062  -0.350   0.124
    1UNL    H16   49   0.092  -0.289   0.295
    1UNL    H17   50   0.205  -0.191   0.029
    1UNL    H18   51   0.436  -0.132   0.070
    1UNL    H19   52   0.491  -0.044   0.211
    1UNL    H20   53   0.295   0.099   0.038
    1UNL    H21   54   0.595   0.135  -0.002
    1UNL    H22   55   0.492   0.039  -0.121
    1UNL    H23   56   0.505   0.284  -0.180
    1UNL    H24   57   0.403   0.466  -0.012
    1UNL    H25   58   0.544   0.389   0.057
    1UNL    H26   59   0.381   0.377   0.227
    1UNL    H27   60   0.160   0.257   0.154
    1UNL    H28   61   0.177   0.426   0.100
    1UNL    H29   62   0.035   0.027   0.162
    1UNL    H30   63   0.006   0.074  -0.066
    1UNL    H31   64  -0.006  -0.221  -0.115
    1UNL    H32   65  -0.121  -0.251  -0.317
    1UNL    H33   66  -0.147  -0.211  -0.560
    1UNL    H34   67  -0.098   0.016  -0.640
    1UNL    H35   68   0.025   0.172  -0.495
    1UNL    H36   69   0.062   0.127  -0.264
   0.00000   0.00000   0.00000   0.00000   0.00000   0.00000   0.00000   0.00000   0.00000
Generated with MDTraj, t= 56.0
 69
    1UNL     C1    1  -0.578  -0.057   0.224
    1UNL     C2    2  -0.449   0.022   0.194
    1UNL     C3    3  -0.451   0.079   0.057
    1UNL     C4    4  -0.318  -0.063   0.223
    1UNL     C5    5  -0.277  -0.153   0.110
    1UNL     C6    6  -0.153  -0.203   0.093
    1UNL     C7    7  -0.028  -0.149   0.157
    1UNL     C8    8  -0.064  -0.066   0.284
    1UNL     C9    9  -0.193   0.021   0.264
    1UNL    C10   10   0.079  -0.256   0.184
    1UNL    C11   11   0.180  -0.168   0.103
    1UNL    C12   12   0.272  -0.098   0.204
    1UNL     O1   13   0.235  -0.053   0.309
    1UNL    C13   14   0.408  -0.071   0.157
    1UNL    C14   15   0.395   0.077   0.105
    1UNL    C15   16   0.478   0.115  -0.016
    1UNL    C16   17   0.439   0.250  -0.063
    1UNL    C17   18   0.447   0.360   0.052
    1UNL    C18   19   0.357   0.313   0.166
    1UNL    C19   20   0.216   0.313   0.108
    1UNL    C20   21   0.198   0.269  -0.032
    1UNL     O2   22   0.087   0.259  -0.081
    1UNL     O3   23   0.305   0.245  -0.118
    1UNL     O4   24   0.405   0.180   0.207
    1UNL    C21   25   0.067  -0.066   0.070
    1UNL    C22   26   0.024  -0.029  -0.075
    1UNL    C23   27   0.009  -0.123  -0.169
    1UNL    C24   28  -0.020  -0.093  -0.304
    1UNL    C25   29  -0.054  -0.195  -0.386
    1UNL    C26   30  -0.098  -0.167  -0.514
    1UNL    C27   31  -0.099  -0.041  -0.562
    1UNL    C28   32  -0.059   0.069  -0.482
    1UNL    C29   33  -0.022   0.041  -0.354
    1UNL     H1   34  -0.664   0.003   0.225
    1UNL     H2   35  -0.572  -0.109   0.321
    1UNL     H3   36  -0.598  -0.132   0.148
    1UNL     H4   37  -0.449   0.111   0.261
    1UNL     H5   38  -0.478   0.005  -0.016
    1UNL     H6   39  -0.535   0.150   0.045
    1UNL     H7   40  -0.357   0.121   0.026
    1UNL     H8   41  -0.345  -0.135   0.302
    1UNL     H9   42  -0.355  -0.213   0.071
    1UNL    H10   43  -0.140  -0.300   0.040
    1UNL    H11   44  -0.083  -0.153   0.357
    1UNL    H12   45   0.014  -0.012   0.327
    1UNL    H13   46  -0.161   0.106   0.201
    1UNL    H14   47  -0.219   0.077   0.351
    1UNL    H15   48   0.057  -0.354   0.142
    1UNL    H16   49   0.106  -0.274   0.293
    1UNL    H17   50   0.212  -0.229   0.017
    1UNL    H18   51   0.431  -0.127   0.073
    1UNL    H19   52   0.482  -0.087   0.237
    1UNL    H20   53   0.293   0.084   0.075
    1UNL    H21   54   0.591   0.108  -0.003
    1UNL    H22   55   0.457   0.045  -0.109
    1UNL    H23   56   0.501   0.274  -0.159
    1UNL    H24   57   0.410   0.454   0.015
    1UNL    H25   58   0.552   0.375   0.077
    1UNL    H26   59   0.367   0.375   0.254
    1UNL    H27   60   0.152   0.238   0.163
    1UNL    H28   61   0.169   0.411   0.112
    1UNL    H29   62   0.086   0.030   0.120
    1UNL    H30   63   0.002   0.078  -0.088
    1UNL    H31   64   0.023  -0.232  -0.152
    1UNL    H32   65  -0.055  -0.293  -0.344
    1UNL    H33   66  -0.150  -0.250  -0.565
    1UNL    H34   67  -0.118  -0.029  -0.669
    1UNL    H35   68  -0.071   0.172  -0.526
    1UNL    H36   69  -0.001   0.126  -0.292
   0.00000   0.00000   0.00000   0.00000   0.00000   0.00000   0.00000   0.00000   0.00000
Generated with MDTraj, t= 57.0
 69
    1UNL     C1    1  -0.573  -0.054   0.211
    1UNL     C2    2  -0.442   0.027   0.211
    1UNL     C3    3  -0.433   0.101   0.080
    1UNL     C4    4  -0.316  -0.056   0.238
    1UNL     C5    5  -0.287  -0.149   0.121
    1UNL     C6    6  -0.166  -0.169   0.073
    1UNL     C7    7  -0.039  -0.127   0.138
    1UNL     C8    8  -0.063  -0.055   0.272
    1UNL     C9    9  -0.193   0.029   0.275
    1UNL    C10   10   0.068  -0.247   0.157
    1UNL    C11   11   0.179  -0.159   0.106
    1UNL    C12   12   0.278  -0.114   0.215
    1UNL     O1   13   0.256  -0.132   0.331
    1UNL    C13   14   0.402  -0.057   0.165
    1UNL    C14   15   0.377   0.089   0.118
    1UNL    C15   16   0.472   0.118  -0.003
    1UNL    C16   17   0.444   0.262  -0.048
    1UNL    C17   18   0.454   0.371   0.060
    1UNL    C18   19   0.362   0.325   0.170
    1UNL    C19   20   0.221   0.337   0.115
    1UNL    C20   21   0.201   0.275  -0.025
    1UNL     O2   22   0.087   0.243  -0.048
    1UNL     O3   23   0.309   0.259  -0.106
    1UNL     O4   24   0.404   0.196   0.221
    1UNL    C21   25   0.071  -0.051   0.051
    1UNL    C22   26   0.057  -0.040  -0.100
    1UNL    C23   27   0.035  -0.142  -0.189
    1UNL    C24   28  -0.020  -0.117  -0.325
    1UNL    C25   29  -0.043  -0.218  -0.414
    1UNL    C26   30  -0.096  -0.187  -0.539
    1UNL    C27   31  -0.133  -0.059  -0.575
    1UNL    C28   32  -0.109   0.043  -0.486
    1UNL    C29   33  -0.048   0.016  -0.367
    1UNL     H1   34  -0.656   0.010   0.184
    1UNL     H2   35  -0.594  -0.108   0.303
    1UNL     H3   36  -0.562  -0.123   0.129
    1UNL     H4   37  -0.445   0.105   0.292
    1UNL     H5   38  -0.396   0.043  -0.001
    1UNL     H6   39  -0.534   0.126   0.042
    1UNL     H7   40  -0.370   0.188   0.083
    1UNL     H8   41  -0.331  -0.121   0.323
    1UNL     H9   42  -0.375  -0.180   0.062
    1UNL    H10   43  -0.170  -0.231  -0.021
    1UNL    H11   44  -0.077  -0.130   0.358
    1UNL    H12   45   0.026  -0.002   0.287
    1UNL    H13   46  -0.183   0.111   0.202
    1UNL    H14   47  -0.192   0.084   0.368
    1UNL    H15   48   0.049  -0.339   0.098
    1UNL    H16   49   0.071  -0.276   0.263
    1UNL    H17   50   0.220  -0.197   0.011
    1UNL    H18   51   0.443  -0.124   0.091
    1UNL    H19   52   0.478  -0.044   0.241
    1UNL    H20   53   0.275   0.100   0.092
    1UNL    H21   54   0.588   0.100   0.019
    1UNL    H22   55   0.458   0.051  -0.087
    1UNL    H23   56   0.518   0.285  -0.134
    1UNL    H24   57   0.420   0.462   0.012
    1UNL    H25   58   0.555   0.385   0.099
    1UNL    H26   59   0.381   0.385   0.255
    1UNL    H27   60   0.143   0.301   0.189
    1UNL    H28   61   0.210   0.441   0.095
    1UNL    H29   62   0.107   0.042   0.096
    1UNL    H30   63   0.054   0.060  -0.132
    1UNL    H31   64   0.045  -0.244  -0.164
    1UNL    H32   65   0.004  -0.317  -0.389
    1UNL    H33   66  -0.103  -0.273  -0.603
    1UNL    H34   67  -0.164  -0.045  -0.678
    1UNL    H35   68  -0.105   0.138  -0.527
    1UNL    H36   69  -0.032   0.102  -0.301
   0.00000   0.00000   0.00000   0.00000   0.00000   0.00000   0.00000   0.00000   0.00000
Generated with MDTraj, t= 58.0
 69
    1UNL     C1    1  -0.558  -0.042   0.201
    1UNL     C2    2  -0.429   0.035   0.221
    1UNL     C3    3  -0.426   0.153   0.117
    1UNL     C4    4  -0.303  -0.051   0.214
    1UNL     C5    5  -0.283  -0.116   0.081
    1UNL     C6    6  -0.167  -0.168   0.046
    1UNL     C7    7  -0.043  -0.145   0.137
    1UNL     C8    8  -0.065  -0.093   0.277
    1UNL     C9    9  -0.170   0.017   0.260
    1UNL    C10   10   0.060  -0.259   0.126
    1UNL    C11   11   0.177  -0.160   0.097
    1UNL    C12   12   0.273  -0.128   0.207
    1UNL     O1   13   0.256  -0.182   0.315
    1UNL    C13   14   0.396  -0.043   0.172
    1UNL    C14   15   0.372   0.100   0.114
    1UNL    C15   16   0.467   0.135  -0.002
    1UNL    C16   17   0.437   0.276  -0.053
    1UNL    C17   18   0.459   0.375   0.067
    1UNL    C18   19   0.366   0.332   0.184
    1UNL    C19   20   0.221   0.357   0.130
    1UNL    C20   21   0.205   0.292  -0.010
    1UNL     O2   22   0.095   0.260  -0.046
    1UNL     O3   23   0.310   0.279  -0.103
    1UNL     O4   24   0.392   0.194   0.218
    1UNL    C21   25   0.066  -0.050   0.064
    1UNL    C22   26   0.048  -0.025  -0.089
    1UNL    C23   27   0.027  -0.129  -0.174
    1UNL    C24   28  -0.029  -0.116  -0.312
    1UNL    C25   29  -0.031  -0.228  -0.400
    1UNL    C26   30  -0.069  -0.223  -0.533
    1UNL    C27   31  -0.123  -0.103  -0.577
    1UNL    C28   32  -0.130   0.004  -0.493
    1UNL    C29   33  -0.091   0.001  -0.357
    1UNL     H1   34  -0.650   0.019   0.190
    1UNL     H2   35  -0.573  -0.118   0.273
    1UNL     H3   36  -0.544  -0.092   0.109
    1UNL     H4   37  -0.426   0.085   0.324
    1UNL     H5   38  -0.450   0.120   0.020
    1UNL     H6   39  -0.500   0.231   0.138
    1UNL     H7   40  -0.324   0.189   0.116
    1UNL     H8   41  -0.324  -0.127   0.287
    1UNL     H9   42  -0.364  -0.103   0.016
    1UNL    H10   43  -0.155  -0.192  -0.051
    1UNL    H11   44  -0.102  -0.181   0.335
    1UNL    H12   45   0.026  -0.056   0.318
    1UNL    H13   46  -0.124   0.091   0.193
    1UNL    H14   47  -0.187   0.068   0.353
    1UNL    H15   48   0.053  -0.336   0.044
    1UNL    H16   49   0.072  -0.322   0.212
    1UNL    H17   50   0.235  -0.191   0.009
    1UNL    H18   51   0.473  -0.101   0.117
    1UNL    H19   52   0.438  -0.030   0.271
    1UNL    H20   53   0.268   0.111   0.084
    1UNL    H21   54   0.579   0.117   0.029
    1UNL    H22   55   0.449   0.065  -0.080
    1UNL    H23   56   0.511   0.310  -0.132
    1UNL    H24   57   0.429   0.475   0.035
    1UNL    H25   58   0.562   0.375   0.101
    1UNL    H26   59   0.379   0.389   0.271
    1UNL    H27   60   0.149   0.300   0.197
    1UNL    H28   61   0.198   0.460   0.124
    1UNL    H29   62   0.097   0.042   0.118
    1UNL    H30   63   0.047   0.077  -0.129
    1UNL    H31   64   0.045  -0.233  -0.148
    1UNL    H32   65  -0.004  -0.316  -0.354
    1UNL    H33   66  -0.039  -0.298  -0.604
    1UNL    H34   67  -0.163  -0.100  -0.677
    1UNL    H35   68  -0.171   0.099  -0.534
    1UNL    H36   69  -0.091   0.096  -0.312
   0.00000   0.00000   0.00000   0.00000   0.00000   0.00000   0.00000   0.00000   0.00000
Generated with MDTraj, t= 59.0
 69
    1UNL     C1    1  -0.562   0.013   0.201
    1UNL     C2    2  -0.415   0.054   0.229
    1UNL     C3    3  -0.377   0.171   0.142
    1UNL     C4    4  -0.310  -0.064   0.220
    1UNL     C5    5  -0.277  -0.120   0.085
    1UNL     C6    6  -0.159  -0.166   0.053
    1UNL     C7    7  -0.032  -0.152   0.126
    1UNL     C8    8  -0.058  -0.116   0.280
    1UNL     C9    9  -0.177  -0.015   0.293
    1UNL    C10   10   0.071  -0.266   0.104
    1UNL    C11   11   0.178  -0.153   0.071
    1UNL    C12   12   0.259  -0.121   0.189
    1UNL     O1   13   0.221  -0.141   0.304
    1UNL    C13   14   0.394  -0.055   0.161
    1UNL    C14   15   0.377   0.090   0.105
    1UNL    C15   16   0.470   0.134  -0.014
    1UNL    C16   17   0.434   0.282  -0.045
    1UNL    C17   18   0.451   0.373   0.085
    1UNL    C18   19   0.354   0.315   0.193
    1UNL    C19   20   0.210   0.332   0.135
    1UNL    C20   21   0.194   0.302  -0.016
    1UNL     O2   22   0.077   0.303  -0.043
    1UNL     O3   23   0.301   0.278  -0.096
    1UNL     O4   24   0.378   0.179   0.219
    1UNL    C21   25   0.065  -0.050   0.061
    1UNL    C22   26   0.038  -0.016  -0.091
    1UNL    C23   27   0.038  -0.115  -0.182
    1UNL    C24   28   0.002  -0.110  -0.324
    1UNL    C25   29   0.011  -0.226  -0.400
    1UNL    C26   30  -0.046  -0.232  -0.525
    1UNL    C27   31  -0.129  -0.130  -0.573
    1UNL    C28   32  -0.151  -0.026  -0.493
    1UNL    C29   33  -0.087  -0.016  -0.370
    1UNL     H1   34  -0.636   0.087   0.238
    1UNL     H2   35  -0.587  -0.080   0.242
    1UNL     H3   36  -0.581   0.001   0.098
    1UNL     H4   37  -0.418   0.098   0.337
    1UNL     H5   38  -0.372   0.136   0.041
    1UNL     H6   39  -0.457   0.244   0.138
    1UNL     H7   40  -0.283   0.215   0.168
    1UNL     H8   41  -0.361  -0.136   0.280
    1UNL     H9   42  -0.360  -0.143   0.015
    1UNL    H10   43  -0.138  -0.211  -0.049
    1UNL    H11   44  -0.088  -0.205   0.332
    1UNL    H12   45   0.033  -0.079   0.324
    1UNL    H13   46  -0.159   0.076   0.232
    1UNL    H14   47  -0.187   0.026   0.392
    1UNL    H15   48   0.041  -0.337   0.023
    1UNL    H16   49   0.095  -0.322   0.190
    1UNL    H17   50   0.236  -0.166  -0.022
    1UNL    H18   51   0.455  -0.120   0.091
    1UNL    H19   52   0.447  -0.060   0.252
    1UNL    H20   53   0.272   0.095   0.073
    1UNL    H21   54   0.568   0.116   0.013
    1UNL    H22   55   0.446   0.073  -0.102
    1UNL    H23   56   0.492   0.334  -0.121
    1UNL    H24   57   0.416   0.477   0.068
    1UNL    H25   58   0.554   0.370   0.121
    1UNL    H26   59   0.358   0.371   0.284
    1UNL    H27   60   0.147   0.262   0.193
    1UNL    H28   61   0.176   0.433   0.151
    1UNL    H29   62   0.067   0.033   0.138
    1UNL    H30   63   0.023   0.085  -0.124
    1UNL    H31   64   0.040  -0.217  -0.148
    1UNL    H32   65   0.057  -0.315  -0.346
    1UNL    H33   66  -0.037  -0.325  -0.585
    1UNL    H34   67  -0.180  -0.147  -0.669
    1UNL    H35   68  -0.232   0.038  -0.512
    1UNL    H36   69  -0.111   0.084  -0.323
   0.00000   0.00000   0.00000   0.00000   0.00000   0.00000   0.00000   0.00000   0.00000
Generated with MDTraj, t= 60.0
 69
    1UNL     C1    1  -0.543   0.055   0.185
    1UNL     C2    2  -0.394   0.073   0.220
    1UNL     C3    3  -0.320   0.162   0.118
    1UNL     C4    4  -0.311  -0.063   0.253
    1UNL     C5    5  -0.294  -0.136   0.131
    1UNL     C6    6  -0.179  -0.176   0.077
    1UNL     C7    7  -0.039  -0.156   0.141
    1UNL     C8    8  -0.061  -0.118   0.293
    1UNL     C9    9  -0.175  -0.020   0.325
    1UNL    C10   10   0.067  -0.264   0.105
    1UNL    C11   11   0.168  -0.161   0.072
    1UNL    C12   12   0.260  -0.116   0.184
    1UNL     O1   13   0.227  -0.125   0.299
    1UNL    C13   14   0.396  -0.055   0.135
    1UNL    C14   15   0.370   0.093   0.103
    1UNL    C15   16   0.468   0.143  -0.006
    1UNL    C16   17   0.423   0.292  -0.033
    1UNL    C17   18   0.433   0.372   0.095
    1UNL    C18   19   0.340   0.307   0.198
    1UNL    C19   20   0.195   0.311   0.145
    1UNL    C20   21   0.186   0.296  -0.010
    1UNL     O2   22   0.074   0.299  -0.055
    1UNL     O3   23   0.295   0.282  -0.094
    1UNL     O4   24   0.386   0.177   0.221
    1UNL    C21   25   0.054  -0.057   0.052
    1UNL    C22   26   0.007  -0.033  -0.093
    1UNL    C23   27   0.050  -0.110  -0.194
    1UNL    C24   28  -0.001  -0.119  -0.335
    1UNL    C25   29   0.033  -0.221  -0.423
    1UNL    C26   30  -0.023  -0.225  -0.551
    1UNL    C27   31  -0.115  -0.126  -0.586
    1UNL    C28   32  -0.164  -0.036  -0.497
    1UNL    C29   33  -0.091  -0.019  -0.381
    1UNL     H1   34  -0.585   0.154   0.185
    1UNL     H2   35  -0.593   0.000   0.261
    1UNL     H3   36  -0.562   0.002   0.093
    1UNL     H4   37  -0.392   0.137   0.317
    1UNL     H5   38  -0.298   0.106   0.027
    1UNL     H6   39  -0.371   0.242   0.071
    1UNL     H7   40  -0.225   0.199   0.150
    1UNL     H8   41  -0.362  -0.124   0.324
    1UNL     H9   42  -0.385  -0.150   0.076
    1UNL    H10   43  -0.189  -0.254  -0.002
    1UNL    H11   44  -0.069  -0.208   0.342
    1UNL    H12   45   0.030  -0.066   0.326
    1UNL    H13   46  -0.147   0.085   0.304
    1UNL    H14   47  -0.199  -0.016   0.430
    1UNL    H15   48   0.041  -0.314   0.009
    1UNL    H16   49   0.108  -0.316   0.188
    1UNL    H17   50   0.220  -0.171  -0.024
    1UNL    H18   51   0.434  -0.119   0.048
    1UNL    H19   52   0.479  -0.057   0.200
    1UNL    H20   53   0.266   0.094   0.069
    1UNL    H21   54   0.562   0.142   0.030
    1UNL    H22   55   0.466   0.079  -0.095
    1UNL    H23   56   0.481   0.346  -0.104
    1UNL    H24   57   0.403   0.477   0.071
    1UNL    H25   58   0.534   0.364   0.134
    1UNL    H26   59   0.350   0.366   0.291
    1UNL    H27   60   0.141   0.229   0.189
    1UNL    H28   61   0.150   0.404   0.174
    1UNL    H29   62   0.059   0.038   0.110
    1UNL    H30   63  -0.072   0.038  -0.109
    1UNL    H31   64   0.111  -0.193  -0.169
    1UNL    H32   65   0.108  -0.288  -0.395
    1UNL    H33   66  -0.008  -0.310  -0.610
    1UNL    H34   67  -0.160  -0.135  -0.681
    1UNL    H35   68  -0.234   0.038  -0.538
    1UNL    H36   69  -0.120   0.056  -0.317
   0.00000   0.00000   0.00000   0.00000   0.00000   0.00000   0.00000   0.00000   0.00000
Generated with MDTraj, t= 61.0
 69
    1UNL     C1    1  -0.508   0.076   0.179
    1UNL     C2    2  -0.360   0.105   0.199
    1UNL     C3    3  -0.297   0.150   0.067
    1UNL     C4    4  -0.288  -0.021   0.248
    1UNL     C5    5  -0.286  -0.138   0.147
    1UNL     C6    6  -0.183  -0.210   0.105
    1UNL     C7    7  -0.049  -0.179   0.150
    1UNL     C8    8  -0.051  -0.130   0.301
    1UNL     C9    9  -0.137   0.000   0.299
    1UNL    C10   10   0.066  -0.288   0.128
    1UNL    C11   11   0.160  -0.173   0.082
    1UNL    C12   12   0.262  -0.126   0.181
    1UNL     O1   13   0.263  -0.140   0.299
    1UNL    C13   14   0.375  -0.050   0.115
    1UNL    C14   15   0.351   0.099   0.098
    1UNL    C15   16   0.455   0.155  -0.004
    1UNL    C16   17   0.423   0.303  -0.027
    1UNL    C17   18   0.430   0.377   0.106
    1UNL    C18   19   0.324   0.312   0.202
    1UNL    C19   20   0.186   0.338   0.138
    1UNL    C20   21   0.173   0.290  -0.005
    1UNL     O2   22   0.069   0.251  -0.055
    1UNL     O3   23   0.289   0.303  -0.086
    1UNL     O4   24   0.354   0.173   0.216
    1UNL    C21   25   0.041  -0.082   0.066
    1UNL    C22   26  -0.006  -0.057  -0.078
    1UNL    C23   27   0.012  -0.140  -0.181
    1UNL    C24   28  -0.039  -0.129  -0.321
    1UNL    C25   29   0.029  -0.203  -0.424
    1UNL    C26   30   0.009  -0.187  -0.559
    1UNL    C27   31  -0.090  -0.107  -0.600
    1UNL    C28   32  -0.152  -0.019  -0.506
    1UNL    C29   33  -0.125  -0.028  -0.371
    1UNL     H1   34  -0.555   0.163   0.146
    1UNL     H2   35  -0.556   0.041   0.269
    1UNL     H3   36  -0.522  -0.009   0.111
    1UNL     H4   37  -0.335   0.190   0.274
    1UNL     H5   38  -0.345   0.099  -0.018
    1UNL     H6   39  -0.311   0.250   0.041
    1UNL     H7   40  -0.190   0.132   0.062
    1UNL     H8   41  -0.334  -0.052   0.339
    1UNL     H9   42  -0.383  -0.171   0.112
    1UNL    H10   43  -0.201  -0.278   0.034
    1UNL    H11   44  -0.097  -0.198   0.361
    1UNL    H12   45   0.054  -0.117   0.332
    1UNL    H13   46  -0.089   0.070   0.229
    1UNL    H14   47  -0.139   0.055   0.393
    1UNL    H15   48   0.045  -0.350   0.041
    1UNL    H16   49   0.094  -0.337   0.219
    1UNL    H17   50   0.207  -0.195  -0.016
    1UNL    H18   51   0.407  -0.090   0.014
    1UNL    H19   52   0.463  -0.069   0.174
    1UNL    H20   53   0.254   0.101   0.051
    1UNL    H21   54   0.559   0.140   0.024
    1UNL    H22   55   0.444   0.110  -0.096
    1UNL    H23   56   0.493   0.335  -0.099
    1UNL    H24   57   0.396   0.480   0.082
    1UNL    H25   58   0.533   0.371   0.140
    1UNL    H26   59   0.333   0.356   0.306
    1UNL    H27   60   0.116   0.284   0.194
    1UNL    H28   61   0.159   0.444   0.138
    1UNL    H29   62   0.049   0.017   0.115
    1UNL    H30   63  -0.066   0.033  -0.092
    1UNL    H31   64   0.069  -0.233  -0.165
    1UNL    H32   65   0.115  -0.263  -0.394
    1UNL    H33   66   0.066  -0.250  -0.629
    1UNL    H34   67  -0.112  -0.097  -0.707
    1UNL    H35   68  -0.221   0.052  -0.541
    1UNL    H36   69  -0.171   0.050  -0.305
   0.00000   0.00000   0.00000   0.00000   0.00000   0.00000   0.00000   0.00000   0.00000
Generated with MDTraj, t= 62.0
 69
    1UNL     C1    1  -0.483   0.133   0.166
    1UNL     C2    2  -0.328   0.114   0.169
    1UNL     C3    3  -0.268   0.122   0.022
    1UNL     C4    4  -0.277  -0.012   0.241
    1UNL     C5    5  -0.277  -0.130   0.145
    1UNL     C6    6  -0.173  -0.207   0.110
    1UNL     C7    7  -0.032  -0.168   0.155
    1UNL     C8    8  -0.034  -0.101   0.293
    1UNL     C9    9  -0.135   0.015   0.303
    1UNL    C10   10   0.065  -0.290   0.146
    1UNL    C11   11   0.173  -0.194   0.079
    1UNL    C12   12   0.278  -0.144   0.176
    1UNL     O1   13   0.273  -0.160   0.298
    1UNL    C13   14   0.381  -0.057   0.108
    1UNL    C14   15   0.344   0.085   0.086
    1UNL    C15   16   0.438   0.160  -0.018
    1UNL    C16   17   0.403   0.312  -0.020
    1UNL    C17   18   0.404   0.377   0.121
    1UNL    C18   19   0.291   0.300   0.194
    1UNL    C19   20   0.155   0.314   0.135
    1UNL    C20   21   0.155   0.289  -0.017
    1UNL     O2   22   0.054   0.233  -0.055
    1UNL     O3   23   0.270   0.324  -0.088
    1UNL     O4   24   0.338   0.163   0.208
    1UNL    C21   25   0.055  -0.091   0.049
    1UNL    C22   26   0.013  -0.087  -0.092
    1UNL    C23   27  -0.021  -0.186  -0.174
    1UNL    C24   28  -0.054  -0.148  -0.312
    1UNL    C25   29   0.029  -0.202  -0.404
    1UNL    C26   30   0.019  -0.153  -0.531
    1UNL    C27   31  -0.063  -0.053  -0.568
    1UNL    C28   32  -0.142   0.006  -0.468
    1UNL    C29   33  -0.147  -0.046  -0.339
    1UNL     H1   34  -0.514   0.223   0.124
    1UNL     H2   35  -0.532   0.124   0.262
    1UNL     H3   36  -0.526   0.047   0.113
    1UNL     H4   37  -0.276   0.200   0.221
    1UNL     H5   38  -0.268   0.023  -0.026
    1UNL     H6   39  -0.331   0.180  -0.039
    1UNL     H7   40  -0.167   0.163   0.028
    1UNL     H8   41  -0.348  -0.023   0.322
    1UNL     H9   42  -0.376  -0.140   0.100
    1UNL    H10   43  -0.187  -0.275   0.017
    1UNL    H11   44  -0.058  -0.175   0.363
    1UNL    H12   45   0.064  -0.057   0.311
    1UNL    H13   46  -0.098   0.102   0.248
    1UNL    H14   47  -0.137   0.046   0.409
    1UNL    H15   48   0.028  -0.367   0.083
    1UNL    H16   49   0.093  -0.324   0.246
    1UNL    H17   50   0.229  -0.228  -0.011
    1UNL    H18   51   0.404  -0.106   0.011
    1UNL    H19   52   0.478  -0.062   0.165
    1UNL    H20   53   0.247   0.092   0.041
    1UNL    H21   54   0.540   0.157   0.027
    1UNL    H22   55   0.447   0.129  -0.113
    1UNL    H23   56   0.472   0.357  -0.090
    1UNL    H24   57   0.394   0.487   0.122
    1UNL    H25   58   0.497   0.348   0.168
    1UNL    H26   59   0.286   0.327   0.306
    1UNL    H27   60   0.088   0.248   0.179
    1UNL    H28   61   0.115   0.414   0.155
    1UNL    H29   62   0.089   0.011   0.074
    1UNL    H30   63   0.015   0.012  -0.133
    1UNL    H31   64  -0.006  -0.288  -0.154
    1UNL    H32   65   0.092  -0.290  -0.380
    1UNL    H33   66   0.095  -0.180  -0.599
    1UNL    H34   67  -0.072  -0.017  -0.669
    1UNL    H35   68  -0.219   0.076  -0.506
    1UNL    H36   69  -0.205  -0.009  -0.258
   0.00000   0.00000   0.00000   0.00000   0.00000   0.00000   0.00000   0.00000   0.00000
Generated with MDTraj, t= 63.0
 69
    1UNL     C1    1  -0.456   0.143   0.123
    1UNL     C2    2  -0.304   0.132   0.140
    1UNL     C3    3  -0.233   0.147   0.005
    1UNL     C4    4  -0.254   0.001   0.220
    1UNL     C5    5  -0.266  -0.124   0.137
    1UNL     C6    6  -0.165  -0.211   0.120
    1UNL     C7    7  -0.031  -0.174   0.176
    1UNL     C8    8  -0.038  -0.096   0.311
    1UNL     C9    9  -0.118   0.028   0.289
    1UNL    C10   10   0.078  -0.290   0.171
    1UNL    C11   11   0.172  -0.203   0.088
    1UNL    C12   12   0.292  -0.149   0.167
    1UNL     O1   13   0.291  -0.181   0.286
    1UNL    C13   14   0.394  -0.060   0.093
    1UNL    C14   15   0.361   0.083   0.074
    1UNL    C15   16   0.455   0.179  -0.006
    1UNL    C16   17   0.376   0.309  -0.024
    1UNL    C17   18   0.357   0.368   0.112
    1UNL    C18   19   0.267   0.275   0.198
    1UNL    C19   20   0.127   0.278   0.135
    1UNL    C20   21   0.125   0.265  -0.013
    1UNL     O2   22   0.024   0.234  -0.076
    1UNL     O3   23   0.241   0.286  -0.090
    1UNL     O4   24   0.327   0.143   0.205
    1UNL    C21   25   0.056  -0.097   0.068
    1UNL    C22   26   0.013  -0.082  -0.068
    1UNL    C23   27  -0.021  -0.173  -0.155
    1UNL    C24   28  -0.039  -0.121  -0.292
    1UNL    C25   29   0.037  -0.178  -0.394
    1UNL    C26   30   0.016  -0.145  -0.524
    1UNL    C27   31  -0.076  -0.043  -0.555
    1UNL    C28   32  -0.157   0.016  -0.462
    1UNL    C29   33  -0.138  -0.026  -0.330
    1UNL     H1   34  -0.487   0.229   0.068
    1UNL     H2   35  -0.508   0.136   0.216
    1UNL     H3   36  -0.479   0.051   0.071
    1UNL     H4   37  -0.266   0.219   0.200
    1UNL     H5   38  -0.287   0.091  -0.071
    1UNL     H6   39  -0.222   0.245  -0.038
    1UNL     H7   40  -0.136   0.105   0.018
    1UNL     H8   41  -0.329  -0.003   0.298
    1UNL     H9   42  -0.364  -0.151   0.102
    1UNL    H10   43  -0.181  -0.318   0.107
    1UNL    H11   44  -0.081  -0.155   0.392
    1UNL    H12   45   0.063  -0.065   0.335
    1UNL    H13   46  -0.055   0.099   0.237
    1UNL    H14   47  -0.143   0.081   0.382
    1UNL    H15   48   0.035  -0.376   0.131
    1UNL    H16   49   0.119  -0.314   0.271
    1UNL    H17   50   0.201  -0.257  -0.002
    1UNL    H18   51   0.415  -0.109  -0.001
    1UNL    H19   52   0.490  -0.064   0.159
    1UNL    H20   53   0.270   0.085   0.015
    1UNL    H21   54   0.553   0.211   0.034
    1UNL    H22   55   0.473   0.138  -0.106
    1UNL    H23   56   0.428   0.381  -0.090
    1UNL    H24   57   0.315   0.469   0.096
    1UNL    H25   58   0.450   0.385   0.167
    1UNL    H26   59   0.256   0.304   0.309
    1UNL    H27   60   0.063   0.196   0.167
    1UNL    H28   61   0.073   0.366   0.166
    1UNL    H29   62   0.082  -0.001   0.118
    1UNL    H30   63   0.023   0.019  -0.109
    1UNL    H31   64  -0.015  -0.282  -0.146
    1UNL    H32   65   0.122  -0.236  -0.381
    1UNL    H33   66   0.089  -0.179  -0.599
    1UNL    H34   67  -0.083  -0.018  -0.659
    1UNL    H35   68  -0.226   0.093  -0.483
    1UNL    H36   69  -0.204   0.006  -0.253
   0.00000   0.00000   0.00000   0.00000   0.00000   0.00000   0.00000   0.00000   0.00000
Generated with MDTraj, t= 64.0
 69
    1UNL     C1    1  -0.459   0.110   0.106
    1UNL     C2    2  -0.312   0.127   0.151
    1UNL     C3    3  -0.222   0.162   0.038
    1UNL     C4    4  -0.280  -0.007   0.229
    1UNL     C5    5  -0.273  -0.122   0.131
    1UNL     C6    6  -0.163  -0.191   0.101
    1UNL     C7    7  -0.031  -0.168   0.167
    1UNL     C8    8  -0.062  -0.115   0.323
    1UNL     C9    9  -0.148   0.016   0.313
    1UNL    C10   10   0.071  -0.279   0.185
    1UNL    C11   11   0.175  -0.195   0.110
    1UNL    C12   12   0.306  -0.162   0.185
    1UNL     O1   13   0.328  -0.200   0.295
    1UNL    C13   14   0.398  -0.071   0.109
    1UNL    C14   15   0.342   0.064   0.068
    1UNL    C15   16   0.431   0.155  -0.018
    1UNL    C16   17   0.373   0.300  -0.029
    1UNL    C17   18   0.366   0.349   0.113
    1UNL    C18   19   0.264   0.270   0.185
    1UNL    C19   20   0.131   0.283   0.109
    1UNL    C20   21   0.126   0.274  -0.043
    1UNL     O2   22   0.019   0.247  -0.099
    1UNL     O3   23   0.245   0.298  -0.103
    1UNL     O4   24   0.311   0.138   0.193
    1UNL    C21   25   0.073  -0.079   0.087
    1UNL    C22   26   0.047  -0.045  -0.060
    1UNL    C23   27   0.022  -0.134  -0.154
    1UNL    C24   28  -0.026  -0.111  -0.294
    1UNL    C25   29   0.038  -0.171  -0.405
    1UNL    C26   30   0.001  -0.143  -0.533
    1UNL    C27   31  -0.103  -0.053  -0.558
    1UNL    C28   32  -0.155   0.011  -0.450
    1UNL    C29   33  -0.117  -0.020  -0.319
    1UNL     H1   34  -0.484   0.203   0.055
    1UNL     H2   35  -0.528   0.089   0.184
    1UNL     H3   36  -0.460   0.031   0.036
    1UNL     H4   37  -0.297   0.209   0.225
    1UNL     H5   38  -0.206   0.082  -0.029
    1UNL     H6   39  -0.265   0.236  -0.028
    1UNL     H7   40  -0.125   0.200   0.064
    1UNL     H8   41  -0.362  -0.025   0.300
    1UNL     H9   42  -0.363  -0.163   0.086
    1UNL    H10   43  -0.172  -0.261   0.027
    1UNL    H11   44  -0.113  -0.196   0.382
    1UNL    H12   45   0.028  -0.095   0.375
    1UNL    H13   46  -0.097   0.097   0.260
    1UNL    H14   47  -0.158   0.070   0.410
    1UNL    H15   48   0.046  -0.371   0.145
    1UNL    H16   49   0.099  -0.298   0.290
    1UNL    H17   50   0.206  -0.237   0.014
    1UNL    H18   51   0.426  -0.125   0.017
    1UNL    H19   52   0.493  -0.053   0.173
    1UNL    H20   53   0.244   0.044   0.025
    1UNL    H21   54   0.531   0.158   0.022
    1UNL    H22   55   0.450   0.121  -0.132
    1UNL    H23   56   0.439   0.362  -0.098
    1UNL    H24   57   0.340   0.456   0.127
    1UNL    H25   58   0.466   0.349   0.158
    1UNL    H26   59   0.244   0.306   0.291
    1UNL    H27   60   0.065   0.201   0.156
    1UNL    H28   61   0.080   0.372   0.137
    1UNL    H29   62   0.089   0.007   0.157
    1UNL    H30   63   0.039   0.057  -0.088
    1UNL    H31   64   0.019  -0.235  -0.120
    1UNL    H32   65   0.142  -0.214  -0.384
    1UNL    H33   66   0.045  -0.191  -0.618
    1UNL    H34   67  -0.120  -0.030  -0.664
    1UNL    H35   68  -0.221   0.099  -0.464
    1UNL    H36   69  -0.166   0.024  -0.228
   0.00000   0.00000   0.00000   0.00000   0.00000   0.00000   0.00000   0.00000   0.00000
Generated with MDTraj, t= 65.0
 69
    1UNL     C1    1  -0.500   0.078   0.109
    1UNL     C2    2  -0.356   0.104   0.169
    1UNL     C3    3  -0.269   0.183   0.064
    1UNL     C4    4  -0.295  -0.035   0.226
    1UNL     C5    5  -0.273  -0.142   0.119
    1UNL     C6    6  -0.160  -0.212   0.099
    1UNL     C7    7  -0.033  -0.170   0.176
    1UNL     C8    8  -0.059  -0.112   0.311
    1UNL     C9    9  -0.168  -0.007   0.312
    1UNL    C10   10   0.067  -0.289   0.181
    1UNL    C11   11   0.171  -0.206   0.099
    1UNL    C12   12   0.294  -0.167   0.173
    1UNL     O1   13   0.315  -0.200   0.286
    1UNL    C13   14   0.390  -0.067   0.100
    1UNL    C14   15   0.338   0.080   0.077
    1UNL    C15   16   0.443   0.145  -0.006
    1UNL    C16   17   0.399   0.291  -0.036
    1UNL    C17   18   0.397   0.361   0.101
    1UNL    C18   19   0.280   0.291   0.171
    1UNL    C19   20   0.145   0.312   0.089
    1UNL    C20   21   0.158   0.294  -0.061
    1UNL     O2   22   0.048   0.295  -0.123
    1UNL     O3   23   0.284   0.280  -0.120
    1UNL     O4   24   0.309   0.156   0.200
    1UNL    C21   25   0.071  -0.089   0.089
    1UNL    C22   26   0.028  -0.042  -0.044
    1UNL    C23   27   0.038  -0.121  -0.143
    1UNL    C24   28  -0.010  -0.103  -0.278
    1UNL    C25   29   0.034  -0.179  -0.391
    1UNL    C26   30  -0.016  -0.158  -0.520
    1UNL    C27   31  -0.105  -0.051  -0.546
    1UNL    C28   32  -0.141   0.024  -0.437
    1UNL    C29   33  -0.099  -0.001  -0.305
    1UNL     H1   34  -0.550   0.173   0.083
    1UNL     H2   35  -0.563   0.026   0.176
    1UNL     H3   36  -0.498   0.023   0.020
    1UNL     H4   37  -0.355   0.167   0.260
    1UNL     H5   38  -0.273   0.121  -0.020
    1UNL     H6   39  -0.314   0.278   0.035
    1UNL     H7   40  -0.167   0.191   0.099
    1UNL     H8   41  -0.374  -0.082   0.290
    1UNL     H9   42  -0.365  -0.167   0.068
    1UNL    H10   43  -0.160  -0.290   0.012
    1UNL    H11   44  -0.079  -0.193   0.389
    1UNL    H12   45   0.036  -0.074   0.333
    1UNL    H13   46  -0.125   0.091   0.292
    1UNL    H14   47  -0.202   0.018   0.416
    1UNL    H15   48   0.027  -0.371   0.126
    1UNL    H16   49   0.107  -0.321   0.279
    1UNL    H17   50   0.199  -0.251   0.004
    1UNL    H18   51   0.422  -0.108  -0.000
    1UNL    H19   52   0.482  -0.065   0.165
    1UNL    H20   53   0.239   0.063   0.035
    1UNL    H21   54   0.542   0.146   0.044
    1UNL    H22   55   0.459   0.082  -0.106
    1UNL    H23   56   0.474   0.341  -0.109
    1UNL    H24   57   0.395   0.472   0.090
    1UNL    H25   58   0.491   0.354   0.161
    1UNL    H26   59   0.264   0.337   0.268
    1UNL    H27   60   0.067   0.242   0.125
    1UNL    H28   61   0.106   0.410   0.109
    1UNL    H29   62   0.110  -0.003   0.148
    1UNL    H30   63  -0.026   0.051  -0.060
    1UNL    H31   64   0.078  -0.216  -0.119
    1UNL    H32   65   0.085  -0.268  -0.379
    1UNL    H33   66   0.022  -0.218  -0.604
    1UNL    H34   67  -0.155  -0.032  -0.638
    1UNL    H35   68  -0.225   0.091  -0.448
    1UNL    H36   69  -0.141   0.051  -0.225
   0.00000   0.00000   0.00000   0.00000   0.00000   0.00000   0.00000   0.00000   0.00000
Generated with MDTraj, t= 66.0
 69
    1UNL     C1    1  -0.536   0.039   0.138
    1UNL     C2    2  -0.390   0.074   0.179
    1UNL     C3    3  -0.327   0.158   0.065
    1UNL     C4    4  -0.306  -0.053   0.224
    1UNL     C5    5  -0.280  -0.158   0.117
    1UNL     C6    6  -0.160  -0.211   0.089
    1UNL     C7    7  -0.040  -0.180   0.167
    1UNL     C8    8  -0.065  -0.118   0.315
    1UNL     C9    9  -0.181  -0.013   0.304
    1UNL    C10   10   0.079  -0.292   0.167
    1UNL    C11   11   0.179  -0.184   0.105
    1UNL    C12   12   0.296  -0.137   0.193
    1UNL     O1   13   0.290  -0.161   0.314
    1UNL    C13   14   0.411  -0.060   0.130
    1UNL    C14   15   0.372   0.078   0.080
    1UNL    C15   16   0.472   0.143  -0.018
    1UNL    C16   17   0.430   0.294  -0.053
    1UNL    C17   18   0.411   0.358   0.087
    1UNL    C18   19   0.295   0.289   0.165
    1UNL    C19   20   0.160   0.301   0.082
    1UNL    C20   21   0.187   0.285  -0.069
    1UNL     O2   22   0.085   0.268  -0.137
    1UNL     O3   23   0.307   0.298  -0.129
    1UNL     O4   24   0.338   0.156   0.200
    1UNL    C21   25   0.058  -0.083   0.091
    1UNL    C22   26   0.018  -0.037  -0.041
    1UNL    C23   27  -0.009  -0.122  -0.138
    1UNL    C24   28  -0.028  -0.089  -0.284
    1UNL    C25   29  -0.001  -0.187  -0.378
    1UNL    C26   30  -0.037  -0.161  -0.514
    1UNL    C27   31  -0.095  -0.039  -0.547
    1UNL    C28   32  -0.129   0.057  -0.451
    1UNL    C29   33  -0.092   0.033  -0.322
    1UNL     H1   34  -0.601   0.126   0.119
    1UNL     H2   35  -0.584  -0.019   0.212
    1UNL     H3   36  -0.538  -0.017   0.048
    1UNL     H4   37  -0.393   0.128   0.273
    1UNL     H5   38  -0.314   0.090  -0.015
    1UNL     H6   39  -0.385   0.241   0.025
    1UNL     H7   40  -0.229   0.185   0.103
    1UNL     H8   41  -0.379  -0.105   0.294
    1UNL     H9   42  -0.366  -0.188   0.055
    1UNL    H10   43  -0.155  -0.296   0.029
    1UNL    H11   44  -0.099  -0.204   0.383
    1UNL    H12   45   0.019  -0.077   0.361
    1UNL    H13   46  -0.144   0.080   0.262
    1UNL    H14   47  -0.207   0.021   0.407
    1UNL    H15   48   0.065  -0.379   0.102
    1UNL    H16   49   0.114  -0.318   0.266
    1UNL    H17   50   0.217  -0.208   0.006
    1UNL    H18   51   0.465  -0.117   0.046
    1UNL    H19   52   0.485  -0.045   0.210
    1UNL    H20   53   0.276   0.069   0.030
    1UNL    H21   54   0.587   0.143   0.008
    1UNL    H22   55   0.469   0.084  -0.113
    1UNL    H23   56   0.512   0.347  -0.116
    1UNL    H24   57   0.407   0.469   0.091
    1UNL    H25   58   0.506   0.339   0.141
    1UNL    H26   59   0.285   0.332   0.262
    1UNL    H27   60   0.096   0.225   0.116
    1UNL    H28   61   0.110   0.396   0.105
    1UNL    H29   62   0.090   0.005   0.152
    1UNL    H30   63   0.029   0.066  -0.070
    1UNL    H31   64  -0.008  -0.228  -0.110
    1UNL    H32   65   0.035  -0.289  -0.346
    1UNL    H33   66  -0.011  -0.229  -0.591
    1UNL    H34   67  -0.118  -0.007  -0.648
    1UNL    H35   68  -0.189   0.143  -0.469
    1UNL    H36   69  -0.114   0.106  -0.243
   0.00000   0.00000   0.00000   0.00000   0.00000   0.00000   0.00000   0.00000   0.00000
Generated with MDTraj, t= 67.0
 69
    1UNL     C1    1  -0.545  -0.018   0.170
    1UNL     C2    2  -0.403   0.037   0.187
    1UNL     C3    3  -0.348   0.089   0.058
    1UNL     C4    4  -0.315  -0.072   0.246
    1UNL     C5    5  -0.295  -0.160   0.128
    1UNL     C6    6  -0.174  -0.207   0.092
    1UNL     C7    7  -0.045  -0.169   0.168
    1UNL     C8    8  -0.075  -0.123   0.311
    1UNL     C9    9  -0.184  -0.008   0.305
    1UNL    C10   10   0.074  -0.274   0.161
    1UNL    C11   11   0.169  -0.164   0.102
    1UNL    C12   12   0.279  -0.110   0.195
    1UNL     O1   13   0.257  -0.108   0.314
    1UNL    C13   14   0.402  -0.060   0.145
    1UNL    C14   15   0.389   0.081   0.088
    1UNL    C15   16   0.504   0.140   0.002
    1UNL    C16   17   0.456   0.278  -0.045
    1UNL    C17   18   0.435   0.369   0.080
    1UNL    C18   19   0.320   0.312   0.154
    1UNL    C19   20   0.189   0.315   0.068
    1UNL    C20   21   0.207   0.269  -0.073
    1UNL     O2   22   0.100   0.227  -0.127
    1UNL     O3   23   0.336   0.268  -0.132
    1UNL     O4   24   0.353   0.178   0.190
    1UNL    C21   25   0.049  -0.069   0.093
    1UNL    C22   26   0.006  -0.043  -0.053
    1UNL    C23   27  -0.020  -0.127  -0.154
    1UNL    C24   28  -0.051  -0.081  -0.288
    1UNL    C25   29  -0.060  -0.181  -0.383
    1UNL    C26   30  -0.070  -0.147  -0.521
    1UNL    C27   31  -0.089  -0.018  -0.557
    1UNL    C28   32  -0.089   0.081  -0.456
    1UNL    C29   33  -0.060   0.050  -0.328
    1UNL     H1   34  -0.606   0.059   0.127
    1UNL     H2   35  -0.588  -0.055   0.261
    1UNL     H3   36  -0.546  -0.095   0.094
    1UNL     H4   37  -0.412   0.111   0.264
    1UNL     H5   38  -0.342   0.020  -0.026
    1UNL     H6   39  -0.416   0.162   0.018
    1UNL     H7   40  -0.252   0.138   0.072
    1UNL     H8   41  -0.376  -0.128   0.326
    1UNL     H9   42  -0.380  -0.197   0.079
    1UNL    H10   43  -0.158  -0.272   0.009
    1UNL    H11   44  -0.111  -0.206   0.380
    1UNL    H12   45   0.013  -0.083   0.350
    1UNL    H13   46  -0.146   0.065   0.234
    1UNL    H14   47  -0.195   0.044   0.402
    1UNL    H15   48   0.048  -0.357   0.091
    1UNL    H16   49   0.099  -0.303   0.259
    1UNL    H17   50   0.207  -0.192   0.004
    1UNL    H18   51   0.433  -0.131   0.058
    1UNL    H19   52   0.481  -0.060   0.219
    1UNL    H20   53   0.304   0.087   0.023
    1UNL    H21   54   0.602   0.156   0.070
    1UNL    H22   55   0.545   0.102  -0.092
    1UNL    H23   56   0.536   0.331  -0.107
    1UNL    H24   57   0.403   0.471   0.053
    1UNL    H25   58   0.529   0.382   0.140
    1UNL    H26   59   0.308   0.355   0.250
    1UNL    H27   60   0.118   0.253   0.110
    1UNL    H28   61   0.150   0.418   0.068
    1UNL    H29   62   0.060   0.029   0.143
    1UNL    H30   63   0.011   0.062  -0.070
    1UNL    H31   64  -0.013  -0.231  -0.144
    1UNL    H32   65  -0.027  -0.280  -0.354
    1UNL    H33   66  -0.073  -0.224  -0.601
    1UNL    H34   67  -0.093   0.017  -0.659
    1UNL    H35   68  -0.079   0.188  -0.491
    1UNL    H36   69  -0.044   0.127  -0.253
   0.00000   0.00000   0.00000   0.00000   0.00000   0.00000   0.00000   0.00000   0.00000
Generated with MDTraj, t= 68.0
 69
    1UNL     C1    1  -0.570  -0.038   0.202
    1UNL     C2    2  -0.421   0.015   0.199
    1UNL     C3    3  -0.373   0.055   0.061
    1UNL     C4    4  -0.321  -0.096   0.254
    1UNL     C5    5  -0.288  -0.197   0.148
    1UNL     C6    6  -0.168  -0.244   0.117
    1UNL     C7    7  -0.047  -0.177   0.176
    1UNL     C8    8  -0.082  -0.121   0.313
    1UNL     C9    9  -0.194  -0.024   0.301
    1UNL    C10   10   0.076  -0.267   0.168
    1UNL    C11   11   0.161  -0.159   0.105
    1UNL    C12   12   0.252  -0.099   0.212
    1UNL     O1   13   0.219  -0.090   0.324
    1UNL    C13   14   0.388  -0.048   0.167
    1UNL    C14   15   0.378   0.093   0.104
    1UNL    C15   16   0.495   0.126   0.012
    1UNL    C16   17   0.475   0.263  -0.052
    1UNL    C17   18   0.465   0.372   0.055
    1UNL    C18   19   0.344   0.334   0.141
    1UNL    C19   20   0.218   0.336   0.055
    1UNL    C20   21   0.231   0.281  -0.087
    1UNL     O2   22   0.128   0.243  -0.150
    1UNL     O3   23   0.350   0.264  -0.138
    1UNL     O4   24   0.364   0.204   0.203
    1UNL    C21   25   0.029  -0.072   0.085
    1UNL    C22   26   0.001  -0.048  -0.064
    1UNL    C23   27  -0.005  -0.129  -0.169
    1UNL    C24   28  -0.032  -0.074  -0.306
    1UNL    C25   29  -0.102  -0.162  -0.393
    1UNL    C26   30  -0.129  -0.128  -0.521
    1UNL    C27   31  -0.104   0.003  -0.558
    1UNL    C28   32  -0.031   0.095  -0.479
    1UNL    C29   33   0.001   0.053  -0.352
    1UNL     H1   34  -0.640   0.034   0.171
    1UNL     H2   35  -0.603  -0.086   0.293
    1UNL     H3   36  -0.578  -0.112   0.121
    1UNL     H4   37  -0.417   0.098   0.265
    1UNL     H5   38  -0.412  -0.008  -0.020
    1UNL     H6   39  -0.423   0.147   0.037
    1UNL     H7   40  -0.265   0.073   0.055
    1UNL     H8   41  -0.362  -0.152   0.347
    1UNL     H9   42  -0.372  -0.247   0.095
    1UNL    H10   43  -0.158  -0.321   0.033
    1UNL    H11   44  -0.118  -0.199   0.382
    1UNL    H12   45   0.002  -0.072   0.362
    1UNL    H13   46  -0.163   0.054   0.231
    1UNL    H14   47  -0.219   0.023   0.399
    1UNL    H15   48   0.050  -0.355   0.101
    1UNL    H16   49   0.121  -0.292   0.261
    1UNL    H17   50   0.212  -0.188   0.012
    1UNL    H18   51   0.447  -0.125   0.105
    1UNL    H19   52   0.443  -0.031   0.260
    1UNL    H20   53   0.290   0.096   0.044
    1UNL    H21   54   0.598   0.116   0.050
    1UNL    H22   55   0.486   0.048  -0.068
    1UNL    H23   56   0.562   0.280  -0.119
    1UNL    H24   57   0.470   0.471   0.006
    1UNL    H25   58   0.555   0.362   0.121
    1UNL    H26   59   0.341   0.400   0.226
    1UNL    H27   60   0.145   0.278   0.103
    1UNL    H28   61   0.183   0.438   0.050
    1UNL    H29   62   0.039   0.019   0.147
    1UNL    H30   63  -0.018   0.057  -0.082
    1UNL    H31   64  -0.001  -0.239  -0.164
    1UNL    H32   65  -0.138  -0.255  -0.358
    1UNL    H33   66  -0.171  -0.203  -0.581
    1UNL    H34   67  -0.146   0.048  -0.649
    1UNL    H35   68  -0.008   0.190  -0.512
    1UNL    H36   69   0.064   0.115  -0.292
   0.00000   0.00000   0.00000   0.00000   0.00000   0.00000   0.00000   0.00000   0.00000
Generated with MDTraj, t= 69.0
 69
    1UNL     C1    1  -0.593  -0.067   0.217
    1UNL     C2    2  -0.452  -0.012   0.208
    1UNL     C3    3  -0.416   0.051   0.076
    1UNL     C4    4  -0.338  -0.116   0.239
    1UNL     C5    5  -0.289  -0.211   0.128
    1UNL     C6    6  -0.162  -0.239   0.096
    1UNL     C7    7  -0.048  -0.173   0.162
    1UNL     C8    8  -0.089  -0.139   0.308
    1UNL     C9    9  -0.214  -0.056   0.318
    1UNL    C10   10   0.087  -0.258   0.145
    1UNL    C11   11   0.162  -0.132   0.108
    1UNL    C12   12   0.248  -0.084   0.218
    1UNL     O1   13   0.207  -0.086   0.330
    1UNL    C13   14   0.383  -0.026   0.183
    1UNL    C14   15   0.370   0.103   0.104
    1UNL    C15   16   0.486   0.110   0.001
    1UNL    C16   17   0.484   0.243  -0.068
    1UNL    C17   18   0.483   0.355   0.043
    1UNL    C18   19   0.354   0.334   0.121
    1UNL    C19   20   0.227   0.355   0.032
    1UNL    C20   21   0.245   0.289  -0.099
    1UNL     O2   22   0.144   0.261  -0.168
    1UNL     O3   23   0.371   0.255  -0.154
    1UNL     O4   24   0.364   0.213   0.197
    1UNL    C21   25   0.033  -0.053   0.091
    1UNL    C22   26   0.007  -0.028  -0.058
    1UNL    C23   27  -0.004  -0.121  -0.151
    1UNL    C24   28  -0.021  -0.085  -0.295
    1UNL    C25   29  -0.132  -0.136  -0.358
    1UNL    C26   30  -0.165  -0.088  -0.479
    1UNL    C27   31  -0.085   0.010  -0.540
    1UNL    C28   32   0.015   0.078  -0.473
    1UNL    C29   33   0.052   0.025  -0.348
    1UNL     H1   34  -0.671  -0.004   0.187
    1UNL     H2   35  -0.617  -0.105   0.317
    1UNL     H3   36  -0.605  -0.151   0.147
    1UNL     H4   37  -0.449   0.063   0.284
    1UNL     H5   38  -0.385  -0.030   0.005
    1UNL     H6   39  -0.498   0.101   0.028
    1UNL     H7   40  -0.333   0.117   0.099
    1UNL     H8   41  -0.379  -0.192   0.315
    1UNL     H9   42  -0.361  -0.239   0.058
    1UNL    H10   43  -0.149  -0.310   0.023
    1UNL    H11   44  -0.098  -0.230   0.363
    1UNL    H12   45  -0.001  -0.089   0.360
    1UNL    H13   46  -0.199   0.039   0.266
    1UNL    H14   47  -0.239  -0.027   0.422
    1UNL    H15   48   0.097  -0.345   0.073
    1UNL    H16   49   0.113  -0.298   0.242
    1UNL    H17   50   0.225  -0.132   0.017
    1UNL    H18   51   0.430  -0.100   0.114
    1UNL    H19   52   0.442  -0.023   0.276
    1UNL    H20   53   0.271   0.097   0.063
    1UNL    H21   54   0.566   0.102   0.061
    1UNL    H22   55   0.492   0.020  -0.070
    1UNL    H23   56   0.570   0.243  -0.130
    1UNL    H24   57   0.489   0.451  -0.010
    1UNL    H25   58   0.573   0.339   0.108
    1UNL    H26   59   0.343   0.415   0.196
    1UNL    H27   60   0.140   0.313   0.081
    1UNL    H28   61   0.205   0.457   0.011
    1UNL    H29   62   0.019   0.035   0.158
    1UNL    H30   63   0.024   0.073  -0.091
    1UNL    H31   64  -0.022  -0.222  -0.122
    1UNL    H32   65  -0.203  -0.197  -0.295
    1UNL    H33   66  -0.253  -0.124  -0.537
    1UNL    H34   67  -0.120   0.033  -0.636
    1UNL    H35   68   0.068   0.165  -0.520
    1UNL    H36   69   0.137   0.066  -0.291
   0.00000   0.00000   0.00000   0.00000   0.00000   0.00000   0.00000   0.00000   0.00000
Generated with MDTraj, t= 70.0
 69
    1UNL     C1    1  -0.597  -0.135   0.188
    1UNL     C2    2  -0.471  -0.049   0.221
    1UNL     C3    3  -0.442   0.064   0.109
    1UNL     C4    4  -0.349  -0.131   0.240
    1UNL     C5    5  -0.301  -0.183   0.102
    1UNL     C6    6  -0.174  -0.217   0.076
    1UNL     C7    7  -0.052  -0.183   0.171
    1UNL     C8    8  -0.101  -0.153   0.313
    1UNL     C9    9  -0.228  -0.064   0.318
    1UNL    C10   10   0.079  -0.263   0.162
    1UNL    C11   11   0.161  -0.134   0.122
    1UNL    C12   12   0.251  -0.081   0.227
    1UNL     O1   13   0.224  -0.086   0.347
    1UNL    C13   14   0.386  -0.028   0.187
    1UNL    C14   15   0.378   0.103   0.102
    1UNL    C15   16   0.505   0.116   0.014
    1UNL    C16   17   0.498   0.239  -0.077
    1UNL    C17   18   0.486   0.366   0.011
    1UNL    C18   19   0.361   0.349   0.097
    1UNL    C19   20   0.240   0.352   0.004
    1UNL    C20   21   0.256   0.268  -0.120
    1UNL     O2   22   0.147   0.249  -0.174
    1UNL     O3   23   0.380   0.222  -0.164
    1UNL     O4   24   0.366   0.225   0.178
    1UNL    C21   25   0.031  -0.058   0.112
    1UNL    C22   26  -0.006  -0.020  -0.032
    1UNL    C23   27   0.010  -0.092  -0.141
    1UNL    C24   28  -0.034  -0.043  -0.271
    1UNL    C25   29  -0.153  -0.075  -0.337
    1UNL    C26   30  -0.168  -0.062  -0.472
    1UNL    C27   31  -0.064  -0.004  -0.548
    1UNL    C28   32   0.036   0.058  -0.478
    1UNL    C29   33   0.057   0.039  -0.339
    1UNL     H1   34  -0.683  -0.075   0.167
    1UNL     H2   35  -0.617  -0.199   0.274
    1UNL     H3   36  -0.587  -0.199   0.101
    1UNL     H4   37  -0.499  -0.006   0.314
    1UNL     H5   38  -0.470   0.019   0.011
    1UNL     H6   39  -0.503   0.154   0.107
    1UNL     H7   40  -0.338   0.091   0.106
    1UNL     H8   41  -0.379  -0.227   0.297
    1UNL     H9   42  -0.382  -0.190   0.028
    1UNL    H10   43  -0.149  -0.271  -0.018
    1UNL    H11   44  -0.124  -0.245   0.359
    1UNL    H12   45  -0.014  -0.116   0.381
    1UNL    H13   46  -0.211   0.038   0.280
    1UNL    H14   47  -0.267  -0.047   0.420
    1UNL    H15   48   0.076  -0.338   0.082
    1UNL    H16   49   0.124  -0.311   0.253
    1UNL    H17   50   0.218  -0.127   0.027
    1UNL    H18   51   0.429  -0.107   0.129
    1UNL    H19   52   0.447  -0.023   0.280
    1UNL    H20   53   0.289   0.092   0.038
    1UNL    H21   54   0.590   0.109   0.072
    1UNL    H22   55   0.504   0.032  -0.058
    1UNL    H23   56   0.578   0.248  -0.145
    1UNL    H24   57   0.483   0.455  -0.053
    1UNL    H25   58   0.580   0.363   0.073
    1UNL    H26   59   0.345   0.438   0.168
    1UNL    H27   60   0.149   0.316   0.054
    1UNL    H28   61   0.219   0.450  -0.024
    1UNL    H29   62   0.034   0.026   0.185
    1UNL    H30   63  -0.037   0.083  -0.046
    1UNL    H31   64   0.033  -0.196  -0.128
    1UNL    H32   65  -0.228  -0.119  -0.283
    1UNL    H33   66  -0.262  -0.085  -0.515
    1UNL    H34   67  -0.070  -0.025  -0.659
    1UNL    H35   68   0.120   0.096  -0.529
    1UNL    H36   69   0.145   0.082  -0.298
   0.00000   0.00000   0.00000   0.00000   0.00000   0.00000   0.00000   0.00000   0.00000
Generated with MDTraj, t= 71.0
 69
    1UNL     C1    1  -0.591  -0.171   0.155
    1UNL     C2    2  -0.484  -0.085   0.231
    1UNL     C3    3  -0.456   0.049   0.152
    1UNL     C4    4  -0.350  -0.159   0.245
    1UNL     C5    5  -0.297  -0.205   0.113
    1UNL     C6    6  -0.171  -0.204   0.081
    1UNL     C7    7  -0.060  -0.149   0.167
    1UNL     C8    8  -0.108  -0.131   0.312
    1UNL     C9    9  -0.247  -0.064   0.313
    1UNL    C10   10   0.079  -0.228   0.157
    1UNL    C11   11   0.152  -0.103   0.132
    1UNL    C12   12   0.251  -0.068   0.249
    1UNL     O1   13   0.213  -0.074   0.364
    1UNL    C13   14   0.386  -0.031   0.200
    1UNL    C14   15   0.384   0.089   0.098
    1UNL    C15   16   0.502   0.095  -0.002
    1UNL    C16   17   0.490   0.226  -0.090
    1UNL    C17   18   0.484   0.350   0.003
    1UNL    C18   19   0.367   0.329   0.093
    1UNL    C19   20   0.239   0.326   0.008
    1UNL    C20   21   0.260   0.254  -0.131
    1UNL     O2   22   0.161   0.228  -0.194
    1UNL     O3   23   0.377   0.221  -0.183
    1UNL     O4   24   0.370   0.209   0.172
    1UNL    C21   25   0.016  -0.028   0.105
    1UNL    C22   26   0.000   0.019  -0.033
    1UNL    C23   27   0.020  -0.064  -0.133
    1UNL    C24   28  -0.021  -0.026  -0.270
    1UNL    C25   29  -0.141  -0.067  -0.327
    1UNL    C26   30  -0.169  -0.041  -0.460
    1UNL    C27   31  -0.072   0.024  -0.537
    1UNL    C28   32   0.053   0.049  -0.486
    1UNL    C29   33   0.075   0.034  -0.350
    1UNL     H1   34  -0.692  -0.138   0.179
    1UNL     H2   35  -0.578  -0.275   0.180
    1UNL     H3   36  -0.589  -0.160   0.049
    1UNL     H4   37  -0.525  -0.065   0.326
    1UNL     H5   38  -0.400   0.029   0.058
    1UNL     H6   39  -0.544   0.092   0.100
    1UNL     H7   40  -0.411   0.133   0.205
    1UNL     H8   41  -0.358  -0.258   0.306
    1UNL     H9   42  -0.364  -0.257   0.046
    1UNL    H10   43  -0.128  -0.234  -0.014
    1UNL    H11   44  -0.124  -0.228   0.347
    1UNL    H12   45  -0.031  -0.082   0.385
    1UNL    H13   46  -0.245   0.026   0.249
    1UNL    H14   47  -0.274  -0.030   0.416
    1UNL    H15   48   0.078  -0.292   0.070
    1UNL    H16   49   0.111  -0.276   0.256
    1UNL    H17   50   0.203  -0.119   0.036
    1UNL    H18   51   0.432  -0.119   0.165
    1UNL    H19   52   0.454   0.007   0.282
    1UNL    H20   53   0.299   0.080   0.027
    1UNL    H21   54   0.602   0.103   0.042
    1UNL    H22   55   0.499   0.011  -0.063
    1UNL    H23   56   0.573   0.249  -0.154
    1UNL    H24   57   0.466   0.435  -0.064
    1UNL    H25   58   0.579   0.360   0.060
    1UNL    H26   59   0.357   0.409   0.176
    1UNL    H27   60   0.161   0.278   0.070
    1UNL    H28   61   0.205   0.423  -0.005
    1UNL    H29   62   0.004   0.052   0.179
    1UNL    H30   63  -0.027   0.121  -0.052
    1UNL    H31   64   0.052  -0.167  -0.111
    1UNL    H32   65  -0.215  -0.098  -0.248
    1UNL    H33   66  -0.269  -0.062  -0.496
    1UNL    H34   67  -0.095   0.045  -0.635
    1UNL    H35   68   0.133   0.076  -0.558
    1UNL    H36   69   0.177   0.058  -0.317
   0.00000   0.00000   0.00000   0.00000   0.00000   0.00000   0.00000   0.00000   0.00000
Generated with MDTraj, t= 72.0
 69
    1UNL     C1    1  -0.598  -0.197   0.163
    1UNL     C2    2  -0.506  -0.105   0.231
    1UNL     C3    3  -0.507   0.029   0.164
    1UNL     C4    4  -0.354  -0.159   0.239
    1UNL     C5    5  -0.287  -0.190   0.109
    1UNL     C6    6  -0.159  -0.199   0.085
    1UNL     C7    7  -0.051  -0.143   0.176
    1UNL     C8    8  -0.110  -0.113   0.320
    1UNL     C9    9  -0.261  -0.070   0.326
    1UNL    C10   10   0.073  -0.238   0.182
    1UNL    C11   11   0.163  -0.127   0.126
    1UNL    C12   12   0.249  -0.055   0.237
    1UNL     O1   13   0.186  -0.039   0.334
    1UNL    C13   14   0.392  -0.025   0.200
    1UNL    C14   15   0.398   0.092   0.100
    1UNL    C15   16   0.522   0.089   0.014
    1UNL    C16   17   0.492   0.204  -0.087
    1UNL    C17   18   0.485   0.342  -0.010
    1UNL    C18   19   0.373   0.330   0.088
    1UNL    C19   20   0.246   0.328  -0.002
    1UNL    C20   21   0.257   0.250  -0.126
    1UNL     O2   22   0.157   0.261  -0.194
    1UNL     O3   23   0.377   0.181  -0.162
    1UNL     O4   24   0.385   0.212   0.172
    1UNL    C21   25   0.034  -0.031   0.108
    1UNL    C22   26  -0.005   0.006  -0.036
    1UNL    C23   27   0.037  -0.056  -0.145
    1UNL    C24   28  -0.007  -0.031  -0.281
    1UNL    C25   29  -0.133  -0.058  -0.323
    1UNL    C26   30  -0.172  -0.005  -0.450
    1UNL    C27   31  -0.084   0.049  -0.538
    1UNL    C28   32   0.050   0.049  -0.502
    1UNL    C29   33   0.084   0.015  -0.375
    1UNL     H1   34  -0.699  -0.152   0.150
    1UNL     H2   35  -0.601  -0.289   0.217
    1UNL     H3   36  -0.567  -0.219   0.065
    1UNL     H4   37  -0.547  -0.084   0.327
    1UNL     H5   38  -0.477   0.027   0.059
    1UNL     H6   39  -0.611   0.066   0.152
    1UNL     H7   40  -0.456   0.101   0.230
    1UNL     H8   41  -0.352  -0.264   0.288
    1UNL     H9   42  -0.349  -0.212   0.026
    1UNL    H10   43  -0.122  -0.247   0.001
    1UNL    H11   44  -0.096  -0.197   0.383
    1UNL    H12   45  -0.054  -0.027   0.372
    1UNL    H13   46  -0.262   0.040   0.308
    1UNL    H14   47  -0.296  -0.083   0.431
    1UNL    H15   48   0.070  -0.330   0.125
    1UNL    H16   49   0.095  -0.250   0.294
    1UNL    H17   50   0.221  -0.151   0.036
    1UNL    H18   51   0.448  -0.105   0.162
    1UNL    H19   52   0.448   0.010   0.289
    1UNL    H20   53   0.306   0.090   0.036
    1UNL    H21   54   0.605   0.114   0.085
    1UNL    H22   55   0.548   0.007  -0.037
    1UNL    H23   56   0.579   0.208  -0.154
    1UNL    H24   57   0.461   0.413  -0.090
    1UNL    H25   58   0.586   0.364   0.030
    1UNL    H26   59   0.364   0.424   0.155
    1UNL    H27   60   0.157   0.294   0.051
    1UNL    H28   61   0.220   0.427  -0.026
    1UNL    H29   62   0.047   0.062   0.164
    1UNL    H30   63  -0.060   0.099  -0.046
    1UNL    H31   64   0.097  -0.141  -0.133
    1UNL    H32   65  -0.199  -0.090  -0.248
    1UNL    H33   66  -0.278   0.001  -0.464
    1UNL    H34   67  -0.118   0.094  -0.633
    1UNL    H35   68   0.121   0.076  -0.575
    1UNL    H36   69   0.188   0.020  -0.357
   0.00000   0.00000   0.00000   0.00000   0.00000   0.00000   0.00000   0.00000   0.00000
Generated with MDTraj, t= 73.0
 69
    1UNL     C1    1  -0.597  -0.233   0.213
    1UNL     C2    2  -0.502  -0.110   0.242
    1UNL     C3    3  -0.535   0.008   0.149
    1UNL     C4    4  -0.355  -0.145   0.237
    1UNL     C5    5  -0.295  -0.215   0.112
    1UNL     C6    6  -0.170  -0.219   0.081
    1UNL     C7    7  -0.062  -0.155   0.165
    1UNL     C8    8  -0.112  -0.109   0.298
    1UNL     C9    9  -0.251  -0.045   0.282
    1UNL    C10   10   0.071  -0.247   0.180
    1UNL    C11   11   0.158  -0.116   0.136
    1UNL    C12   12   0.235  -0.054   0.250
    1UNL     O1   13   0.192  -0.023   0.357
    1UNL    C13   14   0.378  -0.026   0.224
    1UNL    C14   15   0.385   0.090   0.113
    1UNL    C15   16   0.497   0.081   0.005
    1UNL    C16   17   0.499   0.200  -0.098
    1UNL    C17   18   0.502   0.333  -0.018
    1UNL    C18   19   0.385   0.329   0.079
    1UNL    C19   20   0.255   0.324  -0.000
    1UNL    C20   21   0.271   0.249  -0.134
    1UNL     O2   22   0.173   0.249  -0.199
    1UNL     O3   23   0.384   0.191  -0.179
    1UNL     O4   24   0.390   0.223   0.170
    1UNL    C21   25   0.024  -0.035   0.106
    1UNL    C22   26  -0.005   0.012  -0.035
    1UNL    C23   27   0.055  -0.042  -0.141
    1UNL    C24   28   0.004  -0.026  -0.281
    1UNL    C25   29  -0.130  -0.032  -0.318
    1UNL    C26   30  -0.176   0.021  -0.438
    1UNL    C27   31  -0.086   0.056  -0.535
    1UNL    C28   32   0.050   0.058  -0.501
    1UNL    C29   33   0.093   0.013  -0.380
    1UNL     H1   34  -0.704  -0.205   0.228
    1UNL     H2   35  -0.571  -0.312   0.280
    1UNL     H3   36  -0.589  -0.272   0.114
    1UNL     H4   37  -0.524  -0.074   0.338
    1UNL     H5   38  -0.523  -0.015   0.044
    1UNL     H6   39  -0.646   0.014   0.154
    1UNL     H7   40  -0.498   0.106   0.189
    1UNL     H8   41  -0.343  -0.232   0.313
    1UNL     H9   42  -0.373  -0.255   0.045
    1UNL    H10   43  -0.139  -0.263  -0.020
    1UNL    H11   44  -0.118  -0.183   0.378
    1UNL    H12   45  -0.037  -0.030   0.330
    1UNL    H13   46  -0.238   0.030   0.200
    1UNL    H14   47  -0.277   0.014   0.372
    1UNL    H15   48   0.069  -0.326   0.105
    1UNL    H16   49   0.082  -0.288   0.286
    1UNL    H17   50   0.228  -0.138   0.053
    1UNL    H18   51   0.438  -0.109   0.190
    1UNL    H19   52   0.418   0.003   0.319
    1UNL    H20   53   0.280   0.090   0.069
    1UNL    H21   54   0.594   0.069   0.055
    1UNL    H22   55   0.476  -0.017  -0.040
    1UNL    H23   56   0.591   0.185  -0.164
    1UNL    H24   57   0.502   0.411  -0.096
    1UNL    H25   58   0.600   0.338   0.029
    1UNL    H26   59   0.396   0.424   0.139
    1UNL    H27   60   0.177   0.295   0.069
    1UNL    H28   61   0.223   0.424  -0.028
    1UNL    H29   62   0.020   0.052   0.170
    1UNL    H30   63  -0.083   0.085  -0.044
    1UNL    H31   64   0.135  -0.117  -0.122
    1UNL    H32   65  -0.199  -0.062  -0.239
    1UNL    H33   66  -0.283   0.046  -0.442
    1UNL    H34   67  -0.118   0.092  -0.636
    1UNL    H35   68   0.124   0.085  -0.576
    1UNL    H36   69   0.201   0.019  -0.361
   0.00000   0.00000   0.00000   0.00000   0.00000   0.00000   0.00000   0.00000   0.00000
Generated with MDTraj, t= 74.0
 69
    1UNL     C1    1  -0.590  -0.240   0.246
    1UNL     C2    2  -0.500  -0.124   0.246
    1UNL     C3    3  -0.521  -0.052   0.100
    1UNL     C4    4  -0.355  -0.163   0.263
    1UNL     C5    5  -0.309  -0.207   0.124
    1UNL     C6    6  -0.188  -0.190   0.081
    1UNL     C7    7  -0.075  -0.137   0.172
    1UNL     C8    8  -0.114  -0.087   0.309
    1UNL     C9    9  -0.261  -0.055   0.322
    1UNL    C10   10   0.048  -0.237   0.181
    1UNL    C11   11   0.148  -0.126   0.142
    1UNL    C12   12   0.233  -0.063   0.255
    1UNL     O1   13   0.200  -0.045   0.373
    1UNL    C13   14   0.371  -0.015   0.211
    1UNL    C14   15   0.369   0.097   0.106
    1UNL    C15   16   0.494   0.072   0.016
    1UNL    C16   17   0.504   0.180  -0.086
    1UNL    C17   18   0.519   0.323  -0.023
    1UNL    C18   19   0.398   0.337   0.068
    1UNL    C19   20   0.273   0.352  -0.023
    1UNL    C20   21   0.277   0.252  -0.138
    1UNL     O2   22   0.178   0.242  -0.203
    1UNL     O3   23   0.393   0.180  -0.180
    1UNL     O4   24   0.376   0.227   0.164
    1UNL    C21   25   0.023  -0.035   0.102
    1UNL    C22   26  -0.011  -0.005  -0.040
    1UNL    C23   27   0.052  -0.036  -0.151
    1UNL    C24   28   0.006  -0.001  -0.288
    1UNL    C25   29  -0.133  -0.005  -0.319
    1UNL    C26   30  -0.173   0.028  -0.446
    1UNL    C27   31  -0.076   0.064  -0.541
    1UNL    C28   32   0.059   0.062  -0.513
    1UNL    C29   33   0.101   0.033  -0.382
    1UNL     H1   34  -0.696  -0.212   0.245
    1UNL     H2   35  -0.568  -0.293   0.337
    1UNL     H3   36  -0.568  -0.312   0.167
    1UNL     H4   37  -0.522  -0.060   0.326
    1UNL     H5   38  -0.529  -0.120   0.017
    1UNL     H6   39  -0.615   0.009   0.086
    1UNL     H7   40  -0.440   0.023   0.088
    1UNL     H8   41  -0.348  -0.261   0.322
    1UNL     H9   42  -0.381  -0.266   0.074
    1UNL    H10   43  -0.162  -0.206  -0.018
    1UNL    H11   44  -0.094  -0.180   0.370
    1UNL    H12   45  -0.055  -0.003   0.355
    1UNL    H13   46  -0.289   0.046   0.283
    1UNL    H14   47  -0.283  -0.045   0.430
    1UNL    H15   48   0.041  -0.315   0.102
    1UNL    H16   49   0.075  -0.283   0.279
    1UNL    H17   50   0.211  -0.141   0.053
    1UNL    H18   51   0.427  -0.102   0.177
    1UNL    H19   52   0.429   0.021   0.291
    1UNL    H20   53   0.268   0.103   0.052
    1UNL    H21   54   0.577   0.057   0.082
    1UNL    H22   55   0.474  -0.033  -0.040
    1UNL    H23   56   0.595   0.167  -0.157
    1UNL    H24   57   0.533   0.394  -0.108
    1UNL    H25   58   0.616   0.330   0.025
    1UNL    H26   59   0.422   0.424   0.130
    1UNL    H27   60   0.181   0.340   0.028
    1UNL    H28   61   0.271   0.456  -0.062
    1UNL    H29   62   0.024   0.056   0.159
    1UNL    H30   63  -0.114   0.028  -0.048
    1UNL    H31   64   0.144  -0.088  -0.144
    1UNL    H32   65  -0.201  -0.028  -0.237
    1UNL    H33   66  -0.276   0.039  -0.473
    1UNL    H34   67  -0.106   0.092  -0.634
    1UNL    H35   68   0.127   0.094  -0.591
    1UNL    H36   69   0.203   0.038  -0.353
   0.00000   0.00000   0.00000   0.00000   0.00000   0.00000   0.00000   0.00000   0.00000
Generated with MDTraj, t= 75.0
 69
    1UNL     C1    1  -0.613  -0.245   0.268
    1UNL     C2    2  -0.515  -0.128   0.259
    1UNL     C3    3  -0.543  -0.053   0.122
    1UNL     C4    4  -0.363  -0.171   0.264
    1UNL     C5    5  -0.309  -0.239   0.135
    1UNL     C6    6  -0.185  -0.221   0.094
    1UNL     C7    7  -0.073  -0.144   0.165
    1UNL     C8    8  -0.126  -0.096   0.310
    1UNL     C9    9  -0.275  -0.053   0.310
    1UNL    C10   10   0.061  -0.228   0.182
    1UNL    C11   11   0.133  -0.101   0.136
    1UNL    C12   12   0.231  -0.044   0.243
    1UNL     O1   13   0.201  -0.044   0.360
    1UNL    C13   14   0.368  -0.006   0.210
    1UNL    C14   15   0.378   0.097   0.099
    1UNL    C15   16   0.502   0.062   0.010
    1UNL    C16   17   0.513   0.171  -0.089
    1UNL    C17   18   0.525   0.317  -0.020
    1UNL    C18   19   0.404   0.340   0.065
    1UNL    C19   20   0.279   0.337  -0.021
    1UNL    C20   21   0.286   0.256  -0.148
    1UNL     O2   22   0.188   0.257  -0.214
    1UNL     O3   23   0.399   0.180  -0.183
    1UNL     O4   24   0.396   0.228   0.156
    1UNL    C21   25   0.004  -0.032   0.098
    1UNL    C22   26  -0.037  -0.012  -0.044
    1UNL    C23   27   0.045  -0.019  -0.147
    1UNL    C24   28   0.009   0.015  -0.284
    1UNL    C25   29  -0.126   0.007  -0.319
    1UNL    C26   30  -0.161   0.020  -0.449
    1UNL    C27   31  -0.060   0.064  -0.541
    1UNL    C28   32   0.072   0.070  -0.506
    1UNL    C29   33   0.107   0.050  -0.377
    1UNL     H1   34  -0.716  -0.216   0.276
    1UNL     H2   35  -0.586  -0.296   0.359
    1UNL     H3   36  -0.600  -0.321   0.188
    1UNL     H4   37  -0.528  -0.061   0.338
    1UNL     H5   38  -0.538  -0.127   0.042
    1UNL     H6   39  -0.650  -0.024   0.105
    1UNL     H7   40  -0.484   0.037   0.096
    1UNL     H8   41  -0.351  -0.256   0.341
    1UNL     H9   42  -0.378  -0.288   0.064
    1UNL    H10   43  -0.139  -0.286   0.017
    1UNL    H11   44  -0.120  -0.182   0.386
    1UNL    H12   45  -0.055  -0.019   0.340
    1UNL    H13   46  -0.298   0.036   0.247
    1UNL    H14   47  -0.313  -0.015   0.408
    1UNL    H15   48   0.085  -0.322   0.121
    1UNL    H16   49   0.078  -0.257   0.286
    1UNL    H17   50   0.190  -0.119   0.044
    1UNL    H18   51   0.429  -0.096   0.197
    1UNL    H19   52   0.406   0.034   0.297
    1UNL    H20   53   0.293   0.101   0.024
    1UNL    H21   54   0.589   0.067   0.078
    1UNL    H22   55   0.500  -0.047  -0.035
    1UNL    H23   56   0.610   0.166  -0.151
    1UNL    H24   57   0.531   0.396  -0.098
    1UNL    H25   58   0.624   0.323   0.026
    1UNL    H26   59   0.407   0.423   0.131
    1UNL    H27   60   0.198   0.308   0.038
    1UNL    H28   61   0.250   0.441  -0.055
    1UNL    H29   62  -0.010   0.056   0.157
    1UNL    H30   63  -0.139   0.016  -0.055
    1UNL    H31   64   0.145  -0.053  -0.134
    1UNL    H32   65  -0.203  -0.027  -0.255
    1UNL    H33   66  -0.257  -0.018  -0.483
    1UNL    H34   67  -0.093   0.087  -0.648
    1UNL    H35   68   0.154   0.088  -0.572
    1UNL    H36   69   0.211   0.060  -0.344
   0.00000   0.00000   0.00000   0.00000   0.00000   0.00000   0.00000   0.00000   0.00000
Generated with MDTraj, t= 76.0
 69
    1UNL     C1    1  -0.608  -0.259   0.261
    1UNL     C2    2  -0.523  -0.135   0.264
    1UNL     C3    3  -0.556  -0.032   0.158
    1UNL     C4    4  -0.364  -0.169   0.266
    1UNL     C5    5  -0.306  -0.228   0.135
    1UNL     C6    6  -0.179  -0.249   0.110
    1UNL     C7    7  -0.068  -0.165   0.187
    1UNL     C8    8  -0.120  -0.115   0.326
    1UNL     C9    9  -0.265  -0.061   0.323
    1UNL    C10   10   0.067  -0.233   0.209
    1UNL    C11   11   0.132  -0.125   0.127
    1UNL    C12   12   0.208  -0.040   0.223
    1UNL     O1   13   0.150   0.013   0.311
    1UNL    C13   14   0.356  -0.014   0.209
    1UNL    C14   15   0.380   0.088   0.092
    1UNL    C15   16   0.502   0.061  -0.006
    1UNL    C16   17   0.519   0.178  -0.100
    1UNL    C17   18   0.538   0.304  -0.019
    1UNL    C18   19   0.414   0.329   0.063
    1UNL    C19   20   0.284   0.337  -0.013
    1UNL    C20   21   0.293   0.267  -0.151
    1UNL     O2   22   0.209   0.295  -0.231
    1UNL     O3   23   0.399   0.185  -0.178
    1UNL     O4   24   0.392   0.218   0.156
    1UNL    C21   25  -0.006  -0.056   0.093
    1UNL    C22   26  -0.044  -0.039  -0.049
    1UNL    C23   27   0.026   0.035  -0.132
    1UNL    C24   28   0.009   0.027  -0.274
    1UNL    C25   29  -0.116   0.008  -0.329
    1UNL    C26   30  -0.143   0.006  -0.467
    1UNL    C27   31  -0.042   0.044  -0.555
    1UNL    C28   32   0.078   0.079  -0.500
    1UNL    C29   33   0.107   0.065  -0.363
    1UNL     H1   34  -0.709  -0.228   0.253
    1UNL     H2   35  -0.593  -0.302   0.360
    1UNL     H3   36  -0.582  -0.334   0.184
    1UNL     H4   37  -0.542  -0.083   0.353
    1UNL     H5   38  -0.547  -0.076   0.057
    1UNL     H6   39  -0.665  -0.020   0.162
    1UNL     H7   40  -0.508   0.068   0.170
    1UNL     H8   41  -0.355  -0.257   0.339
    1UNL     H9   42  -0.375  -0.266   0.061
    1UNL    H10   43  -0.144  -0.304   0.023
    1UNL    H11   44  -0.094  -0.205   0.397
    1UNL    H12   45  -0.060  -0.030   0.354
    1UNL    H13   46  -0.277   0.033   0.265
    1UNL    H14   47  -0.302  -0.025   0.422
    1UNL    H15   48   0.069  -0.333   0.155
    1UNL    H16   49   0.109  -0.243   0.308
    1UNL    H17   50   0.183  -0.168   0.039
    1UNL    H18   51   0.407  -0.109   0.202
    1UNL    H19   52   0.395   0.026   0.298
    1UNL    H20   53   0.288   0.095   0.029
    1UNL    H21   54   0.600   0.037   0.053
    1UNL    H22   55   0.481  -0.034  -0.060
    1UNL    H23   56   0.604   0.154  -0.169
    1UNL    H24   57   0.562   0.379  -0.097
    1UNL    H25   58   0.622   0.292   0.049
    1UNL    H26   59   0.427   0.415   0.123
    1UNL    H27   60   0.202   0.296   0.040
    1UNL    H28   61   0.250   0.445  -0.020
    1UNL    H29   62  -0.016   0.037   0.144
    1UNL    H30   63  -0.131  -0.094  -0.082
    1UNL    H31   64   0.116   0.088  -0.095
    1UNL    H32   65  -0.200  -0.026  -0.262
    1UNL    H33   66  -0.230  -0.042  -0.515
    1UNL    H34   67  -0.056   0.039  -0.660
    1UNL    H35   68   0.163   0.105  -0.569
    1UNL    H36   69   0.197   0.098  -0.315
   0.00000   0.00000   0.00000   0.00000   0.00000   0.00000   0.00000   0.00000   0.00000
Generated with MDTraj, t= 77.0
 69
    1UNL     C1    1  -0.610  -0.252   0.241
    1UNL     C2    2  -0.518  -0.144   0.284
    1UNL     C3    3  -0.523  -0.030   0.174
    1UNL     C4    4  -0.371  -0.185   0.300
    1UNL     C5    5  -0.327  -0.269   0.180
    1UNL     C6    6  -0.208  -0.258   0.124
    1UNL     C7    7  -0.095  -0.170   0.183
    1UNL     C8    8  -0.131  -0.115   0.328
    1UNL     C9    9  -0.274  -0.074   0.327
    1UNL    C10   10   0.051  -0.239   0.195
    1UNL    C11   11   0.123  -0.117   0.130
    1UNL    C12   12   0.204  -0.030   0.220
    1UNL     O1   13   0.141   0.037   0.301
    1UNL    C13   14   0.355  -0.019   0.189
    1UNL    C14   15   0.384   0.092   0.078
    1UNL    C15   16   0.504   0.056  -0.008
    1UNL    C16   17   0.521   0.175  -0.104
    1UNL    C17   18   0.556   0.299  -0.015
    1UNL    C18   19   0.433   0.326   0.067
    1UNL    C19   20   0.304   0.352  -0.013
    1UNL    C20   21   0.306   0.295  -0.150
    1UNL     O2   22   0.226   0.339  -0.227
    1UNL     O3   23   0.397   0.189  -0.179
    1UNL     O4   24   0.410   0.215   0.156
    1UNL    C21   25  -0.021  -0.061   0.091
    1UNL    C22   26  -0.040  -0.055  -0.057
    1UNL    C23   27  -0.012   0.050  -0.134
    1UNL    C24   28  -0.002   0.032  -0.282
    1UNL    C25   29  -0.119  -0.014  -0.346
    1UNL    C26   30  -0.122  -0.020  -0.481
    1UNL    C27   31  -0.022   0.031  -0.561
    1UNL    C28   32   0.094   0.083  -0.499
    1UNL    C29   33   0.102   0.078  -0.359
    1UNL     H1   34  -0.708  -0.214   0.255
    1UNL     H2   35  -0.593  -0.347   0.295
    1UNL     H3   36  -0.595  -0.268   0.134
    1UNL     H4   37  -0.543  -0.106   0.379
    1UNL     H5   38  -0.468  -0.056   0.080
    1UNL     H6   39  -0.624  -0.016   0.137
    1UNL     H7   40  -0.495   0.068   0.213
    1UNL     H8   41  -0.364  -0.251   0.394
    1UNL     H9   42  -0.393  -0.350   0.155
    1UNL    H10   43  -0.193  -0.295   0.028
    1UNL    H11   44  -0.113  -0.194   0.414
    1UNL    H12   45  -0.067  -0.030   0.345
    1UNL    H13   46  -0.297   0.003   0.250
    1UNL    H14   47  -0.299  -0.015   0.419
    1UNL    H15   48   0.060  -0.335   0.134
    1UNL    H16   49   0.078  -0.255   0.296
    1UNL    H17   50   0.176  -0.139   0.036
    1UNL    H18   51   0.404  -0.110   0.163
    1UNL    H19   52   0.404   0.009   0.281
    1UNL    H20   53   0.289   0.102   0.022
    1UNL    H21   54   0.594   0.026   0.066
    1UNL    H22   55   0.487  -0.031  -0.065
    1UNL    H23   56   0.598   0.146  -0.173
    1UNL    H24   57   0.582   0.379  -0.087
    1UNL    H25   58   0.641   0.283   0.051
    1UNL    H26   59   0.436   0.416   0.124
    1UNL    H27   60   0.220   0.318   0.046
    1UNL    H28   61   0.279   0.460  -0.034
    1UNL    H29   62  -0.038   0.037   0.131
    1UNL    H30   63  -0.075  -0.147  -0.100
    1UNL    H31   64   0.019   0.139  -0.090
    1UNL    H32   65  -0.204  -0.046  -0.297
    1UNL    H33   66  -0.208  -0.066  -0.522
    1UNL    H34   67  -0.018   0.026  -0.668
    1UNL    H35   68   0.165   0.141  -0.545
    1UNL    H36   69   0.179   0.132  -0.306
   0.00000   0.00000   0.00000   0.00000   0.00000   0.00000   0.00000   0.00000   0.00000
Generated with MDTraj, t= 78.0
 69
    1UNL     C1    1  -0.609  -0.248   0.264
    1UNL     C2    2  -0.515  -0.131   0.280
    1UNL     C3    3  -0.528  -0.038   0.158
    1UNL     C4    4  -0.373  -0.186   0.297
    1UNL     C5    5  -0.325  -0.258   0.168
    1UNL     C6    6  -0.201  -0.249   0.118
    1UNL     C7    7  -0.092  -0.173   0.185
    1UNL     C8    8  -0.132  -0.127   0.325
    1UNL     C9    9  -0.271  -0.080   0.332
    1UNL    C10   10   0.052  -0.243   0.176
    1UNL    C11   11   0.109  -0.098   0.119
    1UNL    C12   12   0.194  -0.022   0.215
    1UNL     O1   13   0.160   0.015   0.325
    1UNL    C13   14   0.340  -0.005   0.190
    1UNL    C14   15   0.379   0.103   0.083
    1UNL    C15   16   0.473   0.052  -0.029
    1UNL    C16   17   0.522   0.172  -0.110
    1UNL    C17   18   0.573   0.283  -0.012
    1UNL    C18   19   0.454   0.334   0.076
    1UNL    C19   20   0.332   0.375  -0.011
    1UNL    C20   21   0.319   0.306  -0.152
    1UNL     O2   22   0.222   0.333  -0.217
    1UNL     O3   23   0.413   0.215  -0.196
    1UNL     O4   24   0.421   0.219   0.159
    1UNL    C21   25  -0.039  -0.056   0.105
    1UNL    C22   26  -0.085  -0.049  -0.040
    1UNL    C23   27  -0.010   0.000  -0.137
    1UNL    C24   28  -0.031   0.025  -0.278
    1UNL    C25   29  -0.116  -0.050  -0.360
    1UNL    C26   30  -0.096  -0.050  -0.501
    1UNL    C27   31   0.001   0.023  -0.559
    1UNL    C28   32   0.087   0.105  -0.481
    1UNL    C29   33   0.069   0.102  -0.340
    1UNL     H1   34  -0.714  -0.227   0.278
    1UNL     H2   35  -0.582  -0.329   0.332
    1UNL     H3   36  -0.596  -0.291   0.167
    1UNL     H4   37  -0.535  -0.083   0.373
    1UNL     H5   38  -0.539  -0.097   0.064
    1UNL     H6   39  -0.617   0.022   0.161
    1UNL     H7   40  -0.450   0.036   0.143
    1UNL     H8   41  -0.382  -0.260   0.384
    1UNL     H9   42  -0.407  -0.307   0.120
    1UNL    H10   43  -0.166  -0.310   0.028
    1UNL    H11   44  -0.121  -0.221   0.393
    1UNL    H12   45  -0.070  -0.045   0.362
    1UNL    H13   46  -0.279   0.007   0.260
    1UNL    H14   47  -0.296  -0.030   0.429
    1UNL    H15   48   0.070  -0.319   0.095
    1UNL    H16   49   0.093  -0.275   0.271
    1UNL    H17   50   0.165  -0.100   0.023
    1UNL    H18   51   0.376  -0.097   0.157
    1UNL    H19   52   0.401   0.010   0.278
    1UNL    H20   53   0.287   0.132   0.036
    1UNL    H21   54   0.566   0.014   0.019
    1UNL    H22   55   0.433  -0.026  -0.090
    1UNL    H23   56   0.597   0.149  -0.181
    1UNL    H24   57   0.623   0.370  -0.060
    1UNL    H25   58   0.651   0.236   0.047
    1UNL    H26   59   0.484   0.419   0.140
    1UNL    H27   60   0.239   0.348   0.044
    1UNL    H28   61   0.329   0.485  -0.017
    1UNL    H29   62  -0.056   0.041   0.147
    1UNL    H30   63  -0.188  -0.068  -0.057
    1UNL    H31   64   0.088   0.042  -0.106
    1UNL    H32   65  -0.200  -0.114  -0.324
    1UNL    H33   66  -0.151  -0.124  -0.565
    1UNL    H34   67   0.015   0.027  -0.670
    1UNL    H35   68   0.152   0.182  -0.535
    1UNL    H36   69   0.115   0.178  -0.279
   0.00000   0.00000   0.00000   0.00000   0.00000   0.00000   0.00000   0.00000   0.00000
Generated with MDTraj, t= 79.0
 69
    1UNL     C1    1  -0.635  -0.224   0.308
    1UNL     C2    2  -0.526  -0.125   0.266
    1UNL     C3    3  -0.542  -0.046   0.132
    1UNL     C4    4  -0.382  -0.197   0.285
    1UNL     C5    5  -0.330  -0.251   0.151
    1UNL     C6    6  -0.204  -0.250   0.108
    1UNL     C7    7  -0.094  -0.173   0.178
    1UNL     C8    8  -0.125  -0.146   0.327
    1UNL     C9    9  -0.274  -0.100   0.347
    1UNL    C10   10   0.049  -0.242   0.166
    1UNL    C11   11   0.113  -0.112   0.110
    1UNL    C12   12   0.193  -0.025   0.212
    1UNL     O1   13   0.138   0.011   0.312
    1UNL    C13   14   0.338   0.001   0.184
    1UNL    C14   15   0.368   0.110   0.081
    1UNL    C15   16   0.468   0.055  -0.020
    1UNL    C16   17   0.527   0.169  -0.110
    1UNL    C17   18   0.588   0.273  -0.014
    1UNL    C18   19   0.468   0.330   0.067
    1UNL    C19   20   0.358   0.394  -0.025
    1UNL    C20   21   0.313   0.305  -0.138
    1UNL     O2   22   0.202   0.322  -0.180
    1UNL     O3   23   0.407   0.213  -0.193
    1UNL     O4   24   0.417   0.226   0.147
    1UNL    C21   25  -0.034  -0.051   0.096
    1UNL    C22   26  -0.053  -0.039  -0.054
    1UNL    C23   27   0.027   0.036  -0.130
    1UNL    C24   28   0.017   0.032  -0.281
    1UNL    C25   29  -0.040  -0.085  -0.331
    1UNL    C26   30  -0.079  -0.090  -0.466
    1UNL    C27   31  -0.045   0.019  -0.543
    1UNL    C28   32   0.030   0.129  -0.493
    1UNL    C29   33   0.060   0.136  -0.361
    1UNL     H1   34  -0.738  -0.191   0.292
    1UNL     H2   35  -0.626  -0.245   0.414
    1UNL     H3   36  -0.625  -0.317   0.260
    1UNL     H4   37  -0.526  -0.047   0.341
    1UNL     H5   38  -0.535  -0.120   0.050
    1UNL     H6   39  -0.640  -0.002   0.132
    1UNL     H7   40  -0.471   0.036   0.122
    1UNL     H8   41  -0.395  -0.282   0.360
    1UNL     H9   42  -0.396  -0.297   0.080
    1UNL    H10   43  -0.179  -0.301   0.023
    1UNL    H11   44  -0.108  -0.238   0.387
    1UNL    H12   45  -0.056  -0.068   0.365
    1UNL    H13   46  -0.299   0.005   0.315
    1UNL    H14   47  -0.285  -0.091   0.458
    1UNL    H15   48   0.034  -0.327   0.098
    1UNL    H16   49   0.087  -0.270   0.266
    1UNL    H17   50   0.151  -0.125   0.006
    1UNL    H18   51   0.384  -0.091   0.167
    1UNL    H19   52   0.390   0.030   0.276
    1UNL    H20   53   0.281   0.135   0.024
    1UNL    H21   54   0.541   0.001   0.020
    1UNL    H22   55   0.408  -0.006  -0.088
    1UNL    H23   56   0.599   0.147  -0.184
    1UNL    H24   57   0.655   0.347  -0.059
    1UNL    H25   58   0.646   0.215   0.057
    1UNL    H26   59   0.514   0.397   0.148
    1UNL    H27   60   0.267   0.410   0.044
    1UNL    H28   61   0.393   0.486  -0.068
    1UNL    H29   62  -0.052   0.046   0.136
    1UNL    H30   63  -0.147  -0.082  -0.091
    1UNL    H31   64   0.106   0.093  -0.088
    1UNL    H32   65  -0.046  -0.178  -0.277
    1UNL    H33   66  -0.121  -0.180  -0.502
    1UNL    H34   67  -0.066   0.014  -0.644
    1UNL    H35   68   0.042   0.215  -0.549
    1UNL    H36   69   0.116   0.215  -0.313
   0.00000   0.00000   0.00000   0.00000   0.00000   0.00000   0.00000   0.00000   0.00000
Generated with MDTraj, t= 80.0
 69
    1UNL     C1    1  -0.619  -0.231   0.303
    1UNL     C2    2  -0.516  -0.116   0.266
    1UNL     C3    3  -0.537  -0.049   0.125
    1UNL     C4    4  -0.367  -0.171   0.262
    1UNL     C5    5  -0.317  -0.248   0.141
    1UNL     C6    6  -0.188  -0.248   0.103
    1UNL     C7    7  -0.082  -0.160   0.173
    1UNL     C8    8  -0.128  -0.122   0.322
    1UNL     C9    9  -0.274  -0.057   0.313
    1UNL    C10   10   0.059  -0.230   0.172
    1UNL    C11   11   0.126  -0.102   0.123
    1UNL    C12   12   0.201  -0.025   0.231
    1UNL     O1   13   0.144   0.004   0.329
    1UNL    C13   14   0.346   0.005   0.213
    1UNL    C14   15   0.383   0.102   0.104
    1UNL    C15   16   0.469   0.046  -0.012
    1UNL    C16   17   0.505   0.166  -0.108
    1UNL    C17   18   0.578   0.269  -0.031
    1UNL    C18   19   0.472   0.314   0.069
    1UNL    C19   20   0.339   0.368  -0.001
    1UNL    C20   21   0.293   0.291  -0.118
    1UNL     O2   22   0.184   0.308  -0.167
    1UNL     O3   23   0.381   0.202  -0.180
    1UNL     O4   24   0.455   0.214   0.161
    1UNL    C21   25  -0.019  -0.046   0.093
    1UNL    C22   26  -0.052  -0.041  -0.056
    1UNL    C23   27   0.021   0.029  -0.141
    1UNL    C24   28  -0.001   0.026  -0.286
    1UNL    C25   29  -0.019  -0.095  -0.353
    1UNL    C26   30  -0.048  -0.100  -0.490
    1UNL    C27   31  -0.040   0.022  -0.563
    1UNL    C28   32  -0.028   0.142  -0.500
    1UNL    C29   33  -0.011   0.144  -0.362
    1UNL     H1   34  -0.718  -0.183   0.313
    1UNL     H2   35  -0.597  -0.282   0.395
    1UNL     H3   36  -0.626  -0.298   0.221
    1UNL     H4   37  -0.524  -0.034   0.339
    1UNL     H5   38  -0.534  -0.133   0.055
    1UNL     H6   39  -0.634  -0.003   0.122
    1UNL     H7   40  -0.463   0.029   0.107
    1UNL     H8   41  -0.360  -0.248   0.346
    1UNL     H9   42  -0.376  -0.322   0.089
    1UNL    H10   43  -0.158  -0.296   0.006
    1UNL    H11   44  -0.115  -0.200   0.393
    1UNL    H12   45  -0.064  -0.037   0.358
    1UNL    H13   46  -0.266   0.030   0.243
    1UNL    H14   47  -0.323  -0.010   0.401
    1UNL    H15   48   0.072  -0.306   0.097
    1UNL    H16   49   0.099  -0.263   0.273
    1UNL    H17   50   0.182  -0.129   0.031
    1UNL    H18   51   0.390  -0.089   0.199
    1UNL    H19   52   0.387   0.029   0.311
    1UNL    H20   53   0.293   0.145   0.067
    1UNL    H21   54   0.552   0.001   0.030
    1UNL    H22   55   0.417  -0.027  -0.069
    1UNL    H23   56   0.568   0.118  -0.183
    1UNL    H24   57   0.604   0.354  -0.093
    1UNL    H25   58   0.666   0.223   0.017
    1UNL    H26   59   0.535   0.395   0.124
    1UNL    H27   60   0.251   0.363   0.074
    1UNL    H28   61   0.359   0.469  -0.033
    1UNL    H29   62  -0.038   0.050   0.138
    1UNL    H30   63  -0.141  -0.090  -0.088
    1UNL    H31   64   0.113   0.078  -0.114
    1UNL    H32   65   0.002  -0.186  -0.301
    1UNL    H33   66  -0.051  -0.196  -0.543
    1UNL    H34   67  -0.058   0.025  -0.673
    1UNL    H35   68  -0.027   0.236  -0.557
    1UNL    H36   69  -0.016   0.239  -0.311
   0.00000   0.00000   0.00000   0.00000   0.00000   0.00000   0.00000   0.00000   0.00000
Generated with MDTraj, t= 81.0
 69
    1UNL     C1    1  -0.582  -0.245   0.246
    1UNL     C2    2  -0.502  -0.118   0.251
    1UNL     C3    3  -0.522  -0.042   0.123
    1UNL     C4    4  -0.355  -0.153   0.275
    1UNL     C5    5  -0.305  -0.224   0.157
    1UNL     C6    6  -0.177  -0.231   0.110
    1UNL     C7    7  -0.074  -0.144   0.178
    1UNL     C8    8  -0.123  -0.071   0.307
    1UNL     C9    9  -0.266  -0.025   0.293
    1UNL    C10   10   0.060  -0.228   0.192
    1UNL    C11   11   0.143  -0.109   0.137
    1UNL    C12   12   0.210  -0.028   0.244
    1UNL     O1   13   0.157   0.014   0.345
    1UNL    C13   14   0.363  -0.008   0.234
    1UNL    C14   15   0.397   0.085   0.119
    1UNL    C15   16   0.471   0.026  -0.001
    1UNL    C16   17   0.470   0.142  -0.109
    1UNL    C17   18   0.546   0.259  -0.056
    1UNL    C18   19   0.463   0.314   0.066
    1UNL    C19   20   0.326   0.354   0.006
    1UNL    C20   21   0.263   0.271  -0.099
    1UNL     O2   22   0.150   0.290  -0.133
    1UNL     O3   23   0.336   0.170  -0.148
    1UNL     O4   24   0.458   0.213   0.170
    1UNL    C21   25   0.016  -0.052   0.085
    1UNL    C22   26  -0.006  -0.062  -0.067
    1UNL    C23   27   0.010   0.034  -0.153
    1UNL    C24   28  -0.015   0.030  -0.301
    1UNL    C25   29  -0.014  -0.089  -0.374
    1UNL    C26   30  -0.031  -0.084  -0.509
    1UNL    C27   31  -0.052   0.035  -0.583
    1UNL    C28   32  -0.051   0.147  -0.509
    1UNL    C29   33  -0.050   0.143  -0.368
    1UNL     H1   34  -0.689  -0.221   0.247
    1UNL     H2   35  -0.556  -0.302   0.331
    1UNL     H3   36  -0.556  -0.297   0.155
    1UNL     H4   37  -0.539  -0.059   0.339
    1UNL     H5   38  -0.494  -0.098   0.037
    1UNL     H6   39  -0.620   0.001   0.097
    1UNL     H7   40  -0.461   0.046   0.129
    1UNL     H8   41  -0.339  -0.222   0.363
    1UNL     H9   42  -0.384  -0.262   0.092
    1UNL    H10   43  -0.147  -0.297   0.033
    1UNL    H11   44  -0.123  -0.137   0.388
    1UNL    H12   45  -0.054   0.012   0.342
    1UNL    H13   46  -0.284   0.039   0.203
    1UNL    H14   47  -0.294   0.044   0.375
    1UNL    H15   48   0.064  -0.315   0.130
    1UNL    H16   49   0.088  -0.264   0.296
    1UNL    H17   50   0.208  -0.124   0.049
    1UNL    H18   51   0.412  -0.103   0.243
    1UNL    H19   52   0.403   0.036   0.325
    1UNL    H20   53   0.303   0.119   0.083
    1UNL    H21   54   0.577  -0.001   0.024
    1UNL    H22   55   0.430  -0.063  -0.029
    1UNL    H23   56   0.518   0.093  -0.199
    1UNL    H24   57   0.572   0.340  -0.124
    1UNL    H25   58   0.635   0.222  -0.003
    1UNL    H26   59   0.513   0.404   0.116
    1UNL    H27   60   0.254   0.360   0.095
    1UNL    H28   61   0.335   0.452  -0.040
    1UNL    H29   62   0.012   0.050   0.118
    1UNL    H30   63  -0.030  -0.159  -0.111
    1UNL    H31   64   0.063   0.125  -0.122
    1UNL    H32   65   0.021  -0.174  -0.314
    1UNL    H33   66  -0.020  -0.170  -0.571
    1UNL    H34   67  -0.057   0.034  -0.689
    1UNL    H35   68  -0.070   0.248  -0.550
    1UNL    H36   69  -0.081   0.232  -0.315
   0.00000   0.00000   0.00000   0.00000   0.00000   0.00000   0.00000   0.00000   0.00000
Generated with MDTraj, t= 82.0
 69
    1UNL     C1    1  -0.594  -0.244   0.224
    1UNL     C2    2  -0.498  -0.113   0.233
    1UNL     C3    3  -0.527  -0.015   0.119
    1UNL     C4    4  -0.353  -0.145   0.247
    1UNL     C5    5  -0.302  -0.213   0.122
    1UNL     C6    6  -0.169  -0.212   0.093
    1UNL     C7    7  -0.059  -0.142   0.172
    1UNL     C8    8  -0.109  -0.045   0.283
    1UNL     C9    9  -0.261  -0.019   0.276
    1UNL    C10   10   0.064  -0.229   0.219
    1UNL    C11   11   0.166  -0.129   0.163
    1UNL    C12   12   0.231  -0.039   0.262
    1UNL     O1   13   0.160   0.013   0.346
    1UNL    C13   14   0.378   0.004   0.251
    1UNL    C14   15   0.406   0.089   0.124
    1UNL    C15   16   0.444   0.022  -0.005
    1UNL    C16   17   0.434   0.129  -0.108
    1UNL    C17   18   0.524   0.249  -0.078
    1UNL    C18   19   0.456   0.308   0.046
    1UNL    C19   20   0.314   0.352   0.011
    1UNL    C20   21   0.237   0.257  -0.082
    1UNL     O2   22   0.120   0.287  -0.090
    1UNL     O3   23   0.300   0.160  -0.154
    1UNL     O4   24   0.472   0.212   0.149
    1UNL    C21   25   0.047  -0.056   0.083
    1UNL    C22   26   0.054  -0.076  -0.067
    1UNL    C23   27   0.016   0.020  -0.145
    1UNL    C24   28  -0.005   0.025  -0.291
    1UNL    C25   29   0.006  -0.090  -0.372
    1UNL    C26   30  -0.037  -0.090  -0.503
    1UNL    C27   31  -0.070   0.036  -0.558
    1UNL    C28   32  -0.066   0.153  -0.485
    1UNL    C29   33  -0.039   0.149  -0.351
    1UNL     H1   34  -0.702  -0.230   0.214
    1UNL     H2   35  -0.589  -0.309   0.307
    1UNL     H3   36  -0.569  -0.310   0.139
    1UNL     H4   37  -0.527  -0.066   0.332
    1UNL     H5   38  -0.493  -0.056   0.028
    1UNL     H6   39  -0.633   0.005   0.099
    1UNL     H7   40  -0.482   0.083   0.123
    1UNL     H8   41  -0.342  -0.224   0.327
    1UNL     H9   42  -0.371  -0.268   0.062
    1UNL    H10   43  -0.140  -0.280   0.014
    1UNL    H11   44  -0.081  -0.073   0.378
    1UNL    H12   45  -0.063   0.059   0.281
    1UNL    H13   46  -0.276   0.050   0.190
    1UNL    H14   47  -0.315   0.038   0.353
    1UNL    H15   48   0.072  -0.328   0.179
    1UNL    H16   49   0.072  -0.247   0.330
    1UNL    H17   50   0.237  -0.170   0.089
    1UNL    H18   51   0.443  -0.084   0.244
    1UNL    H19   52   0.406   0.036   0.349
    1UNL    H20   53   0.307   0.123   0.099
    1UNL    H21   54   0.549  -0.025  -0.002
    1UNL    H22   55   0.379  -0.049  -0.039
    1UNL    H23   56   0.478   0.091  -0.209
    1UNL    H24   57   0.518   0.331  -0.147
    1UNL    H25   58   0.626   0.238  -0.038
    1UNL    H26   59   0.500   0.399   0.094
    1UNL    H27   60   0.245   0.359   0.100
    1UNL    H28   61   0.316   0.455  -0.035
    1UNL    H29   62   0.037   0.049   0.104
    1UNL    H30   63   0.097  -0.165  -0.108
    1UNL    H31   64  -0.006   0.114  -0.102
    1UNL    H32   65   0.036  -0.180  -0.327
    1UNL    H33   66  -0.016  -0.175  -0.571
    1UNL    H34   67  -0.079   0.038  -0.668
    1UNL    H35   68  -0.100   0.243  -0.527
    1UNL    H36   69  -0.060   0.237  -0.293
   0.00000   0.00000   0.00000   0.00000   0.00000   0.00000   0.00000   0.00000   0.00000
Generated with MDTraj, t= 83.0
 69
    1UNL     C1    1  -0.565  -0.232   0.211
    1UNL     C2    2  -0.495  -0.099   0.207
    1UNL     C3    3  -0.540  -0.012   0.087
    1UNL     C4    4  -0.337  -0.117   0.206
    1UNL     C5    5  -0.272  -0.175   0.085
    1UNL     C6    6  -0.143  -0.213   0.081
    1UNL     C7    7  -0.043  -0.148   0.180
    1UNL     C8    8  -0.112  -0.048   0.280
    1UNL     C9    9  -0.252   0.008   0.247
    1UNL    C10   10   0.067  -0.240   0.236
    1UNL    C11   11   0.179  -0.142   0.177
    1UNL    C12   12   0.245  -0.056   0.283
    1UNL     O1   13   0.187  -0.045   0.388
    1UNL    C13   14   0.379   0.004   0.248
    1UNL    C14   15   0.377   0.090   0.118
    1UNL    C15   16   0.400   0.024  -0.016
    1UNL    C16   17   0.396   0.128  -0.133
    1UNL    C17   18   0.496   0.239  -0.111
    1UNL    C18   19   0.453   0.304   0.027
    1UNL    C19   20   0.323   0.369   0.002
    1UNL    C20   21   0.218   0.282  -0.066
    1UNL     O2   22   0.098   0.299  -0.057
    1UNL     O3   23   0.266   0.183  -0.153
    1UNL     O4   24   0.463   0.204   0.135
    1UNL    C21   25   0.067  -0.067   0.103
    1UNL    C22   26   0.061  -0.075  -0.048
    1UNL    C23   27   0.018   0.021  -0.127
    1UNL    C24   28  -0.003   0.017  -0.275
    1UNL    C25   29  -0.005  -0.099  -0.349
    1UNL    C26   30  -0.038  -0.096  -0.485
    1UNL    C27   31  -0.055   0.024  -0.545
    1UNL    C28   32  -0.056   0.144  -0.470
    1UNL    C29   33  -0.028   0.141  -0.335
    1UNL     H1   34  -0.669  -0.230   0.234
    1UNL     H2   35  -0.525  -0.304   0.282
    1UNL     H3   36  -0.557  -0.282   0.113
    1UNL     H4   37  -0.529  -0.040   0.299
    1UNL     H5   38  -0.503  -0.055  -0.003
    1UNL     H6   39  -0.647   0.001   0.085
    1UNL     H7   40  -0.494   0.084   0.101
    1UNL     H8   41  -0.322  -0.200   0.281
    1UNL     H9   42  -0.336  -0.208   0.002
    1UNL    H10   43  -0.114  -0.262  -0.014
    1UNL    H11   44  -0.117  -0.076   0.381
    1UNL    H12   45  -0.042   0.039   0.294
    1UNL    H13   46  -0.265   0.087   0.171
    1UNL    H14   47  -0.295   0.051   0.338
    1UNL    H15   48   0.055  -0.342   0.199
    1UNL    H16   49   0.063  -0.250   0.346
    1UNL    H17   50   0.251  -0.209   0.126
    1UNL    H18   51   0.458  -0.075   0.264
    1UNL    H19   52   0.409   0.070   0.325
    1UNL    H20   53   0.278   0.133   0.125
    1UNL    H21   54   0.492  -0.040  -0.033
    1UNL    H22   55   0.315  -0.049  -0.035
    1UNL    H23   56   0.424   0.081  -0.235
    1UNL    H24   57   0.512   0.318  -0.184
    1UNL    H25   58   0.595   0.198  -0.085
    1UNL    H26   59   0.519   0.384   0.059
    1UNL    H27   60   0.280   0.414   0.095
    1UNL    H28   61   0.335   0.453  -0.076
    1UNL    H29   62   0.065   0.037   0.133
    1UNL    H30   63   0.086  -0.175  -0.079
    1UNL    H31   64  -0.009   0.119  -0.080
    1UNL    H32   65   0.021  -0.195  -0.302
    1UNL    H33   66  -0.038  -0.188  -0.536
    1UNL    H34   67  -0.060   0.031  -0.650
    1UNL    H35   68  -0.098   0.231  -0.528
    1UNL    H36   69  -0.034   0.227  -0.270
   0.00000   0.00000   0.00000   0.00000   0.00000   0.00000   0.00000   0.00000   0.00000
Generated with MDTraj, t= 84.0
 69
    1UNL     C1    1  -0.582  -0.201   0.180
    1UNL     C2    2  -0.484  -0.080   0.182
    1UNL     C3    3  -0.478  -0.014   0.048
    1UNL     C4    4  -0.343  -0.125   0.217
    1UNL     C5    5  -0.277  -0.208   0.113
    1UNL     C6    6  -0.144  -0.212   0.097
    1UNL     C7    7  -0.042  -0.130   0.178
    1UNL     C8    8  -0.115  -0.034   0.281
    1UNL     C9    9  -0.255   0.004   0.245
    1UNL    C10   10   0.072  -0.228   0.232
    1UNL    C11   11   0.182  -0.149   0.173
    1UNL    C12   12   0.267  -0.086   0.286
    1UNL     O1   13   0.249  -0.120   0.400
    1UNL    C13   14   0.379   0.001   0.253
    1UNL    C14   15   0.359   0.092   0.124
    1UNL    C15   16   0.371   0.025  -0.018
    1UNL    C16   17   0.361   0.135  -0.133
    1UNL    C17   18   0.473   0.230  -0.126
    1UNL    C18   19   0.443   0.306   0.013
    1UNL    C19   20   0.309   0.381   0.001
    1UNL    C20   21   0.197   0.302  -0.060
    1UNL     O2   22   0.084   0.335  -0.040
    1UNL     O3   23   0.228   0.195  -0.142
    1UNL     O4   24   0.463   0.198   0.116
    1UNL    C21   25   0.078  -0.054   0.100
    1UNL    C22   26   0.066  -0.062  -0.045
    1UNL    C23   27   0.013   0.035  -0.114
    1UNL    C24   28  -0.004   0.016  -0.259
    1UNL    C25   29  -0.028  -0.104  -0.326
    1UNL    C26   30  -0.035  -0.104  -0.466
    1UNL    C27   31  -0.035   0.007  -0.541
    1UNL    C28   32  -0.024   0.133  -0.477
    1UNL    C29   33  -0.002   0.131  -0.339
    1UNL     H1   34  -0.674  -0.159   0.152
    1UNL     H2   35  -0.590  -0.252   0.278
    1UNL     H3   36  -0.545  -0.266   0.101
    1UNL     H4   37  -0.518   0.003   0.256
    1UNL     H5   38  -0.444  -0.087  -0.025
    1UNL     H6   39  -0.577   0.020   0.023
    1UNL     H7   40  -0.412   0.069   0.045
    1UNL     H8   41  -0.345  -0.182   0.312
    1UNL     H9   42  -0.333  -0.260   0.039
    1UNL    H10   43  -0.100  -0.271   0.024
    1UNL    H11   44  -0.108  -0.070   0.381
    1UNL    H12   45  -0.062   0.060   0.300
    1UNL    H13   46  -0.235   0.056   0.151
    1UNL    H14   47  -0.303   0.080   0.307
    1UNL    H15   48   0.064  -0.329   0.184
    1UNL    H16   49   0.081  -0.233   0.339
    1UNL    H17   50   0.238  -0.218   0.106
    1UNL    H18   51   0.479  -0.053   0.246
    1UNL    H19   52   0.394   0.054   0.343
    1UNL    H20   53   0.266   0.145   0.144
    1UNL    H21   54   0.468  -0.030  -0.030
    1UNL    H22   55   0.295  -0.061  -0.049
    1UNL    H23   56   0.353   0.079  -0.231
    1UNL    H24   57   0.458   0.303  -0.205
    1UNL    H25   58   0.575   0.191  -0.147
    1UNL    H26   59   0.529   0.367   0.014
    1UNL    H27   60   0.273   0.425   0.095
    1UNL    H28   61   0.318   0.468  -0.078
    1UNL    H29   62   0.096   0.047   0.128
    1UNL    H30   63   0.088  -0.163  -0.081
    1UNL    H31   64  -0.004   0.127  -0.067
    1UNL    H32   65  -0.024  -0.199  -0.275
    1UNL    H33   66  -0.054  -0.206  -0.507
    1UNL    H34   67  -0.073   0.003  -0.646
    1UNL    H35   68  -0.039   0.222  -0.531
    1UNL    H36   69   0.007   0.229  -0.295
   0.00000   0.00000   0.00000   0.00000   0.00000   0.00000   0.00000   0.00000   0.00000
Generated with MDTraj, t= 85.0
 69
    1UNL     C1    1  -0.595  -0.160   0.155
    1UNL     C2    2  -0.479  -0.055   0.144
    1UNL     C3    3  -0.450  -0.002   0.006
    1UNL     C4    4  -0.347  -0.113   0.206
    1UNL     C5    5  -0.277  -0.206   0.119
    1UNL     C6    6  -0.146  -0.235   0.125
    1UNL     C7    7  -0.045  -0.156   0.211
    1UNL     C8    8  -0.116  -0.067   0.320
    1UNL     C9    9  -0.245  -0.001   0.262
    1UNL    C10   10   0.081  -0.238   0.259
    1UNL    C11   11   0.175  -0.140   0.175
    1UNL    C12   12   0.283  -0.086   0.265
    1UNL     O1   13   0.290  -0.136   0.376
    1UNL    C13   14   0.406   0.000   0.223
    1UNL    C14   15   0.376   0.096   0.104
    1UNL    C15   16   0.372   0.026  -0.033
    1UNL    C16   17   0.350   0.147  -0.145
    1UNL    C17   18   0.450   0.263  -0.126
    1UNL    C18   19   0.435   0.320   0.015
    1UNL    C19   20   0.298   0.376   0.023
    1UNL    C20   21   0.183   0.307  -0.051
    1UNL     O2   22   0.070   0.351  -0.046
    1UNL     O3   23   0.213   0.194  -0.132
    1UNL     O4   24   0.465   0.213   0.111
    1UNL    C21   25   0.054  -0.066   0.118
    1UNL    C22   26   0.032  -0.077  -0.030
    1UNL    C23   27  -0.001   0.016  -0.114
    1UNL    C24   28  -0.015   0.008  -0.259
    1UNL    C25   29  -0.058  -0.106  -0.325
    1UNL    C26   30  -0.051  -0.110  -0.465
    1UNL    C27   31  -0.023   0.004  -0.536
    1UNL    C28   32   0.018   0.118  -0.472
    1UNL    C29   33   0.027   0.117  -0.333
    1UNL     H1   34  -0.681  -0.119   0.107
    1UNL     H2   35  -0.621  -0.177   0.262
    1UNL     H3   36  -0.560  -0.250   0.110
    1UNL     H4   37  -0.507   0.039   0.207
    1UNL     H5   38  -0.426  -0.085  -0.062
    1UNL     H6   39  -0.526   0.056  -0.040
    1UNL     H7   40  -0.362   0.059   0.001
    1UNL     H8   41  -0.378  -0.167   0.298
    1UNL     H9   42  -0.341  -0.271   0.060
    1UNL    H10   43  -0.099  -0.329   0.085
    1UNL    H11   44  -0.154  -0.127   0.402
    1UNL    H12   45  -0.048  -0.010   0.378
    1UNL    H13   46  -0.215   0.069   0.185
    1UNL    H14   47  -0.290   0.061   0.339
    1UNL    H15   48   0.083  -0.348   0.231
    1UNL    H16   49   0.093  -0.218   0.363
    1UNL    H17   50   0.226  -0.196   0.096
    1UNL    H18   51   0.496  -0.067   0.205
    1UNL    H19   52   0.443   0.061   0.302
    1UNL    H20   53   0.278   0.141   0.125
    1UNL    H21   54   0.466  -0.037  -0.060
    1UNL    H22   55   0.298  -0.047  -0.040
    1UNL    H23   56   0.352   0.107  -0.245
    1UNL    H24   57   0.431   0.344  -0.198
    1UNL    H25   58   0.557   0.236  -0.135
    1UNL    H26   59   0.512   0.395   0.038
    1UNL    H27   60   0.269   0.378   0.129
    1UNL    H28   61   0.296   0.486  -0.015
    1UNL    H29   62   0.058   0.033   0.155
    1UNL    H30   63   0.042  -0.176  -0.064
    1UNL    H31   64  -0.003   0.116  -0.066
    1UNL    H32   65  -0.084  -0.192  -0.268
    1UNL    H33   66  -0.056  -0.202  -0.517
    1UNL    H34   67  -0.046  -0.004  -0.639
    1UNL    H35   68   0.053   0.204  -0.534
    1UNL    H36   69   0.076   0.199  -0.285
   0.00000   0.00000   0.00000   0.00000   0.00000   0.00000   0.00000   0.00000   0.00000
Generated with MDTraj, t= 86.0
 69
    1UNL     C1    1  -0.577  -0.107   0.117
    1UNL     C2    2  -0.442  -0.030   0.128
    1UNL     C3    3  -0.384   0.007  -0.017
    1UNL     C4    4  -0.334  -0.103   0.217
    1UNL     C5    5  -0.274  -0.215   0.136
    1UNL     C6    6  -0.151  -0.254   0.142
    1UNL     C7    7  -0.041  -0.178   0.215
    1UNL     C8    8  -0.106  -0.094   0.320
    1UNL     C9    9  -0.229  -0.004   0.278
    1UNL    C10   10   0.079  -0.258   0.266
    1UNL    C11   11   0.178  -0.181   0.173
    1UNL    C12   12   0.276  -0.097   0.246
    1UNL     O1   13   0.259  -0.082   0.366
    1UNL    C13   14   0.390  -0.021   0.189
    1UNL    C14   15   0.356   0.089   0.079
    1UNL    C15   16   0.363   0.051  -0.071
    1UNL    C16   17   0.353   0.177  -0.153
    1UNL    C17   18   0.453   0.280  -0.113
    1UNL    C18   19   0.420   0.325   0.033
    1UNL    C19   20   0.274   0.384   0.039
    1UNL    C20   21   0.174   0.304  -0.054
    1UNL     O2   22   0.058   0.328  -0.037
    1UNL     O3   23   0.216   0.217  -0.156
    1UNL     O4   24   0.429   0.203   0.113
    1UNL    C21   25   0.062  -0.090   0.118
    1UNL    C22   26   0.041  -0.089  -0.028
    1UNL    C23   27   0.004   0.017  -0.095
    1UNL    C24   28  -0.010   0.020  -0.243
    1UNL    C25   29  -0.078  -0.087  -0.299
    1UNL    C26   30  -0.072  -0.118  -0.431
    1UNL    C27   31  -0.018  -0.020  -0.515
    1UNL    C28   32   0.030   0.094  -0.463
    1UNL    C29   33   0.040   0.120  -0.327
    1UNL     H1   34  -0.665  -0.050   0.086
    1UNL     H2   35  -0.617  -0.156   0.208
    1UNL     H3   36  -0.570  -0.188   0.048
    1UNL     H4   37  -0.464   0.072   0.179
    1UNL     H5   38  -0.339  -0.084  -0.056
    1UNL     H6   39  -0.452   0.046  -0.089
    1UNL     H7   40  -0.305   0.079  -0.010
    1UNL     H8   41  -0.400  -0.145   0.295
    1UNL     H9   42  -0.345  -0.274   0.082
    1UNL    H10   43  -0.124  -0.335   0.082
    1UNL    H11   44  -0.133  -0.158   0.404
    1UNL    H12   45  -0.036  -0.038   0.370
    1UNL    H13   46  -0.197   0.066   0.202
    1UNL    H14   47  -0.268   0.059   0.359
    1UNL    H15   48   0.071  -0.366   0.233
    1UNL    H16   49   0.101  -0.254   0.370
    1UNL    H17   50   0.232  -0.237   0.095
    1UNL    H18   51   0.442  -0.099   0.127
    1UNL    H19   52   0.461   0.007   0.265
    1UNL    H20   53   0.253   0.128   0.089
    1UNL    H21   54   0.462  -0.003  -0.097
    1UNL    H22   55   0.290  -0.014  -0.097
    1UNL    H23   56   0.374   0.153  -0.254
    1UNL    H24   57   0.455   0.375  -0.169
    1UNL    H25   58   0.552   0.229  -0.114
    1UNL    H26   59   0.488   0.396   0.090
    1UNL    H27   60   0.232   0.383   0.143
    1UNL    H28   61   0.273   0.495   0.017
    1UNL    H29   62   0.062   0.010   0.155
    1UNL    H30   63   0.071  -0.185  -0.075
    1UNL    H31   64  -0.011   0.108  -0.041
    1UNL    H32   65  -0.125  -0.160  -0.231
    1UNL    H33   66  -0.105  -0.217  -0.463
    1UNL    H34   67   0.010  -0.054  -0.614
    1UNL    H35   68   0.068   0.165  -0.532
    1UNL    H36   69   0.093   0.213  -0.298
   0.00000   0.00000   0.00000   0.00000   0.00000   0.00000   0.00000   0.00000   0.00000
Generated with MDTraj, t= 87.0
 69
    1UNL     C1    1  -0.532  -0.056   0.064
    1UNL     C2    2  -0.401   0.005   0.112
    1UNL     C3    3  -0.317   0.034  -0.007
    1UNL     C4    4  -0.328  -0.098   0.208
    1UNL     C5    5  -0.272  -0.225   0.143
    1UNL     C6    6  -0.152  -0.270   0.161
    1UNL     C7    7  -0.042  -0.190   0.225
    1UNL     C8    8  -0.106  -0.112   0.343
    1UNL     C9    9  -0.219  -0.023   0.286
    1UNL    C10   10   0.097  -0.259   0.256
    1UNL    C11   11   0.167  -0.165   0.155
    1UNL    C12   12   0.269  -0.074   0.233
    1UNL     O1   13   0.245  -0.033   0.345
    1UNL    C13   14   0.392  -0.032   0.156
    1UNL    C14   15   0.358   0.091   0.075
    1UNL    C15   16   0.379   0.072  -0.075
    1UNL    C16   17   0.379   0.206  -0.153
    1UNL    C17   18   0.461   0.317  -0.084
    1UNL    C18   19   0.406   0.322   0.058
    1UNL    C19   20   0.256   0.356   0.065
    1UNL    C20   21   0.170   0.295  -0.039
    1UNL     O2   22   0.053   0.297  -0.025
    1UNL     O3   23   0.232   0.243  -0.150
    1UNL     O4   24   0.431   0.205   0.126
    1UNL    C21   25   0.031  -0.100   0.121
    1UNL    C22   26  -0.008  -0.113  -0.019
    1UNL    C23   27  -0.004  -0.006  -0.099
    1UNL    C24   28  -0.012  -0.015  -0.248
    1UNL    C25   29  -0.081  -0.123  -0.303
    1UNL    C26   30  -0.106  -0.126  -0.439
    1UNL    C27   31  -0.061  -0.025  -0.520
    1UNL    C28   32   0.005   0.080  -0.468
    1UNL    C29   33   0.040   0.082  -0.335
    1UNL     H1   34  -0.592   0.004  -0.008
    1UNL     H2   35  -0.605  -0.072   0.144
    1UNL     H3   36  -0.513  -0.153   0.022
    1UNL     H4   37  -0.420   0.103   0.168
    1UNL     H5   38  -0.315  -0.062  -0.060
    1UNL     H6   39  -0.349   0.118  -0.066
    1UNL     H7   40  -0.219   0.057   0.029
    1UNL     H8   41  -0.408  -0.130   0.277
    1UNL     H9   42  -0.344  -0.269   0.078
    1UNL    H10   43  -0.131  -0.368   0.114
    1UNL    H11   44  -0.158  -0.183   0.410
    1UNL    H12   45  -0.043  -0.071   0.415
    1UNL    H13   46  -0.170   0.043   0.216
    1UNL    H14   47  -0.262   0.041   0.362
    1UNL    H15   48   0.092  -0.371   0.246
    1UNL    H16   49   0.127  -0.242   0.358
    1UNL    H17   50   0.218  -0.221   0.077
    1UNL    H18   51   0.442  -0.119   0.111
    1UNL    H19   52   0.463   0.005   0.233
    1UNL    H20   53   0.251   0.117   0.094
    1UNL    H21   54   0.475   0.014  -0.078
    1UNL    H22   55   0.306   0.001  -0.106
    1UNL    H23   56   0.405   0.193  -0.254
    1UNL    H24   57   0.459   0.413  -0.142
    1UNL    H25   58   0.567   0.285  -0.071
    1UNL    H26   59   0.457   0.403   0.123
    1UNL    H27   60   0.207   0.337   0.166
    1UNL    H28   61   0.247   0.467   0.057
    1UNL    H29   62   0.028   0.001   0.155
    1UNL    H30   63  -0.017  -0.214  -0.050
    1UNL    H31   64   0.016   0.092  -0.062
    1UNL    H32   65  -0.132  -0.182  -0.232
    1UNL    H33   66  -0.166  -0.206  -0.484
    1UNL    H34   67  -0.074  -0.032  -0.632
    1UNL    H35   68   0.042   0.158  -0.537
    1UNL    H36   69   0.079   0.174  -0.301
   0.00000   0.00000   0.00000   0.00000   0.00000   0.00000   0.00000   0.00000   0.00000
Generated with MDTraj, t= 88.0
 69
    1UNL     C1    1  -0.492  -0.031   0.022
    1UNL     C2    2  -0.367   0.015   0.105
    1UNL     C3    3  -0.250   0.041   0.018
    1UNL     C4    4  -0.333  -0.083   0.218
    1UNL     C5    5  -0.286  -0.218   0.160
    1UNL     C6    6  -0.165  -0.265   0.157
    1UNL     C7    7  -0.053  -0.191   0.225
    1UNL     C8    8  -0.105  -0.105   0.347
    1UNL     C9    9  -0.226  -0.015   0.319
    1UNL    C10   10   0.084  -0.263   0.254
    1UNL    C11   11   0.162  -0.170   0.162
    1UNL    C12   12   0.260  -0.070   0.221
    1UNL     O1   13   0.229  -0.021   0.323
    1UNL    C13   14   0.387  -0.028   0.150
    1UNL    C14   15   0.368   0.099   0.065
    1UNL    C15   16   0.433   0.100  -0.081
    1UNL    C16   17   0.388   0.232  -0.133
    1UNL    C17   18   0.447   0.347  -0.058
    1UNL    C18   19   0.394   0.339   0.081
    1UNL    C19   20   0.237   0.363   0.081
    1UNL    C20   21   0.175   0.283  -0.023
    1UNL     O2   22   0.059   0.259  -0.014
    1UNL     O3   23   0.242   0.237  -0.137
    1UNL     O4   24   0.428   0.212   0.137
    1UNL    C21   25   0.025  -0.115   0.107
    1UNL    C22   26  -0.004  -0.142  -0.036
    1UNL    C23   27   0.027  -0.046  -0.124
    1UNL    C24   28  -0.023  -0.042  -0.263
    1UNL    C25   29  -0.099  -0.146  -0.315
    1UNL    C26   30  -0.138  -0.135  -0.447
    1UNL    C27   31  -0.106  -0.027  -0.525
    1UNL    C28   32  -0.015   0.066  -0.480
    1UNL    C29   33   0.019   0.062  -0.350
    1UNL     H1   34  -0.500   0.044  -0.061
    1UNL     H2   35  -0.585  -0.033   0.077
    1UNL     H3   36  -0.462  -0.128  -0.018
    1UNL     H4   37  -0.390   0.113   0.157
    1UNL     H5   38  -0.235  -0.043  -0.046
    1UNL     H6   39  -0.253   0.133  -0.040
    1UNL     H7   40  -0.163   0.057   0.082
    1UNL     H8   41  -0.416  -0.102   0.285
    1UNL     H9   42  -0.372  -0.263   0.106
    1UNL    H10   43  -0.138  -0.353   0.100
    1UNL    H11   44  -0.105  -0.154   0.447
    1UNL    H12   45  -0.030  -0.036   0.370
    1UNL    H13   46  -0.194   0.087   0.302
    1UNL    H14   47  -0.276  -0.006   0.416
    1UNL    H15   48   0.089  -0.365   0.217
    1UNL    H16   49   0.113  -0.258   0.362
    1UNL    H17   50   0.218  -0.224   0.086
    1UNL    H18   51   0.412  -0.109   0.084
    1UNL    H19   52   0.472  -0.023   0.227
    1UNL    H20   53   0.257   0.114   0.054
    1UNL    H21   54   0.536   0.088  -0.067
    1UNL    H22   55   0.399   0.012  -0.144
    1UNL    H23   56   0.416   0.238  -0.237
    1UNL    H24   57   0.421   0.430  -0.129
    1UNL    H25   58   0.557   0.341  -0.069
    1UNL    H26   59   0.451   0.423   0.139
    1UNL    H27   60   0.200   0.334   0.186
    1UNL    H28   61   0.204   0.468   0.072
    1UNL    H29   62   0.039  -0.010   0.124
    1UNL    H30   63  -0.076  -0.219  -0.058
    1UNL    H31   64   0.091   0.041  -0.102
    1UNL    H32   65  -0.135  -0.224  -0.246
    1UNL    H33   66  -0.212  -0.199  -0.487
    1UNL    H34   67  -0.145  -0.017  -0.618
    1UNL    H35   68   0.010   0.149  -0.541
    1UNL    H36   69   0.095   0.134  -0.316
   0.00000   0.00000   0.00000   0.00000   0.00000   0.00000   0.00000   0.00000   0.00000
Generated with MDTraj, t= 89.0
 69
    1UNL     C1    1  -0.461  -0.038   0.019
    1UNL     C2    2  -0.347   0.033   0.107
    1UNL     C3    3  -0.239   0.082   0.016
    1UNL     C4    4  -0.305  -0.055   0.221
    1UNL     C5    5  -0.278  -0.188   0.166
    1UNL     C6    6  -0.163  -0.247   0.168
    1UNL     C7    7  -0.036  -0.177   0.211
    1UNL     C8    8  -0.065  -0.083   0.329
    1UNL     C9    9  -0.191  -0.004   0.316
    1UNL    C10   10   0.088  -0.270   0.241
    1UNL    C11   11   0.172  -0.179   0.147
    1UNL    C12   12   0.256  -0.080   0.229
    1UNL     O1   13   0.228  -0.041   0.341
    1UNL    C13   14   0.386  -0.040   0.164
    1UNL    C14   15   0.366   0.093   0.080
    1UNL    C15   16   0.425   0.094  -0.057
    1UNL    C16   17   0.388   0.229  -0.120
    1UNL    C17   18   0.429   0.352  -0.021
    1UNL    C18   19   0.357   0.334   0.106
    1UNL    C19   20   0.210   0.340   0.088
    1UNL    C20   21   0.158   0.268  -0.033
    1UNL     O2   22   0.045   0.227  -0.029
    1UNL     O3   23   0.242   0.244  -0.140
    1UNL     O4   24   0.394   0.205   0.161
    1UNL    C21   25   0.049  -0.105   0.096
    1UNL    C22   26   0.004  -0.128  -0.046
    1UNL    C23   27   0.038  -0.048  -0.144
    1UNL    C24   28  -0.013  -0.044  -0.283
    1UNL    C25   29  -0.096  -0.144  -0.325
    1UNL    C26   30  -0.166  -0.139  -0.441
    1UNL    C27   31  -0.136  -0.047  -0.536
    1UNL    C28   32  -0.045   0.050  -0.498
    1UNL    C29   33   0.016   0.060  -0.376
    1UNL     H1   34  -0.523   0.037  -0.035
    1UNL     H2   35  -0.528  -0.106   0.068
    1UNL     H3   36  -0.406  -0.097  -0.060
    1UNL     H4   37  -0.396   0.123   0.152
    1UNL     H5   38  -0.189  -0.001  -0.026
    1UNL     H6   39  -0.278   0.138  -0.070
    1UNL     H7   40  -0.169   0.150   0.064
    1UNL     H8   41  -0.396  -0.058   0.280
    1UNL     H9   42  -0.362  -0.245   0.141
    1UNL    H10   43  -0.141  -0.344   0.127
    1UNL    H11   44  -0.076  -0.148   0.418
    1UNL    H12   45   0.023  -0.033   0.357
    1UNL    H13   46  -0.158   0.087   0.267
    1UNL    H14   47  -0.226   0.033   0.412
    1UNL    H15   48   0.082  -0.374   0.218
    1UNL    H16   49   0.114  -0.257   0.350
    1UNL    H17   50   0.225  -0.226   0.065
    1UNL    H18   51   0.433  -0.123   0.113
    1UNL    H19   52   0.463  -0.013   0.245
    1UNL    H20   53   0.254   0.100   0.062
    1UNL    H21   54   0.524   0.077  -0.046
    1UNL    H22   55   0.382   0.005  -0.117
    1UNL    H23   56   0.443   0.241  -0.216
    1UNL    H24   57   0.417   0.449  -0.073
    1UNL    H25   58   0.538   0.344  -0.020
    1UNL    H26   59   0.398   0.412   0.180
    1UNL    H27   60   0.166   0.303   0.190
    1UNL    H28   61   0.183   0.447   0.091
    1UNL    H29   62   0.050  -0.001   0.121
    1UNL    H30   63  -0.081  -0.195  -0.060
    1UNL    H31   64   0.105   0.030  -0.126
    1UNL    H32   65  -0.113  -0.227  -0.261
    1UNL    H33   66  -0.242  -0.220  -0.458
    1UNL    H34   67  -0.196  -0.037  -0.634
    1UNL    H35   68  -0.012   0.112  -0.583
    1UNL    H36   69   0.087   0.136  -0.353
   0.00000   0.00000   0.00000   0.00000   0.00000   0.00000   0.00000   0.00000   0.00000
Generated with MDTraj, t= 90.0
 69
    1UNL     C1    1  -0.485   0.025   0.048
    1UNL     C2    2  -0.354   0.073   0.106
    1UNL     C3    3  -0.264   0.114  -0.009
    1UNL     C4    4  -0.285  -0.026   0.206
    1UNL     C5    5  -0.262  -0.164   0.146
    1UNL     C6    6  -0.152  -0.234   0.141
    1UNL     C7    7  -0.017  -0.186   0.198
    1UNL     C8    8  -0.049  -0.084   0.309
    1UNL     C9    9  -0.149   0.023   0.271
    1UNL    C10   10   0.100  -0.280   0.229
    1UNL    C11   11   0.196  -0.186   0.146
    1UNL    C12   12   0.294  -0.109   0.237
    1UNL     O1   13   0.278  -0.115   0.359
    1UNL    C13   14   0.407  -0.031   0.193
    1UNL    C14   15   0.367   0.099   0.108
    1UNL    C15   16   0.434   0.110  -0.025
    1UNL    C16   17   0.371   0.229  -0.100
    1UNL    C17   18   0.399   0.364  -0.018
    1UNL    C18   19   0.327   0.341   0.111
    1UNL    C19   20   0.170   0.319   0.092
    1UNL    C20   21   0.138   0.249  -0.038
    1UNL     O2   22   0.019   0.236  -0.058
    1UNL     O3   23   0.236   0.209  -0.131
    1UNL     O4   24   0.376   0.219   0.183
    1UNL    C21   25   0.069  -0.110   0.090
    1UNL    C22   26   0.020  -0.139  -0.054
    1UNL    C23   27   0.011  -0.042  -0.142
    1UNL    C24   28  -0.019  -0.059  -0.285
    1UNL    C25   29  -0.108  -0.162  -0.323
    1UNL    C26   30  -0.173  -0.157  -0.442
    1UNL    C27   31  -0.137  -0.060  -0.529
    1UNL    C28   32  -0.046   0.042  -0.500
    1UNL    C29   33   0.007   0.047  -0.371
    1UNL     H1   34  -0.532   0.086  -0.030
    1UNL     H2   35  -0.568   0.010   0.119
    1UNL     H3   36  -0.474  -0.074  -0.006
    1UNL     H4   37  -0.385   0.165   0.158
    1UNL     H5   38  -0.211   0.024  -0.040
    1UNL     H6   39  -0.313   0.151  -0.099
    1UNL     H7   40  -0.194   0.186   0.030
    1UNL     H8   41  -0.364  -0.031   0.280
    1UNL     H9   42  -0.347  -0.217   0.093
    1UNL    H10   43  -0.151  -0.339   0.110
    1UNL    H11   44  -0.082  -0.137   0.400
    1UNL    H12   45   0.043  -0.047   0.348
    1UNL    H13   46  -0.108   0.108   0.215
    1UNL    H14   47  -0.175   0.073   0.363
    1UNL    H15   48   0.098  -0.372   0.176
    1UNL    H16   49   0.133  -0.296   0.338
    1UNL    H17   50   0.249  -0.243   0.071
    1UNL    H18   51   0.471  -0.086   0.126
    1UNL    H19   52   0.487  -0.011   0.275
    1UNL    H20   53   0.257   0.091   0.079
    1UNL    H21   54   0.540   0.124  -0.011
    1UNL    H22   55   0.416   0.016  -0.086
    1UNL    H23   56   0.429   0.254  -0.196
    1UNL    H24   57   0.365   0.447  -0.084
    1UNL    H25   58   0.507   0.382  -0.008
    1UNL    H26   59   0.349   0.416   0.189
    1UNL    H27   60   0.122   0.266   0.183
    1UNL    H28   61   0.121   0.418   0.099
    1UNL    H29   62   0.065  -0.007   0.117
    1UNL    H30   63  -0.000  -0.237  -0.084
    1UNL    H31   64   0.022   0.059  -0.102
    1UNL    H32   65  -0.129  -0.242  -0.252
    1UNL    H33   66  -0.251  -0.219  -0.467
    1UNL    H34   67  -0.182  -0.069  -0.623
    1UNL    H35   68  -0.010   0.104  -0.581
    1UNL    H36   69   0.078   0.124  -0.343
   0.00000   0.00000   0.00000   0.00000   0.00000   0.00000   0.00000   0.00000   0.00000
Generated with MDTraj, t= 91.0
 69
    1UNL     C1    1  -0.485   0.089   0.119
    1UNL     C2    2  -0.329   0.104   0.105
    1UNL     C3    3  -0.292   0.110  -0.042
    1UNL     C4    4  -0.257  -0.011   0.187
    1UNL     C5    5  -0.247  -0.141   0.114
    1UNL     C6    6  -0.136  -0.214   0.108
    1UNL     C7    7  -0.003  -0.180   0.178
    1UNL     C8    8  -0.031  -0.079   0.289
    1UNL     C9    9  -0.117   0.046   0.241
    1UNL    C10   10   0.100  -0.293   0.220
    1UNL    C11   11   0.212  -0.203   0.158
    1UNL    C12   12   0.298  -0.121   0.252
    1UNL     O1   13   0.288  -0.140   0.370
    1UNL    C13   14   0.405  -0.034   0.193
    1UNL    C14   15   0.344   0.086   0.114
    1UNL    C15   16   0.415   0.110  -0.016
    1UNL    C16   17   0.351   0.234  -0.092
    1UNL    C17   18   0.375   0.353   0.004
    1UNL    C18   19   0.304   0.321   0.129
    1UNL    C19   20   0.147   0.311   0.102
    1UNL    C20   21   0.115   0.260  -0.039
    1UNL     O2   22  -0.001   0.263  -0.071
    1UNL     O3   23   0.211   0.211  -0.119
    1UNL     O4   24   0.353   0.208   0.200
    1UNL    C21   25   0.104  -0.126   0.076
    1UNL    C22   26   0.073  -0.146  -0.071
    1UNL    C23   27   0.021  -0.044  -0.137
    1UNL    C24   28  -0.033  -0.056  -0.272
    1UNL    C25   29  -0.104  -0.173  -0.309
    1UNL    C26   30  -0.153  -0.182  -0.438
    1UNL    C27   31  -0.128  -0.085  -0.533
    1UNL    C28   32  -0.049   0.023  -0.507
    1UNL    C29   33  -0.013   0.040  -0.371
    1UNL     H1   34  -0.534   0.161   0.053
    1UNL     H2   35  -0.525   0.095   0.224
    1UNL     H3   36  -0.513  -0.009   0.073
    1UNL     H4   37  -0.298   0.198   0.150
    1UNL     H5   38  -0.340   0.023  -0.092
    1UNL     H6   39  -0.337   0.191  -0.097
    1UNL     H7   40  -0.186   0.111  -0.063
    1UNL     H8   41  -0.309  -0.037   0.277
    1UNL     H9   42  -0.329  -0.158   0.051
    1UNL    H10   43  -0.131  -0.296   0.041
    1UNL    H11   44  -0.074  -0.131   0.374
    1UNL    H12   45   0.064  -0.050   0.331
    1UNL    H13   46  -0.062   0.106   0.167
    1UNL    H14   47  -0.131   0.116   0.322
    1UNL    H15   48   0.076  -0.391   0.178
    1UNL    H16   49   0.096  -0.287   0.333
    1UNL    H17   50   0.274  -0.265   0.096
    1UNL    H18   51   0.477  -0.090   0.133
    1UNL    H19   52   0.484   0.008   0.265
    1UNL    H20   53   0.233   0.089   0.097
    1UNL    H21   54   0.530   0.125   0.012
    1UNL    H22   55   0.411   0.018  -0.077
    1UNL    H23   56   0.398   0.249  -0.199
    1UNL    H24   57   0.337   0.445  -0.047
    1UNL    H25   58   0.483   0.364   0.018
    1UNL    H26   59   0.313   0.406   0.192
    1UNL    H27   60   0.091   0.256   0.183
    1UNL    H28   61   0.099   0.412   0.116
    1UNL    H29   62   0.103  -0.022   0.091
    1UNL    H30   63   0.090  -0.244  -0.119
    1UNL    H31   64   0.014   0.052  -0.085
    1UNL    H32   65  -0.143  -0.240  -0.234
    1UNL    H33   66  -0.225  -0.266  -0.457
    1UNL    H34   67  -0.169  -0.105  -0.631
    1UNL    H35   68  -0.015   0.094  -0.580
    1UNL    H36   69   0.042   0.131  -0.352
   0.00000   0.00000   0.00000   0.00000   0.00000   0.00000   0.00000   0.00000   0.00000
Generated with MDTraj, t= 92.0
 69
    1UNL     C1    1  -0.465   0.120   0.150
    1UNL     C2    2  -0.319   0.120   0.106
    1UNL     C3    3  -0.307   0.116  -0.041
    1UNL     C4    4  -0.248  -0.001   0.183
    1UNL     C5    5  -0.246  -0.124   0.103
    1UNL     C6    6  -0.140  -0.205   0.116
    1UNL     C7    7  -0.009  -0.165   0.175
    1UNL     C8    8  -0.023  -0.066   0.291
    1UNL     C9    9  -0.111   0.050   0.235
    1UNL    C10   10   0.093  -0.284   0.213
    1UNL    C11   11   0.200  -0.209   0.141
    1UNL    C12   12   0.280  -0.123   0.238
    1UNL     O1   13   0.268  -0.131   0.355
    1UNL    C13   14   0.393  -0.038   0.184
    1UNL    C14   15   0.355   0.093   0.113
    1UNL    C15   16   0.406   0.125  -0.026
    1UNL    C16   17   0.340   0.251  -0.082
    1UNL    C17   18   0.361   0.362   0.023
    1UNL    C18   19   0.305   0.320   0.153
    1UNL    C19   20   0.152   0.296   0.122
    1UNL    C20   21   0.111   0.254  -0.017
    1UNL     O2   22  -0.010   0.237  -0.029
    1UNL     O3   23   0.204   0.228  -0.119
    1UNL     O4   24   0.372   0.205   0.202
    1UNL    C21   25   0.096  -0.125   0.065
    1UNL    C22   26   0.069  -0.162  -0.077
    1UNL    C23   27   0.039  -0.060  -0.156
    1UNL    C24   28  -0.017  -0.072  -0.289
    1UNL    C25   29  -0.067  -0.191  -0.325
    1UNL    C26   30  -0.127  -0.212  -0.449
    1UNL    C27   31  -0.134  -0.106  -0.542
    1UNL    C28   32  -0.072   0.008  -0.506
    1UNL    C29   33  -0.009   0.028  -0.382
    1UNL     H1   34  -0.516   0.212   0.119
    1UNL     H2   35  -0.467   0.101   0.264
    1UNL     H3   36  -0.513   0.037   0.096
    1UNL     H4   37  -0.269   0.208   0.142
    1UNL     H5   38  -0.366   0.027  -0.076
    1UNL     H6   39  -0.355   0.196  -0.095
    1UNL     H7   40  -0.203   0.106  -0.072
    1UNL     H8   41  -0.297  -0.026   0.275
    1UNL     H9   42  -0.344  -0.160   0.067
    1UNL    H10   43  -0.148  -0.298   0.061
    1UNL    H11   44  -0.085  -0.110   0.363
    1UNL    H12   45   0.069  -0.035   0.343
    1UNL    H13   46  -0.050   0.079   0.148
    1UNL    H14   47  -0.115   0.133   0.302
    1UNL    H15   48   0.060  -0.374   0.157
    1UNL    H16   49   0.115  -0.297   0.321
    1UNL    H17   50   0.255  -0.277   0.076
    1UNL    H18   51   0.464  -0.100   0.126
    1UNL    H19   52   0.464  -0.018   0.268
    1UNL    H20   53   0.246   0.108   0.102
    1UNL    H21   54   0.526   0.137  -0.020
    1UNL    H22   55   0.387   0.040  -0.092
    1UNL    H23   56   0.392   0.275  -0.182
    1UNL    H24   57   0.309   0.455  -0.014
    1UNL    H25   58   0.469   0.378   0.024
    1UNL    H26   59   0.304   0.405   0.217
    1UNL    H27   60   0.117   0.224   0.196
    1UNL    H28   61   0.083   0.383   0.146
    1UNL    H29   62   0.126  -0.020   0.065
    1UNL    H30   63   0.065  -0.264  -0.102
    1UNL    H31   64   0.058   0.036  -0.118
    1UNL    H32   65  -0.090  -0.265  -0.250
    1UNL    H33   66  -0.176  -0.304  -0.463
    1UNL    H34   67  -0.176  -0.125  -0.646
    1UNL    H35   68  -0.056   0.081  -0.589
    1UNL    H36   69   0.037   0.120  -0.353
   0.00000   0.00000   0.00000   0.00000   0.00000   0.00000   0.00000   0.00000   0.00000
Generated with MDTraj, t= 93.0
 69
    1UNL     C1    1  -0.482   0.126   0.130
    1UNL     C2    2  -0.331   0.121   0.125
    1UNL     C3    3  -0.272   0.131  -0.020
    1UNL     C4    4  -0.263   0.007   0.208
    1UNL     C5    5  -0.258  -0.129   0.144
    1UNL     C6    6  -0.148  -0.205   0.123
    1UNL     C7    7  -0.019  -0.155   0.172
    1UNL     C8    8  -0.041  -0.061   0.292
    1UNL     C9    9  -0.129   0.060   0.259
    1UNL    C10   10   0.077  -0.269   0.214
    1UNL    C11   11   0.191  -0.187   0.127
    1UNL    C12   12   0.291  -0.111   0.215
    1UNL     O1   13   0.268  -0.106   0.332
    1UNL    C13   14   0.403  -0.040   0.152
    1UNL    C14   15   0.361   0.101   0.108
    1UNL    C15   16   0.417   0.141  -0.029
    1UNL    C16   17   0.341   0.265  -0.073
    1UNL    C17   18   0.379   0.377   0.031
    1UNL    C18   19   0.320   0.327   0.160
    1UNL    C19   20   0.170   0.326   0.142
    1UNL    C20   21   0.123   0.242   0.027
    1UNL     O2   22   0.018   0.181   0.040
    1UNL     O3   23   0.198   0.224  -0.087
    1UNL     O4   24   0.378   0.198   0.207
    1UNL    C21   25   0.081  -0.114   0.054
    1UNL    C22   26   0.050  -0.169  -0.087
    1UNL    C23   27   0.024  -0.082  -0.183
    1UNL    C24   28  -0.013  -0.099  -0.322
    1UNL    C25   29  -0.060  -0.225  -0.363
    1UNL    C26   30  -0.104  -0.241  -0.494
    1UNL    C27   31  -0.115  -0.126  -0.573
    1UNL    C28   32  -0.091   0.003  -0.523
    1UNL    C29   33  -0.031   0.015  -0.400
    1UNL     H1   34  -0.525   0.182   0.044
    1UNL     H2   35  -0.532   0.169   0.224
    1UNL     H3   36  -0.528   0.028   0.113
    1UNL     H4   37  -0.303   0.207   0.181
    1UNL     H5   38  -0.282   0.033  -0.071
    1UNL     H6   39  -0.327   0.202  -0.079
    1UNL     H7   40  -0.166   0.156  -0.009
    1UNL     H8   41  -0.333   0.001   0.287
    1UNL     H9   42  -0.351  -0.165   0.105
    1UNL    H10   43  -0.165  -0.306   0.090
    1UNL    H11   44  -0.082  -0.114   0.371
    1UNL    H12   45   0.056  -0.021   0.330
    1UNL    H13   46  -0.081   0.126   0.184
    1UNL    H14   47  -0.137   0.122   0.346
    1UNL    H15   48   0.064  -0.364   0.157
    1UNL    H16   49   0.092  -0.280   0.322
    1UNL    H17   50   0.235  -0.247   0.050
    1UNL    H18   51   0.450  -0.101   0.070
    1UNL    H19   52   0.490  -0.039   0.218
    1UNL    H20   53   0.254   0.106   0.087
    1UNL    H21   54   0.522   0.173  -0.020
    1UNL    H22   55   0.408   0.058  -0.104
    1UNL    H23   56   0.363   0.301  -0.178
    1UNL    H24   57   0.345   0.475  -0.014
    1UNL    H25   58   0.488   0.378   0.041
    1UNL    H26   59   0.355   0.395   0.238
    1UNL    H27   60   0.117   0.292   0.227
    1UNL    H28   61   0.133   0.433   0.126
    1UNL    H29   62   0.091  -0.005   0.058
    1UNL    H30   63   0.034  -0.275  -0.098
    1UNL    H31   64   0.052   0.022  -0.157
    1UNL    H32   65  -0.066  -0.307  -0.293
    1UNL    H33   66  -0.145  -0.336  -0.532
    1UNL    H34   67  -0.126  -0.138  -0.673
    1UNL    H35   68  -0.099   0.091  -0.577
    1UNL    H36   69   0.013   0.110  -0.367
   0.00000   0.00000   0.00000   0.00000   0.00000   0.00000   0.00000   0.00000   0.00000
Generated with MDTraj, t= 94.0
 69
    1UNL     C1    1  -0.486   0.072   0.097
    1UNL     C2    2  -0.339   0.108   0.129
    1UNL     C3    3  -0.254   0.124   0.005
    1UNL     C4    4  -0.280   0.010   0.231
    1UNL     C5    5  -0.277  -0.131   0.183
    1UNL     C6    6  -0.166  -0.203   0.152
    1UNL     C7    7  -0.033  -0.150   0.180
    1UNL     C8    8  -0.044  -0.054   0.305
    1UNL     C9    9  -0.137   0.056   0.269
    1UNL    C10   10   0.073  -0.257   0.203
    1UNL    C11   11   0.171  -0.190   0.109
    1UNL    C12   12   0.270  -0.110   0.193
    1UNL     O1   13   0.254  -0.108   0.314
    1UNL    C13   14   0.391  -0.054   0.128
    1UNL    C14   15   0.366   0.096   0.097
    1UNL    C15   16   0.402   0.144  -0.042
    1UNL    C16   17   0.352   0.286  -0.072
    1UNL    C17   18   0.404   0.383   0.038
    1UNL    C18   19   0.349   0.318   0.169
    1UNL    C19   20   0.197   0.307   0.164
    1UNL    C20   21   0.136   0.263   0.033
    1UNL     O2   22   0.026   0.207   0.040
    1UNL     O3   23   0.203   0.280  -0.082
    1UNL     O4   24   0.418   0.182   0.194
    1UNL    C21   25   0.055  -0.101   0.056
    1UNL    C22   26   0.018  -0.137  -0.082
    1UNL    C23   27   0.005  -0.052  -0.184
    1UNL    C24   28  -0.027  -0.089  -0.323
    1UNL    C25   29  -0.036  -0.226  -0.359
    1UNL    C26   30  -0.054  -0.260  -0.492
    1UNL    C27   31  -0.081  -0.161  -0.585
    1UNL    C28   32  -0.098  -0.024  -0.544
    1UNL    C29   33  -0.056   0.009  -0.417
    1UNL     H1   34  -0.547   0.162   0.062
    1UNL     H2   35  -0.540   0.033   0.185
    1UNL     H3   36  -0.496  -0.001   0.015
    1UNL     H4   37  -0.342   0.199   0.182
    1UNL     H5   38  -0.257   0.039  -0.063
    1UNL     H6   39  -0.292   0.208  -0.054
    1UNL     H7   40  -0.148   0.140   0.030
    1UNL     H8   41  -0.349   0.014   0.312
    1UNL     H9   42  -0.367  -0.187   0.157
    1UNL    H10   43  -0.178  -0.306   0.119
    1UNL    H11   44  -0.080  -0.110   0.384
    1UNL    H12   45   0.057  -0.023   0.337
    1UNL    H13   46  -0.085   0.122   0.199
    1UNL    H14   47  -0.147   0.123   0.352
    1UNL    H15   48   0.043  -0.363   0.176
    1UNL    H16   49   0.111  -0.266   0.303
    1UNL    H17   50   0.215  -0.267   0.045
    1UNL    H18   51   0.415  -0.117   0.035
    1UNL    H19   52   0.483  -0.071   0.180
    1UNL    H20   53   0.259   0.105   0.114
    1UNL    H21   54   0.503   0.142  -0.056
    1UNL    H22   55   0.351   0.074  -0.118
    1UNL    H23   56   0.394   0.317  -0.169
    1UNL    H24   57   0.359   0.485   0.026
    1UNL    H25   58   0.514   0.385   0.036
    1UNL    H26   59   0.391   0.368   0.260
    1UNL    H27   60   0.157   0.251   0.245
    1UNL    H28   61   0.156   0.411   0.180
    1UNL    H29   62   0.064   0.009   0.073
    1UNL    H30   63  -0.028  -0.236  -0.090
    1UNL    H31   64   0.029   0.048  -0.164
    1UNL    H32   65  -0.044  -0.299  -0.282
    1UNL    H33   66  -0.050  -0.362  -0.526
    1UNL    H34   67  -0.116  -0.177  -0.692
    1UNL    H35   68  -0.117   0.059  -0.617
    1UNL    H36   69  -0.058   0.110  -0.386
   0.00000   0.00000   0.00000   0.00000   0.00000   0.00000   0.00000   0.00000   0.00000
Generated with MDTraj, t= 95.0
 69
    1UNL     C1    1  -0.501   0.061   0.097
    1UNL     C2    2  -0.352   0.102   0.125
    1UNL     C3    3  -0.277   0.098  -0.001
    1UNL     C4    4  -0.294  -0.003   0.226
    1UNL     C5    5  -0.293  -0.139   0.168
    1UNL     C6    6  -0.178  -0.214   0.157
    1UNL     C7    7  -0.039  -0.159   0.194
    1UNL     C8    8  -0.056  -0.053   0.312
    1UNL     C9    9  -0.156   0.051   0.277
    1UNL    C10   10   0.078  -0.265   0.209
    1UNL    C11   11   0.159  -0.194   0.106
    1UNL    C12   12   0.270  -0.123   0.166
    1UNL     O1   13   0.273  -0.116   0.288
    1UNL    C13   14   0.373  -0.063   0.077
    1UNL    C14   15   0.349   0.089   0.058
    1UNL    C15   16   0.416   0.145  -0.066
    1UNL    C16   17   0.363   0.293  -0.070
    1UNL    C17   18   0.427   0.362   0.048
    1UNL    C18   19   0.367   0.300   0.172
    1UNL    C19   20   0.216   0.335   0.176
    1UNL    C20   21   0.150   0.312   0.045
    1UNL     O2   22   0.027   0.296   0.046
    1UNL     O3   23   0.218   0.299  -0.077
    1UNL     O4   24   0.401   0.158   0.176
    1UNL    C21   25   0.040  -0.100   0.067
    1UNL    C22   26  -0.008  -0.124  -0.067
    1UNL    C23   27  -0.000  -0.040  -0.166
    1UNL    C24   28  -0.031  -0.087  -0.298
    1UNL    C25   29  -0.000  -0.217  -0.339
    1UNL    C26   30  -0.002  -0.256  -0.474
    1UNL    C27   31  -0.066  -0.176  -0.570
    1UNL    C28   32  -0.090  -0.042  -0.531
    1UNL    C29   33  -0.072  -0.003  -0.403
    1UNL     H1   34  -0.546   0.143   0.032
    1UNL     H2   35  -0.549   0.056   0.193
    1UNL     H3   36  -0.504  -0.038   0.043
    1UNL     H4   37  -0.345   0.195   0.173
    1UNL     H5   38  -0.268   0.000  -0.045
    1UNL     H6   39  -0.327   0.158  -0.080
    1UNL     H7   40  -0.174   0.133   0.010
    1UNL     H8   41  -0.349  -0.015   0.316
    1UNL     H9   42  -0.385  -0.193   0.150
    1UNL    H10   43  -0.189  -0.309   0.106
    1UNL    H11   44  -0.077  -0.100   0.403
    1UNL    H12   45   0.043  -0.011   0.330
    1UNL    H13   46  -0.110   0.114   0.201
    1UNL    H14   47  -0.165   0.118   0.361
    1UNL    H15   48   0.042  -0.372   0.194
    1UNL    H16   49   0.123  -0.268   0.305
    1UNL    H17   50   0.190  -0.250   0.017
    1UNL    H18   51   0.364  -0.106  -0.029
    1UNL    H19   52   0.467  -0.103   0.104
    1UNL    H20   53   0.241   0.097   0.072
    1UNL    H21   54   0.518   0.127  -0.060
    1UNL    H22   55   0.372   0.096  -0.158
    1UNL    H23   56   0.409   0.339  -0.154
    1UNL    H24   57   0.405   0.471   0.051
    1UNL    H25   58   0.536   0.342   0.051
    1UNL    H26   59   0.419   0.345   0.264
    1UNL    H27   60   0.165   0.278   0.251
    1UNL    H28   61   0.204   0.444   0.202
    1UNL    H29   62   0.075   0.004   0.079
    1UNL    H30   63  -0.065  -0.210  -0.080
    1UNL    H31   64   0.045   0.060  -0.156
    1UNL    H32   65   0.036  -0.288  -0.263
    1UNL    H33   66   0.027  -0.358  -0.496
    1UNL    H34   67  -0.081  -0.193  -0.675
    1UNL    H35   68  -0.130   0.022  -0.605
    1UNL    H36   69  -0.080   0.101  -0.371
   0.00000   0.00000   0.00000   0.00000   0.00000   0.00000   0.00000   0.00000   0.00000
Generated with MDTraj, t= 96.0
 69
    1UNL     C1    1  -0.522   0.083   0.101
    1UNL     C2    2  -0.371   0.098   0.121
    1UNL     C3    3  -0.304   0.089  -0.021
    1UNL     C4    4  -0.303  -0.009   0.218
    1UNL     C5    5  -0.303  -0.152   0.170
    1UNL     C6    6  -0.189  -0.229   0.166
    1UNL     C7    7  -0.054  -0.174   0.211
    1UNL     C8    8  -0.072  -0.072   0.325
    1UNL     C9    9  -0.165   0.050   0.280
    1UNL    C10   10   0.062  -0.273   0.232
    1UNL    C11   11   0.150  -0.190   0.123
    1UNL    C12   12   0.278  -0.132   0.167
    1UNL     O1   13   0.317  -0.131   0.278
    1UNL    C13   14   0.353  -0.062   0.049
    1UNL    C14   15   0.344   0.091   0.040
    1UNL    C15   16   0.389   0.152  -0.090
    1UNL    C16   17   0.371   0.308  -0.076
    1UNL    C17   18   0.440   0.361   0.047
    1UNL    C18   19   0.379   0.287   0.169
    1UNL    C19   20   0.225   0.319   0.172
    1UNL    C20   21   0.162   0.335   0.034
    1UNL     O2   22   0.039   0.341   0.036
    1UNL     O3   23   0.233   0.343  -0.077
    1UNL     O4   24   0.400   0.150   0.162
    1UNL    C21   25   0.029  -0.106   0.093
    1UNL    C22   26  -0.014  -0.132  -0.049
    1UNL    C23   27   0.014  -0.059  -0.157
    1UNL    C24   28  -0.008  -0.095  -0.298
    1UNL    C25   29   0.050  -0.211  -0.349
    1UNL    C26   30   0.016  -0.247  -0.479
    1UNL    C27   31  -0.058  -0.165  -0.564
    1UNL    C28   32  -0.102  -0.043  -0.511
    1UNL    C29   33  -0.070  -0.007  -0.384
    1UNL     H1   34  -0.552   0.151   0.014
    1UNL     H2   35  -0.584   0.112   0.184
    1UNL     H3   36  -0.548  -0.024   0.070
    1UNL     H4   37  -0.356   0.194   0.163
    1UNL     H5   38  -0.308  -0.011  -0.061
    1UNL     H6   39  -0.361   0.154  -0.092
    1UNL     H7   40  -0.201   0.119  -0.007
    1UNL     H8   41  -0.373  -0.014   0.298
    1UNL     H9   42  -0.390  -0.189   0.119
    1UNL    H10   43  -0.204  -0.332   0.133
    1UNL    H11   44  -0.116  -0.122   0.410
    1UNL    H12   45   0.027  -0.040   0.356
    1UNL    H13   46  -0.113   0.106   0.204
    1UNL    H14   47  -0.188   0.114   0.363
    1UNL    H15   48   0.035  -0.380   0.207
    1UNL    H16   49   0.104  -0.285   0.329
    1UNL    H17   50   0.175  -0.251   0.034
    1UNL    H18   51   0.326  -0.111  -0.051
    1UNL    H19   52   0.454  -0.094   0.058
    1UNL    H20   53   0.234   0.112   0.051
    1UNL    H21   54   0.495   0.129  -0.105
    1UNL    H22   55   0.332   0.116  -0.176
    1UNL    H23   56   0.413   0.357  -0.159
    1UNL    H24   57   0.423   0.469   0.058
    1UNL    H25   58   0.548   0.337   0.055
    1UNL    H26   59   0.433   0.323   0.264
    1UNL    H27   60   0.180   0.232   0.221
    1UNL    H28   61   0.204   0.408   0.233
    1UNL    H29   62   0.054  -0.001   0.113
    1UNL    H30   63  -0.063  -0.231  -0.065
    1UNL    H31   64   0.069   0.032  -0.146
    1UNL    H32   65   0.099  -0.278  -0.282
    1UNL    H33   66   0.056  -0.341  -0.521
    1UNL    H34   67  -0.066  -0.198  -0.666
    1UNL    H35   68  -0.155   0.033  -0.569
    1UNL    H36   69  -0.099   0.086  -0.340
   0.00000   0.00000   0.00000   0.00000   0.00000   0.00000   0.00000   0.00000   0.00000
Generated with MDTraj, t= 97.0
 69
    1UNL     C1    1  -0.534   0.059   0.093
    1UNL     C2    2  -0.383   0.082   0.117
    1UNL     C3    3  -0.314   0.072  -0.023
    1UNL     C4    4  -0.307  -0.008   0.228
    1UNL     C5    5  -0.291  -0.148   0.177
    1UNL     C6    6  -0.175  -0.213   0.177
    1UNL     C7    7  -0.049  -0.157   0.214
    1UNL     C8    8  -0.053  -0.043   0.317
    1UNL     C9    9  -0.169   0.057   0.272
    1UNL    C10   10   0.058  -0.264   0.248
    1UNL    C11   11   0.144  -0.213   0.131
    1UNL    C12   12   0.271  -0.141   0.165
    1UNL     O1   13   0.321  -0.130   0.273
    1UNL    C13   14   0.339  -0.070   0.049
    1UNL    C14   15   0.324   0.082   0.044
    1UNL    C15   16   0.374   0.141  -0.089
    1UNL    C16   17   0.375   0.299  -0.079
    1UNL    C17   18   0.451   0.348   0.043
    1UNL    C18   19   0.377   0.282   0.166
    1UNL    C19   20   0.231   0.336   0.168
    1UNL    C20   21   0.164   0.335   0.035
    1UNL     O2   22   0.040   0.344   0.041
    1UNL     O3   23   0.239   0.340  -0.079
    1UNL     O4   24   0.381   0.142   0.154
    1UNL    C21   25   0.033  -0.108   0.085
    1UNL    C22   26  -0.021  -0.125  -0.049
    1UNL    C23   27   0.033  -0.060  -0.153
    1UNL    C24   28   0.008  -0.089  -0.297
    1UNL    C25   29   0.063  -0.201  -0.363
    1UNL    C26   30   0.033  -0.236  -0.492
    1UNL    C27   31  -0.051  -0.145  -0.561
    1UNL    C28   32  -0.109  -0.036  -0.503
    1UNL    C29   33  -0.081  -0.007  -0.363
    1UNL     H1   34  -0.589   0.134   0.033
    1UNL     H2   35  -0.591   0.062   0.188
    1UNL     H3   36  -0.562  -0.041   0.051
    1UNL     H4   37  -0.373   0.181   0.153
    1UNL     H5   38  -0.350  -0.011  -0.081
    1UNL     H6   39  -0.346   0.161  -0.082
    1UNL     H7   40  -0.205   0.064  -0.016
    1UNL     H8   41  -0.373  -0.011   0.311
    1UNL     H9   42  -0.375  -0.189   0.123
    1UNL    H10   43  -0.175  -0.315   0.145
    1UNL    H11   44  -0.085  -0.087   0.413
    1UNL    H12   45   0.042   0.004   0.332
    1UNL    H13   46  -0.136   0.100   0.180
    1UNL    H14   47  -0.192   0.130   0.349
    1UNL    H15   48   0.027  -0.369   0.229
    1UNL    H16   49   0.117  -0.260   0.337
    1UNL    H17   50   0.153  -0.302   0.065
    1UNL    H18   51   0.321  -0.131  -0.044
    1UNL    H19   52   0.446  -0.086   0.062
    1UNL    H20   53   0.216   0.112   0.033
    1UNL    H21   54   0.486   0.120  -0.100
    1UNL    H22   55   0.336   0.109  -0.181
    1UNL    H23   56   0.423   0.341  -0.163
    1UNL    H24   57   0.457   0.455   0.061
    1UNL    H25   58   0.552   0.303   0.043
    1UNL    H26   59   0.427   0.317   0.261
    1UNL    H27   60   0.171   0.264   0.230
    1UNL    H28   61   0.228   0.435   0.207
    1UNL    H29   62   0.062  -0.003   0.100
    1UNL    H30   63  -0.082  -0.207  -0.066
    1UNL    H31   64   0.119   0.004  -0.135
    1UNL    H32   65   0.133  -0.265  -0.307
    1UNL    H33   66   0.064  -0.326  -0.537
    1UNL    H34   67  -0.067  -0.166  -0.671
    1UNL    H35   68  -0.172   0.028  -0.558
    1UNL    H36   69  -0.139   0.067  -0.310
   0.00000   0.00000   0.00000   0.00000   0.00000   0.00000   0.00000   0.00000   0.00000
Generated with MDTraj, t= 98.0
 69
    1UNL     C1    1  -0.529   0.025   0.090
    1UNL     C2    2  -0.388   0.076   0.116
    1UNL     C3    3  -0.315   0.062  -0.019
    1UNL     C4    4  -0.311   0.004   0.234
    1UNL     C5    5  -0.298  -0.141   0.188
    1UNL     C6    6  -0.183  -0.207   0.178
    1UNL     C7    7  -0.050  -0.146   0.216
    1UNL     C8    8  -0.069  -0.020   0.308
    1UNL     C9    9  -0.171   0.077   0.251
    1UNL    C10   10   0.057  -0.247   0.260
    1UNL    C11   11   0.147  -0.208   0.134
    1UNL    C12   12   0.280  -0.140   0.165
    1UNL     O1   13   0.317  -0.143   0.280
    1UNL    C13   14   0.362  -0.075   0.061
    1UNL    C14   15   0.346   0.078   0.054
    1UNL    C15   16   0.404   0.134  -0.076
    1UNL    C16   17   0.377   0.290  -0.082
    1UNL    C17   18   0.441   0.355   0.032
    1UNL    C18   19   0.380   0.291   0.161
    1UNL    C19   20   0.229   0.325   0.174
    1UNL    C20   21   0.160   0.313   0.039
    1UNL     O2   22   0.034   0.312   0.035
    1UNL     O3   23   0.228   0.305  -0.084
    1UNL     O4   24   0.406   0.152   0.159
    1UNL    C21   25   0.036  -0.112   0.084
    1UNL    C22   26  -0.023  -0.125  -0.050
    1UNL    C23   27   0.024  -0.053  -0.153
    1UNL    C24   28  -0.001  -0.083  -0.298
    1UNL    C25   29   0.057  -0.188  -0.368
    1UNL    C26   30   0.033  -0.211  -0.501
    1UNL    C27   31  -0.053  -0.128  -0.572
    1UNL    C28   32  -0.113  -0.022  -0.508
    1UNL    C29   33  -0.104  -0.012  -0.363
    1UNL     H1   34  -0.590   0.090   0.026
    1UNL     H2   35  -0.580   0.024   0.193
    1UNL     H3   36  -0.529  -0.078   0.051
    1UNL     H4   37  -0.383   0.179   0.145
    1UNL     H5   38  -0.259  -0.030  -0.039
    1UNL     H6   39  -0.387   0.061  -0.102
    1UNL     H7   40  -0.241   0.138  -0.044
    1UNL     H8   41  -0.355   0.006   0.331
    1UNL     H9   42  -0.392  -0.193   0.187
    1UNL    H10   43  -0.177  -0.308   0.141
    1UNL    H11   44  -0.101  -0.051   0.412
    1UNL    H12   45   0.022   0.032   0.319
    1UNL    H13   46  -0.138   0.111   0.155
    1UNL    H14   47  -0.186   0.160   0.319
    1UNL    H15   48   0.027  -0.350   0.270
    1UNL    H16   49   0.099  -0.208   0.353
    1UNL    H17   50   0.149  -0.293   0.061
    1UNL    H18   51   0.346  -0.133  -0.030
    1UNL    H19   52   0.472  -0.090   0.075
    1UNL    H20   53   0.234   0.097   0.050
    1UNL    H21   54   0.519   0.113  -0.084
    1UNL    H22   55   0.370   0.103  -0.166
    1UNL    H23   56   0.409   0.334  -0.176
    1UNL    H24   57   0.418   0.461   0.032
    1UNL    H25   58   0.551   0.340   0.037
    1UNL    H26   59   0.434   0.337   0.245
    1UNL    H27   60   0.180   0.259   0.251
    1UNL    H28   61   0.219   0.427   0.195
    1UNL    H29   62   0.073  -0.009   0.077
    1UNL    H30   63  -0.080  -0.216  -0.074
    1UNL    H31   64   0.108   0.009  -0.127
    1UNL    H32   65   0.136  -0.243  -0.325
    1UNL    H33   66   0.089  -0.297  -0.544
    1UNL    H34   67  -0.072  -0.151  -0.670
    1UNL    H35   68  -0.182   0.049  -0.560
    1UNL    H36   69  -0.160   0.067  -0.311
   0.00000   0.00000   0.00000   0.00000   0.00000   0.00000   0.00000   0.00000   0.00000
Generated with MDTraj, t= 99.0
 69
    1UNL     C1    1  -0.530   0.020   0.091
    1UNL     C2    2  -0.393   0.081   0.104
    1UNL     C3    3  -0.322   0.077  -0.036
    1UNL     C4    4  -0.313   0.006   0.210
    1UNL     C5    5  -0.293  -0.143   0.174
    1UNL     C6    6  -0.177  -0.202   0.163
    1UNL     C7    7  -0.042  -0.132   0.202
    1UNL     C8    8  -0.078  -0.013   0.305
    1UNL     C9    9  -0.181   0.079   0.246
    1UNL    C10   10   0.073  -0.219   0.265
    1UNL    C11   11   0.171  -0.187   0.142
    1UNL    C12   12   0.300  -0.132   0.188
    1UNL     O1   13   0.322  -0.110   0.303
    1UNL    C13   14   0.401  -0.080   0.087
    1UNL    C14   15   0.371   0.065   0.054
    1UNL    C15   16   0.407   0.118  -0.085
    1UNL    C16   17   0.367   0.270  -0.085
    1UNL    C17   18   0.429   0.348   0.029
    1UNL    C18   19   0.368   0.289   0.164
    1UNL    C19   20   0.217   0.297   0.169
    1UNL    C20   21   0.151   0.267   0.033
    1UNL     O2   22   0.030   0.234   0.036
    1UNL     O3   23   0.217   0.279  -0.087
    1UNL     O4   24   0.416   0.148   0.168
    1UNL    C21   25   0.053  -0.091   0.089
    1UNL    C22   26   0.018  -0.123  -0.052
    1UNL    C23   27  -0.002  -0.039  -0.153
    1UNL    C24   28  -0.023  -0.067  -0.297
    1UNL    C25   29   0.052  -0.163  -0.359
    1UNL    C26   30   0.017  -0.197  -0.491
    1UNL    C27   31  -0.062  -0.118  -0.565
    1UNL    C28   32  -0.135  -0.011  -0.505
    1UNL    C29   33  -0.114   0.009  -0.370
    1UNL     H1   34  -0.575   0.080   0.013
    1UNL     H2   35  -0.593   0.033   0.187
    1UNL     H3   36  -0.515  -0.084   0.060
    1UNL     H4   37  -0.401   0.184   0.135
    1UNL     H5   38  -0.347  -0.014  -0.093
    1UNL     H6   39  -0.358   0.156  -0.100
    1UNL     H7   40  -0.212   0.083  -0.034
    1UNL     H8   41  -0.373   0.010   0.300
    1UNL     H9   42  -0.379  -0.205   0.151
    1UNL    H10   43  -0.165  -0.303   0.136
    1UNL    H11   44  -0.114  -0.057   0.404
    1UNL    H12   45   0.009   0.039   0.332
    1UNL    H13   46  -0.141   0.119   0.157
    1UNL    H14   47  -0.202   0.162   0.311
    1UNL    H15   48   0.039  -0.318   0.279
    1UNL    H16   49   0.118  -0.180   0.360
    1UNL    H17   50   0.176  -0.288   0.092
    1UNL    H18   51   0.391  -0.134  -0.003
    1UNL    H19   52   0.506  -0.104   0.121
    1UNL    H20   53   0.258   0.056   0.061
    1UNL    H21   54   0.517   0.106  -0.116
    1UNL    H22   55   0.355   0.060  -0.154
    1UNL    H23   56   0.387   0.311  -0.187
    1UNL    H24   57   0.402   0.451   0.018
    1UNL    H25   58   0.538   0.339   0.033
    1UNL    H26   59   0.412   0.343   0.246
    1UNL    H27   60   0.179   0.220   0.241
    1UNL    H28   61   0.187   0.393   0.196
    1UNL    H29   62   0.094   0.009   0.091
    1UNL    H30   63   0.015  -0.229  -0.075
    1UNL    H31   64   0.025   0.064  -0.128
    1UNL    H32   65   0.129  -0.219  -0.305
    1UNL    H33   66   0.078  -0.262  -0.545
    1UNL    H34   67  -0.086  -0.161  -0.667
    1UNL    H35   68  -0.189   0.053  -0.564
    1UNL    H36   69  -0.163   0.089  -0.323
   0.00000   0.00000   0.00000   0.00000   0.00000   0.00000   0.00000   0.00000   0.00000
