[ moleculetype ]
; name        nrexcl
res           1

[ atoms ]
;    nr  type  resnr resid  atom  cgnr     charge       mass
      1 SX3       1 res   C1        1      0.000     54.000
      2 SX3       1 res   C2        2      0.000     54.000
      3 TC5       1 res   C3        3      0.000     36.000
      4 TX3       1 res   C4        4      0.000     36.000

[ constraints ]
;  ai    aj   funct      b0(nm)
    1     2     1      0.31261
    1     3     1      0.27260
    2     3     1      0.30975
    3     4     1      0.23789

[ bonds ]
;  ai    aj   funct      b0(nm)          k(kJ/mol/nm^2)

[ angles ]
;  ai    aj    ak  funct     th0(deg)        k(kJ/mol/rad^2)
    1     2     3     1     51.94983         12689.68
    1     3     2     1     64.56322          8910.83
    1     3     4     1    147.32366          1221.43
    2     1     3     1     63.48692          6174.11
    2     3     4     1     83.28656          1895.00

[ dihedrals ]
;  ai    aj    ak    al  funct   phi0(deg)        k(kJ/mol)   mult
    1     2     3     4     1      0.09170       10.794      1
    2     1     3     4     1   -178.39871       16.395      1
