1TPCN02510
11
    1res  C1    1   -0.392  -0.205   0.257
    1res  C2    2   -0.380  -0.195  -0.079
    1res  C3    3   -0.365   0.056  -0.102
    1res  C4    4   -0.414   0.375  -0.088
    1res  C5    5   -0.127   0.014  -0.160
    1res  C6    6    0.071   0.132   0.080
    1res  C7    7    0.320  -0.056   0.053
    1res  C8    8    0.600  -0.012  -0.009
    1res  C9    9    0.050  -0.256  -0.048
    1res  C10   10   -0.163  -0.177  -0.158
    1res  C11   11   -0.343  -0.233  -0.293
  10.00000  10.00000  10.00000
