1TPCN06215
18
    1res  C1    1    0.597   0.364   0.284
    1res  C2    2    0.581   0.017   0.248
    1res  C3    3    0.450  -0.150   0.099
    1res  C4    4    0.206   0.028   0.017
    1res  C5    5    0.123   0.065  -0.260
    1res  C6    6   -0.032  -0.255  -0.171
    1res  C7    7   -0.207  -0.045  -0.313
    1res  C8    8   -0.218   0.184  -0.090
    1res  C9    9   -0.399  -0.170  -0.126
    1res  C10   10   -0.531   0.092   0.030
    1res  C11   11   -0.789   0.176   0.096
    1res  C12   12   -0.616  -0.002   0.291
    1res  C13   13   -0.337   0.182   0.264
    1res  C14   14   -0.280  -0.165   0.123
    1res  C15   15    0.352  -0.170  -0.233
    1res  C16   16    0.630  -0.265   0.176
    1res  C17   17    0.775  -0.137   0.007
    1res  C18   18    0.739   0.099   0.055
  10.00000  10.00000  10.00000
