133489-28-0
6
    1res  C1    1   -0.164   0.097  -0.096
    1res  C2    2   -0.184  -0.139  -0.031
    1res  C3    3    0.026  -0.138  -0.137
    1res  C4    4    0.216  -0.090  -0.009
    1res  C5    5    0.138   0.123  -0.066
    1res  C6    6   -0.029   0.221   0.067
  10.00000  10.00000  10.00000
