1TPCN02514
8
    1res  C1    1    0.389  -0.084   0.167
    1res  C2    2    0.497   0.035  -0.106
    1res  C3    3    0.206   0.071  -0.249
    1res  C4    4    0.107   0.020  -0.021
    1res  C5    5   -0.017  -0.001   0.212
    1res  C6    6   -0.117   0.116  -0.046
    1res  C7    7   -0.359  -0.028   0.137
    1res  C8    8   -0.277  -0.043  -0.188
  10.00000  10.00000  10.00000
