Generated with MDTraj, t= 0.0
 47
    1UNL     C1    1  -0.423  -0.010   0.024
    1UNL     C2    2  -0.358  -0.096  -0.077
    1UNL     C3    3  -0.240  -0.070  -0.132
    1UNL     C4    4  -0.183  -0.165  -0.235
    1UNL     N1    5  -0.038  -0.150  -0.261
    1UNL     C5    6   0.049  -0.235  -0.169
    1UNL     C6    7   0.010  -0.212  -0.020
    1UNL     C7    8   0.055  -0.064   0.000
    1UNL     C8    9   0.170  -0.039   0.097
    1UNL     C9   10   0.182  -0.071   0.230
    1UNL    C10   11   0.294  -0.030   0.299
    1UNL    C11   12   0.394   0.043   0.236
    1UNL    C12   13   0.383   0.077   0.102
    1UNL    C13   14   0.270   0.036   0.032
    1UNL     N2   15   0.240   0.055  -0.104
    1UNL    C14   16   0.130  -0.036  -0.139
    1UNL     O1   17   0.178  -0.169  -0.177
    1UNL    C15   18   0.025  -0.010  -0.251
    1UNL    C16   19  -0.075   0.100  -0.216
    1UNL    C17   20  -0.158   0.053  -0.095
    1UNL    C18   21  -0.067   0.030   0.029
    1UNL    C19   22  -0.025   0.163   0.089
    1UNL     O2   23   0.006   0.255   0.017
    1UNL     O3   24  -0.023   0.167   0.225
    1UNL    C20   25   0.022   0.292   0.266
    1UNL     H1   26  -0.453   0.086  -0.020
    1UNL     H2   27  -0.513  -0.056   0.065
    1UNL     H3   28  -0.357   0.011   0.107
    1UNL     H4   29  -0.410  -0.184  -0.109
    1UNL     H5   30  -0.203  -0.268  -0.206
    1UNL     H6   31  -0.235  -0.150  -0.330
    1UNL     H7   32   0.056  -0.340  -0.201
    1UNL     H8   33  -0.097  -0.226  -0.002
    1UNL     H9   34   0.066  -0.279   0.046
    1UNL    H10   35   0.103  -0.126   0.279
    1UNL    H11   36   0.305  -0.054   0.403
    1UNL    H12   37   0.480   0.075   0.291
    1UNL    H13   38   0.459   0.134   0.052
    1UNL    H14   39   0.315   0.051  -0.173
    1UNL    H15   40   0.077   0.010  -0.346
    1UNL    H16   41  -0.139   0.123  -0.301
    1UNL    H17   42  -0.020   0.192  -0.190
    1UNL    H18   43  -0.229   0.134  -0.069
    1UNL    H19   44  -0.126  -0.020   0.106
    1UNL    H20   45   0.023   0.296   0.375
    1UNL    H21   46  -0.044   0.369   0.227
    1UNL    H22   47   0.123   0.308   0.228
   0.00000   0.00000   0.00000   0.00000   0.00000   0.00000   0.00000   0.00000   0.00000
Generated with MDTraj, t= 1.0
 47
    1UNL     C1    1  -0.420  -0.017   0.004
    1UNL     C2    2  -0.357  -0.101  -0.098
    1UNL     C3    3  -0.238  -0.073  -0.147
    1UNL     C4    4  -0.180  -0.152  -0.258
    1UNL     N1    5  -0.039  -0.156  -0.259
    1UNL     C5    6   0.034  -0.241  -0.157
    1UNL     C6    7  -0.000  -0.209  -0.009
    1UNL     C7    8   0.050  -0.063   0.005
    1UNL     C8    9   0.161  -0.034   0.101
    1UNL     C9   10   0.182  -0.064   0.234
    1UNL    C10   11   0.305  -0.027   0.291
    1UNL    C11   12   0.391   0.058   0.232
    1UNL    C12   13   0.370   0.100   0.102
    1UNL    C13   14   0.258   0.052   0.033
    1UNL     N2   15   0.238   0.054  -0.108
    1UNL    C14   16   0.127  -0.042  -0.132
    1UNL     O1   17   0.173  -0.182  -0.162
    1UNL    C15   18   0.023  -0.018  -0.246
    1UNL    C16   19  -0.069   0.098  -0.207
    1UNL    C17   20  -0.162   0.049  -0.098
    1UNL    C18   21  -0.072   0.034   0.030
    1UNL    C19   22  -0.031   0.170   0.090
    1UNL     O2   23  -0.027   0.276   0.030
    1UNL     O3   24   0.014   0.148   0.215
    1UNL    C20   25   0.079   0.259   0.274
    1UNL     H1   26  -0.460  -0.073   0.084
    1UNL     H2   27  -0.363   0.058   0.062
    1UNL     H3   28  -0.502   0.045  -0.037
    1UNL     H4   29  -0.419  -0.177  -0.134
    1UNL     H5   30  -0.236  -0.245  -0.280
    1UNL     H6   31  -0.200  -0.096  -0.350
    1UNL     H7   32   0.024  -0.351  -0.174
    1UNL     H8   33  -0.108  -0.226   0.016
    1UNL     H9   34   0.047  -0.277   0.062
    1UNL    H10   35   0.100  -0.088   0.300
    1UNL    H11   36   0.323  -0.070   0.390
    1UNL    H12   37   0.467   0.109   0.280
    1UNL    H13   38   0.439   0.166   0.054
    1UNL    H14   39   0.313   0.013  -0.164
    1UNL    H15   40   0.078   0.012  -0.337
    1UNL    H16   41  -0.131   0.140  -0.290
    1UNL    H17   42  -0.012   0.186  -0.171
    1UNL    H18   43  -0.236   0.120  -0.056
    1UNL    H19   44  -0.129  -0.013   0.111
    1UNL    H20   45   0.001   0.326   0.308
    1UNL    H21   46   0.142   0.314   0.203
    1UNL    H22   47   0.133   0.231   0.367
   0.00000   0.00000   0.00000   0.00000   0.00000   0.00000   0.00000   0.00000   0.00000
Generated with MDTraj, t= 2.0
 47
    1UNL     C1    1  -0.423  -0.000   0.024
    1UNL     C2    2  -0.372  -0.081  -0.091
    1UNL     C3    3  -0.242  -0.076  -0.123
    1UNL     C4    4  -0.184  -0.167  -0.231
    1UNL     N1    5  -0.043  -0.151  -0.254
    1UNL     C5    6   0.062  -0.241  -0.174
    1UNL     C6    7   0.026  -0.214  -0.026
    1UNL     C7    8   0.059  -0.069  -0.003
    1UNL     C8    9   0.175  -0.050   0.096
    1UNL     C9   10   0.170  -0.069   0.231
    1UNL    C10   11   0.280  -0.028   0.304
    1UNL    C11   12   0.377   0.045   0.244
    1UNL    C12   13   0.375   0.081   0.112
    1UNL    C13   14   0.271   0.034   0.036
    1UNL     N2   15   0.242   0.053  -0.104
    1UNL    C14   16   0.131  -0.038  -0.139
    1UNL     O1   17   0.183  -0.167  -0.193
    1UNL    C15   18   0.019  -0.012  -0.249
    1UNL    C16   19  -0.071   0.098  -0.209
    1UNL    C17   20  -0.160   0.046  -0.087
    1UNL    C18   21  -0.064   0.033   0.033
    1UNL    C19   22  -0.030   0.170   0.080
    1UNL     O2   23  -0.037   0.275   0.020
    1UNL     O3   24   0.010   0.159   0.209
    1UNL    C20   25   0.062   0.278   0.264
    1UNL     H1   26  -0.347   0.020   0.092
    1UNL     H2   27  -0.468   0.097  -0.002
    1UNL     H3   28  -0.516  -0.053   0.061
    1UNL     H4   29  -0.450  -0.157  -0.130
    1UNL     H5   30  -0.191  -0.276  -0.213
    1UNL     H6   31  -0.246  -0.158  -0.319
    1UNL     H7   32   0.069  -0.344  -0.220
    1UNL     H8   33  -0.078  -0.244   0.006
    1UNL     H9   34   0.081  -0.280   0.043
    1UNL    H10   35   0.084  -0.117   0.283
    1UNL    H11   36   0.288  -0.046   0.408
    1UNL    H12   37   0.473   0.062   0.311
    1UNL    H13   38   0.449   0.152   0.074
    1UNL    H14   39   0.313   0.074  -0.174
    1UNL    H15   40   0.052   0.003  -0.353
    1UNL    H16   41  -0.138   0.140  -0.290
    1UNL    H17   42  -0.014   0.192  -0.184
    1UNL    H18   43  -0.234   0.125  -0.057
    1UNL    H19   44  -0.108  -0.015   0.120
    1UNL    H20   45   0.017   0.363   0.214
    1UNL    H21   46   0.173   0.283   0.262
    1UNL    H22   47   0.022   0.280   0.371
   0.00000   0.00000   0.00000   0.00000   0.00000   0.00000   0.00000   0.00000   0.00000
Generated with MDTraj, t= 3.0
 47
    1UNL     C1    1  -0.433  -0.014   0.024
    1UNL     C2    2  -0.352  -0.100  -0.068
    1UNL     C3    3  -0.237  -0.065  -0.125
    1UNL     C4    4  -0.184  -0.159  -0.231
    1UNL     N1    5  -0.038  -0.148  -0.258
    1UNL     C5    6   0.055  -0.234  -0.178
    1UNL     C6    7   0.014  -0.216  -0.032
    1UNL     C7    8   0.058  -0.073   0.003
    1UNL     C8    9   0.171  -0.053   0.100
    1UNL     C9   10   0.187  -0.086   0.232
    1UNL    C10   11   0.294  -0.041   0.297
    1UNL    C11   12   0.390   0.033   0.231
    1UNL    C12   13   0.379   0.068   0.102
    1UNL    C13   14   0.264   0.029   0.036
    1UNL     N2   15   0.226   0.055  -0.095
    1UNL    C14   16   0.129  -0.037  -0.138
    1UNL     O1   17   0.183  -0.167  -0.178
    1UNL    C15   18   0.021  -0.005  -0.250
    1UNL    C16   19  -0.071   0.105  -0.205
    1UNL    C17   20  -0.156   0.056  -0.085
    1UNL    C18   21  -0.058   0.033   0.036
    1UNL    C19   22  -0.017   0.171   0.081
    1UNL     O2   23   0.020   0.267   0.013
    1UNL     O3   24  -0.033   0.180   0.217
    1UNL    C20   25   0.014   0.308   0.247
    1UNL     H1   26  -0.383   0.015   0.113
    1UNL     H2   27  -0.463   0.083  -0.020
    1UNL     H3   28  -0.534  -0.064   0.025
    1UNL     H4   29  -0.395  -0.191  -0.081
    1UNL     H5   30  -0.225  -0.258  -0.206
    1UNL     H6   31  -0.224  -0.144  -0.332
    1UNL     H7   32   0.071  -0.343  -0.203
    1UNL     H8   33  -0.094  -0.238  -0.003
    1UNL     H9   34   0.056  -0.295   0.034
    1UNL    H10   35   0.123  -0.155   0.272
    1UNL    H11   36   0.327  -0.084   0.393
    1UNL    H12   37   0.471   0.066   0.282
    1UNL    H13   38   0.456   0.119   0.053
    1UNL    H14   39   0.286   0.091  -0.170
    1UNL    H15   40   0.072   0.023  -0.345
    1UNL    H16   41  -0.135   0.145  -0.290
    1UNL    H17   42  -0.022   0.205  -0.182
    1UNL    H18   43  -0.227   0.140  -0.060
    1UNL    H19   44  -0.112  -0.020   0.114
    1UNL    H20   45  -0.070   0.371   0.226
    1UNL    H21   46   0.102   0.331   0.186
    1UNL    H22   47   0.033   0.306   0.361
   0.00000   0.00000   0.00000   0.00000   0.00000   0.00000   0.00000   0.00000   0.00000
Generated with MDTraj, t= 4.0
 47
    1UNL     C1    1  -0.415  -0.046   0.047
    1UNL     C2    2  -0.350  -0.103  -0.075
    1UNL     C3    3  -0.245  -0.062  -0.140
    1UNL     C4    4  -0.188  -0.149  -0.249
    1UNL     N1    5  -0.041  -0.150  -0.250
    1UNL     C5    6   0.039  -0.232  -0.156
    1UNL     C6    7  -0.001  -0.196  -0.013
    1UNL     C7    8   0.047  -0.055   0.003
    1UNL     C8    9   0.168  -0.034   0.096
    1UNL     C9   10   0.202  -0.084   0.224
    1UNL    C10   11   0.318  -0.054   0.287
    1UNL    C11   12   0.420   0.012   0.225
    1UNL    C12   13   0.401   0.060   0.098
    1UNL    C13   14   0.273   0.043   0.033
    1UNL     N2   15   0.238   0.056  -0.104
    1UNL    C14   16   0.128  -0.031  -0.135
    1UNL     O1   17   0.170  -0.174  -0.162
    1UNL    C15   18   0.029  -0.007  -0.248
    1UNL    C16   19  -0.067   0.102  -0.222
    1UNL    C17   20  -0.162   0.064  -0.106
    1UNL    C18   21  -0.079   0.041   0.022
    1UNL    C19   22  -0.028   0.169   0.087
    1UNL     O2   23   0.067   0.235   0.048
    1UNL     O3   24  -0.086   0.195   0.205
    1UNL    C20   25  -0.015   0.314   0.248
    1UNL     H1   26  -0.357  -0.053   0.138
    1UNL     H2   27  -0.418   0.064   0.046
    1UNL     H3   28  -0.525  -0.067   0.051
    1UNL     H4   29  -0.382  -0.209  -0.101
    1UNL     H5   30  -0.224  -0.254  -0.249
    1UNL     H6   31  -0.238  -0.109  -0.338
    1UNL     H7   32   0.052  -0.335  -0.196
    1UNL     H8   33  -0.102  -0.224   0.029
    1UNL     H9   34   0.062  -0.260   0.056
    1UNL    H10   35   0.131  -0.159   0.273
    1UNL    H11   36   0.333  -0.090   0.386
    1UNL    H12   37   0.501   0.058   0.285
    1UNL    H13   38   0.473   0.128   0.050
    1UNL    H14   39   0.309   0.053  -0.178
    1UNL    H15   40   0.094   0.014  -0.338
    1UNL    H16   41  -0.125   0.133  -0.317
    1UNL    H17   42  -0.017   0.205  -0.203
    1UNL    H18   43  -0.224   0.157  -0.091
    1UNL    H19   44  -0.150  -0.006   0.089
    1UNL    H20   45  -0.082   0.394   0.235
    1UNL    H21   46   0.075   0.330   0.192
    1UNL    H22   47   0.011   0.298   0.359
   0.00000   0.00000   0.00000   0.00000   0.00000   0.00000   0.00000   0.00000   0.00000
Generated with MDTraj, t= 5.0
 47
    1UNL     C1    1  -0.385  -0.015   0.073
    1UNL     C2    2  -0.348  -0.093  -0.052
    1UNL     C3    3  -0.238  -0.067  -0.124
    1UNL     C4    4  -0.193  -0.153  -0.244
    1UNL     N1    5  -0.047  -0.144  -0.258
    1UNL     C5    6   0.039  -0.228  -0.176
    1UNL     C6    7   0.015  -0.201  -0.027
    1UNL     C7    8   0.065  -0.060  -0.010
    1UNL     C8    9   0.183  -0.044   0.089
    1UNL     C9   10   0.186  -0.073   0.224
    1UNL    C10   11   0.303  -0.047   0.296
    1UNL    C11   12   0.411   0.009   0.235
    1UNL    C12   13   0.417   0.029   0.094
    1UNL    C13   14   0.295   0.017   0.028
    1UNL     N2   15   0.268   0.038  -0.113
    1UNL    C14   16   0.137  -0.036  -0.150
    1UNL     O1   17   0.170  -0.175  -0.187
    1UNL    C15   18   0.028  -0.006  -0.255
    1UNL    C16   19  -0.069   0.104  -0.220
    1UNL    C17   20  -0.151   0.056  -0.097
    1UNL    C18   21  -0.056   0.033   0.026
    1UNL    C19   22  -0.039   0.169   0.097
    1UNL     O2   23   0.024   0.260   0.050
    1UNL     O3   24  -0.095   0.197   0.218
    1UNL    C20   25  -0.074   0.334   0.241
    1UNL     H1   26  -0.315  -0.029   0.156
    1UNL     H2   27  -0.383   0.091   0.054
    1UNL     H3   28  -0.493  -0.024   0.100
    1UNL     H4   29  -0.386  -0.194  -0.067
    1UNL     H5   30  -0.233  -0.250  -0.209
    1UNL     H6   31  -0.243  -0.138  -0.341
    1UNL     H7   32   0.035  -0.332  -0.211
    1UNL     H8   33  -0.090  -0.211   0.006
    1UNL     H9   34   0.066  -0.285   0.034
    1UNL    H10   35   0.110  -0.122   0.276
    1UNL    H11   36   0.301  -0.065   0.405
    1UNL    H12   37   0.496   0.039   0.302
    1UNL    H13   38   0.498   0.080   0.048
    1UNL    H14   39   0.350   0.034  -0.175
    1UNL    H15   40   0.083   0.007  -0.352
    1UNL    H16   41  -0.140   0.135  -0.306
    1UNL    H17   42  -0.012   0.203  -0.200
    1UNL    H18   43  -0.215   0.144  -0.068
    1UNL    H19   44  -0.114  -0.024   0.097
    1UNL    H20   45  -0.032   0.387   0.162
    1UNL    H21   46  -0.021   0.339   0.334
    1UNL    H22   47  -0.183   0.363   0.259
   0.00000   0.00000   0.00000   0.00000   0.00000   0.00000   0.00000   0.00000   0.00000
Generated with MDTraj, t= 6.0
 47
    1UNL     C1    1  -0.388  -0.004   0.059
    1UNL     C2    2  -0.347  -0.089  -0.054
    1UNL     C3    3  -0.237  -0.060  -0.122
    1UNL     C4    4  -0.189  -0.146  -0.236
    1UNL     N1    5  -0.044  -0.149  -0.264
    1UNL     C5    6   0.037  -0.231  -0.176
    1UNL     C6    7   0.008  -0.204  -0.025
    1UNL     C7    8   0.064  -0.068  -0.001
    1UNL     C8    9   0.179  -0.047   0.097
    1UNL     C9   10   0.187  -0.066   0.231
    1UNL    C10   11   0.307  -0.036   0.297
    1UNL    C11   12   0.410   0.011   0.219
    1UNL    C12   13   0.399   0.053   0.086
    1UNL    C13   14   0.280   0.024   0.026
    1UNL     N2   15   0.241   0.049  -0.107
    1UNL    C14   16   0.131  -0.043  -0.143
    1UNL     O1   17   0.171  -0.185  -0.180
    1UNL    C15   18   0.024  -0.012  -0.255
    1UNL    C16   19  -0.065   0.102  -0.213
    1UNL    C17   20  -0.151   0.059  -0.092
    1UNL    C18   21  -0.048   0.034   0.029
    1UNL    C19   22  -0.010   0.168   0.092
    1UNL     O2   23   0.051   0.260   0.047
    1UNL     O3   24  -0.078   0.175   0.208
    1UNL    C20   25  -0.086   0.308   0.242
    1UNL     H1   26  -0.309  -0.005   0.137
    1UNL     H2   27  -0.421   0.087   0.011
    1UNL     H3   28  -0.482  -0.046   0.096
    1UNL     H4   29  -0.391  -0.182  -0.071
    1UNL     H5   30  -0.230  -0.248  -0.225
    1UNL     H6   31  -0.238  -0.093  -0.320
    1UNL     H7   32   0.036  -0.336  -0.201
    1UNL     H8   33  -0.102  -0.194  -0.007
    1UNL     H9   34   0.050  -0.281   0.049
    1UNL    H10   35   0.100  -0.100   0.283
    1UNL    H11   36   0.327  -0.075   0.392
    1UNL    H12   37   0.503   0.022   0.257
    1UNL    H13   38   0.485   0.096   0.036
    1UNL    H14   39   0.291   0.115  -0.167
    1UNL    H15   40   0.094   0.012  -0.340
    1UNL    H16   41  -0.130   0.134  -0.304
    1UNL    H17   42  -0.003   0.197  -0.184
    1UNL    H18   43  -0.217   0.142  -0.055
    1UNL    H19   44  -0.118  -0.007   0.102
    1UNL    H20   45   0.002   0.338   0.289
    1UNL    H21   46  -0.173   0.314   0.308
    1UNL    H22   47  -0.102   0.365   0.145
   0.00000   0.00000   0.00000   0.00000   0.00000   0.00000   0.00000   0.00000   0.00000
Generated with MDTraj, t= 7.0
 47
    1UNL     C1    1  -0.430  -0.001   0.024
    1UNL     C2    2  -0.364  -0.073  -0.084
    1UNL     C3    3  -0.236  -0.069  -0.121
    1UNL     C4    4  -0.184  -0.155  -0.235
    1UNL     N1    5  -0.042  -0.150  -0.252
    1UNL     C5    6   0.044  -0.246  -0.166
    1UNL     C6    7   0.001  -0.213  -0.021
    1UNL     C7    8   0.054  -0.071  -0.005
    1UNL     C8    9   0.177  -0.044   0.087
    1UNL     C9   10   0.197  -0.078   0.222
    1UNL    C10   11   0.318  -0.042   0.278
    1UNL    C11   12   0.409   0.047   0.221
    1UNL    C12   13   0.384   0.095   0.096
    1UNL    C13   14   0.276   0.041   0.022
    1UNL     N2   15   0.242   0.048  -0.114
    1UNL    C14   16   0.133  -0.048  -0.144
    1UNL     O1   17   0.176  -0.189  -0.182
    1UNL    C15   18   0.020  -0.011  -0.245
    1UNL    C16   19  -0.065   0.106  -0.198
    1UNL    C17   20  -0.155   0.051  -0.081
    1UNL    C18   21  -0.056   0.025   0.044
    1UNL    C19   22  -0.019   0.164   0.093
    1UNL     O2   23   0.072   0.234   0.060
    1UNL     O3   24  -0.103   0.204   0.194
    1UNL    C20   25  -0.019   0.294   0.269
    1UNL     H1   26  -0.367  -0.005   0.120
    1UNL     H2   27  -0.475   0.090  -0.016
    1UNL     H3   28  -0.522  -0.053   0.047
    1UNL     H4   29  -0.421  -0.164  -0.129
    1UNL     H5   30  -0.214  -0.257  -0.206
    1UNL     H6   31  -0.235  -0.124  -0.328
    1UNL     H7   32   0.033  -0.350  -0.199
    1UNL     H8   33  -0.110  -0.221   0.001
    1UNL     H9   34   0.072  -0.285   0.033
    1UNL    H10   35   0.118  -0.138   0.277
    1UNL    H11   36   0.346  -0.093   0.372
    1UNL    H12   37   0.511   0.064   0.271
    1UNL    H13   38   0.449   0.166   0.046
    1UNL    H14   39   0.321   0.050  -0.178
    1UNL    H15   40   0.077   0.011  -0.340
    1UNL    H16   41  -0.129   0.150  -0.285
    1UNL    H17   42   0.009   0.189  -0.161
    1UNL    H18   43  -0.231   0.127  -0.046
    1UNL    H19   44  -0.120  -0.014   0.123
    1UNL    H20   45   0.055   0.236   0.318
    1UNL    H21   46  -0.071   0.345   0.348
    1UNL    H22   47   0.038   0.365   0.201
   0.00000   0.00000   0.00000   0.00000   0.00000   0.00000   0.00000   0.00000   0.00000
Generated with MDTraj, t= 8.0
 47
    1UNL     C1    1  -0.440   0.028  -0.006
    1UNL     C2    2  -0.372  -0.076  -0.085
    1UNL     C3    3  -0.247  -0.064  -0.122
    1UNL     C4    4  -0.186  -0.174  -0.214
    1UNL     N1    5  -0.048  -0.152  -0.257
    1UNL     C5    6   0.049  -0.234  -0.179
    1UNL     C6    7   0.019  -0.210  -0.022
    1UNL     C7    8   0.065  -0.063   0.000
    1UNL     C8    9   0.182  -0.038   0.091
    1UNL     C9   10   0.188  -0.057   0.227
    1UNL    C10   11   0.301  -0.020   0.294
    1UNL    C11   12   0.410   0.042   0.225
    1UNL    C12   13   0.400   0.069   0.092
    1UNL    C13   14   0.283   0.026   0.021
    1UNL     N2   15   0.249   0.049  -0.118
    1UNL    C14   16   0.130  -0.039  -0.145
    1UNL     O1   17   0.182  -0.170  -0.186
    1UNL    C15   18   0.015  -0.011  -0.254
    1UNL    C16   19  -0.077   0.092  -0.208
    1UNL    C17   20  -0.154   0.053  -0.082
    1UNL    C18   21  -0.060   0.023   0.046
    1UNL    C19   22  -0.023   0.149   0.106
    1UNL     O2   23   0.039   0.236   0.049
    1UNL     O3   24  -0.064   0.164   0.233
    1UNL    C20   25  -0.011   0.288   0.261
    1UNL     H1   26  -0.387   0.055   0.093
    1UNL     H2   27  -0.465   0.115  -0.067
    1UNL     H3   28  -0.538   0.003   0.026
    1UNL     H4   29  -0.410  -0.167  -0.109
    1UNL     H5   30  -0.195  -0.271  -0.162
    1UNL     H6   31  -0.249  -0.172  -0.305
    1UNL     H7   32   0.061  -0.342  -0.200
    1UNL     H8   33  -0.093  -0.214   0.002
    1UNL     H9   34   0.084  -0.287   0.031
    1UNL    H10   35   0.104  -0.088   0.275
    1UNL    H11   36   0.307  -0.021   0.401
    1UNL    H12   37   0.492   0.070   0.283
    1UNL    H13   38   0.476   0.120   0.038
    1UNL    H14   39   0.324   0.052  -0.186
    1UNL    H15   40   0.063   0.008  -0.355
    1UNL    H16   41  -0.162   0.090  -0.290
    1UNL    H17   42  -0.025   0.198  -0.208
    1UNL    H18   43  -0.210   0.148  -0.056
    1UNL    H19   44  -0.128  -0.027   0.117
    1UNL    H20   45   0.096   0.286   0.246
    1UNL    H21   46  -0.022   0.306   0.368
    1UNL    H22   47  -0.052   0.371   0.193
   0.00000   0.00000   0.00000   0.00000   0.00000   0.00000   0.00000   0.00000   0.00000
Generated with MDTraj, t= 9.0
 47
    1UNL     C1    1  -0.441   0.037   0.002
    1UNL     C2    2  -0.370  -0.060  -0.092
    1UNL     C3    3  -0.241  -0.064  -0.127
    1UNL     C4    4  -0.189  -0.165  -0.229
    1UNL     N1    5  -0.044  -0.166  -0.255
    1UNL     C5    6   0.045  -0.245  -0.155
    1UNL     C6    7   0.006  -0.213  -0.010
    1UNL     C7    8   0.064  -0.069   0.005
    1UNL     C8    9   0.186  -0.039   0.098
    1UNL     C9   10   0.207  -0.068   0.231
    1UNL    C10   11   0.316  -0.013   0.298
    1UNL    C11   12   0.414   0.053   0.222
    1UNL    C12   13   0.404   0.072   0.084
    1UNL    C13   14   0.287   0.028   0.023
    1UNL     N2   15   0.246   0.044  -0.109
    1UNL    C14   16   0.131  -0.041  -0.138
    1UNL     O1   17   0.174  -0.179  -0.165
    1UNL    C15   18   0.027  -0.018  -0.260
    1UNL    C16   19  -0.073   0.097  -0.236
    1UNL    C17   20  -0.154   0.062  -0.106
    1UNL    C18   21  -0.055   0.033   0.020
    1UNL    C19   22  -0.032   0.161   0.098
    1UNL     O2   23  -0.050   0.271   0.049
    1UNL     O3   24  -0.001   0.138   0.228
    1UNL    C20   25  -0.013   0.261   0.285
    1UNL     H1   26  -0.389   0.038   0.102
    1UNL     H2   27  -0.449   0.136  -0.045
    1UNL     H3   28  -0.543   0.006   0.014
    1UNL     H4   29  -0.430  -0.149  -0.132
    1UNL     H5   30  -0.215  -0.268  -0.199
    1UNL     H6   31  -0.238  -0.135  -0.324
    1UNL     H7   32   0.057  -0.354  -0.180
    1UNL     H8   33  -0.105  -0.199   0.017
    1UNL     H9   34   0.064  -0.284   0.057
    1UNL    H10   35   0.121  -0.110   0.290
    1UNL    H11   36   0.317  -0.006   0.405
    1UNL    H12   37   0.496   0.106   0.272
    1UNL    H13   38   0.487   0.106   0.020
    1UNL    H14   39   0.308   0.041  -0.188
    1UNL    H15   40   0.090  -0.014  -0.352
    1UNL    H16   41  -0.144   0.114  -0.327
    1UNL    H17   42  -0.013   0.198  -0.221
    1UNL    H18   43  -0.204   0.157  -0.074
    1UNL    H19   44  -0.131  -0.023   0.078
    1UNL    H20   45   0.063   0.327   0.242
    1UNL    H21   46   0.005   0.256   0.393
    1UNL    H22   47  -0.114   0.306   0.260
   0.00000   0.00000   0.00000   0.00000   0.00000   0.00000   0.00000   0.00000   0.00000
Generated with MDTraj, t= 10.0
 47
    1UNL     C1    1  -0.410   0.031   0.002
    1UNL     C2    2  -0.360  -0.061  -0.106
    1UNL     C3    3  -0.232  -0.050  -0.143
    1UNL     C4    4  -0.181  -0.152  -0.238
    1UNL     N1    5  -0.033  -0.176  -0.247
    1UNL     C5    6   0.047  -0.250  -0.140
    1UNL     C6    7   0.003  -0.208   0.004
    1UNL     C7    8   0.048  -0.060   0.001
    1UNL     C8    9   0.159  -0.022   0.092
    1UNL     C9   10   0.183  -0.069   0.219
    1UNL    C10   11   0.311  -0.031   0.281
    1UNL    C11   12   0.398   0.045   0.208
    1UNL    C12   13   0.382   0.089   0.074
    1UNL    C13   14   0.260   0.057   0.017
    1UNL     N2   15   0.244   0.054  -0.121
    1UNL    C14   16   0.138  -0.052  -0.136
    1UNL     O1   17   0.176  -0.195  -0.155
    1UNL    C15   18   0.036  -0.035  -0.254
    1UNL    C16   19  -0.052   0.083  -0.232
    1UNL    C17   20  -0.141   0.059  -0.107
    1UNL    C18   21  -0.074   0.038   0.029
    1UNL    C19   22  -0.052   0.162   0.112
    1UNL     O2   23  -0.070   0.276   0.066
    1UNL     O3   24   0.002   0.135   0.238
    1UNL    C20   25   0.037   0.259   0.287
    1UNL     H1   26  -0.340   0.030   0.088
    1UNL     H2   27  -0.428   0.133  -0.038
    1UNL     H3   28  -0.508  -0.003   0.033
    1UNL     H4   29  -0.420  -0.145  -0.134
    1UNL     H5   30  -0.225  -0.246  -0.205
    1UNL     H6   31  -0.203  -0.133  -0.345
    1UNL     H7   32   0.076  -0.359  -0.154
    1UNL     H8   33  -0.111  -0.213   0.019
    1UNL     H9   34   0.066  -0.255   0.086
    1UNL    H10   35   0.111  -0.122   0.276
    1UNL    H11   36   0.315  -0.055   0.387
    1UNL    H12   37   0.497   0.061   0.247
    1UNL    H13   38   0.462   0.119   0.014
    1UNL    H14   39   0.319   0.048  -0.188
    1UNL    H15   40   0.095  -0.031  -0.348
    1UNL    H16   41  -0.121   0.105  -0.324
    1UNL    H17   42   0.011   0.180  -0.215
    1UNL    H18   43  -0.198   0.155  -0.103
    1UNL    H19   44  -0.142  -0.027   0.085
    1UNL    H20   45   0.048   0.336   0.208
    1UNL    H21   46   0.130   0.254   0.343
    1UNL    H22   47  -0.042   0.290   0.358
   0.00000   0.00000   0.00000   0.00000   0.00000   0.00000   0.00000   0.00000   0.00000
Generated with MDTraj, t= 11.0
 47
    1UNL     C1    1  -0.442   0.028  -0.011
    1UNL     C2    2  -0.372  -0.076  -0.089
    1UNL     C3    3  -0.244  -0.073  -0.123
    1UNL     C4    4  -0.186  -0.171  -0.222
    1UNL     N1    5  -0.043  -0.152  -0.253
    1UNL     C5    6   0.048  -0.232  -0.172
    1UNL     C6    7   0.022  -0.221  -0.017
    1UNL     C7    8   0.064  -0.072   0.003
    1UNL     C8    9   0.170  -0.037   0.101
    1UNL     C9   10   0.189  -0.067   0.235
    1UNL    C10   11   0.303  -0.021   0.309
    1UNL    C11   12   0.402   0.046   0.240
    1UNL    C12   13   0.382   0.074   0.104
    1UNL    C13   14   0.273   0.027   0.033
    1UNL     N2   15   0.256   0.041  -0.106
    1UNL    C14   16   0.138  -0.043  -0.138
    1UNL     O1   17   0.177  -0.173  -0.183
    1UNL    C15   18   0.021  -0.003  -0.246
    1UNL    C16   19  -0.085   0.102  -0.211
    1UNL    C17   20  -0.163   0.053  -0.085
    1UNL    C18   21  -0.061   0.031   0.030
    1UNL    C19   22  -0.026   0.165   0.084
    1UNL     O2   23  -0.052   0.270   0.026
    1UNL     O3   24   0.019   0.146   0.208
    1UNL    C20   25   0.038   0.273   0.261
    1UNL     H1   26  -0.393   0.066   0.076
    1UNL     H2   27  -0.485   0.115  -0.068
    1UNL     H3   28  -0.538  -0.009   0.033
    1UNL     H4   29  -0.434  -0.151  -0.126
    1UNL     H5   30  -0.186  -0.276  -0.194
    1UNL     H6   31  -0.241  -0.157  -0.317
    1UNL     H7   32   0.045  -0.335  -0.216
    1UNL     H8   33  -0.091  -0.219  -0.004
    1UNL     H9   34   0.080  -0.304   0.038
    1UNL    H10   35   0.104  -0.112   0.288
    1UNL    H11   36   0.312  -0.046   0.413
    1UNL    H12   37   0.496   0.068   0.290
    1UNL    H13   38   0.467   0.115   0.047
    1UNL    H14   39   0.329   0.016  -0.171
    1UNL    H15   40   0.070   0.022  -0.341
    1UNL    H16   41  -0.156   0.133  -0.297
    1UNL    H17   42  -0.036   0.202  -0.174
    1UNL    H18   43  -0.235   0.135  -0.061
    1UNL    H19   44  -0.109  -0.026   0.111
    1UNL    H20   45   0.112   0.333   0.204
    1UNL    H21   46   0.062   0.269   0.366
    1UNL    H22   47  -0.059   0.322   0.258
   0.00000   0.00000   0.00000   0.00000   0.00000   0.00000   0.00000   0.00000   0.00000
Generated with MDTraj, t= 12.0
 47
    1UNL     C1    1  -0.443  -0.010  -0.001
    1UNL     C2    2  -0.371  -0.098  -0.094
    1UNL     C3    3  -0.241  -0.080  -0.117
    1UNL     C4    4  -0.184  -0.165  -0.231
    1UNL     N1    5  -0.042  -0.143  -0.265
    1UNL     C5    6   0.050  -0.232  -0.180
    1UNL     C6    7   0.009  -0.222  -0.025
    1UNL     C7    8   0.049  -0.077   0.006
    1UNL     C8    9   0.165  -0.055   0.101
    1UNL     C9   10   0.183  -0.089   0.236
    1UNL    C10   11   0.295  -0.050   0.301
    1UNL    C11   12   0.394   0.037   0.234
    1UNL    C12   13   0.374   0.085   0.105
    1UNL    C13   14   0.263   0.027   0.036
    1UNL     N2   15   0.229   0.055  -0.094
    1UNL    C14   16   0.122  -0.033  -0.134
    1UNL     O1   17   0.180  -0.159  -0.185
    1UNL    C15   18   0.014  -0.002  -0.235
    1UNL    C16   19  -0.086   0.099  -0.201
    1UNL    C17   20  -0.159   0.051  -0.076
    1UNL    C18   21  -0.059   0.036   0.041
    1UNL    C19   22  -0.003   0.169   0.086
    1UNL     O2   23   0.037   0.253   0.005
    1UNL     O3   24  -0.020   0.192   0.221
    1UNL    C20   25   0.055   0.310   0.248
    1UNL     H1   26  -0.414  -0.026   0.099
    1UNL     H2   27  -0.443   0.099  -0.026
    1UNL     H3   28  -0.553  -0.035  -0.001
    1UNL     H4   29  -0.427  -0.184  -0.145
    1UNL     H5   30  -0.187  -0.268  -0.199
    1UNL     H6   31  -0.224  -0.163  -0.336
    1UNL     H7   32   0.062  -0.332  -0.223
    1UNL     H8   33  -0.100  -0.243  -0.003
    1UNL     H9   34   0.078  -0.290   0.039
    1UNL    H10   35   0.103  -0.142   0.281
    1UNL    H11   36   0.312  -0.066   0.403
    1UNL    H12   37   0.485   0.057   0.290
    1UNL    H13   38   0.437   0.164   0.071
    1UNL    H14   39   0.297   0.048  -0.170
    1UNL    H15   40   0.066   0.039  -0.322
    1UNL    H16   41  -0.168   0.110  -0.280
    1UNL    H17   42  -0.045   0.204  -0.180
    1UNL    H18   43  -0.232   0.127  -0.042
    1UNL    H19   44  -0.101   0.002   0.136
    1UNL    H20   45   0.161   0.298   0.215
    1UNL    H21   46   0.049   0.331   0.353
    1UNL    H22   47   0.008   0.392   0.198
   0.00000   0.00000   0.00000   0.00000   0.00000   0.00000   0.00000   0.00000   0.00000
Generated with MDTraj, t= 13.0
 47
    1UNL     C1    1  -0.405  -0.032   0.053
    1UNL     C2    2  -0.354  -0.098  -0.072
    1UNL     C3    3  -0.247  -0.058  -0.140
    1UNL     C4    4  -0.194  -0.149  -0.247
    1UNL     N1    5  -0.041  -0.153  -0.253
    1UNL     C5    6   0.050  -0.233  -0.158
    1UNL     C6    7   0.003  -0.205  -0.013
    1UNL     C7    8   0.053  -0.064   0.001
    1UNL     C8    9   0.158  -0.033   0.098
    1UNL     C9   10   0.181  -0.088   0.226
    1UNL    C10   11   0.298  -0.066   0.288
    1UNL    C11   12   0.396   0.020   0.236
    1UNL    C12   13   0.376   0.071   0.110
    1UNL    C13   14   0.264   0.034   0.034
    1UNL     N2   15   0.235   0.059  -0.100
    1UNL    C14   16   0.126  -0.040  -0.138
    1UNL     O1   17   0.183  -0.170  -0.166
    1UNL    C15   18   0.026  -0.011  -0.255
    1UNL    C16   19  -0.074   0.102  -0.224
    1UNL    C17   20  -0.161   0.065  -0.099
    1UNL    C18   21  -0.062   0.043   0.019
    1UNL    C19   22  -0.020   0.177   0.080
    1UNL     O2   23   0.041   0.257   0.011
    1UNL     O3   24  -0.052   0.196   0.210
    1UNL    C20   25   0.031   0.296   0.260
    1UNL     H1   26  -0.323   0.002   0.110
    1UNL     H2   27  -0.483   0.043   0.026
    1UNL     H3   28  -0.447  -0.120   0.110
    1UNL     H4   29  -0.405  -0.177  -0.109
    1UNL     H5   30  -0.210  -0.255  -0.240
    1UNL     H6   31  -0.232  -0.120  -0.348
    1UNL     H7   32   0.054  -0.339  -0.177
    1UNL     H8   33  -0.106  -0.222   0.008
    1UNL     H9   34   0.058  -0.272   0.064
    1UNL    H10   35   0.103  -0.152   0.268
    1UNL    H11   36   0.308  -0.116   0.390
    1UNL    H12   37   0.477   0.043   0.305
    1UNL    H13   38   0.445   0.145   0.068
    1UNL    H14   39   0.312   0.044  -0.166
    1UNL    H15   40   0.078   0.017  -0.345
    1UNL    H16   41  -0.139   0.123  -0.313
    1UNL    H17   42  -0.030   0.200  -0.195
    1UNL    H18   43  -0.227   0.146  -0.063
    1UNL    H19   44  -0.112  -0.007   0.103
    1UNL    H20   45   0.137   0.256   0.258
    1UNL    H21   46  -0.006   0.319   0.359
    1UNL    H22   47   0.020   0.382   0.201
   0.00000   0.00000   0.00000   0.00000   0.00000   0.00000   0.00000   0.00000   0.00000
Generated with MDTraj, t= 14.0
 47
    1UNL     C1    1  -0.386  -0.019   0.064
    1UNL     C2    2  -0.328  -0.098  -0.052
    1UNL     C3    3  -0.233  -0.057  -0.135
    1UNL     C4    4  -0.192  -0.129  -0.251
    1UNL     N1    5  -0.047  -0.143  -0.266
    1UNL     C5    6   0.038  -0.235  -0.166
    1UNL     C6    7   0.004  -0.201  -0.016
    1UNL     C7    8   0.059  -0.061   0.002
    1UNL     C8    9   0.170  -0.044   0.093
    1UNL     C9   10   0.175  -0.060   0.228
    1UNL    C10   11   0.290  -0.027   0.302
    1UNL    C11   12   0.405   0.007   0.240
    1UNL    C12   13   0.401   0.025   0.101
    1UNL    C13   14   0.286  -0.001   0.028
    1UNL     N2   15   0.262   0.032  -0.106
    1UNL    C14   16   0.133  -0.045  -0.143
    1UNL     O1   17   0.169  -0.183  -0.180
    1UNL    C15   18   0.028  -0.009  -0.250
    1UNL    C16   19  -0.065   0.105  -0.225
    1UNL    C17   20  -0.158   0.073  -0.108
    1UNL    C18   21  -0.062   0.041   0.015
    1UNL    C19   22  -0.033   0.176   0.085
    1UNL     O2   23  -0.039   0.277   0.015
    1UNL     O3   24  -0.009   0.179   0.222
    1UNL    C20   25  -0.034   0.305   0.268
    1UNL     H1   26  -0.421   0.082   0.039
    1UNL     H2   27  -0.470  -0.071   0.109
    1UNL     H3   28  -0.303  -0.009   0.139
    1UNL     H4   29  -0.374  -0.195  -0.085
    1UNL     H5   30  -0.238  -0.226  -0.245
    1UNL     H6   31  -0.218  -0.080  -0.349
    1UNL     H7   32   0.043  -0.339  -0.194
    1UNL     H8   33  -0.106  -0.200   0.009
    1UNL     H9   34   0.049  -0.267   0.063
    1UNL    H10   35   0.087  -0.099   0.280
    1UNL    H11   36   0.282  -0.035   0.403
    1UNL    H12   37   0.495   0.028   0.296
    1UNL    H13   38   0.491   0.062   0.057
    1UNL    H14   39   0.337   0.005  -0.171
    1UNL    H15   40   0.078   0.016  -0.342
    1UNL    H16   41  -0.132   0.123  -0.311
    1UNL    H17   42  -0.008   0.197  -0.207
    1UNL    H18   43  -0.235   0.150  -0.091
    1UNL    H19   44  -0.124  -0.016   0.085
    1UNL    H20   45   0.017   0.311   0.370
    1UNL    H21   46  -0.142   0.323   0.267
    1UNL    H22   47   0.011   0.371   0.199
   0.00000   0.00000   0.00000   0.00000   0.00000   0.00000   0.00000   0.00000   0.00000
Generated with MDTraj, t= 15.0
 47
    1UNL     C1    1  -0.413  -0.005   0.029
    1UNL     C2    2  -0.348  -0.083  -0.078
    1UNL     C3    3  -0.238  -0.051  -0.143
    1UNL     C4    4  -0.188  -0.144  -0.247
    1UNL     N1    5  -0.042  -0.155  -0.260
    1UNL     C5    6   0.040  -0.236  -0.158
    1UNL     C6    7  -0.004  -0.209  -0.013
    1UNL     C7    8   0.053  -0.065  -0.001
    1UNL     C8    9   0.168  -0.037   0.096
    1UNL     C9   10   0.178  -0.056   0.229
    1UNL    C10   11   0.297  -0.027   0.293
    1UNL    C11   12   0.407   0.020   0.228
    1UNL    C12   13   0.400   0.034   0.086
    1UNL    C13   14   0.278   0.019   0.022
    1UNL     N2   15   0.258   0.038  -0.115
    1UNL    C14   16   0.132  -0.043  -0.140
    1UNL     O1   17   0.176  -0.177  -0.171
    1UNL    C15   18   0.030  -0.019  -0.258
    1UNL    C16   19  -0.062   0.098  -0.232
    1UNL    C17   20  -0.149   0.064  -0.102
    1UNL    C18   21  -0.064   0.037   0.022
    1UNL    C19   22  -0.038   0.165   0.102
    1UNL     O2   23  -0.028   0.268   0.039
    1UNL     O3   24  -0.019   0.174   0.238
    1UNL    C20   25  -0.001   0.307   0.286
    1UNL     H1   26  -0.508  -0.044   0.075
    1UNL     H2   27  -0.352   0.000   0.116
    1UNL     H3   28  -0.429   0.101  -0.001
    1UNL     H4   29  -0.387  -0.177  -0.113
    1UNL     H5   30  -0.210  -0.244  -0.214
    1UNL     H6   31  -0.244  -0.130  -0.345
    1UNL     H7   32   0.042  -0.341  -0.188
    1UNL     H8   33  -0.111  -0.219   0.024
    1UNL     H9   34   0.054  -0.268   0.062
    1UNL    H10   35   0.102  -0.102   0.282
    1UNL    H11   36   0.304  -0.050   0.403
    1UNL    H12   37   0.502   0.035   0.279
    1UNL    H13   38   0.493   0.057   0.035
    1UNL    H14   39   0.330   0.012  -0.183
    1UNL    H15   40   0.091  -0.006  -0.344
    1UNL    H16   41  -0.115   0.107  -0.325
    1UNL    H17   42  -0.007   0.190  -0.211
    1UNL    H18   43  -0.210   0.151  -0.081
    1UNL    H19   44  -0.119  -0.027   0.092
    1UNL    H20   45  -0.069   0.326   0.380
    1UNL    H21   46  -0.017   0.376   0.204
    1UNL    H22   47   0.101   0.321   0.314
   0.00000   0.00000   0.00000   0.00000   0.00000   0.00000   0.00000   0.00000   0.00000
Generated with MDTraj, t= 16.0
 47
    1UNL     C1    1  -0.461   0.019  -0.009
    1UNL     C2    2  -0.380  -0.064  -0.099
    1UNL     C3    3  -0.253  -0.054  -0.140
    1UNL     C4    4  -0.191  -0.169  -0.217
    1UNL     N1    5  -0.043  -0.158  -0.254
    1UNL     C5    6   0.045  -0.231  -0.155
    1UNL     C6    7   0.013  -0.208   0.001
    1UNL     C7    8   0.050  -0.062   0.006
    1UNL     C8    9   0.168  -0.031   0.103
    1UNL     C9   10   0.203  -0.086   0.229
    1UNL    C10   11   0.321  -0.044   0.290
    1UNL    C11   12   0.403   0.046   0.226
    1UNL    C12   13   0.374   0.098   0.104
    1UNL    C13   14   0.260   0.056   0.037
    1UNL     N2   15   0.237   0.053  -0.098
    1UNL    C14   16   0.128  -0.039  -0.134
    1UNL     O1   17   0.181  -0.175  -0.160
    1UNL    C15   18   0.025  -0.017  -0.252
    1UNL    C16   19  -0.073   0.095  -0.233
    1UNL    C17   20  -0.166   0.065  -0.111
    1UNL    C18   21  -0.074   0.038   0.019
    1UNL    C19   22  -0.019   0.156   0.084
    1UNL     O2   23   0.044   0.237   0.023
    1UNL     O3   24  -0.039   0.164   0.219
    1UNL    C20   25   0.052   0.247   0.286
    1UNL     H1   26  -0.451  -0.026   0.095
    1UNL     H2   27  -0.419   0.116  -0.013
    1UNL     H3   28  -0.561   0.016  -0.055
    1UNL     H4   29  -0.428  -0.151  -0.134
    1UNL     H5   30  -0.221  -0.265  -0.178
    1UNL     H6   31  -0.229  -0.166  -0.323
    1UNL     H7   32   0.047  -0.340  -0.180
    1UNL     H8   33  -0.096  -0.220   0.022
    1UNL     H9   34   0.069  -0.279   0.065
    1UNL    H10   35   0.129  -0.156   0.280
    1UNL    H11   36   0.346  -0.091   0.385
    1UNL    H12   37   0.488   0.080   0.284
    1UNL    H13   38   0.444   0.166   0.056
    1UNL    H14   39   0.312   0.054  -0.167
    1UNL    H15   40   0.079  -0.008  -0.341
    1UNL    H16   41  -0.131   0.098  -0.322
    1UNL    H17   42  -0.011   0.184  -0.223
    1UNL    H18   43  -0.223   0.156  -0.098
    1UNL    H19   44  -0.138  -0.005   0.098
    1UNL    H20   45   0.035   0.256   0.401
    1UNL    H21   46   0.056   0.342   0.232
    1UNL    H22   47   0.151   0.209   0.271
   0.00000   0.00000   0.00000   0.00000   0.00000   0.00000   0.00000   0.00000   0.00000
Generated with MDTraj, t= 17.0
 47
    1UNL     C1    1  -0.442   0.055  -0.051
    1UNL     C2    2  -0.374  -0.061  -0.100
    1UNL     C3    3  -0.243  -0.076  -0.117
    1UNL     C4    4  -0.187  -0.167  -0.226
    1UNL     N1    5  -0.042  -0.154  -0.257
    1UNL     C5    6   0.052  -0.239  -0.176
    1UNL     C6    7   0.013  -0.227  -0.024
    1UNL     C7    8   0.058  -0.080   0.004
    1UNL     C8    9   0.172  -0.052   0.096
    1UNL     C9   10   0.183  -0.073   0.233
    1UNL    C10   11   0.293  -0.019   0.300
    1UNL    C11   12   0.380   0.065   0.228
    1UNL    C12   13   0.378   0.086   0.097
    1UNL    C13   14   0.265   0.033   0.028
    1UNL     N2   15   0.234   0.042  -0.108
    1UNL    C14   16   0.125  -0.046  -0.137
    1UNL     O1   17   0.180  -0.172  -0.191
    1UNL    C15   18   0.017  -0.011  -0.244
    1UNL    C16   19  -0.081   0.097  -0.199
    1UNL    C17   20  -0.158   0.042  -0.072
    1UNL    C18   21  -0.059   0.019   0.049
    1UNL    C19   22  -0.010   0.148   0.104
    1UNL     O2   23   0.010   0.238   0.029
    1UNL     O3   24   0.005   0.163   0.239
    1UNL    C20   25   0.045   0.291   0.277
    1UNL     H1   26  -0.389   0.105   0.037
    1UNL     H2   27  -0.457   0.131  -0.129
    1UNL     H3   28  -0.541   0.027  -0.019
    1UNL     H4   29  -0.440  -0.151  -0.127
    1UNL     H5   30  -0.189  -0.267  -0.187
    1UNL     H6   31  -0.254  -0.169  -0.317
    1UNL     H7   32   0.049  -0.343  -0.220
    1UNL     H8   33  -0.096  -0.243  -0.018
    1UNL     H9   34   0.071  -0.308   0.027
    1UNL    H10   35   0.104  -0.120   0.279
    1UNL    H11   36   0.309  -0.029   0.404
    1UNL    H12   37   0.455   0.117   0.284
    1UNL    H13   38   0.445   0.156   0.051
    1UNL    H14   39   0.297   0.052  -0.187
    1UNL    H15   40   0.065   0.011  -0.333
    1UNL    H16   41  -0.146   0.108  -0.282
    1UNL    H17   42  -0.023   0.184  -0.180
    1UNL    H18   43  -0.213   0.130  -0.042
    1UNL    H19   44  -0.121  -0.018   0.133
    1UNL    H20   45   0.070   0.303   0.389
    1UNL    H21   46  -0.026   0.365   0.236
    1UNL    H22   47   0.134   0.314   0.223
   0.00000   0.00000   0.00000   0.00000   0.00000   0.00000   0.00000   0.00000   0.00000
Generated with MDTraj, t= 18.0
 47
    1UNL     C1    1  -0.447   0.038  -0.015
    1UNL     C2    2  -0.385  -0.045  -0.117
    1UNL     C3    3  -0.253  -0.050  -0.134
    1UNL     C4    4  -0.192  -0.165  -0.213
    1UNL     N1    5  -0.045  -0.155  -0.242
    1UNL     C5    6   0.050  -0.239  -0.165
    1UNL     C6    7   0.022  -0.225  -0.012
    1UNL     C7    8   0.060  -0.069  -0.004
    1UNL     C8    9   0.181  -0.050   0.092
    1UNL     C9   10   0.188  -0.064   0.228
    1UNL    C10   11   0.295  -0.016   0.297
    1UNL    C11   12   0.398   0.053   0.238
    1UNL    C12   13   0.391   0.074   0.100
    1UNL    C13   14   0.283   0.022   0.027
    1UNL     N2   15   0.260   0.035  -0.113
    1UNL    C14   16   0.139  -0.044  -0.141
    1UNL     O1   17   0.182  -0.184  -0.177
    1UNL    C15   18   0.023  -0.019  -0.250
    1UNL    C16   19  -0.069   0.099  -0.206
    1UNL    C17   20  -0.158   0.055  -0.091
    1UNL    C18   21  -0.059   0.025   0.032
    1UNL    C19   22  -0.033   0.164   0.092
    1UNL     O2   23  -0.047   0.264   0.026
    1UNL     O3   24   0.010   0.149   0.222
    1UNL    C20   25   0.029   0.264   0.288
    1UNL     H1   26  -0.419   0.013   0.089
    1UNL     H2   27  -0.427   0.149  -0.025
    1UNL     H3   28  -0.554   0.040  -0.015
    1UNL     H4   29  -0.433  -0.125  -0.156
    1UNL     H5   30  -0.218  -0.259  -0.171
    1UNL     H6   31  -0.234  -0.157  -0.317
    1UNL     H7   32   0.058  -0.344  -0.205
    1UNL     H8   33  -0.083  -0.227   0.022
    1UNL     H9   34   0.090  -0.283   0.052
    1UNL    H10   35   0.110  -0.106   0.292
    1UNL    H11   36   0.305  -0.031   0.410
    1UNL    H12   37   0.478   0.098   0.300
    1UNL    H13   38   0.462   0.137   0.044
    1UNL    H14   39   0.333  -0.004  -0.172
    1UNL    H15   40   0.063  -0.007  -0.346
    1UNL    H16   41  -0.131   0.123  -0.289
    1UNL    H17   42  -0.006   0.179  -0.184
    1UNL    H18   43  -0.213   0.141  -0.057
    1UNL    H19   44  -0.125  -0.028   0.102
    1UNL    H20   45   0.089   0.251   0.383
    1UNL    H21   46  -0.066   0.317   0.293
    1UNL    H22   47   0.082   0.323   0.217
   0.00000   0.00000   0.00000   0.00000   0.00000   0.00000   0.00000   0.00000   0.00000
Generated with MDTraj, t= 19.0
 47
    1UNL     C1    1  -0.413   0.025   0.011
    1UNL     C2    2  -0.346  -0.075  -0.085
    1UNL     C3    3  -0.227  -0.059  -0.149
    1UNL     C4    4  -0.175  -0.156  -0.251
    1UNL     N1    5  -0.030  -0.169  -0.251
    1UNL     C5    6   0.044  -0.246  -0.140
    1UNL     C6    7  -0.011  -0.206  -0.001
    1UNL     C7    8   0.045  -0.055   0.012
    1UNL     C8    9   0.161  -0.031   0.100
    1UNL     C9   10   0.186  -0.068   0.226
    1UNL    C10   11   0.313  -0.044   0.278
    1UNL    C11   12   0.407   0.022   0.205
    1UNL    C12   13   0.384   0.071   0.080
    1UNL    C13   14   0.261   0.039   0.026
    1UNL     N2   15   0.229   0.057  -0.115
    1UNL    C14   16   0.125  -0.041  -0.124
    1UNL     O1   17   0.174  -0.181  -0.140
    1UNL    C15   18   0.038  -0.032  -0.250
    1UNL    C16   19  -0.054   0.092  -0.232
    1UNL    C17   20  -0.151   0.068  -0.120
    1UNL    C18   21  -0.074   0.050   0.024
    1UNL    C19   22  -0.047   0.180   0.091
    1UNL     O2   23  -0.032   0.285   0.033
    1UNL     O3   24  -0.023   0.151   0.229
    1UNL    C20   25   0.032   0.251   0.302
    1UNL     H1   26  -0.343   0.050   0.089
    1UNL     H2   27  -0.441   0.117  -0.052
    1UNL     H3   28  -0.505  -0.014   0.050
    1UNL     H4   29  -0.397  -0.178  -0.085
    1UNL     H5   30  -0.222  -0.252  -0.250
    1UNL     H6   31  -0.198  -0.117  -0.353
    1UNL     H7   32   0.058  -0.353  -0.166
    1UNL     H8   33  -0.120  -0.208   0.005
    1UNL     H9   34   0.045  -0.271   0.068
    1UNL    H10   35   0.118  -0.133   0.286
    1UNL    H11   36   0.336  -0.090   0.366
    1UNL    H12   37   0.502   0.036   0.247
    1UNL    H13   38   0.453   0.123   0.022
    1UNL    H14   39   0.307   0.041  -0.179
    1UNL    H15   40   0.099  -0.027  -0.333
    1UNL    H16   41  -0.096   0.124  -0.324
    1UNL    H17   42   0.009   0.169  -0.199
    1UNL    H18   43  -0.226   0.144  -0.111
    1UNL    H19   44  -0.157   0.004   0.081
    1UNL    H20   45   0.059   0.214   0.404
    1UNL    H21   46  -0.036   0.334   0.295
    1UNL    H22   47   0.117   0.276   0.244
   0.00000   0.00000   0.00000   0.00000   0.00000   0.00000   0.00000   0.00000   0.00000
Generated with MDTraj, t= 20.0
 47
    1UNL     C1    1  -0.429  -0.005   0.035
    1UNL     C2    2  -0.368  -0.081  -0.081
    1UNL     C3    3  -0.243  -0.060  -0.128
    1UNL     C4    4  -0.186  -0.150  -0.236
    1UNL     N1    5  -0.040  -0.149  -0.257
    1UNL     C5    6   0.053  -0.241  -0.171
    1UNL     C6    7   0.012  -0.208  -0.019
    1UNL     C7    8   0.056  -0.058  -0.003
    1UNL     C8    9   0.168  -0.033   0.102
    1UNL     C9   10   0.179  -0.071   0.234
    1UNL    C10   11   0.298  -0.048   0.299
    1UNL    C11   12   0.400   0.017   0.236
    1UNL    C12   13   0.397   0.050   0.104
    1UNL    C13   14   0.280   0.023   0.035
    1UNL     N2   15   0.252   0.046  -0.106
    1UNL    C14   16   0.134  -0.035  -0.146
    1UNL     O1   17   0.182  -0.170  -0.178
    1UNL    C15   18   0.023  -0.014  -0.257
    1UNL    C16   19  -0.074   0.097  -0.223
    1UNL    C17   20  -0.155   0.061  -0.103
    1UNL    C18   21  -0.065   0.036   0.029
    1UNL    C19   22  -0.023   0.170   0.090
    1UNL     O2   23   0.009   0.258   0.014
    1UNL     O3   24  -0.034   0.178   0.223
    1UNL    C20   25  -0.002   0.303   0.274
    1UNL     H1   26  -0.402   0.099   0.028
    1UNL     H2   27  -0.542  -0.015   0.033
    1UNL     H3   28  -0.399  -0.040   0.135
    1UNL     H4   29  -0.403  -0.179  -0.098
    1UNL     H5   30  -0.207  -0.253  -0.223
    1UNL     H6   31  -0.242  -0.122  -0.329
    1UNL     H7   32   0.064  -0.349  -0.185
    1UNL     H8   33  -0.095  -0.226  -0.005
    1UNL     H9   34   0.072  -0.280   0.035
    1UNL    H10   35   0.112  -0.137   0.273
    1UNL    H11   36   0.314  -0.090   0.403
    1UNL    H12   37   0.494   0.041   0.288
    1UNL    H13   38   0.474   0.106   0.045
    1UNL    H14   39   0.335   0.040  -0.165
    1UNL    H15   40   0.067   0.006  -0.349
    1UNL    H16   41  -0.138   0.121  -0.303
    1UNL    H17   42  -0.019   0.184  -0.205
    1UNL    H18   43  -0.218   0.144  -0.075
    1UNL    H19   44  -0.133  -0.011   0.104
    1UNL    H20   45  -0.052   0.331   0.368
    1UNL    H21   46  -0.026   0.372   0.194
    1UNL    H22   47   0.105   0.296   0.286
   0.00000   0.00000   0.00000   0.00000   0.00000   0.00000   0.00000   0.00000   0.00000
Generated with MDTraj, t= 21.0
 47
    1UNL     C1    1  -0.429  -0.026   0.046
    1UNL     C2    2  -0.360  -0.096  -0.063
    1UNL     C3    3  -0.247  -0.062  -0.125
    1UNL     C4    4  -0.193  -0.148  -0.236
    1UNL     N1    5  -0.048  -0.131  -0.268
    1UNL     C5    6   0.042  -0.225  -0.191
    1UNL     C6    7   0.009  -0.211  -0.040
    1UNL     C7    8   0.059  -0.072  -0.004
    1UNL     C8    9   0.176  -0.053   0.101
    1UNL     C9   10   0.180  -0.086   0.236
    1UNL    C10   11   0.281  -0.035   0.310
    1UNL    C11   12   0.392   0.029   0.249
    1UNL    C12   13   0.392   0.056   0.114
    1UNL    C13   14   0.279   0.018   0.039
    1UNL     N2   15   0.251   0.038  -0.100
    1UNL    C14   16   0.136  -0.032  -0.141
    1UNL     O1   17   0.177  -0.160  -0.201
    1UNL    C15   18   0.025   0.003  -0.255
    1UNL    C16   19  -0.082   0.109  -0.206
    1UNL    C17   20  -0.161   0.060  -0.082
    1UNL    C18   21  -0.062   0.027   0.036
    1UNL    C19   22  -0.004   0.152   0.095
    1UNL     O2   23   0.081   0.207   0.030
    1UNL     O3   24  -0.052   0.202   0.209
    1UNL    C20   25  -0.017   0.340   0.227
    1UNL     H1   26  -0.516   0.023   0.005
    1UNL     H2   27  -0.472  -0.097   0.117
    1UNL     H3   28  -0.381   0.058   0.107
    1UNL     H4   29  -0.399  -0.193  -0.092
    1UNL     H5   30  -0.242  -0.243  -0.231
    1UNL     H6   31  -0.229  -0.099  -0.330
    1UNL     H7   32   0.039  -0.323  -0.236
    1UNL     H8   33  -0.096  -0.226  -0.021
    1UNL     H9   34   0.067  -0.286   0.011
    1UNL    H10   35   0.095  -0.143   0.285
    1UNL    H11   36   0.287  -0.039   0.416
    1UNL    H12   37   0.463   0.078   0.310
    1UNL    H13   38   0.459   0.124   0.071
    1UNL    H14   39   0.336   0.014  -0.153
    1UNL    H15   40   0.076   0.032  -0.341
    1UNL    H16   41  -0.141   0.141  -0.285
    1UNL    H17   42  -0.037   0.200  -0.183
    1UNL    H18   43  -0.227   0.137  -0.046
    1UNL    H19   44  -0.115  -0.015   0.126
    1UNL    H20   45  -0.028   0.382   0.327
    1UNL    H21   46  -0.091   0.391   0.161
    1UNL    H22   47   0.088   0.344   0.196
   0.00000   0.00000   0.00000   0.00000   0.00000   0.00000   0.00000   0.00000   0.00000
Generated with MDTraj, t= 22.0
 47
    1UNL     C1    1  -0.386  -0.035   0.072
    1UNL     C2    2  -0.338  -0.098  -0.059
    1UNL     C3    3  -0.234  -0.058  -0.134
    1UNL     C4    4  -0.191  -0.128  -0.262
    1UNL     N1    5  -0.046  -0.137  -0.272
    1UNL     C5    6   0.034  -0.230  -0.183
    1UNL     C6    7  -0.007  -0.212  -0.036
    1UNL     C7    8   0.048  -0.074   0.001
    1UNL     C8    9   0.175  -0.067   0.092
    1UNL     C9   10   0.191  -0.108   0.228
    1UNL    C10   11   0.295  -0.053   0.302
    1UNL    C11   12   0.390   0.032   0.240
    1UNL    C12   13   0.386   0.059   0.108
    1UNL    C13   14   0.272   0.021   0.040
    1UNL     N2   15   0.241   0.042  -0.103
    1UNL    C14   16   0.130  -0.045  -0.140
    1UNL     O1   17   0.167  -0.177  -0.178
    1UNL    C15   18   0.026  -0.008  -0.253
    1UNL    C16   19  -0.062   0.110  -0.209
    1UNL    C17   20  -0.147   0.059  -0.087
    1UNL    C18   21  -0.063   0.040   0.033
    1UNL    C19   22  -0.011   0.167   0.089
    1UNL     O2   23   0.081   0.230   0.039
    1UNL     O3   24  -0.088   0.226   0.190
    1UNL    C20   25  -0.037   0.342   0.253
    1UNL     H1   26  -0.476   0.019   0.045
    1UNL     H2   27  -0.411  -0.116   0.137
    1UNL     H3   28  -0.314   0.041   0.120
    1UNL     H4   29  -0.388  -0.195  -0.090
    1UNL     H5   30  -0.218  -0.231  -0.271
    1UNL     H6   31  -0.251  -0.082  -0.345
    1UNL     H7   32   0.036  -0.332  -0.219
    1UNL     H8   33  -0.114  -0.216  -0.027
    1UNL     H9   34   0.027  -0.283   0.037
    1UNL    H10   35   0.116  -0.167   0.272
    1UNL    H11   36   0.308  -0.072   0.407
    1UNL    H12   37   0.475   0.075   0.294
    1UNL    H13   38   0.458   0.119   0.048
    1UNL    H14   39   0.320   0.023  -0.165
    1UNL    H15   40   0.079   0.017  -0.340
    1UNL    H16   41  -0.117   0.151  -0.286
    1UNL    H17   42  -0.001   0.193  -0.191
    1UNL    H18   43  -0.216   0.141  -0.076
    1UNL    H19   44  -0.122  -0.010   0.113
    1UNL    H20   45  -0.101   0.388   0.327
    1UNL    H21   46  -0.041   0.415   0.166
    1UNL    H22   47   0.061   0.309   0.295
   0.00000   0.00000   0.00000   0.00000   0.00000   0.00000   0.00000   0.00000   0.00000
Generated with MDTraj, t= 23.0
 47
    1UNL     C1    1  -0.384  -0.019   0.070
    1UNL     C2    2  -0.352  -0.083  -0.059
    1UNL     C3    3  -0.240  -0.054  -0.129
    1UNL     C4    4  -0.191  -0.138  -0.241
    1UNL     N1    5  -0.041  -0.145  -0.256
    1UNL     C5    6   0.046  -0.230  -0.167
    1UNL     C6    7   0.012  -0.203  -0.021
    1UNL     C7    8   0.058  -0.054  -0.002
    1UNL     C8    9   0.170  -0.035   0.087
    1UNL     C9   10   0.169  -0.067   0.221
    1UNL    C10   11   0.289  -0.062   0.292
    1UNL    C11   12   0.403  -0.013   0.232
    1UNL    C12   13   0.407   0.023   0.095
    1UNL    C13   14   0.287   0.023   0.025
    1UNL     N2   15   0.252   0.048  -0.110
    1UNL    C14   16   0.139  -0.040  -0.142
    1UNL     O1   17   0.179  -0.175  -0.169
    1UNL    C15   18   0.034  -0.012  -0.253
    1UNL    C16   19  -0.062   0.104  -0.219
    1UNL    C17   20  -0.154   0.065  -0.095
    1UNL    C18   21  -0.068   0.046   0.024
    1UNL    C19   22  -0.022   0.176   0.084
    1UNL     O2   23   0.058   0.248   0.027
    1UNL     O3   24  -0.084   0.196   0.204
    1UNL    C20   25  -0.075   0.317   0.267
    1UNL     H1   26  -0.493  -0.038   0.084
    1UNL     H2   27  -0.333  -0.073   0.148
    1UNL     H3   28  -0.372   0.093   0.077
    1UNL     H4   29  -0.417  -0.156  -0.088
    1UNL     H5   30  -0.242  -0.232  -0.227
    1UNL     H6   31  -0.231  -0.112  -0.342
    1UNL     H7   32   0.052  -0.335  -0.201
    1UNL     H8   33  -0.092  -0.215  -0.002
    1UNL     H9   34   0.055  -0.268   0.051
    1UNL    H10   35   0.079  -0.101   0.269
    1UNL    H11   36   0.304  -0.118   0.386
    1UNL    H12   37   0.501  -0.016   0.274
    1UNL    H13   38   0.495   0.029   0.034
    1UNL    H14   39   0.333   0.049  -0.175
    1UNL    H15   40   0.079   0.000  -0.347
    1UNL    H16   41  -0.102   0.159  -0.298
    1UNL    H17   42   0.003   0.177  -0.182
    1UNL    H18   43  -0.211   0.156  -0.072
    1UNL    H19   44  -0.119  -0.011   0.104
    1UNL    H20   45  -0.161   0.375   0.241
    1UNL    H21   46   0.010   0.365   0.210
    1UNL    H22   47  -0.056   0.296   0.375
   0.00000   0.00000   0.00000   0.00000   0.00000   0.00000   0.00000   0.00000   0.00000
Generated with MDTraj, t= 24.0
 47
    1UNL     C1    1  -0.423   0.021   0.013
    1UNL     C2    2  -0.349  -0.086  -0.061
    1UNL     C3    3  -0.240  -0.059  -0.132
    1UNL     C4    4  -0.184  -0.151  -0.244
    1UNL     N1    5  -0.036  -0.147  -0.259
    1UNL     C5    6   0.040  -0.233  -0.165
    1UNL     C6    7   0.001  -0.202  -0.018
    1UNL     C7    8   0.060  -0.057   0.005
    1UNL     C8    9   0.181  -0.042   0.097
    1UNL     C9   10   0.191  -0.070   0.228
    1UNL    C10   11   0.316  -0.059   0.292
    1UNL    C11   12   0.426  -0.009   0.222
    1UNL    C12   13   0.414   0.034   0.086
    1UNL    C13   14   0.290   0.014   0.028
    1UNL     N2   15   0.256   0.036  -0.109
    1UNL    C14   16   0.142  -0.041  -0.141
    1UNL     O1   17   0.175  -0.181  -0.174
    1UNL    C15   18   0.036  -0.006  -0.251
    1UNL    C16   19  -0.063   0.105  -0.207
    1UNL    C17   20  -0.154   0.059  -0.096
    1UNL    C18   21  -0.072   0.036   0.029
    1UNL    C19   22  -0.041   0.173   0.093
    1UNL     O2   23   0.003   0.261   0.023
    1UNL     O3   24  -0.071   0.189   0.227
    1UNL    C20   25  -0.051   0.318   0.280
    1UNL     H1   26  -0.510  -0.024   0.073
    1UNL     H2   27  -0.370   0.074   0.091
    1UNL     H3   28  -0.474   0.093  -0.049
    1UNL     H4   29  -0.399  -0.185  -0.091
    1UNL     H5   30  -0.216  -0.254  -0.246
    1UNL     H6   31  -0.233  -0.119  -0.339
    1UNL     H7   32   0.034  -0.337  -0.204
    1UNL     H8   33  -0.104  -0.202  -0.004
    1UNL     H9   34   0.038  -0.273   0.050
    1UNL    H10   35   0.110  -0.110   0.294
    1UNL    H11   36   0.325  -0.088   0.391
    1UNL    H12   37   0.524   0.000   0.269
    1UNL    H13   38   0.499   0.070   0.029
    1UNL    H14   39   0.331   0.034  -0.178
    1UNL    H15   40   0.081   0.025  -0.341
    1UNL    H16   41  -0.117   0.147  -0.284
    1UNL    H17   42  -0.006   0.184  -0.171
    1UNL    H18   43  -0.215   0.145  -0.062
    1UNL    H19   44  -0.131  -0.017   0.107
    1UNL    H20   45  -0.051   0.378   0.192
    1UNL    H21   46   0.050   0.309   0.328
    1UNL    H22   47  -0.117   0.351   0.361
   0.00000   0.00000   0.00000   0.00000   0.00000   0.00000   0.00000   0.00000   0.00000
Generated with MDTraj, t= 25.0
 47
    1UNL     C1    1  -0.445   0.031  -0.017
    1UNL     C2    2  -0.385  -0.064  -0.119
    1UNL     C3    3  -0.253  -0.052  -0.147
    1UNL     C4    4  -0.194  -0.162  -0.225
    1UNL     N1    5  -0.047  -0.154  -0.248
    1UNL     C5    6   0.044  -0.241  -0.159
    1UNL     C6    7  -0.004  -0.213  -0.012
    1UNL     C7    8   0.054  -0.063   0.004
    1UNL     C8    9   0.176  -0.040   0.105
    1UNL     C9   10   0.204  -0.084   0.233
    1UNL    C10   11   0.326  -0.055   0.289
    1UNL    C11   12   0.420   0.027   0.220
    1UNL    C12   13   0.390   0.084   0.099
    1UNL    C13   14   0.270   0.039   0.038
    1UNL     N2   15   0.239   0.053  -0.101
    1UNL    C14   16   0.131  -0.041  -0.137
    1UNL     O1   17   0.177  -0.173  -0.164
    1UNL    C15   18   0.025  -0.021  -0.249
    1UNL    C16   19  -0.065   0.096  -0.223
    1UNL    C17   20  -0.154   0.064  -0.101
    1UNL    C18   21  -0.067   0.032   0.027
    1UNL    C19   22  -0.018   0.157   0.093
    1UNL     O2   23   0.024   0.246   0.024
    1UNL     O3   24  -0.025   0.164   0.231
    1UNL    C20   25   0.002   0.287   0.294
    1UNL     H1   26  -0.536  -0.018   0.032
    1UNL     H2   27  -0.372   0.044   0.067
    1UNL     H3   28  -0.479   0.120  -0.061
    1UNL     H4   29  -0.443  -0.143  -0.154
    1UNL     H5   30  -0.214  -0.248  -0.165
    1UNL     H6   31  -0.245  -0.196  -0.318
    1UNL     H7   32   0.052  -0.351  -0.179
    1UNL     H8   33  -0.110  -0.221  -0.004
    1UNL     H9   34   0.045  -0.278   0.052
    1UNL    H10   35   0.137  -0.148   0.279
    1UNL    H11   36   0.335  -0.075   0.400
    1UNL    H12   37   0.500   0.059   0.283
    1UNL    H13   38   0.439   0.168   0.055
    1UNL    H14   39   0.307   0.062  -0.177
    1UNL    H15   40   0.070  -0.007  -0.346
    1UNL    H16   41  -0.119   0.119  -0.309
    1UNL    H17   42  -0.001   0.174  -0.199
    1UNL    H18   43  -0.221   0.147  -0.075
    1UNL    H19   44  -0.138  -0.018   0.097
    1UNL    H20   45   0.023   0.348   0.209
    1UNL    H21   46   0.077   0.264   0.374
    1UNL    H22   47  -0.079   0.331   0.353
   0.00000   0.00000   0.00000   0.00000   0.00000   0.00000   0.00000   0.00000   0.00000
Generated with MDTraj, t= 26.0
 47
    1UNL     C1    1  -0.451   0.062  -0.036
    1UNL     C2    2  -0.376  -0.055  -0.106
    1UNL     C3    3  -0.246  -0.060  -0.138
    1UNL     C4    4  -0.188  -0.176  -0.214
    1UNL     N1    5  -0.045  -0.162  -0.259
    1UNL     C5    6   0.050  -0.244  -0.171
    1UNL     C6    7   0.016  -0.224  -0.017
    1UNL     C7    8   0.058  -0.072  -0.000
    1UNL     C8    9   0.173  -0.037   0.095
    1UNL     C9   10   0.181  -0.067   0.228
    1UNL    C10   11   0.283  -0.018   0.301
    1UNL    C11   12   0.381   0.061   0.240
    1UNL    C12   13   0.371   0.090   0.108
    1UNL    C13   14   0.270   0.037   0.023
    1UNL     N2   15   0.235   0.055  -0.105
    1UNL    C14   16   0.128  -0.044  -0.140
    1UNL     O1   17   0.177  -0.176  -0.183
    1UNL    C15   18   0.020  -0.022  -0.253
    1UNL    C16   19  -0.074   0.095  -0.214
    1UNL    C17   20  -0.156   0.055  -0.090
    1UNL    C18   21  -0.062   0.021   0.035
    1UNL    C19   22  -0.018   0.150   0.105
    1UNL     O2   23   0.011   0.239   0.031
    1UNL     O3   24  -0.006   0.157   0.244
    1UNL    C20   25   0.084   0.254   0.290
    1UNL     H1   26  -0.556   0.024  -0.031
    1UNL     H2   27  -0.416   0.081   0.070
    1UNL     H3   28  -0.457   0.149  -0.097
    1UNL     H4   29  -0.430  -0.142  -0.146
    1UNL     H5   30  -0.212  -0.277  -0.187
    1UNL     H6   31  -0.243  -0.171  -0.311
    1UNL     H7   32   0.060  -0.351  -0.204
    1UNL     H8   33  -0.090  -0.234  -0.013
    1UNL     H9   34   0.079  -0.287   0.038
    1UNL    H10   35   0.098  -0.136   0.263
    1UNL    H11   36   0.283  -0.040   0.401
    1UNL    H12   37   0.449   0.114   0.308
    1UNL    H13   38   0.435   0.167   0.065
    1UNL    H14   39   0.301   0.083  -0.177
    1UNL    H15   40   0.070   0.002  -0.348
    1UNL    H16   41  -0.135   0.118  -0.296
    1UNL    H17   42  -0.010   0.172  -0.188
    1UNL    H18   43  -0.231   0.132  -0.065
    1UNL    H19   44  -0.129  -0.029   0.108
    1UNL    H20   45   0.141   0.268   0.201
    1UNL    H21   46   0.141   0.227   0.380
    1UNL    H22   47   0.026   0.346   0.298
   0.00000   0.00000   0.00000   0.00000   0.00000   0.00000   0.00000   0.00000   0.00000
Generated with MDTraj, t= 27.0
 47
    1UNL     C1    1  -0.455   0.047  -0.029
    1UNL     C2    2  -0.378  -0.064  -0.094
    1UNL     C3    3  -0.253  -0.058  -0.131
    1UNL     C4    4  -0.194  -0.142  -0.239
    1UNL     N1    5  -0.043  -0.148  -0.262
    1UNL     C5    6   0.038  -0.241  -0.172
    1UNL     C6    7   0.007  -0.223  -0.017
    1UNL     C7    8   0.057  -0.076   0.002
    1UNL     C8    9   0.183  -0.059   0.093
    1UNL     C9   10   0.192  -0.078   0.229
    1UNL    C10   11   0.292  -0.009   0.306
    1UNL    C11   12   0.380   0.079   0.244
    1UNL    C12   13   0.375   0.086   0.107
    1UNL    C13   14   0.275   0.027   0.032
    1UNL     N2   15   0.247   0.044  -0.102
    1UNL    C14   16   0.133  -0.051  -0.135
    1UNL     O1   17   0.174  -0.185  -0.179
    1UNL    C15   18   0.027  -0.021  -0.245
    1UNL    C16   19  -0.063   0.099  -0.204
    1UNL    C17   20  -0.150   0.056  -0.087
    1UNL    C18   21  -0.058   0.022   0.033
    1UNL    C19   22  -0.020   0.152   0.094
    1UNL     O2   23  -0.017   0.246   0.019
    1UNL     O3   24   0.010   0.147   0.231
    1UNL    C20   25   0.057   0.264   0.282
    1UNL     H1   26  -0.555   0.007  -0.013
    1UNL     H2   27  -0.421   0.086   0.071
    1UNL     H3   28  -0.463   0.137  -0.092
    1UNL     H4   29  -0.426  -0.159  -0.127
    1UNL     H5   30  -0.222  -0.243  -0.219
    1UNL     H6   31  -0.240  -0.124  -0.339
    1UNL     H7   32   0.027  -0.348  -0.202
    1UNL     H8   33  -0.096  -0.236   0.004
    1UNL     H9   34   0.078  -0.282   0.033
    1UNL    H10   35   0.125  -0.142   0.276
    1UNL    H11   36   0.309  -0.035   0.415
    1UNL    H12   37   0.461   0.120   0.301
    1UNL    H13   38   0.451   0.151   0.067
    1UNL    H14   39   0.311   0.059  -0.179
    1UNL    H15   40   0.087   0.002  -0.338
    1UNL    H16   41  -0.118   0.121  -0.289
    1UNL    H17   42   0.002   0.175  -0.175
    1UNL    H18   43  -0.210   0.145  -0.059
    1UNL    H19   44  -0.124  -0.017   0.113
    1UNL    H20   45   0.160   0.269   0.251
    1UNL    H21   46   0.061   0.271   0.393
    1UNL    H22   47  -0.005   0.335   0.223
   0.00000   0.00000   0.00000   0.00000   0.00000   0.00000   0.00000   0.00000   0.00000
Generated with MDTraj, t= 28.0
 47
    1UNL     C1    1  -0.415   0.009   0.025
    1UNL     C2    2  -0.366  -0.065  -0.095
    1UNL     C3    3  -0.247  -0.054  -0.145
    1UNL     C4    4  -0.187  -0.160  -0.232
    1UNL     N1    5  -0.035  -0.155  -0.254
    1UNL     C5    6   0.045  -0.237  -0.154
    1UNL     C6    7  -0.001  -0.211  -0.008
    1UNL     C7    8   0.053  -0.061  -0.003
    1UNL     C8    9   0.167  -0.040   0.093
    1UNL     C9   10   0.180  -0.083   0.223
    1UNL    C10   11   0.302  -0.052   0.290
    1UNL    C11   12   0.404   0.015   0.228
    1UNL    C12   13   0.387   0.052   0.093
    1UNL    C13   14   0.262   0.041   0.034
    1UNL     N2   15   0.235   0.061  -0.101
    1UNL    C14   16   0.130  -0.040  -0.135
    1UNL     O1   17   0.181  -0.176  -0.157
    1UNL    C15   18   0.034  -0.020  -0.248
    1UNL    C16   19  -0.055   0.103  -0.224
    1UNL    C17   20  -0.150   0.070  -0.109
    1UNL    C18   21  -0.065   0.040   0.021
    1UNL    C19   22  -0.021   0.167   0.089
    1UNL     O2   23   0.001   0.258   0.015
    1UNL     O3   24  -0.026   0.171   0.225
    1UNL    C20   25   0.003   0.289   0.290
    1UNL     H1   26  -0.505  -0.041   0.050
    1UNL     H2   27  -0.343   0.013   0.110
    1UNL     H3   28  -0.438   0.119   0.002
    1UNL     H4   29  -0.415  -0.150  -0.132
    1UNL     H5   30  -0.204  -0.260  -0.198
    1UNL     H6   31  -0.232  -0.166  -0.333
    1UNL     H7   32   0.049  -0.341  -0.184
    1UNL     H8   33  -0.105  -0.207   0.004
    1UNL     H9   34   0.047  -0.271   0.064
    1UNL    H10   35   0.099  -0.133   0.277
    1UNL    H11   36   0.318  -0.102   0.380
    1UNL    H12   37   0.500   0.023   0.277
    1UNL    H13   38   0.472   0.087   0.043
    1UNL    H14   39   0.307   0.055  -0.172
    1UNL    H15   40   0.091  -0.017  -0.349
    1UNL    H16   41  -0.111   0.121  -0.309
    1UNL    H17   42   0.016   0.178  -0.203
    1UNL    H18   43  -0.207   0.164  -0.090
    1UNL    H19   44  -0.138  -0.008   0.089
    1UNL    H20   45   0.087   0.328   0.232
    1UNL    H21   46   0.047   0.281   0.393
    1UNL    H22   47  -0.090   0.348   0.273
   0.00000   0.00000   0.00000   0.00000   0.00000   0.00000   0.00000   0.00000   0.00000
Generated with MDTraj, t= 29.0
 47
    1UNL     C1    1  -0.401  -0.010   0.039
    1UNL     C2    2  -0.338  -0.096  -0.069
    1UNL     C3    3  -0.231  -0.067  -0.135
    1UNL     C4    4  -0.186  -0.165  -0.235
    1UNL     N1    5  -0.034  -0.148  -0.268
    1UNL     C5    6   0.042  -0.224  -0.163
    1UNL     C6    7  -0.001  -0.193  -0.017
    1UNL     C7    8   0.055  -0.045   0.000
    1UNL     C8    9   0.168  -0.032   0.096
    1UNL     C9   10   0.179  -0.076   0.226
    1UNL    C10   11   0.297  -0.067   0.293
    1UNL    C11   12   0.414  -0.029   0.231
    1UNL    C12   13   0.405   0.021   0.100
    1UNL    C13   14   0.283   0.025   0.033
    1UNL     N2   15   0.255   0.040  -0.101
    1UNL    C14   16   0.134  -0.038  -0.136
    1UNL     O1   17   0.174  -0.175  -0.177
    1UNL    C15   18   0.034  -0.005  -0.253
    1UNL    C16   19  -0.070   0.107  -0.219
    1UNL    C17   20  -0.156   0.064  -0.102
    1UNL    C18   21  -0.071   0.050   0.029
    1UNL    C19   22  -0.035   0.178   0.084
    1UNL     O2   23   0.007   0.267   0.012
    1UNL     O3   24  -0.063   0.203   0.220
    1UNL    C20   25  -0.026   0.323   0.279
    1UNL     H1   26  -0.491  -0.061   0.065
    1UNL     H2   27  -0.337   0.012   0.126
    1UNL     H3   28  -0.431   0.095  -0.003
    1UNL     H4   29  -0.391  -0.194  -0.097
    1UNL     H5   30  -0.198  -0.269  -0.216
    1UNL     H6   31  -0.240  -0.156  -0.331
    1UNL     H7   32   0.038  -0.328  -0.193
    1UNL     H8   33  -0.102  -0.202   0.013
    1UNL     H9   34   0.047  -0.261   0.048
    1UNL    H10   35   0.086  -0.113   0.266
    1UNL    H11   36   0.293  -0.096   0.399
    1UNL    H12   37   0.506  -0.011   0.288
    1UNL    H13   38   0.495   0.067   0.051
    1UNL    H14   39   0.317   0.021  -0.180
    1UNL    H15   40   0.098   0.020  -0.348
    1UNL    H16   41  -0.130   0.122  -0.303
    1UNL    H17   42  -0.015   0.191  -0.191
    1UNL    H18   43  -0.234   0.139  -0.081
    1UNL    H19   44  -0.136  -0.005   0.099
    1UNL    H20   45   0.084   0.321   0.265
    1UNL    H21   46  -0.043   0.335   0.389
    1UNL    H22   47  -0.083   0.400   0.224
   0.00000   0.00000   0.00000   0.00000   0.00000   0.00000   0.00000   0.00000   0.00000
Generated with MDTraj, t= 30.0
 47
    1UNL     C1    1  -0.407  -0.032   0.045
    1UNL     C2    2  -0.347  -0.105  -0.073
    1UNL     C3    3  -0.239  -0.058  -0.133
    1UNL     C4    4  -0.200  -0.126  -0.252
    1UNL     N1    5  -0.047  -0.128  -0.269
    1UNL     C5    6   0.030  -0.224  -0.173
    1UNL     C6    7  -0.007  -0.204  -0.022
    1UNL     C7    8   0.055  -0.061   0.004
    1UNL     C8    9   0.169  -0.040   0.107
    1UNL     C9   10   0.190  -0.081   0.242
    1UNL    C10   11   0.311  -0.069   0.307
    1UNL    C11   12   0.416   0.003   0.242
    1UNL    C12   13   0.400   0.044   0.110
    1UNL    C13   14   0.280   0.021   0.042
    1UNL     N2   15   0.249   0.036  -0.094
    1UNL    C14   16   0.131  -0.036  -0.137
    1UNL     O1   17   0.167  -0.173  -0.181
    1UNL    C15   18   0.024   0.002  -0.247
    1UNL    C16   19  -0.072   0.116  -0.210
    1UNL    C17   20  -0.152   0.062  -0.091
    1UNL    C18   21  -0.065   0.032   0.033
    1UNL    C19   22  -0.012   0.163   0.077
    1UNL     O2   23   0.057   0.233   0.006
    1UNL     O3   24  -0.053   0.199   0.202
    1UNL    C20   25  -0.048   0.335   0.243
    1UNL     H1   26  -0.484  -0.091   0.096
    1UNL     H2   27  -0.340   0.006   0.122
    1UNL     H3   28  -0.469   0.059   0.017
    1UNL     H4   29  -0.391  -0.192  -0.103
    1UNL     H5   30  -0.222  -0.230  -0.237
    1UNL     H6   31  -0.248  -0.105  -0.351
    1UNL     H7   32   0.037  -0.326  -0.207
    1UNL     H8   33  -0.110  -0.216   0.003
    1UNL     H9   34   0.030  -0.280   0.040
    1UNL    H10   35   0.110  -0.141   0.278
    1UNL    H11   36   0.322  -0.096   0.411
    1UNL    H12   37   0.496   0.022   0.307
    1UNL    H13   38   0.479   0.103   0.079
    1UNL    H14   39   0.315   0.047  -0.172
    1UNL    H15   40   0.083   0.024  -0.348
    1UNL    H16   41  -0.133   0.141  -0.292
    1UNL    H17   42  -0.012   0.195  -0.180
    1UNL    H18   43  -0.223   0.134  -0.047
    1UNL    H19   44  -0.110  -0.025   0.118
    1UNL    H20   45   0.053   0.342   0.283
    1UNL    H21   46  -0.128   0.373   0.312
    1UNL    H22   47  -0.058   0.396   0.154
   0.00000   0.00000   0.00000   0.00000   0.00000   0.00000   0.00000   0.00000   0.00000
Generated with MDTraj, t= 31.0
 47
    1UNL     C1    1  -0.408  -0.015   0.056
    1UNL     C2    2  -0.350  -0.085  -0.068
    1UNL     C3    3  -0.235  -0.055  -0.124
    1UNL     C4    4  -0.190  -0.147  -0.237
    1UNL     N1    5  -0.042  -0.147  -0.271
    1UNL     C5    6   0.046  -0.234  -0.184
    1UNL     C6    7   0.015  -0.221  -0.030
    1UNL     C7    8   0.060  -0.079  -0.002
    1UNL     C8    9   0.178  -0.064   0.086
    1UNL     C9   10   0.176  -0.103   0.217
    1UNL    C10   11   0.277  -0.055   0.292
    1UNL    C11   12   0.379   0.026   0.243
    1UNL    C12   13   0.372   0.071   0.111
    1UNL    C13   14   0.273   0.017   0.028
    1UNL     N2   15   0.241   0.052  -0.103
    1UNL    C14   16   0.130  -0.041  -0.143
    1UNL     O1   17   0.175  -0.170  -0.194
    1UNL    C15   18   0.024  -0.008  -0.253
    1UNL    C16   19  -0.060   0.108  -0.201
    1UNL    C17   20  -0.145   0.062  -0.082
    1UNL    C18   21  -0.065   0.031   0.038
    1UNL    C19   22  -0.019   0.163   0.096
    1UNL     O2   23   0.077   0.216   0.044
    1UNL     O3   24  -0.074   0.229   0.200
    1UNL    C20   25  -0.011   0.345   0.249
    1UNL     H1   26  -0.505  -0.067   0.084
    1UNL     H2   27  -0.343  -0.008   0.144
    1UNL     H3   28  -0.450   0.083   0.037
    1UNL     H4   29  -0.408  -0.172  -0.109
    1UNL     H5   30  -0.219  -0.251  -0.244
    1UNL     H6   31  -0.237  -0.100  -0.326
    1UNL     H7   32   0.048  -0.336  -0.222
    1UNL     H8   33  -0.091  -0.233  -0.015
    1UNL     H9   34   0.054  -0.300   0.027
    1UNL    H10   35   0.092  -0.165   0.262
    1UNL    H11   36   0.281  -0.089   0.394
    1UNL    H12   37   0.459   0.059   0.312
    1UNL    H13   38   0.448   0.145   0.075
    1UNL    H14   39   0.305   0.082  -0.179
    1UNL    H15   40   0.077   0.017  -0.356
    1UNL    H16   41  -0.113   0.151  -0.280
    1UNL    H17   42   0.007   0.179  -0.164
    1UNL    H18   43  -0.212   0.144  -0.049
    1UNL    H19   44  -0.114  -0.029   0.116
    1UNL    H20   45   0.093   0.334   0.222
    1UNL    H21   46  -0.029   0.370   0.356
    1UNL    H22   47  -0.058   0.426   0.195
   0.00000   0.00000   0.00000   0.00000   0.00000   0.00000   0.00000   0.00000   0.00000
Generated with MDTraj, t= 32.0
 47
    1UNL     C1    1  -0.410   0.006   0.051
    1UNL     C2    2  -0.352  -0.075  -0.063
    1UNL     C3    3  -0.241  -0.048  -0.132
    1UNL     C4    4  -0.198  -0.137  -0.238
    1UNL     N1    5  -0.049  -0.143  -0.261
    1UNL     C5    6   0.037  -0.239  -0.177
    1UNL     C6    7   0.007  -0.216  -0.029
    1UNL     C7    8   0.060  -0.074  -0.007
    1UNL     C8    9   0.175  -0.062   0.094
    1UNL     C9   10   0.176  -0.069   0.235
    1UNL    C10   11   0.290  -0.027   0.309
    1UNL    C11   12   0.391   0.035   0.245
    1UNL    C12   13   0.392   0.053   0.106
    1UNL    C13   14   0.282   0.013   0.027
    1UNL     N2   15   0.247   0.051  -0.104
    1UNL    C14   16   0.137  -0.042  -0.148
    1UNL     O1   17   0.174  -0.174  -0.187
    1UNL    C15   18   0.028  -0.011  -0.253
    1UNL    C16   19  -0.063   0.110  -0.219
    1UNL    C17   20  -0.149   0.066  -0.097
    1UNL    C18   21  -0.059   0.031   0.019
    1UNL    C19   22  -0.008   0.153   0.086
    1UNL     O2   23   0.055   0.236   0.022
    1UNL     O3   24  -0.060   0.177   0.215
    1UNL    C20   25  -0.033   0.296   0.269
    1UNL     H1   26  -0.504  -0.056   0.077
    1UNL     H2   27  -0.344   0.016   0.139
    1UNL     H3   28  -0.454   0.094   0.017
    1UNL     H4   29  -0.402  -0.170  -0.079
    1UNL     H5   30  -0.235  -0.236  -0.217
    1UNL     H6   31  -0.234  -0.111  -0.339
    1UNL     H7   32   0.034  -0.346  -0.205
    1UNL     H8   33  -0.095  -0.234  -0.001
    1UNL     H9   34   0.072  -0.273   0.031
    1UNL    H10   35   0.091  -0.098   0.285
    1UNL    H11   36   0.295  -0.051   0.415
    1UNL    H12   37   0.478   0.065   0.295
    1UNL    H13   38   0.476   0.096   0.056
    1UNL    H14   39   0.319   0.051  -0.177
    1UNL    H15   40   0.087   0.004  -0.353
    1UNL    H16   41  -0.120   0.143  -0.300
    1UNL    H17   42   0.003   0.188  -0.199
    1UNL    H18   43  -0.219   0.144  -0.067
    1UNL    H19   44  -0.114  -0.025   0.097
    1UNL    H20   45   0.069   0.300   0.299
    1UNL    H21   46  -0.109   0.324   0.346
    1UNL    H22   47  -0.054   0.366   0.191
   0.00000   0.00000   0.00000   0.00000   0.00000   0.00000   0.00000   0.00000   0.00000
Generated with MDTraj, t= 33.0
 47
    1UNL     C1    1  -0.415   0.019   0.006
    1UNL     C2    2  -0.354  -0.078  -0.086
    1UNL     C3    3  -0.241  -0.052  -0.149
    1UNL     C4    4  -0.188  -0.148  -0.257
    1UNL     N1    5  -0.043  -0.151  -0.259
    1UNL     C5    6   0.028  -0.241  -0.161
    1UNL     C6    7  -0.006  -0.201  -0.016
    1UNL     C7    8   0.054  -0.058   0.003
    1UNL     C8    9   0.177  -0.037   0.095
    1UNL     C9   10   0.189  -0.058   0.228
    1UNL    C10   11   0.309  -0.021   0.296
    1UNL    C11   12   0.410   0.037   0.224
    1UNL    C12   13   0.406   0.049   0.090
    1UNL    C13   14   0.289   0.018   0.028
    1UNL     N2   15   0.255   0.030  -0.107
    1UNL    C14   16   0.136  -0.055  -0.141
    1UNL     O1   17   0.163  -0.193  -0.170
    1UNL    C15   18   0.034  -0.023  -0.258
    1UNL    C16   19  -0.054   0.098  -0.226
    1UNL    C17   20  -0.146   0.070  -0.104
    1UNL    C18   21  -0.069   0.043   0.026
    1UNL    C19   22  -0.038   0.168   0.106
    1UNL     O2   23  -0.020   0.270   0.044
    1UNL     O3   24  -0.037   0.156   0.240
    1UNL    C20   25  -0.003   0.274   0.307
    1UNL     H1   26  -0.488  -0.043   0.069
    1UNL     H2   27  -0.347   0.073   0.072
    1UNL     H3   28  -0.479   0.086  -0.044
    1UNL     H4   29  -0.399  -0.171  -0.106
    1UNL     H5   30  -0.216  -0.251  -0.247
    1UNL     H6   31  -0.228  -0.107  -0.352
    1UNL     H7   32   0.017  -0.348  -0.191
    1UNL     H8   33  -0.108  -0.196   0.011
    1UNL     H9   34   0.046  -0.259   0.056
    1UNL    H10   35   0.103  -0.090   0.293
    1UNL    H11   36   0.317  -0.034   0.400
    1UNL    H12   37   0.503   0.061   0.278
    1UNL    H13   38   0.487   0.089   0.034
    1UNL    H14   39   0.338   0.030  -0.168
    1UNL    H15   40   0.084  -0.012  -0.359
    1UNL    H16   41  -0.101   0.121  -0.317
    1UNL    H17   42   0.009   0.179  -0.211
    1UNL    H18   43  -0.207   0.157  -0.081
    1UNL    H19   44  -0.135  -0.023   0.084
    1UNL    H20   45   0.100   0.289   0.294
    1UNL    H21   46  -0.045   0.292   0.411
    1UNL    H22   47  -0.053   0.353   0.250
   0.00000   0.00000   0.00000   0.00000   0.00000   0.00000   0.00000   0.00000   0.00000
Generated with MDTraj, t= 34.0
 47
    1UNL     C1    1  -0.427   0.047  -0.014
    1UNL     C2    2  -0.376  -0.053  -0.114
    1UNL     C3    3  -0.249  -0.053  -0.153
    1UNL     C4    4  -0.187  -0.176  -0.224
    1UNL     N1    5  -0.039  -0.161  -0.245
    1UNL     C5    6   0.044  -0.242  -0.151
    1UNL     C6    7   0.008  -0.208  -0.008
    1UNL     C7    8   0.056  -0.056   0.004
    1UNL     C8    9   0.173  -0.016   0.098
    1UNL     C9   10   0.185  -0.066   0.222
    1UNL    C10   11   0.297  -0.035   0.291
    1UNL    C11   12   0.407   0.023   0.227
    1UNL    C12   13   0.397   0.070   0.097
    1UNL    C13   14   0.271   0.050   0.025
    1UNL     N2   15   0.238   0.045  -0.116
    1UNL    C14   16   0.131  -0.047  -0.141
    1UNL     O1   17   0.176  -0.182  -0.159
    1UNL    C15   18   0.030  -0.023  -0.257
    1UNL    C16   19  -0.059   0.100  -0.231
    1UNL    C17   20  -0.150   0.061  -0.114
    1UNL    C18   21  -0.071   0.038   0.025
    1UNL    C19   22  -0.037   0.160   0.102
    1UNL     O2   23  -0.025   0.264   0.041
    1UNL     O3   24  -0.005   0.139   0.240
    1UNL    C20   25   0.030   0.253   0.307
    1UNL     H1   26  -0.530   0.017   0.011
    1UNL     H2   27  -0.367   0.053   0.077
    1UNL     H3   28  -0.440   0.149  -0.055
    1UNL     H4   29  -0.432  -0.147  -0.151
    1UNL     H5   30  -0.219  -0.263  -0.170
    1UNL     H6   31  -0.221  -0.182  -0.329
    1UNL     H7   32   0.052  -0.352  -0.175
    1UNL     H8   33  -0.097  -0.213   0.007
    1UNL     H9   34   0.060  -0.274   0.061
    1UNL    H10   35   0.109  -0.125   0.271
    1UNL    H11   36   0.312  -0.056   0.399
    1UNL    H12   37   0.497   0.044   0.278
    1UNL    H13   38   0.482   0.115   0.040
    1UNL    H14   39   0.316   0.036  -0.180
    1UNL    H15   40   0.078  -0.017  -0.356
    1UNL    H16   41  -0.103   0.137  -0.319
    1UNL    H17   42   0.012   0.172  -0.206
    1UNL    H18   43  -0.210   0.148  -0.092
    1UNL    H19   44  -0.136  -0.018   0.094
    1UNL    H20   45   0.053   0.326   0.235
    1UNL    H21   46   0.110   0.237   0.386
    1UNL    H22   47  -0.059   0.278   0.369
   0.00000   0.00000   0.00000   0.00000   0.00000   0.00000   0.00000   0.00000   0.00000
Generated with MDTraj, t= 35.0
 47
    1UNL     C1    1  -0.452   0.069  -0.057
    1UNL     C2    2  -0.383  -0.056  -0.111
    1UNL     C3    3  -0.250  -0.058  -0.137
    1UNL     C4    4  -0.194  -0.162  -0.213
    1UNL     N1    5  -0.050  -0.150  -0.249
    1UNL     C5    6   0.047  -0.241  -0.178
    1UNL     C6    7   0.018  -0.222  -0.021
    1UNL     C7    8   0.061  -0.076   0.006
    1UNL     C8    9   0.177  -0.053   0.103
    1UNL     C9   10   0.202  -0.095   0.234
    1UNL    C10   11   0.309  -0.039   0.299
    1UNL    C11   12   0.396   0.051   0.236
    1UNL    C12   13   0.386   0.090   0.107
    1UNL    C13   14   0.271   0.038   0.039
    1UNL     N2   15   0.239   0.053  -0.100
    1UNL    C14   16   0.134  -0.039  -0.136
    1UNL     O1   17   0.173  -0.174  -0.180
    1UNL    C15   18   0.020  -0.014  -0.244
    1UNL    C16   19  -0.069   0.099  -0.199
    1UNL    C17   20  -0.151   0.047  -0.087
    1UNL    C18   21  -0.064   0.017   0.041
    1UNL    C19   22  -0.021   0.154   0.097
    1UNL     O2   23  -0.005   0.245   0.018
    1UNL     O3   24  -0.009   0.150   0.231
    1UNL    C20   25   0.037   0.278   0.277
    1UNL     H1   26  -0.555   0.045  -0.047
    1UNL     H2   27  -0.408   0.101   0.038
    1UNL     H3   28  -0.445   0.153  -0.135
    1UNL     H4   29  -0.433  -0.141  -0.130
    1UNL     H5   30  -0.197  -0.250  -0.149
    1UNL     H6   31  -0.263  -0.179  -0.298
    1UNL     H7   32   0.054  -0.345  -0.221
    1UNL     H8   33  -0.084  -0.247  -0.008
    1UNL     H9   34   0.084  -0.293   0.023
    1UNL    H10   35   0.146  -0.171   0.278
    1UNL    H11   36   0.315  -0.055   0.403
    1UNL    H12   37   0.474   0.095   0.301
    1UNL    H13   38   0.445   0.153   0.050
    1UNL    H14   39   0.314   0.054  -0.168
    1UNL    H15   40   0.068   0.013  -0.338
    1UNL    H16   41  -0.120   0.140  -0.282
    1UNL    H17   42   0.000   0.171  -0.170
    1UNL    H18   43  -0.209   0.127  -0.045
    1UNL    H19   44  -0.136  -0.030   0.110
    1UNL    H20   45  -0.038   0.345   0.248
    1UNL    H21   46   0.134   0.312   0.228
    1UNL    H22   47   0.060   0.277   0.388
   0.00000   0.00000   0.00000   0.00000   0.00000   0.00000   0.00000   0.00000   0.00000
Generated with MDTraj, t= 36.0
 47
    1UNL     C1    1  -0.466   0.041  -0.044
    1UNL     C2    2  -0.379  -0.066  -0.112
    1UNL     C3    3  -0.246  -0.062  -0.130
    1UNL     C4    4  -0.185  -0.166  -0.227
    1UNL     N1    5  -0.037  -0.154  -0.253
    1UNL     C5    6   0.048  -0.242  -0.170
    1UNL     C6    7   0.010  -0.222  -0.021
    1UNL     C7    8   0.050  -0.072  -0.001
    1UNL     C8    9   0.171  -0.052   0.097
    1UNL     C9   10   0.191  -0.077   0.229
    1UNL    C10   11   0.297  -0.033   0.303
    1UNL    C11   12   0.387   0.046   0.235
    1UNL    C12   13   0.381   0.070   0.100
    1UNL    C13   14   0.272   0.024   0.032
    1UNL     N2   15   0.230   0.063  -0.100
    1UNL    C14   16   0.130  -0.036  -0.132
    1UNL     O1   17   0.173  -0.175  -0.181
    1UNL    C15   18   0.026  -0.012  -0.249
    1UNL    C16   19  -0.073   0.100  -0.200
    1UNL    C17   20  -0.164   0.055  -0.086
    1UNL    C18   21  -0.067   0.026   0.036
    1UNL    C19   22  -0.013   0.158   0.097
    1UNL     O2   23   0.037   0.245   0.027
    1UNL     O3   24  -0.010   0.165   0.234
    1UNL    C20   25   0.050   0.284   0.287
    1UNL     H1   26  -0.567   0.016  -0.060
    1UNL     H2   27  -0.452   0.047   0.065
    1UNL     H3   28  -0.461   0.145  -0.095
    1UNL     H4   29  -0.426  -0.157  -0.163
    1UNL     H5   30  -0.220  -0.263  -0.192
    1UNL     H6   31  -0.222  -0.147  -0.329
    1UNL     H7   32   0.051  -0.347  -0.206
    1UNL     H8   33  -0.099  -0.227  -0.019
    1UNL     H9   34   0.062  -0.294   0.038
    1UNL    H10   35   0.106  -0.132   0.282
    1UNL    H11   36   0.304  -0.065   0.410
    1UNL    H12   37   0.465   0.087   0.292
    1UNL    H13   38   0.460   0.125   0.045
    1UNL    H14   39   0.311   0.074  -0.158
    1UNL    H15   40   0.079   0.010  -0.339
    1UNL    H16   41  -0.116   0.151  -0.280
    1UNL    H17   42  -0.006   0.169  -0.159
    1UNL    H18   43  -0.227   0.137  -0.053
    1UNL    H19   44  -0.124  -0.026   0.114
    1UNL    H20   45  -0.030   0.344   0.313
    1UNL    H21   46   0.118   0.344   0.220
    1UNL    H22   47   0.114   0.259   0.375
   0.00000   0.00000   0.00000   0.00000   0.00000   0.00000   0.00000   0.00000   0.00000
Generated with MDTraj, t= 37.0
 47
    1UNL     C1    1  -0.413   0.016   0.027
    1UNL     C2    2  -0.370  -0.068  -0.089
    1UNL     C3    3  -0.251  -0.048  -0.149
    1UNL     C4    4  -0.194  -0.147  -0.248
    1UNL     N1    5  -0.044  -0.156  -0.252
    1UNL     C5    6   0.045  -0.237  -0.160
    1UNL     C6    7   0.007  -0.206  -0.017
    1UNL     C7    8   0.055  -0.058  -0.007
    1UNL     C8    9   0.168  -0.038   0.102
    1UNL     C9   10   0.167  -0.065   0.237
    1UNL    C10   11   0.286  -0.036   0.305
    1UNL    C11   12   0.390   0.023   0.240
    1UNL    C12   13   0.393   0.063   0.103
    1UNL    C13   14   0.276   0.025   0.036
    1UNL     N2   15   0.251   0.051  -0.107
    1UNL    C14   16   0.138  -0.039  -0.142
    1UNL     O1   17   0.180  -0.179  -0.165
    1UNL    C15   18   0.027  -0.022  -0.251
    1UNL    C16   19  -0.058   0.099  -0.217
    1UNL    C17   20  -0.156   0.069  -0.108
    1UNL    C18   21  -0.067   0.037   0.016
    1UNL    C19   22  -0.028   0.163   0.083
    1UNL     O2   23  -0.002   0.266   0.025
    1UNL     O3   24  -0.023   0.151   0.219
    1UNL    C20   25   0.035   0.258   0.280
    1UNL     H1   26  -0.487  -0.037   0.084
    1UNL     H2   27  -0.336   0.035   0.104
    1UNL     H3   28  -0.475   0.107   0.003
    1UNL     H4   29  -0.435  -0.143  -0.126
    1UNL     H5   30  -0.224  -0.252  -0.229
    1UNL     H6   31  -0.235  -0.117  -0.345
    1UNL     H7   32   0.042  -0.342  -0.191
    1UNL     H8   33  -0.101  -0.206  -0.001
    1UNL     H9   34   0.062  -0.264   0.053
    1UNL    H10   35   0.083  -0.097   0.289
    1UNL    H11   36   0.314  -0.064   0.403
    1UNL    H12   37   0.492   0.032   0.279
    1UNL    H13   38   0.476   0.109   0.056
    1UNL    H14   39   0.330   0.045  -0.169
    1UNL    H15   40   0.072  -0.016  -0.346
    1UNL    H16   41  -0.108   0.121  -0.305
    1UNL    H17   42   0.002   0.182  -0.197
    1UNL    H18   43  -0.215   0.158  -0.096
    1UNL    H19   44  -0.135  -0.022   0.078
    1UNL    H20   45   0.038   0.339   0.216
    1UNL    H21   46   0.134   0.236   0.327
    1UNL    H22   47  -0.032   0.286   0.362
   0.00000   0.00000   0.00000   0.00000   0.00000   0.00000   0.00000   0.00000   0.00000
Generated with MDTraj, t= 38.0
 47
    1UNL     C1    1  -0.388  -0.001   0.042
    1UNL     C2    2  -0.334  -0.092  -0.062
    1UNL     C3    3  -0.231  -0.058  -0.142
    1UNL     C4    4  -0.189  -0.135  -0.261
    1UNL     N1    5  -0.037  -0.146  -0.269
    1UNL     C5    6   0.031  -0.240  -0.172
    1UNL     C6    7  -0.022  -0.207  -0.029
    1UNL     C7    8   0.049  -0.067   0.001
    1UNL     C8    9   0.166  -0.048   0.091
    1UNL     C9   10   0.168  -0.078   0.229
    1UNL    C10   11   0.282  -0.039   0.298
    1UNL    C11   12   0.392   0.024   0.242
    1UNL    C12   13   0.385   0.058   0.111
    1UNL    C13   14   0.278   0.016   0.033
    1UNL     N2   15   0.249   0.025  -0.110
    1UNL    C14   16   0.130  -0.051  -0.141
    1UNL     O1   17   0.167  -0.190  -0.175
    1UNL    C15   18   0.037  -0.013  -0.262
    1UNL    C16   19  -0.049   0.108  -0.220
    1UNL    C17   20  -0.148   0.067  -0.106
    1UNL    C18   21  -0.059   0.045   0.025
    1UNL    C19   22  -0.024   0.177   0.091
    1UNL     O2   23  -0.019   0.284   0.036
    1UNL     O3   24  -0.012   0.172   0.225
    1UNL    C20   25   0.000   0.299   0.283
    1UNL     H1   26  -0.329  -0.024   0.132
    1UNL     H2   27  -0.377   0.110   0.031
    1UNL     H3   28  -0.487  -0.033   0.071
    1UNL     H4   29  -0.394  -0.175  -0.089
    1UNL     H5   30  -0.230  -0.238  -0.256
    1UNL     H6   31  -0.226  -0.098  -0.356
    1UNL     H7   32   0.027  -0.344  -0.199
    1UNL     H8   33  -0.131  -0.209  -0.017
    1UNL     H9   34   0.017  -0.276   0.043
    1UNL    H10   35   0.082  -0.118   0.288
    1UNL    H11   36   0.294  -0.064   0.406
    1UNL    H12   37   0.485   0.045   0.292
    1UNL    H13   38   0.462   0.115   0.057
    1UNL    H14   39   0.324   0.005  -0.176
    1UNL    H15   40   0.100  -0.001  -0.345
    1UNL    H16   41  -0.101   0.146  -0.300
    1UNL    H17   42   0.013   0.187  -0.192
    1UNL    H18   43  -0.211   0.152  -0.094
    1UNL    H19   44  -0.129   0.002   0.097
    1UNL    H20   45   0.097   0.311   0.316
    1UNL    H21   46  -0.070   0.311   0.371
    1UNL    H22   47  -0.006   0.373   0.205
   0.00000   0.00000   0.00000   0.00000   0.00000   0.00000   0.00000   0.00000   0.00000
Generated with MDTraj, t= 39.0
 47
    1UNL     C1    1  -0.414  -0.020   0.043
    1UNL     C2    2  -0.355  -0.081  -0.077
    1UNL     C3    3  -0.240  -0.053  -0.136
    1UNL     C4    4  -0.192  -0.141  -0.245
    1UNL     N1    5  -0.042  -0.130  -0.273
    1UNL     C5    6   0.039  -0.227  -0.181
    1UNL     C6    7  -0.001  -0.204  -0.028
    1UNL     C7    8   0.052  -0.063  -0.000
    1UNL     C8    9   0.163  -0.036   0.098
    1UNL     C9   10   0.175  -0.071   0.233
    1UNL    C10   11   0.286  -0.047   0.305
    1UNL    C11   12   0.397   0.012   0.245
    1UNL    C12   13   0.390   0.044   0.115
    1UNL    C13   14   0.278   0.020   0.041
    1UNL     N2   15   0.246   0.040  -0.094
    1UNL    C14   16   0.129  -0.043  -0.137
    1UNL     O1   17   0.174  -0.179  -0.175
    1UNL    C15   18   0.026  -0.001  -0.250
    1UNL    C16   19  -0.072   0.109  -0.215
    1UNL    C17   20  -0.159   0.062  -0.097
    1UNL    C18   21  -0.070   0.034   0.030
    1UNL    C19   22  -0.014   0.166   0.085
    1UNL     O2   23   0.030   0.253   0.013
    1UNL     O3   24  -0.024   0.169   0.220
    1UNL    C20   25   0.014   0.300   0.250
    1UNL     H1   26  -0.387   0.092   0.048
    1UNL     H2   27  -0.521  -0.026   0.065
    1UNL     H3   28  -0.366  -0.071   0.123
    1UNL     H4   29  -0.419  -0.157  -0.135
    1UNL     H5   30  -0.221  -0.249  -0.231
    1UNL     H6   31  -0.239  -0.119  -0.340
    1UNL     H7   32   0.035  -0.328  -0.220
    1UNL     H8   33  -0.108  -0.211  -0.013
    1UNL     H9   34   0.048  -0.277   0.036
    1UNL    H10   35   0.084  -0.114   0.279
    1UNL    H11   36   0.280  -0.055   0.411
    1UNL    H12   37   0.480   0.044   0.307
    1UNL    H13   38   0.469   0.091   0.059
    1UNL    H14   39   0.333   0.035  -0.149
    1UNL    H15   40   0.082   0.024  -0.334
    1UNL    H16   41  -0.134   0.131  -0.296
    1UNL    H17   42  -0.023   0.197  -0.189
    1UNL    H18   43  -0.217   0.148  -0.074
    1UNL    H19   44  -0.124  -0.006   0.118
    1UNL    H20   45  -0.039   0.351   0.326
    1UNL    H21   46  -0.006   0.372   0.163
    1UNL    H22   47   0.118   0.282   0.273
   0.00000   0.00000   0.00000   0.00000   0.00000   0.00000   0.00000   0.00000   0.00000
Generated with MDTraj, t= 40.0
 47
    1UNL     C1    1  -0.453  -0.017   0.019
    1UNL     C2    2  -0.363  -0.090  -0.075
    1UNL     C3    3  -0.240  -0.062  -0.125
    1UNL     C4    4  -0.185  -0.146  -0.236
    1UNL     N1    5  -0.039  -0.138  -0.266
    1UNL     C5    6   0.042  -0.227  -0.171
    1UNL     C6    7   0.000  -0.206  -0.024
    1UNL     C7    8   0.051  -0.063  -0.003
    1UNL     C8    9   0.166  -0.044   0.097
    1UNL     C9   10   0.178  -0.096   0.222
    1UNL    C10   11   0.287  -0.066   0.298
    1UNL    C11   12   0.390   0.012   0.245
    1UNL    C12   13   0.386   0.056   0.111
    1UNL    C13   14   0.264   0.035   0.039
    1UNL     N2   15   0.242   0.060  -0.101
    1UNL    C14   16   0.131  -0.031  -0.138
    1UNL     O1   17   0.177  -0.167  -0.175
    1UNL    C15   18   0.027  -0.004  -0.251
    1UNL    C16   19  -0.077   0.108  -0.220
    1UNL    C17   20  -0.153   0.059  -0.089
    1UNL    C18   21  -0.060   0.039   0.027
    1UNL    C19   22  -0.018   0.171   0.087
    1UNL     O2   23   0.069   0.231   0.030
    1UNL     O3   24  -0.055   0.208   0.211
    1UNL    C20   25   0.044   0.297   0.260
    1UNL     H1   26  -0.559   0.004  -0.025
    1UNL     H2   27  -0.459  -0.051   0.122
    1UNL     H3   28  -0.400   0.074   0.041
    1UNL     H4   29  -0.406  -0.172  -0.115
    1UNL     H5   30  -0.193  -0.255  -0.209
    1UNL     H6   31  -0.247  -0.149  -0.326
    1UNL     H7   32   0.041  -0.333  -0.197
    1UNL     H8   33  -0.105  -0.218  -0.002
    1UNL     H9   34   0.047  -0.284   0.040
    1UNL    H10   35   0.100  -0.157   0.252
    1UNL    H11   36   0.297  -0.087   0.405
    1UNL    H12   37   0.475   0.040   0.308
    1UNL    H13   38   0.473   0.097   0.065
    1UNL    H14   39   0.324   0.052  -0.165
    1UNL    H15   40   0.080   0.017  -0.337
    1UNL    H16   41  -0.149   0.116  -0.297
    1UNL    H17   42  -0.037   0.201  -0.202
    1UNL    H18   43  -0.222   0.136  -0.063
    1UNL    H19   44  -0.114  -0.010   0.110
    1UNL    H20   45   0.001   0.358   0.335
    1UNL    H21   46   0.080   0.364   0.174
    1UNL    H22   47   0.117   0.223   0.296
   0.00000   0.00000   0.00000   0.00000   0.00000   0.00000   0.00000   0.00000   0.00000
Generated with MDTraj, t= 41.0
 47
    1UNL     C1    1  -0.413   0.016   0.024
    1UNL     C2    2  -0.360  -0.065  -0.078
    1UNL     C3    3  -0.237  -0.055  -0.133
    1UNL     C4    4  -0.189  -0.137  -0.249
    1UNL     N1    5  -0.041  -0.146  -0.271
    1UNL     C5    6   0.037  -0.234  -0.173
    1UNL     C6    7  -0.004  -0.218  -0.020
    1UNL     C7    8   0.055  -0.075   0.004
    1UNL     C8    9   0.172  -0.063   0.101
    1UNL     C9   10   0.188  -0.101   0.232
    1UNL    C10   11   0.301  -0.048   0.302
    1UNL    C11   12   0.405   0.016   0.234
    1UNL    C12   13   0.387   0.060   0.102
    1UNL    C13   14   0.268   0.025   0.038
    1UNL     N2   15   0.241   0.054  -0.096
    1UNL    C14   16   0.132  -0.039  -0.133
    1UNL     O1   17   0.170  -0.175  -0.173
    1UNL    C15   18   0.033  -0.012  -0.250
    1UNL    C16   19  -0.060   0.105  -0.217
    1UNL    C17   20  -0.149   0.064  -0.091
    1UNL    C18   21  -0.061   0.030   0.027
    1UNL    C19   22  -0.018   0.159   0.092
    1UNL     O2   23   0.018   0.252   0.022
    1UNL     O3   24  -0.030   0.176   0.230
    1UNL    C20   25  -0.013   0.312   0.254
    1UNL     H1   26  -0.503  -0.032   0.072
    1UNL     H2   27  -0.335   0.050   0.093
    1UNL     H3   28  -0.438   0.114  -0.019
    1UNL     H4   29  -0.436  -0.132  -0.133
    1UNL     H5   30  -0.245  -0.233  -0.265
    1UNL     H6   31  -0.222  -0.090  -0.341
    1UNL     H7   32   0.051  -0.338  -0.207
    1UNL     H8   33  -0.112  -0.214  -0.013
    1UNL     H9   34   0.023  -0.303   0.045
    1UNL    H10   35   0.117  -0.162   0.295
    1UNL    H11   36   0.302  -0.079   0.403
    1UNL    H12   37   0.497   0.029   0.286
    1UNL    H13   38   0.477   0.096   0.048
    1UNL    H14   39   0.304   0.083  -0.173
    1UNL    H15   40   0.084   0.012  -0.336
    1UNL    H16   41  -0.124   0.115  -0.299
    1UNL    H17   42  -0.019   0.197  -0.192
    1UNL    H18   43  -0.224   0.138  -0.073
    1UNL    H19   44  -0.126  -0.023   0.098
    1UNL    H20   45  -0.001   0.326   0.360
    1UNL    H21   46  -0.109   0.369   0.224
    1UNL    H22   47   0.072   0.338   0.186
   0.00000   0.00000   0.00000   0.00000   0.00000   0.00000   0.00000   0.00000   0.00000
Generated with MDTraj, t= 42.0
 47
    1UNL     C1    1  -0.416   0.015   0.033
    1UNL     C2    2  -0.356  -0.054  -0.076
    1UNL     C3    3  -0.238  -0.042  -0.135
    1UNL     C4    4  -0.194  -0.147  -0.239
    1UNL     N1    5  -0.044  -0.159  -0.261
    1UNL     C5    6   0.040  -0.239  -0.161
    1UNL     C6    7   0.000  -0.198  -0.018
    1UNL     C7    8   0.062  -0.054  -0.008
    1UNL     C8    9   0.170  -0.032   0.094
    1UNL     C9   10   0.176  -0.063   0.227
    1UNL    C10   11   0.294  -0.050   0.306
    1UNL    C11   12   0.397   0.014   0.242
    1UNL    C12   13   0.399   0.038   0.105
    1UNL    C13   14   0.290   0.013   0.023
    1UNL     N2   15   0.271   0.027  -0.112
    1UNL    C14   16   0.145  -0.049  -0.146
    1UNL     O1   17   0.173  -0.187  -0.178
    1UNL    C15   18   0.036  -0.022  -0.261
    1UNL    C16   19  -0.058   0.099  -0.236
    1UNL    C17   20  -0.149   0.074  -0.106
    1UNL    C18   21  -0.058   0.048   0.015
    1UNL    C19   22  -0.028   0.176   0.092
    1UNL     O2   23  -0.029   0.284   0.037
    1UNL     O3   24  -0.028   0.154   0.224
    1UNL    C20   25  -0.015   0.274   0.297
    1UNL     H1   26  -0.472  -0.053   0.092
    1UNL     H2   27  -0.336   0.074   0.084
    1UNL     H3   28  -0.477   0.101  -0.007
    1UNL     H4   29  -0.415  -0.135  -0.114
    1UNL     H5   30  -0.217  -0.250  -0.200
    1UNL     H6   31  -0.256  -0.149  -0.327
    1UNL     H7   32   0.038  -0.349  -0.182
    1UNL     H8   33  -0.109  -0.206   0.003
    1UNL     H9   34   0.054  -0.264   0.051
    1UNL    H10   35   0.088  -0.096   0.274
    1UNL    H11   36   0.289  -0.080   0.411
    1UNL    H12   37   0.487   0.033   0.305
    1UNL    H13   38   0.477   0.086   0.057
    1UNL    H14   39   0.340   0.020  -0.188
    1UNL    H15   40   0.073  -0.006  -0.356
    1UNL    H16   41  -0.126   0.112  -0.315
    1UNL    H17   42  -0.005   0.185  -0.213
    1UNL    H18   43  -0.212   0.159  -0.086
    1UNL    H19   44  -0.115  -0.010   0.090
    1UNL    H20   45  -0.000   0.251   0.401
    1UNL    H21   46  -0.112   0.334   0.289
    1UNL    H22   47   0.058   0.335   0.236
   0.00000   0.00000   0.00000   0.00000   0.00000   0.00000   0.00000   0.00000   0.00000
Generated with MDTraj, t= 43.0
 47
    1UNL     C1    1  -0.411   0.032   0.001
    1UNL     C2    2  -0.349  -0.068  -0.087
    1UNL     C3    3  -0.230  -0.052  -0.147
    1UNL     C4    4  -0.181  -0.151  -0.253
    1UNL     N1    5  -0.036  -0.157  -0.265
    1UNL     C5    6   0.038  -0.241  -0.157
    1UNL     C6    7  -0.012  -0.209  -0.009
    1UNL     C7    8   0.042  -0.060   0.006
    1UNL     C8    9   0.160  -0.024   0.097
    1UNL     C9   10   0.175  -0.039   0.231
    1UNL    C10   11   0.300  -0.027   0.294
    1UNL    C11   12   0.412   0.013   0.218
    1UNL    C12   13   0.396   0.051   0.088
    1UNL    C13   14   0.268   0.021   0.026
    1UNL     N2   15   0.240   0.036  -0.104
    1UNL    C14   16   0.126  -0.051  -0.136
    1UNL     O1   17   0.171  -0.185  -0.161
    1UNL    C15   18   0.032  -0.019  -0.255
    1UNL    C16   19  -0.045   0.104  -0.224
    1UNL    C17   20  -0.146   0.069  -0.112
    1UNL    C18   21  -0.077   0.044   0.026
    1UNL    C19   22  -0.036   0.163   0.100
    1UNL     O2   23  -0.007   0.268   0.042
    1UNL     O3   24  -0.037   0.144   0.239
    1UNL    C20   25   0.027   0.252   0.299
    1UNL     H1   26  -0.506   0.013   0.039
    1UNL     H2   27  -0.333   0.058   0.078
    1UNL     H3   28  -0.409   0.135  -0.048
    1UNL     H4   29  -0.412  -0.147  -0.118
    1UNL     H5   30  -0.227  -0.251  -0.230
    1UNL     H6   31  -0.219  -0.137  -0.354
    1UNL     H7   32   0.048  -0.351  -0.178
    1UNL     H8   33  -0.123  -0.211   0.004
    1UNL     H9   34   0.040  -0.261   0.072
    1UNL    H10   35   0.081  -0.047   0.287
    1UNL    H11   36   0.319  -0.034   0.398
    1UNL    H12   37   0.504   0.032   0.266
    1UNL    H13   38   0.477   0.109   0.036
    1UNL    H14   39   0.307   0.032  -0.181
    1UNL    H15   40   0.071   0.001  -0.349
    1UNL    H16   41  -0.104   0.140  -0.303
    1UNL    H17   42   0.022   0.173  -0.181
    1UNL    H18   43  -0.207   0.158  -0.100
    1UNL    H19   44  -0.142  -0.008   0.100
    1UNL    H20   45   0.006   0.249   0.404
    1UNL    H21   46  -0.017   0.345   0.255
    1UNL    H22   47   0.129   0.256   0.259
   0.00000   0.00000   0.00000   0.00000   0.00000   0.00000   0.00000   0.00000   0.00000
Generated with MDTraj, t= 44.0
 47
    1UNL     C1    1  -0.458   0.036  -0.022
    1UNL     C2    2  -0.381  -0.054  -0.113
    1UNL     C3    3  -0.250  -0.048  -0.141
    1UNL     C4    4  -0.200  -0.155  -0.233
    1UNL     N1    5  -0.054  -0.148  -0.248
    1UNL     C5    6   0.037  -0.237  -0.165
    1UNL     C6    7   0.008  -0.219  -0.015
    1UNL     C7    8   0.067  -0.079   0.008
    1UNL     C8    9   0.182  -0.056   0.094
    1UNL     C9   10   0.192  -0.090   0.231
    1UNL    C10   11   0.303  -0.043   0.299
    1UNL    C11   12   0.395   0.052   0.242
    1UNL    C12   13   0.369   0.091   0.113
    1UNL    C13   14   0.272   0.029   0.032
    1UNL     N2   15   0.244   0.044  -0.106
    1UNL    C14   16   0.135  -0.048  -0.136
    1UNL     O1   17   0.174  -0.179  -0.179
    1UNL    C15   18   0.022  -0.011  -0.247
    1UNL    C16   19  -0.063   0.110  -0.207
    1UNL    C17   20  -0.155   0.059  -0.088
    1UNL    C18   21  -0.048   0.027   0.032
    1UNL    C19   22  -0.005   0.156   0.092
    1UNL     O2   23   0.046   0.243   0.022
    1UNL     O3   24  -0.027   0.157   0.224
    1UNL    C20   25   0.018   0.278   0.279
    1UNL     H1   26  -0.560   0.025  -0.005
    1UNL     H2   27  -0.399   0.036   0.073
    1UNL     H3   28  -0.437   0.145  -0.047
    1UNL     H4   29  -0.445  -0.128  -0.172
    1UNL     H5   30  -0.231  -0.260  -0.202
    1UNL     H6   31  -0.254  -0.143  -0.324
    1UNL     H7   32   0.025  -0.341  -0.204
    1UNL     H8   33  -0.101  -0.209   0.005
    1UNL     H9   34   0.061  -0.293   0.048
    1UNL    H10   35   0.114  -0.141   0.286
    1UNL    H11   36   0.310  -0.077   0.403
    1UNL    H12   37   0.475   0.090   0.310
    1UNL    H13   38   0.435   0.163   0.071
    1UNL    H14   39   0.312   0.014  -0.174
    1UNL    H15   40   0.062   0.004  -0.342
    1UNL    H16   41  -0.118   0.142  -0.290
    1UNL    H17   42  -0.007   0.186  -0.160
    1UNL    H18   43  -0.216   0.141  -0.052
    1UNL    H19   44  -0.105  -0.029   0.108
    1UNL    H20   45  -0.013   0.285   0.381
    1UNL    H21   46  -0.030   0.352   0.213
    1UNL    H22   47   0.121   0.301   0.260
   0.00000   0.00000   0.00000   0.00000   0.00000   0.00000   0.00000   0.00000   0.00000
Generated with MDTraj, t= 45.0
 47
    1UNL     C1    1  -0.435   0.059  -0.022
    1UNL     C2    2  -0.373  -0.056  -0.095
    1UNL     C3    3  -0.241  -0.064  -0.122
    1UNL     C4    4  -0.187  -0.166  -0.222
    1UNL     N1    5  -0.048  -0.143  -0.258
    1UNL     C5    6   0.053  -0.237  -0.181
    1UNL     C6    7   0.023  -0.225  -0.025
    1UNL     C7    8   0.062  -0.078  -0.004
    1UNL     C8    9   0.174  -0.069   0.091
    1UNL     C9   10   0.178  -0.092   0.227
    1UNL    C10   11   0.278  -0.039   0.304
    1UNL    C11   12   0.378   0.040   0.247
    1UNL    C12   13   0.377   0.073   0.109
    1UNL    C13   14   0.277   0.020   0.031
    1UNL     N2   15   0.243   0.055  -0.100
    1UNL    C14   16   0.129  -0.039  -0.144
    1UNL     O1   17   0.178  -0.167  -0.200
    1UNL    C15   18   0.015  -0.006  -0.243
    1UNL    C16   19  -0.076   0.101  -0.193
    1UNL    C17   20  -0.156   0.046  -0.076
    1UNL    C18   21  -0.055   0.018   0.040
    1UNL    C19   22  -0.009   0.148   0.096
    1UNL     O2   23   0.037   0.236   0.024
    1UNL     O3   24  -0.030   0.179   0.232
    1UNL    C20   25   0.027   0.304   0.260
    1UNL     H1   26  -0.536   0.048   0.012
    1UNL     H2   27  -0.365   0.078   0.061
    1UNL     H3   28  -0.434   0.151  -0.085
    1UNL     H4   29  -0.437  -0.121  -0.137
    1UNL     H5   30  -0.204  -0.266  -0.172
    1UNL     H6   31  -0.248  -0.173  -0.309
    1UNL     H7   32   0.065  -0.343  -0.212
    1UNL     H8   33  -0.080  -0.258  -0.002
    1UNL     H9   34   0.096  -0.284   0.036
    1UNL    H10   35   0.102  -0.162   0.261
    1UNL    H11   36   0.274  -0.058   0.410
    1UNL    H12   37   0.458   0.062   0.310
    1UNL    H13   38   0.460   0.125   0.067
    1UNL    H14   39   0.312   0.070  -0.173
    1UNL    H15   40   0.056   0.013  -0.337
    1UNL    H16   41  -0.147   0.130  -0.264
    1UNL    H17   42  -0.017   0.182  -0.158
    1UNL    H18   43  -0.225   0.129  -0.047
    1UNL    H19   44  -0.107  -0.033   0.122
    1UNL    H20   45   0.029   0.313   0.366
    1UNL    H21   46  -0.041   0.373   0.205
    1UNL    H22   47   0.122   0.324   0.213
   0.00000   0.00000   0.00000   0.00000   0.00000   0.00000   0.00000   0.00000   0.00000
Generated with MDTraj, t= 46.0
 47
    1UNL     C1    1  -0.433   0.007   0.003
    1UNL     C2    2  -0.358  -0.073  -0.087
    1UNL     C3    3  -0.242  -0.049  -0.145
    1UNL     C4    4  -0.187  -0.145  -0.248
    1UNL     N1    5  -0.042  -0.149  -0.252
    1UNL     C5    6   0.033  -0.236  -0.155
    1UNL     C6    7  -0.006  -0.207  -0.009
    1UNL     C7    8   0.044  -0.062   0.003
    1UNL     C8    9   0.163  -0.026   0.105
    1UNL     C9   10   0.188  -0.071   0.232
    1UNL    C10   11   0.303  -0.038   0.302
    1UNL    C11   12   0.404   0.025   0.236
    1UNL    C12   13   0.393   0.049   0.093
    1UNL    C13   14   0.269   0.025   0.034
    1UNL     N2   15   0.241   0.048  -0.100
    1UNL    C14   16   0.127  -0.044  -0.135
    1UNL     O1   17   0.169  -0.182  -0.164
    1UNL    C15   18   0.033  -0.016  -0.251
    1UNL    C16   19  -0.056   0.108  -0.223
    1UNL    C17   20  -0.162   0.072  -0.112
    1UNL    C18   21  -0.072   0.041   0.017
    1UNL    C19   22  -0.021   0.166   0.087
    1UNL     O2   23   0.035   0.256   0.032
    1UNL     O3   24  -0.027   0.154   0.221
    1UNL    C20   25   0.020   0.269   0.283
    1UNL     H1   26  -0.540  -0.023   0.008
    1UNL     H2   27  -0.376  -0.003   0.097
    1UNL     H3   28  -0.434   0.110  -0.026
    1UNL     H4   29  -0.416  -0.162  -0.128
    1UNL     H5   30  -0.230  -0.249  -0.238
    1UNL     H6   31  -0.230  -0.108  -0.339
    1UNL     H7   32   0.014  -0.339  -0.188
    1UNL     H8   33  -0.113  -0.213   0.013
    1UNL     H9   34   0.049  -0.282   0.055
    1UNL    H10   35   0.110  -0.133   0.273
    1UNL    H11   36   0.315  -0.073   0.403
    1UNL    H12   37   0.498   0.056   0.285
    1UNL    H13   38   0.489   0.080   0.042
    1UNL    H14   39   0.313   0.050  -0.171
    1UNL    H15   40   0.095  -0.017  -0.335
    1UNL    H16   41  -0.110   0.129  -0.309
    1UNL    H17   42  -0.002   0.193  -0.191
    1UNL    H18   43  -0.233   0.158  -0.084
    1UNL    H19   44  -0.142  -0.003   0.090
    1UNL    H20   45   0.006   0.258   0.390
    1UNL    H21   46  -0.035   0.352   0.228
    1UNL    H22   47   0.126   0.291   0.267
   0.00000   0.00000   0.00000   0.00000   0.00000   0.00000   0.00000   0.00000   0.00000
Generated with MDTraj, t= 47.0
 47
    1UNL     C1    1  -0.396  -0.017   0.038
    1UNL     C2    2  -0.341  -0.075  -0.077
    1UNL     C3    3  -0.241  -0.037  -0.153
    1UNL     C4    4  -0.195  -0.137  -0.262
    1UNL     N1    5  -0.045  -0.147  -0.262
    1UNL     C5    6   0.026  -0.238  -0.162
    1UNL     C6    7  -0.006  -0.200  -0.014
    1UNL     C7    8   0.052  -0.054   0.002
    1UNL     C8    9   0.165  -0.028   0.100
    1UNL     C9   10   0.173  -0.078   0.233
    1UNL    C10   11   0.290  -0.039   0.302
    1UNL    C11   12   0.401   0.012   0.234
    1UNL    C12   13   0.398   0.038   0.097
    1UNL    C13   14   0.274   0.027   0.033
    1UNL     N2   15   0.259   0.026  -0.109
    1UNL    C14   16   0.133  -0.049  -0.140
    1UNL     O1   17   0.164  -0.191  -0.165
    1UNL    C15   18   0.029  -0.023  -0.260
    1UNL    C16   19  -0.044   0.101  -0.231
    1UNL    C17   20  -0.143   0.075  -0.120
    1UNL    C18   21  -0.062   0.048   0.018
    1UNL    C19   22  -0.040   0.179   0.094
    1UNL     O2   23  -0.015   0.282   0.043
    1UNL     O3   24  -0.038   0.167   0.231
    1UNL    C20   25   0.022   0.282   0.282
    1UNL     H1   26  -0.511  -0.031   0.049
    1UNL     H2   27  -0.339  -0.060   0.120
    1UNL     H3   28  -0.381   0.086   0.041
    1UNL     H4   29  -0.387  -0.167  -0.105
    1UNL     H5   30  -0.245  -0.232  -0.228
    1UNL     H6   31  -0.231  -0.121  -0.360
    1UNL     H7   32   0.026  -0.343  -0.190
    1UNL     H8   33  -0.114  -0.201   0.012
    1UNL     H9   34   0.038  -0.274   0.058
    1UNL    H10   35   0.092  -0.130   0.283
    1UNL    H11   36   0.284  -0.045   0.413
    1UNL    H12   37   0.489   0.030   0.293
    1UNL    H13   38   0.485   0.076   0.055
    1UNL    H14   39   0.341   0.007  -0.166
    1UNL    H15   40   0.091  -0.021  -0.343
    1UNL    H16   41  -0.099   0.128  -0.317
    1UNL    H17   42   0.018   0.184  -0.207
    1UNL    H18   43  -0.206   0.172  -0.101
    1UNL    H19   44  -0.141   0.005   0.081
    1UNL    H20   45   0.025   0.282   0.391
    1UNL    H21   46  -0.026   0.369   0.224
    1UNL    H22   47   0.129   0.282   0.256
   0.00000   0.00000   0.00000   0.00000   0.00000   0.00000   0.00000   0.00000   0.00000
Generated with MDTraj, t= 48.0
 47
    1UNL     C1    1  -0.393   0.005   0.050
    1UNL     C2    2  -0.346  -0.079  -0.063
    1UNL     C3    3  -0.238  -0.053  -0.134
    1UNL     C4    4  -0.187  -0.145  -0.241
    1UNL     N1    5  -0.041  -0.144  -0.266
    1UNL     C5    6   0.043  -0.234  -0.183
    1UNL     C6    7   0.001  -0.216  -0.035
    1UNL     C7    8   0.054  -0.072  -0.005
    1UNL     C8    9   0.160  -0.056   0.100
    1UNL     C9   10   0.162  -0.079   0.236
    1UNL    C10   11   0.269  -0.037   0.312
    1UNL    C11   12   0.385   0.007   0.250
    1UNL    C12   13   0.385   0.037   0.118
    1UNL    C13   14   0.272   0.019   0.041
    1UNL     N2   15   0.240   0.037  -0.098
    1UNL    C14   16   0.126  -0.041  -0.143
    1UNL     O1   17   0.169  -0.170  -0.194
    1UNL    C15   18   0.024  -0.003  -0.259
    1UNL    C16   19  -0.064   0.111  -0.226
    1UNL    C17   20  -0.151   0.066  -0.107
    1UNL    C18   21  -0.057   0.036   0.026
    1UNL    C19   22  -0.011   0.166   0.087
    1UNL     O2   23   0.001   0.263   0.018
    1UNL     O3   24   0.013   0.175   0.227
    1UNL    C20   25  -0.000   0.309   0.260
    1UNL     H1   26  -0.470   0.089   0.026
    1UNL     H2   27  -0.417  -0.058   0.134
    1UNL     H3   28  -0.309   0.057   0.086
    1UNL     H4   29  -0.401  -0.165  -0.087
    1UNL     H5   30  -0.206  -0.253  -0.216
    1UNL     H6   31  -0.247  -0.124  -0.326
    1UNL     H7   32   0.043  -0.335  -0.222
    1UNL     H8   33  -0.108  -0.228  -0.010
    1UNL     H9   34   0.052  -0.295   0.025
    1UNL    H10   35   0.065  -0.106   0.275
    1UNL    H11   36   0.266  -0.037   0.417
    1UNL    H12   37   0.474   0.023   0.308
    1UNL    H13   38   0.470   0.076   0.057
    1UNL    H14   39   0.318   0.032  -0.164
    1UNL    H15   40   0.080   0.008  -0.346
    1UNL    H16   41  -0.119   0.155  -0.306
    1UNL    H17   42  -0.004   0.193  -0.195
    1UNL    H18   43  -0.226   0.155  -0.083
    1UNL    H19   44  -0.130  -0.002   0.099
    1UNL    H20   45   0.034   0.342   0.358
    1UNL    H21   46  -0.110   0.331   0.234
    1UNL    H22   47   0.067   0.359   0.189
   0.00000   0.00000   0.00000   0.00000   0.00000   0.00000   0.00000   0.00000   0.00000
Generated with MDTraj, t= 49.0
 47
    1UNL     C1    1  -0.435  -0.013   0.022
    1UNL     C2    2  -0.357  -0.090  -0.082
    1UNL     C3    3  -0.245  -0.055  -0.138
    1UNL     C4    4  -0.196  -0.143  -0.248
    1UNL     N1    5  -0.047  -0.138  -0.259
    1UNL     C5    6   0.035  -0.226  -0.174
    1UNL     C6    7   0.003  -0.206  -0.021
    1UNL     C7    8   0.051  -0.063  -0.001
    1UNL     C8    9   0.169  -0.054   0.102
    1UNL     C9   10   0.182  -0.104   0.229
    1UNL    C10   11   0.296  -0.074   0.299
    1UNL    C11   12   0.376   0.033   0.255
    1UNL    C12   13   0.371   0.079   0.127
    1UNL    C13   14   0.270   0.023   0.046
    1UNL     N2   15   0.244   0.047  -0.093
    1UNL    C14   16   0.130  -0.036  -0.136
    1UNL     O1   17   0.169  -0.174  -0.179
    1UNL    C15   18   0.022   0.001  -0.251
    1UNL    C16   19  -0.079   0.104  -0.209
    1UNL    C17   20  -0.162   0.063  -0.088
    1UNL    C18   21  -0.061   0.040   0.032
    1UNL    C19   22  -0.009   0.171   0.079
    1UNL     O2   23   0.050   0.243   0.004
    1UNL     O3   24  -0.030   0.195   0.211
    1UNL    C20   25   0.059   0.291   0.250
    1UNL     H1   26  -0.425   0.098   0.015
    1UNL     H2   27  -0.536  -0.050   0.040
    1UNL     H3   28  -0.385  -0.038   0.117
    1UNL     H4   29  -0.408  -0.185  -0.121
    1UNL     H5   30  -0.239  -0.245  -0.227
    1UNL     H6   31  -0.223  -0.107  -0.345
    1UNL     H7   32   0.038  -0.328  -0.213
    1UNL     H8   33  -0.106  -0.218   0.004
    1UNL     H9   34   0.068  -0.279   0.035
    1UNL    H10   35   0.107  -0.164   0.276
    1UNL    H11   36   0.330  -0.130   0.391
    1UNL    H12   37   0.459   0.079   0.314
    1UNL    H13   38   0.446   0.132   0.076
    1UNL    H14   39   0.323   0.048  -0.159
    1UNL    H15   40   0.065   0.017  -0.345
    1UNL    H16   41  -0.147   0.132  -0.288
    1UNL    H17   42  -0.035   0.199  -0.193
    1UNL    H18   43  -0.231   0.157  -0.061
    1UNL    H19   44  -0.125  -0.001   0.111
    1UNL    H20   45   0.107   0.277   0.347
    1UNL    H21   46   0.007   0.390   0.251
    1UNL    H22   47   0.144   0.285   0.183
   0.00000   0.00000   0.00000   0.00000   0.00000   0.00000   0.00000   0.00000   0.00000
Generated with MDTraj, t= 50.0
 47
    1UNL     C1    1  -0.432  -0.001   0.011
    1UNL     C2    2  -0.357  -0.087  -0.095
    1UNL     C3    3  -0.237  -0.062  -0.138
    1UNL     C4    4  -0.182  -0.146  -0.253
    1UNL     N1    5  -0.039  -0.141  -0.252
    1UNL     C5    6   0.042  -0.233  -0.160
    1UNL     C6    7  -0.002  -0.213  -0.015
    1UNL     C7    8   0.040  -0.062   0.001
    1UNL     C8    9   0.163  -0.052   0.095
    1UNL     C9   10   0.169  -0.079   0.231
    1UNL    C10   11   0.294  -0.058   0.302
    1UNL    C11   12   0.393   0.014   0.234
    1UNL    C12   13   0.382   0.062   0.105
    1UNL    C13   14   0.267   0.019   0.032
    1UNL     N2   15   0.228   0.057  -0.103
    1UNL    C14   16   0.125  -0.027  -0.129
    1UNL     O1   17   0.171  -0.165  -0.167
    1UNL    C15   18   0.024  -0.004  -0.251
    1UNL    C16   19  -0.068   0.107  -0.213
    1UNL    C17   20  -0.163   0.062  -0.092
    1UNL    C18   21  -0.074   0.038   0.035
    1UNL    C19   22  -0.019   0.167   0.089
    1UNL     O2   23   0.021   0.253   0.012
    1UNL     O3   24  -0.004   0.173   0.225
    1UNL    C20   25   0.063   0.285   0.264
    1UNL     H1   26  -0.413   0.102   0.013
    1UNL     H2   27  -0.538  -0.024   0.030
    1UNL     H3   28  -0.388  -0.034   0.111
    1UNL     H4   29  -0.401  -0.170  -0.131
    1UNL     H5   30  -0.204  -0.256  -0.246
    1UNL     H6   31  -0.219  -0.103  -0.344
    1UNL     H7   32   0.046  -0.339  -0.192
    1UNL     H8   33  -0.113  -0.230  -0.003
    1UNL     H9   34   0.061  -0.276   0.054
    1UNL    H10   35   0.094  -0.124   0.296
    1UNL    H11   36   0.308  -0.073   0.404
    1UNL    H12   37   0.483   0.027   0.283
    1UNL    H13   38   0.463   0.120   0.056
    1UNL    H14   39   0.299   0.056  -0.179
    1UNL    H15   40   0.080   0.019  -0.337
    1UNL    H16   41  -0.131   0.133  -0.296
    1UNL    H17   42  -0.023   0.200  -0.192
    1UNL    H18   43  -0.233   0.154  -0.065
    1UNL    H19   44  -0.138  -0.007   0.112
    1UNL    H20   45   0.012   0.356   0.330
    1UNL    H21   46   0.081   0.356   0.180
    1UNL    H22   47   0.150   0.252   0.316
   0.00000   0.00000   0.00000   0.00000   0.00000   0.00000   0.00000   0.00000   0.00000
Generated with MDTraj, t= 51.0
 47
    1UNL     C1    1  -0.419   0.020   0.024
    1UNL     C2    2  -0.356  -0.067  -0.080
    1UNL     C3    3  -0.240  -0.046  -0.139
    1UNL     C4    4  -0.186  -0.148  -0.233
    1UNL     N1    5  -0.043  -0.146  -0.257
    1UNL     C5    6   0.043  -0.236  -0.168
    1UNL     C6    7   0.008  -0.209  -0.017
    1UNL     C7    8   0.059  -0.062   0.001
    1UNL     C8    9   0.170  -0.047   0.100
    1UNL     C9   10   0.174  -0.073   0.230
    1UNL    C10   11   0.285  -0.041   0.299
    1UNL    C11   12   0.395   0.004   0.234
    1UNL    C12   13   0.400   0.036   0.102
    1UNL    C13   14   0.290   0.005   0.031
    1UNL     N2   15   0.259   0.030  -0.107
    1UNL    C14   16   0.134  -0.040  -0.138
    1UNL     O1   17   0.173  -0.176  -0.175
    1UNL    C15   18   0.028  -0.009  -0.257
    1UNL    C16   19  -0.065   0.107  -0.227
    1UNL    C17   20  -0.149   0.068  -0.105
    1UNL    C18   21  -0.058   0.043   0.018
    1UNL    C19   22  -0.034   0.173   0.089
    1UNL     O2   23  -0.079   0.277   0.041
    1UNL     O3   24   0.022   0.163   0.215
    1UNL    C20   25   0.020   0.284   0.280
    1UNL     H1   26  -0.497   0.080  -0.006
    1UNL     H2   27  -0.444  -0.045   0.111
    1UNL     H3   28  -0.336   0.084   0.069
    1UNL     H4   29  -0.421  -0.159  -0.099
    1UNL     H5   30  -0.226  -0.247  -0.199
    1UNL     H6   31  -0.224  -0.129  -0.332
    1UNL     H7   32   0.043  -0.345  -0.199
    1UNL     H8   33  -0.103  -0.212  -0.018
    1UNL     H9   34   0.054  -0.286   0.053
    1UNL    H10   35   0.085  -0.109   0.278
    1UNL    H11   36   0.283  -0.043   0.411
    1UNL    H12   37   0.488   0.036   0.290
    1UNL    H13   38   0.475   0.081   0.039
    1UNL    H14   39   0.333   0.001  -0.173
    1UNL    H15   40   0.067   0.006  -0.355
    1UNL    H16   41  -0.128   0.140  -0.308
    1UNL    H17   42  -0.012   0.191  -0.190
    1UNL    H18   43  -0.218   0.159  -0.082
    1UNL    H19   44  -0.125  -0.013   0.087
    1UNL    H20   45  -0.060   0.352   0.250
    1UNL    H21   46   0.104   0.351   0.252
    1UNL    H22   47   0.025   0.270   0.384
   0.00000   0.00000   0.00000   0.00000   0.00000   0.00000   0.00000   0.00000   0.00000
Generated with MDTraj, t= 52.0
 47
    1UNL     C1    1  -0.399   0.021   0.020
    1UNL     C2    2  -0.349  -0.055  -0.087
    1UNL     C3    3  -0.238  -0.032  -0.150
    1UNL     C4    4  -0.182  -0.136  -0.249
    1UNL     N1    5  -0.038  -0.152  -0.259
    1UNL     C5    6   0.031  -0.243  -0.161
    1UNL     C6    7  -0.013  -0.204  -0.014
    1UNL     C7    8   0.052  -0.062   0.004
    1UNL     C8    9   0.165  -0.029   0.104
    1UNL     C9   10   0.190  -0.085   0.232
    1UNL    C10   11   0.308  -0.055   0.290
    1UNL    C11   12   0.407   0.017   0.225
    1UNL    C12   13   0.393   0.057   0.096
    1UNL    C13   14   0.270   0.028   0.032
    1UNL     N2   15   0.248   0.029  -0.112
    1UNL    C14   16   0.137  -0.055  -0.137
    1UNL     O1   17   0.170  -0.195  -0.163
    1UNL    C15   18   0.041  -0.023  -0.254
    1UNL    C16   19  -0.047   0.099  -0.239
    1UNL    C17   20  -0.142   0.069  -0.113
    1UNL    C18   21  -0.071   0.040   0.022
    1UNL    C19   22  -0.051   0.170   0.102
    1UNL     O2   23  -0.097   0.274   0.055
    1UNL     O3   24   0.010   0.162   0.223
    1UNL    C20   25   0.033   0.284   0.288
    1UNL     H1   26  -0.504   0.005   0.038
    1UNL     H2   27  -0.339  -0.011   0.109
    1UNL     H3   28  -0.383   0.128   0.004
    1UNL     H4   29  -0.405  -0.145  -0.103
    1UNL     H5   30  -0.217  -0.238  -0.224
    1UNL     H6   31  -0.230  -0.116  -0.344
    1UNL     H7   32   0.020  -0.352  -0.191
    1UNL     H8   33  -0.123  -0.218  -0.000
    1UNL     H9   34   0.038  -0.271   0.063
    1UNL    H10   35   0.115  -0.144   0.285
    1UNL    H11   36   0.324  -0.078   0.392
    1UNL    H12   37   0.497   0.039   0.271
    1UNL    H13   38   0.470   0.110   0.044
    1UNL    H14   39   0.336   0.008  -0.161
    1UNL    H15   40   0.092  -0.020  -0.347
    1UNL    H16   41  -0.112   0.114  -0.324
    1UNL    H17   42   0.009   0.187  -0.215
    1UNL    H18   43  -0.208   0.163  -0.106
    1UNL    H19   44  -0.140  -0.017   0.087
    1UNL    H20   45  -0.038   0.360   0.259
    1UNL    H21   46   0.132   0.337   0.282
    1UNL    H22   47   0.020   0.272   0.391
   0.00000   0.00000   0.00000   0.00000   0.00000   0.00000   0.00000   0.00000   0.00000
Generated with MDTraj, t= 53.0
 47
    1UNL     C1    1  -0.439   0.027  -0.004
    1UNL     C2    2  -0.365  -0.062  -0.091
    1UNL     C3    3  -0.241  -0.064  -0.137
    1UNL     C4    4  -0.184  -0.158  -0.250
    1UNL     N1    5  -0.037  -0.146  -0.258
    1UNL     C5    6   0.041  -0.236  -0.164
    1UNL     C6    7   0.002  -0.213  -0.017
    1UNL     C7    8   0.044  -0.064   0.007
    1UNL     C8    9   0.162  -0.031   0.102
    1UNL     C9   10   0.178  -0.078   0.233
    1UNL    C10   11   0.294  -0.044   0.295
    1UNL    C11   12   0.401   0.019   0.231
    1UNL    C12   13   0.387   0.058   0.101
    1UNL    C13   14   0.263   0.036   0.040
    1UNL     N2   15   0.241   0.050  -0.101
    1UNL    C14   16   0.132  -0.041  -0.137
    1UNL     O1   17   0.173  -0.175  -0.164
    1UNL    C15   18   0.025  -0.014  -0.254
    1UNL    C16   19  -0.067   0.102  -0.225
    1UNL    C17   20  -0.159   0.064  -0.108
    1UNL    C18   21  -0.073   0.037   0.019
    1UNL    C19   22  -0.023   0.163   0.093
    1UNL     O2   23  -0.020   0.266   0.029
    1UNL     O3   24   0.020   0.153   0.224
    1UNL    C20   25   0.055   0.272   0.293
    1UNL     H1   26  -0.515  -0.027   0.058
    1UNL     H2   27  -0.367   0.068   0.065
    1UNL     H3   28  -0.490   0.104  -0.053
    1UNL     H4   29  -0.430  -0.141  -0.120
    1UNL     H5   30  -0.226  -0.259  -0.237
    1UNL     H6   31  -0.222  -0.130  -0.348
    1UNL     H7   32   0.049  -0.343  -0.197
    1UNL     H8   33  -0.106  -0.236   0.004
    1UNL     H9   34   0.055  -0.285   0.053
    1UNL    H10   35   0.102  -0.130   0.293
    1UNL    H11   36   0.317  -0.069   0.399
    1UNL    H12   37   0.498   0.014   0.284
    1UNL    H13   38   0.474   0.095   0.043
    1UNL    H14   39   0.322   0.029  -0.159
    1UNL    H15   40   0.087   0.003  -0.339
    1UNL    H16   41  -0.128   0.110  -0.315
    1UNL    H17   42  -0.022   0.196  -0.192
    1UNL    H18   43  -0.229   0.153  -0.090
    1UNL    H19   44  -0.133  -0.008   0.100
    1UNL    H20   45  -0.033   0.308   0.348
    1UNL    H21   46   0.105   0.361   0.242
    1UNL    H22   47   0.121   0.249   0.373
   0.00000   0.00000   0.00000   0.00000   0.00000   0.00000   0.00000   0.00000   0.00000
Generated with MDTraj, t= 54.0
 47
    1UNL     C1    1  -0.463   0.024  -0.013
    1UNL     C2    2  -0.385  -0.072  -0.093
    1UNL     C3    3  -0.258  -0.056  -0.129
    1UNL     C4    4  -0.192  -0.151  -0.229
    1UNL     N1    5  -0.049  -0.135  -0.263
    1UNL     C5    6   0.047  -0.223  -0.181
    1UNL     C6    7   0.021  -0.217  -0.029
    1UNL     C7    8   0.064  -0.074   0.001
    1UNL     C8    9   0.174  -0.060   0.097
    1UNL     C9   10   0.182  -0.093   0.229
    1UNL    C10   11   0.282  -0.047   0.307
    1UNL    C11   12   0.377   0.033   0.250
    1UNL    C12   13   0.380   0.070   0.117
    1UNL    C13   14   0.278   0.025   0.035
    1UNL     N2   15   0.246   0.052  -0.099
    1UNL    C14   16   0.131  -0.031  -0.138
    1UNL     O1   17   0.179  -0.160  -0.188
    1UNL    C15   18   0.024  -0.003  -0.243
    1UNL    C16   19  -0.081   0.100  -0.199
    1UNL    C17   20  -0.165   0.051  -0.072
    1UNL    C18   21  -0.060   0.018   0.039
    1UNL    C19   22  -0.005   0.156   0.090
    1UNL     O2   23   0.052   0.221   0.004
    1UNL     O3   24  -0.029   0.190   0.220
    1UNL    C20   25   0.057   0.293   0.263
    1UNL     H1   26  -0.577   0.006  -0.006
    1UNL     H2   27  -0.418   0.022   0.082
    1UNL     H3   28  -0.448   0.122  -0.045
    1UNL     H4   29  -0.440  -0.165  -0.127
    1UNL     H5   30  -0.213  -0.257  -0.204
    1UNL     H6   31  -0.256  -0.141  -0.318
    1UNL     H7   32   0.053  -0.324  -0.225
    1UNL     H8   33  -0.086  -0.238   0.003
    1UNL     H9   34   0.087  -0.284   0.031
    1UNL    H10   35   0.096  -0.142   0.267
    1UNL    H11   36   0.291  -0.079   0.412
    1UNL    H12   37   0.463   0.064   0.309
    1UNL    H13   38   0.471   0.107   0.076
    1UNL    H14   39   0.329   0.025  -0.152
    1UNL    H15   40   0.078   0.014  -0.335
    1UNL    H16   41  -0.160   0.114  -0.273
    1UNL    H17   42  -0.033   0.195  -0.171
    1UNL    H18   43  -0.232   0.138  -0.042
    1UNL    H19   44  -0.106  -0.033   0.125
    1UNL    H20   45   0.044   0.315   0.372
    1UNL    H21   46   0.059   0.386   0.197
    1UNL    H22   47   0.162   0.267   0.264
   0.00000   0.00000   0.00000   0.00000   0.00000   0.00000   0.00000   0.00000   0.00000
Generated with MDTraj, t= 55.0
 47
    1UNL     C1    1  -0.435   0.013   0.027
    1UNL     C2    2  -0.362  -0.065  -0.086
    1UNL     C3    3  -0.237  -0.046  -0.135
    1UNL     C4    4  -0.191  -0.143  -0.240
    1UNL     N1    5  -0.043  -0.142  -0.262
    1UNL     C5    6   0.044  -0.239  -0.178
    1UNL     C6    7  -0.009  -0.220  -0.033
    1UNL     C7    8   0.047  -0.076  -0.003
    1UNL     C8    9   0.173  -0.071   0.087
    1UNL     C9   10   0.185  -0.100   0.224
    1UNL    C10   11   0.294  -0.049   0.298
    1UNL    C11   12   0.385   0.040   0.247
    1UNL    C12   13   0.376   0.071   0.113
    1UNL    C13   14   0.276   0.011   0.034
    1UNL     N2   15   0.237   0.049  -0.099
    1UNL    C14   16   0.125  -0.048  -0.139
    1UNL     O1   17   0.176  -0.179  -0.181
    1UNL    C15   18   0.027  -0.004  -0.248
    1UNL    C16   19  -0.063   0.116  -0.208
    1UNL    C17   20  -0.148   0.065  -0.093
    1UNL    C18   21  -0.063   0.033   0.031
    1UNL    C19   22  -0.004   0.158   0.091
    1UNL     O2   23   0.069   0.224   0.020
    1UNL     O3   24  -0.027   0.184   0.229
    1UNL    C20   25  -0.002   0.316   0.263
    1UNL     H1   26  -0.547  -0.008   0.040
    1UNL     H2   27  -0.381  -0.011   0.113
    1UNL     H3   28  -0.418   0.117   0.016
    1UNL     H4   29  -0.413  -0.145  -0.120
    1UNL     H5   30  -0.233  -0.243  -0.220
    1UNL     H6   31  -0.241  -0.122  -0.336
    1UNL     H7   32   0.052  -0.343  -0.210
    1UNL     H8   33  -0.122  -0.217  -0.024
    1UNL     H9   34   0.030  -0.301   0.035
    1UNL    H10   35   0.113  -0.158   0.280
    1UNL    H11   36   0.287  -0.065   0.401
    1UNL    H12   37   0.461   0.079   0.307
    1UNL    H13   38   0.450   0.136   0.062
    1UNL    H14   39   0.189   0.138  -0.112
    1UNL    H15   40   0.091   0.011  -0.336
    1UNL    H16   41  -0.127   0.148  -0.290
    1UNL    H17   42  -0.017   0.205  -0.159
    1UNL    H18   43  -0.219   0.149  -0.066
    1UNL    H19   44  -0.127  -0.009   0.110
    1UNL    H20   45  -0.004   0.312   0.375
    1UNL    H21   46  -0.080   0.386   0.216
    1UNL    H22   47   0.094   0.357   0.240
   0.00000   0.00000   0.00000   0.00000   0.00000   0.00000   0.00000   0.00000   0.00000
Generated with MDTraj, t= 56.0
 47
    1UNL     C1    1  -0.386   0.009   0.059
    1UNL     C2    2  -0.336  -0.072  -0.055
    1UNL     C3    3  -0.240  -0.037  -0.141
    1UNL     C4    4  -0.199  -0.138  -0.245
    1UNL     N1    5  -0.049  -0.144  -0.271
    1UNL     C5    6   0.032  -0.234  -0.175
    1UNL     C6    7  -0.007  -0.204  -0.028
    1UNL     C7    8   0.058  -0.062  -0.005
    1UNL     C8    9   0.170  -0.041   0.095
    1UNL     C9   10   0.171  -0.071   0.229
    1UNL    C10   11   0.292  -0.050   0.300
    1UNL    C11   12   0.404   0.004   0.240
    1UNL    C12   13   0.399   0.040   0.106
    1UNL    C13   14   0.280   0.009   0.032
    1UNL     N2   15   0.263   0.024  -0.104
    1UNL    C14   16   0.140  -0.045  -0.141
    1UNL     O1   17   0.170  -0.190  -0.180
    1UNL    C15   18   0.035  -0.014  -0.259
    1UNL    C16   19  -0.046   0.107  -0.227
    1UNL    C17   20  -0.145   0.077  -0.110
    1UNL    C18   21  -0.064   0.041   0.022
    1UNL    C19   22  -0.031   0.177   0.088
    1UNL     O2   23   0.016   0.264   0.019
    1UNL     O3   24  -0.066   0.171   0.220
    1UNL    C20   25  -0.031   0.294   0.286
    1UNL     H1   26  -0.438  -0.042   0.142
    1UNL     H2   27  -0.300   0.058   0.099
    1UNL     H3   28  -0.437   0.100   0.025
    1UNL     H4   29  -0.377  -0.179  -0.065
    1UNL     H5   30  -0.230  -0.240  -0.221
    1UNL     H6   31  -0.256  -0.124  -0.340
    1UNL     H7   32   0.034  -0.339  -0.200
    1UNL     H8   33  -0.116  -0.185  -0.017
    1UNL     H9   34   0.026  -0.284   0.046
    1UNL    H10   35   0.084  -0.105   0.284
    1UNL    H11   36   0.300  -0.061   0.414
    1UNL    H12   37   0.488   0.037   0.308
    1UNL    H13   38   0.486   0.089   0.074
    1UNL    H14   39   0.337   0.012  -0.173
    1UNL    H15   40   0.098  -0.003  -0.349
    1UNL    H16   41  -0.111   0.149  -0.304
    1UNL    H17   42   0.021   0.188  -0.190
    1UNL    H18   43  -0.214   0.162  -0.085
    1UNL    H19   44  -0.131  -0.018   0.086
    1UNL    H20   45  -0.066   0.290   0.393
    1UNL    H21   46  -0.067   0.382   0.228
    1UNL    H22   47   0.073   0.305   0.296
   0.00000   0.00000   0.00000   0.00000   0.00000   0.00000   0.00000   0.00000   0.00000
Generated with MDTraj, t= 57.0
 47
    1UNL     C1    1  -0.402   0.001   0.033
    1UNL     C2    2  -0.359  -0.071  -0.080
    1UNL     C3    3  -0.243  -0.050  -0.147
    1UNL     C4    4  -0.195  -0.142  -0.256
    1UNL     N1    5  -0.042  -0.158  -0.266
    1UNL     C5    6   0.037  -0.236  -0.159
    1UNL     C6    7  -0.013  -0.202  -0.012
    1UNL     C7    8   0.052  -0.054  -0.006
    1UNL     C8    9   0.167  -0.025   0.098
    1UNL     C9   10   0.175  -0.047   0.233
    1UNL    C10   11   0.292  -0.035   0.300
    1UNL    C11   12   0.407  -0.012   0.224
    1UNL    C12   13   0.403   0.021   0.093
    1UNL    C13   14   0.286   0.023   0.025
    1UNL     N2   15   0.263   0.035  -0.111
    1UNL    C14   16   0.130  -0.045  -0.142
    1UNL     O1   17   0.168  -0.180  -0.168
    1UNL    C15   18   0.028  -0.018  -0.263
    1UNL    C16   19  -0.046   0.107  -0.226
    1UNL    C17   20  -0.148   0.072  -0.112
    1UNL    C18   21  -0.064   0.047   0.024
    1UNL    C19   22  -0.020   0.170   0.098
    1UNL     O2   23   0.037   0.256   0.038
    1UNL     O3   24  -0.058   0.171   0.235
    1UNL    C20   25  -0.029   0.294   0.300
    1UNL     H1   26  -0.351  -0.025   0.118
    1UNL     H2   27  -0.392   0.110   0.011
    1UNL     H3   28  -0.513   0.003   0.047
    1UNL     H4   29  -0.411  -0.159  -0.102
    1UNL     H5   30  -0.236  -0.242  -0.239
    1UNL     H6   31  -0.236  -0.116  -0.356
    1UNL     H7   32   0.043  -0.340  -0.187
    1UNL     H8   33  -0.123  -0.200   0.005
    1UNL     H9   34   0.041  -0.276   0.056
    1UNL    H10   35   0.081  -0.078   0.275
    1UNL    H11   36   0.293  -0.052   0.402
    1UNL    H12   37   0.498  -0.020   0.269
    1UNL    H13   38   0.495   0.052   0.039
    1UNL    H14   39   0.328  -0.006  -0.176
    1UNL    H15   40   0.078  -0.006  -0.364
    1UNL    H16   41  -0.106   0.152  -0.307
    1UNL    H17   42   0.018   0.189  -0.184
    1UNL    H18   43  -0.208   0.163  -0.084
    1UNL    H19   44  -0.124  -0.008   0.099
    1UNL    H20   45  -0.057   0.272   0.405
    1UNL    H21   46  -0.084   0.380   0.257
    1UNL    H22   47   0.073   0.308   0.302
   0.00000   0.00000   0.00000   0.00000   0.00000   0.00000   0.00000   0.00000   0.00000
Generated with MDTraj, t= 58.0
 47
    1UNL     C1    1  -0.440   0.031  -0.000
    1UNL     C2    2  -0.371  -0.058  -0.090
    1UNL     C3    3  -0.243  -0.052  -0.131
    1UNL     C4    4  -0.195  -0.143  -0.250
    1UNL     N1    5  -0.045  -0.150  -0.264
    1UNL     C5    6   0.033  -0.237  -0.173
    1UNL     C6    7  -0.003  -0.213  -0.020
    1UNL     C7    8   0.056  -0.071   0.006
    1UNL     C8    9   0.175  -0.053   0.099
    1UNL     C9   10   0.198  -0.100   0.231
    1UNL    C10   11   0.308  -0.043   0.303
    1UNL    C11   12   0.399   0.039   0.238
    1UNL    C12   13   0.393   0.058   0.103
    1UNL    C13   14   0.280   0.019   0.033
    1UNL     N2   15   0.250   0.040  -0.101
    1UNL    C14   16   0.136  -0.047  -0.136
    1UNL     O1   17   0.172  -0.187  -0.187
    1UNL    C15   18   0.030  -0.015  -0.245
    1UNL    C16   19  -0.053   0.108  -0.206
    1UNL    C17   20  -0.156   0.063  -0.091
    1UNL    C18   21  -0.067   0.033   0.039
    1UNL    C19   22  -0.019   0.167   0.095
    1UNL     O2   23   0.038   0.241   0.018
    1UNL     O3   24  -0.050   0.181   0.228
    1UNL    C20   25   0.004   0.299   0.279
    1UNL     H1   26  -0.374   0.097   0.044
    1UNL     H2   27  -0.522   0.082  -0.060
    1UNL     H3   28  -0.498  -0.030   0.070
    1UNL     H4   29  -0.425  -0.138  -0.140
    1UNL     H5   30  -0.233  -0.243  -0.249
    1UNL     H6   31  -0.234  -0.102  -0.348
    1UNL     H7   32   0.024  -0.343  -0.196
    1UNL     H8   33  -0.113  -0.226  -0.003
    1UNL     H9   34   0.055  -0.287   0.045
    1UNL    H10   35   0.128  -0.174   0.269
    1UNL    H11   36   0.317  -0.080   0.409
    1UNL    H12   37   0.492   0.062   0.300
    1UNL    H13   38   0.467   0.118   0.060
    1UNL    H14   39   0.306   0.071  -0.178
    1UNL    H15   40   0.082  -0.000  -0.346
    1UNL    H16   41  -0.121   0.134  -0.290
    1UNL    H17   42   0.008   0.199  -0.178
    1UNL    H18   43  -0.226   0.150  -0.073
    1UNL    H19   44  -0.138  -0.021   0.104
    1UNL    H20   45  -0.021   0.293   0.387
    1UNL    H21   46  -0.038   0.390   0.234
    1UNL    H22   47   0.105   0.288   0.266
   0.00000   0.00000   0.00000   0.00000   0.00000   0.00000   0.00000   0.00000   0.00000
Generated with MDTraj, t= 59.0
 47
    1UNL     C1    1  -0.445   0.045  -0.010
    1UNL     C2    2  -0.373  -0.056  -0.089
    1UNL     C3    3  -0.246  -0.051  -0.134
    1UNL     C4    4  -0.192  -0.160  -0.219
    1UNL     N1    5  -0.049  -0.144  -0.257
    1UNL     C5    6   0.052  -0.236  -0.172
    1UNL     C6    7   0.020  -0.222  -0.019
    1UNL     C7    8   0.053  -0.075  -0.002
    1UNL     C8    9   0.170  -0.055   0.092
    1UNL     C9   10   0.179  -0.097   0.223
    1UNL    C10   11   0.282  -0.052   0.300
    1UNL    C11   12   0.376   0.041   0.254
    1UNL    C12   13   0.372   0.067   0.112
    1UNL    C13   14   0.261   0.029   0.036
    1UNL     N2   15   0.233   0.067  -0.095
    1UNL    C14   16   0.132  -0.039  -0.144
    1UNL     O1   17   0.182  -0.174  -0.185
    1UNL    C15   18   0.020  -0.009  -0.254
    1UNL    C16   19  -0.070   0.106  -0.213
    1UNL    C17   20  -0.152   0.062  -0.086
    1UNL    C18   21  -0.059   0.023   0.037
    1UNL    C19   22  -0.005   0.151   0.088
    1UNL     O2   23   0.053   0.229   0.011
    1UNL     O3   24  -0.014   0.166   0.228
    1UNL    C20   25   0.034   0.294   0.269
    1UNL     H1   26  -0.373   0.085   0.067
    1UNL     H2   27  -0.480   0.130  -0.071
    1UNL     H3   28  -0.536   0.012   0.037
    1UNL     H4   29  -0.428  -0.148  -0.122
    1UNL     H5   30  -0.205  -0.250  -0.164
    1UNL     H6   31  -0.258  -0.170  -0.309
    1UNL     H7   32   0.044  -0.340  -0.212
    1UNL     H8   33  -0.090  -0.238  -0.004
    1UNL     H9   34   0.076  -0.291   0.050
    1UNL    H10   35   0.109  -0.165   0.269
    1UNL    H11   36   0.296  -0.095   0.397
    1UNL    H12   37   0.444   0.090   0.317
    1UNL    H13   38   0.454   0.127   0.072
    1UNL    H14   39   0.300   0.098  -0.164
    1UNL    H15   40   0.062   0.011  -0.359
    1UNL    H16   41  -0.133   0.134  -0.303
    1UNL    H17   42  -0.012   0.195  -0.179
    1UNL    H18   43  -0.200   0.159  -0.053
    1UNL    H19   44  -0.127  -0.030   0.106
    1UNL    H20   45   0.009   0.293   0.379
    1UNL    H21   46  -0.019   0.377   0.218
    1UNL    H22   47   0.138   0.290   0.256
   0.00000   0.00000   0.00000   0.00000   0.00000   0.00000   0.00000   0.00000   0.00000
Generated with MDTraj, t= 60.0
 47
    1UNL     C1    1  -0.439   0.013   0.002
    1UNL     C2    2  -0.370  -0.072  -0.104
    1UNL     C3    3  -0.245  -0.047  -0.146
    1UNL     C4    4  -0.194  -0.146  -0.243
    1UNL     N1    5  -0.047  -0.144  -0.263
    1UNL     C5    6   0.032  -0.236  -0.165
    1UNL     C6    7  -0.003  -0.214  -0.013
    1UNL     C7    8   0.050  -0.070   0.004
    1UNL     C8    9   0.175  -0.058   0.097
    1UNL     C9   10   0.173  -0.065   0.231
    1UNL    C10   11   0.279  -0.024   0.307
    1UNL    C11   12   0.394   0.027   0.244
    1UNL    C12   13   0.393   0.065   0.107
    1UNL    C13   14   0.279   0.028   0.034
    1UNL     N2   15   0.246   0.037  -0.102
    1UNL    C14   16   0.129  -0.050  -0.133
    1UNL     O1   17   0.170  -0.181  -0.175
    1UNL    C15   18   0.032  -0.008  -0.249
    1UNL    C16   19  -0.055   0.116  -0.222
    1UNL    C17   20  -0.156   0.062  -0.104
    1UNL    C18   21  -0.068   0.032   0.030
    1UNL    C19   22  -0.026   0.160   0.098
    1UNL     O2   23  -0.004   0.255   0.022
    1UNL     O3   24  -0.004   0.159   0.231
    1UNL    C20   25   0.068   0.274   0.279
    1UNL     H1   26  -0.382  -0.012   0.102
    1UNL     H2   27  -0.423   0.119  -0.008
    1UNL     H3   28  -0.544   0.003   0.010
    1UNL     H4   29  -0.404  -0.155  -0.155
    1UNL     H5   30  -0.223  -0.241  -0.208
    1UNL     H6   31  -0.245  -0.132  -0.343
    1UNL     H7   32   0.021  -0.343  -0.197
    1UNL     H8   33  -0.113  -0.233   0.007
    1UNL     H9   34   0.054  -0.272   0.063
    1UNL    H10   35   0.080  -0.111   0.264
    1UNL    H11   36   0.273  -0.025   0.413
    1UNL    H12   37   0.478   0.066   0.304
    1UNL    H13   38   0.472   0.123   0.064
    1UNL    H14   39   0.325   0.016  -0.162
    1UNL    H15   40   0.099   0.015  -0.340
    1UNL    H16   41  -0.119   0.155  -0.308
    1UNL    H17   42   0.016   0.198  -0.190
    1UNL    H18   43  -0.213   0.155  -0.081
    1UNL    H19   44  -0.136  -0.023   0.097
    1UNL    H20   45   0.085   0.247   0.389
    1UNL    H21   46   0.007   0.365   0.269
    1UNL    H22   47   0.160   0.277   0.225
   0.00000   0.00000   0.00000   0.00000   0.00000   0.00000   0.00000   0.00000   0.00000
Generated with MDTraj, t= 61.0
 47
    1UNL     C1    1  -0.409   0.000   0.013
    1UNL     C2    2  -0.341  -0.085  -0.088
    1UNL     C3    3  -0.236  -0.047  -0.162
    1UNL     C4    4  -0.195  -0.140  -0.266
    1UNL     N1    5  -0.048  -0.144  -0.269
    1UNL     C5    6   0.022  -0.233  -0.164
    1UNL     C6    7  -0.018  -0.203  -0.015
    1UNL     C7    8   0.052  -0.067   0.007
    1UNL     C8    9   0.171  -0.040   0.102
    1UNL     C9   10   0.170  -0.062   0.241
    1UNL    C10   11   0.294  -0.041   0.308
    1UNL    C11   12   0.398   0.022   0.240
    1UNL    C12   13   0.392   0.051   0.107
    1UNL    C13   14   0.280   0.020   0.036
    1UNL     N2   15   0.249   0.028  -0.101
    1UNL    C14   16   0.132  -0.054  -0.137
    1UNL     O1   17   0.159  -0.195  -0.162
    1UNL    C15   18   0.032  -0.010  -0.251
    1UNL    C16   19  -0.054   0.111  -0.223
    1UNL    C17   20  -0.149   0.074  -0.109
    1UNL    C18   21  -0.065   0.042   0.024
    1UNL    C19   22  -0.030   0.171   0.090
    1UNL     O2   23  -0.041   0.279   0.030
    1UNL     O3   24   0.008   0.161   0.222
    1UNL    C20   25   0.054   0.282   0.290
    1UNL     H1   26  -0.320   0.024   0.081
    1UNL     H2   27  -0.451   0.089  -0.032
    1UNL     H3   28  -0.487  -0.046   0.070
    1UNL     H4   29  -0.394  -0.183  -0.119
    1UNL     H5   30  -0.241  -0.235  -0.253
    1UNL     H6   31  -0.231  -0.101  -0.365
    1UNL     H7   32   0.009  -0.342  -0.191
    1UNL     H8   33  -0.131  -0.202  -0.015
    1UNL     H9   34   0.019  -0.276   0.061
    1UNL    H10   35   0.085  -0.112   0.284
    1UNL    H11   36   0.305  -0.093   0.408
    1UNL    H12   37   0.480   0.055   0.301
    1UNL    H13   38   0.463   0.111   0.051
    1UNL    H14   39   0.328   0.027  -0.167
    1UNL    H15   40   0.091   0.016  -0.347
    1UNL    H16   41  -0.118   0.124  -0.318
    1UNL    H17   42  -0.000   0.208  -0.204
    1UNL    H18   43  -0.207   0.164  -0.073
    1UNL    H19   44  -0.143  -0.003   0.086
    1UNL    H20   45   0.074   0.247   0.398
    1UNL    H21   46  -0.032   0.351   0.292
    1UNL    H22   47   0.142   0.319   0.241
   0.00000   0.00000   0.00000   0.00000   0.00000   0.00000   0.00000   0.00000   0.00000
Generated with MDTraj, t= 62.0
 47
    1UNL     C1    1  -0.400   0.017   0.032
    1UNL     C2    2  -0.359  -0.068  -0.078
    1UNL     C3    3  -0.238  -0.046  -0.132
    1UNL     C4    4  -0.185  -0.151  -0.234
    1UNL     N1    5  -0.037  -0.148  -0.260
    1UNL     C5    6   0.045  -0.238  -0.169
    1UNL     C6    7   0.006  -0.211  -0.020
    1UNL     C7    8   0.051  -0.066  -0.007
    1UNL     C8    9   0.167  -0.047   0.094
    1UNL     C9   10   0.163  -0.088   0.226
    1UNL    C10   11   0.277  -0.072   0.304
    1UNL    C11   12   0.391  -0.007   0.251
    1UNL    C12   13   0.385   0.040   0.121
    1UNL    C13   14   0.269   0.021   0.040
    1UNL     N2   15   0.244   0.055  -0.095
    1UNL    C14   16   0.134  -0.036  -0.144
    1UNL     O1   17   0.174  -0.175  -0.184
    1UNL    C15   18   0.029  -0.010  -0.255
    1UNL    C16   19  -0.065   0.106  -0.224
    1UNL    C17   20  -0.155   0.068  -0.101
    1UNL    C18   21  -0.066   0.037   0.029
    1UNL    C19   22  -0.026   0.171   0.083
    1UNL     O2   23  -0.013   0.264   0.003
    1UNL     O3   24   0.003   0.180   0.216
    1UNL    C20   25   0.022   0.310   0.270
    1UNL     H1   26  -0.313   0.030   0.090
    1UNL     H2   27  -0.455   0.109   0.012
    1UNL     H3   28  -0.469  -0.030   0.105
    1UNL     H4   29  -0.414  -0.146  -0.113
    1UNL     H5   30  -0.200  -0.250  -0.196
    1UNL     H6   31  -0.242  -0.161  -0.330
    1UNL     H7   32   0.055  -0.345  -0.199
    1UNL     H8   33  -0.100  -0.231   0.004
    1UNL     H9   34   0.076  -0.272   0.043
    1UNL    H10   35   0.083  -0.147   0.269
    1UNL    H11   36   0.293  -0.124   0.390
    1UNL    H12   37   0.482   0.016   0.303
    1UNL    H13   38   0.452   0.120   0.091
    1UNL    H14   39   0.319   0.093  -0.157
    1UNL    H15   40   0.084   0.007  -0.354
    1UNL    H16   41  -0.132   0.130  -0.314
    1UNL    H17   42  -0.006   0.199  -0.199
    1UNL    H18   43  -0.232   0.145  -0.068
    1UNL    H19   44  -0.133  -0.012   0.099
    1UNL    H20   45   0.042   0.293   0.381
    1UNL    H21   46  -0.077   0.353   0.260
    1UNL    H22   47   0.101   0.364   0.220
   0.00000   0.00000   0.00000   0.00000   0.00000   0.00000   0.00000   0.00000   0.00000
Generated with MDTraj, t= 63.0
 47
    1UNL     C1    1  -0.449  -0.003   0.004
    1UNL     C2    2  -0.362  -0.081  -0.079
    1UNL     C3    3  -0.240  -0.060  -0.132
    1UNL     C4    4  -0.189  -0.144  -0.242
    1UNL     N1    5  -0.043  -0.138  -0.260
    1UNL     C5    6   0.040  -0.229  -0.170
    1UNL     C6    7   0.001  -0.209  -0.017
    1UNL     C7    8   0.053  -0.066   0.006
    1UNL     C8    9   0.172  -0.062   0.102
    1UNL     C9   10   0.181  -0.102   0.228
    1UNL    C10   11   0.290  -0.072   0.302
    1UNL    C11   12   0.393   0.001   0.241
    1UNL    C12   13   0.388   0.044   0.110
    1UNL    C13   14   0.269   0.023   0.043
    1UNL     N2   15   0.239   0.060  -0.092
    1UNL    C14   16   0.128  -0.031  -0.129
    1UNL     O1   17   0.171  -0.165  -0.176
    1UNL    C15   18   0.022  -0.001  -0.242
    1UNL    C16   19  -0.069   0.117  -0.205
    1UNL    C17   20  -0.150   0.060  -0.093
    1UNL    C18   21  -0.061   0.033   0.039
    1UNL    C19   22  -0.010   0.170   0.081
    1UNL     O2   23   0.042   0.240  -0.006
    1UNL     O3   24  -0.033   0.200   0.216
    1UNL    C20   25   0.038   0.314   0.254
    1UNL     H1   26  -0.405   0.004   0.094
    1UNL     H2   27  -0.486   0.092  -0.036
    1UNL     H3   28  -0.548  -0.053   0.027
    1UNL     H4   29  -0.420  -0.169  -0.117
    1UNL     H5   30  -0.220  -0.246  -0.236
    1UNL     H6   31  -0.235  -0.113  -0.339
    1UNL     H7   32   0.048  -0.332  -0.208
    1UNL     H8   33  -0.105  -0.210   0.007
    1UNL     H9   34   0.054  -0.294   0.037
    1UNL    H10   35   0.102  -0.167   0.259
    1UNL    H11   36   0.316  -0.125   0.402
    1UNL    H12   37   0.477   0.037   0.304
    1UNL    H13   38   0.444   0.123   0.066
    1UNL    H14   39   0.319   0.083  -0.155
    1UNL    H15   40   0.083   0.021  -0.337
    1UNL    H16   41  -0.137   0.143  -0.292
    1UNL    H17   42  -0.016   0.215  -0.180
    1UNL    H18   43  -0.218   0.141  -0.053
    1UNL    H19   44  -0.121  -0.010   0.119
    1UNL    H20   45   0.020   0.331   0.364
    1UNL    H21   46  -0.012   0.390   0.198
    1UNL    H22   47   0.142   0.305   0.230
   0.00000   0.00000   0.00000   0.00000   0.00000   0.00000   0.00000   0.00000   0.00000
Generated with MDTraj, t= 64.0
 47
    1UNL     C1    1  -0.432  -0.007   0.011
    1UNL     C2    2  -0.363  -0.088  -0.088
    1UNL     C3    3  -0.245  -0.052  -0.136
    1UNL     C4    4  -0.192  -0.133  -0.253
    1UNL     N1    5  -0.046  -0.140  -0.267
    1UNL     C5    6   0.030  -0.231  -0.165
    1UNL     C6    7  -0.005  -0.206  -0.017
    1UNL     C7    8   0.050  -0.064   0.007
    1UNL     C8    9   0.166  -0.051   0.099
    1UNL     C9   10   0.182  -0.083   0.232
    1UNL    C10   11   0.299  -0.050   0.305
    1UNL    C11   12   0.402   0.010   0.235
    1UNL    C12   13   0.389   0.045   0.103
    1UNL    C13   14   0.268   0.026   0.039
    1UNL     N2   15   0.239   0.042  -0.101
    1UNL    C14   16   0.124  -0.033  -0.131
    1UNL     O1   17   0.166  -0.172  -0.167
    1UNL    C15   18   0.026  -0.006  -0.258
    1UNL    C16   19  -0.061   0.115  -0.209
    1UNL    C17   20  -0.153   0.065  -0.089
    1UNL    C18   21  -0.064   0.040   0.040
    1UNL    C19   22  -0.008   0.167   0.092
    1UNL     O2   23   0.066   0.223   0.015
    1UNL     O3   24  -0.049   0.194   0.217
    1UNL    C20   25   0.022   0.302   0.265
    1UNL     H1   26  -0.367  -0.012   0.097
    1UNL     H2   27  -0.451   0.094  -0.022
    1UNL     H3   28  -0.534  -0.047   0.030
    1UNL     H4   29  -0.412  -0.177  -0.129
    1UNL     H5   30  -0.233  -0.232  -0.258
    1UNL     H6   31  -0.228  -0.096  -0.352
    1UNL     H7   32   0.035  -0.336  -0.191
    1UNL     H8   33  -0.112  -0.214   0.005
    1UNL     H9   34   0.044  -0.290   0.040
    1UNL    H10   35   0.111  -0.153   0.277
    1UNL    H11   36   0.305  -0.091   0.400
    1UNL    H12   37   0.480   0.047   0.294
    1UNL    H13   38   0.460   0.103   0.043
    1UNL    H14   39   0.315   0.056  -0.171
    1UNL    H15   40   0.100   0.000  -0.346
    1UNL    H16   41  -0.126   0.163  -0.288
    1UNL    H17   42   0.007   0.204  -0.184
    1UNL    H18   43  -0.210   0.161  -0.073
    1UNL    H19   44  -0.125  -0.006   0.117
    1UNL    H20   45  -0.035   0.344   0.351
    1UNL    H21   46   0.018   0.375   0.188
    1UNL    H22   47   0.125   0.276   0.291
   0.00000   0.00000   0.00000   0.00000   0.00000   0.00000   0.00000   0.00000   0.00000
Generated with MDTraj, t= 65.0
 47
    1UNL     C1    1  -0.383   0.031   0.056
    1UNL     C2    2  -0.352  -0.052  -0.070
    1UNL     C3    3  -0.235  -0.045  -0.138
    1UNL     C4    4  -0.192  -0.153  -0.240
    1UNL     N1    5  -0.050  -0.151  -0.268
    1UNL     C5    6   0.034  -0.244  -0.174
    1UNL     C6    7   0.001  -0.207  -0.027
    1UNL     C7    8   0.054  -0.062  -0.015
    1UNL     C8    9   0.170  -0.045   0.087
    1UNL     C9   10   0.164  -0.068   0.226
    1UNL    C10   11   0.275  -0.040   0.304
    1UNL    C11   12   0.389   0.021   0.249
    1UNL    C12   13   0.400   0.038   0.110
    1UNL    C13   14   0.282   0.016   0.032
    1UNL     N2   15   0.264   0.018  -0.109
    1UNL    C14   16   0.136  -0.050  -0.151
    1UNL     O1   17   0.165  -0.186  -0.197
    1UNL    C15   18   0.028  -0.016  -0.261
    1UNL    C16   19  -0.054   0.108  -0.225
    1UNL    C17   20  -0.140   0.075  -0.105
    1UNL    C18   21  -0.060   0.043   0.026
    1UNL    C19   22  -0.018   0.166   0.095
    1UNL     O2   23   0.022   0.257   0.030
    1UNL     O3   24  -0.049   0.167   0.233
    1UNL    C20   25  -0.027   0.295   0.289
    1UNL     H1   26  -0.291   0.029   0.124
    1UNL     H2   27  -0.407   0.132   0.035
    1UNL     H3   28  -0.468  -0.009   0.109
    1UNL     H4   29  -0.412  -0.132  -0.099
    1UNL     H5   30  -0.222  -0.254  -0.215
    1UNL     H6   31  -0.248  -0.137  -0.333
    1UNL     H7   32   0.040  -0.349  -0.197
    1UNL     H8   33  -0.107  -0.210  -0.002
    1UNL     H9   34   0.045  -0.276   0.047
    1UNL    H10   35   0.090  -0.121   0.279
    1UNL    H11   36   0.283  -0.059   0.412
    1UNL    H12   37   0.474   0.072   0.299
    1UNL    H13   38   0.486   0.078   0.063
    1UNL    H14   39   0.335   0.013  -0.182
    1UNL    H15   40   0.085  -0.011  -0.360
    1UNL    H16   41  -0.115   0.131  -0.317
    1UNL    H17   42   0.006   0.204  -0.205
    1UNL    H18   43  -0.203   0.170  -0.097
    1UNL    H19   44  -0.123  -0.011   0.098
    1UNL    H20   45  -0.040   0.294   0.399
    1UNL    H21   46  -0.104   0.357   0.251
    1UNL    H22   47   0.072   0.331   0.258
   0.00000   0.00000   0.00000   0.00000   0.00000   0.00000   0.00000   0.00000   0.00000
Generated with MDTraj, t= 66.0
 47
    1UNL     C1    1  -0.400   0.040   0.024
    1UNL     C2    2  -0.352  -0.052  -0.081
    1UNL     C3    3  -0.240  -0.037  -0.150
    1UNL     C4    4  -0.198  -0.144  -0.244
    1UNL     N1    5  -0.052  -0.151  -0.264
    1UNL     C5    6   0.024  -0.238  -0.171
    1UNL     C6    7  -0.012  -0.207  -0.026
    1UNL     C7    8   0.056  -0.066  -0.001
    1UNL     C8    9   0.173  -0.050   0.098
    1UNL     C9   10   0.184  -0.065   0.235
    1UNL    C10   11   0.300  -0.026   0.303
    1UNL    C11   12   0.402   0.032   0.230
    1UNL    C12   13   0.388   0.051   0.098
    1UNL    C13   14   0.277   0.015   0.028
    1UNL     N2   15   0.255   0.024  -0.113
    1UNL    C14   16   0.139  -0.059  -0.138
    1UNL     O1   17   0.166  -0.197  -0.176
    1UNL    C15   18   0.038  -0.020  -0.255
    1UNL    C16   19  -0.048   0.107  -0.226
    1UNL    C17   20  -0.140   0.078  -0.108
    1UNL    C18   21  -0.062   0.039   0.023
    1UNL    C19   22  -0.021   0.164   0.097
    1UNL     O2   23   0.021   0.255   0.035
    1UNL     O3   24  -0.033   0.150   0.230
    1UNL    C20   25  -0.033   0.270   0.307
    1UNL     H1   26  -0.323   0.048   0.112
    1UNL     H2   27  -0.412   0.139  -0.014
    1UNL     H3   28  -0.497   0.024   0.064
    1UNL     H4   29  -0.410  -0.147  -0.111
    1UNL     H5   30  -0.249  -0.235  -0.211
    1UNL     H6   31  -0.247  -0.123  -0.339
    1UNL     H7   32   0.016  -0.343  -0.197
    1UNL     H8   33  -0.121  -0.204   0.000
    1UNL     H9   34   0.034  -0.274   0.046
    1UNL    H10   35   0.091  -0.097   0.284
    1UNL    H11   36   0.326  -0.029   0.413
    1UNL    H12   37   0.491   0.069   0.275
    1UNL    H13   38   0.465   0.103   0.040
    1UNL    H14   39   0.336   0.012  -0.172
    1UNL    H15   40   0.092  -0.011  -0.355
    1UNL    H16   41  -0.105   0.147  -0.315
    1UNL    H17   42   0.024   0.191  -0.193
    1UNL    H18   43  -0.207   0.168  -0.083
    1UNL    H19   44  -0.134  -0.010   0.091
    1UNL    H20   45  -0.024   0.256   0.418
    1UNL    H21   46  -0.125   0.322   0.295
    1UNL    H22   47   0.049   0.335   0.267
   0.00000   0.00000   0.00000   0.00000   0.00000   0.00000   0.00000   0.00000   0.00000
Generated with MDTraj, t= 67.0
 47
    1UNL     C1    1  -0.456   0.047  -0.027
    1UNL     C2    2  -0.381  -0.054  -0.108
    1UNL     C3    3  -0.252  -0.038  -0.144
    1UNL     C4    4  -0.191  -0.138  -0.239
    1UNL     N1    5  -0.042  -0.149  -0.252
    1UNL     C5    6   0.039  -0.244  -0.154
    1UNL     C6    7   0.001  -0.220  -0.005
    1UNL     C7    8   0.053  -0.070   0.003
    1UNL     C8    9   0.174  -0.044   0.092
    1UNL     C9   10   0.184  -0.067   0.229
    1UNL    C10   11   0.303  -0.031   0.289
    1UNL    C11   12   0.404   0.032   0.220
    1UNL    C12   13   0.394   0.064   0.090
    1UNL    C13   14   0.280   0.025   0.027
    1UNL     N2   15   0.244   0.042  -0.111
    1UNL    C14   16   0.136  -0.051  -0.138
    1UNL     O1   17   0.171  -0.186  -0.166
    1UNL    C15   18   0.030  -0.018  -0.248
    1UNL    C16   19  -0.047   0.106  -0.210
    1UNL    C17   20  -0.146   0.063  -0.103
    1UNL    C18   21  -0.071   0.024   0.028
    1UNL    C19   22  -0.025   0.155   0.098
    1UNL     O2   23   0.026   0.244   0.038
    1UNL     O3   24  -0.041   0.165   0.238
    1UNL    C20   25   0.032   0.260   0.309
    1UNL     H1   26  -0.408   0.059   0.072
    1UNL     H2   27  -0.451   0.142  -0.081
    1UNL     H3   28  -0.561   0.022  -0.031
    1UNL     H4   29  -0.423  -0.142  -0.136
    1UNL     H5   30  -0.226  -0.238  -0.209
    1UNL     H6   31  -0.236  -0.123  -0.336
    1UNL     H7   32   0.044  -0.348  -0.192
    1UNL     H8   33  -0.109  -0.228   0.007
    1UNL     H9   34   0.051  -0.282   0.069
    1UNL    H10   35   0.100  -0.105   0.282
    1UNL    H11   36   0.303  -0.061   0.387
    1UNL    H12   37   0.501   0.038   0.272
    1UNL    H13   38   0.468   0.113   0.033
    1UNL    H14   39   0.323   0.039  -0.173
    1UNL    H15   40   0.080   0.011  -0.346
    1UNL    H16   41  -0.101   0.156  -0.297
    1UNL    H17   42   0.030   0.176  -0.162
    1UNL    H18   43  -0.213   0.147  -0.065
    1UNL    H19   44  -0.144  -0.018   0.100
    1UNL    H20   45  -0.005   0.271   0.412
    1UNL    H21   46   0.024   0.357   0.264
    1UNL    H22   47   0.140   0.222   0.302
   0.00000   0.00000   0.00000   0.00000   0.00000   0.00000   0.00000   0.00000   0.00000
Generated with MDTraj, t= 68.0
 47
    1UNL     C1    1  -0.457   0.072  -0.056
    1UNL     C2    2  -0.387  -0.043  -0.110
    1UNL     C3    3  -0.256  -0.057  -0.132
    1UNL     C4    4  -0.196  -0.169  -0.217
    1UNL     N1    5  -0.046  -0.153  -0.250
    1UNL     C5    6   0.053  -0.238  -0.170
    1UNL     C6    7   0.023  -0.216  -0.014
    1UNL     C7    8   0.060  -0.068   0.007
    1UNL     C8    9   0.177  -0.043   0.097
    1UNL     C9   10   0.181  -0.084   0.227
    1UNL    C10   11   0.288  -0.046   0.296
    1UNL    C11   12   0.390   0.026   0.243
    1UNL    C12   13   0.390   0.066   0.104
    1UNL    C13   14   0.278   0.022   0.026
    1UNL     N2   15   0.232   0.061  -0.101
    1UNL    C14   16   0.130  -0.037  -0.137
    1UNL     O1   17   0.182  -0.168  -0.178
    1UNL    C15   18   0.018  -0.014  -0.242
    1UNL    C16   19  -0.083   0.101  -0.210
    1UNL    C17   20  -0.164   0.057  -0.083
    1UNL    C18   21  -0.067   0.022   0.031
    1UNL    C19   22  -0.014   0.153   0.094
    1UNL     O2   23   0.032   0.240   0.025
    1UNL     O3   24  -0.009   0.161   0.232
    1UNL    C20   25   0.053   0.269   0.291
    1UNL     H1   26  -0.416   0.105   0.034
    1UNL     H2   27  -0.448   0.157  -0.130
    1UNL     H3   28  -0.563   0.045  -0.063
    1UNL     H4   29  -0.456  -0.129  -0.138
    1UNL     H5   30  -0.213  -0.266  -0.168
    1UNL     H6   31  -0.247  -0.180  -0.312
    1UNL     H7   32   0.058  -0.346  -0.199
    1UNL     H8   33  -0.081  -0.248  -0.001
    1UNL     H9   34   0.083  -0.290   0.042
    1UNL    H10   35   0.100  -0.134   0.280
    1UNL    H11   36   0.295  -0.069   0.409
    1UNL    H12   37   0.478   0.045   0.300
    1UNL    H13   38   0.477   0.116   0.061
    1UNL    H14   39   0.296   0.074  -0.176
    1UNL    H15   40   0.068   0.006  -0.341
    1UNL    H16   41  -0.143   0.127  -0.305
    1UNL    H17   42  -0.019   0.189  -0.175
    1UNL    H18   43  -0.226   0.141  -0.040
    1UNL    H19   44  -0.133  -0.032   0.102
    1UNL    H20   45   0.031   0.274   0.398
    1UNL    H21   46   0.018   0.361   0.249
    1UNL    H22   47   0.166   0.254   0.268
   0.00000   0.00000   0.00000   0.00000   0.00000   0.00000   0.00000   0.00000   0.00000
Generated with MDTraj, t= 69.0
 47
    1UNL     C1    1  -0.439   0.055  -0.032
    1UNL     C2    2  -0.381  -0.046  -0.122
    1UNL     C3    3  -0.253  -0.047  -0.145
    1UNL     C4    4  -0.197  -0.159  -0.234
    1UNL     N1    5  -0.050  -0.145  -0.258
    1UNL     C5    6   0.038  -0.239  -0.175
    1UNL     C6    7  -0.001  -0.222  -0.023
    1UNL     C7    8   0.046  -0.073   0.004
    1UNL     C8    9   0.172  -0.060   0.107
    1UNL     C9   10   0.206  -0.103   0.231
    1UNL    C10   11   0.310  -0.051   0.305
    1UNL    C11   12   0.397   0.043   0.249
    1UNL    C12   13   0.380   0.079   0.116
    1UNL    C13   14   0.271   0.021   0.044
    1UNL     N2   15   0.238   0.044  -0.093
    1UNL    C14   16   0.130  -0.046  -0.140
    1UNL     O1   17   0.174  -0.181  -0.175
    1UNL    C15   18   0.026  -0.013  -0.247
    1UNL    C16   19  -0.066   0.101  -0.207
    1UNL    C17   20  -0.155   0.054  -0.084
    1UNL    C18   21  -0.067   0.029   0.033
    1UNL    C19   22  -0.017   0.157   0.095
    1UNL     O2   23  -0.012   0.255   0.026
    1UNL     O3   24   0.018   0.162   0.227
    1UNL    C20   25   0.047   0.290   0.277
    1UNL     H1   26  -0.394   0.069   0.059
    1UNL     H2   27  -0.434   0.161  -0.073
    1UNL     H3   28  -0.547   0.043  -0.029
    1UNL     H4   29  -0.441  -0.124  -0.165
    1UNL     H5   30  -0.214  -0.266  -0.211
    1UNL     H6   31  -0.240  -0.149  -0.332
    1UNL     H7   32   0.027  -0.344  -0.216
    1UNL     H8   33  -0.107  -0.235  -0.017
    1UNL     H9   34   0.051  -0.294   0.043
    1UNL    H10   35   0.138  -0.173   0.277
    1UNL    H11   36   0.316  -0.067   0.405
    1UNL    H12   37   0.476   0.084   0.313
    1UNL    H13   38   0.462   0.135   0.075
    1UNL    H14   39   0.315   0.044  -0.158
    1UNL    H15   40   0.077   0.003  -0.345
    1UNL    H16   41  -0.137   0.123  -0.295
    1UNL    H17   42   0.000   0.191  -0.185
    1UNL    H18   43  -0.214   0.147  -0.064
    1UNL    H19   44  -0.133  -0.025   0.104
    1UNL    H20   45   0.095   0.287   0.373
    1UNL    H21   46  -0.040   0.348   0.292
    1UNL    H22   47   0.117   0.339   0.199
   0.00000   0.00000   0.00000   0.00000   0.00000   0.00000   0.00000   0.00000   0.00000
Generated with MDTraj, t= 70.0
 47
    1UNL     C1    1  -0.420   0.021   0.011
    1UNL     C2    2  -0.356  -0.072  -0.091
    1UNL     C3    3  -0.241  -0.048  -0.156
    1UNL     C4    4  -0.186  -0.151  -0.246
    1UNL     N1    5  -0.038  -0.149  -0.260
    1UNL     C5    6   0.032  -0.238  -0.158
    1UNL     C6    7  -0.011  -0.207  -0.017
    1UNL     C7    8   0.046  -0.058  -0.001
    1UNL     C8    9   0.158  -0.031   0.101
    1UNL     C9   10   0.167  -0.076   0.233
    1UNL    C10   11   0.285  -0.048   0.298
    1UNL    C11   12   0.393   0.008   0.235
    1UNL    C12   13   0.387   0.052   0.108
    1UNL    C13   14   0.268   0.033   0.038
    1UNL     N2   15   0.248   0.038  -0.101
    1UNL    C14   16   0.133  -0.046  -0.135
    1UNL     O1   17   0.168  -0.179  -0.172
    1UNL    C15   18   0.037  -0.016  -0.254
    1UNL    C16   19  -0.046   0.108  -0.224
    1UNL    C17   20  -0.150   0.069  -0.110
    1UNL    C18   21  -0.068   0.046   0.019
    1UNL    C19   22  -0.026   0.167   0.094
    1UNL     O2   23  -0.033   0.274   0.039
    1UNL     O3   24   0.008   0.153   0.229
    1UNL    C20   25   0.059   0.275   0.276
    1UNL     H1   26  -0.360   0.053   0.092
    1UNL     H2   27  -0.452   0.119  -0.029
    1UNL     H3   28  -0.514  -0.020   0.049
    1UNL     H4   29  -0.402  -0.168  -0.093
    1UNL     H5   30  -0.209  -0.249  -0.200
    1UNL     H6   31  -0.224  -0.154  -0.345
    1UNL     H7   32   0.020  -0.346  -0.189
    1UNL     H8   33  -0.118  -0.204  -0.015
    1UNL     H9   34   0.030  -0.270   0.064
    1UNL    H10   35   0.083  -0.123   0.280
    1UNL    H11   36   0.270  -0.060   0.410
    1UNL    H12   37   0.480   0.000   0.293
    1UNL    H13   38   0.476   0.069   0.050
    1UNL    H14   39   0.327  -0.010  -0.147
    1UNL    H15   40   0.103  -0.005  -0.343
    1UNL    H16   41  -0.084   0.156  -0.322
    1UNL    H17   42   0.024   0.184  -0.175
    1UNL    H18   43  -0.212   0.159  -0.082
    1UNL    H19   44  -0.137  -0.005   0.090
    1UNL    H20   45   0.094   0.270   0.376
    1UNL    H21   46  -0.019   0.346   0.274
    1UNL    H22   47   0.143   0.303   0.203
   0.00000   0.00000   0.00000   0.00000   0.00000   0.00000   0.00000   0.00000   0.00000
Generated with MDTraj, t= 71.0
 47
    1UNL     C1    1  -0.407  -0.006   0.038
    1UNL     C2    2  -0.344  -0.084  -0.073
    1UNL     C3    3  -0.237  -0.046  -0.141
    1UNL     C4    4  -0.193  -0.137  -0.249
    1UNL     N1    5  -0.043  -0.139  -0.263
    1UNL     C5    6   0.034  -0.229  -0.173
    1UNL     C6    7  -0.000  -0.199  -0.021
    1UNL     C7    8   0.053  -0.050  -0.001
    1UNL     C8    9   0.158  -0.031   0.102
    1UNL     C9   10   0.161  -0.071   0.234
    1UNL    C10   11   0.276  -0.051   0.309
    1UNL    C11   12   0.390  -0.004   0.250
    1UNL    C12   13   0.389   0.025   0.114
    1UNL    C13   14   0.272   0.012   0.035
    1UNL     N2   15   0.254   0.041  -0.098
    1UNL    C14   16   0.136  -0.039  -0.140
    1UNL     O1   17   0.167  -0.181  -0.169
    1UNL    C15   18   0.031  -0.006  -0.252
    1UNL    C16   19  -0.058   0.110  -0.221
    1UNL    C17   20  -0.154   0.074  -0.112
    1UNL    C18   21  -0.071   0.048   0.019
    1UNL    C19   22  -0.025   0.172   0.085
    1UNL     O2   23  -0.005   0.263   0.006
    1UNL     O3   24  -0.009   0.163   0.219
    1UNL    C20   25   0.038   0.285   0.269
    1UNL     H1   26  -0.332   0.041   0.109
    1UNL     H2   27  -0.460   0.078   0.002
    1UNL     H3   28  -0.474  -0.073   0.092
    1UNL     H4   29  -0.398  -0.180  -0.104
    1UNL     H5   30  -0.227  -0.243  -0.242
    1UNL     H6   31  -0.226  -0.099  -0.341
    1UNL     H7   32   0.033  -0.333  -0.209
    1UNL     H8   33  -0.107  -0.212  -0.006
    1UNL     H9   34   0.049  -0.266   0.048
    1UNL    H10   35   0.068  -0.095   0.289
    1UNL    H11   36   0.288  -0.061   0.416
    1UNL    H12   37   0.490  -0.003   0.297
    1UNL    H13   38   0.483   0.046   0.065
    1UNL    H14   39   0.327   0.021  -0.170
    1UNL    H15   40   0.084   0.015  -0.346
    1UNL    H16   41  -0.120   0.164  -0.303
    1UNL    H17   42   0.020   0.180  -0.172
    1UNL    H18   43  -0.225   0.154  -0.081
    1UNL    H19   44  -0.144  -0.001   0.087
    1UNL    H20   45   0.018   0.301   0.371
    1UNL    H21   46  -0.014   0.356   0.210
    1UNL    H22   47   0.150   0.290   0.246
   0.00000   0.00000   0.00000   0.00000   0.00000   0.00000   0.00000   0.00000   0.00000
Generated with MDTraj, t= 72.0
 47
    1UNL     C1    1  -0.422  -0.012   0.034
    1UNL     C2    2  -0.353  -0.086  -0.078
    1UNL     C3    3  -0.238  -0.054  -0.137
    1UNL     C4    4  -0.187  -0.130  -0.256
    1UNL     N1    5  -0.042  -0.138  -0.265
    1UNL     C5    6   0.032  -0.229  -0.175
    1UNL     C6    7  -0.013  -0.211  -0.030
    1UNL     C7    8   0.049  -0.067  -0.003
    1UNL     C8    9   0.168  -0.063   0.100
    1UNL     C9   10   0.181  -0.114   0.225
    1UNL    C10   11   0.287  -0.071   0.305
    1UNL    C11   12   0.381   0.022   0.255
    1UNL    C12   13   0.382   0.048   0.119
    1UNL    C13   14   0.280   0.003   0.040
    1UNL     N2   15   0.241   0.042  -0.093
    1UNL    C14   16   0.123  -0.038  -0.137
    1UNL     O1   17   0.162  -0.168  -0.184
    1UNL    C15   18   0.029  -0.001  -0.252
    1UNL    C16   19  -0.067   0.107  -0.210
    1UNL    C17   20  -0.151   0.064  -0.093
    1UNL    C18   21  -0.062   0.036   0.034
    1UNL    C19   22  -0.005   0.171   0.085
    1UNL     O2   23   0.069   0.240   0.015
    1UNL     O3   24  -0.043   0.213   0.217
    1UNL    C20   25   0.014   0.331   0.255
    1UNL     H1   26  -0.354   0.024   0.122
    1UNL     H2   27  -0.470   0.077   0.007
    1UNL     H3   28  -0.495  -0.077   0.079
    1UNL     H4   29  -0.400  -0.167  -0.117
    1UNL     H5   30  -0.218  -0.235  -0.235
    1UNL     H6   31  -0.229  -0.097  -0.346
    1UNL     H7   32   0.039  -0.331  -0.214
    1UNL     H8   33  -0.118  -0.231  -0.007
    1UNL     H9   34   0.039  -0.285   0.028
    1UNL    H10   35   0.105  -0.164   0.275
    1UNL    H11   36   0.298  -0.101   0.406
    1UNL    H12   37   0.462   0.051   0.315
    1UNL    H13   38   0.465   0.105   0.084
    1UNL    H14   39   0.300   0.069  -0.175
    1UNL    H15   40   0.078   0.012  -0.349
    1UNL    H16   41  -0.133   0.142  -0.297
    1UNL    H17   42  -0.010   0.198  -0.167
    1UNL    H18   43  -0.216   0.148  -0.057
    1UNL    H19   44  -0.120  -0.010   0.117
    1UNL    H20   45   0.041   0.334   0.358
    1UNL    H21   46  -0.060   0.402   0.222
    1UNL    H22   47   0.113   0.343   0.195
   0.00000   0.00000   0.00000   0.00000   0.00000   0.00000   0.00000   0.00000   0.00000
Generated with MDTraj, t= 73.0
 47
    1UNL     C1    1  -0.412   0.010   0.039
    1UNL     C2    2  -0.364  -0.070  -0.075
    1UNL     C3    3  -0.246  -0.049  -0.131
    1UNL     C4    4  -0.196  -0.138  -0.244
    1UNL     N1    5  -0.048  -0.133  -0.258
    1UNL     C5    6   0.041  -0.227  -0.184
    1UNL     C6    7   0.008  -0.217  -0.034
    1UNL     C7    8   0.061  -0.072  -0.002
    1UNL     C8    9   0.175  -0.069   0.099
    1UNL     C9   10   0.179  -0.112   0.235
    1UNL    C10   11   0.294  -0.070   0.306
    1UNL    C11   12   0.395  -0.001   0.245
    1UNL    C12   13   0.386   0.049   0.117
    1UNL    C13   14   0.280   0.009   0.040
    1UNL     N2   15   0.242   0.046  -0.089
    1UNL    C14   16   0.130  -0.030  -0.136
    1UNL     O1   17   0.173  -0.167  -0.187
    1UNL    C15   18   0.022  -0.001  -0.252
    1UNL    C16   19  -0.073   0.107  -0.207
    1UNL    C17   20  -0.152   0.070  -0.088
    1UNL    C18   21  -0.056   0.031   0.028
    1UNL    C19   22  -0.008   0.162   0.091
    1UNL     O2   23   0.073   0.226   0.030
    1UNL     O3   24  -0.065   0.207   0.202
    1UNL    C20   25  -0.019   0.335   0.232
    1UNL     H1   26  -0.352  -0.000   0.134
    1UNL     H2   27  -0.417   0.115   0.020
    1UNL     H3   28  -0.510  -0.028   0.063
    1UNL     H4   29  -0.424  -0.149  -0.132
    1UNL     H5   30  -0.233  -0.242  -0.232
    1UNL     H6   31  -0.237  -0.096  -0.331
    1UNL     H7   32   0.047  -0.324  -0.230
    1UNL     H8   33  -0.095  -0.227   0.001
    1UNL     H9   34   0.062  -0.287   0.024
    1UNL    H10   35   0.086  -0.158   0.276
    1UNL    H11   36   0.285  -0.087   0.418
    1UNL    H12   37   0.484   0.010   0.311
    1UNL    H13   38   0.462   0.116   0.078
    1UNL    H14   39   0.313   0.038  -0.164
    1UNL    H15   40   0.079   0.010  -0.344
    1UNL    H16   41  -0.145   0.144  -0.287
    1UNL    H17   42  -0.010   0.201  -0.184
    1UNL    H18   43  -0.218   0.157  -0.075
    1UNL    H19   44  -0.114  -0.034   0.096
    1UNL    H20   45  -0.071   0.375   0.319
    1UNL    H21   46  -0.029   0.386   0.135
    1UNL    H22   47   0.091   0.321   0.263
   0.00000   0.00000   0.00000   0.00000   0.00000   0.00000   0.00000   0.00000   0.00000
Generated with MDTraj, t= 74.0
 47
    1UNL     C1    1  -0.414   0.021   0.031
    1UNL     C2    2  -0.348  -0.073  -0.067
    1UNL     C3    3  -0.238  -0.042  -0.139
    1UNL     C4    4  -0.189  -0.129  -0.245
    1UNL     N1    5  -0.042  -0.137  -0.253
    1UNL     C5    6   0.034  -0.238  -0.165
    1UNL     C6    7   0.003  -0.207  -0.018
    1UNL     C7    8   0.064  -0.061  -0.005
    1UNL     C8    9   0.173  -0.041   0.100
    1UNL     C9   10   0.175  -0.074   0.235
    1UNL    C10   11   0.297  -0.068   0.296
    1UNL    C11   12   0.411  -0.021   0.228
    1UNL    C12   13   0.406   0.026   0.096
    1UNL    C13   14   0.283   0.009   0.030
    1UNL     N2   15   0.258   0.026  -0.106
    1UNL    C14   16   0.135  -0.048  -0.141
    1UNL     O1   17   0.169  -0.188  -0.179
    1UNL    C15   18   0.028  -0.009  -0.254
    1UNL    C16   19  -0.060   0.110  -0.217
    1UNL    C17   20  -0.147   0.073  -0.100
    1UNL    C18   21  -0.057   0.041   0.024
    1UNL    C19   22  -0.021   0.171   0.091
    1UNL     O2   23   0.054   0.256   0.048
    1UNL     O3   24  -0.084   0.189   0.214
    1UNL    C20   25  -0.058   0.321   0.266
    1UNL     H1   26  -0.357   0.032   0.119
    1UNL     H2   27  -0.437   0.115  -0.022
    1UNL     H3   28  -0.498  -0.042   0.059
    1UNL     H4   29  -0.406  -0.154  -0.099
    1UNL     H5   30  -0.227  -0.231  -0.223
    1UNL     H6   31  -0.225  -0.093  -0.338
    1UNL     H7   32   0.020  -0.339  -0.202
    1UNL     H8   33  -0.103  -0.205  -0.002
    1UNL     H9   34   0.043  -0.288   0.040
    1UNL    H10   35   0.085  -0.109   0.278
    1UNL    H11   36   0.309  -0.090   0.395
    1UNL    H12   37   0.508  -0.011   0.268
    1UNL    H13   38   0.495   0.055   0.043
    1UNL    H14   39   0.316   0.022  -0.191
    1UNL    H15   40   0.093  -0.001  -0.340
    1UNL    H16   41  -0.116   0.146  -0.310
    1UNL    H17   42  -0.002   0.206  -0.189
    1UNL    H18   43  -0.206   0.160  -0.082
    1UNL    H19   44  -0.111  -0.018   0.100
    1UNL    H20   45  -0.119   0.345   0.353
    1UNL    H21   46  -0.056   0.393   0.181
    1UNL    H22   47   0.044   0.312   0.314
   0.00000   0.00000   0.00000   0.00000   0.00000   0.00000   0.00000   0.00000   0.00000
Generated with MDTraj, t= 75.0
 47
    1UNL     C1    1  -0.403   0.038   0.018
    1UNL     C2    2  -0.352  -0.052  -0.089
    1UNL     C3    3  -0.234  -0.032  -0.149
    1UNL     C4    4  -0.182  -0.132  -0.243
    1UNL     N1    5  -0.038  -0.148  -0.256
    1UNL     C5    6   0.028  -0.244  -0.159
    1UNL     C6    7  -0.011  -0.209  -0.009
    1UNL     C7    8   0.047  -0.061   0.004
    1UNL     C8    9   0.171  -0.036   0.095
    1UNL     C9   10   0.184  -0.068   0.228
    1UNL    C10   11   0.310  -0.057   0.287
    1UNL    C11   12   0.424  -0.002   0.217
    1UNL    C12   13   0.405   0.035   0.085
    1UNL    C13   14   0.281   0.018   0.026
    1UNL     N2   15   0.251   0.020  -0.110
    1UNL    C14   16   0.127  -0.053  -0.133
    1UNL     O1   17   0.164  -0.199  -0.166
    1UNL    C15   18   0.040  -0.019  -0.247
    1UNL    C16   19  -0.044   0.101  -0.223
    1UNL    C17   20  -0.143   0.074  -0.109
    1UNL    C18   21  -0.070   0.049   0.023
    1UNL    C19   22  -0.032   0.174   0.097
    1UNL     O2   23   0.049   0.252   0.057
    1UNL     O3   24  -0.092   0.179   0.216
    1UNL    C20   25  -0.052   0.291   0.295
    1UNL     H1   26  -0.338   0.093   0.075
    1UNL     H2   27  -0.482   0.107  -0.021
    1UNL     H3   28  -0.432  -0.035   0.096
    1UNL     H4   29  -0.420  -0.123  -0.134
    1UNL     H5   30  -0.216  -0.232  -0.210
    1UNL     H6   31  -0.224  -0.112  -0.339
    1UNL     H7   32   0.024  -0.350  -0.181
    1UNL     H8   33  -0.115  -0.221   0.008
    1UNL     H9   34   0.041  -0.279   0.053
    1UNL    H10   35   0.102  -0.110   0.284
    1UNL    H11   36   0.330  -0.086   0.395
    1UNL    H12   37   0.520   0.013   0.269
    1UNL    H13   38   0.493   0.062   0.028
    1UNL    H14   39   0.328   0.015  -0.177
    1UNL    H15   40   0.100  -0.018  -0.337
    1UNL    H16   41  -0.105   0.152  -0.306
    1UNL    H17   42   0.029   0.184  -0.192
    1UNL    H18   43  -0.205   0.156  -0.090
    1UNL    H19   44  -0.132  -0.009   0.093
    1UNL    H20   45  -0.039   0.256   0.396
    1UNL    H21   46  -0.115   0.382   0.284
    1UNL    H22   47   0.050   0.320   0.264
   0.00000   0.00000   0.00000   0.00000   0.00000   0.00000   0.00000   0.00000   0.00000
Generated with MDTraj, t= 76.0
 47
    1UNL     C1    1  -0.427   0.066  -0.002
    1UNL     C2    2  -0.368  -0.031  -0.097
    1UNL     C3    3  -0.241  -0.037  -0.142
    1UNL     C4    4  -0.197  -0.155  -0.226
    1UNL     N1    5  -0.051  -0.146  -0.258
    1UNL     C5    6   0.035  -0.236  -0.170
    1UNL     C6    7   0.004  -0.218  -0.020
    1UNL     C7    8   0.064  -0.071  -0.001
    1UNL     C8    9   0.177  -0.057   0.093
    1UNL     C9   10   0.181  -0.081   0.230
    1UNL    C10   11   0.292  -0.033   0.304
    1UNL    C11   12   0.391   0.034   0.235
    1UNL    C12   13   0.388   0.050   0.098
    1UNL    C13   14   0.278   0.017   0.029
    1UNL     N2   15   0.258   0.025  -0.113
    1UNL    C14   16   0.136  -0.050  -0.144
    1UNL     O1   17   0.170  -0.186  -0.166
    1UNL    C15   18   0.026  -0.018  -0.253
    1UNL    C16   19  -0.055   0.103  -0.221
    1UNL    C17   20  -0.145   0.071  -0.100
    1UNL    C18   21  -0.055   0.034   0.021
    1UNL    C19   22  -0.008   0.153   0.097
    1UNL     O2   23   0.048   0.247   0.044
    1UNL     O3   24  -0.042   0.154   0.232
    1UNL    C20   25  -0.029   0.280   0.286
    1UNL     H1   26  -0.370   0.121   0.072
    1UNL     H2   27  -0.495   0.145  -0.042
    1UNL     H3   28  -0.473   0.008   0.079
    1UNL     H4   29  -0.443  -0.101  -0.145
    1UNL     H5   30  -0.222  -0.249  -0.176
    1UNL     H6   31  -0.248  -0.157  -0.322
    1UNL     H7   32   0.030  -0.340  -0.210
    1UNL     H8   33  -0.099  -0.218   0.002
    1UNL     H9   34   0.059  -0.288   0.040
    1UNL    H10   35   0.091  -0.124   0.276
    1UNL    H11   36   0.294  -0.054   0.407
    1UNL    H12   37   0.477   0.070   0.288
    1UNL    H13   38   0.462   0.092   0.031
    1UNL    H14   39   0.330  -0.019  -0.167
    1UNL    H15   40   0.083  -0.001  -0.344
    1UNL    H16   41  -0.111   0.130  -0.316
    1UNL    H17   42   0.000   0.198  -0.190
    1UNL    H18   43  -0.197   0.151  -0.058
    1UNL    H19   44  -0.119  -0.018   0.097
    1UNL    H20   45  -0.065   0.281   0.387
    1UNL    H21   46  -0.077   0.360   0.226
    1UNL    H22   47   0.078   0.307   0.294
   0.00000   0.00000   0.00000   0.00000   0.00000   0.00000   0.00000   0.00000   0.00000
Generated with MDTraj, t= 77.0
 47
    1UNL     C1    1  -0.439   0.074  -0.021
    1UNL     C2    2  -0.381  -0.042  -0.098
    1UNL     C3    3  -0.246  -0.047  -0.131
    1UNL     C4    4  -0.192  -0.144  -0.243
    1UNL     N1    5  -0.041  -0.150  -0.262
    1UNL     C5    6   0.038  -0.239  -0.172
    1UNL     C6    7  -0.002  -0.220  -0.023
    1UNL     C7    8   0.051  -0.078   0.005
    1UNL     C8    9   0.172  -0.064   0.097
    1UNL     C9   10   0.176  -0.085   0.233
    1UNL    C10   11   0.275  -0.019   0.306
    1UNL    C11   12   0.376   0.057   0.245
    1UNL    C12   13   0.381   0.069   0.105
    1UNL    C13   14   0.269   0.018   0.032
    1UNL     N2   15   0.248   0.032  -0.105
    1UNL    C14   16   0.133  -0.044  -0.135
    1UNL     O1   17   0.173  -0.176  -0.186
    1UNL    C15   18   0.032  -0.014  -0.252
    1UNL    C16   19  -0.058   0.097  -0.216
    1UNL    C17   20  -0.148   0.061  -0.088
    1UNL    C18   21  -0.064   0.021   0.032
    1UNL    C19   22  -0.009   0.145   0.102
    1UNL     O2   23   0.037   0.235   0.033
    1UNL     O3   24  -0.022   0.157   0.240
    1UNL    C20   25   0.052   0.266   0.277
    1UNL     H1   26  -0.445   0.041   0.088
    1UNL     H2   27  -0.382   0.167  -0.023
    1UNL     H3   28  -0.542   0.091  -0.047
    1UNL     H4   29  -0.449  -0.111  -0.131
    1UNL     H5   30  -0.218  -0.247  -0.221
    1UNL     H6   31  -0.237  -0.125  -0.340
    1UNL     H7   32   0.043  -0.346  -0.206
    1UNL     H8   33  -0.106  -0.228  -0.002
    1UNL     H9   34   0.056  -0.280   0.043
    1UNL    H10   35   0.098  -0.136   0.280
    1UNL    H11   36   0.281  -0.034   0.412
    1UNL    H12   37   0.458   0.111   0.287
    1UNL    H13   38   0.447   0.131   0.048
    1UNL    H14   39   0.322  -0.008  -0.158
    1UNL    H15   40   0.087   0.006  -0.343
    1UNL    H16   41  -0.131   0.132  -0.296
    1UNL    H17   42   0.014   0.180  -0.195
    1UNL    H18   43  -0.207   0.142  -0.062
    1UNL    H19   44  -0.139  -0.037   0.092
    1UNL    H20   45   0.048   0.284   0.382
    1UNL    H21   46   0.026   0.358   0.220
    1UNL    H22   47   0.154   0.248   0.248
   0.00000   0.00000   0.00000   0.00000   0.00000   0.00000   0.00000   0.00000   0.00000
Generated with MDTraj, t= 78.0
 47
    1UNL     C1    1  -0.461   0.029  -0.022
    1UNL     C2    2  -0.374  -0.053  -0.113
    1UNL     C3    3  -0.244  -0.042  -0.146
    1UNL     C4    4  -0.193  -0.141  -0.244
    1UNL     N1    5  -0.046  -0.157  -0.254
    1UNL     C5    6   0.042  -0.241  -0.163
    1UNL     C6    7  -0.009  -0.207  -0.014
    1UNL     C7    8   0.045  -0.064  -0.001
    1UNL     C8    9   0.157  -0.046   0.106
    1UNL     C9   10   0.170  -0.081   0.236
    1UNL    C10   11   0.283  -0.039   0.309
    1UNL    C11   12   0.385   0.040   0.247
    1UNL    C12   13   0.373   0.063   0.112
    1UNL    C13   14   0.258   0.024   0.045
    1UNL     N2   15   0.241   0.039  -0.101
    1UNL    C14   16   0.133  -0.051  -0.136
    1UNL     O1   17   0.176  -0.182  -0.164
    1UNL    C15   18   0.024  -0.016  -0.249
    1UNL    C16   19  -0.066   0.108  -0.222
    1UNL    C17   20  -0.153   0.076  -0.100
    1UNL    C18   21  -0.068   0.042   0.022
    1UNL    C19   22  -0.003   0.163   0.094
    1UNL     O2   23   0.028   0.257   0.026
    1UNL     O3   24   0.016   0.147   0.229
    1UNL    C20   25   0.086   0.252   0.276
    1UNL     H1   26  -0.410   0.030   0.083
    1UNL     H2   27  -0.465   0.136  -0.046
    1UNL     H3   28  -0.555  -0.018  -0.015
    1UNL     H4   29  -0.432  -0.141  -0.163
    1UNL     H5   30  -0.244  -0.236  -0.240
    1UNL     H6   31  -0.219  -0.100  -0.343
    1UNL     H7   32   0.042  -0.350  -0.195
    1UNL     H8   33  -0.116  -0.213  -0.016
    1UNL     H9   34   0.031  -0.275   0.056
    1UNL    H10   35   0.105  -0.158   0.283
    1UNL    H11   36   0.309  -0.077   0.412
    1UNL    H12   37   0.462   0.080   0.315
    1UNL    H13   38   0.433   0.134   0.055
    1UNL    H14   39   0.325   0.034  -0.156
    1UNL    H15   40   0.067   0.002  -0.347
    1UNL    H16   41  -0.120   0.135  -0.318
    1UNL    H17   42  -0.005   0.193  -0.186
    1UNL    H18   43  -0.206   0.162  -0.077
    1UNL    H19   44  -0.139  -0.004   0.094
    1UNL    H20   45   0.123   0.223   0.373
    1UNL    H21   46   0.020   0.341   0.291
    1UNL    H22   47   0.162   0.285   0.209
   0.00000   0.00000   0.00000   0.00000   0.00000   0.00000   0.00000   0.00000   0.00000
Generated with MDTraj, t= 79.0
 47
    1UNL     C1    1  -0.421   0.028   0.017
    1UNL     C2    2  -0.361  -0.058  -0.090
    1UNL     C3    3  -0.243  -0.041  -0.144
    1UNL     C4    4  -0.184  -0.142  -0.245
    1UNL     N1    5  -0.040  -0.146  -0.265
    1UNL     C5    6   0.044  -0.236  -0.169
    1UNL     C6    7  -0.003  -0.212  -0.023
    1UNL     C7    8   0.045  -0.066   0.008
    1UNL     C8    9   0.156  -0.049   0.106
    1UNL     C9   10   0.165  -0.083   0.239
    1UNL    C10   11   0.285  -0.073   0.311
    1UNL    C11   12   0.395  -0.018   0.245
    1UNL    C12   13   0.380   0.033   0.122
    1UNL    C13   14   0.265   0.014   0.044
    1UNL     N2   15   0.243   0.037  -0.092
    1UNL    C14   16   0.134  -0.041  -0.126
    1UNL     O1   17   0.177  -0.173  -0.175
    1UNL    C15   18   0.036  -0.016  -0.248
    1UNL    C16   19  -0.054   0.108  -0.225
    1UNL    C17   20  -0.149   0.070  -0.107
    1UNL    C18   21  -0.072   0.040   0.026
    1UNL    C19   22  -0.031   0.180   0.084
    1UNL     O2   23  -0.036   0.281   0.017
    1UNL     O3   24   0.013   0.170   0.216
    1UNL    C20   25   0.065   0.297   0.251
    1UNL     H1   26  -0.350   0.078   0.095
    1UNL     H2   27  -0.473   0.121  -0.007
    1UNL     H3   28  -0.489  -0.034   0.068
    1UNL     H4   29  -0.396  -0.149  -0.125
    1UNL     H5   30  -0.208  -0.240  -0.209
    1UNL     H6   31  -0.231  -0.137  -0.345
    1UNL     H7   32   0.060  -0.343  -0.195
    1UNL     H8   33  -0.108  -0.229  -0.032
    1UNL     H9   34   0.035  -0.279   0.048
    1UNL    H10   35   0.087  -0.146   0.269
    1UNL    H11   36   0.288  -0.115   0.404
    1UNL    H12   37   0.483   0.003   0.297
    1UNL    H13   38   0.444   0.106   0.078
    1UNL    H14   39   0.326   0.022  -0.149
    1UNL    H15   40   0.100  -0.002  -0.336
    1UNL    H16   41  -0.118   0.135  -0.313
    1UNL    H17   42   0.013   0.190  -0.191
    1UNL    H18   43  -0.207   0.156  -0.097
    1UNL    H19   44  -0.138   0.006   0.110
    1UNL    H20   45   0.068   0.309   0.360
    1UNL    H21   46  -0.005   0.378   0.212
    1UNL    H22   47   0.158   0.324   0.207
   0.00000   0.00000   0.00000   0.00000   0.00000   0.00000   0.00000   0.00000   0.00000
Generated with MDTraj, t= 80.0
 47
    1UNL     C1    1  -0.406   0.002   0.025
    1UNL     C2    2  -0.352  -0.088  -0.076
    1UNL     C3    3  -0.237  -0.065  -0.140
    1UNL     C4    4  -0.182  -0.144  -0.252
    1UNL     N1    5  -0.038  -0.137  -0.273
    1UNL     C5    6   0.036  -0.226  -0.167
    1UNL     C6    7  -0.014  -0.205  -0.017
    1UNL     C7    8   0.043  -0.056   0.001
    1UNL     C8    9   0.157  -0.055   0.105
    1UNL     C9   10   0.158  -0.092   0.239
    1UNL    C10   11   0.281  -0.096   0.303
    1UNL    C11   12   0.393  -0.039   0.249
    1UNL    C12   13   0.392   0.017   0.123
    1UNL    C13   14   0.274   0.002   0.050
    1UNL     N2   15   0.257   0.031  -0.085
    1UNL    C14   16   0.132  -0.039  -0.129
    1UNL     O1   17   0.168  -0.173  -0.161
    1UNL    C15   18   0.033  -0.002  -0.251
    1UNL    C16   19  -0.066   0.116  -0.219
    1UNL    C17   20  -0.152   0.074  -0.104
    1UNL    C18   21  -0.061   0.057   0.022
    1UNL    C19   22  -0.020   0.196   0.076
    1UNL     O2   23  -0.031   0.297   0.010
    1UNL     O3   24   0.022   0.193   0.201
    1UNL    C20   25   0.031   0.327   0.246
    1UNL     H1   26  -0.355  -0.005   0.123
    1UNL     H2   27  -0.393   0.108  -0.003
    1UNL     H3   28  -0.510  -0.024   0.034
    1UNL     H4   29  -0.407  -0.185  -0.086
    1UNL     H5   30  -0.214  -0.246  -0.251
    1UNL     H6   31  -0.225  -0.102  -0.346
    1UNL     H7   32   0.036  -0.330  -0.204
    1UNL     H8   33  -0.118  -0.220  -0.003
    1UNL     H9   34   0.031  -0.271   0.052
    1UNL    H10   35   0.071  -0.143   0.287
    1UNL    H11   36   0.291  -0.155   0.399
    1UNL    H12   37   0.491  -0.019   0.297
    1UNL    H13   38   0.469   0.077   0.072
    1UNL    H14   39   0.336   0.004  -0.148
    1UNL    H15   40   0.095   0.019  -0.339
    1UNL    H16   41  -0.120   0.140  -0.314
    1UNL    H17   42  -0.015   0.206  -0.178
    1UNL    H18   43  -0.218   0.154  -0.090
    1UNL    H19   44  -0.137   0.019   0.094
    1UNL    H20   45   0.081   0.325   0.346
    1UNL    H21   46  -0.076   0.366   0.262
    1UNL    H22   47   0.076   0.399   0.181
   0.00000   0.00000   0.00000   0.00000   0.00000   0.00000   0.00000   0.00000   0.00000
Generated with MDTraj, t= 81.0
 47
    1UNL     C1    1  -0.396  -0.025   0.037
    1UNL     C2    2  -0.362  -0.085  -0.099
    1UNL     C3    3  -0.242  -0.049  -0.147
    1UNL     C4    4  -0.186  -0.126  -0.266
    1UNL     N1    5  -0.038  -0.135  -0.261
    1UNL     C5    6   0.026  -0.226  -0.156
    1UNL     C6    7  -0.014  -0.199  -0.010
    1UNL     C7    8   0.043  -0.057   0.005
    1UNL     C8    9   0.157  -0.044   0.108
    1UNL     C9   10   0.156  -0.091   0.235
    1UNL    C10   11   0.280  -0.090   0.305
    1UNL    C11   12   0.386  -0.025   0.248
    1UNL    C12   13   0.385   0.025   0.117
    1UNL    C13   14   0.268   0.019   0.049
    1UNL     N2   15   0.246   0.043  -0.097
    1UNL    C14   16   0.134  -0.042  -0.125
    1UNL     O1   17   0.173  -0.182  -0.157
    1UNL    C15   18   0.039  -0.001  -0.242
    1UNL    C16   19  -0.067   0.117  -0.216
    1UNL    C17   20  -0.164   0.077  -0.103
    1UNL    C18   21  -0.076   0.048   0.029
    1UNL    C19   22  -0.018   0.182   0.073
    1UNL     O2   23   0.016   0.277   0.002
    1UNL     O3   24  -0.004   0.186   0.212
    1UNL    C20   25   0.058   0.310   0.236
    1UNL     H1   26  -0.320  -0.047   0.101
    1UNL     H2   27  -0.407   0.086   0.023
    1UNL     H3   28  -0.495  -0.061   0.066
    1UNL     H4   29  -0.410  -0.178  -0.131
    1UNL     H5   30  -0.218  -0.227  -0.279
    1UNL     H6   31  -0.215  -0.078  -0.363
    1UNL     H7   32   0.017  -0.330  -0.183
    1UNL     H8   33  -0.118  -0.197   0.005
    1UNL     H9   34   0.025  -0.264   0.065
    1UNL    H10   35   0.071  -0.124   0.291
    1UNL    H11   36   0.300  -0.137   0.397
    1UNL    H12   37   0.470  -0.021   0.313
    1UNL    H13   38   0.473   0.070   0.079
    1UNL    H14   39   0.328   0.034  -0.160
    1UNL    H15   40   0.108   0.013  -0.327
    1UNL    H16   41  -0.136   0.134  -0.301
    1UNL    H17   42  -0.014   0.214  -0.200
    1UNL    H18   43  -0.240   0.150  -0.097
    1UNL    H19   44  -0.141   0.013   0.111
    1UNL    H20   45   0.118   0.293   0.328
    1UNL    H21   46  -0.027   0.384   0.260
    1UNL    H22   47   0.117   0.349   0.157
   0.00000   0.00000   0.00000   0.00000   0.00000   0.00000   0.00000   0.00000   0.00000
Generated with MDTraj, t= 82.0
 47
    1UNL     C1    1  -0.417  -0.006   0.037
    1UNL     C2    2  -0.349  -0.075  -0.077
    1UNL     C3    3  -0.235  -0.045  -0.137
    1UNL     C4    4  -0.189  -0.134  -0.252
    1UNL     N1    5  -0.041  -0.138  -0.265
    1UNL     C5    6   0.044  -0.236  -0.169
    1UNL     C6    7  -0.015  -0.215  -0.022
    1UNL     C7    8   0.041  -0.070  -0.003
    1UNL     C8    9   0.154  -0.063   0.096
    1UNL     C9   10   0.154  -0.096   0.229
    1UNL    C10   11   0.256  -0.048   0.302
    1UNL    C11   12   0.367   0.016   0.253
    1UNL    C12   13   0.374   0.045   0.124
    1UNL    C13   14   0.261   0.023   0.047
    1UNL     N2   15   0.243   0.044  -0.090
    1UNL    C14   16   0.129  -0.043  -0.136
    1UNL     O1   17   0.174  -0.181  -0.175
    1UNL    C15   18   0.026   0.000  -0.257
    1UNL    C16   19  -0.073   0.116  -0.220
    1UNL    C17   20  -0.149   0.076  -0.101
    1UNL    C18   21  -0.067   0.040   0.027
    1UNL    C19   22  -0.001   0.172   0.081
    1UNL     O2   23   0.048   0.262   0.013
    1UNL     O3   24  -0.010   0.179   0.210
    1UNL    C20   25   0.078   0.279   0.256
    1UNL     H1   26  -0.402  -0.050   0.127
    1UNL     H2   27  -0.387   0.101   0.042
    1UNL     H3   28  -0.522   0.022   0.012
    1UNL     H4   29  -0.390  -0.169  -0.097
    1UNL     H5   30  -0.227  -0.232  -0.232
    1UNL     H6   31  -0.233  -0.104  -0.352
    1UNL     H7   32   0.048  -0.337  -0.205
    1UNL     H8   33  -0.121  -0.215  -0.016
    1UNL     H9   34   0.025  -0.284   0.047
    1UNL    H10   35   0.070  -0.147   0.273
    1UNL    H11   36   0.247  -0.071   0.409
    1UNL    H12   37   0.457   0.037   0.311
    1UNL    H13   38   0.462   0.098   0.082
    1UNL    H14   39   0.314   0.078  -0.157
    1UNL    H15   40   0.091   0.021  -0.345
    1UNL    H16   41  -0.138   0.139  -0.305
    1UNL    H17   42  -0.024   0.215  -0.192
    1UNL    H18   43  -0.206   0.158  -0.068
    1UNL    H19   44  -0.135   0.005   0.108
    1UNL    H20   45   0.013   0.340   0.323
    1UNL    H21   46   0.113   0.341   0.168
    1UNL    H22   47   0.157   0.238   0.308
   0.00000   0.00000   0.00000   0.00000   0.00000   0.00000   0.00000   0.00000   0.00000
Generated with MDTraj, t= 83.0
 47
    1UNL     C1    1  -0.414   0.020   0.031
    1UNL     C2    2  -0.356  -0.058  -0.077
    1UNL     C3    3  -0.240  -0.036  -0.132
    1UNL     C4    4  -0.200  -0.126  -0.246
    1UNL     N1    5  -0.055  -0.136  -0.274
    1UNL     C5    6   0.027  -0.234  -0.191
    1UNL     C6    7  -0.011  -0.225  -0.034
    1UNL     C7    8   0.055  -0.084  -0.002
    1UNL     C8    9   0.170  -0.065   0.098
    1UNL     C9   10   0.173  -0.086   0.242
    1UNL    C10   11   0.263  -0.019   0.317
    1UNL    C11   12   0.359   0.054   0.257
    1UNL    C12   13   0.366   0.068   0.123
    1UNL    C13   14   0.268   0.014   0.036
    1UNL     N2   15   0.239   0.031  -0.099
    1UNL    C14   16   0.132  -0.055  -0.142
    1UNL     O1   17   0.169  -0.193  -0.191
    1UNL    C15   18   0.033  -0.009  -0.252
    1UNL    C16   19  -0.053   0.117  -0.223
    1UNL    C17   20  -0.142   0.074  -0.097
    1UNL    C18   21  -0.059   0.027   0.029
    1UNL    C19   22  -0.008   0.157   0.090
    1UNL     O2   23   0.045   0.251   0.027
    1UNL     O3   24  -0.004   0.151   0.225
    1UNL    C20   25   0.052   0.272   0.264
    1UNL     H1   26  -0.425  -0.039   0.120
    1UNL     H2   27  -0.359   0.111   0.054
    1UNL     H3   28  -0.502   0.077  -0.004
    1UNL     H4   29  -0.422  -0.145  -0.116
    1UNL     H5   30  -0.238  -0.224  -0.224
    1UNL     H6   31  -0.258  -0.089  -0.335
    1UNL     H7   32   0.036  -0.334  -0.231
    1UNL     H8   33  -0.117  -0.232  -0.018
    1UNL     H9   34   0.037  -0.309   0.008
    1UNL    H10   35   0.089  -0.145   0.283
    1UNL    H11   36   0.270  -0.024   0.426
    1UNL    H12   37   0.429   0.107   0.318
    1UNL    H13   38   0.441   0.130   0.082
    1UNL    H14   39   0.314   0.028  -0.168
    1UNL    H15   40   0.097  -0.001  -0.344
    1UNL    H16   41  -0.121   0.144  -0.307
    1UNL    H17   42   0.011   0.208  -0.206
    1UNL    H18   43  -0.201   0.157  -0.069
    1UNL    H19   44  -0.123  -0.017   0.108
    1UNL    H20   45  -0.003   0.344   0.200
    1UNL    H21   46   0.160   0.269   0.237
    1UNL    H22   47   0.025   0.294   0.361
   0.00000   0.00000   0.00000   0.00000   0.00000   0.00000   0.00000   0.00000   0.00000
Generated with MDTraj, t= 84.0
 47
    1UNL     C1    1  -0.419   0.027   0.025
    1UNL     C2    2  -0.360  -0.052  -0.089
    1UNL     C3    3  -0.239  -0.038  -0.147
    1UNL     C4    4  -0.197  -0.144  -0.256
    1UNL     N1    5  -0.051  -0.155  -0.276
    1UNL     C5    6   0.023  -0.239  -0.167
    1UNL     C6    7  -0.009  -0.213  -0.016
    1UNL     C7    8   0.053  -0.064  -0.004
    1UNL     C8    9   0.170  -0.040   0.096
    1UNL     C9   10   0.168  -0.064   0.232
    1UNL    C10   11   0.281  -0.030   0.297
    1UNL    C11   12   0.387   0.035   0.234
    1UNL    C12   13   0.388   0.061   0.101
    1UNL    C13   14   0.277   0.022   0.036
    1UNL     N2   15   0.259   0.028  -0.108
    1UNL    C14   16   0.130  -0.053  -0.148
    1UNL     O1   17   0.157  -0.193  -0.180
    1UNL    C15   18   0.026  -0.020  -0.267
    1UNL    C16   19  -0.046   0.107  -0.229
    1UNL    C17   20  -0.137   0.071  -0.107
    1UNL    C18   21  -0.061   0.046   0.021
    1UNL    C19   22  -0.014   0.157   0.105
    1UNL     O2   23   0.036   0.258   0.058
    1UNL     O3   24  -0.030   0.151   0.241
    1UNL    C20   25   0.022   0.268   0.301
    1UNL     H1   26  -0.510  -0.030   0.060
    1UNL     H2   27  -0.349   0.042   0.101
    1UNL     H3   28  -0.436   0.125  -0.016
    1UNL     H4   29  -0.426  -0.123  -0.119
    1UNL     H5   30  -0.236  -0.239  -0.222
    1UNL     H6   31  -0.250  -0.124  -0.352
    1UNL     H7   32   0.015  -0.347  -0.190
    1UNL     H8   33  -0.115  -0.213   0.003
    1UNL     H9   34   0.041  -0.287   0.040
    1UNL    H10   35   0.095  -0.123   0.280
    1UNL    H11   36   0.293  -0.048   0.400
    1UNL    H12   37   0.466   0.057   0.305
    1UNL    H13   38   0.479   0.105   0.060
    1UNL    H14   39   0.337   0.006  -0.167
    1UNL    H15   40   0.087  -0.000  -0.360
    1UNL    H16   41  -0.110   0.138  -0.315
    1UNL    H17   42   0.021   0.194  -0.207
    1UNL    H18   43  -0.196   0.159  -0.095
    1UNL    H19   44  -0.132  -0.011   0.084
    1UNL    H20   45   0.017   0.352   0.230
    1UNL    H21   46   0.127   0.244   0.324
    1UNL    H22   47  -0.036   0.293   0.384
   0.00000   0.00000   0.00000   0.00000   0.00000   0.00000   0.00000   0.00000   0.00000
Generated with MDTraj, t= 85.0
 47
    1UNL     C1    1  -0.418   0.042   0.008
    1UNL     C2    2  -0.368  -0.050  -0.090
    1UNL     C3    3  -0.247  -0.043  -0.141
    1UNL     C4    4  -0.193  -0.148  -0.239
    1UNL     N1    5  -0.046  -0.152  -0.254
    1UNL     C5    6   0.031  -0.241  -0.154
    1UNL     C6    7   0.000  -0.204  -0.010
    1UNL     C7    8   0.055  -0.054  -0.001
    1UNL     C8    9   0.171  -0.032   0.102
    1UNL     C9   10   0.190  -0.059   0.239
    1UNL    C10   11   0.315  -0.047   0.297
    1UNL    C11   12   0.420  -0.005   0.224
    1UNL    C12   13   0.402   0.031   0.088
    1UNL    C13   14   0.282   0.018   0.019
    1UNL     N2   15   0.256   0.044  -0.115
    1UNL    C14   16   0.136  -0.038  -0.144
    1UNL     O1   17   0.171  -0.182  -0.173
    1UNL    C15   18   0.036  -0.018  -0.256
    1UNL    C16   19  -0.048   0.107  -0.232
    1UNL    C17   20  -0.153   0.076  -0.106
    1UNL    C18   21  -0.074   0.043   0.021
    1UNL    C19   22  -0.033   0.162   0.101
    1UNL     O2   23   0.033   0.250   0.049
    1UNL     O3   24  -0.081   0.161   0.229
    1UNL    C20   25  -0.011   0.261   0.296
    1UNL     H1   26  -0.513   0.091  -0.033
    1UNL     H2   27  -0.433  -0.003   0.103
    1UNL     H3   28  -0.346   0.115   0.029
    1UNL     H4   29  -0.444  -0.124  -0.133
    1UNL     H5   30  -0.230  -0.244  -0.205
    1UNL     H6   31  -0.244  -0.126  -0.335
    1UNL     H7   32   0.017  -0.348  -0.184
    1UNL     H8   33  -0.103  -0.197   0.012
    1UNL     H9   34   0.046  -0.263   0.066
    1UNL    H10   35   0.110  -0.101   0.301
    1UNL    H11   36   0.320  -0.070   0.406
    1UNL    H12   37   0.520   0.009   0.260
    1UNL    H13   38   0.494   0.066   0.045
    1UNL    H14   39   0.327   0.019  -0.179
    1UNL    H15   40   0.102  -0.008  -0.348
    1UNL    H16   41  -0.096   0.148  -0.326
    1UNL    H17   42   0.022   0.186  -0.202
    1UNL    H18   43  -0.208   0.166  -0.089
    1UNL    H19   44  -0.137  -0.022   0.084
    1UNL    H20   45  -0.071   0.354   0.302
    1UNL    H21   46   0.078   0.285   0.236
    1UNL    H22   47   0.029   0.226   0.389
   0.00000   0.00000   0.00000   0.00000   0.00000   0.00000   0.00000   0.00000   0.00000
Generated with MDTraj, t= 86.0
 47
    1UNL     C1    1  -0.431   0.050  -0.007
    1UNL     C2    2  -0.360  -0.054  -0.083
    1UNL     C3    3  -0.239  -0.045  -0.131
    1UNL     C4    4  -0.190  -0.149  -0.238
    1UNL     N1    5  -0.046  -0.149  -0.253
    1UNL     C5    6   0.041  -0.241  -0.166
    1UNL     C6    7  -0.006  -0.208  -0.018
    1UNL     C7    8   0.058  -0.063   0.003
    1UNL     C8    9   0.176  -0.058   0.092
    1UNL     C9   10   0.190  -0.101   0.221
    1UNL    C10   11   0.314  -0.062   0.282
    1UNL    C11   12   0.410   0.003   0.220
    1UNL    C12   13   0.402   0.042   0.088
    1UNL    C13   14   0.284   0.008   0.025
    1UNL     N2   15   0.253   0.051  -0.101
    1UNL    C14   16   0.135  -0.044  -0.145
    1UNL     O1   17   0.171  -0.186  -0.177
    1UNL    C15   18   0.025  -0.011  -0.246
    1UNL    C16   19  -0.059   0.112  -0.200
    1UNL    C17   20  -0.143   0.064  -0.080
    1UNL    C18   21  -0.053   0.039   0.037
    1UNL    C19   22  -0.009   0.168   0.100
    1UNL     O2   23   0.030   0.263   0.037
    1UNL     O3   24  -0.050   0.169   0.234
    1UNL    C20   25  -0.059   0.299   0.271
    1UNL     H1   26  -0.396   0.151  -0.040
    1UNL     H2   27  -0.538   0.051  -0.021
    1UNL     H3   28  -0.428   0.038   0.097
    1UNL     H4   29  -0.415  -0.131  -0.131
    1UNL     H5   30  -0.229  -0.248  -0.211
    1UNL     H6   31  -0.234  -0.127  -0.337
    1UNL     H7   32   0.033  -0.352  -0.189
    1UNL     H8   33  -0.112  -0.209  -0.011
    1UNL     H9   34   0.025  -0.273   0.061
    1UNL    H10   35   0.111  -0.153   0.273
    1UNL    H11   36   0.329  -0.093   0.380
    1UNL    H12   37   0.499   0.026   0.277
    1UNL    H13   38   0.471   0.104   0.034
    1UNL    H14   39   0.322   0.053  -0.175
    1UNL    H15   40   0.070   0.011  -0.347
    1UNL    H16   41  -0.131   0.151  -0.279
    1UNL    H17   42   0.003   0.198  -0.167
    1UNL    H18   43  -0.200   0.148  -0.044
    1UNL    H19   44  -0.107  -0.014   0.116
    1UNL    H20   45  -0.129   0.354   0.201
    1UNL    H21   46   0.041   0.343   0.265
    1UNL    H22   47  -0.085   0.300   0.378
   0.00000   0.00000   0.00000   0.00000   0.00000   0.00000   0.00000   0.00000   0.00000
Generated with MDTraj, t= 87.0
 47
    1UNL     C1    1  -0.434   0.039   0.015
    1UNL     C2    2  -0.380  -0.049  -0.095
    1UNL     C3    3  -0.250  -0.047  -0.129
    1UNL     C4    4  -0.193  -0.142  -0.230
    1UNL     N1    5  -0.048  -0.141  -0.253
    1UNL     C5    6   0.046  -0.235  -0.171
    1UNL     C6    7   0.010  -0.222  -0.027
    1UNL     C7    8   0.062  -0.073   0.002
    1UNL     C8    9   0.185  -0.051   0.093
    1UNL     C9   10   0.194  -0.101   0.219
    1UNL    C10   11   0.303  -0.074   0.296
    1UNL    C11   12   0.408   0.006   0.234
    1UNL    C12   13   0.392   0.056   0.108
    1UNL    C13   14   0.280   0.024   0.028
    1UNL     N2   15   0.242   0.051  -0.106
    1UNL    C14   16   0.129  -0.042  -0.138
    1UNL     O1   17   0.177  -0.170  -0.183
    1UNL    C15   18   0.026  -0.003  -0.243
    1UNL    C16   19  -0.062   0.115  -0.197
    1UNL    C17   20  -0.154   0.060  -0.077
    1UNL    C18   21  -0.062   0.021   0.043
    1UNL    C19   22  -0.015   0.161   0.092
    1UNL     O2   23   0.054   0.237   0.028
    1UNL     O3   24  -0.066   0.184   0.217
    1UNL    C20   25  -0.016   0.303   0.247
    1UNL     H1   26  -0.399   0.139  -0.005
    1UNL     H2   27  -0.542   0.036   0.025
    1UNL     H3   28  -0.401  -0.005   0.109
    1UNL     H4   29  -0.453  -0.096  -0.161
    1UNL     H5   30  -0.210  -0.245  -0.196
    1UNL     H6   31  -0.251  -0.139  -0.324
    1UNL     H7   32   0.056  -0.337  -0.216
    1UNL     H8   33  -0.092  -0.247  -0.020
    1UNL     H9   34   0.062  -0.290   0.036
    1UNL    H10   35   0.114  -0.154   0.268
    1UNL    H11   36   0.314  -0.110   0.400
    1UNL    H12   37   0.500   0.006   0.287
    1UNL    H13   38   0.469   0.131   0.086
    1UNL    H14   39   0.315   0.033  -0.175
    1UNL    H15   40   0.067   0.013  -0.348
    1UNL    H16   41  -0.129   0.157  -0.277
    1UNL    H17   42  -0.003   0.201  -0.156
    1UNL    H18   43  -0.211   0.143  -0.040
    1UNL    H19   44  -0.119  -0.039   0.114
    1UNL    H20   45  -0.031   0.370   0.157
    1UNL    H21   46   0.091   0.293   0.265
    1UNL    H22   47  -0.061   0.340   0.343
   0.00000   0.00000   0.00000   0.00000   0.00000   0.00000   0.00000   0.00000   0.00000
Generated with MDTraj, t= 88.0
 47
    1UNL     C1    1  -0.435  -0.002   0.021
    1UNL     C2    2  -0.350  -0.087  -0.070
    1UNL     C3    3  -0.240  -0.051  -0.135
    1UNL     C4    4  -0.196  -0.148  -0.245
    1UNL     N1    5  -0.049  -0.135  -0.275
    1UNL     C5    6   0.032  -0.230  -0.184
    1UNL     C6    7  -0.008  -0.208  -0.027
    1UNL     C7    8   0.049  -0.062  -0.002
    1UNL     C8    9   0.166  -0.048   0.099
    1UNL     C9   10   0.168  -0.084   0.234
    1UNL    C10   11   0.287  -0.056   0.295
    1UNL    C11   12   0.399   0.012   0.234
    1UNL    C12   13   0.392   0.048   0.105
    1UNL    C13   14   0.274   0.019   0.034
    1UNL     N2   15   0.245   0.039  -0.096
    1UNL    C14   16   0.131  -0.039  -0.142
    1UNL     O1   17   0.162  -0.176  -0.174
    1UNL    C15   18   0.024  -0.002  -0.259
    1UNL    C16   19  -0.072   0.110  -0.224
    1UNL    C17   20  -0.152   0.073  -0.101
    1UNL    C18   21  -0.059   0.044   0.028
    1UNL    C19   22  -0.000   0.169   0.095
    1UNL     O2   23   0.088   0.238   0.051
    1UNL     O3   24  -0.057   0.194   0.218
    1UNL    C20   25   0.018   0.293   0.281
    1UNL     H1   26  -0.507   0.043  -0.038
    1UNL     H2   27  -0.474  -0.054   0.110
    1UNL     H3   28  -0.371   0.075   0.068
    1UNL     H4   29  -0.414  -0.162  -0.126
    1UNL     H5   30  -0.223  -0.255  -0.228
    1UNL     H6   31  -0.240  -0.135  -0.344
    1UNL     H7   32   0.037  -0.334  -0.220
    1UNL     H8   33  -0.111  -0.224  -0.004
    1UNL     H9   34   0.041  -0.270   0.044
    1UNL    H10   35   0.076  -0.120   0.277
    1UNL    H11   36   0.301  -0.090   0.395
    1UNL    H12   37   0.491   0.028   0.296
    1UNL    H13   38   0.475   0.090   0.052
    1UNL    H14   39   0.314   0.037  -0.173
    1UNL    H15   40   0.087   0.032  -0.348
    1UNL    H16   41  -0.144   0.148  -0.300
    1UNL    H17   42  -0.010   0.201  -0.191
    1UNL    H18   43  -0.212   0.158  -0.074
    1UNL    H19   44  -0.117  -0.001   0.109
    1UNL    H20   45  -0.004   0.391   0.232
    1UNL    H21   46   0.124   0.279   0.269
    1UNL    H22   47  -0.004   0.294   0.392
   0.00000   0.00000   0.00000   0.00000   0.00000   0.00000   0.00000   0.00000   0.00000
Generated with MDTraj, t= 89.0
 47
    1UNL     C1    1  -0.374  -0.014   0.062
    1UNL     C2    2  -0.348  -0.070  -0.076
    1UNL     C3    3  -0.239  -0.037  -0.146
    1UNL     C4    4  -0.193  -0.112  -0.267
    1UNL     N1    5  -0.047  -0.129  -0.271
    1UNL     C5    6   0.013  -0.232  -0.181
    1UNL     C6    7  -0.012  -0.210  -0.032
    1UNL     C7    8   0.053  -0.070  -0.003
    1UNL     C8    9   0.165  -0.057   0.103
    1UNL     C9   10   0.168  -0.070   0.244
    1UNL    C10   11   0.288  -0.036   0.313
    1UNL    C11   12   0.393   0.018   0.247
    1UNL    C12   13   0.388   0.039   0.108
    1UNL    C13   14   0.273   0.008   0.035
    1UNL     N2   15   0.254   0.022  -0.104
    1UNL    C14   16   0.135  -0.055  -0.140
    1UNL     O1   17   0.159  -0.193  -0.191
    1UNL    C15   18   0.042  -0.004  -0.255
    1UNL    C16   19  -0.051   0.112  -0.222
    1UNL    C17   20  -0.145   0.078  -0.106
    1UNL    C18   21  -0.070   0.037   0.023
    1UNL    C19   22  -0.028   0.164   0.093
    1UNL     O2   23   0.003   0.261   0.028
    1UNL     O3   24  -0.024   0.164   0.229
    1UNL    C20   25   0.016   0.297   0.275
    1UNL     H1   26  -0.472  -0.002   0.092
    1UNL     H2   27  -0.318  -0.060   0.144
    1UNL     H3   28  -0.332   0.088   0.076
    1UNL     H4   29  -0.419  -0.131  -0.117
    1UNL     H5   30  -0.220  -0.219  -0.257
    1UNL     H6   31  -0.242  -0.090  -0.363
    1UNL     H7   32  -0.007  -0.332  -0.217
    1UNL     H8   33  -0.119  -0.222  -0.017
    1UNL     H9   34   0.035  -0.282   0.029
    1UNL    H10   35   0.073  -0.103   0.283
    1UNL    H11   36   0.286  -0.046   0.423
    1UNL    H12   37   0.474   0.053   0.305
    1UNL    H13   38   0.474   0.065   0.047
    1UNL    H14   39   0.329  -0.008  -0.169
    1UNL    H15   40   0.105   0.014  -0.348
    1UNL    H16   41  -0.111   0.137  -0.312
    1UNL    H17   42  -0.003   0.213  -0.195
    1UNL    H18   43  -0.207   0.167  -0.093
    1UNL    H19   44  -0.139  -0.012   0.091
    1UNL    H20   45   0.011   0.364   0.190
    1UNL    H21   46   0.116   0.305   0.307
    1UNL    H22   47  -0.051   0.335   0.360
   0.00000   0.00000   0.00000   0.00000   0.00000   0.00000   0.00000   0.00000   0.00000
Generated with MDTraj, t= 90.0
 47
    1UNL     C1    1  -0.404  -0.005   0.044
    1UNL     C2    2  -0.343  -0.073  -0.069
    1UNL     C3    3  -0.237  -0.039  -0.143
    1UNL     C4    4  -0.188  -0.131  -0.248
    1UNL     N1    5  -0.046  -0.144  -0.262
    1UNL     C5    6   0.033  -0.236  -0.164
    1UNL     C6    7  -0.009  -0.204  -0.015
    1UNL     C7    8   0.051  -0.057  -0.013
    1UNL     C8    9   0.162  -0.049   0.090
    1UNL     C9   10   0.149  -0.081   0.222
    1UNL    C10   11   0.259  -0.052   0.306
    1UNL    C11   12   0.374   0.010   0.244
    1UNL    C12   13   0.383   0.043   0.107
    1UNL    C13   14   0.272   0.018   0.037
    1UNL     N2   15   0.259   0.030  -0.105
    1UNL    C14   16   0.136  -0.044  -0.150
    1UNL     O1   17   0.168  -0.185  -0.175
    1UNL    C15   18   0.033  -0.009  -0.261
    1UNL    C16   19  -0.060   0.112  -0.230
    1UNL    C17   20  -0.145   0.079  -0.109
    1UNL    C18   21  -0.055   0.048   0.016
    1UNL    C19   22  -0.016   0.171   0.093
    1UNL     O2   23  -0.015   0.280   0.037
    1UNL     O3   24   0.018   0.158   0.222
    1UNL    C20   25   0.038   0.279   0.284
    1UNL     H1   26  -0.505  -0.047   0.052
    1UNL     H2   27  -0.345  -0.020   0.133
    1UNL     H3   28  -0.407   0.103   0.033
    1UNL     H4   29  -0.414  -0.155  -0.111
    1UNL     H5   30  -0.240  -0.230  -0.245
    1UNL     H6   31  -0.219  -0.100  -0.348
    1UNL     H7   32   0.024  -0.339  -0.191
    1UNL     H8   33  -0.117  -0.197  -0.009
    1UNL     H9   34   0.029  -0.276   0.053
    1UNL    H10   35   0.068  -0.134   0.271
    1UNL    H11   36   0.250  -0.072   0.409
    1UNL    H12   37   0.467   0.030   0.301
    1UNL    H13   38   0.477   0.074   0.072
    1UNL    H14   39   0.346   0.020  -0.161
    1UNL    H15   40   0.076  -0.007  -0.366
    1UNL    H16   41  -0.126   0.150  -0.313
    1UNL    H17   42   0.007   0.199  -0.203
    1UNL    H18   43  -0.213   0.166  -0.095
    1UNL    H19   44  -0.121  -0.005   0.086
    1UNL    H20   45  -0.057   0.332   0.289
    1UNL    H21   46   0.103   0.341   0.234
    1UNL    H22   47   0.078   0.249   0.386
   0.00000   0.00000   0.00000   0.00000   0.00000   0.00000   0.00000   0.00000   0.00000
Generated with MDTraj, t= 91.0
 47
    1UNL     C1    1  -0.434   0.032  -0.014
    1UNL     C2    2  -0.367  -0.070  -0.092
    1UNL     C3    3  -0.244  -0.049  -0.135
    1UNL     C4    4  -0.183  -0.135  -0.247
    1UNL     N1    5  -0.039  -0.137  -0.263
    1UNL     C5    6   0.047  -0.226  -0.169
    1UNL     C6    7  -0.002  -0.216  -0.023
    1UNL     C7    8   0.045  -0.069   0.016
    1UNL     C8    9   0.162  -0.057   0.108
    1UNL     C9   10   0.182  -0.106   0.235
    1UNL    C10   11   0.296  -0.069   0.307
    1UNL    C11   12   0.394   0.006   0.243
    1UNL    C12   13   0.381   0.055   0.109
    1UNL    C13   14   0.264   0.022   0.042
    1UNL     N2   15   0.229   0.057  -0.090
    1UNL    C14   16   0.118  -0.031  -0.119
    1UNL     O1   17   0.174  -0.159  -0.167
    1UNL    C15   18   0.024  -0.009  -0.246
    1UNL    C16   19  -0.068   0.112  -0.211
    1UNL    C17   20  -0.160   0.065  -0.090
    1UNL    C18   21  -0.075   0.027   0.034
    1UNL    C19   22  -0.025   0.164   0.086
    1UNL     O2   23   0.003   0.253   0.004
    1UNL     O3   24  -0.004   0.168   0.221
    1UNL    C20   25   0.084   0.274   0.249
    1UNL     H1   26  -0.541  -0.007  -0.010
    1UNL     H2   27  -0.388   0.031   0.082
    1UNL     H3   28  -0.427   0.130  -0.053
    1UNL     H4   29  -0.416  -0.148  -0.135
    1UNL     H5   30  -0.217  -0.241  -0.243
    1UNL     H6   31  -0.234  -0.103  -0.338
    1UNL     H7   32   0.068  -0.327  -0.205
    1UNL     H8   33  -0.109  -0.225  -0.016
    1UNL     H9   34   0.052  -0.284   0.040
    1UNL    H10   35   0.103  -0.165   0.277
    1UNL    H11   36   0.321  -0.104   0.410
    1UNL    H12   37   0.482   0.037   0.298
    1UNL    H13   38   0.448   0.128   0.057
    1UNL    H14   39   0.293   0.069  -0.170
    1UNL    H15   40   0.100   0.013  -0.328
    1UNL    H16   41  -0.121   0.135  -0.309
    1UNL    H17   42  -0.009   0.200  -0.177
    1UNL    H18   43  -0.223   0.150  -0.055
    1UNL    H19   44  -0.145  -0.002   0.113
    1UNL    H20   45   0.095   0.300   0.354
    1UNL    H21   46   0.048   0.360   0.205
    1UNL    H22   47   0.183   0.242   0.205
   0.00000   0.00000   0.00000   0.00000   0.00000   0.00000   0.00000   0.00000   0.00000
Generated with MDTraj, t= 92.0
 47
    1UNL     C1    1  -0.480   0.024  -0.047
    1UNL     C2    2  -0.378  -0.054  -0.122
    1UNL     C3    3  -0.244  -0.061  -0.130
    1UNL     C4    4  -0.183  -0.162  -0.224
    1UNL     N1    5  -0.044  -0.146  -0.252
    1UNL     C5    6   0.048  -0.230  -0.167
    1UNL     C6    7   0.005  -0.216  -0.018
    1UNL     C7    8   0.045  -0.064   0.006
    1UNL     C8    9   0.162  -0.050   0.103
    1UNL     C9   10   0.184  -0.112   0.228
    1UNL    C10   11   0.301  -0.085   0.294
    1UNL    C11   12   0.398   0.005   0.248
    1UNL    C12   13   0.381   0.054   0.121
    1UNL    C13   14   0.266   0.023   0.045
    1UNL     N2   15   0.236   0.055  -0.090
    1UNL    C14   16   0.120  -0.029  -0.133
    1UNL     O1   17   0.175  -0.157  -0.173
    1UNL    C15   18   0.012  -0.001  -0.243
    1UNL    C16   19  -0.083   0.111  -0.203
    1UNL    C17   20  -0.161   0.061  -0.083
    1UNL    C18   21  -0.066   0.040   0.034
    1UNL    C19   22   0.003   0.173   0.086
    1UNL     O2   23   0.023   0.263   0.007
    1UNL     O3   24   0.027   0.172   0.216
    1UNL    C20   25   0.068   0.290   0.275
    1UNL     H1   26  -0.554  -0.051  -0.001
    1UNL     H2   27  -0.429   0.070   0.034
    1UNL     H3   28  -0.538   0.100  -0.092
    1UNL     H4   29  -0.428  -0.131  -0.188
    1UNL     H5   30  -0.213  -0.259  -0.177
    1UNL     H6   31  -0.244  -0.165  -0.314
    1UNL     H7   32   0.059  -0.334  -0.201
    1UNL     H8   33  -0.097  -0.227   0.011
    1UNL     H9   34   0.066  -0.282   0.042
    1UNL    H10   35   0.104  -0.177   0.262
    1UNL    H11   36   0.311  -0.137   0.383
    1UNL    H12   37   0.480   0.039   0.305
    1UNL    H13   38   0.432   0.131   0.077
    1UNL    H14   39   0.322   0.055  -0.145
    1UNL    H15   40   0.056   0.019  -0.345
    1UNL    H16   41  -0.161   0.135  -0.283
    1UNL    H17   42  -0.013   0.196  -0.180
    1UNL    H18   43  -0.240   0.138  -0.060
    1UNL    H19   44  -0.126   0.014   0.121
    1UNL    H20   45   0.135   0.269   0.359
    1UNL    H21   46  -0.019   0.331   0.312
    1UNL    H22   47   0.121   0.358   0.202
   0.00000   0.00000   0.00000   0.00000   0.00000   0.00000   0.00000   0.00000   0.00000
Generated with MDTraj, t= 93.0
 47
    1UNL     C1    1  -0.418   0.059  -0.016
    1UNL     C2    2  -0.370  -0.056  -0.099
    1UNL     C3    3  -0.243  -0.046  -0.141
    1UNL     C4    4  -0.189  -0.149  -0.240
    1UNL     N1    5  -0.040  -0.145  -0.262
    1UNL     C5    6   0.042  -0.234  -0.171
    1UNL     C6    7   0.005  -0.208  -0.020
    1UNL     C7    8   0.057  -0.066   0.003
    1UNL     C8    9   0.167  -0.044   0.102
    1UNL     C9   10   0.177  -0.077   0.235
    1UNL    C10   11   0.297  -0.061   0.304
    1UNL    C11   12   0.406   0.004   0.231
    1UNL    C12   13   0.386   0.043   0.105
    1UNL    C13   14   0.269   0.019   0.041
    1UNL     N2   15   0.247   0.038  -0.102
    1UNL    C14   16   0.132  -0.044  -0.136
    1UNL     O1   17   0.177  -0.174  -0.185
    1UNL    C15   18   0.032  -0.009  -0.248
    1UNL    C16   19  -0.064   0.099  -0.212
    1UNL    C17   20  -0.153   0.061  -0.090
    1UNL    C18   21  -0.067   0.028   0.036
    1UNL    C19   22  -0.035   0.162   0.099
    1UNL     O2   23  -0.048   0.263   0.031
    1UNL     O3   24  -0.001   0.161   0.234
    1UNL    C20   25   0.051   0.284   0.271
    1UNL     H1   26  -0.525   0.045   0.015
    1UNL     H2   27  -0.353   0.054   0.070
    1UNL     H3   28  -0.415   0.159  -0.052
    1UNL     H4   29  -0.436  -0.137  -0.131
    1UNL     H5   30  -0.234  -0.250  -0.220
    1UNL     H6   31  -0.241  -0.128  -0.333
    1UNL     H7   32   0.034  -0.341  -0.209
    1UNL     H8   33  -0.095  -0.221   0.014
    1UNL     H9   34   0.061  -0.281   0.040
    1UNL    H10   35   0.097  -0.126   0.286
    1UNL    H11   36   0.318  -0.088   0.412
    1UNL    H12   37   0.504   0.022   0.281
    1UNL    H13   38   0.470   0.095   0.054
    1UNL    H14   39   0.323  -0.005  -0.151
    1UNL    H15   40   0.098   0.019  -0.336
    1UNL    H16   41  -0.119   0.121  -0.309
    1UNL    H17   42  -0.005   0.187  -0.177
    1UNL    H18   43  -0.219   0.153  -0.074
    1UNL    H19   44  -0.131  -0.013   0.114
    1UNL    H20   45   0.068   0.291   0.379
    1UNL    H21   46  -0.027   0.349   0.243
    1UNL    H22   47   0.150   0.307   0.219
   0.00000   0.00000   0.00000   0.00000   0.00000   0.00000   0.00000   0.00000   0.00000
Generated with MDTraj, t= 94.0
 47
    1UNL     C1    1  -0.417   0.034   0.019
    1UNL     C2    2  -0.351  -0.059  -0.084
    1UNL     C3    3  -0.232  -0.039  -0.148
    1UNL     C4    4  -0.193  -0.132  -0.258
    1UNL     N1    5  -0.045  -0.144  -0.254
    1UNL     C5    6   0.026  -0.241  -0.157
    1UNL     C6    7  -0.013  -0.205  -0.011
    1UNL     C7    8   0.048  -0.063  -0.003
    1UNL     C8    9   0.165  -0.042   0.097
    1UNL     C9   10   0.174  -0.065   0.233
    1UNL    C10   11   0.292  -0.030   0.299
    1UNL    C11   12   0.402   0.022   0.233
    1UNL    C12   13   0.391   0.055   0.097
    1UNL    C13   14   0.273   0.022   0.028
    1UNL     N2   15   0.258   0.015  -0.106
    1UNL    C14   16   0.136  -0.053  -0.139
    1UNL     O1   17   0.162  -0.200  -0.168
    1UNL    C15   18   0.036  -0.017  -0.257
    1UNL    C16   19  -0.048   0.108  -0.237
    1UNL    C17   20  -0.142   0.080  -0.119
    1UNL    C18   21  -0.057   0.047   0.006
    1UNL    C19   22  -0.025   0.167   0.097
    1UNL     O2   23  -0.034   0.277   0.051
    1UNL     O3   24   0.003   0.137   0.228
    1UNL    C20   25   0.017   0.255   0.307
    1UNL     H1   26  -0.521   0.010   0.038
    1UNL     H2   27  -0.357   0.016   0.108
    1UNL     H3   28  -0.421   0.143   0.008
    1UNL     H4   29  -0.411  -0.144  -0.101
    1UNL     H5   30  -0.238  -0.235  -0.248
    1UNL     H6   31  -0.235  -0.105  -0.354
    1UNL     H7   32   0.031  -0.352  -0.179
    1UNL     H8   33  -0.118  -0.217   0.011
    1UNL     H9   34   0.035  -0.272   0.059
    1UNL    H10   35   0.097  -0.123   0.282
    1UNL    H11   36   0.313  -0.054   0.398
    1UNL    H12   37   0.492   0.039   0.284
    1UNL    H13   38   0.473   0.081   0.031
    1UNL    H14   39   0.332  -0.016  -0.166
    1UNL    H15   40   0.100  -0.004  -0.349
    1UNL    H16   41  -0.109   0.127  -0.330
    1UNL    H17   42   0.019   0.197  -0.217
    1UNL    H18   43  -0.206   0.173  -0.100
    1UNL    H19   44  -0.139   0.001   0.064
    1UNL    H20   45  -0.014   0.251   0.413
    1UNL    H21   46  -0.049   0.325   0.260
    1UNL    H22   47   0.121   0.302   0.301
   0.00000   0.00000   0.00000   0.00000   0.00000   0.00000   0.00000   0.00000   0.00000
Generated with MDTraj, t= 95.0
 47
    1UNL     C1    1  -0.408   0.027   0.031
    1UNL     C2    2  -0.352  -0.043  -0.088
    1UNL     C3    3  -0.236  -0.023  -0.152
    1UNL     C4    4  -0.189  -0.129  -0.243
    1UNL     N1    5  -0.046  -0.146  -0.263
    1UNL     C5    6   0.034  -0.238  -0.168
    1UNL     C6    7   0.000  -0.219  -0.016
    1UNL     C7    8   0.051  -0.071  -0.004
    1UNL     C8    9   0.166  -0.051   0.094
    1UNL     C9   10   0.174  -0.072   0.230
    1UNL    C10   11   0.285  -0.024   0.300
    1UNL    C11   12   0.386   0.038   0.232
    1UNL    C12   13   0.386   0.052   0.096
    1UNL    C13   14   0.274   0.012   0.024
    1UNL     N2   15   0.247   0.030  -0.117
    1UNL    C14   16   0.130  -0.052  -0.139
    1UNL     O1   17   0.167  -0.189  -0.170
    1UNL    C15   18   0.040  -0.020  -0.258
    1UNL    C16   19  -0.048   0.101  -0.235
    1UNL    C17   20  -0.144   0.077  -0.110
    1UNL    C18   21  -0.069   0.034   0.025
    1UNL    C19   22  -0.022   0.155   0.101
    1UNL     O2   23   0.031   0.249   0.049
    1UNL     O3   24  -0.038   0.153   0.240
    1UNL    C20   25   0.004   0.269   0.293
    1UNL     H1   26  -0.493  -0.023   0.066
    1UNL     H2   27  -0.331   0.032   0.111
    1UNL     H3   28  -0.450   0.131   0.030
    1UNL     H4   29  -0.418  -0.133  -0.115
    1UNL     H5   30  -0.236  -0.227  -0.212
    1UNL     H6   31  -0.235  -0.120  -0.341
    1UNL     H7   32   0.029  -0.341  -0.209
    1UNL     H8   33  -0.108  -0.226  -0.000
    1UNL     H9   34   0.051  -0.292   0.044
    1UNL    H10   35   0.087  -0.117   0.276
    1UNL    H11   36   0.268  -0.044   0.406
    1UNL    H12   37   0.476   0.077   0.283
    1UNL    H13   38   0.463   0.098   0.042
    1UNL    H14   39   0.322   0.033  -0.183
    1UNL    H15   40   0.097  -0.009  -0.355
    1UNL    H16   41  -0.115   0.115  -0.323
    1UNL    H17   42   0.007   0.200  -0.227
    1UNL    H18   43  -0.193   0.179  -0.090
    1UNL    H19   44  -0.137  -0.016   0.094
    1UNL    H20   45   0.070   0.242   0.377
    1UNL    H21   46  -0.081   0.325   0.330
    1UNL    H22   47   0.066   0.335   0.224
   0.00000   0.00000   0.00000   0.00000   0.00000   0.00000   0.00000   0.00000   0.00000
Generated with MDTraj, t= 96.0
 47
    1UNL     C1    1  -0.432   0.044   0.001
    1UNL     C2    2  -0.367  -0.056  -0.078
    1UNL     C3    3  -0.237  -0.050  -0.116
    1UNL     C4    4  -0.191  -0.142  -0.228
    1UNL     N1    5  -0.049  -0.137  -0.263
    1UNL     C5    6   0.036  -0.232  -0.187
    1UNL     C6    7   0.007  -0.224  -0.032
    1UNL     C7    8   0.059  -0.079   0.000
    1UNL     C8    9   0.179  -0.070   0.092
    1UNL     C9   10   0.183  -0.096   0.225
    1UNL    C10   11   0.286  -0.040   0.305
    1UNL    C11   12   0.381   0.041   0.243
    1UNL    C12   13   0.393   0.052   0.104
    1UNL    C13   14   0.285   0.003   0.034
    1UNL     N2   15   0.252   0.038  -0.102
    1UNL    C14   16   0.130  -0.038  -0.138
    1UNL     O1   17   0.172  -0.172  -0.189
    1UNL    C15   18   0.016  -0.002  -0.251
    1UNL    C16   19  -0.080   0.111  -0.214
    1UNL    C17   20  -0.150   0.062  -0.085
    1UNL    C18   21  -0.052   0.023   0.031
    1UNL    C19   22  -0.005   0.154   0.093
    1UNL     O2   23   0.084   0.218   0.049
    1UNL     O3   24  -0.070   0.189   0.207
    1UNL    C20   25  -0.005   0.298   0.271
    1UNL     H1   26  -0.529   0.016   0.023
    1UNL     H2   27  -0.376   0.073   0.093
    1UNL     H3   28  -0.444   0.145  -0.044
    1UNL     H4   29  -0.423  -0.132  -0.115
    1UNL     H5   30  -0.226  -0.250  -0.224
    1UNL     H6   31  -0.247  -0.115  -0.316
    1UNL     H7   32   0.037  -0.334  -0.227
    1UNL     H8   33  -0.100  -0.239  -0.012
    1UNL     H9   34   0.065  -0.295   0.024
    1UNL    H10   35   0.095  -0.126   0.281
    1UNL    H11   36   0.290  -0.038   0.417
    1UNL    H12   37   0.449   0.094   0.307
    1UNL    H13   38   0.468   0.124   0.059
    1UNL    H14   39   0.320   0.026  -0.176
    1UNL    H15   40   0.068   0.028  -0.347
    1UNL    H16   41  -0.153   0.148  -0.289
    1UNL    H17   42  -0.020   0.206  -0.196
    1UNL    H18   43  -0.205   0.155  -0.043
    1UNL    H19   44  -0.116  -0.032   0.101
    1UNL    H20   45   0.092   0.257   0.299
    1UNL    H21   46  -0.062   0.339   0.355
    1UNL    H22   47   0.020   0.381   0.201
   0.00000   0.00000   0.00000   0.00000   0.00000   0.00000   0.00000   0.00000   0.00000
Generated with MDTraj, t= 97.0
 47
    1UNL     C1    1  -0.437   0.024   0.005
    1UNL     C2    2  -0.373  -0.055  -0.097
    1UNL     C3    3  -0.241  -0.049  -0.131
    1UNL     C4    4  -0.185  -0.134  -0.242
    1UNL     N1    5  -0.045  -0.139  -0.258
    1UNL     C5    6   0.039  -0.234  -0.171
    1UNL     C6    7   0.003  -0.211  -0.019
    1UNL     C7    8   0.060  -0.068   0.004
    1UNL     C8    9   0.179  -0.057   0.097
    1UNL     C9   10   0.190  -0.101   0.229
    1UNL    C10   11   0.304  -0.071   0.293
    1UNL    C11   12   0.406  -0.000   0.231
    1UNL    C12   13   0.395   0.056   0.101
    1UNL    C13   14   0.279   0.020   0.029
    1UNL     N2   15   0.249   0.036  -0.106
    1UNL    C14   16   0.132  -0.041  -0.137
    1UNL     O1   17   0.171  -0.175  -0.188
    1UNL    C15   18   0.022  -0.002  -0.242
    1UNL    C16   19  -0.069   0.111  -0.199
    1UNL    C17   20  -0.150   0.063  -0.080
    1UNL    C18   21  -0.058   0.025   0.045
    1UNL    C19   22  -0.010   0.153   0.103
    1UNL     O2   23   0.076   0.219   0.050
    1UNL     O3   24  -0.076   0.198   0.215
    1UNL    C20   25  -0.030   0.329   0.243
    1UNL     H1   26  -0.541   0.003   0.002
    1UNL     H2   27  -0.390   0.014   0.103
    1UNL     H3   28  -0.426   0.133  -0.017
    1UNL     H4   29  -0.435  -0.144  -0.135
    1UNL     H5   30  -0.227  -0.237  -0.226
    1UNL     H6   31  -0.231  -0.109  -0.336
    1UNL     H7   32   0.024  -0.337  -0.201
    1UNL     H8   33  -0.106  -0.206  -0.002
    1UNL     H9   34   0.061  -0.276   0.046
    1UNL    H10   35   0.108  -0.137   0.287
    1UNL    H11   36   0.325  -0.104   0.388
    1UNL    H12   37   0.504   0.015   0.277
    1UNL    H13   38   0.468   0.112   0.055
    1UNL    H14   39   0.321   0.010  -0.174
    1UNL    H15   40   0.065   0.022  -0.343
    1UNL    H16   41  -0.127   0.156  -0.282
    1UNL    H17   42  -0.012   0.204  -0.167
    1UNL    H18   43  -0.211   0.155  -0.045
    1UNL    H19   44  -0.122  -0.026   0.117
    1UNL    H20   45   0.071   0.336   0.210
    1UNL    H21   46  -0.046   0.350   0.350
    1UNL    H22   47  -0.093   0.400   0.189
   0.00000   0.00000   0.00000   0.00000   0.00000   0.00000   0.00000   0.00000   0.00000
Generated with MDTraj, t= 98.0
 47
    1UNL     C1    1  -0.405   0.020   0.030
    1UNL     C2    2  -0.354  -0.063  -0.082
    1UNL     C3    3  -0.233  -0.044  -0.136
    1UNL     C4    4  -0.186  -0.145  -0.238
    1UNL     N1    5  -0.043  -0.142  -0.252
    1UNL     C5    6   0.036  -0.229  -0.163
    1UNL     C6    7  -0.000  -0.199  -0.018
    1UNL     C7    8   0.059  -0.055   0.003
    1UNL     C8    9   0.168  -0.041   0.106
    1UNL     C9   10   0.191  -0.089   0.235
    1UNL    C10   11   0.319  -0.092   0.284
    1UNL    C11   12   0.425  -0.037   0.218
    1UNL    C12   13   0.402   0.019   0.101
    1UNL    C13   14   0.278   0.009   0.038
    1UNL     N2   15   0.253   0.037  -0.104
    1UNL    C14   16   0.136  -0.041  -0.140
    1UNL     O1   17   0.172  -0.177  -0.172
    1UNL    C15   18   0.037  -0.006  -0.255
    1UNL    C16   19  -0.053   0.109  -0.215
    1UNL    C17   20  -0.147   0.070  -0.099
    1UNL    C18   21  -0.062   0.045   0.032
    1UNL    C19   22  -0.029   0.177   0.095
    1UNL     O2   23   0.019   0.269   0.030
    1UNL     O3   24  -0.078   0.191   0.219
    1UNL    C20   25  -0.061   0.322   0.260
    1UNL     H1   26  -0.480  -0.043   0.083
    1UNL     H2   27  -0.334   0.067   0.094
    1UNL     H3   28  -0.461   0.101  -0.018
    1UNL     H4   29  -0.397  -0.155  -0.116
    1UNL     H5   30  -0.226  -0.249  -0.223
    1UNL     H6   31  -0.238  -0.119  -0.328
    1UNL     H7   32   0.043  -0.332  -0.194
    1UNL     H8   33  -0.109  -0.196  -0.012
    1UNL     H9   34   0.056  -0.266   0.050
    1UNL    H10   35   0.106  -0.142   0.274
    1UNL    H11   36   0.320  -0.150   0.384
    1UNL    H12   37   0.525  -0.057   0.251
    1UNL    H13   38   0.489   0.048   0.036
    1UNL    H14   39   0.330   0.014  -0.169
    1UNL    H15   40   0.088   0.004  -0.355
    1UNL    H16   41  -0.117   0.140  -0.299
    1UNL    H17   42   0.001   0.205  -0.196
    1UNL    H18   43  -0.223   0.157  -0.086
    1UNL    H19   44  -0.125  -0.004   0.107
    1UNL    H20   45   0.037   0.332   0.299
    1UNL    H21   46  -0.145   0.342   0.331
    1UNL    H22   47  -0.080   0.387   0.175
   0.00000   0.00000   0.00000   0.00000   0.00000   0.00000   0.00000   0.00000   0.00000
Generated with MDTraj, t= 99.0
 47
    1UNL     C1    1  -0.401   0.012   0.042
    1UNL     C2    2  -0.342  -0.072  -0.065
    1UNL     C3    3  -0.228  -0.056  -0.139
    1UNL     C4    4  -0.181  -0.150  -0.242
    1UNL     N1    5  -0.038  -0.144  -0.260
    1UNL     C5    6   0.041  -0.232  -0.163
    1UNL     C6    7  -0.001  -0.196  -0.015
    1UNL     C7    8   0.045  -0.048  -0.000
    1UNL     C8    9   0.161  -0.032   0.105
    1UNL     C9   10   0.175  -0.080   0.235
    1UNL    C10   11   0.303  -0.085   0.293
    1UNL    C11   12   0.415  -0.045   0.224
    1UNL    C12   13   0.403   0.010   0.097
    1UNL    C13   14   0.277   0.010   0.034
    1UNL     N2   15   0.250   0.045  -0.097
    1UNL    C14   16   0.131  -0.034  -0.133
    1UNL     O1   17   0.165  -0.173  -0.167
    1UNL    C15   18   0.034  -0.010  -0.257
    1UNL    C16   19  -0.057   0.106  -0.235
    1UNL    C17   20  -0.146   0.075  -0.117
    1UNL    C18   21  -0.065   0.059   0.012
    1UNL    C19   22  -0.032   0.189   0.084
    1UNL     O2   23   0.030   0.283   0.034
    1UNL     O3   24  -0.073   0.179   0.213
    1UNL    C20   25  -0.036   0.300   0.276
    1UNL     H1   26  -0.456  -0.046   0.123
    1UNL     H2   27  -0.337   0.083   0.087
    1UNL     H3   28  -0.474   0.074  -0.006
    1UNL     H4   29  -0.383  -0.170  -0.072
    1UNL     H5   30  -0.224  -0.249  -0.214
    1UNL     H6   31  -0.233  -0.130  -0.333
    1UNL     H7   32   0.045  -0.340  -0.179
    1UNL     H8   33  -0.106  -0.212   0.005
    1UNL     H9   34   0.066  -0.258   0.048
    1UNL    H10   35   0.094  -0.133   0.281
    1UNL    H11   36   0.327  -0.113   0.389
    1UNL    H12   37   0.505  -0.054   0.287
    1UNL    H13   38   0.490   0.032   0.041
    1UNL    H14   39   0.324   0.023  -0.167
    1UNL    H15   40   0.108  -0.000  -0.341
    1UNL    H16   41  -0.111   0.134  -0.326
    1UNL    H17   42   0.002   0.198  -0.217
    1UNL    H18   43  -0.219   0.162  -0.088
    1UNL    H19   44  -0.135   0.015   0.084
    1UNL    H20   45   0.068   0.311   0.263
    1UNL    H21   46  -0.062   0.302   0.386
    1UNL    H22   47  -0.093   0.378   0.226
   0.00000   0.00000   0.00000   0.00000   0.00000   0.00000   0.00000   0.00000   0.00000
