1TPCN00033
12
    1res  C1    1    0.401  -0.044  -0.137
    1res  C2    2    0.225  -0.213  -0.042
    1res  C3    3    0.010  -0.267   0.105
    1res  C4    4   -0.043  -0.161  -0.169
    1res  C5    5   -0.106  -0.091   0.026
    1res  C6    6   -0.259   0.017   0.040
    1res  C7    7   -0.327   0.205  -0.111
    1res  C8    8   -0.487   0.096   0.109
    1res  C9    9   -0.258  -0.151   0.189
    1res  C10   10   -0.165  -0.248  -0.027
    1res  C11   11    0.092  -0.025   0.171
    1res  C12   12    0.130   0.341  -0.050
  10.00000  10.00000  10.00000
