[ moleculetype ]
; name        nrexcl
res           1

[ atoms ]
;    nr  type resnr resid  atom  cgnr     charge       mass
      1 SC2       1 res   C1        1      0.000     54.000
      2 SN3r      1 res   C2        2      0.000     54.000
      3 P1        1 res   C3        3      0.000     72.000
      4 SN6       1 res   C4        4      0.000     54.000
      5 SC3       1 res   C5        5      0.000     54.000
      6 TP1       1 res   C6        6      0.000     36.000
      7 TC3       1 res   C7        7      0.000     36.000
      8 SC4       1 res   C8        8      0.000     54.000
      9 SC4       1 res   C9        9      0.000     54.000
     10 TC3       1 res   C10      10      0.000     36.000
     11 TN6       1 res   C11      11      0.000     36.000
     12 SN4a      1 res   C12      12      0.000     54.000
     13 TN6       1 res   C13      13      0.000     36.000
     14 TN6       1 res   C14      14      0.000     36.000
     15 SN4a      1 res   C15      15      0.000     54.000
     16 TN3r      1 res   C16      16      0.000     36.000
     17 SN4a      1 res   C17      17      0.000     54.000
     18 TP1       1 res   C18      18      0.000     36.000
     19 TN6       1 res   C19      19      0.000     36.000
     20 TN6       1 res   C20      20      0.000     36.000
     21 TN6       1 res   C21      21      0.000     36.000
     22 TN6       1 res   C22      22      0.000     36.000
     23 TN6       1 res   C23      23      0.000     36.000
     24 TN6       1 res   C24      24      0.000     36.000
     25 SN4a      1 res   C25      25      0.000     54.000
     26 TN6       1 res   C26      26      0.000     36.000
     27 TN6       1 res   C27      27      0.000     36.000
     28 TN6       1 res   C28      28      0.000     36.000
     29 TN6       1 res   C29      29      0.000     36.000
     30 TN4a      1 res   C30      30      0.000     36.000
     31 TC4       1 res   C31      31      0.000     36.000
     32 TN6       1 res   C32      32      0.000     36.000
     33 TN6       1 res   C33      33      0.000     36.000
     34 TN6       1 res   C34      34      0.000     36.000
     35 SC4       1 res   C35      35      0.000     54.000
     36 TC3       1 res   C36      36      0.000     36.000
     37 SN4a      1 res   C37      37      0.000     54.000
     38 TP1       1 res   C38      38      0.000     36.000
     39 TN6       1 res   C39      39      0.000     36.000
     40 TN6       1 res   C40      40      0.000     36.000
     41 TN6       1 res   C41      41      0.000     36.000

[ bonds ]
;  ai    aj   funct      b0(nm)        k
    1     2     1      0.29600    20000
    2     3     1      0.29637    20000
    2    37     1      0.32975    20000
    3     4     1      0.26762    20000
    4     5     1      0.20548    20000
    5     6     1      0.25498    20000
    5     7     1      0.29318    20000
    5     8     1      0.28628    20000
    7     8     1      0.36210    20000
    8     9     1      0.31775    20000
    8    36     1      0.30878    20000
    9    10     1      0.28767    20000
    9    35     1      0.39609    20000
    9    36     1      0.32102    20000
   10    11     1      0.26109    20000
   11    12     1      0.27630    20000
   11    35     1      0.24876    20000
   12    13     1      0.24524    20000
   12    29     1      0.29325    20000
   13    14     1      0.23843    20000
   14    15     1      0.26506    20000
   14    29     1      0.21212    20000
   15    16     1      0.29405    20000
   15    22     1      0.28581    20000
   15    24     1      0.24859    20000
   16    17     1      0.28844    20000
   17    18     1      0.29786    20000
   17    19     1      0.28399    20000
   17    21     1      0.29972    20000
   19    20     1      0.22406    20000
   20    21     1      0.24088    20000
   22    23     1      0.24078    20000
   23    24     1      0.21849    20000
   24    25     1      0.30348    20000
   25    26     1      0.25482    20000
   25    28     1      0.29546    20000
   26    27     1      0.24050    20000
   27    28     1      0.25093    20000
   29    30     1      0.21911    20000
   30    31     1      0.32164    20000
   30    34     1      0.23159    20000
   31    32     1      0.24169    20000
   32    33     1      0.27019    20000
   33    34     1      0.24786    20000
   37    38     1      0.31328    20000
   37    39     1      0.29455    20000
   37    41     1      0.29402    20000
   39    40     1      0.25156    20000
   40    41     1      0.23047    20000
