1TPCN04429
27
    1res  C1    1    0.553   0.138  -0.256
    1res  C2    2    0.771   0.118  -0.063
    1res  C3    3    0.951   0.200   0.089
    1res  C4    4    1.158  -0.096   0.179
    1res  C5    5    1.074  -0.260   0.353
    1res  C6    6    1.332  -0.322   0.155
    1res  C7    7    1.159  -0.334  -0.019
    1res  C8    8    1.211  -0.113  -0.111
    1res  C9    9    0.298   0.199  -0.207
    1res  C10   10    0.138   0.348  -0.128
    1res  C11   11   -0.071   0.062  -0.116
    1res  C12   12   -0.203   0.295  -0.056
    1res  C13   13   -0.163   0.062   0.109
    1res  C14   14   -0.214  -0.163   0.163
    1res  C15   15   -0.448  -0.097   0.179
    1res  C16   16   -0.717  -0.169   0.074
    1res  C17   17   -0.914  -0.214  -0.139
    1res  C18   18   -1.155   0.004  -0.123
    1res  C19   19   -1.464   0.038  -0.178
    1res  C20   20   -1.251   0.201   0.031
    1res  C21   21   -1.213   0.046   0.175
    1res  C22   22   -1.202  -0.180   0.109
    1res  C23   23   -0.895  -0.389   0.126
    1res  C24   24   -0.678  -0.492   0.062
    1res  C25   25   -0.566  -0.345   0.216
    1res  C26   26   -0.449   0.149   0.196
    1res  C27   27    0.158  -0.048  -0.067
  10.00000  10.00000  10.00000
