[ moleculetype ]
; name        nrexcl
res           1

[ atoms ]
;    nr  type  resnr resid  atom  cgnr     charge       mass
      1 TN6d      1 res   C1        1      0.000     36.000
      2 TX3       1 res   C2        2      0.000     36.000
      3 SX3       1 res   C3        3      0.000     54.000
      4 TX3       1 res   C4        4      0.000     36.000
      5 TX3       1 res   C5        5      0.000     36.000

[ constraints ]
;  ai    aj   funct      b0(nm)
    1     2     1      0.25184
    2     3     1      0.28235
    1     5     1      0.25216
    4     5     1      0.22597
    3     4     1      0.29446

[ bonds ]
;  ai    aj   funct      b0(nm)          k(kJ/mol/nm^2)

[ angles ]
;  ai    aj    ak  funct     th0(deg)        k(kJ/mol/rad^2)
    1     2     3     1    108.36655          1717.37
    1     5     4     1    127.70483          1039.95
    2     1     5     1    101.70336          2245.25
    2     3     4     1    102.34153          3581.99
    3     4     5     1     97.69926          2190.74

[ dihedrals ]
;  ai    aj    ak    al  funct   phi0(deg)        k(kJ/mol)   mult
    1     2     3     4     1    179.85328       15.034      1
    1     5     4     3     1    179.71586       21.592      1
    2     1     5     4     1   -179.45296       20.889      1
    2     3     4     5     1   -177.91054       15.690      1
    3     2     1     5     1   -179.01254       15.672      1
