[ moleculetype ]
; name        nrexcl
res           1

[ atoms ]
;    nr  type  resnr resid  atom  cgnr     charge       mass
      1 SC2       1 res   C1        1      0.000     54.000
      2 P1        1 res   C2        2      0.000     72.000
      3 SC4       1 res   C3        3      0.000     54.000
      4 TN3r      1 res   C4        4      0.000     36.000
      5 SN4a      1 res   C5        5      0.000     54.000
      6 TP1       1 res   C6        6      0.000     36.000
      7 TN6       1 res   C7        7      0.000     36.000
      8 TN6       1 res   C8        8      0.000     36.000
      9 SN4a      1 res   C9        9      0.000     54.000
     10 TP1       1 res   C10      10      0.000     36.000
     11 TN6       1 res   C11      11      0.000     36.000
     12 TN6       1 res   C12      12      0.000     36.000
     13 TN6       1 res   C13      13      0.000     36.000
     14 TN6       1 res   C14      14      0.000     36.000

[ bonds ]
;  ai    aj   funct      b0(nm)          k(kJ/mol/nm^2)
    4     5     1      0.30561          10567.9
    5     6     1      0.28922          40996.3
    5     7     1      0.27424          22666.2
    5    14     1      0.30178           4938.0
    7     8     1      0.22910           9680.9
    8     9     1      0.28117          33120.5
    8    14     1      0.22245          33491.9
    9    10     1      0.28869          30396.3
    9    11     1      0.26755           5354.4
    9    13     1      0.29277          15372.0
   11    12     1      0.27039           8939.1
   12    13     1      0.23316          17387.8

[ angles ]
;  ai    aj    ak  funct     th0(deg)        k(kJ/mol/rad^2)
    4     5     6     1    107.54994           177.91
    4     5     7     1    132.99771            25.86
    4     5    14     1     70.53844           140.11
    5     7     8     1     74.60541           543.10
    5    14     8     1     69.74503           396.33
    6     5     7     1     58.03975           697.42
    6     5    14     1    116.67140            67.85
    7     5    14     1     83.22018           540.97
    7     8     9     1    159.58380           176.36
    7     8    14     1    116.63094           153.30
    8     9    10     1    103.77521           220.46
    8     9    11     1    128.03959            68.85
    8     9    13     1     52.19619           317.89
    9     8    14     1     81.38515           115.49
    9    11    12     1     72.22479           671.83
    9    13    12     1     73.44256           508.79
   10     9    11     1     73.33874           267.52
   10     9    13     1    116.15047            82.95
   11     9    13     1     84.54759           262.68
   11    12    13     1     96.89814           266.69
