1TPCN02476
17
    1res  C1    1   -0.228  -0.018  -0.472
    1res  C2    2   -0.032   0.162  -0.212
    1res  C3    3    0.140   0.138  -0.019
    1res  C4    4    0.411   0.001   0.066
    1res  C5    5    0.653   0.083  -0.113
    1res  C6    6    0.667   0.019   0.153
    1res  C7    7    0.526  -0.060   0.295
    1res  C8    8    0.344   0.075   0.348
    1res  C9    9   -0.050  -0.037  -0.012
    1res  C10   10   -0.054  -0.155   0.199
    1res  C11   11   -0.163  -0.299   0.030
    1res  C12   12   -0.374  -0.296   0.165
    1res  C13   13   -0.483  -0.089   0.028
    1res  C14   14   -0.530   0.087   0.199
    1res  C15   15   -0.674   0.223   0.027
    1res  C16   16   -0.627   0.221   0.224
    1res  C17   17   -0.300  -0.097  -0.104
  10.00000  10.00000  10.00000
