[ moleculetype ]
; name        nrexcl
res           1

[ atoms ]
;    nr  type resnr resid  atom  cgnr     charge       mass
      1 C4        1 res   C1        1      0.000     72.000
      2 SN4a      1 res   C2        2      0.000     54.000
      3 TC3       1 res   C3        3      0.000     36.000
      4 TC5       1 res   C4        4      0.000     36.000
      5 TN4a      1 res   C5        5      0.000     36.000
      6 SC4       1 res   C6        6      0.000     54.000
      7 TN4a      1 res   C7        7      0.000     36.000
      8 TN6a      1 res   C8        8      0.000     36.000
      9 SC4       1 res   C9        9      0.000     54.000
     10 TN6a      1 res   C10      10      0.000     36.000

[ bonds ]
;  ai    aj   funct      b0(nm)        k
    1     2     1      0.32240    20000
    2     3     1      0.23128    20000
    3     4     1      0.23537    20000
    3     9     1      0.34322    20000
    4     5     1      0.20724    20000
    4    10     1      0.27924    20000
    5     6     1      0.29397    20000
    5    10     1      0.24052    20000
    6     7     1      0.32949    20000
    7     8     1      0.27401    20000
    7     9     1      0.29240    20000
    8     9     1      0.23678    20000
