[ moleculetype ]
; name        nrexcl
res           1

[ atoms ]
;    nr  type resnr resid  atom  cgnr     charge       mass
      1 SC2       1 res   C1        1      0.000     54.000
      2 TC3       1 res   C2        2      0.000     36.000
      3 SC3       1 res   C3        3      0.000     54.000
      4 TC3       1 res   C4        4      0.000     36.000
      5 TC4       1 res   C5        5      0.000     36.000
      6 TC5       1 res   C6        6      0.000     36.000
      7 TC3       1 res   C7        7      0.000     36.000
      8 SC4       1 res   C8        8      0.000     54.000
      9 SC3       1 res   C9        9      0.000     54.000
     10 N4a       1 res   C10      10      0.000     72.000
     11 TC5       1 res   C11      11      0.000     36.000
     12 SN6       1 res   C12      12      0.000     54.000
     13 TC5       1 res   C13      13      0.000     36.000
     14 SC4       1 res   C14      14      0.000     54.000
     15 TC3       1 res   C15      15      0.000     36.000
     16 TC4       1 res   C16      16      0.000     36.000

[ bonds ]
;  ai    aj   funct      b0(nm)        k
    1     2     1      0.29219    20000
    2     3     1      0.20429    20000
    3     4     1      0.33016    20000
    3    16     1      0.36359    20000
    4     5     1      0.29075    20000
    5     6     1      0.24810    20000
    5    16     1      0.39373    20000
    6     7     1      0.23668    20000
    6     8     1      0.23127    20000
    6    15     1      0.30644    20000
    7     8     1      0.30599    20000
    8     9     1      0.26722    20000
    8    14     1      0.33351    20000
    9    10     1      0.48200    20000
    9    14     1      0.34978    20000
   10    11     1      0.26064    20000
   11    12     1      0.30679    20000
   11    13     1      0.30195    20000
   12    13     1      0.28916    20000
   15    16     1      0.28324    20000
