[ moleculetype ]
; name        nrexcl
res           1

[ atoms ]
;    nr  type resnr resid  atom  cgnr     charge       mass
      1 SC4       1 res   C1        1      0.000     54.000
      2 TN6a      1 res   C2        2      0.000     36.000
      3 TN4a      1 res   C3        3      0.000     36.000
      4 N4a       1 res   C4        4      0.000     72.000
      5 C4        1 res   C5        5      0.000     72.000
      6 TN6       1 res   C6        6      0.000     36.000
      7 TC3       1 res   C7        7      0.000     36.000
      8 TN4a      1 res   C8        8      0.000     36.000
      9 P1        1 res   C9        9      0.000     72.000
     10 N4a       1 res   C10      10      0.000     72.000
     11 C4        1 res   C11      11      0.000     72.000

[ bonds ]
;  ai    aj   funct      b0(nm)        k
    1     2     1      0.24310    20000
    1     3     1      0.30821    20000
    1     4     1      0.28937    20000
    2     3     1      0.27835    20000
    3    10     1      0.26231    20000
    4     5     1      0.40176    20000
    4     6     1      0.30187    20000
    6     7     1      0.27856    20000
    6     8     1      0.29249    20000
    7     8     1      0.21981    20000
    8     9     1      0.29973    20000
    9    10     1      0.32197    20000
   10    11     1      0.39738    20000
