[ moleculetype ]
; name        nrexcl
res           1

[ atoms ]
;    nr  type  resnr resid  atom  cgnr     charge       mass
      1 TC5       1 res   C1        1      0.000     36.000
      2 SP1       1 res   C2        2      0.000     54.000
      3 SC2       1 res   C3        3      0.000     54.000
      4 TC3       1 res   C4        4      0.000     36.000
      5 SN4a      1 res   C5        5      0.000     54.000
      6 SN4a      1 res   C6        6      0.000     54.000
      7 TP1       1 res   C7        7      0.000     36.000
      8 TN6       1 res   C8        8      0.000     36.000
      9 TN6       1 res   C9        9      0.000     36.000
     10 TN6       1 res   C10      10      0.000     36.000

[ bonds ]
;  ai    aj   funct      b0(nm)          k(kJ/mol/nm^2)
    5     6     1      0.22288          12950.3
    6     7     1      0.28570          27316.5
    6     8     1      0.24917          35968.7
    6    10     1      0.27556          44871.1
    8     9     1      0.24405          98282.6
    9    10     1      0.21697          45946.9

[ angles ]
;  ai    aj    ak  funct     th0(deg)        k(kJ/mol/rad^2)
    5     6     7     1    147.63470           221.98
    5     6     8     1    113.44146           421.58
    5     6    10     1     98.37931           261.78
    6     8     9     1     72.46130          1177.79
    6    10     9     1     71.45059          1233.04
    7     6     8     1     81.01774           848.24
    7     6    10     1    112.36838           445.26
    8     6    10     1     80.56075          1527.11
    8     9    10     1     94.86948           697.84
