1TPCN00909
17
    1res  C1    1    0.726   0.169  -0.075
    1res  C2    2    0.843  -0.085  -0.031
    1res  C3    3    0.716  -0.141   0.197
    1res  C4    4    0.554   0.073   0.301
    1res  C5    5    0.311  -0.048   0.201
    1res  C6    6    0.207   0.140   0.014
    1res  C7    7    0.226  -0.070  -0.164
    1res  C8    8   -0.004  -0.196  -0.125
    1res  C9    9   -0.185  -0.317   0.083
    1res  C10   10   -0.482  -0.203   0.014
    1res  C11   11   -0.688  -0.118   0.149
    1res  C12   12   -0.187  -0.103  -0.201
    1res  C13   13   -0.366  -0.013  -0.291
    1res  C14   14   -0.563   0.141  -0.246
    1res  C15   15   -0.148   0.150  -0.101
    1res  C16   16   -0.144   0.354   0.060
    1res  C17   17    0.478   0.113  -0.015
  10.00000  10.00000  10.00000
