[ moleculetype ]
; name        nrexcl
res           1

[ atoms ]
;    nr  type resnr resid  atom  cgnr     charge       mass
      1 SN3r      1 res   C1        1      0.000     54.000
      2 TC5       1 res   C2        2      0.000     36.000
      3 TN6a      1 res   C3        3      0.000     36.000
      4 TC5       1 res   C4        4      0.000     36.000
      5 TC3       1 res   C5        5      0.000     36.000
      6 SC3       1 res   C6        6      0.000     54.000
      7 TN3r      1 res   C7        7      0.000     36.000
      8 SC5       1 res   C8        8      0.000     54.000
      9 TC3       1 res   C9        9      0.000     36.000
     10 TN6a      1 res   C10      10      0.000     36.000
     11 TC3       1 res   C11      11      0.000     36.000
     12 TN3r      1 res   C12      12      0.000     36.000

[ bonds ]
;  ai    aj   funct      b0(nm)        k
    1     2     1      0.31788    20000
    2     3     1      0.27929    20000
    2     4     1      0.27314    20000
    2     5     1      0.25226    20000
    2     6     1      0.25390    20000
    3     4     1      0.27308    20000
    4     5     1      0.25320    20000
    4     6     1      0.32440    20000
    4     8     1      0.26894    20000
    5     8     1      0.26016    20000
    6     7     1      0.33550    20000
    8     9     1      0.26795    20000
    8    10     1      0.23780    20000
    8    11     1      0.28908    20000
    9    10     1      0.26592    20000
    9    11     1      0.29171    20000
   11    12     1      0.30131    20000
