1TPCN03158
16
    1res  C1    1   -0.581   0.019   0.236
    1res  C2    2   -0.569   0.281   0.075
    1res  C3    3   -0.579  -0.114  -0.074
    1res  C4    4   -0.355   0.072  -0.092
    1res  C5    5   -0.353  -0.169   0.211
    1res  C6    6   -0.143  -0.068   0.230
    1res  C7    7   -0.175  -0.136  -0.042
    1res  C8    8    0.075  -0.179  -0.021
    1res  C9    9   -0.068  -0.128  -0.263
    1res  C10   10    0.032   0.091  -0.072
    1res  C11   11    0.249   0.085   0.012
    1res  C12   12    0.562   0.162  -0.040
    1res  C13   13    0.715   0.300   0.089
    1res  C14   14    0.794   0.034  -0.089
    1res  C15   15    0.685  -0.149  -0.061
    1res  C16   16    0.485  -0.103   0.051
  10.00000  10.00000  10.00000
