[ moleculetype ]
; name        nrexcl
res           1

[ atoms ]
;    nr  type  resnr resid  atom  cgnr     charge       mass
      1 TC4       1 res   C1        1      0.000     36.000
      2 SN6       1 res   C2        2      0.000     54.000
      3 SC3       1 res   C3        3      0.000     54.000
      4 TN6       1 res   C4        4      0.000     36.000
      5 SN4a      1 res   C5        5      0.000     54.000
      6 TP1       1 res   C6        6      0.000     36.000
      7 TN6       1 res   C7        7      0.000     36.000
      8 TN6       1 res   C8        8      0.000     36.000
      9 TN6       1 res   C9        9      0.000     36.000
     10 N4a       1 res   C10      10      0.000     72.000
     11 TC5       1 res   C11      11      0.000     36.000
     12 TC5       1 res   C12      12      0.000     36.000
     13 TC5       1 res   C13      13      0.000     36.000
     14 SN4a      1 res   C14      14      0.000     54.000

[ bonds ]
;  ai    aj   funct      b0(nm)          k(kJ/mol/nm^2)
    1     2     1      0.36826          38798.6
    1     4     1      0.26311          55590.2
    1    14     1      0.34816          44764.1
    2     3     1      0.26500          76346.6
    3     4     1      0.22693         114449.7
    3    10     1      0.32373          23640.5
    3    14     1      0.33657         109618.5
    4     5     1      0.27511          56178.1
    5     6     1      0.28222          31273.2
    5     7     1      0.26082          47545.0
    5     9     1      0.28039          34563.5
    7     8     1      0.22063          11030.4
    8     9     1      0.24412          27545.0
   10    11     1      0.34935          48026.9
   11    12     1      0.25601         207106.7
   11    13     1      0.29798         189632.9
   12    13     1      0.28787         256250.3

[ angles ]
;  ai    aj    ak  funct     th0(deg)        k(kJ/mol/rad^2)
    1     2     3     1     75.84361          2668.72
    1     4     3     1    108.25501          1474.23
    1     4     5     1     85.84360            65.46
    1    14     3     1     70.98587          2226.89
    2     1     4     1     72.51318          3080.52
    2     1    14     1     56.54514          2155.22
    2     3     4     1    101.96403          1686.33
    2     3    10     1    132.44129           928.02
    2     3    14     1     67.58068          2428.73
    3     4     5     1    103.58274            71.36
    3    10    11     1    136.40216           110.12
    4     1    14     1     58.85874          2686.25
    4     3    10     1     60.12025          1807.65
    4     3    14     1     63.12646          2197.33
    4     5     6     1    122.60843           274.86
    4     5     7     1    123.32609           402.79
    4     5     9     1     67.18415          1018.24
    5     7     8     1     81.06237           845.08
    5     9     8     1     73.18783          2480.15
    6     5     7     1     69.93594          1480.06
    6     5     9     1    149.92794           479.98
    7     5     9     1     81.62614          1170.23
    7     8     9     1     99.08125           604.72
   10     3    14     1     65.25767          1214.61
   10    11    12     1    144.71533           929.73
   10    11    13     1     83.09847          1193.70
   11    12    13     1     66.13924          7699.22
   11    13    12     1     51.78669         10160.82
   12    11    13     1     62.07407          7107.20
