[ moleculetype ]
; name        nrexcl
res           1

[ atoms ]
;    nr  type resnr resid  atom  cgnr     charge       mass
      1 SN4a      1 res   C1        1      0.000     54.000
      2 TC4       1 res   C2        2      0.000     36.000
      3 SC3       1 res   C3        3      0.000     54.000
      4 SN4a      1 res   C4        4      0.000     54.000
      5 SP1       1 res   C5        5      0.000     54.000
      6 SP1       1 res   C6        6      0.000     54.000
      7 SC4       1 res   C7        7      0.000     54.000
      8 SN6a      1 res   C8        8      0.000     54.000
      9 TC3       1 res   C9        9      0.000     36.000
     10 SC2       1 res   C10      10      0.000     54.000

[ bonds ]
;  ai    aj   funct      b0(nm)        k
    1     2     1      0.37192    20000
    2     3     1      0.34041    20000
    2     7     1      0.27773    20000
    3     4     1      0.35942    20000
    3     7     1      0.29049    20000
    4     5     1      0.25931    20000
    5     6     1      0.28899    20000
    7     8     1      0.28832    20000
    7     9     1      0.35653    20000
    8     9     1      0.31492    20000
    9    10     1      0.29743    20000
