1TPCN03501
10
    1res  C1    1    0.490   0.109   0.035
    1res  C2    2    0.326  -0.014  -0.154
    1res  C3    3    0.195  -0.197   0.019
    1res  C4    4    0.072  -0.013   0.178
    1res  C5    5   -0.146   0.008   0.034
    1res  C6    6   -0.050   0.231   0.028
    1res  C7    7   -0.370   0.123   0.087
    1res  C8    8   -0.322   0.147  -0.204
    1res  C9    9   -0.482  -0.087   0.014
    1res  C10   10   -0.248  -0.218  -0.032
  10.00000  10.00000  10.00000
