1TPCN05302
33
    1res  C1    1   -0.339   0.406  -0.021
    1res  C2    2   -0.134   0.201   0.017
    1res  C3    3   -0.346   0.137  -0.132
    1res  C4    4   -0.183  -0.035  -0.201
    1res  C5    5    0.037  -0.205  -0.155
    1res  C6    6    0.250  -0.363  -0.031
    1res  C7    7    0.454  -0.077  -0.016
    1res  C8    8    0.452   0.121   0.129
    1res  C9    9    0.675  -0.038   0.092
    1res  C10   10    0.879  -0.046   0.142
    1res  C11   11    1.033  -0.229   0.235
    1res  C12   12    1.166   0.004   0.283
    1res  C13   13    1.128   0.127   0.095
    1res  C14   14    1.142   0.291  -0.194
    1res  C15   15    1.351   0.430  -0.255
    1res  C16   16    1.467   0.209  -0.236
    1res  C17   17    1.396   0.179  -0.026
    1res  C18   18    0.928   0.205   0.169
    1res  C19   19    0.725  -0.210  -0.047
    1res  C20   20    0.536  -0.323   0.084
    1res  C21   21   -0.037  -0.394   0.059
    1res  C22   22   -0.074  -0.510  -0.161
    1res  C23   23   -0.163  -0.319  -0.327
    1res  C24   24   -0.428  -0.073   0.068
    1res  C25   25   -0.535  -0.101  -0.180
    1res  C26   26   -0.720   0.231  -0.191
    1res  C27   27   -0.790  -0.021  -0.148
    1res  C28   28   -1.012   0.165   0.001
    1res  C29   29   -0.936   0.070   0.306
    1res  C30   30   -1.202   0.081   0.310
    1res  C31   31   -1.208  -0.157   0.143
    1res  C32   32   -1.334   0.048   0.023
    1res  C33   33   -0.860  -0.178   0.051
  10.00000  10.00000  10.00000
