1TPCN05189
11
    1res  C1    1   -0.690   0.038   0.119
    1res  C2    2   -0.417   0.253  -0.058
    1res  C3    3   -0.160   0.221  -0.231
    1res  C4    4   -0.072  -0.011  -0.210
    1res  C5    5    0.129  -0.064  -0.075
    1res  C6    6    0.317  -0.104  -0.213
    1res  C7    7    0.327   0.071   0.015
    1res  C8    8    0.574  -0.228   0.016
    1res  C9    9    0.416  -0.058   0.260
    1res  C10   10    0.764  -0.047   0.292
    1res  C11   11   -0.028   0.053   0.108
  10.00000  10.00000  10.00000
