1TPCN05572
18
    1res  C1    1   -0.557  -0.611   0.313
    1res  C2    2   -0.296  -0.367   0.147
    1res  C3    3   -0.511  -0.496  -0.053
    1res  C4    4   -0.489  -0.236  -0.040
    1res  C5    5   -0.593  -0.289  -0.238
    1res  C6    6   -0.234  -0.215  -0.008
    1res  C7    7   -0.214   0.008  -0.145
    1res  C8    8   -0.179   0.155   0.148
    1res  C9    9   -0.260   0.344  -0.209
    1res  C10   10   -0.141   0.435   0.096
    1res  C11   11   -0.537   0.620  -0.015
    1res  C12   12    0.057   0.040  -0.149
    1res  C13   13    0.207   0.114   0.140
    1res  C14   14    0.071  -0.150   0.144
    1res  C15   15    0.201  -0.306   0.014
    1res  C16   16    0.498  -0.179   0.032
    1res  C17   17    0.623   0.086  -0.034
    1res  C18   18    0.849   0.217  -0.115
  10.00000  10.00000  10.00000
