1TPCN04247
24
    1res  C1    1    0.572   0.179   0.328
    1res  C2    2    0.411   0.061   0.166
    1res  C3    3    0.207  -0.011   0.107
    1res  C4    4    0.038  -0.153  -0.037
    1res  C5    5   -0.079   0.088   0.062
    1res  C6    6   -0.249  -0.114   0.334
    1res  C7    7   -0.300  -0.210   0.076
    1res  C8    8   -0.400   0.157   0.114
    1res  C9    9   -0.587  -0.129   0.197
    1res  C10   10   -0.733   0.106  -0.020
    1res  C11   11   -0.741   0.317  -0.191
    1res  C12   12   -0.806   0.049  -0.287
    1res  C13   13   -0.901  -0.173  -0.059
    1res  C14   14   -0.566  -0.233  -0.116
    1res  C15   15    0.108  -0.198   0.286
    1res  C16   16    0.140   0.040   0.406
    1res  C17   17    0.393   0.099  -0.059
    1res  C18   18    0.626   0.241   0.034
    1res  C19   19    0.751   0.078  -0.099
    1res  C20   20    0.813   0.043  -0.319
    1res  C21   21    0.798  -0.023  -0.529
    1res  C22   22    1.048  -0.061  -0.353
    1res  C23   23    1.086  -0.010  -0.152
    1res  C24   24    0.902  -0.063  -0.009
  10.00000  10.00000  10.00000
