1TPCN06043
12
    1res  C1    1    0.666   0.234  -0.154
    1res  C2    2    0.490  -0.010  -0.187
    1res  C3    3    0.372  -0.123   0.022
    1res  C4    4    0.157  -0.231   0.064
    1res  C5    5    0.019  -0.141   0.277
    1res  C6    6   -0.183   0.024   0.104
    1res  C7    7   -0.350  -0.195   0.021
    1res  C8    8   -0.359   0.176  -0.006
    1res  C9    9   -0.647   0.027  -0.080
    1res  C10   10   -0.552   0.090  -0.286
    1res  C11   11   -0.285   0.082  -0.268
    1res  C12   12    0.022   0.135   0.068
  10.00000  10.00000  10.00000
