[ moleculetype ]
; name        nrexcl
res           1

[ atoms ]
;    nr  type resnr resid  atom  cgnr     charge       mass
      1 SC2       1 res   C1        1      0.000     54.000
      2 SP1       1 res   C2        2      0.000     54.000
      3 SC2       1 res   C3        3      0.000     54.000
      4 TC3       1 res   C4        4      0.000     36.000
      5 SC3       1 res   C5        5      0.000     54.000
      6 TC5       1 res   C6        6      0.000     36.000
      7 TC3       1 res   C7        7      0.000     36.000
      8 SC4       1 res   C8        8      0.000     54.000
      9 SC4       1 res   C9        9      0.000     54.000
     10 TN6a      1 res   C10      10      0.000     36.000
     11 TC3       1 res   C11      11      0.000     36.000
     12 TC3       1 res   C12      12      0.000     36.000

[ bonds ]
;  ai    aj   funct      b0(nm)        k
    1     2     1      0.30165    20000
    2     3     1      0.26513    20000
    3     4     1      0.24432    20000
    4     5     1      0.26910    20000
    5     6     1      0.31323    20000
    5    12     1      0.34629    20000
    6     7     1      0.28776    20000
    6     8     1      0.25647    20000
    6    12     1      0.23569    20000
    7     8     1      0.37180    20000
    8     9     1      0.33221    20000
    8    11     1      0.28825    20000
    9    10     1      0.23583    20000
   10    11     1      0.26780    20000
