1TPCN02697
14
    1res  C1    1   -0.188   0.423   0.098
    1res  C2    2    0.001   0.071  -0.045
    1res  C3    3   -0.146   0.040   0.224
    1res  C4    4   -0.357  -0.231   0.144
    1res  C5    5    0.133  -0.009   0.309
    1res  C6    6    0.077  -0.199   0.085
    1res  C7    7    0.302  -0.085  -0.021
    1res  C8    8    0.529  -0.104  -0.015
    1res  C9    9    0.746  -0.045  -0.016
    1res  C10   10    0.551   0.101  -0.172
    1res  C11   11    0.013  -0.030  -0.273
    1res  C12   12   -0.193  -0.326  -0.212
    1res  C13   13   -0.180   0.127  -0.261
    1res  C14   14   -0.364   0.136  -0.113
  10.00000  10.00000  10.00000
