1TPCN04468
22
    1res  C1    1   -0.748  -0.005   0.343
    1res  C2    2   -0.724  -0.297   0.216
    1res  C3    3   -0.699  -0.117  -0.008
    1res  C4    4   -0.452  -0.222  -0.091
    1res  C5    5   -0.494   0.080  -0.121
    1res  C6    6   -0.233   0.024   0.168
    1res  C7    7   -0.216  -0.009  -0.209
    1res  C8    8    0.057   0.072  -0.019
    1res  C9    9    0.118  -0.100  -0.223
    1res  C10   10    0.291   0.086  -0.241
    1res  C11   11    0.528  -0.012  -0.290
    1res  C12   12    0.617  -0.296  -0.444
    1res  C13   13    0.740  -0.140  -0.196
    1res  C14   14    0.758   0.120  -0.161
    1res  C15   15    0.568   0.074  -0.044
    1res  C16   16    0.660   0.133   0.225
    1res  C17   17    0.814   0.023   0.427
    1res  C18   18    0.673  -0.188   0.343
    1res  C19   19    0.477  -0.081   0.302
    1res  C20   20    0.134   0.290  -0.329
    1res  C21   21    0.224   0.359  -0.069
    1res  C22   22   -0.182   0.270  -0.103
  10.00000  10.00000  10.00000
