[ moleculetype ]
; name        nrexcl
res           1

[ atoms ]
;    nr  type resnr resid  atom  cgnr     charge       mass
      1 SC4       1 res   C1        1      0.000     54.000
      2 SN6       1 res   C2        2      0.000     54.000
      3 SC4       1 res   C3        3      0.000     54.000
      4 TC3       1 res   C4        4      0.000     36.000
      5 SC4       1 res   C5        5      0.000     54.000
      6 TC3       1 res   C6        6      0.000     36.000
      7 SC4       1 res   C7        7      0.000     54.000
      8 SC4       1 res   C8        8      0.000     54.000
      9 TC3       1 res   C9        9      0.000     36.000
     10 TN6       1 res   C10      10      0.000     36.000
     11 SN4a      1 res   C11      11      0.000     54.000
     12 SP2       1 res   C12      12      0.000     54.000
     13 TN6       1 res   C13      13      0.000     36.000
     14 TN6       1 res   C14      14      0.000     36.000
     15 TN6       1 res   C15      15      0.000     36.000
     16 SN4a      1 res   C16      16      0.000     54.000
     17 TN6       1 res   C17      17      0.000     36.000
     18 TN6       1 res   C18      18      0.000     36.000
     19 TN6       1 res   C19      19      0.000     36.000
     20 TC4       1 res   C20      20      0.000     36.000
     21 TP1       1 res   C21      21      0.000     36.000
     22 TC3       1 res   C22      22      0.000     36.000

[ bonds ]
;  ai    aj   funct      b0(nm)        k
    1     2     1      0.31927    20000
    1     3     1      0.37259    20000
    2     3     1      0.28865    20000
    3     4     1      0.28074    20000
    3     5     1      0.30531    20000
    4     5     1      0.30629    20000
    5     6     1      0.39361    20000
    5     7     1      0.30475    20000
    6     7     1      0.37851    20000
    7     8     1      0.34240    20000
    7    22     1      0.30081    20000
    8     9     1      0.27352    20000
    8    20     1      0.38640    20000
    8    22     1      0.32137    20000
    9    10     1      0.25483    20000
   10    11     1      0.26123    20000
   10    20     1      0.27235    20000
   11    12     1      0.33576    20000
   11    13     1      0.26534    20000
   11    15     1      0.26356    20000
   13    14     1      0.26325    20000
   14    15     1      0.22796    20000
   15    16     1      0.29065    20000
   16    17     1      0.27691    20000
   16    19     1      0.29204    20000
   17    18     1      0.26729    20000
   18    19     1      0.22683    20000
   20    21     1      0.28392    20000
