1TPCN04660
22
    1res  C1    1   -0.603  -0.067  -0.338
    1res  C2    2   -0.767  -0.160  -0.128
    1res  C3    3   -0.684   0.071  -0.012
    1res  C4    4   -0.583   0.025   0.218
    1res  C5    5   -0.468   0.294   0.127
    1res  C6    6   -0.260   0.258  -0.089
    1res  C7    7   -0.231   0.196   0.225
    1res  C8    8    0.031   0.204   0.173
    1res  C9    9    0.128   0.079  -0.066
    1res  C10   10    0.275  -0.023   0.124
    1res  C11   11    0.497  -0.184   0.158
    1res  C12   12    0.602  -0.507   0.201
    1res  C13   13    0.790  -0.246   0.159
    1res  C14   14    0.721  -0.037   0.188
    1res  C15   15    0.551   0.007   0.042
    1res  C16   16    0.495   0.086  -0.227
    1res  C17   17    0.536   0.150  -0.464
    1res  C18   18    0.744   0.085  -0.435
    1res  C19   19    0.709  -0.093  -0.266
    1res  C20   20    0.157  -0.154   0.302
    1res  C21   21    0.047  -0.251   0.048
    1res  C22   22   -0.210  -0.050   0.284
  10.00000  10.00000  10.00000
