1TPCN02183
23
    1res  C1    1   -0.727   0.094  -0.378
    1res  C2    2   -0.652   0.212   0.003
    1res  C3    3   -0.563  -0.049  -0.082
    1res  C4    4   -0.328  -0.278  -0.055
    1res  C5    5   -0.185  -0.106   0.096
    1res  C6    6   -0.048   0.088   0.133
    1res  C7    7    0.057   0.256   0.294
    1res  C8    8    0.158  -0.027   0.252
    1res  C9    9    0.280  -0.007   0.049
    1res  C10   10    0.337   0.166   0.191
    1res  C11   11    0.557   0.094   0.070
    1res  C12   12    0.844   0.080   0.083
    1res  C13   13    0.919   0.190  -0.124
    1res  C14   14    1.115   0.288  -0.262
    1res  C15   15    1.196   0.178  -0.005
    1res  C16   16    0.689  -0.168   0.003
    1res  C17   17    0.470  -0.179   0.144
    1res  C18   18   -0.122  -0.340  -0.237
    1res  C19   19   -0.223  -0.203  -0.373
    1res  C20   20   -0.452  -0.224  -0.332
    1res  C21   21   -0.573   0.017   0.176
    1res  C22   22   -0.696  -0.163   0.258
    1res  C23   23   -0.821   0.097   0.171
  10.00000  10.00000  10.00000
