[ moleculetype ]
; name        nrexcl
res           1

[ atoms ]
;    nr  type  resnr resid  atom  cgnr     charge       mass
      1 TC6       1 res   C1        1      0.000     36.000
      2 TX2       1 res   C2        2      0.000     36.000
      3 TX2       1 res   C3        3      0.000     36.000
      4 TC5       1 res   C4        4      0.000     36.000

[ bonds ]
;  ai    aj   funct      b0(nm)          k(kJ/mol/nm^2)
    1     2     1      0.24174         104488.9
    1     4     1      0.24311         159472.1
    2     3     1      0.24005         171774.3
    3     4     1      0.28973          75672.7

[ angles ]
;  ai    aj    ak  funct     th0(deg)        k(kJ/mol/rad^2)
    1     2     3     1     91.92864          3084.21
    1     4     3     1     80.56297          5871.74
    2     1     4     1     99.25214          3566.05
    2     3     4     1     87.88570          3679.86

[ dihedrals ]
;  ai    aj    ak    al  funct   phi0(deg)        k(kJ/mol)   mult
    1     2     3     4     1    179.84593        7.829      1
    1     2     3     4     1    179.70311        7.701      2
    1     2     3     4     1    179.58336        7.491      3
    1     4     3     2     1   -179.84111        7.829      1
    1     4     3     2     1   -179.69341        7.701      2
    1     4     3     2     1   -179.56864        7.490      3
    2     1     4     3     1    179.84390        7.831      1
    2     1     4     3     1    179.69903        7.703      2
    2     1     4     3     1    179.57716        7.492      3
    3     2     1     4     1    179.97647        9.336      1
    3     2     1     4     1    179.95295        9.137      2
    3     2     1     4     1    179.92949        8.812      3
