1TPCN06012
18
    1res  C1    1    0.494  -0.389   0.107
    1res  C2    2    0.583  -0.318  -0.136
    1res  C3    3    0.531  -0.057  -0.100
    1res  C4    4    0.429  -0.067   0.138
    1res  C5    5    0.181  -0.229   0.216
    1res  C6    6    0.199   0.030   0.234
    1res  C7    7    0.197   0.230  -0.019
    1res  C8    8   -0.057   0.098   0.241
    1res  C9    9   -0.217   0.290   0.160
    1res  C10   10   -0.098   0.468  -0.044
    1res  C11   11   -0.198   0.297  -0.242
    1res  C12   12   -0.430   0.422  -0.155
    1res  C13   13   -0.137  -0.003  -0.032
    1res  C14   14   -0.299  -0.175  -0.127
    1res  C15   15   -0.220  -0.407   0.046
    1res  C16   16   -0.468  -0.426  -0.175
    1res  C17   17   -0.453  -0.266  -0.329
    1res  C18   18   -0.473  -0.057  -0.269
  10.00000  10.00000  10.00000
