[ moleculetype ]
; name        nrexcl
res           1

[ atoms ]
;    nr  type resnr resid  atom  cgnr     charge       mass
      1 SC4       1 res   C1        1      0.000     54.000
      2 TC3       1 res   C2        2      0.000     36.000
      3 SC4       1 res   C3        3      0.000     54.000
      4 TC4       1 res   C4        4      0.000     36.000
      5 N4a       1 res   C5        5      0.000     72.000
      6 TC5       1 res   C6        6      0.000     36.000
      7 TC5       1 res   C7        7      0.000     36.000
      8 SN6       1 res   C8        8      0.000     54.000
      9 TC5       1 res   C9        9      0.000     36.000
     10 TN6       1 res   C10      10      0.000     36.000
     11 TC3       1 res   C11      11      0.000     36.000
     12 TC3       1 res   C12      12      0.000     36.000
     13 SC4       1 res   C13      13      0.000     54.000
     14 TN6a      1 res   C14      14      0.000     36.000
     15 SC4       1 res   C15      15      0.000     54.000
     16 SC4       1 res   C16      16      0.000     54.000
     17 TN6       1 res   C17      17      0.000     36.000
     18 TC3       1 res   C18      18      0.000     36.000

[ bonds ]
;  ai    aj   funct      b0(nm)        k
    1     2     1      0.31437    20000
    1     3     1      0.39063    20000
    1    12     1      0.35927    20000
    1    13     1      0.28404    20000
    2     3     1      0.38061    20000
    3     4     1      0.40760    20000
    3    11     1      0.28283    20000
    4     5     1      0.30549    20000
    4    10     1      0.27664    20000
    5     6     1      0.32226    20000
    6     7     1      0.27242    20000
    7     8     1      0.30646    20000
    7     9     1      0.30233    20000
    8     9     1      0.28924    20000
   10    11     1      0.25528    20000
   12    13     1      0.30000    20000
   13    14     1      0.33936    20000
   13    15     1      0.38188    20000
   14    15     1      0.37286    20000
   15    16     1      0.32984    20000
   15    18     1      0.28611    20000
   16    17     1      0.24511    20000
   17    18     1      0.26388    20000
