[ moleculetype ]
; name        nrexcl
res           1

[ atoms ]
;    nr  type resnr resid  atom  cgnr     charge       mass
      1 TC3       1 res   C1        1      0.000     36.000
      2 TN6d      1 res   C2        2      0.000     36.000
      3 SC5       1 res   C3        3      0.000     54.000
      4 SN3r      1 res   C4        4      0.000     54.000
      5 TN6       1 res   C5        5      0.000     36.000
      6 SN6       1 res   C6        6      0.000     54.000
      7 TC5       1 res   C7        7      0.000     36.000
      8 TC5       1 res   C8        8      0.000     36.000
      9 TC3       1 res   C9        9      0.000     36.000
     10 TN6       1 res   C10      10      0.000     36.000
     11 SN6       1 res   C11      11      0.000     54.000
     12 SN6       1 res   C12      12      0.000     54.000
     13 TN3r      1 res   C13      13      0.000     36.000
     14 TN3r      1 res   C14      14      0.000     36.000

[ bonds ]
;  ai    aj   funct      b0(nm)        k
    1     2     1      0.25519    20000
    2     3     1      0.26118    20000
    2     7     1      0.29058    20000
    3     4     1      0.36590    20000
    3     5     1      0.36258    20000
    3     7     1      0.26176    20000
    3    11     1      0.35948    20000
    3    14     1      0.27065    20000
    5     6     1      0.29724    20000
    6     7     1      0.30246    20000
    7     8     1      0.22451    20000
    7    11     1      0.23655    20000
    8     9     1      0.25722    20000
    8    10     1      0.26326    20000
    8    11     1      0.28828    20000
    9    10     1      0.28732    20000
    9    12     1      0.34123    20000
   11    12     1      0.27908    20000
   12    13     1      0.32249    20000
