1TPCN03544
26
    1res  C1    1    0.911  -0.303   0.069
    1res  C2    2    0.804  -0.045   0.232
    1res  C3    3    0.730   0.212   0.262
    1res  C4    4    0.466   0.274   0.137
    1res  C5    5    0.724   0.449  -0.003
    1res  C6    6    0.679   0.085  -0.103
    1res  C7    7    0.475   0.219  -0.246
    1res  C8    8    0.192   0.305  -0.110
    1res  C9    9    0.318   0.006  -0.311
    1res  C10   10    0.054  -0.020  -0.318
    1res  C11   11   -0.142   0.148  -0.335
    1res  C12   12   -0.201  -0.071  -0.061
    1res  C13   13   -0.546   0.076  -0.259
    1res  C14   14   -0.596  -0.013  -0.587
    1res  C15   15   -0.646  -0.186  -0.242
    1res  C16   16   -0.720  -0.304   0.091
    1res  C17   17   -0.919  -0.284   0.300
    1res  C18   18   -0.653  -0.519   0.109
    1res  C19   19   -0.585   0.013  -0.038
    1res  C20   20   -0.530   0.186   0.172
    1res  C21   21   -0.635   0.378   0.093
    1res  C22   22   -0.499   0.195   0.426
    1res  C23   23   -0.474  -0.057   0.278
    1res  C24   24   -0.139  -0.269  -0.230
    1res  C25   25    0.211  -0.105  -0.072
    1res  C26   26    0.447   0.055   0.348
  10.00000  10.00000  10.00000
