[ moleculetype ]
; name        nrexcl
res           1

[ atoms ]
;    nr  type  resnr resid  atom  cgnr     charge       mass
      1 SC2       1 res   C1        1      0.000     54.000
      2 TC3       1 res   C2        2      0.000     36.000
      3 TC5       1 res   C3        3      0.000     36.000
      4 TC3       1 res   C4        4      0.000     36.000
      5 SC3       1 res   C5        5      0.000     54.000
      6 SN4a      1 res   C6        6      0.000     54.000
      7 SP1       1 res   C7        7      0.000     54.000
      8 TN4a      1 res   C8        8      0.000     36.000
      9 SC5       1 res   C9        9      0.000     54.000
     10 TN6a      1 res   C10      10      0.000     36.000
     11 TC5       1 res   C11      11      0.000     36.000
     12 TC5       1 res   C12      12      0.000     36.000
     13 TC5       1 res   C13      13      0.000     36.000
     14 TC5       1 res   C14      14      0.000     36.000

[ constraints ]
;  ai    aj   funct      b0(nm)
    1     2     1      0.27034
    5    11     1      0.32225
    2     3     1      0.29926
    4     5     1      0.24933
   12    14     1      0.29834
   13    14     1      0.28758
    3     4     1      0.30979
    7     8     1      0.24702
    5     6     1      0.28014
    8    10     1      0.26008
    9    10     1      0.29289
    6     7     1      0.22190
   12    13     1      0.25644
    2     4     1      0.24840
    8     9     1      0.23204

[ bonds ]
;  ai    aj   funct      b0(nm)          k(kJ/mol/nm^2)
   11    12     1      0.24494           9502.4

[ angles ]
;  ai    aj    ak  funct     th0(deg)        k(kJ/mol/rad^2)
    1     2     3     1     87.57758           750.89
    1     2     4     1    101.67487           103.38
    2     3     4     1     48.06579          7569.80
    2     4     3     1     63.76432          1349.56
    2     4     5     1    116.78156           135.57
    3     2     4     1     68.16992          1471.07
    3     4     5     1     74.72579          1384.82
    4     5     6     1    134.05513           121.26
    4     5    11     1     78.04274           191.63
    5     6     7     1    115.95368            64.89
    5    11    12     1    147.46514           108.63
    6     5    11     1    100.96216           172.03
    6     7     8     1    139.00203             9.97
    7     8     9     1    111.16840           346.68
    7     8    10     1    159.63282           173.75
    8     9    10     1     58.00475          1576.91
    8    10     9     1     49.13946          3457.38
    9     8    10     1     72.85574          1024.52
   11    12    13     1    146.43250           135.60
   11    12    14     1     86.14434           140.58
   12    13    14     1     66.22240          7198.27
   12    14    13     1     51.86988          8025.15
   13    12    14     1     61.90768          5663.01

[ dihedrals ]
;  ai    aj    ak    al  funct   phi0(deg)        k(kJ/mol)   mult
    1     2     3     4     1    -77.60201       14.965      1
    1     2     4     3     1     98.91660        8.545      1
    1     2     4     5     1     52.07165       15.547      1
    2     3     4     5     1    -41.61124       19.031      1
    2     4     5     6     1     30.19775       19.619      1
    2     4     5    11     1    -61.16444       18.172      1
    3     2     4     5     1    134.78537       15.520      1
    3     4     5     6     1    -14.90027       15.692      1
    3     4     5    11     1   -105.99214       10.770      1
    4     5     6     7     1    119.63782       27.648      1
    4     5    11    12     1     84.57870       31.276      1
    5     6     7     8     1    178.36712       22.891      1
    5    11    12    13     1     20.70783       25.358      1
    5    11    12    14     1     13.01489       19.681      1
    6     5    11    12     1    -49.08564       31.731      1
    6     7     8     9     1     -1.45463       31.184      1
    6     7     8    10     1     98.22906       29.822      1
    7     6     5    11     1   -157.32214       23.424      1
    7     8     9    10     1    -20.03720       15.024      1
    7     8    10     9     1     67.50266       26.011      1
   11    12    13    14     1    178.51517       21.479      1
   11    12    14    13     1     -1.03225       14.966      1
