Generated with MDTraj, t= 0.0
 96
    1UNL     C1    1   0.092  -0.109  -0.067
    1UNL     C2    2  -0.035  -0.072  -0.066
    1UNL     C3    3  -0.085   0.045  -0.142
    1UNL     C4    4  -0.099   0.001  -0.289
    1UNL     O1    5   0.027  -0.020  -0.352
    1UNL     C5    6   0.102   0.100  -0.368
    1UNL     O2    7   0.177   0.138  -0.250
    1UNL     C6    8   0.320   0.123  -0.258
    1UNL     C7    9   0.381   0.129  -0.118
    1UNL     O3   10   0.337   0.020  -0.042
    1UNL     C8   11   0.373   0.035   0.094
    1UNL     O4   12   0.501   0.095   0.115
    1UNL     C9   13   0.527   0.132   0.253
    1UNL    C10   14   0.671   0.097   0.290
    1UNL     O5   15   0.704   0.137   0.421
    1UNL    C11   16   0.425   0.069   0.353
    1UNL     O6   17   0.303   0.140   0.352
    1UNL    C12   18   0.402  -0.081   0.320
    1UNL     O7   19   0.306  -0.140   0.406
    1UNL    C13   20   0.363  -0.100   0.170
    1UNL     O8   21   0.444  -0.198   0.109
    1UNL    C14   22   0.362  -0.009  -0.327
    1UNL     O9   23   0.503  -0.018  -0.338
    1UNL    C15   24   0.295  -0.026  -0.467
    1UNL    O10   25   0.230  -0.151  -0.476
    1UNL    C16   26   0.192   0.087  -0.494
    1UNL    O11   27   0.115   0.056  -0.608
    1UNL    O12   28  -0.188  -0.112  -0.296
    1UNL    C17   29  -0.308  -0.085  -0.238
    1UNL    C18   30  -0.335   0.014  -0.149
    1UNL    C19   31  -0.474   0.051  -0.122
    1UNL    O13   32  -0.500   0.155  -0.065
    1UNL    O14   33  -0.570  -0.037  -0.166
    1UNL    C20   34  -0.696   0.013  -0.138
    1UNL    C21   35  -0.224   0.099  -0.094
    1UNL    C22   36  -0.235   0.135   0.057
    1UNL    C23   37  -0.257   0.028   0.168
    1UNL    C24   38  -0.397  -0.032   0.164
    1UNL    C25   39  -0.505   0.047   0.199
    1UNL    C26   40  -0.635  -0.002   0.197
    1UNL    O15   41  -0.746   0.073   0.226
    1UNL    C27   42  -0.656  -0.137   0.160
    1UNL    O16   43  -0.785  -0.184   0.157
    1UNL    C28   44  -0.547  -0.216   0.127
    1UNL    C29   45  -0.418  -0.165   0.130
    1UNL    C30   46  -0.301  -0.255   0.104
    1UNL    C31   47  -0.185  -0.215   0.195
    1UNL     N1   48  -0.148  -0.073   0.182
    1UNL    C32   49  -0.022  -0.038   0.231
    1UNL    C33   50   0.018   0.104   0.248
    1UNL    O17   51   0.059  -0.125   0.259
    1UNL     H1   52   0.126  -0.197  -0.016
    1UNL     H2   53   0.164  -0.048  -0.117
    1UNL     H3   54  -0.108  -0.135  -0.020
    1UNL     H4   55  -0.009   0.125  -0.135
    1UNL     H5   56  -0.150   0.080  -0.347
    1UNL     H6   57   0.030   0.182  -0.387
    1UNL     H7   58   0.357   0.208  -0.318
    1UNL     H8   59   0.490   0.122  -0.122
    1UNL     H9   60   0.353   0.221  -0.067
    1UNL    H10   61   0.301   0.106   0.137
    1UNL    H11   62   0.515   0.241   0.256
    1UNL    H12   63   0.686  -0.011   0.284
    1UNL    H13   64   0.742   0.142   0.220
    1UNL    H14   65   0.699   0.235   0.431
    1UNL    H15   66   0.465   0.075   0.456
    1UNL    H16   67   0.318   0.233   0.379
    1UNL    H17   68   0.496  -0.137   0.338
    1UNL    H18   69   0.216  -0.130   0.365
    1UNL    H19   70   0.259  -0.136   0.164
    1UNL    H20   71   0.439  -0.282   0.159
    1UNL    H21   72   0.329  -0.091  -0.262
    1UNL    H22   73   0.529  -0.105  -0.375
    1UNL    H23   74   0.372  -0.025  -0.545
    1UNL    H24   75   0.150  -0.147  -0.420
    1UNL    H25   76   0.243   0.182  -0.515
    1UNL    H26   77   0.080  -0.035  -0.596
    1UNL    H27   78  -0.390  -0.148  -0.272
    1UNL    H28   79  -0.714   0.101  -0.201
    1UNL    H29   80  -0.771  -0.064  -0.159
    1UNL    H30   81  -0.701   0.043  -0.033
    1UNL    H31   82  -0.236   0.195  -0.148
    1UNL    H32   83  -0.147   0.195   0.082
    1UNL    H33   84  -0.319   0.205   0.065
    1UNL    H34   85  -0.254   0.082   0.265
    1UNL    H35   86  -0.490   0.150   0.226
    1UNL    H36   87  -0.720   0.166   0.245
    1UNL    H37   88  -0.844  -0.111   0.188
    1UNL    H38   89  -0.565  -0.318   0.100
    1UNL    H39   90  -0.330  -0.359   0.122
    1UNL    H40   91  -0.273  -0.249  -0.001
    1UNL    H41   92  -0.096  -0.276   0.176
    1UNL    H42   93  -0.211  -0.232   0.300
    1UNL    H43   94   0.101   0.109   0.319
    1UNL    H44   95  -0.062   0.165   0.288
    1UNL    H45   96   0.053   0.147   0.154
   0.00000   0.00000   0.00000   0.00000   0.00000   0.00000   0.00000   0.00000   0.00000
Generated with MDTraj, t= 1.0
 96
    1UNL     C1    1   0.106  -0.122  -0.087
    1UNL     C2    2  -0.019  -0.085  -0.061
    1UNL     C3    3  -0.079   0.038  -0.121
    1UNL     C4    4  -0.093  -0.007  -0.268
    1UNL     O1    5   0.022  -0.026  -0.337
    1UNL     C5    6   0.091   0.103  -0.356
    1UNL     O2    7   0.175   0.125  -0.244
    1UNL     C6    8   0.319   0.111  -0.259
    1UNL     C7    9   0.387   0.114  -0.120
    1UNL     O3   10   0.367  -0.003  -0.044
    1UNL     C8   11   0.380   0.012   0.091
    1UNL     O4   12   0.511   0.070   0.117
    1UNL     C9   13   0.535   0.129   0.249
    1UNL    C10   14   0.668   0.114   0.306
    1UNL     O5   15   0.690   0.194   0.423
    1UNL    C11   16   0.421   0.089   0.344
    1UNL     O6   17   0.302   0.162   0.334
    1UNL    C12   18   0.396  -0.068   0.329
    1UNL     O7   19   0.292  -0.113   0.416
    1UNL    C13   20   0.372  -0.107   0.182
    1UNL     O8   21   0.457  -0.207   0.139
    1UNL    C14   22   0.366  -0.011  -0.345
    1UNL     O9   23   0.502   0.002  -0.386
    1UNL    C15   24   0.279  -0.009  -0.481
    1UNL    O10   25   0.218  -0.131  -0.496
    1UNL    C16   26   0.164   0.107  -0.485
    1UNL    O11   27   0.078   0.079  -0.591
    1UNL    O12   28  -0.178  -0.127  -0.266
    1UNL    C17   29  -0.296  -0.100  -0.215
    1UNL    C18   30  -0.323   0.000  -0.124
    1UNL    C19   31  -0.464   0.044  -0.117
    1UNL    O13   32  -0.491   0.153  -0.067
    1UNL    O14   33  -0.559  -0.037  -0.170
    1UNL    C20   34  -0.687   0.030  -0.163
    1UNL    C21   35  -0.216   0.091  -0.073
    1UNL    C22   36  -0.231   0.136   0.074
    1UNL    C23   37  -0.257   0.020   0.181
    1UNL    C24   38  -0.401  -0.033   0.174
    1UNL    C25   39  -0.509   0.052   0.202
    1UNL    C26   40  -0.642   0.009   0.186
    1UNL    O15   41  -0.748   0.095   0.221
    1UNL    C27   42  -0.661  -0.119   0.143
    1UNL    O16   43  -0.795  -0.170   0.139
    1UNL    C28   44  -0.556  -0.200   0.107
    1UNL    C29   45  -0.427  -0.162   0.118
    1UNL    C30   46  -0.305  -0.250   0.091
    1UNL    C31   47  -0.202  -0.231   0.188
    1UNL     N1   48  -0.152  -0.089   0.187
    1UNL    C32   49  -0.019  -0.068   0.221
    1UNL    C33   50   0.037   0.071   0.224
    1UNL    O17   51   0.053  -0.162   0.253
    1UNL     H1   52   0.152  -0.209  -0.053
    1UNL     H2   53   0.153  -0.060  -0.170
    1UNL     H3   54  -0.098  -0.153  -0.024
    1UNL     H4   55  -0.010   0.119  -0.095
    1UNL     H5   56  -0.149   0.063  -0.328
    1UNL     H6   57   0.020   0.185  -0.338
    1UNL     H7   58   0.345   0.201  -0.320
    1UNL     H8   59   0.492   0.118  -0.139
    1UNL     H9   60   0.346   0.200  -0.069
    1UNL    H10   61   0.302   0.086   0.119
    1UNL    H11   62   0.526   0.235   0.233
    1UNL    H12   63   0.680   0.008   0.323
    1UNL    H13   64   0.747   0.147   0.237
    1UNL    H14   65   0.715   0.149   0.504
    1UNL    H15   66   0.461   0.106   0.449
    1UNL    H16   67   0.323   0.248   0.363
    1UNL    H17   68   0.487  -0.120   0.359
    1UNL    H18   69   0.201  -0.128   0.374
    1UNL    H19   70   0.268  -0.139   0.175
    1UNL    H20   71   0.451  -0.281   0.195
    1UNL    H21   72   0.345  -0.101  -0.291
    1UNL    H22   73   0.535  -0.074  -0.428
    1UNL    H23   74   0.346   0.012  -0.564
    1UNL    H24   75   0.142  -0.113  -0.426
    1UNL    H25   76   0.213   0.202  -0.506
    1UNL    H26   77   0.072  -0.018  -0.616
    1UNL    H27   78  -0.379  -0.165  -0.248
    1UNL    H28   79  -0.761  -0.023  -0.097
    1UNL    H29   80  -0.678   0.135  -0.126
    1UNL    H30   81  -0.715   0.040  -0.272
    1UNL    H31   82  -0.235   0.187  -0.126
    1UNL    H32   83  -0.135   0.188   0.118
    1UNL    H33   84  -0.310   0.200   0.094
    1UNL    H34   85  -0.250   0.048   0.288
    1UNL    H35   86  -0.491   0.147   0.255
    1UNL    H36   87  -0.707   0.163   0.276
    1UNL    H37   88  -0.857  -0.109   0.185
    1UNL    H38   89  -0.567  -0.313   0.100
    1UNL    H39   90  -0.335  -0.351   0.082
    1UNL    H40   91  -0.266  -0.229  -0.011
    1UNL    H41   92  -0.116  -0.291   0.176
    1UNL    H42   93  -0.233  -0.254   0.292
    1UNL    H43   94   0.133   0.075   0.275
    1UNL    H44   95  -0.036   0.141   0.277
    1UNL    H45   96   0.057   0.093   0.128
   0.00000   0.00000   0.00000   0.00000   0.00000   0.00000   0.00000   0.00000   0.00000
Generated with MDTraj, t= 2.0
 96
    1UNL     C1    1   0.103  -0.130  -0.064
    1UNL     C2    2  -0.021  -0.090  -0.054
    1UNL     C3    3  -0.072   0.029  -0.126
    1UNL     C4    4  -0.090  -0.015  -0.273
    1UNL     O1    5   0.026  -0.032  -0.349
    1UNL     C5    6   0.102   0.097  -0.344
    1UNL     O2    7   0.191   0.115  -0.235
    1UNL     C6    8   0.333   0.110  -0.265
    1UNL     C7    9   0.411   0.091  -0.134
    1UNL     O3   10   0.371  -0.012  -0.057
    1UNL     C8   11   0.396   0.016   0.077
    1UNL     O4   12   0.524   0.081   0.120
    1UNL     C9   13   0.525   0.149   0.250
    1UNL    C10   14   0.660   0.136   0.302
    1UNL     O5   15   0.694   0.208   0.418
    1UNL    C11   16   0.407   0.098   0.344
    1UNL     O6   17   0.287   0.156   0.306
    1UNL    C12   18   0.394  -0.057   0.324
    1UNL     O7   19   0.293  -0.105   0.411
    1UNL    C13   20   0.365  -0.104   0.175
    1UNL     O8   21   0.452  -0.213   0.148
    1UNL    C14   22   0.369  -0.002  -0.366
    1UNL     O9   23   0.512  -0.006  -0.397
    1UNL    C15   24   0.276   0.006  -0.498
    1UNL    O10   25   0.217  -0.119  -0.513
    1UNL    C16   26   0.167   0.117  -0.479
    1UNL    O11   27   0.072   0.118  -0.586
    1UNL    O12   28  -0.180  -0.132  -0.275
    1UNL    C17   29  -0.301  -0.095  -0.230
    1UNL    C18   30  -0.321   0.007  -0.146
    1UNL    C19   31  -0.459   0.052  -0.126
    1UNL    O13   32  -0.480   0.154  -0.058
    1UNL    O14   33  -0.563  -0.024  -0.178
    1UNL    C20   34  -0.687   0.034  -0.159
    1UNL    C21   35  -0.207   0.084  -0.081
    1UNL    C22   36  -0.222   0.109   0.077
    1UNL    C23   37  -0.257   0.007   0.185
    1UNL    C24   38  -0.402  -0.047   0.179
    1UNL    C25   39  -0.500   0.045   0.208
    1UNL    C26   40  -0.634   0.017   0.191
    1UNL    O15   41  -0.736   0.107   0.226
    1UNL    C27   42  -0.670  -0.112   0.136
    1UNL    O16   43  -0.798  -0.139   0.100
    1UNL    C28   44  -0.571  -0.207   0.115
    1UNL    C29   45  -0.433  -0.172   0.137
    1UNL    C30   46  -0.319  -0.276   0.128
    1UNL    C31   47  -0.210  -0.247   0.229
    1UNL     N1   48  -0.158  -0.111   0.214
    1UNL    C32   49  -0.024  -0.081   0.245
    1UNL    C33   50   0.010   0.053   0.285
    1UNL    O17   51   0.054  -0.174   0.246
    1UNL     H1   52   0.121  -0.229  -0.028
    1UNL     H2   53   0.162  -0.075  -0.141
    1UNL     H3   54  -0.101  -0.162  -0.012
    1UNL     H4   55   0.000   0.110  -0.135
    1UNL     H5   56  -0.141   0.061  -0.329
    1UNL     H6   57   0.046   0.187  -0.320
    1UNL     H7   58   0.360   0.211  -0.309
    1UNL     H8   59   0.514   0.095  -0.153
    1UNL     H9   60   0.373   0.182  -0.084
    1UNL    H10   61   0.332   0.103   0.103
    1UNL    H11   62   0.510   0.250   0.223
    1UNL    H12   63   0.688   0.034   0.322
    1UNL    H13   64   0.722   0.162   0.214
    1UNL    H14   65   0.615   0.198   0.479
    1UNL    H15   66   0.407   0.111   0.459
    1UNL    H16   67   0.283   0.250   0.339
    1UNL    H17   68   0.485  -0.112   0.355
    1UNL    H18   69   0.218  -0.126   0.350
    1UNL    H19   70   0.261  -0.129   0.167
    1UNL    H20   71   0.436  -0.284   0.206
    1UNL    H21   72   0.352  -0.091  -0.312
    1UNL    H22   73   0.543  -0.074  -0.451
    1UNL    H23   74   0.339   0.013  -0.588
    1UNL    H24   75   0.148  -0.156  -0.454
    1UNL    H25   76   0.206   0.219  -0.480
    1UNL    H26   77   0.007   0.046  -0.579
    1UNL    H27   78  -0.378  -0.162  -0.271
    1UNL    H28   79  -0.675   0.145  -0.174
    1UNL    H29   80  -0.752  -0.021  -0.230
    1UNL    H30   81  -0.721  -0.007  -0.061
    1UNL    H31   82  -0.209   0.187  -0.126
    1UNL    H32   83  -0.117   0.149   0.109
    1UNL    H33   84  -0.285   0.192   0.087
    1UNL    H34   85  -0.268   0.047   0.289
    1UNL    H35   86  -0.484   0.145   0.240
    1UNL    H36   87  -0.711   0.158   0.306
    1UNL    H37   88  -0.855  -0.059   0.110
    1UNL    H38   89  -0.606  -0.298   0.086
    1UNL    H39   90  -0.360  -0.373   0.135
    1UNL    H40   91  -0.274  -0.267   0.025
    1UNL    H41   92  -0.132  -0.312   0.223
    1UNL    H42   93  -0.252  -0.256   0.333
    1UNL    H43   94   0.075   0.063   0.370
    1UNL    H44   95  -0.082   0.115   0.311
    1UNL    H45   96   0.068   0.089   0.207
   0.00000   0.00000   0.00000   0.00000   0.00000   0.00000   0.00000   0.00000   0.00000
Generated with MDTraj, t= 3.0
 96
    1UNL     C1    1   0.099  -0.156  -0.033
    1UNL     C2    2  -0.026  -0.119  -0.056
    1UNL     C3    3  -0.072   0.014  -0.109
    1UNL     C4    4  -0.090  -0.001  -0.264
    1UNL     O1    5   0.036  -0.015  -0.330
    1UNL     C5    6   0.116   0.112  -0.343
    1UNL     O2    7   0.206   0.126  -0.240
    1UNL     C6    8   0.349   0.111  -0.271
    1UNL     C7    9   0.440   0.074  -0.148
    1UNL     O3   10   0.378  -0.016  -0.062
    1UNL     C8   11   0.386   0.024   0.068
    1UNL     O4   12   0.504   0.091   0.097
    1UNL     C9   13   0.513   0.154   0.227
    1UNL    C10   14   0.651   0.142   0.301
    1UNL     O5   15   0.674   0.223   0.417
    1UNL    C11   16   0.390   0.103   0.325
    1UNL     O6   17   0.265   0.154   0.295
    1UNL    C12   18   0.396  -0.056   0.318
    1UNL     O7   19   0.305  -0.128   0.396
    1UNL    C13   20   0.364  -0.099   0.164
    1UNL     O8   21   0.448  -0.203   0.123
    1UNL    C14   22   0.371  -0.009  -0.370
    1UNL     O9   23   0.513  -0.033  -0.388
    1UNL    C15   24   0.289   0.007  -0.507
    1UNL    O10   25   0.222  -0.111  -0.529
    1UNL    C16   26   0.185   0.121  -0.485
    1UNL    O11   27   0.087   0.119  -0.588
    1UNL    O12   28  -0.181  -0.111  -0.283
    1UNL    C17   29  -0.302  -0.096  -0.226
    1UNL    C18   30  -0.322   0.001  -0.132
    1UNL    C19   31  -0.461   0.046  -0.111
    1UNL    O13   32  -0.480   0.146  -0.039
    1UNL    O14   33  -0.565  -0.023  -0.174
    1UNL    C20   34  -0.688   0.041  -0.162
    1UNL    C21   35  -0.206   0.073  -0.065
    1UNL    C22   36  -0.219   0.110   0.091
    1UNL    C23   37  -0.259   0.007   0.197
    1UNL    C24   38  -0.404  -0.036   0.185
    1UNL    C25   39  -0.508   0.048   0.214
    1UNL    C26   40  -0.637   0.015   0.182
    1UNL    O15   41  -0.738   0.113   0.187
    1UNL    C27   42  -0.674  -0.117   0.139
    1UNL    O16   43  -0.805  -0.148   0.121
    1UNL    C28   44  -0.569  -0.204   0.117
    1UNL    C29   45  -0.432  -0.165   0.136
    1UNL    C30   46  -0.324  -0.269   0.109
    1UNL    C31   47  -0.197  -0.251   0.199
    1UNL     N1   48  -0.159  -0.107   0.207
    1UNL    C32   49  -0.035  -0.087   0.272
    1UNL    C33   50   0.006   0.049   0.332
    1UNL    O17   51   0.048  -0.178   0.291
    1UNL     H1   52   0.121  -0.255   0.014
    1UNL     H2   53   0.175  -0.091  -0.056
    1UNL     H3   54  -0.107  -0.184  -0.042
    1UNL     H4   55  -0.004   0.097  -0.095
    1UNL     H5   56  -0.139   0.089  -0.303
    1UNL     H6   57   0.057   0.200  -0.339
    1UNL     H7   58   0.383   0.213  -0.310
    1UNL     H8   59   0.533   0.036  -0.184
    1UNL     H9   60   0.457   0.173  -0.099
    1UNL    H10   61   0.317   0.110   0.087
    1UNL    H11   62   0.503   0.256   0.214
    1UNL    H12   63   0.662   0.038   0.322
    1UNL    H13   64   0.745   0.161   0.245
    1UNL    H14   65   0.589   0.218   0.472
    1UNL    H15   66   0.411   0.134   0.435
    1UNL    H16   67   0.255   0.242   0.348
    1UNL    H17   68   0.501  -0.092   0.333
    1UNL    H18   69   0.212  -0.139   0.369
    1UNL    H19   70   0.261  -0.125   0.149
    1UNL    H20   71   0.441  -0.281   0.181
    1UNL    H21   72   0.331  -0.098  -0.330
    1UNL    H22   73   0.517  -0.100  -0.457
    1UNL    H23   74   0.356   0.042  -0.588
    1UNL    H24   75   0.136  -0.106  -0.474
    1UNL    H25   76   0.231   0.220  -0.496
    1UNL    H26   77   0.020   0.049  -0.577
    1UNL    H27   78  -0.386  -0.143  -0.271
    1UNL    H28   79  -0.762  -0.031  -0.196
    1UNL    H29   80  -0.684   0.077  -0.058
    1UNL    H30   81  -0.680   0.128  -0.227
    1UNL    H31   82  -0.213   0.175  -0.115
    1UNL    H32   83  -0.123   0.154   0.110
    1UNL    H33   84  -0.274   0.198   0.097
    1UNL    H34   85  -0.270   0.054   0.299
    1UNL    H35   86  -0.473   0.152   0.221
    1UNL    H36   87  -0.718   0.193   0.243
    1UNL    H37   88  -0.845  -0.069   0.162
    1UNL    H38   89  -0.579  -0.304   0.066
    1UNL    H39   90  -0.365  -0.362   0.135
    1UNL    H40   91  -0.306  -0.269  -0.002
    1UNL    H41   92  -0.122  -0.303   0.158
    1UNL    H42   93  -0.214  -0.292   0.302
    1UNL    H43   94   0.053   0.044   0.428
    1UNL    H44   95  -0.071   0.122   0.334
    1UNL    H45   96   0.093   0.074   0.259
   0.00000   0.00000   0.00000   0.00000   0.00000   0.00000   0.00000   0.00000   0.00000
Generated with MDTraj, t= 4.0
 96
    1UNL     C1    1   0.095  -0.158  -0.061
    1UNL     C2    2  -0.013  -0.086  -0.032
    1UNL     C3    3  -0.054   0.034  -0.109
    1UNL     C4    4  -0.064   0.003  -0.261
    1UNL     O1    5   0.066  -0.013  -0.310
    1UNL     C5    6   0.120   0.119  -0.340
    1UNL     O2    7   0.219   0.148  -0.245
    1UNL     C6    8   0.354   0.110  -0.279
    1UNL     C7    9   0.425   0.085  -0.144
    1UNL     O3   10   0.368  -0.021  -0.068
    1UNL     C8   11   0.392   0.019   0.065
    1UNL     O4   12   0.505   0.093   0.101
    1UNL     C9   13   0.496   0.154   0.232
    1UNL    C10   14   0.630   0.165   0.291
    1UNL     O5   15   0.639   0.236   0.411
    1UNL    C11   16   0.394   0.084   0.325
    1UNL     O6   17   0.265   0.131   0.304
    1UNL    C12   18   0.397  -0.066   0.310
    1UNL     O7   19   0.314  -0.133   0.406
    1UNL    C13   20   0.361  -0.101   0.161
    1UNL     O8   21   0.437  -0.208   0.124
    1UNL    C14   22   0.353  -0.024  -0.364
    1UNL     O9   23   0.483  -0.066  -0.389
    1UNL    C15   24   0.269  -0.003  -0.498
    1UNL    O10   25   0.189  -0.123  -0.524
    1UNL    C16   26   0.175   0.119  -0.483
    1UNL    O11   27   0.079   0.105  -0.588
    1UNL    O12   28  -0.163  -0.097  -0.287
    1UNL    C17   29  -0.282  -0.071  -0.235
    1UNL    C18   30  -0.303   0.023  -0.138
    1UNL    C19   31  -0.443   0.067  -0.117
    1UNL    O13   32  -0.465   0.175  -0.059
    1UNL    O14   33  -0.537  -0.021  -0.164
    1UNL    C20   34  -0.662   0.032  -0.142
    1UNL    C21   35  -0.193   0.095  -0.072
    1UNL    C22   36  -0.214   0.118   0.081
    1UNL    C23   37  -0.255  -0.003   0.180
    1UNL    C24   38  -0.402  -0.045   0.165
    1UNL    C25   39  -0.502   0.041   0.205
    1UNL    C26   40  -0.635   0.005   0.184
    1UNL    O15   41  -0.747   0.088   0.203
    1UNL    C27   42  -0.671  -0.127   0.143
    1UNL    O16   43  -0.805  -0.163   0.142
    1UNL    C28   44  -0.571  -0.214   0.118
    1UNL    C29   45  -0.439  -0.170   0.121
    1UNL    C30   46  -0.328  -0.272   0.092
    1UNL    C31   47  -0.211  -0.240   0.199
    1UNL     N1   48  -0.156  -0.103   0.205
    1UNL    C32   49  -0.039  -0.088   0.275
    1UNL    C33   50  -0.007   0.051   0.337
    1UNL    O17   51   0.036  -0.183   0.298
    1UNL     H1   52   0.133  -0.248  -0.010
    1UNL     H2   53   0.164  -0.115  -0.131
    1UNL     H3   54  -0.062  -0.105   0.052
    1UNL     H4   55   0.015   0.117  -0.095
    1UNL     H5   56  -0.108   0.090  -0.318
    1UNL     H6   57   0.052   0.198  -0.325
    1UNL     H7   58   0.406   0.195  -0.335
    1UNL     H8   59   0.531   0.061  -0.164
    1UNL     H9   60   0.423   0.186  -0.087
    1UNL    H10   61   0.316   0.097   0.093
    1UNL    H11   62   0.451   0.246   0.210
    1UNL    H12   63   0.679   0.072   0.307
    1UNL    H13   64   0.692   0.210   0.211
    1UNL    H14   65   0.712   0.207   0.470
    1UNL    H15   66   0.418   0.107   0.436
    1UNL    H16   67   0.250   0.219   0.353
    1UNL    H17   68   0.501  -0.095   0.342
    1UNL    H18   69   0.226  -0.147   0.359
    1UNL    H19   70   0.256  -0.109   0.152
    1UNL    H20   71   0.429  -0.284   0.192
    1UNL    H21   72   0.306  -0.104  -0.315
    1UNL    H22   73   0.489  -0.146  -0.455
    1UNL    H23   74   0.330   0.034  -0.584
    1UNL    H24   75   0.115  -0.125  -0.463
    1UNL    H25   76   0.235   0.212  -0.490
    1UNL    H26   77   0.031   0.018  -0.578
    1UNL    H27   78  -0.373  -0.111  -0.278
    1UNL    H28   79  -0.647   0.106  -0.065
    1UNL    H29   80  -0.696   0.064  -0.239
    1UNL    H30   81  -0.714  -0.052  -0.098
    1UNL    H31   82  -0.205   0.192  -0.125
    1UNL    H32   83  -0.134   0.163   0.120
    1UNL    H33   84  -0.279   0.196   0.108
    1UNL    H34   85  -0.263   0.053   0.277
    1UNL    H35   86  -0.480   0.139   0.241
    1UNL    H36   87  -0.716   0.169   0.251
    1UNL    H37   88  -0.860  -0.082   0.132
    1UNL    H38   89  -0.604  -0.312   0.087
    1UNL    H39   90  -0.373  -0.367   0.090
    1UNL    H40   91  -0.292  -0.243  -0.010
    1UNL    H41   92  -0.127  -0.304   0.194
    1UNL    H42   93  -0.258  -0.257   0.297
    1UNL    H43   94   0.071   0.040   0.410
    1UNL    H44   95  -0.092   0.099   0.373
    1UNL    H45   96   0.044   0.105   0.245
   0.00000   0.00000   0.00000   0.00000   0.00000   0.00000   0.00000   0.00000   0.00000
Generated with MDTraj, t= 5.0
 96
    1UNL     C1    1   0.104  -0.125  -0.076
    1UNL     C2    2   0.001  -0.059  -0.026
    1UNL     C3    3  -0.056   0.056  -0.105
    1UNL     C4    4  -0.066   0.024  -0.255
    1UNL     O1    5   0.060   0.008  -0.320
    1UNL     C5    6   0.129   0.132  -0.359
    1UNL     O2    7   0.234   0.165  -0.265
    1UNL     C6    8   0.363   0.090  -0.283
    1UNL     C7    9   0.433   0.081  -0.150
    1UNL     O3   10   0.354  -0.008  -0.070
    1UNL     C8   11   0.365   0.022   0.071
    1UNL     O4   12   0.493   0.074   0.099
    1UNL     C9   13   0.489   0.147   0.232
    1UNL    C10   14   0.623   0.167   0.296
    1UNL     O5   15   0.608   0.252   0.405
    1UNL    C11   16   0.390   0.072   0.333
    1UNL     O6   17   0.259   0.127   0.327
    1UNL    C12   18   0.385  -0.080   0.310
    1UNL     O7   19   0.303  -0.151   0.398
    1UNL    C13   20   0.341  -0.108   0.161
    1UNL     O8   21   0.423  -0.218   0.112
    1UNL    C14   22   0.353  -0.047  -0.365
    1UNL     O9   23   0.470  -0.105  -0.400
    1UNL    C15   24   0.279  -0.012  -0.498
    1UNL    O10   25   0.189  -0.127  -0.522
    1UNL    C16   26   0.189   0.111  -0.500
    1UNL    O11   27   0.084   0.099  -0.600
    1UNL    O12   28  -0.147  -0.097  -0.266
    1UNL    C17   29  -0.265  -0.083  -0.200
    1UNL    C18   30  -0.298   0.014  -0.111
    1UNL    C19   31  -0.431   0.071  -0.118
    1UNL    O13   32  -0.461   0.187  -0.083
    1UNL    O14   33  -0.535  -0.010  -0.166
    1UNL    C20   34  -0.661   0.051  -0.151
    1UNL    C21   35  -0.193   0.102  -0.054
    1UNL    C22   36  -0.197   0.127   0.101
    1UNL    C23   37  -0.263   0.012   0.190
    1UNL    C24   38  -0.404  -0.035   0.161
    1UNL    C25   39  -0.515   0.037   0.205
    1UNL    C26   40  -0.642  -0.016   0.198
    1UNL    O15   41  -0.754   0.056   0.235
    1UNL    C27   42  -0.661  -0.142   0.145
    1UNL    O16   43  -0.797  -0.184   0.141
    1UNL    C28   44  -0.552  -0.216   0.102
    1UNL    C29   45  -0.426  -0.164   0.116
    1UNL    C30   46  -0.306  -0.260   0.087
    1UNL    C31   47  -0.215  -0.242   0.200
    1UNL     N1   48  -0.168  -0.099   0.215
    1UNL    C32   49  -0.041  -0.073   0.269
    1UNL    C33   50   0.001   0.057   0.333
    1UNL    O17   51   0.049  -0.155   0.279
    1UNL     H1   52   0.144  -0.208  -0.032
    1UNL     H2   53   0.165  -0.086  -0.157
    1UNL     H3   54  -0.036  -0.091   0.064
    1UNL     H4   55   0.010   0.144  -0.099
    1UNL     H5   56  -0.124   0.095  -0.322
    1UNL     H6   57   0.060   0.210  -0.378
    1UNL     H7   58   0.424   0.161  -0.347
    1UNL     H8   59   0.541   0.052  -0.158
    1UNL     H9   60   0.427   0.183  -0.095
    1UNL    H10   61   0.288   0.089   0.109
    1UNL    H11   62   0.447   0.243   0.216
    1UNL    H12   63   0.658   0.072   0.329
    1UNL    H13   64   0.704   0.204   0.230
    1UNL    H14   65   0.530   0.254   0.462
    1UNL    H15   66   0.430   0.093   0.438
    1UNL    H16   67   0.251   0.195   0.391
    1UNL    H17   68   0.489  -0.123   0.309
    1UNL    H18   69   0.208  -0.146   0.369
    1UNL    H19   70   0.242  -0.136   0.149
    1UNL    H20   71   0.411  -0.303   0.171
    1UNL    H21   72   0.304  -0.123  -0.312
    1UNL    H22   73   0.472  -0.197  -0.455
    1UNL    H23   74   0.341  -0.015  -0.590
    1UNL    H24   75   0.118  -0.139  -0.444
    1UNL    H25   76   0.266   0.188  -0.529
    1UNL    H26   77   0.009   0.045  -0.569
    1UNL    H27   78  -0.338  -0.152  -0.247
    1UNL    H28   79  -0.701   0.061  -0.253
    1UNL    H29   80  -0.715  -0.020  -0.089
    1UNL    H30   81  -0.639   0.145  -0.101
    1UNL    H31   82  -0.213   0.194  -0.108
    1UNL    H32   83  -0.106   0.160   0.149
    1UNL    H33   84  -0.250   0.215   0.118
    1UNL    H34   85  -0.277   0.063   0.286
    1UNL    H35   86  -0.503   0.130   0.258
    1UNL    H36   87  -0.728   0.112   0.312
    1UNL    H37   88  -0.852  -0.137   0.205
    1UNL    H38   89  -0.565  -0.315   0.077
    1UNL    H39   90  -0.345  -0.360   0.084
    1UNL    H40   91  -0.260  -0.231  -0.011
    1UNL    H41   92  -0.127  -0.313   0.193
    1UNL    H42   93  -0.269  -0.264   0.291
    1UNL    H43   94   0.063   0.047   0.420
    1UNL    H44   95  -0.077   0.131   0.356
    1UNL    H45   96   0.070   0.096   0.255
   0.00000   0.00000   0.00000   0.00000   0.00000   0.00000   0.00000   0.00000   0.00000
Generated with MDTraj, t= 6.0
 96
    1UNL     C1    1   0.101  -0.129  -0.067
    1UNL     C2    2   0.003  -0.056  -0.019
    1UNL     C3    3  -0.052   0.059  -0.100
    1UNL     C4    4  -0.059   0.016  -0.250
    1UNL     O1    5   0.067  -0.009  -0.320
    1UNL     C5    6   0.130   0.116  -0.351
    1UNL     O2    7   0.237   0.157  -0.262
    1UNL     C6    8   0.361   0.086  -0.284
    1UNL     C7    9   0.430   0.071  -0.151
    1UNL     O3   10   0.363  -0.026  -0.071
    1UNL     C8   11   0.362   0.020   0.068
    1UNL     O4   12   0.485   0.080   0.103
    1UNL     C9   13   0.476   0.146   0.238
    1UNL    C10   14   0.619   0.179   0.285
    1UNL     O5   15   0.609   0.269   0.392
    1UNL    C11   16   0.398   0.057   0.340
    1UNL     O6   17   0.269   0.117   0.349
    1UNL    C12   18   0.388  -0.091   0.292
    1UNL     O7   19   0.317  -0.170   0.386
    1UNL    C13   20   0.327  -0.102   0.154
    1UNL     O8   21   0.376  -0.229   0.098
    1UNL    C14   22   0.352  -0.054  -0.359
    1UNL     O9   23   0.479  -0.104  -0.384
    1UNL    C15   24   0.279  -0.026  -0.495
    1UNL    O10   25   0.193  -0.131  -0.531
    1UNL    C16   26   0.192   0.105  -0.496
    1UNL    O11   27   0.091   0.093  -0.596
    1UNL    O12   28  -0.157  -0.084  -0.266
    1UNL    C17   29  -0.276  -0.047  -0.220
    1UNL    C18   30  -0.308   0.049  -0.133
    1UNL    C19   31  -0.446   0.076  -0.107
    1UNL    O13   32  -0.482   0.168  -0.035
    1UNL    O14   33  -0.543  -0.003  -0.167
    1UNL    C20   34  -0.670   0.055  -0.179
    1UNL    C21   35  -0.193   0.117  -0.061
    1UNL    C22   36  -0.219   0.133   0.096
    1UNL    C23   37  -0.257   0.028   0.189
    1UNL    C24   38  -0.398  -0.034   0.164
    1UNL    C25   39  -0.510   0.029   0.223
    1UNL    C26   40  -0.635  -0.026   0.206
    1UNL    O15   41  -0.756   0.033   0.240
    1UNL    C27   42  -0.654  -0.151   0.145
    1UNL    O16   43  -0.778  -0.203   0.122
    1UNL    C28   44  -0.542  -0.218   0.101
    1UNL    C29   45  -0.416  -0.165   0.104
    1UNL    C30   46  -0.287  -0.241   0.068
    1UNL    C31   47  -0.190  -0.220   0.179
    1UNL     N1   48  -0.156  -0.077   0.219
    1UNL    C32   49  -0.033  -0.051   0.286
    1UNL    C33   50  -0.013   0.075   0.352
    1UNL    O17   51   0.042  -0.145   0.287
    1UNL     H1   52   0.139  -0.219  -0.020
    1UNL     H2   53   0.134  -0.115  -0.176
    1UNL     H3   54  -0.041  -0.087   0.069
    1UNL     H4   55   0.019   0.142  -0.082
    1UNL     H5   56  -0.107   0.099  -0.309
    1UNL     H6   57   0.062   0.198  -0.347
    1UNL     H7   58   0.426   0.163  -0.333
    1UNL     H8   59   0.529   0.028  -0.169
    1UNL     H9   60   0.454   0.164  -0.087
    1UNL    H10   61   0.285   0.095   0.076
    1UNL    H11   62   0.417   0.236   0.234
    1UNL    H12   63   0.670   0.089   0.305
    1UNL    H13   64   0.685   0.224   0.206
    1UNL    H14   65   0.704   0.280   0.424
    1UNL    H15   66   0.442   0.054   0.443
    1UNL    H16   67   0.266   0.199   0.399
    1UNL    H17   68   0.486  -0.145   0.300
    1UNL    H18   69   0.221  -0.165   0.360
    1UNL    H19   70   0.224  -0.110   0.168
    1UNL    H20   71   0.366  -0.293   0.178
    1UNL    H21   72   0.304  -0.127  -0.301
    1UNL    H22   73   0.462  -0.192  -0.433
    1UNL    H23   74   0.354  -0.013  -0.575
    1UNL    H24   75   0.138  -0.145  -0.458
    1UNL    H25   76   0.259   0.195  -0.502
    1UNL    H26   77   0.068   0.002  -0.627
    1UNL    H27   78  -0.357  -0.103  -0.265
    1UNL    H28   79  -0.735  -0.017  -0.121
    1UNL    H29   80  -0.662   0.158  -0.134
    1UNL    H30   81  -0.687   0.064  -0.289
    1UNL    H31   82  -0.195   0.219  -0.095
    1UNL    H32   83  -0.119   0.180   0.137
    1UNL    H33   84  -0.281   0.217   0.098
    1UNL    H34   85  -0.265   0.080   0.285
    1UNL    H35   86  -0.495   0.115   0.285
    1UNL    H36   87  -0.750   0.100   0.309
    1UNL    H37   88  -0.844  -0.127   0.121
    1UNL    H38   89  -0.546  -0.324   0.057
    1UNL    H39   90  -0.317  -0.345   0.062
    1UNL    H40   91  -0.252  -0.196  -0.025
    1UNL    H41   92  -0.089  -0.270   0.145
    1UNL    H42   93  -0.225  -0.267   0.267
    1UNL    H43   94   0.070   0.087   0.419
    1UNL    H44   95  -0.100   0.118   0.412
    1UNL    H45   96  -0.005   0.141   0.276
   0.00000   0.00000   0.00000   0.00000   0.00000   0.00000   0.00000   0.00000   0.00000
Generated with MDTraj, t= 7.0
 96
    1UNL     C1    1   0.087  -0.132  -0.094
    1UNL     C2    2  -0.013  -0.055  -0.053
    1UNL     C3    3  -0.069   0.061  -0.119
    1UNL     C4    4  -0.082   0.023  -0.268
    1UNL     O1    5   0.049   0.007  -0.329
    1UNL     C5    6   0.130   0.117  -0.350
    1UNL     O2    7   0.235   0.145  -0.257
    1UNL     C6    8   0.366   0.093  -0.284
    1UNL     C7    9   0.437   0.056  -0.155
    1UNL     O3   10   0.368  -0.037  -0.071
    1UNL     C8   11   0.366   0.014   0.070
    1UNL     O4   12   0.491   0.065   0.105
    1UNL     C9   13   0.485   0.138   0.227
    1UNL    C10   14   0.623   0.192   0.270
    1UNL     O5   15   0.622   0.260   0.396
    1UNL    C11   16   0.418   0.052   0.338
    1UNL     O6   17   0.294   0.113   0.368
    1UNL    C12   18   0.401  -0.093   0.296
    1UNL     O7   19   0.338  -0.169   0.392
    1UNL    C13   20   0.322  -0.095   0.167
    1UNL     O8   21   0.314  -0.228   0.109
    1UNL    C14   22   0.359  -0.043  -0.358
    1UNL     O9   23   0.490  -0.089  -0.374
    1UNL    C15   24   0.272  -0.031  -0.489
    1UNL    O10   25   0.196  -0.142  -0.510
    1UNL    C16   26   0.190   0.099  -0.497
    1UNL    O11   27   0.083   0.084  -0.580
    1UNL    O12   28  -0.174  -0.084  -0.287
    1UNL    C17   29  -0.290  -0.052  -0.240
    1UNL    C18   30  -0.316   0.043  -0.148
    1UNL    C19   31  -0.453   0.080  -0.122
    1UNL    O13   32  -0.471   0.163  -0.035
    1UNL    O14   33  -0.557   0.029  -0.193
    1UNL    C20   34  -0.688   0.053  -0.139
    1UNL    C21   35  -0.204   0.117  -0.075
    1UNL    C22   36  -0.225   0.140   0.088
    1UNL    C23   37  -0.260   0.032   0.198
    1UNL    C24   38  -0.389  -0.034   0.166
    1UNL    C25   39  -0.505   0.018   0.224
    1UNL    C26   40  -0.629  -0.034   0.199
    1UNL    O15   41  -0.750   0.029   0.236
    1UNL    C27   42  -0.632  -0.158   0.121
    1UNL    O16   43  -0.760  -0.212   0.106
    1UNL    C28   44  -0.511  -0.214   0.069
    1UNL    C29   45  -0.388  -0.152   0.095
    1UNL    C30   46  -0.266  -0.239   0.076
    1UNL    C31   47  -0.172  -0.220   0.191
    1UNL     N1   48  -0.152  -0.074   0.224
    1UNL    C32   49  -0.045  -0.049   0.313
    1UNL    C33   50  -0.039   0.079   0.391
    1UNL    O17   51   0.039  -0.131   0.340
    1UNL     H1   52   0.117  -0.213  -0.039
    1UNL     H2   53   0.116  -0.131  -0.197
    1UNL     H3   54  -0.048  -0.073   0.047
    1UNL     H4   55   0.010   0.138  -0.109
    1UNL     H5   56  -0.128   0.107  -0.321
    1UNL     H6   57   0.069   0.204  -0.355
    1UNL     H7   58   0.418   0.172  -0.339
    1UNL     H8   59   0.535   0.018  -0.175
    1UNL     H9   60   0.455   0.142  -0.083
    1UNL    H10   61   0.293   0.092   0.059
    1UNL    H11   62   0.425   0.230   0.213
    1UNL    H12   63   0.707   0.129   0.275
    1UNL    H13   64   0.660   0.255   0.183
    1UNL    H14   65   0.528   0.291   0.401
    1UNL    H15   66   0.495   0.060   0.414
    1UNL    H16   67   0.308   0.189   0.436
    1UNL    H17   68   0.499  -0.144   0.281
    1UNL    H18   69   0.237  -0.156   0.385
    1UNL    H19   70   0.218  -0.081   0.175
    1UNL    H20   71   0.335  -0.293   0.179
    1UNL    H21   72   0.310  -0.111  -0.295
    1UNL    H22   73   0.486  -0.168  -0.427
    1UNL    H23   74   0.336  -0.028  -0.579
    1UNL    H24   75   0.125  -0.143  -0.430
    1UNL    H25   76   0.249   0.188  -0.531
    1UNL    H26   77   0.014   0.018  -0.553
    1UNL    H27   78  -0.380  -0.097  -0.276
    1UNL    H28   79  -0.672   0.082  -0.031
    1UNL    H29   80  -0.734   0.134  -0.198
    1UNL    H30   81  -0.748  -0.040  -0.151
    1UNL    H31   82  -0.204   0.217  -0.112
    1UNL    H32   83  -0.118   0.185   0.116
    1UNL    H33   84  -0.296   0.218   0.099
    1UNL    H34   85  -0.263   0.066   0.301
    1UNL    H35   86  -0.500   0.112   0.277
    1UNL    H36   87  -0.732   0.083   0.314
    1UNL    H37   88  -0.825  -0.152   0.146
    1UNL    H38   89  -0.525  -0.294   0.004
    1UNL    H39   90  -0.309  -0.340   0.085
    1UNL    H40   91  -0.227  -0.213  -0.020
    1UNL    H41   92  -0.064  -0.267   0.172
    1UNL    H42   93  -0.216  -0.259   0.278
    1UNL    H43   94   0.046   0.070   0.458
    1UNL    H44   95  -0.125   0.118   0.453
    1UNL    H45   96  -0.029   0.155   0.322
   0.00000   0.00000   0.00000   0.00000   0.00000   0.00000   0.00000   0.00000   0.00000
Generated with MDTraj, t= 8.0
 96
    1UNL     C1    1   0.090  -0.126  -0.090
    1UNL     C2    2  -0.001  -0.045  -0.042
    1UNL     C3    3  -0.066   0.074  -0.120
    1UNL     C4    4  -0.097   0.025  -0.270
    1UNL     O1    5   0.025  -0.006  -0.341
    1UNL     C5    6   0.115   0.101  -0.360
    1UNL     O2    7   0.219   0.123  -0.257
    1UNL     C6    8   0.354   0.085  -0.288
    1UNL     C7    9   0.433   0.066  -0.162
    1UNL     O3   10   0.365  -0.027  -0.077
    1UNL     C8   11   0.364   0.021   0.065
    1UNL     O4   12   0.490   0.062   0.111
    1UNL     C9   13   0.488   0.129   0.236
    1UNL    C10   14   0.627   0.169   0.287
    1UNL     O5   15   0.626   0.261   0.393
    1UNL    C11   16   0.417   0.047   0.353
    1UNL     O6   17   0.301   0.112   0.414
    1UNL    C12   18   0.380  -0.096   0.299
    1UNL     O7   19   0.310  -0.169   0.402
    1UNL    C13   20   0.293  -0.087   0.166
    1UNL     O8   21   0.277  -0.212   0.110
    1UNL    C14   22   0.362  -0.044  -0.376
    1UNL     O9   23   0.497  -0.087  -0.403
    1UNL    C15   24   0.275  -0.046  -0.507
    1UNL    O10   25   0.186  -0.153  -0.513
    1UNL    C16   26   0.186   0.091  -0.509
    1UNL    O11   27   0.100   0.105  -0.612
    1UNL    O12   28  -0.195  -0.078  -0.281
    1UNL    C17   29  -0.312  -0.044  -0.217
    1UNL    C18   30  -0.317   0.046  -0.119
    1UNL    C19   31  -0.449   0.088  -0.094
    1UNL    O13   32  -0.467   0.200  -0.043
    1UNL    O14   33  -0.552   0.004  -0.135
    1UNL    C20   34  -0.680   0.063  -0.141
    1UNL    C21   35  -0.202   0.119  -0.059
    1UNL    C22   36  -0.216   0.145   0.094
    1UNL    C23   37  -0.249   0.028   0.194
    1UNL    C24   38  -0.375  -0.039   0.153
    1UNL    C25   39  -0.493   0.019   0.197
    1UNL    C26   40  -0.612  -0.041   0.174
    1UNL    O15   41  -0.740   0.014   0.212
    1UNL    C27   42  -0.618  -0.164   0.108
    1UNL    O16   43  -0.743  -0.224   0.072
    1UNL    C28   44  -0.500  -0.231   0.079
    1UNL    C29   45  -0.377  -0.169   0.097
    1UNL    C30   46  -0.248  -0.240   0.069
    1UNL    C31   47  -0.146  -0.213   0.187
    1UNL     N1   48  -0.137  -0.067   0.229
    1UNL    C32   49  -0.041  -0.040   0.323
    1UNL    C33   50  -0.039   0.102   0.385
    1UNL    O17   51   0.032  -0.126   0.363
    1UNL     H1   52   0.130  -0.201  -0.015
    1UNL     H2   53   0.113  -0.128  -0.194
    1UNL     H3   54  -0.036  -0.055   0.065
    1UNL     H4   55   0.013   0.153  -0.125
    1UNL     H5   56  -0.141   0.109  -0.321
    1UNL     H6   57   0.058   0.192  -0.349
    1UNL     H7   58   0.385   0.162  -0.358
    1UNL     H8   59   0.528   0.023  -0.175
    1UNL     H9   60   0.442   0.159  -0.105
    1UNL    H10   61   0.308   0.116   0.060
    1UNL    H11   62   0.418   0.219   0.233
    1UNL    H12   63   0.680   0.082   0.312
    1UNL    H13   64   0.707   0.216   0.219
    1UNL    H14   65   0.601   0.352   0.371
    1UNL    H15   66   0.487   0.030   0.431
    1UNL    H16   67   0.321   0.211   0.438
    1UNL    H17   68   0.469  -0.160   0.295
    1UNL    H18   69   0.213  -0.159   0.401
    1UNL    H19   70   0.195  -0.060   0.193
    1UNL    H20   71   0.299  -0.272   0.177
    1UNL    H21   72   0.330  -0.122  -0.313
    1UNL    H22   73   0.513  -0.160  -0.458
    1UNL    H23   74   0.344  -0.062  -0.592
    1UNL    H24   75   0.120  -0.144  -0.447
    1UNL    H25   76   0.261   0.169  -0.519
    1UNL    H26   77   0.024   0.047  -0.594
    1UNL    H27   78  -0.397  -0.099  -0.256
    1UNL    H28   79  -0.705   0.113  -0.046
    1UNL    H29   80  -0.680   0.133  -0.223
    1UNL    H30   81  -0.752  -0.013  -0.162
    1UNL    H31   82  -0.211   0.220  -0.100
    1UNL    H32   83  -0.121   0.194   0.126
    1UNL    H33   84  -0.303   0.202   0.121
    1UNL    H34   85  -0.272   0.063   0.296
    1UNL    H35   86  -0.486   0.120   0.236
    1UNL    H36   87  -0.725   0.064   0.295
    1UNL    H37   88  -0.807  -0.159   0.113
    1UNL    H38   89  -0.500  -0.322   0.022
    1UNL    H39   90  -0.266  -0.348   0.054
    1UNL    H40   91  -0.207  -0.195  -0.015
    1UNL    H41   92  -0.032  -0.231   0.163
    1UNL    H42   93  -0.167  -0.266   0.277
    1UNL    H43   94   0.069   0.112   0.404
    1UNL    H44   95  -0.087   0.126   0.477
    1UNL    H45   96  -0.082   0.171   0.312
   0.00000   0.00000   0.00000   0.00000   0.00000   0.00000   0.00000   0.00000   0.00000
Generated with MDTraj, t= 9.0
 96
    1UNL     C1    1   0.098  -0.108  -0.109
    1UNL     C2    2   0.018  -0.021  -0.049
    1UNL     C3    3  -0.059   0.078  -0.127
    1UNL     C4    4  -0.094   0.022  -0.267
    1UNL     O1    5   0.014  -0.004  -0.357
    1UNL     C5    6   0.104   0.099  -0.367
    1UNL     O2    7   0.197   0.113  -0.254
    1UNL     C6    8   0.336   0.075  -0.280
    1UNL     C7    9   0.418   0.057  -0.150
    1UNL     O3   10   0.341  -0.025  -0.062
    1UNL     C8   11   0.349   0.020   0.071
    1UNL     O4   12   0.482   0.059   0.117
    1UNL     C9   13   0.484   0.135   0.244
    1UNL    C10   14   0.624   0.173   0.281
    1UNL     O5   15   0.640   0.241   0.399
    1UNL    C11   16   0.406   0.044   0.357
    1UNL     O6   17   0.290   0.113   0.396
    1UNL    C12   18   0.370  -0.098   0.304
    1UNL     O7   19   0.318  -0.189   0.399
    1UNL    C13   20   0.279  -0.083   0.177
    1UNL     O8   21   0.248  -0.210   0.126
    1UNL    C14   22   0.346  -0.050  -0.370
    1UNL     O9   23   0.486  -0.079  -0.395
    1UNL    C15   24   0.266  -0.041  -0.497
    1UNL    O10   25   0.185  -0.149  -0.522
    1UNL    C16   26   0.173   0.091  -0.500
    1UNL    O11   27   0.093   0.086  -0.611
    1UNL    O12   28  -0.175  -0.090  -0.249
    1UNL    C17   29  -0.303  -0.064  -0.197
    1UNL    C18   30  -0.318   0.048  -0.118
    1UNL    C19   31  -0.450   0.101  -0.093
    1UNL    O13   32  -0.459   0.208  -0.031
    1UNL    O14   33  -0.552   0.031  -0.146
    1UNL    C20   34  -0.670   0.091  -0.111
    1UNL    C21   35  -0.199   0.131  -0.070
    1UNL    C22   36  -0.199   0.154   0.081
    1UNL    C23   37  -0.238   0.035   0.180
    1UNL    C24   38  -0.368  -0.041   0.148
    1UNL    C25   39  -0.490   0.016   0.177
    1UNL    C26   40  -0.609  -0.052   0.152
    1UNL    O15   41  -0.738  -0.002   0.177
    1UNL    C27   42  -0.605  -0.184   0.096
    1UNL    O16   43  -0.720  -0.248   0.074
    1UNL    C28   44  -0.480  -0.242   0.082
    1UNL    C29   45  -0.365  -0.171   0.104
    1UNL    C30   46  -0.231  -0.229   0.070
    1UNL    C31   47  -0.152  -0.204   0.200
    1UNL     N1   48  -0.124  -0.060   0.220
    1UNL    C32   49  -0.029  -0.031   0.315
    1UNL    C33   50  -0.018   0.109   0.376
    1UNL    O17   51   0.042  -0.112   0.369
    1UNL     H1   52   0.164  -0.178  -0.053
    1UNL     H2   53   0.121  -0.087  -0.205
    1UNL     H3   54   0.006  -0.026   0.063
    1UNL     H4   55   0.016   0.161  -0.142
    1UNL     H5   56  -0.159   0.092  -0.313
    1UNL     H6   57   0.037   0.184  -0.364
    1UNL     H7   58   0.373   0.153  -0.343
    1UNL     H8   59   0.507   0.009  -0.174
    1UNL     H9   60   0.437   0.148  -0.095
    1UNL    H10   61   0.295   0.117   0.087
    1UNL    H11   62   0.413   0.223   0.223
    1UNL    H12   63   0.687   0.088   0.293
    1UNL    H13   64   0.679   0.219   0.190
    1UNL    H14   65   0.590   0.326   0.402
    1UNL    H15   66   0.472   0.030   0.437
    1UNL    H16   67   0.234   0.044   0.437
    1UNL    H17   68   0.458  -0.138   0.256
    1UNL    H18   69   0.222  -0.160   0.397
    1UNL    H19   70   0.182  -0.045   0.196
    1UNL    H20   71   0.292  -0.279   0.183
    1UNL    H21   72   0.299  -0.130  -0.318
    1UNL    H22   73   0.491  -0.154  -0.454
    1UNL    H23   74   0.332  -0.027  -0.583
    1UNL    H24   75   0.093  -0.143  -0.475
    1UNL    H25   76   0.229   0.181  -0.524
    1UNL    H26   77   0.030   0.012  -0.601
    1UNL    H27   78  -0.389  -0.123  -0.231
    1UNL    H28   79  -0.682   0.094  -0.003
    1UNL    H29   80  -0.674   0.193  -0.144
    1UNL    H30   81  -0.751   0.041  -0.156
    1UNL    H31   82  -0.227   0.227  -0.120
    1UNL    H32   83  -0.106   0.186   0.107
    1UNL    H33   84  -0.276   0.229   0.100
    1UNL    H34   85  -0.269   0.090   0.271
    1UNL    H35   86  -0.502   0.113   0.220
    1UNL    H36   87  -0.725   0.045   0.264
    1UNL    H37   88  -0.782  -0.177   0.048
    1UNL    H38   89  -0.466  -0.351   0.053
    1UNL    H39   90  -0.231  -0.339   0.058
    1UNL    H40   91  -0.184  -0.182  -0.010
    1UNL    H41   92  -0.050  -0.257   0.209
    1UNL    H42   93  -0.210  -0.227   0.290
    1UNL    H43   94   0.084   0.141   0.349
    1UNL    H44   95  -0.014   0.122   0.476
    1UNL    H45   96  -0.097   0.183   0.341
   0.00000   0.00000   0.00000   0.00000   0.00000   0.00000   0.00000   0.00000   0.00000
Generated with MDTraj, t= 10.0
 96
    1UNL     C1    1   0.053  -0.148  -0.080
    1UNL     C2    2  -0.004  -0.040  -0.031
    1UNL     C3    3  -0.064   0.067  -0.120
    1UNL     C4    4  -0.092   0.016  -0.261
    1UNL     O1    5   0.034  -0.010  -0.324
    1UNL     C5    6   0.095   0.106  -0.371
    1UNL     O2    7   0.189   0.139  -0.259
    1UNL     C6    8   0.323   0.086  -0.279
    1UNL     C7    9   0.398   0.075  -0.145
    1UNL     O3   10   0.327  -0.019  -0.063
    1UNL     C8   11   0.328   0.011   0.072
    1UNL     O4   12   0.457   0.067   0.107
    1UNL     C9   13   0.470   0.128   0.241
    1UNL    C10   14   0.611   0.167   0.277
    1UNL     O5   15   0.622   0.201   0.416
    1UNL    C11   16   0.407   0.037   0.351
    1UNL     O6   17   0.303   0.107   0.407
    1UNL    C12   18   0.384  -0.108   0.293
    1UNL     O7   19   0.324  -0.196   0.394
    1UNL    C13   20   0.293  -0.106   0.170
    1UNL     O8   21   0.283  -0.244   0.116
    1UNL    C14   22   0.325  -0.047  -0.351
    1UNL     O9   23   0.461  -0.086  -0.367
    1UNL    C15   24   0.262  -0.040  -0.491
    1UNL    O10   25   0.181  -0.151  -0.516
    1UNL    C16   26   0.171   0.090  -0.501
    1UNL    O11   27   0.087   0.071  -0.610
    1UNL    O12   28  -0.187  -0.097  -0.255
    1UNL    C17   29  -0.309  -0.047  -0.215
    1UNL    C18   30  -0.324   0.066  -0.132
    1UNL    C19   31  -0.459   0.124  -0.111
    1UNL    O13   32  -0.466   0.219  -0.034
    1UNL    O14   33  -0.560   0.071  -0.177
    1UNL    C20   34  -0.676   0.146  -0.161
    1UNL    C21   35  -0.196   0.129  -0.070
    1UNL    C22   36  -0.203   0.147   0.079
    1UNL    C23   37  -0.226   0.028   0.183
    1UNL    C24   38  -0.355  -0.051   0.159
    1UNL    C25   39  -0.479  -0.006   0.191
    1UNL    C26   40  -0.594  -0.076   0.161
    1UNL    O15   41  -0.722  -0.026   0.181
    1UNL    C27   42  -0.587  -0.199   0.093
    1UNL    O16   43  -0.705  -0.270   0.075
    1UNL    C28   44  -0.462  -0.243   0.057
    1UNL    C29   45  -0.345  -0.174   0.099
    1UNL    C30   46  -0.210  -0.238   0.087
    1UNL    C31   47  -0.115  -0.195   0.198
    1UNL     N1   48  -0.107  -0.046   0.225
    1UNL    C32   49  -0.017   0.011   0.317
    1UNL    C33   50  -0.028   0.154   0.358
    1UNL    O17   51   0.066  -0.055   0.375
    1UNL     H1   52   0.124  -0.213  -0.031
    1UNL     H2   53   0.049  -0.162  -0.187
    1UNL     H3   54   0.038  -0.012   0.057
    1UNL     H4   55   0.015   0.143  -0.139
    1UNL     H5   56  -0.145   0.089  -0.321
    1UNL     H6   57   0.013   0.177  -0.377
    1UNL     H7   58   0.381   0.154  -0.337
    1UNL     H8   59   0.489   0.025  -0.153
    1UNL     H9   60   0.415   0.174  -0.102
    1UNL    H10   61   0.261   0.096   0.104
    1UNL    H11   62   0.394   0.216   0.236
    1UNL    H12   63   0.687   0.100   0.244
    1UNL    H13   64   0.629   0.260   0.212
    1UNL    H14   65   0.590   0.294   0.434
    1UNL    H15   66   0.484   0.028   0.423
    1UNL    H16   67   0.215   0.053   0.400
    1UNL    H17   68   0.483  -0.147   0.277
    1UNL    H18   69   0.232  -0.169   0.405
    1UNL    H19   70   0.202  -0.085   0.220
    1UNL    H20   71   0.370  -0.260   0.065
    1UNL    H21   72   0.285  -0.124  -0.287
    1UNL    H22   73   0.457  -0.173  -0.418
    1UNL    H23   74   0.353  -0.036  -0.553
    1UNL    H24   75   0.108  -0.158  -0.444
    1UNL    H25   76   0.220   0.183  -0.526
    1UNL    H26   77   0.049  -0.021  -0.614
    1UNL    H27   78  -0.405  -0.091  -0.251
    1UNL    H28   79  -0.683   0.200  -0.064
    1UNL    H29   80  -0.689   0.223  -0.236
    1UNL    H30   81  -0.763   0.084  -0.165
    1UNL    H31   82  -0.210   0.233  -0.115
    1UNL    H32   83  -0.115   0.198   0.101
    1UNL    H33   84  -0.287   0.216   0.081
    1UNL    H34   85  -0.252   0.082   0.276
    1UNL    H35   86  -0.495   0.088   0.243
    1UNL    H36   87  -0.731   0.027   0.265
    1UNL    H37   88  -0.767  -0.238   0.144
    1UNL    H38   89  -0.468  -0.339   0.023
    1UNL    H39   90  -0.225  -0.347   0.097
    1UNL    H40   91  -0.172  -0.215  -0.010
    1UNL    H41   92  -0.008  -0.220   0.176
    1UNL    H42   93  -0.147  -0.240   0.297
    1UNL    H43   94  -0.016   0.217   0.269
    1UNL    H44   95   0.043   0.198   0.418
    1UNL    H45   96  -0.129   0.184   0.400
   0.00000   0.00000   0.00000   0.00000   0.00000   0.00000   0.00000   0.00000   0.00000
Generated with MDTraj, t= 11.0
 96
    1UNL     C1    1   0.038  -0.145  -0.105
    1UNL     C2    2  -0.002  -0.030  -0.047
    1UNL     C3    3  -0.071   0.075  -0.131
    1UNL     C4    4  -0.101   0.025  -0.271
    1UNL     O1    5   0.017  -0.004  -0.340
    1UNL     C5    6   0.092   0.110  -0.375
    1UNL     O2    7   0.184   0.158  -0.263
    1UNL     C6    8   0.317   0.092  -0.277
    1UNL     C7    9   0.367   0.094  -0.131
    1UNL     O3   10   0.280   0.028  -0.050
    1UNL     C8   11   0.322   0.016   0.086
    1UNL     O4   12   0.450   0.079   0.112
    1UNL     C9   13   0.471   0.110   0.248
    1UNL    C10   14   0.613   0.145   0.274
    1UNL     O5   15   0.629   0.202   0.404
    1UNL    C11   16   0.422   0.002   0.357
    1UNL     O6   17   0.325   0.071   0.424
    1UNL    C12   18   0.377  -0.136   0.295
    1UNL     O7   19   0.285  -0.205   0.387
    1UNL    C13   20   0.320  -0.122   0.152
    1UNL     O8   21   0.392  -0.231   0.074
    1UNL    C14   22   0.310  -0.050  -0.333
    1UNL     O9   23   0.430  -0.122  -0.321
    1UNL    C15   24   0.256  -0.049  -0.479
    1UNL    O10   25   0.187  -0.171  -0.510
    1UNL    C16   26   0.170   0.076  -0.506
    1UNL    O11   27   0.081   0.055  -0.609
    1UNL    O12   28  -0.192  -0.089  -0.266
    1UNL    C17   29  -0.311  -0.044  -0.201
    1UNL    C18   30  -0.325   0.067  -0.119
    1UNL    C19   31  -0.452   0.130  -0.112
    1UNL    O13   32  -0.464   0.230  -0.040
    1UNL    O14   33  -0.552   0.076  -0.194
    1UNL    C20   34  -0.662   0.164  -0.194
    1UNL    C21   35  -0.198   0.140  -0.068
    1UNL    C22   36  -0.200   0.168   0.084
    1UNL    C23   37  -0.239   0.049   0.194
    1UNL    C24   38  -0.358  -0.043   0.163
    1UNL    C25   39  -0.490  -0.007   0.185
    1UNL    C26   40  -0.600  -0.090   0.149
    1UNL    O15   41  -0.733  -0.053   0.169
    1UNL    C27   42  -0.573  -0.219   0.096
    1UNL    O16   43  -0.676  -0.309   0.062
    1UNL    C28   44  -0.442  -0.259   0.091
    1UNL    C29   45  -0.335  -0.176   0.123
    1UNL    C30   46  -0.197  -0.232   0.120
    1UNL    C31   47  -0.117  -0.171   0.225
    1UNL     N1   48  -0.117  -0.022   0.235
    1UNL    C32   49  -0.019   0.034   0.311
    1UNL    C33   50  -0.025   0.169   0.368
    1UNL    O17   51   0.081  -0.031   0.342
    1UNL     H1   52   0.089  -0.225  -0.068
    1UNL     H2   53   0.007  -0.160  -0.211
    1UNL     H3   54   0.027  -0.006   0.055
    1UNL     H4   55   0.004   0.156  -0.146
    1UNL     H5   56  -0.156   0.102  -0.327
    1UNL     H6   57   0.015   0.181  -0.403
    1UNL     H7   58   0.386   0.151  -0.337
    1UNL     H8   59   0.459   0.042  -0.128
    1UNL     H9   60   0.378   0.197  -0.088
    1UNL    H10   61   0.242   0.076   0.138
    1UNL    H11   62   0.399   0.195   0.279
    1UNL    H12   63   0.664   0.052   0.262
    1UNL    H13   64   0.661   0.217   0.199
    1UNL    H14   65   0.548   0.249   0.442
    1UNL    H15   66   0.499  -0.013   0.428
    1UNL    H16   67   0.235   0.041   0.401
    1UNL    H17   68   0.467  -0.197   0.286
    1UNL    H18   69   0.203  -0.147   0.379
    1UNL    H19   70   0.223  -0.164   0.145
    1UNL    H20   71   0.393  -0.196  -0.019
    1UNL    H21   72   0.239  -0.105  -0.272
    1UNL    H22   73   0.423  -0.204  -0.386
    1UNL    H23   74   0.340  -0.062  -0.549
    1UNL    H24   75   0.098  -0.176  -0.472
    1UNL    H25   76   0.227   0.161  -0.541
    1UNL    H26   77   0.006   0.001  -0.574
    1UNL    H27   78  -0.392  -0.107  -0.233
    1UNL    H28   79  -0.729   0.157  -0.101
    1UNL    H29   80  -0.636   0.272  -0.200
    1UNL    H30   81  -0.734   0.147  -0.276
    1UNL    H31   82  -0.206   0.243  -0.117
    1UNL    H32   83  -0.087   0.187   0.111
    1UNL    H33   84  -0.259   0.256   0.109
    1UNL    H34   85  -0.269   0.107   0.284
    1UNL    H35   86  -0.499   0.095   0.215
    1UNL    H36   87  -0.751   0.019   0.233
    1UNL    H37   88  -0.759  -0.256   0.056
    1UNL    H38   89  -0.415  -0.366   0.066
    1UNL    H39   90  -0.202  -0.341   0.122
    1UNL    H40   91  -0.165  -0.195   0.019
    1UNL    H41   92  -0.010  -0.190   0.210
    1UNL    H42   93  -0.151  -0.206   0.334
    1UNL    H43   94   0.035   0.236   0.306
    1UNL    H44   95   0.024   0.167   0.468
    1UNL    H45   96  -0.120   0.226   0.360
   0.00000   0.00000   0.00000   0.00000   0.00000   0.00000   0.00000   0.00000   0.00000
Generated with MDTraj, t= 12.0
 96
    1UNL     C1    1   0.033  -0.151  -0.080
    1UNL     C2    2  -0.000  -0.028  -0.034
    1UNL     C3    3  -0.071   0.076  -0.118
    1UNL     C4    4  -0.101   0.032  -0.262
    1UNL     O1    5   0.005  -0.006  -0.348
    1UNL     C5    6   0.089   0.099  -0.385
    1UNL     O2    7   0.162   0.172  -0.281
    1UNL     C6    8   0.291   0.101  -0.263
    1UNL     C7    9   0.337   0.122  -0.111
    1UNL     O3   10   0.274   0.027  -0.029
    1UNL     C8   11   0.319   0.014   0.105
    1UNL     O4   12   0.428   0.105   0.130
    1UNL     C9   13   0.488   0.101   0.256
    1UNL    C10   14   0.641   0.138   0.265
    1UNL     O5   15   0.676   0.189   0.392
    1UNL    C11   16   0.453  -0.029   0.355
    1UNL     O6   17   0.357   0.010   0.447
    1UNL    C12   18   0.411  -0.164   0.277
    1UNL     O7   19   0.292  -0.217   0.358
    1UNL    C13   20   0.361  -0.134   0.129
    1UNL     O8   21   0.471  -0.169   0.040
    1UNL    C14   22   0.282  -0.047  -0.300
    1UNL     O9   23   0.385  -0.128  -0.258
    1UNL    C15   24   0.254  -0.066  -0.458
    1UNL    O10   25   0.171  -0.179  -0.491
    1UNL    C16   26   0.183   0.061  -0.506
    1UNL    O11   27   0.125   0.046  -0.631
    1UNL    O12   28  -0.197  -0.076  -0.263
    1UNL    C17   29  -0.316  -0.034  -0.208
    1UNL    C18   30  -0.333   0.071  -0.128
    1UNL    C19   31  -0.464   0.128  -0.113
    1UNL    O13   32  -0.476   0.217  -0.028
    1UNL    O14   33  -0.562   0.087  -0.202
    1UNL    C20   34  -0.675   0.160  -0.173
    1UNL    C21   35  -0.207   0.135  -0.065
    1UNL    C22   36  -0.227   0.166   0.084
    1UNL    C23   37  -0.257   0.053   0.185
    1UNL    C24   38  -0.358  -0.051   0.133
    1UNL    C25   39  -0.488  -0.004   0.137
    1UNL    C26   40  -0.596  -0.089   0.116
    1UNL    O15   41  -0.723  -0.037   0.124
    1UNL    C27   42  -0.568  -0.230   0.098
    1UNL    O16   43  -0.676  -0.313   0.088
    1UNL    C28   44  -0.438  -0.276   0.101
    1UNL    C29   45  -0.335  -0.182   0.112
    1UNL    C30   46  -0.197  -0.229   0.134
    1UNL    C31   47  -0.130  -0.159   0.252
    1UNL     N1   48  -0.125  -0.015   0.226
    1UNL    C32   49  -0.033   0.056   0.297
    1UNL    C33   50  -0.052   0.200   0.340
    1UNL    O17   51   0.070  -0.005   0.328
    1UNL     H1   52   0.081  -0.233  -0.028
    1UNL     H2   53  -0.010  -0.177  -0.177
    1UNL     H3   54   0.008   0.001   0.076
    1UNL     H4   55   0.002   0.160  -0.122
    1UNL     H5   56  -0.155   0.116  -0.313
    1UNL     H6   57   0.016   0.169  -0.426
    1UNL     H7   58   0.361   0.158  -0.326
    1UNL     H8   59   0.444   0.101  -0.106
    1UNL     H9   60   0.313   0.228  -0.077
    1UNL    H10   61   0.231   0.036   0.169
    1UNL    H11   62   0.439   0.189   0.307
    1UNL    H12   63   0.715   0.060   0.254
    1UNL    H13   64   0.655   0.215   0.181
    1UNL    H14   65   0.596   0.235   0.425
    1UNL    H15   66   0.545  -0.053   0.407
    1UNL    H16   67   0.263   0.004   0.409
    1UNL    H17   68   0.488  -0.241   0.299
    1UNL    H18   69   0.213  -0.165   0.341
    1UNL    H19   70   0.285  -0.206   0.102
    1UNL    H20   71   0.436  -0.141  -0.046
    1UNL    H21   72   0.198  -0.078  -0.243
    1UNL    H22   73   0.393  -0.215  -0.318
    1UNL    H23   74   0.347  -0.085  -0.514
    1UNL    H24   75   0.104  -0.193  -0.415
    1UNL    H25   76   0.253   0.143  -0.522
    1UNL    H26   77   0.078  -0.038  -0.626
    1UNL    H27   78  -0.407  -0.081  -0.239
    1UNL    H28   79  -0.736   0.104  -0.096
    1UNL    H29   80  -0.670   0.265  -0.140
    1UNL    H30   81  -0.742   0.159  -0.259
    1UNL    H31   82  -0.202   0.240  -0.108
    1UNL    H32   83  -0.130   0.219   0.127
    1UNL    H33   84  -0.311   0.237   0.089
    1UNL    H34   85  -0.300   0.105   0.276
    1UNL    H35   86  -0.512   0.102   0.134
    1UNL    H36   87  -0.722   0.044   0.177
    1UNL    H37   88  -0.764  -0.272   0.078
    1UNL    H38   89  -0.414  -0.380   0.092
    1UNL    H39   90  -0.201  -0.334   0.159
    1UNL    H40   91  -0.140  -0.207   0.037
    1UNL    H41   92  -0.029  -0.199   0.266
    1UNL    H42   93  -0.197  -0.171   0.351
    1UNL    H43   94   0.014   0.258   0.275
    1UNL    H44   95  -0.006   0.209   0.449
    1UNL    H45   96  -0.141   0.250   0.315
   0.00000   0.00000   0.00000   0.00000   0.00000   0.00000   0.00000   0.00000   0.00000
Generated with MDTraj, t= 13.0
 96
    1UNL     C1    1  -0.023  -0.150  -0.081
    1UNL     C2    2  -0.032  -0.018  -0.053
    1UNL     C3    3  -0.093   0.084  -0.144
    1UNL     C4    4  -0.118   0.028  -0.283
    1UNL     O1    5  -0.002  -0.010  -0.350
    1UNL     C5    6   0.092   0.099  -0.371
    1UNL     O2    7   0.154   0.156  -0.252
    1UNL     C6    8   0.285   0.101  -0.236
    1UNL     C7    9   0.319   0.129  -0.084
    1UNL     O3   10   0.241   0.046  -0.003
    1UNL     C8   11   0.314   0.024   0.116
    1UNL     O4   12   0.401   0.128   0.156
    1UNL     C9   13   0.479   0.106   0.269
    1UNL    C10   14   0.626   0.133   0.242
    1UNL     O5   15   0.705   0.102   0.356
    1UNL    C11   16   0.457  -0.037   0.342
    1UNL     O6   17   0.357  -0.009   0.438
    1UNL    C12   18   0.417  -0.159   0.249
    1UNL     O7   19   0.303  -0.210   0.306
    1UNL    C13   20   0.397  -0.111   0.103
    1UNL     O8   21   0.522  -0.092   0.036
    1UNL    C14   22   0.290  -0.048  -0.266
    1UNL     O9   23   0.402  -0.116  -0.229
    1UNL    C15   24   0.270  -0.070  -0.421
    1UNL    O10   25   0.200  -0.189  -0.444
    1UNL    C16   26   0.198   0.050  -0.484
    1UNL    O11   27   0.131   0.016  -0.603
    1UNL    O12   28  -0.215  -0.076  -0.279
    1UNL    C17   29  -0.331  -0.033  -0.226
    1UNL    C18   30  -0.342   0.073  -0.143
    1UNL    C19   31  -0.471   0.133  -0.128
    1UNL    O13   32  -0.481   0.234  -0.058
    1UNL    O14   33  -0.578   0.077  -0.199
    1UNL    C20   34  -0.690   0.148  -0.164
    1UNL    C21   35  -0.223   0.143  -0.083
    1UNL    C22   36  -0.230   0.161   0.076
    1UNL    C23   37  -0.240   0.053   0.185
    1UNL    C24   38  -0.357  -0.048   0.156
    1UNL    C25   39  -0.489  -0.003   0.137
    1UNL    C26   40  -0.597  -0.085   0.117
    1UNL    O15   41  -0.728  -0.039   0.095
    1UNL    C27   42  -0.569  -0.218   0.101
    1UNL    O16   43  -0.682  -0.299   0.065
    1UNL    C28   44  -0.446  -0.275   0.114
    1UNL    C29   45  -0.336  -0.192   0.148
    1UNL    C30   46  -0.203  -0.250   0.165
    1UNL    C31   47  -0.102  -0.159   0.247
    1UNL     N1   48  -0.111  -0.013   0.217
    1UNL    C32   49  -0.012   0.058   0.283
    1UNL    C33   50  -0.026   0.193   0.339
    1UNL    O17   51   0.092  -0.006   0.305
    1UNL     H1   52   0.022  -0.221  -0.007
    1UNL     H2   53  -0.061  -0.181  -0.171
    1UNL     H3   54   0.018   0.021   0.028
    1UNL     H4   55  -0.018   0.165  -0.151
    1UNL     H5   56  -0.164   0.110  -0.347
    1UNL     H6   57   0.042   0.189  -0.406
    1UNL     H7   58   0.356   0.155  -0.304
    1UNL     H8   59   0.426   0.104  -0.063
    1UNL     H9   60   0.296   0.237  -0.051
    1UNL    H10   61   0.238   0.004   0.192
    1UNL    H11   62   0.443   0.176   0.346
    1UNL    H12   63   0.646   0.069   0.158
    1UNL    H13   64   0.656   0.241   0.222
    1UNL    H14   65   0.685   0.170   0.420
    1UNL    H15   66   0.551  -0.068   0.396
    1UNL    H16   67   0.275  -0.001   0.390
    1UNL    H17   68   0.503  -0.231   0.250
    1UNL    H18   69   0.224  -0.151   0.297
    1UNL    H19   70   0.350  -0.187   0.038
    1UNL    H20   71   0.500  -0.098  -0.063
    1UNL    H21   72   0.205  -0.098  -0.225
    1UNL    H22   73   0.397  -0.207  -0.268
    1UNL    H23   74   0.368  -0.082  -0.468
    1UNL    H24   75   0.113  -0.155  -0.426
    1UNL    H25   76   0.270   0.126  -0.517
    1UNL    H26   77   0.066  -0.053  -0.574
    1UNL    H27   78  -0.433  -0.064  -0.252
    1UNL    H28   79  -0.710   0.139  -0.055
    1UNL    H29   80  -0.707   0.249  -0.196
    1UNL    H30   81  -0.775   0.096  -0.205
    1UNL    H31   82  -0.224   0.250  -0.114
    1UNL    H32   83  -0.139   0.217   0.093
    1UNL    H33   84  -0.314   0.237   0.078
    1UNL    H34   85  -0.263   0.098   0.284
    1UNL    H35   86  -0.508   0.103   0.144
    1UNL    H36   87  -0.761   0.017   0.168
    1UNL    H37   88  -0.767  -0.248   0.066
    1UNL    H38   89  -0.438  -0.380   0.110
    1UNL    H39   90  -0.218  -0.340   0.225
    1UNL    H40   91  -0.157  -0.272   0.066
    1UNL    H41   92  -0.001  -0.193   0.221
    1UNL    H42   93  -0.116  -0.178   0.363
    1UNL    H43   94  -0.049   0.259   0.258
    1UNL    H44   95   0.082   0.218   0.375
    1UNL    H45   96  -0.101   0.214   0.410
   0.00000   0.00000   0.00000   0.00000   0.00000   0.00000   0.00000   0.00000   0.00000
Generated with MDTraj, t= 14.0
 96
    1UNL     C1    1  -0.021  -0.163  -0.116
    1UNL     C2    2  -0.042  -0.043  -0.068
    1UNL     C3    3  -0.108   0.067  -0.146
    1UNL     C4    4  -0.121   0.019  -0.287
    1UNL     O1    5   0.003  -0.023  -0.342
    1UNL     C5    6   0.086   0.091  -0.384
    1UNL     O2    7   0.153   0.150  -0.269
    1UNL     C6    8   0.291   0.121  -0.239
    1UNL     C7    9   0.329   0.158  -0.089
    1UNL     O3   10   0.251   0.103   0.012
    1UNL     C8   11   0.313   0.060   0.133
    1UNL     O4   12   0.399   0.155   0.203
    1UNL     C9   13   0.487   0.111   0.297
    1UNL    C10   14   0.622   0.081   0.236
    1UNL     O5   15   0.730   0.047   0.323
    1UNL    C11   16   0.440  -0.023   0.361
    1UNL     O6   17   0.334  -0.008   0.453
    1UNL    C12   18   0.417  -0.139   0.252
    1UNL     O7   19   0.315  -0.223   0.293
    1UNL    C13   20   0.391  -0.075   0.114
    1UNL     O8   21   0.505  -0.067   0.029
    1UNL    C14   22   0.326  -0.024  -0.268
    1UNL     O9   23   0.458  -0.067  -0.247
    1UNL    C15   24   0.273  -0.070  -0.410
    1UNL    O10   25   0.203  -0.201  -0.401
    1UNL    C16   26   0.192   0.034  -0.487
    1UNL    O11   27   0.129  -0.028  -0.597
    1UNL    O12   28  -0.232  -0.077  -0.289
    1UNL    C17   29  -0.351  -0.026  -0.231
    1UNL    C18   30  -0.358   0.069  -0.132
    1UNL    C19   31  -0.487   0.133  -0.114
    1UNL    O13   32  -0.511   0.242  -0.055
    1UNL    O14   33  -0.600   0.059  -0.165
    1UNL    C20   34  -0.702   0.145  -0.193
    1UNL    C21   35  -0.235   0.134  -0.083
    1UNL    C22   36  -0.218   0.156   0.072
    1UNL    C23   37  -0.232   0.039   0.181
    1UNL    C24   38  -0.354  -0.055   0.160
    1UNL    C25   39  -0.479   0.003   0.166
    1UNL    C26   40  -0.595  -0.064   0.124
    1UNL    O15   41  -0.724  -0.026   0.112
    1UNL    C27   42  -0.573  -0.204   0.091
    1UNL    O16   43  -0.694  -0.273   0.061
    1UNL    C28   44  -0.444  -0.263   0.096
    1UNL    C29   45  -0.336  -0.190   0.135
    1UNL    C30   46  -0.202  -0.253   0.147
    1UNL    C31   47  -0.110  -0.177   0.239
    1UNL     N1   48  -0.107  -0.035   0.210
    1UNL    C32   49  -0.001   0.033   0.275
    1UNL    C33   50   0.007   0.183   0.291
    1UNL    O17   51   0.091  -0.029   0.330
    1UNL     H1   52   0.048  -0.226  -0.061
    1UNL     H2   53  -0.055  -0.181  -0.216
    1UNL     H3   54   0.006  -0.021   0.034
    1UNL     H4   55  -0.033   0.150  -0.142
    1UNL     H5   56  -0.152   0.105  -0.353
    1UNL     H6   57   0.030   0.170  -0.432
    1UNL     H7   58   0.349   0.186  -0.310
    1UNL     H8   59   0.434   0.135  -0.061
    1UNL     H9   60   0.318   0.272  -0.072
    1UNL    H10   61   0.227   0.035   0.200
    1UNL    H11   62   0.490   0.182   0.377
    1UNL    H12   63   0.626  -0.010   0.181
    1UNL    H13   64   0.635   0.173   0.172
    1UNL    H14   65   0.784   0.123   0.355
    1UNL    H15   66   0.521  -0.070   0.428
    1UNL    H16   67   0.247  -0.004   0.401
    1UNL    H17   68   0.506  -0.208   0.244
    1UNL    H18   69   0.234  -0.170   0.324
    1UNL    H19   70   0.327  -0.147   0.054
    1UNL    H20   71   0.491  -0.064  -0.069
    1UNL    H21   72   0.268  -0.081  -0.196
    1UNL    H22   73   0.474  -0.156  -0.268
    1UNL    H23   74   0.367  -0.087  -0.464
    1UNL    H24   75   0.109  -0.175  -0.361
    1UNL    H25   76   0.253   0.112  -0.538
    1UNL    H26   77   0.065  -0.092  -0.559
    1UNL    H27   78  -0.443  -0.081  -0.256
    1UNL    H28   79  -0.730   0.218  -0.117
    1UNL    H29   80  -0.696   0.190  -0.289
    1UNL    H30   81  -0.791   0.086  -0.199
    1UNL    H31   82  -0.231   0.235  -0.123
    1UNL    H32   83  -0.128   0.203   0.089
    1UNL    H33   84  -0.302   0.232   0.098
    1UNL    H34   85  -0.252   0.082   0.280
    1UNL    H35   86  -0.487   0.102   0.206
    1UNL    H36   87  -0.731   0.070   0.132
    1UNL    H37   88  -0.760  -0.203   0.042
    1UNL    H38   89  -0.436  -0.375   0.096
    1UNL    H39   90  -0.203  -0.360   0.172
    1UNL    H40   91  -0.159  -0.235   0.049
    1UNL    H41   92  -0.008  -0.219   0.253
    1UNL    H42   93  -0.149  -0.184   0.347
    1UNL    H43   94   0.068   0.218   0.209
    1UNL    H44   95   0.059   0.205   0.383
    1UNL    H45   96  -0.087   0.237   0.283
   0.00000   0.00000   0.00000   0.00000   0.00000   0.00000   0.00000   0.00000   0.00000
Generated with MDTraj, t= 15.0
 96
    1UNL     C1    1  -0.004  -0.178  -0.112
    1UNL     C2    2  -0.020  -0.057  -0.060
    1UNL     C3    3  -0.084   0.057  -0.135
    1UNL     C4    4  -0.114   0.018  -0.286
    1UNL     O1    5  -0.008  -0.021  -0.367
    1UNL     C5    6   0.095   0.079  -0.374
    1UNL     O2    7   0.133   0.128  -0.242
    1UNL     C6    8   0.272   0.128  -0.224
    1UNL     C7    9   0.310   0.175  -0.082
    1UNL     O3   10   0.235   0.098   0.004
    1UNL     C8   11   0.309   0.066   0.118
    1UNL     O4   12   0.433   0.144   0.140
    1UNL     C9   13   0.503   0.107   0.256
    1UNL    C10   14   0.654   0.089   0.223
    1UNL     O5   15   0.732   0.042   0.332
    1UNL    C11   16   0.442  -0.012   0.345
    1UNL     O6   17   0.351   0.015   0.444
    1UNL    C12   18   0.393  -0.131   0.247
    1UNL     O7   19   0.296  -0.216   0.300
    1UNL    C13   20   0.370  -0.082   0.109
    1UNL     O8   21   0.483  -0.089   0.028
    1UNL    C14   22   0.336  -0.015  -0.252
    1UNL     O9   23   0.476   0.003  -0.242
    1UNL    C15   24   0.291  -0.070  -0.395
    1UNL    O10   25   0.205  -0.184  -0.355
    1UNL    C16   26   0.206   0.027  -0.469
    1UNL    O11   27   0.138  -0.031  -0.579
    1UNL    O12   28  -0.213  -0.095  -0.283
    1UNL    C17   29  -0.330  -0.053  -0.223
    1UNL    C18   30  -0.339   0.049  -0.134
    1UNL    C19   31  -0.471   0.116  -0.110
    1UNL    O13   32  -0.490   0.206  -0.026
    1UNL    O14   33  -0.573   0.074  -0.185
    1UNL    C20   34  -0.690   0.130  -0.144
    1UNL    C21   35  -0.220   0.115  -0.082
    1UNL    C22   36  -0.224   0.146   0.066
    1UNL    C23   37  -0.237   0.043   0.178
    1UNL    C24   38  -0.365  -0.039   0.146
    1UNL    C25   39  -0.494   0.021   0.156
    1UNL    C26   40  -0.606  -0.057   0.131
    1UNL    O15   41  -0.734  -0.007   0.146
    1UNL    C27   42  -0.594  -0.190   0.085
    1UNL    O16   43  -0.705  -0.268   0.062
    1UNL    C28   44  -0.468  -0.247   0.075
    1UNL    C29   45  -0.355  -0.172   0.103
    1UNL    C30   46  -0.225  -0.244   0.114
    1UNL    C31   47  -0.144  -0.176   0.222
    1UNL     N1   48  -0.116  -0.039   0.205
    1UNL    C32   49  -0.005   0.023   0.265
    1UNL    C33   50   0.003   0.170   0.290
    1UNL    O17   51   0.074  -0.050   0.319
    1UNL     H1   52   0.049  -0.256  -0.066
    1UNL     H2   53  -0.056  -0.193  -0.212
    1UNL     H3   54   0.022  -0.039   0.038
    1UNL     H4   55  -0.015   0.144  -0.129
    1UNL     H5   56  -0.150   0.101  -0.351
    1UNL     H6   57   0.049   0.164  -0.425
    1UNL     H7   58   0.309   0.200  -0.303
    1UNL     H8   59   0.416   0.159  -0.056
    1UNL     H9   60   0.295   0.284  -0.049
    1UNL    H10   61   0.246   0.067   0.210
    1UNL    H11   62   0.497   0.190   0.322
    1UNL    H12   63   0.664   0.026   0.139
    1UNL    H13   64   0.708   0.185   0.212
    1UNL    H14   65   0.730   0.106   0.410
    1UNL    H15   66   0.533  -0.056   0.401
    1UNL    H16   67   0.262   0.009   0.407
    1UNL    H17   68   0.473  -0.209   0.250
    1UNL    H18   69   0.212  -0.167   0.313
    1UNL    H19   70   0.286  -0.150   0.067
    1UNL    H20   71   0.478  -0.042  -0.061
    1UNL    H21   72   0.296  -0.086  -0.180
    1UNL    H22   73   0.526  -0.067  -0.279
    1UNL    H23   74   0.380  -0.101  -0.452
    1UNL    H24   75   0.116  -0.154  -0.351
    1UNL    H25   76   0.260   0.113  -0.516
    1UNL    H26   77   0.047  -0.056  -0.554
    1UNL    H27   78  -0.424  -0.101  -0.249
    1UNL    H28   79  -0.692   0.200  -0.055
    1UNL    H29   80  -0.733   0.187  -0.226
    1UNL    H30   81  -0.765   0.052  -0.130
    1UNL    H31   82  -0.220   0.212  -0.131
    1UNL    H32   83  -0.134   0.208   0.089
    1UNL    H33   84  -0.314   0.216   0.085
    1UNL    H34   85  -0.257   0.096   0.271
    1UNL    H35   86  -0.514   0.125   0.174
    1UNL    H36   87  -0.739   0.076   0.202
    1UNL    H37   88  -0.780  -0.217   0.099
    1UNL    H38   89  -0.461  -0.343   0.041
    1UNL    H39   90  -0.243  -0.352   0.131
    1UNL    H40   91  -0.178  -0.240   0.022
    1UNL    H41   92  -0.046  -0.226   0.245
    1UNL    H42   93  -0.180  -0.188   0.328
    1UNL    H43   94  -0.025   0.227   0.199
    1UNL    H44   95   0.098   0.198   0.307
    1UNL    H45   96  -0.070   0.209   0.368
   0.00000   0.00000   0.00000   0.00000   0.00000   0.00000   0.00000   0.00000   0.00000
Generated with MDTraj, t= 16.0
 96
    1UNL     C1    1   0.020  -0.169  -0.092
    1UNL     C2    2  -0.021  -0.044  -0.059
    1UNL     C3    3  -0.088   0.051  -0.145
    1UNL     C4    4  -0.103  -0.006  -0.285
    1UNL     O1    5   0.020  -0.043  -0.341
    1UNL     C5    6   0.097   0.077  -0.398
    1UNL     O2    7   0.135   0.160  -0.283
    1UNL     C6    8   0.271   0.154  -0.240
    1UNL     C7    9   0.292   0.172  -0.092
    1UNL     O3   10   0.249   0.064  -0.017
    1UNL     C8   11   0.323   0.040   0.102
    1UNL     O4   12   0.438   0.124   0.131
    1UNL     C9   13   0.508   0.103   0.256
    1UNL    C10   14   0.651   0.054   0.222
    1UNL     O5   15   0.746   0.059   0.325
    1UNL    C11   16   0.434  -0.008   0.347
    1UNL     O6   17   0.319   0.044   0.410
    1UNL    C12   18   0.413  -0.144   0.256
    1UNL     O7   19   0.314  -0.227   0.304
    1UNL    C13   20   0.384  -0.101   0.113
    1UNL     O8   21   0.497  -0.114   0.036
    1UNL    C14   22   0.337   0.015  -0.253
    1UNL     O9   23   0.475   0.036  -0.223
    1UNL    C15   24   0.312  -0.046  -0.393
    1UNL    O10   25   0.255  -0.179  -0.365
    1UNL    C16   26   0.219   0.037  -0.479
    1UNL    O11   27   0.187  -0.036  -0.592
    1UNL    O12   28  -0.211  -0.104  -0.284
    1UNL    C17   29  -0.332  -0.062  -0.229
    1UNL    C18   30  -0.340   0.048  -0.137
    1UNL    C19   31  -0.477   0.103  -0.110
    1UNL    O13   32  -0.483   0.212  -0.053
    1UNL    O14   33  -0.586   0.041  -0.160
    1UNL    C20   34  -0.703   0.104  -0.121
    1UNL    C21   35  -0.219   0.121  -0.087
    1UNL    C22   36  -0.225   0.151   0.069
    1UNL    C23   37  -0.258   0.045   0.178
    1UNL    C24   38  -0.383  -0.031   0.159
    1UNL    C25   39  -0.507   0.025   0.184
    1UNL    C26   40  -0.621  -0.045   0.156
    1UNL    O15   41  -0.750   0.010   0.183
    1UNL    C27   42  -0.614  -0.174   0.099
    1UNL    O16   43  -0.725  -0.246   0.053
    1UNL    C28   44  -0.491  -0.237   0.090
    1UNL    C29   45  -0.375  -0.167   0.126
    1UNL    C30   46  -0.243  -0.226   0.087
    1UNL    C31   47  -0.137  -0.185   0.189
    1UNL     N1   48  -0.138  -0.040   0.216
    1UNL    C32   49  -0.026   0.022   0.280
    1UNL    C33   50  -0.040   0.145   0.365
    1UNL    O17   51   0.082  -0.033   0.281
    1UNL     H1   52   0.050  -0.241  -0.024
    1UNL     H2   53   0.006  -0.204  -0.193
    1UNL     H3   54   0.004  -0.002   0.035
    1UNL     H4   55  -0.024   0.141  -0.161
    1UNL     H5   56  -0.129   0.067  -0.361
    1UNL     H6   57   0.024   0.129  -0.459
    1UNL     H7   58   0.327   0.234  -0.298
    1UNL     H8   59   0.393   0.187  -0.058
    1UNL     H9   60   0.240   0.260  -0.046
    1UNL    H10   61   0.254   0.058   0.188
    1UNL    H11   62   0.494   0.201   0.298
    1UNL    H12   63   0.639  -0.046   0.193
    1UNL    H13   64   0.682   0.114   0.139
    1UNL    H14   65   0.723   0.141   0.375
    1UNL    H15   66   0.516  -0.032   0.423
    1UNL    H16   67   0.231   0.028   0.366
    1UNL    H17   68   0.504  -0.204   0.250
    1UNL    H18   69   0.231  -0.169   0.302
    1UNL    H19   70   0.311  -0.173   0.054
    1UNL    H20   71   0.494  -0.061  -0.045
    1UNL    H21   72   0.293  -0.056  -0.179
    1UNL    H22   73   0.523  -0.031  -0.283
    1UNL    H23   74   0.411  -0.048  -0.442
    1UNL    H24   75   0.159  -0.178  -0.365
    1UNL    H25   76   0.269   0.132  -0.515
    1UNL    H26   77   0.123  -0.107  -0.569
    1UNL    H27   78  -0.421  -0.087  -0.283
    1UNL    H28   79  -0.691   0.155  -0.020
    1UNL    H29   80  -0.715   0.194  -0.184
    1UNL    H30   81  -0.797   0.047  -0.134
    1UNL    H31   82  -0.226   0.221  -0.136
    1UNL    H32   83  -0.127   0.210   0.092
    1UNL    H33   84  -0.305   0.235   0.070
    1UNL    H34   85  -0.284   0.102   0.268
    1UNL    H35   86  -0.502   0.131   0.195
    1UNL    H36   87  -0.726   0.093   0.232
    1UNL    H37   88  -0.804  -0.187   0.050
    1UNL    H38   89  -0.485  -0.334   0.033
    1UNL    H39   90  -0.256  -0.333   0.097
    1UNL    H40   91  -0.222  -0.211  -0.017
    1UNL    H41   92  -0.032  -0.227   0.185
    1UNL    H42   93  -0.150  -0.234   0.288
    1UNL    H43   94  -0.044   0.230   0.296
    1UNL    H44   95   0.048   0.165   0.419
    1UNL    H45   96  -0.137   0.143   0.424
   0.00000   0.00000   0.00000   0.00000   0.00000   0.00000   0.00000   0.00000   0.00000
Generated with MDTraj, t= 17.0
 96
    1UNL     C1    1   0.038  -0.155  -0.079
    1UNL     C2    2  -0.005  -0.032  -0.043
    1UNL     C3    3  -0.070   0.065  -0.139
    1UNL     C4    4  -0.092   0.001  -0.279
    1UNL     O1    5   0.036  -0.031  -0.330
    1UNL     C5    6   0.104   0.089  -0.388
    1UNL     O2    7   0.149   0.188  -0.295
    1UNL     C6    8   0.283   0.158  -0.234
    1UNL     C7    9   0.296   0.163  -0.085
    1UNL     O3   10   0.251   0.045  -0.024
    1UNL     C8   11   0.304   0.033   0.107
    1UNL     O4   12   0.411   0.135   0.137
    1UNL     C9   13   0.499   0.109   0.248
    1UNL    C10   14   0.638   0.070   0.203
    1UNL     O5   15   0.735   0.056   0.306
    1UNL    C11   16   0.444  -0.005   0.348
    1UNL     O6   17   0.338   0.052   0.430
    1UNL    C12   18   0.410  -0.136   0.269
    1UNL     O7   19   0.297  -0.199   0.323
    1UNL    C13   20   0.371  -0.111   0.117
    1UNL     O8   21   0.484  -0.120   0.037
    1UNL    C14   22   0.347   0.011  -0.273
    1UNL     O9   23   0.481  -0.008  -0.242
    1UNL    C15   24   0.328  -0.024  -0.423
    1UNL    O10   25   0.310  -0.167  -0.430
    1UNL    C16   26   0.207   0.046  -0.487
    1UNL    O11   27   0.155  -0.044  -0.588
    1UNL    O12   28  -0.182  -0.109  -0.266
    1UNL    C17   29  -0.305  -0.065  -0.210
    1UNL    C18   30  -0.320   0.049  -0.132
    1UNL    C19   31  -0.458   0.091  -0.117
    1UNL    O13   32  -0.483   0.206  -0.074
    1UNL    O14   33  -0.555   0.001  -0.147
    1UNL    C20   34  -0.686   0.045  -0.135
    1UNL    C21   35  -0.208   0.127  -0.082
    1UNL    C22   36  -0.221   0.152   0.070
    1UNL    C23   37  -0.259   0.042   0.172
    1UNL    C24   38  -0.393  -0.030   0.147
    1UNL    C25   39  -0.510   0.029   0.189
    1UNL    C26   40  -0.630  -0.030   0.169
    1UNL    O15   41  -0.750   0.030   0.208
    1UNL    C27   42  -0.644  -0.160   0.107
    1UNL    O16   43  -0.758  -0.231   0.110
    1UNL    C28   44  -0.519  -0.214   0.069
    1UNL    C29   45  -0.397  -0.150   0.090
    1UNL    C30   46  -0.265  -0.225   0.059
    1UNL    C31   47  -0.173  -0.188   0.181
    1UNL     N1   48  -0.147  -0.041   0.200
    1UNL    C32   49  -0.036   0.003   0.288
    1UNL    C33   50  -0.060   0.099   0.398
    1UNL    O17   51   0.077  -0.039   0.270
    1UNL     H1   52   0.112  -0.214  -0.015
    1UNL     H2   53   0.012  -0.193  -0.175
    1UNL     H3   54   0.020   0.010   0.060
    1UNL     H4   55  -0.006   0.155  -0.156
    1UNL     H5   56  -0.129   0.066  -0.356
    1UNL     H6   57   0.025   0.136  -0.444
    1UNL     H7   58   0.350   0.231  -0.288
    1UNL     H8   59   0.395   0.176  -0.052
    1UNL     H9   60   0.243   0.244  -0.035
    1UNL    H10   61   0.232   0.055   0.190
    1UNL    H11   62   0.500   0.206   0.300
    1UNL    H12   63   0.632  -0.029   0.167
    1UNL    H13   64   0.679   0.139   0.131
    1UNL    H14   65   0.734   0.111   0.385
    1UNL    H15   66   0.525  -0.025   0.422
    1UNL    H16   67   0.254   0.030   0.381
    1UNL    H17   68   0.482  -0.218   0.280
    1UNL    H18   69   0.214  -0.151   0.291
    1UNL    H19   70   0.302  -0.204   0.095
    1UNL    H20   71   0.464  -0.071  -0.046
    1UNL    H21   72   0.293  -0.057  -0.202
    1UNL    H22   73   0.508  -0.109  -0.264
    1UNL    H23   74   0.421  -0.001  -0.479
    1UNL    H24   75   0.240  -0.198  -0.358
    1UNL    H25   76   0.234   0.138  -0.544
    1UNL    H26   77   0.183  -0.136  -0.567
    1UNL    H27   78  -0.382  -0.134  -0.236
    1UNL    H28   79  -0.734   0.041  -0.034
    1UNL    H29   80  -0.685   0.152  -0.156
    1UNL    H30   81  -0.747  -0.001  -0.215
    1UNL    H31   82  -0.217   0.228  -0.133
    1UNL    H32   83  -0.128   0.209   0.101
    1UNL    H33   84  -0.306   0.232   0.080
    1UNL    H34   85  -0.275   0.097   0.266
    1UNL    H35   86  -0.507   0.128   0.238
    1UNL    H36   87  -0.730   0.122   0.235
    1UNL    H37   88  -0.829  -0.182   0.156
    1UNL    H38   89  -0.521  -0.310   0.025
    1UNL    H39   90  -0.280  -0.329   0.046
    1UNL    H40   91  -0.215  -0.192  -0.034
    1UNL    H41   92  -0.076  -0.243   0.194
    1UNL    H42   93  -0.217  -0.231   0.269
    1UNL    H43   94  -0.065   0.197   0.359
    1UNL    H44   95   0.037   0.112   0.464
    1UNL    H45   96  -0.149   0.072   0.456
   0.00000   0.00000   0.00000   0.00000   0.00000   0.00000   0.00000   0.00000   0.00000
Generated with MDTraj, t= 18.0
 96
    1UNL     C1    1   0.055  -0.156  -0.057
    1UNL     C2    2   0.014  -0.035  -0.020
    1UNL     C3    3  -0.053   0.059  -0.116
    1UNL     C4    4  -0.072   0.000  -0.264
    1UNL     O1    5   0.053  -0.020  -0.326
    1UNL     C5    6   0.115   0.102  -0.375
    1UNL     O2    7   0.180   0.184  -0.276
    1UNL     C6    8   0.312   0.133  -0.247
    1UNL     C7    9   0.343   0.151  -0.100
    1UNL     O3   10   0.256   0.070  -0.023
    1UNL     C8   11   0.304   0.050   0.109
    1UNL     O4   12   0.387   0.155   0.168
    1UNL     C9   13   0.487   0.117   0.263
    1UNL    C10   14   0.622   0.078   0.198
    1UNL     O5   15   0.723   0.058   0.295
    1UNL    C11   16   0.420   0.005   0.355
    1UNL     O6   17   0.292   0.050   0.414
    1UNL    C12   18   0.407  -0.123   0.272
    1UNL     O7   19   0.309  -0.214   0.327
    1UNL    C13   20   0.368  -0.091   0.124
    1UNL     O8   21   0.473  -0.117   0.036
    1UNL    C14   22   0.337  -0.019  -0.300
    1UNL     O9   23   0.449  -0.072  -0.255
    1UNL    C15   24   0.326  -0.012  -0.454
    1UNL    O10   25   0.323  -0.143  -0.507
    1UNL    C16   26   0.201   0.073  -0.497
    1UNL    O11   27   0.127  -0.006  -0.591
    1UNL    O12   28  -0.155  -0.115  -0.269
    1UNL    C17   29  -0.278  -0.080  -0.221
    1UNL    C18   30  -0.307   0.035  -0.149
    1UNL    C19   31  -0.447   0.074  -0.138
    1UNL    O13   32  -0.483   0.169  -0.063
    1UNL    O14   33  -0.536  -0.006  -0.202
    1UNL    C20   34  -0.669   0.028  -0.174
    1UNL    C21   35  -0.201   0.114  -0.083
    1UNL    C22   36  -0.231   0.159   0.060
    1UNL    C23   37  -0.267   0.048   0.170
    1UNL    C24   38  -0.396  -0.019   0.155
    1UNL    C25   39  -0.515   0.043   0.200
    1UNL    C26   40  -0.635  -0.028   0.193
    1UNL    O15   41  -0.751   0.042   0.227
    1UNL    C27   42  -0.645  -0.155   0.146
    1UNL    O16   43  -0.767  -0.209   0.137
    1UNL    C28   44  -0.527  -0.214   0.100
    1UNL    C29   45  -0.402  -0.153   0.111
    1UNL    C30   46  -0.278  -0.225   0.079
    1UNL    C31   47  -0.173  -0.178   0.175
    1UNL     N1   48  -0.146  -0.036   0.193
    1UNL    C32   49  -0.047  -0.011   0.295
    1UNL    C33   50  -0.064   0.103   0.389
    1UNL    O17   51   0.047  -0.087   0.308
    1UNL     H1   52   0.105  -0.218   0.018
    1UNL     H2   53   0.047  -0.180  -0.156
    1UNL     H3   54   0.039  -0.008   0.078
    1UNL     H4   55   0.018   0.144  -0.126
    1UNL     H5   56  -0.115   0.071  -0.333
    1UNL     H6   57   0.036   0.164  -0.407
    1UNL     H7   58   0.382   0.191  -0.311
    1UNL     H8   59   0.440   0.128  -0.069
    1UNL     H9   60   0.326   0.253  -0.066
    1UNL    H10   61   0.211   0.070   0.168
    1UNL    H11   62   0.496   0.206   0.331
    1UNL    H12   63   0.613  -0.007   0.137
    1UNL    H13   64   0.662   0.156   0.131
    1UNL    H14   65   0.782   0.137   0.309
    1UNL    H15   66   0.484  -0.011   0.441
    1UNL    H16   67   0.219  -0.005   0.387
    1UNL    H17   68   0.501  -0.180   0.265
    1UNL    H18   69   0.212  -0.190   0.321
    1UNL    H19   70   0.278  -0.156   0.081
    1UNL    H20   71   0.440  -0.091  -0.055
    1UNL    H21   72   0.253  -0.080  -0.253
    1UNL    H22   73   0.454  -0.170  -0.289
    1UNL    H23   74   0.421   0.032  -0.493
    1UNL    H24   75   0.305  -0.138  -0.607
    1UNL    H25   76   0.224   0.170  -0.545
    1UNL    H26   77   0.096  -0.086  -0.545
    1UNL    H27   78  -0.357  -0.155  -0.237
    1UNL    H28   79  -0.680   0.070  -0.073
    1UNL    H29   80  -0.690   0.110  -0.240
    1UNL    H30   81  -0.733  -0.054  -0.205
    1UNL    H31   82  -0.199   0.208  -0.149
    1UNL    H32   83  -0.147   0.214   0.106
    1UNL    H33   84  -0.320   0.235   0.060
    1UNL    H34   85  -0.280   0.105   0.266
    1UNL    H35   86  -0.509   0.144   0.230
    1UNL    H36   87  -0.734   0.130   0.262
    1UNL    H37   88  -0.830  -0.154   0.186
    1UNL    H38   89  -0.530  -0.315   0.071
    1UNL    H39   90  -0.287  -0.329   0.082
    1UNL    H40   91  -0.243  -0.195  -0.025
    1UNL    H41   92  -0.077  -0.235   0.156
    1UNL    H42   93  -0.198  -0.218   0.268
    1UNL    H43   94  -0.053   0.197   0.341
    1UNL    H44   95   0.034   0.108   0.458
    1UNL    H45   96  -0.155   0.095   0.446
   0.00000   0.00000   0.00000   0.00000   0.00000   0.00000   0.00000   0.00000   0.00000
Generated with MDTraj, t= 19.0
 96
    1UNL     C1    1   0.046  -0.166  -0.094
    1UNL     C2    2  -0.015  -0.063  -0.040
    1UNL     C3    3  -0.061   0.052  -0.116
    1UNL     C4    4  -0.068   0.020  -0.269
    1UNL     O1    5   0.063   0.007  -0.330
    1UNL     C5    6   0.126   0.129  -0.381
    1UNL     O2    7   0.209   0.187  -0.276
    1UNL     C6    8   0.334   0.116  -0.255
    1UNL     C7    9   0.362   0.133  -0.106
    1UNL     O3   10   0.257   0.074  -0.035
    1UNL     C8   11   0.293   0.055   0.097
    1UNL     O4   12   0.380   0.151   0.147
    1UNL     C9   13   0.462   0.123   0.267
    1UNL    C10   14   0.609   0.095   0.229
    1UNL     O5   15   0.691   0.074   0.345
    1UNL    C11   16   0.403  -0.002   0.340
    1UNL     O6   17   0.294   0.050   0.400
    1UNL    C12   18   0.384  -0.126   0.263
    1UNL     O7   19   0.291  -0.216   0.327
    1UNL    C13   20   0.353  -0.092   0.111
    1UNL     O8   21   0.475  -0.102   0.039
    1UNL    C14   22   0.337  -0.031  -0.313
    1UNL     O9   23   0.437  -0.114  -0.264
    1UNL    C15   24   0.329  -0.010  -0.467
    1UNL    O10   25   0.341  -0.124  -0.549
    1UNL    C16   26   0.212   0.095  -0.507
    1UNL    O11   27   0.118   0.035  -0.594
    1UNL    O12   28  -0.147  -0.094  -0.283
    1UNL    C17   29  -0.266  -0.091  -0.223
    1UNL    C18   30  -0.311   0.007  -0.139
    1UNL    C19   31  -0.453   0.039  -0.138
    1UNL    O13   32  -0.481   0.147  -0.083
    1UNL    O14   33  -0.544  -0.035  -0.208
    1UNL    C20   34  -0.664   0.036  -0.214
    1UNL    C21   35  -0.207   0.100  -0.076
    1UNL    C22   36  -0.220   0.142   0.076
    1UNL    C23   37  -0.257   0.043   0.190
    1UNL    C24   38  -0.389  -0.020   0.171
    1UNL    C25   39  -0.501   0.049   0.203
    1UNL    C26   40  -0.629  -0.007   0.202
    1UNL    O15   41  -0.745   0.054   0.237
    1UNL    C27   42  -0.640  -0.142   0.157
    1UNL    O16   43  -0.770  -0.194   0.158
    1UNL    C28   44  -0.524  -0.205   0.124
    1UNL    C29   45  -0.400  -0.152   0.130
    1UNL    C30   46  -0.268  -0.227   0.106
    1UNL    C31   47  -0.173  -0.205   0.222
    1UNL     N1   48  -0.152  -0.058   0.243
    1UNL    C32   49  -0.043  -0.016   0.313
    1UNL    C33   50  -0.019   0.132   0.328
    1UNL    O17   51   0.037  -0.099   0.347
    1UNL     H1   52   0.073  -0.240  -0.022
    1UNL     H2   53   0.054  -0.178  -0.205
    1UNL     H3   54  -0.016  -0.063   0.066
    1UNL     H4   55   0.011   0.133  -0.098
    1UNL     H5   56  -0.117   0.101  -0.324
    1UNL     H6   57   0.051   0.199  -0.411
    1UNL     H7   58   0.411   0.170  -0.311
    1UNL     H8   59   0.447   0.080  -0.079
    1UNL     H9   60   0.368   0.239  -0.076
    1UNL    H10   61   0.205   0.048   0.163
    1UNL    H11   62   0.450   0.217   0.330
    1UNL    H12   63   0.615   0.007   0.171
    1UNL    H13   64   0.645   0.172   0.154
    1UNL    H14   65   0.711   0.168   0.375
    1UNL    H15   66   0.472  -0.016   0.420
    1UNL    H16   67   0.218  -0.018   0.398
    1UNL    H17   68   0.473  -0.193   0.266
    1UNL    H18   69   0.197  -0.182   0.328
    1UNL    H19   70   0.281  -0.180   0.083
    1UNL    H20   71   0.458  -0.102  -0.055
    1UNL    H21   72   0.244  -0.085  -0.276
    1UNL    H22   73   0.444  -0.179  -0.328
    1UNL    H23   74   0.425   0.040  -0.492
    1UNL    H24   75   0.257  -0.162  -0.552
    1UNL    H25   76   0.245   0.186  -0.557
    1UNL    H26   77   0.040   0.001  -0.545
    1UNL    H27   78  -0.351  -0.145  -0.271
    1UNL    H28   79  -0.695   0.064  -0.113
    1UNL    H29   80  -0.639   0.129  -0.263
    1UNL    H30   81  -0.735  -0.014  -0.279
    1UNL    H31   82  -0.209   0.199  -0.135
    1UNL    H32   83  -0.123   0.181   0.100
    1UNL    H33   84  -0.293   0.235   0.075
    1UNL    H34   85  -0.267   0.110   0.281
    1UNL    H35   86  -0.488   0.152   0.236
    1UNL    H36   87  -0.734   0.144   0.269
    1UNL    H37   88  -0.842  -0.125   0.150
    1UNL    H38   89  -0.544  -0.314   0.101
    1UNL    H39   90  -0.286  -0.330   0.099
    1UNL    H40   91  -0.211  -0.194   0.015
    1UNL    H41   92  -0.081  -0.269   0.201
    1UNL    H42   93  -0.215  -0.242   0.309
    1UNL    H43   94   0.024   0.174   0.235
    1UNL    H44   95   0.067   0.148   0.386
    1UNL    H45   96  -0.110   0.185   0.358
   0.00000   0.00000   0.00000   0.00000   0.00000   0.00000   0.00000   0.00000   0.00000
Generated with MDTraj, t= 20.0
 96
    1UNL     C1    1   0.042  -0.192  -0.118
    1UNL     C2    2  -0.022  -0.093  -0.057
    1UNL     C3    3  -0.040   0.042  -0.121
    1UNL     C4    4  -0.059   0.022  -0.278
    1UNL     O1    5   0.071   0.008  -0.342
    1UNL     C5    6   0.117   0.126  -0.395
    1UNL     O2    7   0.183   0.203  -0.292
    1UNL     C6    8   0.321   0.151  -0.263
    1UNL     C7    9   0.341   0.151  -0.105
    1UNL     O3   10   0.261   0.050  -0.044
    1UNL     C8   11   0.297   0.029   0.094
    1UNL     O4   12   0.384   0.127   0.140
    1UNL     C9   13   0.452   0.102   0.270
    1UNL    C10   14   0.602   0.107   0.256
    1UNL     O5   15   0.660   0.099   0.390
    1UNL    C11   16   0.399  -0.014   0.348
    1UNL     O6   17   0.287   0.024   0.420
    1UNL    C12   18   0.387  -0.147   0.266
    1UNL     O7   19   0.298  -0.236   0.339
    1UNL    C13   20   0.355  -0.121   0.113
    1UNL     O8   21   0.478  -0.136   0.041
    1UNL    C14   22   0.341   0.006  -0.312
    1UNL     O9   23   0.461  -0.058  -0.278
    1UNL    C15   24   0.321  -0.003  -0.468
    1UNL    O10   25   0.306  -0.141  -0.498
    1UNL    C16   26   0.198   0.092  -0.517
    1UNL    O11   27   0.115   0.031  -0.609
    1UNL    O12   28  -0.141  -0.090  -0.302
    1UNL    C17   29  -0.263  -0.056  -0.256
    1UNL    C18   30  -0.299   0.027  -0.156
    1UNL    C19   31  -0.438   0.046  -0.130
    1UNL    O13   32  -0.485   0.135  -0.056
    1UNL    O14   33  -0.525  -0.037  -0.197
    1UNL    C20   34  -0.659  -0.000  -0.179
    1UNL    C21   35  -0.185   0.107  -0.088
    1UNL    C22   36  -0.213   0.146   0.059
    1UNL    C23   37  -0.253   0.056   0.177
    1UNL    C24   38  -0.388  -0.015   0.176
    1UNL    C25   39  -0.508   0.057   0.207
    1UNL    C26   40  -0.638  -0.002   0.196
    1UNL    O15   41  -0.751   0.064   0.218
    1UNL    C27   42  -0.638  -0.137   0.161
    1UNL    O16   43  -0.769  -0.183   0.151
    1UNL    C28   44  -0.523  -0.213   0.147
    1UNL    C29   45  -0.399  -0.153   0.153
    1UNL    C30   46  -0.279  -0.244   0.156
    1UNL    C31   47  -0.172  -0.191   0.257
    1UNL     N1   48  -0.146  -0.044   0.225
    1UNL    C32   49  -0.026  -0.003   0.283
    1UNL    C33   50  -0.009   0.143   0.299
    1UNL    O17   51   0.064  -0.081   0.315
    1UNL     H1   52   0.049  -0.281  -0.071
    1UNL     H2   53   0.073  -0.182  -0.225
    1UNL     H3   54  -0.077  -0.114   0.039
    1UNL     H4   55   0.042   0.111  -0.095
    1UNL     H5   56  -0.119   0.107  -0.322
    1UNL     H6   57   0.034   0.183  -0.432
    1UNL     H7   58   0.387   0.219  -0.311
    1UNL     H8   59   0.443   0.123  -0.094
    1UNL     H9   60   0.310   0.250  -0.063
    1UNL    H10   61   0.197   0.034   0.140
    1UNL    H11   62   0.430   0.189   0.341
    1UNL    H12   63   0.633   0.030   0.187
    1UNL    H13   64   0.647   0.200   0.202
    1UNL    H14   65   0.633   0.173   0.450
    1UNL    H15   66   0.472  -0.030   0.424
    1UNL    H16   67   0.205  -0.010   0.387
    1UNL    H17   68   0.485  -0.200   0.260
    1UNL    H18   69   0.206  -0.202   0.327
    1UNL    H19   70   0.279  -0.181   0.049
    1UNL    H20   71   0.466  -0.120  -0.058
    1UNL    H21   72   0.260  -0.049  -0.255
    1UNL    H22   73   0.459  -0.144  -0.327
    1UNL    H23   74   0.411   0.023  -0.526
    1UNL    H24   75   0.218  -0.163  -0.506
    1UNL    H25   76   0.224   0.188  -0.562
    1UNL    H26   77   0.028   0.009  -0.571
    1UNL    H27   78  -0.337  -0.114  -0.309
    1UNL    H28   79  -0.694  -0.039  -0.081
    1UNL    H29   80  -0.658   0.108  -0.176
    1UNL    H30   81  -0.716  -0.038  -0.265
    1UNL    H31   82  -0.167   0.203  -0.145
    1UNL    H32   83  -0.122   0.198   0.080
    1UNL    H33   84  -0.295   0.227   0.050
    1UNL    H34   85  -0.263   0.126   0.266
    1UNL    H35   86  -0.506   0.164   0.213
    1UNL    H36   87  -0.741   0.156   0.248
    1UNL    H37   88  -0.829  -0.127   0.204
    1UNL    H38   89  -0.532  -0.315   0.137
    1UNL    H39   90  -0.296  -0.345   0.183
    1UNL    H40   91  -0.235  -0.239   0.055
    1UNL    H41   92  -0.068  -0.237   0.239
    1UNL    H42   93  -0.208  -0.206   0.352
    1UNL    H43   94   0.094   0.170   0.262
    1UNL    H44   95   0.008   0.172   0.393
    1UNL    H45   96  -0.085   0.200   0.248
   0.00000   0.00000   0.00000   0.00000   0.00000   0.00000   0.00000   0.00000   0.00000
Generated with MDTraj, t= 21.0
 96
    1UNL     C1    1   0.025  -0.198  -0.111
    1UNL     C2    2  -0.020  -0.085  -0.055
    1UNL     C3    3  -0.059   0.034  -0.129
    1UNL     C4    4  -0.070   0.010  -0.279
    1UNL     O1    5   0.058  -0.007  -0.342
    1UNL     C5    6   0.115   0.115  -0.389
    1UNL     O2    7   0.171   0.199  -0.281
    1UNL     C6    8   0.306   0.160  -0.246
    1UNL     C7    9   0.308   0.162  -0.092
    1UNL     O3   10   0.260   0.042  -0.035
    1UNL     C8   11   0.313   0.015   0.092
    1UNL     O4   12   0.396   0.118   0.143
    1UNL     C9   13   0.461   0.096   0.279
    1UNL    C10   14   0.610   0.120   0.274
    1UNL     O5   15   0.666   0.125   0.400
    1UNL    C11   16   0.418  -0.042   0.351
    1UNL     O6   17   0.299  -0.018   0.435
    1UNL    C12   18   0.398  -0.164   0.256
    1UNL     O7   19   0.279  -0.249   0.297
    1UNL    C13   20   0.382  -0.125   0.106
    1UNL     O8   21   0.504  -0.136   0.031
    1UNL    C14   22   0.346   0.021  -0.290
    1UNL     O9   23   0.477  -0.025  -0.261
    1UNL    C15   24   0.330   0.001  -0.441
    1UNL    O10   25   0.308  -0.137  -0.461
    1UNL    C16   26   0.209   0.086  -0.508
    1UNL    O11   27   0.153   0.017  -0.611
    1UNL    O12   28  -0.163  -0.094  -0.298
    1UNL    C17   29  -0.286  -0.079  -0.253
    1UNL    C18   30  -0.322   0.010  -0.158
    1UNL    C19   31  -0.457   0.047  -0.133
    1UNL    O13   32  -0.486   0.151  -0.071
    1UNL    O14   33  -0.552  -0.042  -0.176
    1UNL    C20   34  -0.683  -0.009  -0.124
    1UNL    C21   35  -0.208   0.093  -0.099
    1UNL    C22   36  -0.227   0.148   0.048
    1UNL    C23   37  -0.249   0.052   0.172
    1UNL    C24   38  -0.385  -0.015   0.176
    1UNL    C25   39  -0.499   0.063   0.197
    1UNL    C26   40  -0.626   0.007   0.189
    1UNL    O15   41  -0.744   0.075   0.179
    1UNL    C27   42  -0.641  -0.132   0.171
    1UNL    O16   43  -0.772  -0.186   0.176
    1UNL    C28   44  -0.531  -0.208   0.153
    1UNL    C29   45  -0.401  -0.151   0.149
    1UNL    C30   46  -0.276  -0.223   0.130
    1UNL    C31   47  -0.157  -0.178   0.229
    1UNL     N1   48  -0.137  -0.035   0.205
    1UNL    C32   49  -0.015   0.017   0.248
    1UNL    C33   50  -0.009   0.159   0.307
    1UNL    O17   51   0.084  -0.057   0.247
    1UNL     H1   52   0.048  -0.289  -0.053
    1UNL     H2   53   0.045  -0.206  -0.217
    1UNL     H3   54  -0.031  -0.076   0.054
    1UNL     H4   55   0.020   0.109  -0.118
    1UNL     H5   56  -0.128   0.088  -0.335
    1UNL     H6   57   0.041   0.181  -0.430
    1UNL     H7   58   0.372   0.234  -0.285
    1UNL     H8   59   0.412   0.179  -0.066
    1UNL     H9   60   0.230   0.243  -0.067
    1UNL    H10   61   0.233   0.016   0.168
    1UNL    H11   62   0.412   0.172   0.346
    1UNL    H12   63   0.676   0.042   0.234
    1UNL    H13   64   0.628   0.210   0.201
    1UNL    H14   65   0.628   0.188   0.462
    1UNL    H15   66   0.485  -0.070   0.430
    1UNL    H16   67   0.214  -0.026   0.378
    1UNL    H17   68   0.474  -0.244   0.268
    1UNL    H18   69   0.200  -0.187   0.288
    1UNL    H19   70   0.323  -0.207   0.056
    1UNL    H20   71   0.506  -0.084  -0.057
    1UNL    H21   72   0.275  -0.048  -0.234
    1UNL    H22   73   0.480  -0.122  -0.300
    1UNL    H23   74   0.424   0.023  -0.493
    1UNL    H24   75   0.225  -0.140  -0.523
    1UNL    H25   76   0.254   0.178  -0.542
    1UNL    H26   77   0.093   0.072  -0.666
    1UNL    H27   78  -0.354  -0.146  -0.294
    1UNL    H28   79  -0.699  -0.069  -0.038
    1UNL    H29   80  -0.680   0.098  -0.096
    1UNL    H30   81  -0.764  -0.032  -0.198
    1UNL    H31   82  -0.203   0.176  -0.169
    1UNL    H32   83  -0.151   0.218   0.072
    1UNL    H33   84  -0.323   0.204   0.052
    1UNL    H34   85  -0.257   0.117   0.264
    1UNL    H35   86  -0.487   0.170   0.201
    1UNL    H36   87  -0.736   0.174   0.174
    1UNL    H37   88  -0.839  -0.113   0.173
    1UNL    H38   89  -0.539  -0.318   0.141
    1UNL    H39   90  -0.303  -0.326   0.149
    1UNL    H40   91  -0.230  -0.219   0.033
    1UNL    H41   92  -0.059  -0.234   0.207
    1UNL    H42   93  -0.190  -0.179   0.326
    1UNL    H43   94  -0.027   0.242   0.237
    1UNL    H44   95   0.092   0.186   0.340
    1UNL    H45   96  -0.081   0.178   0.382
   0.00000   0.00000   0.00000   0.00000   0.00000   0.00000   0.00000   0.00000   0.00000
Generated with MDTraj, t= 22.0
 96
    1UNL     C1    1   0.035  -0.163  -0.112
    1UNL     C2    2  -0.024  -0.054  -0.061
    1UNL     C3    3  -0.082   0.049  -0.157
    1UNL     C4    4  -0.105  -0.006  -0.310
    1UNL     O1    5   0.023  -0.030  -0.379
    1UNL     C5    6   0.099   0.092  -0.378
    1UNL     O2    7   0.143   0.154  -0.251
    1UNL     C6    8   0.280   0.146  -0.229
    1UNL     C7    9   0.303   0.168  -0.073
    1UNL     O3   10   0.254   0.058  -0.007
    1UNL     C8   11   0.317   0.026   0.109
    1UNL     O4   12   0.410   0.121   0.154
    1UNL     C9   13   0.471   0.084   0.289
    1UNL    C10   14   0.620   0.096   0.289
    1UNL     O5   15   0.676   0.111   0.413
    1UNL    C11   16   0.434  -0.061   0.340
    1UNL     O6   17   0.323  -0.050   0.430
    1UNL    C12   18   0.417  -0.172   0.226
    1UNL     O7   19   0.312  -0.261   0.253
    1UNL    C13   20   0.393  -0.108   0.090
    1UNL     O8   21   0.526  -0.083   0.038
    1UNL    C14   22   0.344   0.007  -0.277
    1UNL     O9   23   0.481  -0.008  -0.233
    1UNL    C15   24   0.339  -0.010  -0.426
    1UNL    O10   25   0.337  -0.150  -0.460
    1UNL    C16   26   0.218   0.079  -0.482
    1UNL    O11   27   0.173   0.030  -0.598
    1UNL    O12   28  -0.195  -0.120  -0.303
    1UNL    C17   29  -0.301  -0.104  -0.225
    1UNL    C18   30  -0.328   0.004  -0.142
    1UNL    C19   31  -0.470   0.042  -0.121
    1UNL    O13   32  -0.494   0.162  -0.101
    1UNL    O14   33  -0.558  -0.055  -0.139
    1UNL    C20   34  -0.688  -0.003  -0.166
    1UNL    C21   35  -0.221   0.106  -0.109
    1UNL    C22   36  -0.220   0.165   0.035
    1UNL    C23   37  -0.251   0.073   0.153
    1UNL    C24   38  -0.391   0.001   0.157
    1UNL    C25   39  -0.511   0.069   0.170
    1UNL    C26   40  -0.636   0.008   0.187
    1UNL    O15   41  -0.750   0.083   0.212
    1UNL    C27   42  -0.637  -0.138   0.179
    1UNL    O16   43  -0.760  -0.197   0.193
    1UNL    C28   44  -0.524  -0.206   0.150
    1UNL    C29   45  -0.401  -0.138   0.136
    1UNL    C30   46  -0.278  -0.218   0.108
    1UNL    C31   47  -0.166  -0.166   0.203
    1UNL     N1   48  -0.138  -0.020   0.195
    1UNL    C32   49  -0.020   0.026   0.249
    1UNL    C33   50   0.011   0.167   0.286
    1UNL    O17   51   0.071  -0.047   0.283
    1UNL     H1   52   0.085  -0.226  -0.034
    1UNL     H2   53   0.041  -0.194  -0.209
    1UNL     H3   54   0.008  -0.023   0.033
    1UNL     H4   55  -0.020   0.139  -0.154
    1UNL     H5   56  -0.165   0.069  -0.368
    1UNL     H6   57   0.040   0.168  -0.426
    1UNL     H7   58   0.323   0.226  -0.284
    1UNL     H8   59   0.412   0.175  -0.060
    1UNL     H9   60   0.239   0.259  -0.044
    1UNL    H10   61   0.244   0.022   0.192
    1UNL    H11   62   0.431   0.156   0.361
    1UNL    H12   63   0.654   0.006   0.237
    1UNL    H13   64   0.658   0.181   0.219
    1UNL    H14   65   0.635   0.192   0.451
    1UNL    H15   66   0.526  -0.078   0.402
    1UNL    H16   67   0.238  -0.048   0.386
    1UNL    H17   68   0.514  -0.222   0.226
    1UNL    H18   69   0.233  -0.210   0.282
    1UNL    H19   70   0.349  -0.176   0.015
    1UNL    H20   71   0.511  -0.045  -0.052
    1UNL    H21   72   0.287  -0.084  -0.235
    1UNL    H22   73   0.533  -0.067  -0.303
    1UNL    H23   74   0.434   0.025  -0.466
    1UNL    H24   75   0.317  -0.153  -0.557
    1UNL    H25   76   0.260   0.176  -0.508
    1UNL    H26   77   0.119  -0.050  -0.573
    1UNL    H27   78  -0.381  -0.175  -0.250
    1UNL    H28   79  -0.735  -0.067  -0.238
    1UNL    H29   80  -0.737   0.003  -0.067
    1UNL    H30   81  -0.685   0.098  -0.216
    1UNL    H31   82  -0.258   0.182  -0.177
    1UNL    H32   83  -0.125   0.216   0.051
    1UNL    H33   84  -0.299   0.234   0.033
    1UNL    H34   85  -0.259   0.137   0.242
    1UNL    H35   86  -0.512   0.177   0.158
    1UNL    H36   87  -0.725   0.179   0.201
    1UNL    H37   88  -0.832  -0.128   0.192
    1UNL    H38   89  -0.538  -0.315   0.151
    1UNL    H39   90  -0.277  -0.328   0.117
    1UNL    H40   91  -0.262  -0.205   0.006
    1UNL    H41   92  -0.064  -0.214   0.182
    1UNL    H42   93  -0.193  -0.181   0.301
    1UNL    H43   94  -0.074   0.224   0.290
    1UNL    H44   95   0.092   0.211   0.213
    1UNL    H45   96   0.046   0.175   0.386
   0.00000   0.00000   0.00000   0.00000   0.00000   0.00000   0.00000   0.00000   0.00000
Generated with MDTraj, t= 23.0
 96
    1UNL     C1    1   0.059  -0.139  -0.115
    1UNL     C2    2  -0.010  -0.036  -0.077
    1UNL     C3    3  -0.091   0.050  -0.163
    1UNL     C4    4  -0.106  -0.017  -0.303
    1UNL     O1    5   0.035  -0.031  -0.352
    1UNL     C5    6   0.096   0.089  -0.376
    1UNL     O2    7   0.146   0.160  -0.265
    1UNL     C6    8   0.285   0.152  -0.237
    1UNL     C7    9   0.324   0.158  -0.081
    1UNL     O3   10   0.248   0.073   0.001
    1UNL     C8   11   0.310   0.045   0.126
    1UNL     O4   12   0.383   0.138   0.204
    1UNL     C9   13   0.461   0.081   0.319
    1UNL    C10   14   0.609   0.099   0.283
    1UNL     O5   15   0.704   0.053   0.383
    1UNL    C11   16   0.430  -0.066   0.364
    1UNL     O6   17   0.327  -0.072   0.458
    1UNL    C12   18   0.409  -0.164   0.244
    1UNL     O7   19   0.296  -0.250   0.252
    1UNL    C13   20   0.396  -0.085   0.112
    1UNL     O8   21   0.522  -0.045   0.056
    1UNL    C14   22   0.346   0.014  -0.281
    1UNL     O9   23   0.481   0.000  -0.238
    1UNL    C15   24   0.333  -0.006  -0.436
    1UNL    O10   25   0.333  -0.149  -0.482
    1UNL    C16   26   0.203   0.064  -0.492
    1UNL    O11   27   0.145  -0.018  -0.590
    1UNL    O12   28  -0.179  -0.139  -0.291
    1UNL    C17   29  -0.302  -0.109  -0.232
    1UNL    C18   30  -0.336   0.008  -0.168
    1UNL    C19   31  -0.482   0.042  -0.152
    1UNL    O13   32  -0.509   0.153  -0.104
    1UNL    O14   33  -0.581  -0.045  -0.190
    1UNL    C20   34  -0.705  -0.012  -0.131
    1UNL    C21   35  -0.234   0.111  -0.121
    1UNL    C22   36  -0.244   0.161   0.029
    1UNL    C23   37  -0.243   0.067   0.153
    1UNL    C24   38  -0.381  -0.004   0.156
    1UNL    C25   39  -0.486   0.073   0.199
    1UNL    C26   40  -0.613   0.011   0.204
    1UNL    O15   41  -0.727   0.086   0.244
    1UNL    C27   42  -0.630  -0.124   0.167
    1UNL    O16   43  -0.749  -0.197   0.169
    1UNL    C28   44  -0.518  -0.201   0.131
    1UNL    C29   45  -0.393  -0.135   0.120
    1UNL    C30   46  -0.268  -0.210   0.102
    1UNL    C31   47  -0.171  -0.164   0.203
    1UNL     N1   48  -0.128  -0.021   0.182
    1UNL    C32   49  -0.012   0.021   0.239
    1UNL    C33   50   0.023   0.171   0.244
    1UNL    O17   51   0.065  -0.058   0.290
    1UNL     H1   52   0.116  -0.181  -0.036
    1UNL     H2   53   0.071  -0.173  -0.219
    1UNL     H3   54  -0.003  -0.009   0.024
    1UNL     H4   55  -0.030   0.140  -0.182
    1UNL     H5   56  -0.168   0.048  -0.365
    1UNL     H6   57   0.024   0.152  -0.421
    1UNL     H7   58   0.329   0.236  -0.289
    1UNL     H8   59   0.430   0.130  -0.075
    1UNL     H9   60   0.301   0.265  -0.047
    1UNL    H10   61   0.226   0.021   0.194
    1UNL    H11   62   0.432   0.149   0.398
    1UNL    H12   63   0.631   0.043   0.193
    1UNL    H13   64   0.628   0.208   0.249
    1UNL    H14   65   0.675   0.067   0.478
    1UNL    H15   66   0.523  -0.106   0.420
    1UNL    H16   67   0.240  -0.046   0.412
    1UNL    H17   68   0.490  -0.238   0.256
    1UNL    H18   69   0.214  -0.201   0.268
    1UNL    H19   70   0.341  -0.143   0.040
    1UNL    H20   71   0.513  -0.041  -0.045
    1UNL    H21   72   0.291  -0.070  -0.224
    1UNL    H22   73   0.542  -0.003  -0.316
    1UNL    H23   74   0.417   0.048  -0.478
    1UNL    H24   75   0.302  -0.150  -0.569
    1UNL    H25   76   0.227   0.158  -0.545
    1UNL    H26   77   0.052  -0.028  -0.564
    1UNL    H27   78  -0.371  -0.192  -0.266
    1UNL    H28   79  -0.736   0.076  -0.184
    1UNL    H29   80  -0.764  -0.104  -0.137
    1UNL    H30   81  -0.689   0.013  -0.022
    1UNL    H31   82  -0.262   0.195  -0.183
    1UNL    H32   83  -0.170   0.241   0.045
    1UNL    H33   84  -0.340   0.198   0.032
    1UNL    H34   85  -0.241   0.128   0.243
    1UNL    H35   86  -0.470   0.175   0.221
    1UNL    H36   87  -0.709   0.183   0.258
    1UNL    H37   88  -0.799  -0.169   0.247
    1UNL    H38   89  -0.514  -0.304   0.119
    1UNL    H39   90  -0.286  -0.320   0.107
    1UNL    H40   91  -0.227  -0.207   0.007
    1UNL    H41   92  -0.070  -0.215   0.190
    1UNL    H42   93  -0.199  -0.171   0.303
    1UNL    H43   94  -0.045   0.214   0.311
    1UNL    H44   95   0.019   0.205   0.134
    1UNL    H45   96   0.119   0.195   0.284
   0.00000   0.00000   0.00000   0.00000   0.00000   0.00000   0.00000   0.00000   0.00000
Generated with MDTraj, t= 24.0
 96
    1UNL     C1    1   0.030  -0.158  -0.085
    1UNL     C2    2   0.006  -0.032  -0.066
    1UNL     C3    3  -0.072   0.065  -0.151
    1UNL     C4    4  -0.088   0.002  -0.294
    1UNL     O1    5   0.046  -0.031  -0.345
    1UNL     C5    6   0.111   0.095  -0.377
    1UNL     O2    7   0.159   0.170  -0.260
    1UNL     C6    8   0.297   0.140  -0.228
    1UNL     C7    9   0.330   0.160  -0.080
    1UNL     O3   10   0.236   0.082  -0.011
    1UNL     C8   11   0.298   0.048   0.109
    1UNL     O4   12   0.373   0.146   0.183
    1UNL     C9   13   0.449   0.095   0.291
    1UNL    C10   14   0.600   0.086   0.247
    1UNL     O5   15   0.674   0.034   0.359
    1UNL    C11   16   0.397  -0.037   0.347
    1UNL     O6   17   0.288  -0.032   0.443
    1UNL    C12   18   0.383  -0.149   0.234
    1UNL     O7   19   0.285  -0.246   0.245
    1UNL    C13   20   0.371  -0.087   0.095
    1UNL     O8   21   0.493  -0.069   0.037
    1UNL    C14   22   0.344   0.003  -0.282
    1UNL     O9   23   0.465  -0.031  -0.236
    1UNL    C15   24   0.340  -0.003  -0.432
    1UNL    O10   25   0.348  -0.136  -0.466
    1UNL    C16   26   0.220   0.061  -0.493
    1UNL    O11   27   0.164  -0.028  -0.582
    1UNL    O12   28  -0.170  -0.115  -0.291
    1UNL    C17   29  -0.290  -0.090  -0.233
    1UNL    C18   30  -0.326   0.017  -0.154
    1UNL    C19   31  -0.467   0.036  -0.122
    1UNL    O13   32  -0.500   0.134  -0.056
    1UNL    O14   33  -0.551  -0.058  -0.168
    1UNL    C20   34  -0.689  -0.016  -0.163
    1UNL    C21   35  -0.221   0.108  -0.107
    1UNL    C22   36  -0.232   0.158   0.039
    1UNL    C23   37  -0.244   0.066   0.171
    1UNL    C24   38  -0.376  -0.004   0.173
    1UNL    C25   39  -0.488   0.059   0.217
    1UNL    C26   40  -0.613   0.000   0.214
    1UNL    O15   41  -0.731   0.067   0.266
    1UNL    C27   42  -0.627  -0.129   0.160
    1UNL    O16   43  -0.749  -0.186   0.155
    1UNL    C28   44  -0.511  -0.198   0.121
    1UNL    C29   45  -0.385  -0.135   0.125
    1UNL    C30   46  -0.261  -0.211   0.089
    1UNL    C31   47  -0.149  -0.173   0.176
    1UNL     N1   48  -0.129  -0.022   0.178
    1UNL    C32   49  -0.017   0.026   0.242
    1UNL    C33   50   0.008   0.172   0.248
    1UNL    O17   51   0.064  -0.049   0.292
    1UNL     H1   52   0.076  -0.221  -0.020
    1UNL     H2   53  -0.017  -0.199  -0.179
    1UNL     H3   54   0.046   0.008   0.028
    1UNL     H4   55  -0.008   0.151  -0.173
    1UNL     H5   56  -0.136   0.060  -0.371
    1UNL     H6   57   0.040   0.161  -0.418
    1UNL     H7   58   0.353   0.217  -0.283
    1UNL     H8   59   0.432   0.129  -0.064
    1UNL     H9   60   0.309   0.268  -0.054
    1UNL    H10   61   0.226   0.020   0.190
    1UNL    H11   62   0.433   0.166   0.371
    1UNL    H12   63   0.620   0.029   0.158
    1UNL    H13   64   0.642   0.189   0.229
    1UNL    H14   65   0.648   0.076   0.446
    1UNL    H15   66   0.472  -0.094   0.413
    1UNL    H16   67   0.209  -0.029   0.392
    1UNL    H17   68   0.477  -0.208   0.226
    1UNL    H18   69   0.196  -0.203   0.266
    1UNL    H19   70   0.321  -0.153   0.029
    1UNL    H20   71   0.489  -0.038  -0.056
    1UNL    H21   72   0.265  -0.075  -0.248
    1UNL    H22   73   0.477  -0.121  -0.259
    1UNL    H23   74   0.428   0.048  -0.472
    1UNL    H24   75   0.280  -0.172  -0.540
    1UNL    H25   76   0.251   0.147  -0.557
    1UNL    H26   77   0.100  -0.078  -0.523
    1UNL    H27   78  -0.356  -0.170  -0.259
    1UNL    H28   79  -0.688   0.049  -0.078
    1UNL    H29   80  -0.710   0.031  -0.258
    1UNL    H30   81  -0.757  -0.107  -0.154
    1UNL    H31   82  -0.242   0.197  -0.169
    1UNL    H32   83  -0.142   0.217   0.054
    1UNL    H33   84  -0.319   0.210   0.046
    1UNL    H34   85  -0.253   0.123   0.262
    1UNL    H35   86  -0.488   0.164   0.249
    1UNL    H36   87  -0.703   0.160   0.283
    1UNL    H37   88  -0.824  -0.123   0.168
    1UNL    H38   89  -0.525  -0.305   0.087
    1UNL    H39   90  -0.285  -0.318   0.094
    1UNL    H40   91  -0.246  -0.201  -0.014
    1UNL    H41   92  -0.049  -0.218   0.155
    1UNL    H42   93  -0.170  -0.202   0.276
    1UNL    H43   94  -0.082   0.244   0.257
    1UNL    H44   95   0.073   0.199   0.167
    1UNL    H45   96   0.062   0.201   0.337
   0.00000   0.00000   0.00000   0.00000   0.00000   0.00000   0.00000   0.00000   0.00000
Generated with MDTraj, t= 25.0
 96
    1UNL     C1    1   0.012  -0.173  -0.089
    1UNL     C2    2  -0.017  -0.051  -0.048
    1UNL     C3    3  -0.064   0.060  -0.138
    1UNL     C4    4  -0.062   0.016  -0.286
    1UNL     O1    5   0.074  -0.002  -0.345
    1UNL     C5    6   0.131   0.116  -0.403
    1UNL     O2    7   0.192   0.204  -0.315
    1UNL     C6    8   0.313   0.149  -0.250
    1UNL     C7    9   0.319   0.160  -0.097
    1UNL     O3   10   0.235   0.066  -0.026
    1UNL     C8   11   0.295   0.039   0.102
    1UNL     O4   12   0.389   0.136   0.153
    1UNL     C9   13   0.455   0.092   0.272
    1UNL    C10   14   0.609   0.070   0.248
    1UNL     O5   15   0.696   0.077   0.360
    1UNL    C11   16   0.412  -0.036   0.351
    1UNL     O6   17   0.306   0.002   0.433
    1UNL    C12   18   0.375  -0.158   0.253
    1UNL     O7   19   0.267  -0.235   0.298
    1UNL    C13   20   0.354  -0.111   0.107
    1UNL     O8   21   0.476  -0.112   0.036
    1UNL    C14   22   0.340   0.004  -0.292
    1UNL     O9   23   0.453  -0.052  -0.238
    1UNL    C15   24   0.354  -0.001  -0.449
    1UNL    O10   25   0.351  -0.139  -0.498
    1UNL    C16   26   0.226   0.071  -0.516
    1UNL    O11   27   0.166  -0.034  -0.599
    1UNL    O12   28  -0.152  -0.095  -0.298
    1UNL    C17   29  -0.272  -0.074  -0.239
    1UNL    C18   30  -0.315   0.020  -0.147
    1UNL    C19   31  -0.458   0.042  -0.119
    1UNL    O13   32  -0.489   0.144  -0.061
    1UNL    O14   33  -0.538  -0.053  -0.167
    1UNL    C20   34  -0.679  -0.027  -0.148
    1UNL    C21   35  -0.208   0.111  -0.102
    1UNL    C22   36  -0.225   0.160   0.049
    1UNL    C23   37  -0.261   0.071   0.176
    1UNL    C24   38  -0.396  -0.005   0.161
    1UNL    C25   39  -0.511   0.060   0.201
    1UNL    C26   40  -0.629  -0.010   0.215
    1UNL    O15   41  -0.755   0.033   0.260
    1UNL    C27   42  -0.637  -0.142   0.165
    1UNL    O16   43  -0.760  -0.200   0.165
    1UNL    C28   44  -0.521  -0.202   0.114
    1UNL    C29   45  -0.399  -0.138   0.132
    1UNL    C30   46  -0.266  -0.211   0.105
    1UNL    C31   47  -0.161  -0.169   0.211
    1UNL     N1   48  -0.150  -0.021   0.216
    1UNL    C32   49  -0.034   0.027   0.272
    1UNL    C33   50  -0.010   0.164   0.320
    1UNL    O17   51   0.057  -0.052   0.276
    1UNL     H1   52   0.048  -0.251  -0.023
    1UNL     H2   53  -0.014  -0.209  -0.187
    1UNL     H3   54   0.003  -0.024   0.057
    1UNL     H4   55  -0.004   0.152  -0.132
    1UNL     H5   56  -0.114   0.094  -0.338
    1UNL     H6   57   0.047   0.172  -0.434
    1UNL     H7   58   0.400   0.203  -0.296
    1UNL     H8   59   0.418   0.135  -0.062
    1UNL     H9   60   0.290   0.264  -0.073
    1UNL    H10   61   0.219   0.038   0.183
    1UNL    H11   62   0.453   0.175   0.342
    1UNL    H12   63   0.628  -0.027   0.208
    1UNL    H13   64   0.643   0.146   0.176
    1UNL    H14   65   0.657   0.134   0.427
    1UNL    H15   66   0.498  -0.064   0.416
    1UNL    H16   67   0.218  -0.014   0.380
    1UNL    H17   68   0.468  -0.221   0.247
    1UNL    H18   69   0.184  -0.182   0.283
    1UNL    H19   70   0.290  -0.177   0.058
    1UNL    H20   71   0.454  -0.091  -0.055
    1UNL    H21   72   0.252  -0.060  -0.250
    1UNL    H22   73   0.465  -0.139  -0.273
    1UNL    H23   74   0.449   0.047  -0.475
    1UNL    H24   75   0.302  -0.159  -0.582
    1UNL    H25   76   0.253   0.152  -0.588
    1UNL    H26   77   0.109  -0.087  -0.540
    1UNL    H27   78  -0.348  -0.137  -0.274
    1UNL    H28   79  -0.710  -0.109  -0.085
    1UNL    H29   80  -0.688   0.064  -0.093
    1UNL    H30   81  -0.733  -0.015  -0.248
    1UNL    H31   82  -0.218   0.212  -0.152
    1UNL    H32   83  -0.129   0.205   0.073
    1UNL    H33   84  -0.304   0.228   0.048
    1UNL    H34   85  -0.286   0.137   0.257
    1UNL    H35   86  -0.507   0.164   0.219
    1UNL    H36   87  -0.746   0.123   0.294
    1UNL    H37   88  -0.828  -0.131   0.191
    1UNL    H38   89  -0.532  -0.295   0.071
    1UNL    H39   90  -0.275  -0.316   0.077
    1UNL    H40   91  -0.239  -0.158   0.011
    1UNL    H41   92  -0.063  -0.214   0.189
    1UNL    H42   93  -0.190  -0.199   0.313
    1UNL    H43   94  -0.102   0.231   0.348
    1UNL    H44   95   0.051   0.207   0.250
    1UNL    H45   96   0.046   0.162   0.416
   0.00000   0.00000   0.00000   0.00000   0.00000   0.00000   0.00000   0.00000   0.00000
Generated with MDTraj, t= 26.0
 96
    1UNL     C1    1   0.044  -0.168  -0.103
    1UNL     C2    2  -0.027  -0.072  -0.045
    1UNL     C3    3  -0.063   0.050  -0.118
    1UNL     C4    4  -0.062   0.025  -0.273
    1UNL     O1    5   0.071   0.002  -0.317
    1UNL     C5    6   0.127   0.118  -0.386
    1UNL     O2    7   0.197   0.197  -0.293
    1UNL     C6    8   0.326   0.141  -0.254
    1UNL     C7    9   0.343   0.136  -0.101
    1UNL     O3   10   0.273   0.030  -0.044
    1UNL     C8   11   0.306   0.016   0.094
    1UNL     O4   12   0.394   0.121   0.136
    1UNL     C9   13   0.475   0.097   0.250
    1UNL    C10   14   0.626   0.085   0.222
    1UNL     O5   15   0.703   0.087   0.341
    1UNL    C11   16   0.424  -0.015   0.348
    1UNL     O6   17   0.304   0.027   0.418
    1UNL    C12   18   0.386  -0.150   0.264
    1UNL     O7   19   0.289  -0.218   0.342
    1UNL    C13   20   0.360  -0.130   0.113
    1UNL     O8   21   0.476  -0.158   0.038
    1UNL    C14   22   0.352  -0.005  -0.308
    1UNL     O9   23   0.469  -0.061  -0.251
    1UNL    C15   24   0.343  -0.002  -0.459
    1UNL    O10   25   0.355  -0.120  -0.525
    1UNL    C16   26   0.212   0.071  -0.504
    1UNL    O11   27   0.133  -0.012  -0.582
    1UNL    O12   28  -0.155  -0.075  -0.315
    1UNL    C17   29  -0.274  -0.055  -0.256
    1UNL    C18   30  -0.304   0.030  -0.158
    1UNL    C19   31  -0.443   0.067  -0.134
    1UNL    O13   32  -0.488   0.175  -0.092
    1UNL    O14   33  -0.524  -0.038  -0.173
    1UNL    C20   34  -0.657  -0.018  -0.138
    1UNL    C21   35  -0.200   0.113  -0.092
    1UNL    C22   36  -0.251   0.162   0.052
    1UNL    C23   37  -0.278   0.069   0.178
    1UNL    C24   38  -0.403  -0.017   0.165
    1UNL    C25   39  -0.528   0.042   0.206
    1UNL    C26   40  -0.647  -0.025   0.201
    1UNL    O15   41  -0.768   0.040   0.220
    1UNL    C27   42  -0.644  -0.158   0.167
    1UNL    O16   43  -0.768  -0.215   0.177
    1UNL    C28   44  -0.524  -0.221   0.137
    1UNL    C29   45  -0.403  -0.153   0.138
    1UNL    C30   46  -0.271  -0.220   0.112
    1UNL    C31   47  -0.181  -0.163   0.221
    1UNL     N1   48  -0.160  -0.018   0.212
    1UNL    C32   49  -0.056   0.028   0.287
    1UNL    C33   50  -0.061   0.175   0.344
    1UNL    O17   51   0.039  -0.045   0.316
    1UNL     H1   52   0.070  -0.266  -0.053
    1UNL     H2   53   0.075  -0.162  -0.200
    1UNL     H3   54  -0.064  -0.070   0.051
    1UNL     H4   55   0.015   0.127  -0.111
    1UNL     H5   56  -0.099   0.120  -0.312
    1UNL     H6   57   0.047   0.178  -0.420
    1UNL     H7   58   0.414   0.198  -0.301
    1UNL     H8   59   0.441   0.106  -0.071
    1UNL     H9   60   0.315   0.227  -0.047
    1UNL    H10   61   0.214   0.031   0.157
    1UNL    H11   62   0.454   0.190   0.308
    1UNL    H12   63   0.643  -0.012   0.187
    1UNL    H13   64   0.649   0.164   0.152
    1UNL    H14   65   0.686   0.174   0.380
    1UNL    H15   66   0.494  -0.031   0.429
    1UNL    H16   67   0.224  -0.002   0.375
    1UNL    H17   68   0.474  -0.217   0.279
    1UNL    H18   69   0.198  -0.182   0.325
    1UNL    H19   70   0.282  -0.193   0.088
    1UNL    H20   71   0.456  -0.119  -0.051
    1UNL    H21   72   0.264  -0.070  -0.271
    1UNL    H22   73   0.488  -0.154  -0.296
    1UNL    H23   74   0.429   0.058  -0.497
    1UNL    H24   75   0.297  -0.128  -0.598
    1UNL    H25   76   0.236   0.153  -0.576
    1UNL    H26   77   0.050  -0.022  -0.529
    1UNL    H27   78  -0.359  -0.108  -0.304
    1UNL    H28   79  -0.710  -0.093  -0.195
    1UNL    H29   80  -0.660  -0.050  -0.036
    1UNL    H30   81  -0.691   0.090  -0.150
    1UNL    H31   82  -0.183   0.214  -0.142
    1UNL    H32   83  -0.184   0.239   0.085
    1UNL    H33   84  -0.344   0.207   0.024
    1UNL    H34   85  -0.301   0.130   0.264
    1UNL    H35   86  -0.517   0.142   0.248
    1UNL    H36   87  -0.761   0.135   0.231
    1UNL    H37   88  -0.817  -0.163   0.244
    1UNL    H38   89  -0.519  -0.330   0.129
    1UNL    H39   90  -0.286  -0.325   0.132
    1UNL    H40   91  -0.245  -0.199   0.002
    1UNL    H41   92  -0.084  -0.211   0.213
    1UNL    H42   93  -0.229  -0.181   0.322
    1UNL    H43   94  -0.150   0.199   0.400
    1UNL    H44   95  -0.046   0.232   0.255
    1UNL    H45   96   0.031   0.182   0.412
   0.00000   0.00000   0.00000   0.00000   0.00000   0.00000   0.00000   0.00000   0.00000
Generated with MDTraj, t= 27.0
 96
    1UNL     C1    1   0.030  -0.156  -0.085
    1UNL     C2    2  -0.017  -0.042  -0.034
    1UNL     C3    3  -0.079   0.072  -0.116
    1UNL     C4    4  -0.070   0.032  -0.273
    1UNL     O1    5   0.067   0.004  -0.310
    1UNL     C5    6   0.134   0.120  -0.367
    1UNL     O2    7   0.224   0.191  -0.285
    1UNL     C6    8   0.349   0.122  -0.257
    1UNL     C7    9   0.371   0.116  -0.109
    1UNL     O3   10   0.285   0.034  -0.043
    1UNL     C8   11   0.299   0.019   0.101
    1UNL     O4   12   0.378   0.130   0.150
    1UNL     C9   13   0.476   0.096   0.252
    1UNL    C10   14   0.618   0.055   0.206
    1UNL     O5   15   0.712   0.068   0.312
    1UNL    C11   16   0.420  -0.003   0.363
    1UNL     O6   17   0.301   0.045   0.421
    1UNL    C12   18   0.380  -0.136   0.287
    1UNL     O7   19   0.275  -0.197   0.348
    1UNL    C13   20   0.369  -0.115   0.132
    1UNL     O8   21   0.497  -0.128   0.064
    1UNL    C14   22   0.360  -0.015  -0.320
    1UNL     O9   23   0.481  -0.083  -0.291
    1UNL    C15   24   0.342   0.004  -0.469
    1UNL    O10   25   0.358  -0.118  -0.543
    1UNL    C16   26   0.205   0.083  -0.499
    1UNL    O11   27   0.118   0.003  -0.581
    1UNL    O12   28  -0.165  -0.081  -0.295
    1UNL    C17   29  -0.288  -0.077  -0.236
    1UNL    C18   30  -0.322   0.015  -0.142
    1UNL    C19   31  -0.462   0.055  -0.127
    1UNL    O13   32  -0.488   0.161  -0.070
    1UNL    O14   33  -0.562  -0.027  -0.188
    1UNL    C20   34  -0.688   0.032  -0.175
    1UNL    C21   35  -0.225   0.114  -0.082
    1UNL    C22   36  -0.247   0.153   0.064
    1UNL    C23   37  -0.275   0.054   0.179
    1UNL    C24   38  -0.396  -0.023   0.152
    1UNL    C25   39  -0.518   0.043   0.167
    1UNL    C26   40  -0.640  -0.023   0.168
    1UNL    O15   41  -0.755   0.043   0.188
    1UNL    C27   42  -0.641  -0.167   0.158
    1UNL    O16   43  -0.765  -0.233   0.182
    1UNL    C28   44  -0.522  -0.228   0.150
    1UNL    C29   45  -0.404  -0.161   0.144
    1UNL    C30   46  -0.268  -0.235   0.134
    1UNL    C31   47  -0.167  -0.179   0.232
    1UNL     N1   48  -0.162  -0.027   0.225
    1UNL    C32   49  -0.049   0.028   0.285
    1UNL    C33   50  -0.055   0.159   0.351
    1UNL    O17   51   0.051  -0.041   0.292
    1UNL     H1   52   0.071  -0.237  -0.027
    1UNL     H2   53   0.025  -0.165  -0.190
    1UNL     H3   54  -0.002  -0.017   0.067
    1UNL     H4   55  -0.015   0.160  -0.109
    1UNL     H5   56  -0.114   0.111  -0.336
    1UNL     H6   57   0.055   0.188  -0.394
    1UNL     H7   58   0.432   0.187  -0.301
    1UNL     H8   59   0.468   0.078  -0.078
    1UNL     H9   60   0.351   0.208  -0.055
    1UNL    H10   61   0.199   0.033   0.149
    1UNL    H11   62   0.493   0.188   0.314
    1UNL    H12   63   0.616  -0.044   0.177
    1UNL    H13   64   0.659   0.123   0.134
    1UNL    H14   65   0.759   0.155   0.329
    1UNL    H15   66   0.496  -0.019   0.436
    1UNL    H16   67   0.222   0.020   0.365
    1UNL    H17   68   0.465  -0.206   0.287
    1UNL    H18   69   0.191  -0.151   0.324
    1UNL    H19   70   0.324  -0.201   0.092
    1UNL    H20   71   0.483  -0.114  -0.031
    1UNL    H21   72   0.270  -0.070  -0.273
    1UNL    H22   73   0.485  -0.148  -0.367
    1UNL    H23   74   0.427   0.073  -0.494
    1UNL    H24   75   0.341  -0.109  -0.639
    1UNL    H25   76   0.219   0.176  -0.557
    1UNL    H26   77   0.059  -0.037  -0.514
    1UNL    H27   78  -0.363  -0.150  -0.272
    1UNL    H28   79  -0.746  -0.003  -0.258
    1UNL    H29   80  -0.721  -0.017  -0.088
    1UNL    H30   81  -0.687   0.145  -0.166
    1UNL    H31   82  -0.245   0.213  -0.134
    1UNL    H32   83  -0.153   0.192   0.097
    1UNL    H33   84  -0.324   0.233   0.062
    1UNL    H34   85  -0.305   0.110   0.270
    1UNL    H35   86  -0.517   0.149   0.193
    1UNL    H36   87  -0.742   0.140   0.181
    1UNL    H37   88  -0.835  -0.168   0.205
    1UNL    H38   89  -0.531  -0.336   0.163
    1UNL    H39   90  -0.288  -0.340   0.145
    1UNL    H40   91  -0.228  -0.208   0.028
    1UNL    H41   92  -0.069  -0.219   0.215
    1UNL    H42   93  -0.211  -0.206   0.336
    1UNL    H43   94  -0.112   0.164   0.436
    1UNL    H44   95  -0.097   0.232   0.271
    1UNL    H45   96   0.052   0.187   0.377
   0.00000   0.00000   0.00000   0.00000   0.00000   0.00000   0.00000   0.00000   0.00000
Generated with MDTraj, t= 28.0
 96
    1UNL     C1    1   0.021  -0.155  -0.055
    1UNL     C2    2  -0.005  -0.032  -0.026
    1UNL     C3    3  -0.066   0.068  -0.124
    1UNL     C4    4  -0.073   0.013  -0.263
    1UNL     O1    5   0.049  -0.006  -0.318
    1UNL     C5    6   0.116   0.115  -0.362
    1UNL     O2    7   0.200   0.183  -0.264
    1UNL     C6    8   0.332   0.124  -0.254
    1UNL     C7    9   0.369   0.108  -0.103
    1UNL     O3   10   0.271   0.045  -0.030
    1UNL     C8   11   0.306   0.026   0.111
    1UNL     O4   12   0.388   0.136   0.152
    1UNL     C9   13   0.480   0.113   0.265
    1UNL    C10   14   0.614   0.081   0.218
    1UNL     O5   15   0.717   0.055   0.313
    1UNL    C11   16   0.429   0.000   0.358
    1UNL     O6   17   0.316   0.040   0.427
    1UNL    C12   18   0.396  -0.136   0.284
    1UNL     O7   19   0.294  -0.209   0.346
    1UNL    C13   20   0.358  -0.115   0.134
    1UNL     O8   21   0.469  -0.152   0.054
    1UNL    C14   22   0.336  -0.019  -0.319
    1UNL     O9   23   0.457  -0.093  -0.294
    1UNL    C15   24   0.320   0.008  -0.467
    1UNL    O10   25   0.339  -0.124  -0.527
    1UNL    C16   26   0.185   0.080  -0.495
    1UNL    O11   27   0.102   0.002  -0.578
    1UNL    O12   28  -0.159  -0.100  -0.263
    1UNL    C17   29  -0.285  -0.065  -0.226
    1UNL    C18   30  -0.317   0.047  -0.155
    1UNL    C19   31  -0.459   0.074  -0.135
    1UNL    O13   32  -0.495   0.162  -0.064
    1UNL    O14   33  -0.547  -0.001  -0.210
    1UNL    C20   34  -0.684   0.030  -0.201
    1UNL    C21   35  -0.206   0.133  -0.091
    1UNL    C22   36  -0.234   0.166   0.066
    1UNL    C23   37  -0.264   0.052   0.182
    1UNL    C24   38  -0.397  -0.027   0.176
    1UNL    C25   39  -0.522   0.041   0.174
    1UNL    C26   40  -0.644  -0.033   0.169
    1UNL    O15   41  -0.763   0.032   0.160
    1UNL    C27   42  -0.635  -0.173   0.155
    1UNL    O16   43  -0.754  -0.250   0.127
    1UNL    C28   44  -0.509  -0.230   0.145
    1UNL    C29   45  -0.397  -0.161   0.162
    1UNL    C30   46  -0.262  -0.232   0.136
    1UNL    C31   47  -0.158  -0.176   0.225
    1UNL     N1   48  -0.146  -0.031   0.218
    1UNL    C32   49  -0.027   0.034   0.275
    1UNL    C33   50  -0.039   0.163   0.342
    1UNL    O17   51   0.078  -0.028   0.283
    1UNL     H1   52   0.079  -0.218   0.004
    1UNL     H2   53  -0.006  -0.190  -0.161
    1UNL     H3   54   0.029   0.001   0.073
    1UNL     H4   55   0.005   0.151  -0.133
    1UNL     H5   56  -0.135   0.079  -0.329
    1UNL     H6   57   0.035   0.182  -0.391
    1UNL     H7   58   0.401   0.191  -0.313
    1UNL     H8   59   0.456   0.049  -0.074
    1UNL     H9   60   0.373   0.202  -0.046
    1UNL    H10   61   0.205   0.035   0.154
    1UNL    H11   62   0.460   0.211   0.317
    1UNL    H12   63   0.608  -0.012   0.170
    1UNL    H13   64   0.643   0.162   0.153
    1UNL    H14   65   0.742   0.136   0.367
    1UNL    H15   66   0.503  -0.028   0.428
    1UNL    H16   67   0.236   0.026   0.368
    1UNL    H17   68   0.473  -0.211   0.302
    1UNL    H18   69   0.212  -0.155   0.334
    1UNL    H19   70   0.278  -0.184   0.119
    1UNL    H20   71   0.446  -0.145  -0.045
    1UNL    H21   72   0.242  -0.076  -0.286
    1UNL    H22   73   0.482  -0.136  -0.372
    1UNL    H23   74   0.404   0.075  -0.501
    1UNL    H24   75   0.289  -0.136  -0.614
    1UNL    H25   76   0.198   0.174  -0.549
    1UNL    H26   77   0.084  -0.075  -0.518
    1UNL    H27   78  -0.365  -0.123  -0.264
    1UNL    H28   79  -0.734  -0.061  -0.232
    1UNL    H29   80  -0.704   0.037  -0.097
    1UNL    H30   81  -0.723   0.116  -0.264
    1UNL    H31   82  -0.225   0.228  -0.143
    1UNL    H32   83  -0.148   0.209   0.106
    1UNL    H33   84  -0.312   0.250   0.074
    1UNL    H34   85  -0.284   0.101   0.282
    1UNL    H35   86  -0.525   0.142   0.142
    1UNL    H36   87  -0.761   0.130   0.170
    1UNL    H37   88  -0.823  -0.189   0.093
    1UNL    H38   89  -0.499  -0.328   0.111
    1UNL    H39   90  -0.271  -0.337   0.157
    1UNL    H40   91  -0.232  -0.211   0.026
    1UNL    H41   92  -0.066  -0.220   0.195
    1UNL    H42   93  -0.189  -0.201   0.336
    1UNL    H43   94  -0.073   0.166   0.444
    1UNL    H44   95  -0.110   0.233   0.288
    1UNL    H45   96   0.055   0.223   0.350
   0.00000   0.00000   0.00000   0.00000   0.00000   0.00000   0.00000   0.00000   0.00000
Generated with MDTraj, t= 29.0
 96
    1UNL     C1    1   0.026  -0.163  -0.056
    1UNL     C2    2  -0.011  -0.042  -0.021
    1UNL     C3    3  -0.067   0.071  -0.112
    1UNL     C4    4  -0.086   0.016  -0.262
    1UNL     O1    5   0.035  -0.003  -0.329
    1UNL     C5    6   0.097   0.119  -0.379
    1UNL     O2    7   0.166   0.189  -0.272
    1UNL     C6    8   0.288   0.131  -0.243
    1UNL     C7    9   0.318   0.136  -0.093
    1UNL     O3   10   0.246   0.046  -0.022
    1UNL     C8   11   0.311   0.027   0.107
    1UNL     O4   12   0.414   0.122   0.140
    1UNL     C9   13   0.497   0.091   0.256
    1UNL    C10   14   0.644   0.068   0.220
    1UNL     O5   15   0.730   0.066   0.332
    1UNL    C11   16   0.424  -0.015   0.352
    1UNL     O6   17   0.328   0.045   0.434
    1UNL    C12   18   0.391  -0.146   0.273
    1UNL     O7   19   0.287  -0.217   0.327
    1UNL    C13   20   0.361  -0.112   0.121
    1UNL     O8   21   0.484  -0.130   0.051
    1UNL    C14   22   0.310  -0.016  -0.291
    1UNL     O9   23   0.426  -0.082  -0.243
    1UNL    C15   24   0.304  -0.017  -0.442
    1UNL    O10   25   0.306  -0.156  -0.499
    1UNL    C16   26   0.184   0.071  -0.499
    1UNL    O11   27   0.096   0.011  -0.595
    1UNL    O12   28  -0.159  -0.112  -0.245
    1UNL    C17   29  -0.289  -0.085  -0.200
    1UNL    C18   30  -0.316   0.034  -0.146
    1UNL    C19   31  -0.456   0.072  -0.137
    1UNL    O13   32  -0.486   0.181  -0.094
    1UNL    O14   33  -0.558  -0.010  -0.190
    1UNL    C20   34  -0.685   0.056  -0.186
    1UNL    C21   35  -0.204   0.120  -0.074
    1UNL    C22   36  -0.230   0.153   0.074
    1UNL    C23   37  -0.251   0.053   0.182
    1UNL    C24   38  -0.381  -0.024   0.162
    1UNL    C25   39  -0.509   0.031   0.180
    1UNL    C26   40  -0.626  -0.036   0.141
    1UNL    O15   41  -0.746   0.022   0.157
    1UNL    C27   42  -0.618  -0.168   0.094
    1UNL    O16   43  -0.729  -0.248   0.095
    1UNL    C28   44  -0.493  -0.222   0.079
    1UNL    C29   45  -0.374  -0.155   0.110
    1UNL    C30   46  -0.241  -0.217   0.112
    1UNL    C31   47  -0.156  -0.170   0.234
    1UNL     N1   48  -0.125  -0.024   0.226
    1UNL    C32   49  -0.019   0.041   0.297
    1UNL    C33   50  -0.028   0.190   0.315
    1UNL    O17   51   0.072  -0.025   0.349
    1UNL     H1   52   0.053  -0.243   0.002
    1UNL     H2   53   0.019  -0.186  -0.163
    1UNL     H3   54   0.024  -0.018   0.079
    1UNL     H4   55   0.005   0.153  -0.123
    1UNL     H5   56  -0.157   0.070  -0.332
    1UNL     H6   57   0.019   0.185  -0.421
    1UNL     H7   58   0.365   0.186  -0.300
    1UNL     H8   59   0.425   0.109  -0.076
    1UNL     H9   60   0.291   0.233  -0.046
    1UNL    H10   61   0.223   0.039   0.174
    1UNL    H11   62   0.499   0.187   0.308
    1UNL    H12   63   0.649  -0.023   0.166
    1UNL    H13   64   0.685   0.149   0.158
    1UNL    H14   65   0.733   0.155   0.373
    1UNL    H15   66   0.512  -0.047   0.407
    1UNL    H16   67   0.238   0.034   0.406
    1UNL    H17   68   0.478  -0.208   0.278
    1UNL    H18   69   0.211  -0.155   0.336
    1UNL    H19   70   0.293  -0.186   0.078
    1UNL    H20   71   0.472  -0.099  -0.039
    1UNL    H21   72   0.218  -0.070  -0.251
    1UNL    H22   73   0.477  -0.133  -0.313
    1UNL    H23   74   0.400   0.026  -0.479
    1UNL    H24   75   0.259  -0.154  -0.581
    1UNL    H25   76   0.225   0.156  -0.552
    1UNL    H26   77   0.044  -0.050  -0.538
    1UNL    H27   78  -0.365  -0.156  -0.219
    1UNL    H28   79  -0.760   0.008  -0.249
    1UNL    H29   80  -0.722   0.048  -0.086
    1UNL    H30   81  -0.681   0.166  -0.216
    1UNL    H31   82  -0.225   0.212  -0.128
    1UNL    H32   83  -0.150   0.211   0.107
    1UNL    H33   84  -0.320   0.227   0.076
    1UNL    H34   85  -0.279   0.106   0.278
    1UNL    H35   86  -0.517   0.140   0.201
    1UNL    H36   87  -0.736   0.118   0.185
    1UNL    H37   88  -0.799  -0.200   0.143
    1UNL    H38   89  -0.486  -0.329   0.043
    1UNL    H39   90  -0.255  -0.324   0.112
    1UNL    H40   91  -0.190  -0.184   0.017
    1UNL    H41   92  -0.063  -0.220   0.252
    1UNL    H42   93  -0.223  -0.176   0.331
    1UNL    H43   94   0.037   0.233   0.403
    1UNL    H44   95  -0.131   0.216   0.326
    1UNL    H45   96   0.019   0.237   0.229
   0.00000   0.00000   0.00000   0.00000   0.00000   0.00000   0.00000   0.00000   0.00000
Generated with MDTraj, t= 30.0
 96
    1UNL     C1    1   0.054  -0.143  -0.080
    1UNL     C2    2  -0.006  -0.032  -0.043
    1UNL     C3    3  -0.081   0.051  -0.134
    1UNL     C4    4  -0.100  -0.010  -0.277
    1UNL     O1    5   0.020  -0.036  -0.345
    1UNL     C5    6   0.081   0.090  -0.378
    1UNL     O2    7   0.136   0.166  -0.269
    1UNL     C6    8   0.271   0.136  -0.243
    1UNL     C7    9   0.304   0.175  -0.090
    1UNL     O3   10   0.243   0.071  -0.012
    1UNL     C8   11   0.309   0.042   0.113
    1UNL     O4   12   0.411   0.142   0.158
    1UNL     C9   13   0.496   0.096   0.267
    1UNL    C10   14   0.640   0.049   0.226
    1UNL     O5   15   0.743   0.047   0.323
    1UNL    C11   16   0.432  -0.022   0.354
    1UNL     O6   17   0.329   0.026   0.442
    1UNL    C12   18   0.391  -0.148   0.270
    1UNL     O7   19   0.277  -0.225   0.314
    1UNL    C13   20   0.362  -0.099   0.123
    1UNL     O8   21   0.481  -0.104   0.047
    1UNL    C14   22   0.298  -0.014  -0.273
    1UNL     O9   23   0.416  -0.059  -0.209
    1UNL    C15   24   0.293  -0.033  -0.429
    1UNL    O10   25   0.274  -0.174  -0.452
    1UNL    C16   26   0.182   0.059  -0.486
    1UNL    O11   27   0.122  -0.003  -0.594
    1UNL    O12   28  -0.186  -0.118  -0.257
    1UNL    C17   29  -0.309  -0.084  -0.200
    1UNL    C18   30  -0.326   0.034  -0.132
    1UNL    C19   31  -0.457   0.087  -0.114
    1UNL    O13   32  -0.479   0.196  -0.069
    1UNL    O14   33  -0.558   0.005  -0.160
    1UNL    C20   34  -0.680   0.068  -0.153
    1UNL    C21   35  -0.209   0.123  -0.088
    1UNL    C22   36  -0.218   0.171   0.062
    1UNL    C23   37  -0.246   0.067   0.170
    1UNL    C24   38  -0.378  -0.018   0.157
    1UNL    C25   39  -0.504   0.030   0.168
    1UNL    C26   40  -0.615  -0.040   0.131
    1UNL    O15   41  -0.747  -0.001   0.153
    1UNL    C27   42  -0.602  -0.170   0.073
    1UNL    O16   43  -0.704  -0.245   0.023
    1UNL    C28   44  -0.476  -0.226   0.087
    1UNL    C29   45  -0.361  -0.150   0.127
    1UNL    C30   46  -0.225  -0.214   0.108
    1UNL    C31   47  -0.139  -0.160   0.225
    1UNL     N1   48  -0.118  -0.013   0.212
    1UNL    C32   49  -0.011   0.037   0.283
    1UNL    C33   50  -0.001   0.186   0.323
    1UNL    O17   51   0.079  -0.032   0.332
    1UNL     H1   52   0.113  -0.208  -0.009
    1UNL     H2   53   0.053  -0.180  -0.178
    1UNL     H3   54  -0.013  -0.008   0.059
    1UNL     H4   55  -0.011   0.134  -0.155
    1UNL     H5   56  -0.162   0.064  -0.333
    1UNL     H6   57   0.003   0.152  -0.430
    1UNL     H7   58   0.331   0.190  -0.314
    1UNL     H8   59   0.414   0.181  -0.067
    1UNL     H9   60   0.251   0.271  -0.067
    1UNL    H10   61   0.223   0.052   0.181
    1UNL    H11   62   0.502   0.178   0.337
    1UNL    H12   63   0.637  -0.048   0.179
    1UNL    H13   64   0.669   0.116   0.142
    1UNL    H14   65   0.748   0.134   0.363
    1UNL    H15   66   0.497  -0.060   0.440
    1UNL    H16   67   0.234   0.013   0.404
    1UNL    H17   68   0.471  -0.218   0.274
    1UNL    H18   69   0.208  -0.154   0.322
    1UNL    H19   70   0.298  -0.176   0.076
    1UNL    H20   71   0.464  -0.088  -0.051
    1UNL    H21   72   0.210  -0.068  -0.227
    1UNL    H22   73   0.470  -0.115  -0.279
    1UNL    H23   74   0.390  -0.003  -0.471
    1UNL    H24   75   0.230  -0.190  -0.544
    1UNL    H25   76   0.224   0.152  -0.523
    1UNL    H26   77   0.067  -0.074  -0.552
    1UNL    H27   78  -0.389  -0.160  -0.204
    1UNL    H28   79  -0.737   0.011  -0.228
    1UNL    H29   80  -0.726   0.060  -0.056
    1UNL    H30   81  -0.683   0.176  -0.192
    1UNL    H31   82  -0.224   0.211  -0.151
    1UNL    H32   83  -0.116   0.217   0.072
    1UNL    H33   84  -0.286   0.261   0.081
    1UNL    H34   85  -0.261   0.121   0.267
    1UNL    H35   86  -0.520   0.128   0.201
    1UNL    H36   87  -0.745   0.087   0.200
    1UNL    H37   88  -0.790  -0.195   0.025
    1UNL    H38   89  -0.472  -0.327   0.069
    1UNL    H39   90  -0.227  -0.324   0.106
    1UNL    H40   91  -0.187  -0.187   0.012
    1UNL    H41   92  -0.045  -0.208   0.245
    1UNL    H42   93  -0.193  -0.171   0.329
    1UNL    H43   94   0.036   0.188   0.436
    1UNL    H44   95  -0.097   0.230   0.312
    1UNL    H45   96   0.078   0.231   0.266
   0.00000   0.00000   0.00000   0.00000   0.00000   0.00000   0.00000   0.00000   0.00000
Generated with MDTraj, t= 31.0
 96
    1UNL     C1    1   0.018  -0.163  -0.096
    1UNL     C2    2  -0.021  -0.047  -0.042
    1UNL     C3    3  -0.090   0.058  -0.128
    1UNL     C4    4  -0.111   0.006  -0.282
    1UNL     O1    5   0.013  -0.036  -0.338
    1UNL     C5    6   0.090   0.085  -0.377
    1UNL     O2    7   0.146   0.151  -0.261
    1UNL     C6    8   0.283   0.124  -0.230
    1UNL     C7    9   0.315   0.158  -0.082
    1UNL     O3   10   0.235   0.075  -0.003
    1UNL     C8   11   0.300   0.051   0.121
    1UNL     O4   12   0.400   0.146   0.171
    1UNL     C9   13   0.484   0.106   0.277
    1UNL    C10   14   0.629   0.082   0.225
    1UNL     O5   15   0.718   0.019   0.314
    1UNL    C11   16   0.444  -0.016   0.359
    1UNL     O6   17   0.338   0.021   0.447
    1UNL    C12   18   0.404  -0.136   0.262
    1UNL     O7   19   0.298  -0.206   0.328
    1UNL    C13   20   0.357  -0.087   0.115
    1UNL     O8   21   0.476  -0.103   0.034
    1UNL    C14   22   0.336  -0.014  -0.272
    1UNL     O9   23   0.472  -0.040  -0.244
    1UNL    C15   24   0.308  -0.047  -0.425
    1UNL    O10   25   0.271  -0.183  -0.443
    1UNL    C16   26   0.194   0.041  -0.487
    1UNL    O11   27   0.135  -0.040  -0.583
    1UNL    O12   28  -0.211  -0.102  -0.271
    1UNL    C17   29  -0.326  -0.057  -0.215
    1UNL    C18   30  -0.345   0.039  -0.123
    1UNL    C19   31  -0.475   0.102  -0.108
    1UNL    O13   32  -0.494   0.200  -0.043
    1UNL    O14   33  -0.575   0.046  -0.178
    1UNL    C20   34  -0.704   0.105  -0.152
    1UNL    C21   35  -0.223   0.114  -0.076
    1UNL    C22   36  -0.238   0.158   0.068
    1UNL    C23   37  -0.251   0.051   0.184
    1UNL    C24   38  -0.368  -0.041   0.161
    1UNL    C25   39  -0.488   0.021   0.171
    1UNL    C26   40  -0.598  -0.053   0.140
    1UNL    O15   41  -0.726   0.007   0.146
    1UNL    C27   42  -0.590  -0.178   0.084
    1UNL    O16   43  -0.699  -0.246   0.041
    1UNL    C28   44  -0.461  -0.232   0.054
    1UNL    C29   45  -0.345  -0.167   0.111
    1UNL    C30   46  -0.215  -0.232   0.106
    1UNL    C31   47  -0.127  -0.168   0.217
    1UNL     N1   48  -0.121  -0.020   0.213
    1UNL    C32   49  -0.018   0.046   0.274
    1UNL    C33   50  -0.030   0.192   0.324
    1UNL    O17   51   0.082  -0.019   0.297
    1UNL     H1   52   0.061  -0.241  -0.030
    1UNL     H2   53  -0.019  -0.205  -0.183
    1UNL     H3   54   0.018  -0.013   0.058
    1UNL     H4   55  -0.024   0.145  -0.135
    1UNL     H5   56  -0.155   0.090  -0.336
    1UNL     H6   57   0.020   0.157  -0.428
    1UNL     H7   58   0.338   0.190  -0.293
    1UNL     H8   59   0.425   0.138  -0.067
    1UNL     H9   60   0.292   0.264  -0.057
    1UNL    H10   61   0.214   0.058   0.192
    1UNL    H11   62   0.503   0.186   0.347
    1UNL    H12   63   0.620   0.011   0.142
    1UNL    H13   64   0.679   0.167   0.168
    1UNL    H14   65   0.722   0.066   0.400
    1UNL    H15   66   0.524  -0.047   0.435
    1UNL    H16   67   0.255   0.010   0.403
    1UNL    H17   68   0.494  -0.197   0.255
    1UNL    H18   69   0.212  -0.160   0.312
    1UNL    H19   70   0.281  -0.159   0.076
    1UNL    H20   71   0.462  -0.078  -0.060
    1UNL    H21   72   0.278  -0.089  -0.209
    1UNL    H22   73   0.505  -0.069  -0.329
    1UNL    H23   74   0.397  -0.024  -0.484
    1UNL    H24   75   0.284  -0.207  -0.533
    1UNL    H25   76   0.236   0.129  -0.537
    1UNL    H26   77   0.090  -0.113  -0.535
    1UNL    H27   78  -0.420  -0.117  -0.232
    1UNL    H28   79  -0.768   0.023  -0.120
    1UNL    H29   80  -0.704   0.185  -0.080
    1UNL    H30   81  -0.757   0.135  -0.247
    1UNL    H31   82  -0.239   0.207  -0.135
    1UNL    H32   83  -0.146   0.229   0.074
    1UNL    H33   84  -0.323   0.231   0.090
    1UNL    H34   85  -0.278   0.101   0.279
    1UNL    H35   86  -0.487   0.130   0.189
    1UNL    H36   87  -0.718   0.089   0.200
    1UNL    H37   88  -0.778  -0.191   0.055
    1UNL    H38   89  -0.446  -0.333   0.011
    1UNL    H39   90  -0.216  -0.343   0.116
    1UNL    H40   91  -0.173  -0.221   0.013
    1UNL    H41   92  -0.023  -0.198   0.219
    1UNL    H42   93  -0.157  -0.206   0.322
    1UNL    H43   94  -0.055   0.200   0.426
    1UNL    H44   95  -0.105   0.260   0.275
    1UNL    H45   96   0.065   0.249   0.326
   0.00000   0.00000   0.00000   0.00000   0.00000   0.00000   0.00000   0.00000   0.00000
Generated with MDTraj, t= 32.0
 96
    1UNL     C1    1   0.035  -0.145  -0.108
    1UNL     C2    2  -0.023  -0.041  -0.059
    1UNL     C3    3  -0.087   0.064  -0.138
    1UNL     C4    4  -0.111   0.021  -0.290
    1UNL     O1    5   0.011  -0.026  -0.345
    1UNL     C5    6   0.099   0.084  -0.382
    1UNL     O2    7   0.158   0.151  -0.273
    1UNL     C6    8   0.299   0.132  -0.251
    1UNL     C7    9   0.336   0.159  -0.098
    1UNL     O3   10   0.260   0.068  -0.019
    1UNL     C8   11   0.312   0.043   0.109
    1UNL     O4   12   0.405   0.144   0.155
    1UNL     C9   13   0.498   0.103   0.268
    1UNL    C10   14   0.639   0.069   0.214
    1UNL     O5   15   0.729   0.063   0.324
    1UNL    C11   16   0.435  -0.007   0.355
    1UNL     O6   17   0.324   0.045   0.432
    1UNL    C12   18   0.400  -0.135   0.269
    1UNL     O7   19   0.286  -0.201   0.328
    1UNL    C13   20   0.382  -0.099   0.119
    1UNL     O8   21   0.507  -0.107   0.042
    1UNL    C14   22   0.339  -0.012  -0.279
    1UNL     O9   23   0.468  -0.056  -0.240
    1UNL    C15   24   0.317  -0.044  -0.425
    1UNL    O10   25   0.292  -0.181  -0.428
    1UNL    C16   26   0.198   0.033  -0.489
    1UNL    O11   27   0.129  -0.064  -0.569
    1UNL    O12   28  -0.216  -0.081  -0.288
    1UNL    C17   29  -0.332  -0.031  -0.234
    1UNL    C18   30  -0.347   0.061  -0.141
    1UNL    C19   31  -0.474   0.123  -0.109
    1UNL    O13   32  -0.497   0.216  -0.035
    1UNL    O14   33  -0.573   0.072  -0.186
    1UNL    C20   34  -0.700   0.136  -0.156
    1UNL    C21   35  -0.218   0.126  -0.080
    1UNL    C22   36  -0.232   0.153   0.070
    1UNL    C23   37  -0.265   0.047   0.187
    1UNL    C24   38  -0.378  -0.042   0.154
    1UNL    C25   39  -0.504   0.012   0.166
    1UNL    C26   40  -0.614  -0.063   0.138
    1UNL    O15   41  -0.745  -0.017   0.151
    1UNL    C27   42  -0.596  -0.200   0.095
    1UNL    O16   43  -0.713  -0.269   0.070
    1UNL    C28   44  -0.468  -0.254   0.097
    1UNL    C29   45  -0.356  -0.179   0.117
    1UNL    C30   46  -0.226  -0.242   0.115
    1UNL    C31   47  -0.136  -0.179   0.220
    1UNL     N1   48  -0.143  -0.028   0.233
    1UNL    C32   49  -0.037   0.025   0.302
    1UNL    C33   50  -0.030   0.165   0.350
    1UNL    O17   51   0.058  -0.046   0.325
    1UNL     H1   52   0.064  -0.226  -0.047
    1UNL     H2   53   0.051  -0.152  -0.218
    1UNL     H3   54  -0.045  -0.026   0.045
    1UNL     H4   55  -0.009   0.141  -0.142
    1UNL     H5   56  -0.152   0.100  -0.351
    1UNL     H6   57   0.032   0.161  -0.429
    1UNL     H7   58   0.347   0.195  -0.322
    1UNL     H8   59   0.444   0.143  -0.082
    1UNL     H9   60   0.317   0.263  -0.067
    1UNL    H10   61   0.225   0.035   0.177
    1UNL    H11   62   0.501   0.201   0.317
    1UNL    H12   63   0.645  -0.029   0.161
    1UNL    H13   64   0.667   0.135   0.123
    1UNL    H14   65   0.705   0.143   0.381
    1UNL    H15   66   0.502  -0.047   0.436
    1UNL    H16   67   0.238   0.001   0.396
    1UNL    H17   68   0.494  -0.198   0.273
    1UNL    H18   69   0.198  -0.155   0.310
    1UNL    H19   70   0.316  -0.182   0.077
    1UNL    H20   71   0.490  -0.073  -0.049
    1UNL    H21   72   0.275  -0.074  -0.212
    1UNL    H22   73   0.502  -0.108  -0.307
    1UNL    H23   74   0.405  -0.023  -0.484
    1UNL    H24   75   0.266  -0.210  -0.523
    1UNL    H25   76   0.242   0.112  -0.554
    1UNL    H26   77   0.065  -0.119  -0.518
    1UNL    H27   78  -0.420  -0.067  -0.283
    1UNL    H28   79  -0.716   0.153  -0.052
    1UNL    H29   80  -0.710   0.227  -0.213
    1UNL    H30   81  -0.790   0.070  -0.178
    1UNL    H31   82  -0.213   0.226  -0.133
    1UNL    H32   83  -0.130   0.193   0.105
    1UNL    H33   84  -0.300   0.239   0.099
    1UNL    H34   85  -0.300   0.107   0.271
    1UNL    H35   86  -0.522   0.114   0.191
    1UNL    H36   87  -0.740   0.067   0.198
    1UNL    H37   88  -0.794  -0.214   0.085
    1UNL    H38   89  -0.461  -0.361   0.083
    1UNL    H39   90  -0.226  -0.352   0.121
    1UNL    H40   91  -0.186  -0.220   0.018
    1UNL    H41   92  -0.032  -0.207   0.204
    1UNL    H42   93  -0.145  -0.222   0.326
    1UNL    H43   94   0.026   0.167   0.435
    1UNL    H44   95  -0.128   0.212   0.371
    1UNL    H45   96   0.030   0.230   0.280
   0.00000   0.00000   0.00000   0.00000   0.00000   0.00000   0.00000   0.00000   0.00000
Generated with MDTraj, t= 33.0
 96
    1UNL     C1    1   0.038  -0.149  -0.096
    1UNL     C2    2  -0.012  -0.041  -0.047
    1UNL     C3    3  -0.068   0.072  -0.127
    1UNL     C4    4  -0.086   0.028  -0.276
    1UNL     O1    5   0.037  -0.024  -0.331
    1UNL     C5    6   0.105   0.086  -0.392
    1UNL     O2    7   0.171   0.173  -0.303
    1UNL     C6    8   0.297   0.119  -0.256
    1UNL     C7    9   0.309   0.151  -0.104
    1UNL     O3   10   0.251   0.057  -0.019
    1UNL     C8   11   0.315   0.037   0.108
    1UNL     O4   12   0.420   0.127   0.130
    1UNL     C9   13   0.493   0.113   0.256
    1UNL    C10   14   0.639   0.089   0.226
    1UNL     O5   15   0.721   0.109   0.341
    1UNL    C11   16   0.437   0.007   0.347
    1UNL     O6   17   0.323   0.057   0.417
    1UNL    C12   18   0.415  -0.134   0.273
    1UNL     O7   19   0.312  -0.210   0.347
    1UNL    C13   20   0.375  -0.107   0.128
    1UNL     O8   21   0.490  -0.125   0.045
    1UNL    C14   22   0.325  -0.029  -0.283
    1UNL     O9   23   0.449  -0.074  -0.229
    1UNL    C15   24   0.318  -0.050  -0.432
    1UNL    O10   25   0.312  -0.189  -0.458
    1UNL    C16   26   0.203   0.031  -0.501
    1UNL    O11   27   0.125  -0.046  -0.595
    1UNL    O12   28  -0.199  -0.063  -0.275
    1UNL    C17   29  -0.315  -0.013  -0.227
    1UNL    C18   30  -0.336   0.088  -0.140
    1UNL    C19   31  -0.459   0.143  -0.106
    1UNL    O13   32  -0.472   0.236  -0.035
    1UNL    O14   33  -0.563   0.081  -0.172
    1UNL    C20   34  -0.683   0.151  -0.151
    1UNL    C21   35  -0.208   0.143  -0.068
    1UNL    C22   36  -0.230   0.156   0.086
    1UNL    C23   37  -0.271   0.041   0.181
    1UNL    C24   38  -0.384  -0.049   0.129
    1UNL    C25   39  -0.513  -0.001   0.153
    1UNL    C26   40  -0.631  -0.075   0.134
    1UNL    O15   41  -0.761  -0.038   0.147
    1UNL    C27   42  -0.614  -0.211   0.108
    1UNL    O16   43  -0.734  -0.285   0.115
    1UNL    C28   44  -0.488  -0.268   0.096
    1UNL    C29   45  -0.375  -0.187   0.105
    1UNL    C30   46  -0.237  -0.248   0.113
    1UNL    C31   47  -0.163  -0.196   0.230
    1UNL     N1   48  -0.156  -0.044   0.228
    1UNL    C32   49  -0.044   0.016   0.294
    1UNL    C33   50  -0.044   0.160   0.340
    1UNL    O17   51   0.053  -0.055   0.306
    1UNL     H1   52   0.089  -0.215  -0.034
    1UNL     H2   53   0.045  -0.159  -0.207
    1UNL     H3   54  -0.016  -0.026   0.056
    1UNL     H4   55   0.011   0.148  -0.132
    1UNL     H5   56  -0.128   0.104  -0.341
    1UNL     H6   57   0.027   0.154  -0.439
    1UNL     H7   58   0.369   0.173  -0.317
    1UNL     H8   59   0.413   0.166  -0.079
    1UNL     H9   60   0.259   0.244  -0.080
    1UNL    H10   61   0.243   0.063   0.186
    1UNL    H11   62   0.483   0.215   0.302
    1UNL    H12   63   0.650  -0.014   0.183
    1UNL    H13   64   0.689   0.144   0.136
    1UNL    H14   65   0.697   0.182   0.405
    1UNL    H15   66   0.515  -0.015   0.423
    1UNL    H16   67   0.238   0.025   0.382
    1UNL    H17   68   0.513  -0.193   0.268
    1UNL    H18   69   0.227  -0.164   0.338
    1UNL    H19   70   0.293  -0.184   0.103
    1UNL    H20   71   0.480  -0.117  -0.052
    1UNL    H21   72   0.246  -0.091  -0.231
    1UNL    H22   73   0.488  -0.137  -0.287
    1UNL    H23   74   0.408  -0.022  -0.486
    1UNL    H24   75   0.226  -0.216  -0.494
    1UNL    H25   76   0.249   0.118  -0.553
    1UNL    H26   77   0.040  -0.073  -0.555
    1UNL    H27   78  -0.391  -0.054  -0.284
    1UNL    H28   79  -0.676   0.253  -0.120
    1UNL    H29   80  -0.748   0.136  -0.236
    1UNL    H30   81  -0.728   0.105  -0.059
    1UNL    H31   82  -0.199   0.252  -0.106
    1UNL    H32   83  -0.138   0.203   0.132
    1UNL    H33   84  -0.303   0.244   0.093
    1UNL    H34   85  -0.296   0.093   0.273
    1UNL    H35   86  -0.520   0.103   0.179
    1UNL    H36   87  -0.767   0.049   0.188
    1UNL    H37   88  -0.801  -0.214   0.129
    1UNL    H38   89  -0.488  -0.372   0.094
    1UNL    H39   90  -0.245  -0.353   0.132
    1UNL    H40   91  -0.171  -0.238   0.024
    1UNL    H41   92  -0.060  -0.231   0.237
    1UNL    H42   93  -0.202  -0.230   0.330
    1UNL    H43   94   0.009   0.159   0.435
    1UNL    H44   95  -0.142   0.197   0.354
    1UNL    H45   96   0.024   0.215   0.276
   0.00000   0.00000   0.00000   0.00000   0.00000   0.00000   0.00000   0.00000   0.00000
Generated with MDTraj, t= 34.0
 96
    1UNL     C1    1  -0.006  -0.176  -0.071
    1UNL     C2    2  -0.012  -0.054  -0.028
    1UNL     C3    3  -0.057   0.060  -0.116
    1UNL     C4    4  -0.090   0.021  -0.269
    1UNL     O1    5   0.034  -0.012  -0.336
    1UNL     C5    6   0.101   0.102  -0.386
    1UNL     O2    7   0.176   0.181  -0.287
    1UNL     C6    8   0.303   0.116  -0.253
    1UNL     C7    9   0.342   0.131  -0.106
    1UNL     O3   10   0.267   0.041  -0.037
    1UNL     C8   11   0.307   0.042   0.103
    1UNL     O4   12   0.403   0.145   0.136
    1UNL     C9   13   0.473   0.129   0.264
    1UNL    C10   14   0.621   0.115   0.231
    1UNL     O5   15   0.701   0.109   0.345
    1UNL    C11   16   0.411   0.022   0.356
    1UNL     O6   17   0.297   0.075   0.419
    1UNL    C12   18   0.399  -0.115   0.285
    1UNL     O7   19   0.309  -0.203   0.348
    1UNL    C13   20   0.365  -0.099   0.137
    1UNL     O8   21   0.477  -0.131   0.054
    1UNL    C14   22   0.307  -0.036  -0.289
    1UNL     O9   23   0.426  -0.096  -0.234
    1UNL    C15   24   0.310  -0.041  -0.447
    1UNL    O10   25   0.316  -0.179  -0.486
    1UNL    C16   26   0.187   0.043  -0.502
    1UNL    O11   27   0.095  -0.029  -0.582
    1UNL    O12   28  -0.187  -0.083  -0.273
    1UNL    C17   29  -0.299  -0.035  -0.221
    1UNL    C18   30  -0.314   0.067  -0.133
    1UNL    C19   31  -0.439   0.142  -0.116
    1UNL    O13   32  -0.444   0.239  -0.048
    1UNL    O14   33  -0.552   0.086  -0.179
    1UNL    C20   34  -0.672   0.156  -0.139
    1UNL    C21   35  -0.194   0.137  -0.065
    1UNL    C22   36  -0.214   0.149   0.087
    1UNL    C23   37  -0.255   0.031   0.181
    1UNL    C24   38  -0.378  -0.049   0.142
    1UNL    C25   39  -0.512   0.003   0.161
    1UNL    C26   40  -0.627  -0.071   0.151
    1UNL    O15   41  -0.752  -0.017   0.145
    1UNL    C27   42  -0.611  -0.207   0.118
    1UNL    O16   43  -0.729  -0.274   0.108
    1UNL    C28   44  -0.490  -0.263   0.090
    1UNL    C29   45  -0.377  -0.187   0.110
    1UNL    C30   46  -0.248  -0.257   0.103
    1UNL    C31   47  -0.152  -0.202   0.213
    1UNL     N1   48  -0.136  -0.055   0.202
    1UNL    C32   49  -0.023   0.001   0.277
    1UNL    C33   50  -0.032   0.128   0.344
    1UNL    O17   51   0.082  -0.059   0.275
    1UNL     H1   52   0.033  -0.250   0.000
    1UNL     H2   53  -0.051  -0.209  -0.159
    1UNL     H3   54   0.040  -0.036   0.068
    1UNL     H4   55   0.021   0.137  -0.130
    1UNL     H5   56  -0.134   0.109  -0.321
    1UNL     H6   57   0.023   0.169  -0.434
    1UNL     H7   58   0.371   0.173  -0.318
    1UNL     H8   59   0.447   0.112  -0.089
    1UNL     H9   60   0.319   0.227  -0.066
    1UNL    H10   61   0.228   0.089   0.163
    1UNL    H11   62   0.451   0.229   0.315
    1UNL    H12   63   0.647   0.027   0.169
    1UNL    H13   64   0.666   0.195   0.160
    1UNL    H14   65   0.688   0.187   0.401
    1UNL    H15   66   0.479   0.008   0.440
    1UNL    H16   67   0.221   0.048   0.366
    1UNL    H17   68   0.504  -0.163   0.291
    1UNL    H18   69   0.220  -0.156   0.344
    1UNL    H19   70   0.280  -0.178   0.119
    1UNL    H20   71   0.455  -0.113  -0.044
    1UNL    H21   72   0.218  -0.087  -0.245
    1UNL    H22   73   0.455  -0.166  -0.308
    1UNL    H23   74   0.406   0.007  -0.472
    1UNL    H24   75   0.243  -0.200  -0.542
    1UNL    H25   76   0.222   0.129  -0.564
    1UNL    H26   77   0.032  -0.081  -0.526
    1UNL    H27   78  -0.387  -0.091  -0.256
    1UNL    H28   79  -0.726   0.205  -0.216
    1UNL    H29   80  -0.739   0.093  -0.080
    1UNL    H30   81  -0.639   0.243  -0.076
    1UNL    H31   82  -0.197   0.243  -0.109
    1UNL    H32   83  -0.131   0.206   0.130
    1UNL    H33   84  -0.297   0.230   0.086
    1UNL    H34   85  -0.273   0.071   0.279
    1UNL    H35   86  -0.522   0.111   0.173
    1UNL    H36   87  -0.764   0.066   0.196
    1UNL    H37   88  -0.799  -0.206   0.110
    1UNL    H38   89  -0.479  -0.370   0.055
    1UNL    H39   90  -0.263  -0.362   0.118
    1UNL    H40   91  -0.199  -0.234   0.001
    1UNL    H41   92  -0.055  -0.252   0.205
    1UNL    H42   93  -0.189  -0.231   0.313
    1UNL    H43   94   0.004   0.114   0.450
    1UNL    H44   95  -0.126   0.170   0.356
    1UNL    H45   96   0.038   0.192   0.308
   0.00000   0.00000   0.00000   0.00000   0.00000   0.00000   0.00000   0.00000   0.00000
Generated with MDTraj, t= 35.0
 96
    1UNL     C1    1   0.058  -0.169  -0.092
    1UNL     C2    2  -0.006  -0.074  -0.033
    1UNL     C3    3  -0.055   0.039  -0.110
    1UNL     C4    4  -0.097   0.010  -0.261
    1UNL     O1    5   0.022  -0.018  -0.341
    1UNL     C5    6   0.097   0.095  -0.388
    1UNL     O2    7   0.175   0.158  -0.280
    1UNL     C6    8   0.300   0.098  -0.249
    1UNL     C7    9   0.341   0.113  -0.103
    1UNL     O3   10   0.249   0.050  -0.023
    1UNL     C8   11   0.297   0.051   0.117
    1UNL     O4   12   0.375   0.161   0.152
    1UNL     C9   13   0.465   0.155   0.271
    1UNL    C10   14   0.611   0.120   0.237
    1UNL     O5   15   0.687   0.100   0.355
    1UNL    C11   16   0.408   0.042   0.365
    1UNL     O6   17   0.287   0.082   0.428
    1UNL    C12   18   0.405  -0.104   0.294
    1UNL     O7   19   0.323  -0.208   0.347
    1UNL    C13   20   0.372  -0.082   0.140
    1UNL     O8   21   0.482  -0.089   0.055
    1UNL    C14   22   0.308  -0.045  -0.303
    1UNL     O9   23   0.427  -0.116  -0.267
    1UNL    C15   24   0.301  -0.041  -0.459
    1UNL    O10   25   0.306  -0.175  -0.508
    1UNL    C16   26   0.183   0.054  -0.504
    1UNL    O11   27   0.097  -0.010  -0.597
    1UNL    O12   28  -0.191  -0.089  -0.273
    1UNL    C17   29  -0.305  -0.045  -0.215
    1UNL    C18   30  -0.321   0.055  -0.128
    1UNL    C19   31  -0.455   0.124  -0.109
    1UNL    O13   32  -0.461   0.223  -0.044
    1UNL    O14   33  -0.562   0.065  -0.168
    1UNL    C20   34  -0.671   0.146  -0.165
    1UNL    C21   35  -0.196   0.117  -0.066
    1UNL    C22   36  -0.201   0.137   0.094
    1UNL    C23   37  -0.242   0.019   0.197
    1UNL    C24   38  -0.368  -0.050   0.151
    1UNL    C25   39  -0.489   0.017   0.172
    1UNL    C26   40  -0.612  -0.041   0.146
    1UNL    O15   41  -0.735   0.024   0.172
    1UNL    C27   42  -0.617  -0.177   0.099
    1UNL    O16   43  -0.736  -0.240   0.062
    1UNL    C28   44  -0.496  -0.238   0.092
    1UNL    C29   45  -0.375  -0.182   0.110
    1UNL    C30   46  -0.249  -0.253   0.090
    1UNL    C31   47  -0.144  -0.208   0.203
    1UNL     N1   48  -0.127  -0.070   0.216
    1UNL    C32   49  -0.016  -0.021   0.288
    1UNL    C33   50  -0.014   0.118   0.340
    1UNL    O17   51   0.080  -0.093   0.302
    1UNL     H1   52   0.096  -0.256  -0.033
    1UNL     H2   53   0.066  -0.174  -0.196
    1UNL     H3   54  -0.018  -0.083   0.074
    1UNL     H4   55   0.022   0.117  -0.120
    1UNL     H5   56  -0.141   0.102  -0.308
    1UNL     H6   57   0.023   0.174  -0.427
    1UNL     H7   58   0.371   0.159  -0.312
    1UNL     H8   59   0.439   0.072  -0.089
    1UNL     H9   60   0.346   0.213  -0.068
    1UNL    H10   61   0.213   0.066   0.185
    1UNL    H11   62   0.450   0.261   0.312
    1UNL    H12   63   0.622   0.033   0.172
    1UNL    H13   64   0.655   0.203   0.171
    1UNL    H14   65   0.741   0.181   0.360
    1UNL    H15   66   0.474   0.040   0.450
    1UNL    H16   67   0.208   0.045   0.379
    1UNL    H17   68   0.513  -0.143   0.294
    1UNL    H18   69   0.229  -0.181   0.336
    1UNL    H19   70   0.296  -0.167   0.115
    1UNL    H20   71   0.445  -0.110  -0.031
    1UNL    H21   72   0.222  -0.105  -0.267
    1UNL    H22   73   0.435  -0.179  -0.344
    1UNL    H23   74   0.396   0.009  -0.492
    1UNL    H24   75   0.260  -0.164  -0.601
    1UNL    H25   76   0.217   0.144  -0.560
    1UNL    H26   77   0.023  -0.050  -0.547
    1UNL    H27   78  -0.395  -0.095  -0.261
    1UNL    H28   79  -0.761   0.087  -0.166
    1UNL    H29   80  -0.668   0.209  -0.074
    1UNL    H30   81  -0.670   0.208  -0.259
    1UNL    H31   82  -0.189   0.215  -0.120
    1UNL    H32   83  -0.118   0.202   0.119
    1UNL    H33   84  -0.296   0.201   0.119
    1UNL    H34   85  -0.263   0.060   0.297
    1UNL    H35   86  -0.485   0.116   0.207
    1UNL    H36   87  -0.723   0.113   0.215
    1UNL    H37   88  -0.818  -0.185   0.060
    1UNL    H38   89  -0.499  -0.340   0.080
    1UNL    H39   90  -0.276  -0.356   0.096
    1UNL    H40   91  -0.206  -0.221  -0.012
    1UNL    H41   92  -0.054  -0.270   0.182
    1UNL    H42   93  -0.177  -0.247   0.297
    1UNL    H43   94   0.042   0.117   0.435
    1UNL    H44   95  -0.111   0.155   0.365
    1UNL    H45   96   0.036   0.182   0.277
   0.00000   0.00000   0.00000   0.00000   0.00000   0.00000   0.00000   0.00000   0.00000
Generated with MDTraj, t= 36.0
 96
    1UNL     C1    1   0.035  -0.182  -0.104
    1UNL     C2    2  -0.014  -0.071  -0.052
    1UNL     C3    3  -0.065   0.049  -0.125
    1UNL     C4    4  -0.101  -0.000  -0.277
    1UNL     O1    5   0.030  -0.035  -0.346
    1UNL     C5    6   0.091   0.085  -0.391
    1UNL     O2    7   0.155   0.155  -0.277
    1UNL     C6    8   0.288   0.118  -0.248
    1UNL     C7    9   0.326   0.136  -0.100
    1UNL     O3   10   0.248   0.044  -0.027
    1UNL     C8   11   0.299   0.041   0.115
    1UNL     O4   12   0.368   0.159   0.152
    1UNL     C9   13   0.453   0.145   0.267
    1UNL    C10   14   0.598   0.153   0.222
    1UNL     O5   15   0.691   0.125   0.326
    1UNL    C11   16   0.420   0.022   0.358
    1UNL     O6   17   0.297   0.057   0.422
    1UNL    C12   18   0.430  -0.110   0.282
    1UNL     O7   19   0.361  -0.212   0.344
    1UNL    C13   20   0.385  -0.093   0.130
    1UNL     O8   21   0.501  -0.088   0.049
    1UNL    C14   22   0.314  -0.029  -0.293
    1UNL     O9   23   0.434  -0.087  -0.243
    1UNL    C15   24   0.301  -0.037  -0.447
    1UNL    O10   25   0.301  -0.178  -0.483
    1UNL    C16   26   0.189   0.057  -0.502
    1UNL    O11   27   0.125  -0.003  -0.612
    1UNL    O12   28  -0.192  -0.113  -0.265
    1UNL    C17   29  -0.305  -0.067  -0.204
    1UNL    C18   30  -0.316   0.043  -0.123
    1UNL    C19   31  -0.451   0.098  -0.098
    1UNL    O13   32  -0.459   0.193  -0.026
    1UNL    O14   33  -0.553   0.040  -0.178
    1UNL    C20   34  -0.673   0.109  -0.144
    1UNL    C21   35  -0.199   0.117  -0.074
    1UNL    C22   36  -0.194   0.135   0.084
    1UNL    C23   37  -0.240   0.034   0.195
    1UNL    C24   38  -0.373  -0.030   0.157
    1UNL    C25   39  -0.495   0.031   0.185
    1UNL    C26   40  -0.623  -0.023   0.143
    1UNL    O15   41  -0.735   0.051   0.175
    1UNL    C27   42  -0.619  -0.140   0.070
    1UNL    O16   43  -0.736  -0.204   0.035
    1UNL    C28   44  -0.499  -0.212   0.048
    1UNL    C29   45  -0.381  -0.154   0.097
    1UNL    C30   46  -0.256  -0.236   0.093
    1UNL    C31   47  -0.171  -0.210   0.221
    1UNL     N1   48  -0.137  -0.072   0.232
    1UNL    C32   49  -0.027  -0.040   0.311
    1UNL    C33   50   0.002   0.101   0.361
    1UNL    O17   51   0.063  -0.118   0.348
    1UNL     H1   52   0.080  -0.251  -0.041
    1UNL     H2   53   0.042  -0.194  -0.212
    1UNL     H3   54   0.000  -0.059   0.051
    1UNL     H4   55   0.011   0.130  -0.135
    1UNL     H5   56  -0.152   0.077  -0.342
    1UNL     H6   57   0.011   0.161  -0.422
    1UNL     H7   58   0.352   0.183  -0.316
    1UNL     H8   59   0.430   0.116  -0.075
    1UNL     H9   60   0.302   0.236  -0.067
    1UNL    H10   61   0.212   0.036   0.180
    1UNL    H11   62   0.448   0.240   0.328
    1UNL    H12   63   0.611   0.073   0.155
    1UNL    H13   64   0.638   0.243   0.165
    1UNL    H14   65   0.709   0.196   0.394
    1UNL    H15   66   0.492   0.017   0.440
    1UNL    H16   67   0.225   0.001   0.391
    1UNL    H17   68   0.534  -0.153   0.269
    1UNL    H18   69   0.271  -0.175   0.360
    1UNL    H19   70   0.317  -0.185   0.104
    1UNL    H20   71   0.461  -0.094  -0.040
    1UNL    H21   72   0.237  -0.098  -0.246
    1UNL    H22   73   0.459  -0.164  -0.289
    1UNL    H23   74   0.403  -0.007  -0.487
    1UNL    H24   75   0.231  -0.180  -0.548
    1UNL    H25   76   0.228   0.154  -0.538
    1UNL    H26   77   0.042  -0.047  -0.583
    1UNL    H27   78  -0.389  -0.110  -0.258
    1UNL    H28   79  -0.709   0.080  -0.046
    1UNL    H29   80  -0.634   0.212  -0.142
    1UNL    H30   81  -0.755   0.105  -0.221
    1UNL    H31   82  -0.198   0.215  -0.123
    1UNL    H32   83  -0.095   0.165   0.107
    1UNL    H33   84  -0.267   0.218   0.121
    1UNL    H34   85  -0.249   0.097   0.287
    1UNL    H35   86  -0.484   0.125   0.241
    1UNL    H36   87  -0.709   0.133   0.226
    1UNL    H37   88  -0.817  -0.161   0.072
    1UNL    H38   89  -0.504  -0.314   0.005
    1UNL    H39   90  -0.283  -0.339   0.079
    1UNL    H40   91  -0.203  -0.197   0.001
    1UNL    H41   92  -0.083  -0.281   0.218
    1UNL    H42   93  -0.221  -0.254   0.303
    1UNL    H43   94   0.021   0.089   0.460
    1UNL    H44   95  -0.085   0.163   0.344
    1UNL    H45   96   0.093   0.137   0.312
   0.00000   0.00000   0.00000   0.00000   0.00000   0.00000   0.00000   0.00000   0.00000
Generated with MDTraj, t= 37.0
 96
    1UNL     C1    1   0.030  -0.209  -0.087
    1UNL     C2    2  -0.008  -0.089  -0.041
    1UNL     C3    3  -0.055   0.026  -0.123
    1UNL     C4    4  -0.087  -0.010  -0.266
    1UNL     O1    5   0.035  -0.042  -0.333
    1UNL     C5    6   0.095   0.079  -0.382
    1UNL     O2    7   0.141   0.167  -0.283
    1UNL     C6    8   0.273   0.134  -0.235
    1UNL     C7    9   0.290   0.152  -0.087
    1UNL     O3   10   0.228   0.044  -0.023
    1UNL     C8   11   0.292   0.026   0.109
    1UNL     O4   12   0.353   0.142   0.156
    1UNL     C9   13   0.451   0.126   0.262
    1UNL    C10   14   0.594   0.136   0.207
    1UNL     O5   15   0.685   0.180   0.302
    1UNL    C11   16   0.428   0.003   0.352
    1UNL     O6   17   0.311   0.021   0.429
    1UNL    C12   18   0.424  -0.136   0.269
    1UNL     O7   19   0.327  -0.224   0.322
    1UNL    C13   20   0.392  -0.098   0.113
    1UNL     O8   21   0.511  -0.069   0.054
    1UNL    C14   22   0.323  -0.009  -0.276
    1UNL     O9   23   0.449  -0.042  -0.227
    1UNL    C15   24   0.315  -0.031  -0.431
    1UNL    O10   25   0.278  -0.171  -0.455
    1UNL    C16   26   0.201   0.051  -0.495
    1UNL    O11   27   0.139  -0.029  -0.598
    1UNL    O12   28  -0.185  -0.105  -0.276
    1UNL    C17   29  -0.298  -0.066  -0.220
    1UNL    C18   30  -0.313   0.036  -0.129
    1UNL    C19   31  -0.446   0.102  -0.105
    1UNL    O13   32  -0.453   0.210  -0.058
    1UNL    O14   33  -0.543   0.029  -0.156
    1UNL    C20   34  -0.662   0.097  -0.153
    1UNL    C21   35  -0.188   0.104  -0.074
    1UNL    C22   36  -0.206   0.135   0.086
    1UNL    C23   37  -0.235   0.029   0.198
    1UNL    C24   38  -0.372  -0.041   0.176
    1UNL    C25   39  -0.491   0.025   0.198
    1UNL    C26   40  -0.617  -0.010   0.162
    1UNL    O15   41  -0.732   0.070   0.180
    1UNL    C27   42  -0.626  -0.133   0.088
    1UNL    O16   43  -0.747  -0.172   0.030
    1UNL    C28   44  -0.509  -0.205   0.060
    1UNL    C29   45  -0.386  -0.168   0.115
    1UNL    C30   46  -0.263  -0.243   0.090
    1UNL    C31   47  -0.158  -0.209   0.197
    1UNL     N1   48  -0.132  -0.066   0.222
    1UNL    C32   49  -0.016  -0.025   0.296
    1UNL    C33   50  -0.016   0.099   0.373
    1UNL    O17   51   0.083  -0.098   0.283
    1UNL     H1   52   0.062  -0.276  -0.013
    1UNL     H2   53   0.041  -0.233  -0.196
    1UNL     H3   54   0.003  -0.062   0.063
    1UNL     H4   55   0.025   0.103  -0.137
    1UNL     H5   56  -0.126   0.082  -0.318
    1UNL     H6   57   0.011   0.143  -0.430
    1UNL     H7   58   0.329   0.210  -0.298
    1UNL     H8   59   0.398   0.161  -0.060
    1UNL     H9   60   0.235   0.238  -0.043
    1UNL    H10   61   0.212   0.003   0.180
    1UNL    H11   62   0.427   0.217   0.321
    1UNL    H12   63   0.626   0.043   0.169
    1UNL    H13   64   0.580   0.207   0.124
    1UNL    H14   65   0.660   0.266   0.347
    1UNL    H15   66   0.498  -0.008   0.439
    1UNL    H16   67   0.226   0.003   0.376
    1UNL    H17   68   0.515  -0.198   0.259
    1UNL    H18   69   0.238  -0.188   0.314
    1UNL    H19   70   0.338  -0.185   0.060
    1UNL    H20   71   0.496  -0.044  -0.043
    1UNL    H21   72   0.251  -0.085  -0.232
    1UNL    H22   73   0.478  -0.129  -0.249
    1UNL    H23   74   0.419  -0.031  -0.476
    1UNL    H24   75   0.258  -0.182  -0.549
    1UNL    H25   76   0.239   0.138  -0.550
    1UNL    H26   77   0.061  -0.077  -0.564
    1UNL    H27   78  -0.375  -0.114  -0.273
    1UNL    H28   79  -0.652   0.191  -0.099
    1UNL    H29   80  -0.677   0.107  -0.261
    1UNL    H30   81  -0.743   0.035  -0.112
    1UNL    H31   82  -0.179   0.203  -0.119
    1UNL    H32   83  -0.123   0.195   0.119
    1UNL    H33   84  -0.299   0.205   0.080
    1UNL    H34   85  -0.256   0.087   0.292
    1UNL    H35   86  -0.488   0.125   0.233
    1UNL    H36   87  -0.724   0.160   0.220
    1UNL    H37   88  -0.817  -0.108   0.053
    1UNL    H38   89  -0.515  -0.294  -0.004
    1UNL    H39   90  -0.290  -0.348   0.080
    1UNL    H40   91  -0.224  -0.213  -0.006
    1UNL    H41   92  -0.061  -0.254   0.166
    1UNL    H42   93  -0.175  -0.263   0.285
    1UNL    H43   94   0.057   0.112   0.443
    1UNL    H44   95  -0.103   0.105   0.434
    1UNL    H45   96  -0.010   0.190   0.308
   0.00000   0.00000   0.00000   0.00000   0.00000   0.00000   0.00000   0.00000   0.00000
Generated with MDTraj, t= 38.0
 96
    1UNL     C1    1   0.039  -0.203  -0.104
    1UNL     C2    2  -0.003  -0.092  -0.041
    1UNL     C3    3  -0.048   0.031  -0.115
    1UNL     C4    4  -0.086  -0.014  -0.267
    1UNL     O1    5   0.032  -0.044  -0.343
    1UNL     C5    6   0.102   0.078  -0.382
    1UNL     O2    7   0.151   0.167  -0.280
    1UNL     C6    8   0.291   0.144  -0.244
    1UNL     C7    9   0.305   0.165  -0.089
    1UNL     O3   10   0.232   0.063  -0.023
    1UNL     C8   11   0.286   0.024   0.109
    1UNL     O4   12   0.336   0.145   0.177
    1UNL     C9   13   0.444   0.127   0.276
    1UNL    C10   14   0.585   0.150   0.209
    1UNL     O5   15   0.674   0.189   0.305
    1UNL    C11   16   0.429  -0.014   0.352
    1UNL     O6   17   0.326  -0.021   0.440
    1UNL    C12   18   0.422  -0.130   0.254
    1UNL     O7   19   0.336  -0.229   0.300
    1UNL    C13   20   0.391  -0.092   0.106
    1UNL     O8   21   0.502  -0.064   0.030
    1UNL    C14   22   0.341   0.002  -0.277
    1UNL     O9   23   0.472  -0.024  -0.242
    1UNL    C15   24   0.324  -0.030  -0.430
    1UNL    O10   25   0.308  -0.167  -0.456
    1UNL    C16   26   0.205   0.040  -0.494
    1UNL    O11   27   0.151  -0.054  -0.583
    1UNL    O12   28  -0.191  -0.119  -0.257
    1UNL    C17   29  -0.299  -0.083  -0.192
    1UNL    C18   30  -0.310   0.029  -0.119
    1UNL    C19   31  -0.441   0.106  -0.115
    1UNL    O13   32  -0.459   0.213  -0.061
    1UNL    O14   33  -0.547   0.036  -0.176
    1UNL    C20   34  -0.668   0.117  -0.158
    1UNL    C21   35  -0.189   0.100  -0.072
    1UNL    C22   36  -0.195   0.135   0.078
    1UNL    C23   37  -0.246   0.032   0.182
    1UNL    C24   38  -0.382  -0.026   0.144
    1UNL    C25   39  -0.495   0.052   0.164
    1UNL    C26   40  -0.623  -0.003   0.153
    1UNL    O15   41  -0.737   0.064   0.181
    1UNL    C27   42  -0.634  -0.139   0.104
    1UNL    O16   43  -0.765  -0.186   0.103
    1UNL    C28   44  -0.520  -0.214   0.085
    1UNL    C29   45  -0.393  -0.156   0.103
    1UNL    C30   46  -0.269  -0.233   0.093
    1UNL    C31   47  -0.175  -0.211   0.205
    1UNL     N1   48  -0.140  -0.069   0.205
    1UNL    C32   49  -0.028  -0.035   0.286
    1UNL    C33   50  -0.010   0.091   0.359
    1UNL    O17   51   0.065  -0.115   0.296
    1UNL     H1   52   0.065  -0.294  -0.049
    1UNL     H2   53   0.036  -0.199  -0.208
    1UNL     H3   54  -0.005  -0.081   0.070
    1UNL     H4   55   0.025   0.116  -0.116
    1UNL     H5   56  -0.145   0.062  -0.322
    1UNL     H6   57   0.028   0.152  -0.430
    1UNL     H7   58   0.337   0.232  -0.295
    1UNL     H8   59   0.411   0.157  -0.054
    1UNL     H9   60   0.265   0.263  -0.048
    1UNL    H10   61   0.199  -0.004   0.173
    1UNL    H11   62   0.437   0.207   0.348
    1UNL    H12   63   0.609   0.053   0.176
    1UNL    H13   64   0.581   0.220   0.127
    1UNL    H14   65   0.631   0.245   0.372
    1UNL    H15   66   0.520  -0.009   0.420
    1UNL    H16   67   0.243  -0.044   0.388
    1UNL    H17   68   0.522  -0.166   0.245
    1UNL    H18   69   0.243  -0.200   0.289
    1UNL    H19   70   0.341  -0.180   0.055
    1UNL    H20   71   0.494  -0.058  -0.068
    1UNL    H21   72   0.275  -0.063  -0.214
    1UNL    H22   73   0.494  -0.124  -0.254
    1UNL    H23   74   0.422  -0.004  -0.476
    1UNL    H24   75   0.281  -0.176  -0.555
    1UNL    H25   76   0.229   0.132  -0.549
    1UNL    H26   77   0.074  -0.093  -0.533
    1UNL    H27   78  -0.372  -0.164  -0.192
    1UNL    H28   79  -0.634   0.217  -0.181
    1UNL    H29   80  -0.747   0.082  -0.224
    1UNL    H30   81  -0.705   0.120  -0.057
    1UNL    H31   82  -0.187   0.196  -0.125
    1UNL    H32   83  -0.098   0.171   0.111
    1UNL    H33   84  -0.263   0.227   0.059
    1UNL    H34   85  -0.267   0.091   0.277
    1UNL    H35   86  -0.482   0.145   0.218
    1UNL    H36   87  -0.704   0.153   0.197
    1UNL    H37   88  -0.820  -0.112   0.136
    1UNL    H38   89  -0.536  -0.314   0.065
    1UNL    H39   90  -0.286  -0.341   0.081
    1UNL    H40   91  -0.225  -0.209  -0.000
    1UNL    H41   92  -0.080  -0.271   0.199
    1UNL    H42   93  -0.205  -0.229   0.303
    1UNL    H43   94   0.097   0.132   0.346
    1UNL    H44   95  -0.020   0.068   0.461
    1UNL    H45   96  -0.077   0.167   0.321
   0.00000   0.00000   0.00000   0.00000   0.00000   0.00000   0.00000   0.00000   0.00000
Generated with MDTraj, t= 39.0
 96
    1UNL     C1    1   0.071  -0.176  -0.072
    1UNL     C2    2  -0.013  -0.078  -0.036
    1UNL     C3    3  -0.062   0.022  -0.127
    1UNL     C4    4  -0.076  -0.023  -0.270
    1UNL     O1    5   0.049  -0.055  -0.333
    1UNL     C5    6   0.108   0.067  -0.385
    1UNL     O2    7   0.157   0.147  -0.280
    1UNL     C6    8   0.293   0.131  -0.244
    1UNL     C7    9   0.299   0.149  -0.092
    1UNL     O3   10   0.240   0.045  -0.028
    1UNL     C8   11   0.281   0.022   0.107
    1UNL     O4   12   0.322   0.142   0.169
    1UNL     C9   13   0.416   0.127   0.277
    1UNL    C10   14   0.559   0.157   0.241
    1UNL     O5   15   0.663   0.148   0.337
    1UNL    C11   16   0.409  -0.009   0.345
    1UNL     O6   17   0.293  -0.029   0.431
    1UNL    C12   18   0.428  -0.121   0.240
    1UNL     O7   19   0.332  -0.226   0.275
    1UNL    C13   20   0.397  -0.074   0.096
    1UNL     O8   21   0.513  -0.032   0.030
    1UNL    C14   22   0.345  -0.007  -0.290
    1UNL     O9   23   0.479  -0.023  -0.252
    1UNL    C15   24   0.336  -0.023  -0.449
    1UNL    O10   25   0.359  -0.155  -0.493
    1UNL    C16   26   0.203   0.039  -0.503
    1UNL    O11   27   0.143  -0.055  -0.590
    1UNL    O12   28  -0.187  -0.111  -0.292
    1UNL    C17   29  -0.295  -0.058  -0.234
    1UNL    C18   30  -0.307   0.049  -0.149
    1UNL    C19   31  -0.437   0.109  -0.122
    1UNL    O13   32  -0.447   0.207  -0.058
    1UNL    O14   33  -0.548   0.053  -0.186
    1UNL    C20   34  -0.665   0.125  -0.158
    1UNL    C21   35  -0.190   0.110  -0.081
    1UNL    C22   36  -0.201   0.140   0.073
    1UNL    C23   37  -0.242   0.034   0.191
    1UNL    C24   38  -0.382  -0.034   0.167
    1UNL    C25   39  -0.496   0.045   0.187
    1UNL    C26   40  -0.622  -0.007   0.166
    1UNL    O15   41  -0.746   0.062   0.178
    1UNL    C27   42  -0.634  -0.140   0.146
    1UNL    O16   43  -0.764  -0.190   0.140
    1UNL    C28   44  -0.523  -0.215   0.118
    1UNL    C29   45  -0.394  -0.165   0.131
    1UNL    C30   46  -0.270  -0.246   0.104
    1UNL    C31   47  -0.181  -0.214   0.223
    1UNL     N1   48  -0.144  -0.069   0.231
    1UNL    C32   49  -0.028  -0.036   0.293
    1UNL    C33   50   0.000   0.109   0.318
    1UNL    O17   51   0.055  -0.125   0.312
    1UNL     H1   52   0.128  -0.228   0.011
    1UNL     H2   53   0.080  -0.203  -0.174
    1UNL     H3   54  -0.038  -0.071   0.068
    1UNL     H4   55   0.019   0.100  -0.140
    1UNL     H5   56  -0.127   0.060  -0.322
    1UNL     H6   57   0.030   0.135  -0.433
    1UNL     H7   58   0.355   0.210  -0.286
    1UNL     H8   59   0.402   0.157  -0.046
    1UNL     H9   60   0.237   0.239  -0.057
    1UNL    H10   61   0.194  -0.014   0.166
    1UNL    H11   62   0.375   0.198   0.346
    1UNL    H12   63   0.595   0.090   0.164
    1UNL    H13   64   0.554   0.261   0.211
    1UNL    H14   65   0.631   0.178   0.423
    1UNL    H15   66   0.492  -0.009   0.424
    1UNL    H16   67   0.213  -0.065   0.391
    1UNL    H17   68   0.523  -0.168   0.250
    1UNL    H18   69   0.239  -0.198   0.276
    1UNL    H19   70   0.351  -0.157   0.039
    1UNL    H20   71   0.491  -0.013  -0.066
    1UNL    H21   72   0.291  -0.092  -0.246
    1UNL    H22   73   0.503  -0.119  -0.286
    1UNL    H23   74   0.418   0.032  -0.494
    1UNL    H24   75   0.278  -0.187  -0.539
    1UNL    H25   76   0.215   0.126  -0.571
    1UNL    H26   77   0.078  -0.110  -0.541
    1UNL    H27   78  -0.387  -0.104  -0.280
    1UNL    H28   79  -0.674   0.176  -0.253
    1UNL    H29   80  -0.744   0.050  -0.141
    1UNL    H30   81  -0.659   0.201  -0.081
    1UNL    H31   82  -0.163   0.207  -0.127
    1UNL    H32   83  -0.100   0.171   0.108
    1UNL    H33   84  -0.269   0.232   0.081
    1UNL    H34   85  -0.261   0.102   0.280
    1UNL    H35   86  -0.488   0.148   0.214
    1UNL    H36   87  -0.735   0.157   0.173
    1UNL    H37   88  -0.817  -0.113   0.173
    1UNL    H38   89  -0.537  -0.328   0.111
    1UNL    H39   90  -0.277  -0.356   0.086
    1UNL    H40   91  -0.231  -0.220   0.011
    1UNL    H41   92  -0.081  -0.263   0.229
    1UNL    H42   93  -0.218  -0.233   0.317
    1UNL    H43   94   0.034   0.164   0.222
    1UNL    H44   95   0.088   0.106   0.385
    1UNL    H45   96  -0.090   0.151   0.352
   0.00000   0.00000   0.00000   0.00000   0.00000   0.00000   0.00000   0.00000   0.00000
Generated with MDTraj, t= 40.0
 96
    1UNL     C1    1   0.061  -0.192  -0.078
    1UNL     C2    2  -0.045  -0.111  -0.057
    1UNL     C3    3  -0.057   0.021  -0.121
    1UNL     C4    4  -0.075  -0.004  -0.274
    1UNL     O1    5   0.056  -0.034  -0.336
    1UNL     C5    6   0.112   0.082  -0.403
    1UNL     O2    7   0.169   0.182  -0.311
    1UNL     C6    8   0.304   0.147  -0.267
    1UNL     C7    9   0.308   0.151  -0.114
    1UNL     O3   10   0.246   0.045  -0.052
    1UNL     C8   11   0.279   0.021   0.089
    1UNL     O4   12   0.328   0.141   0.163
    1UNL     C9   13   0.404   0.123   0.287
    1UNL    C10   14   0.549   0.162   0.270
    1UNL     O5   15   0.628   0.158   0.389
    1UNL    C11   16   0.399  -0.023   0.349
    1UNL     O6   17   0.291  -0.041   0.437
    1UNL    C12   18   0.399  -0.131   0.245
    1UNL     O7   19   0.312  -0.238   0.279
    1UNL    C13   20   0.384  -0.087   0.099
    1UNL     O8   21   0.507  -0.045   0.032
    1UNL    C14   22   0.338  -0.002  -0.305
    1UNL     O9   23   0.458  -0.042  -0.245
    1UNL    C15   24   0.350  -0.008  -0.462
    1UNL    O10   25   0.401  -0.131  -0.497
    1UNL    C16   26   0.207   0.028  -0.521
    1UNL    O11   27   0.150  -0.081  -0.594
    1UNL    O12   28  -0.181  -0.106  -0.289
    1UNL    C17   29  -0.292  -0.068  -0.219
    1UNL    C18   30  -0.303   0.043  -0.138
    1UNL    C19   31  -0.438   0.105  -0.113
    1UNL    O13   32  -0.450   0.209  -0.059
    1UNL    O14   33  -0.547   0.043  -0.168
    1UNL    C20   34  -0.664   0.117  -0.153
    1UNL    C21   35  -0.184   0.103  -0.069
    1UNL    C22   36  -0.204   0.136   0.073
    1UNL    C23   37  -0.245   0.031   0.186
    1UNL    C24   38  -0.383  -0.024   0.170
    1UNL    C25   39  -0.498   0.049   0.181
    1UNL    C26   40  -0.622  -0.006   0.184
    1UNL    O15   41  -0.738   0.062   0.202
    1UNL    C27   42  -0.639  -0.147   0.150
    1UNL    O16   43  -0.767  -0.187   0.146
    1UNL    C28   44  -0.522  -0.222   0.129
    1UNL    C29   45  -0.395  -0.161   0.147
    1UNL    C30   46  -0.283  -0.257   0.160
    1UNL    C31   47  -0.168  -0.208   0.248
    1UNL     N1   48  -0.137  -0.068   0.209
    1UNL    C32   49  -0.012  -0.019   0.256
    1UNL    C33   50   0.014   0.125   0.292
    1UNL    O17   51   0.076  -0.101   0.269
    1UNL     H1   52   0.066  -0.289  -0.040
    1UNL     H2   53   0.126  -0.165  -0.159
    1UNL     H3   54  -0.112  -0.146   0.017
    1UNL     H4   55   0.030   0.092  -0.117
    1UNL     H5   56  -0.120   0.090  -0.319
    1UNL     H6   57   0.031   0.135  -0.461
    1UNL     H7   58   0.381   0.211  -0.308
    1UNL     H8   59   0.411   0.144  -0.071
    1UNL     H9   60   0.245   0.237  -0.074
    1UNL    H10   61   0.186  -0.011   0.140
    1UNL    H11   62   0.357   0.193   0.354
    1UNL    H12   63   0.596   0.087   0.205
    1UNL    H13   64   0.574   0.259   0.232
    1UNL    H14   65   0.608   0.237   0.446
    1UNL    H15   66   0.489  -0.040   0.409
    1UNL    H16   67   0.209  -0.063   0.379
    1UNL    H17   68   0.495  -0.181   0.239
    1UNL    H18   69   0.217  -0.205   0.277
    1UNL    H19   70   0.350  -0.173   0.042
    1UNL    H20   71   0.488  -0.049  -0.062
    1UNL    H21   72   0.265  -0.074  -0.263
    1UNL    H22   73   0.495  -0.108  -0.303
    1UNL    H23   74   0.424   0.067  -0.482
    1UNL    H24   75   0.407  -0.141  -0.590
    1UNL    H25   76   0.212   0.106  -0.599
    1UNL    H26   77   0.148  -0.159  -0.532
    1UNL    H27   78  -0.383  -0.122  -0.246
    1UNL    H28   79  -0.652   0.196  -0.229
    1UNL    H29   80  -0.751   0.050  -0.167
    1UNL    H30   81  -0.672   0.170  -0.056
    1UNL    H31   82  -0.156   0.202  -0.116
    1UNL    H32   83  -0.108   0.179   0.113
    1UNL    H33   84  -0.281   0.219   0.079
    1UNL    H34   85  -0.264   0.083   0.283
    1UNL    H35   86  -0.489   0.154   0.197
    1UNL    H36   87  -0.712   0.155   0.217
    1UNL    H37   88  -0.831  -0.114   0.154
    1UNL    H38   89  -0.528  -0.317   0.088
    1UNL    H39   90  -0.330  -0.348   0.205
    1UNL    H40   91  -0.245  -0.295   0.071
    1UNL    H41   92  -0.073  -0.265   0.231
    1UNL    H42   93  -0.187  -0.216   0.348
    1UNL    H43   94   0.086   0.187   0.236
    1UNL    H44   95   0.055   0.134   0.400
    1UNL    H45   96  -0.076   0.188   0.283
   0.00000   0.00000   0.00000   0.00000   0.00000   0.00000   0.00000   0.00000   0.00000
Generated with MDTraj, t= 41.0
 96
    1UNL     C1    1   0.018  -0.221  -0.099
    1UNL     C2    2  -0.015  -0.100  -0.045
    1UNL     C3    3  -0.054   0.028  -0.119
    1UNL     C4    4  -0.068   0.004  -0.267
    1UNL     O1    5   0.063  -0.027  -0.326
    1UNL     C5    6   0.118   0.085  -0.395
    1UNL     O2    7   0.182   0.184  -0.316
    1UNL     C6    8   0.303   0.137  -0.250
    1UNL     C7    9   0.306   0.132  -0.099
    1UNL     O3   10   0.233   0.038  -0.039
    1UNL     C8   11   0.284   0.010   0.090
    1UNL     O4   12   0.338   0.129   0.143
    1UNL     C9   13   0.407   0.116   0.269
    1UNL    C10   14   0.550   0.167   0.265
    1UNL     O5   15   0.604   0.193   0.398
    1UNL    C11   16   0.398  -0.029   0.335
    1UNL     O6   17   0.288  -0.043   0.420
    1UNL    C12   18   0.412  -0.152   0.233
    1UNL     O7   19   0.326  -0.258   0.270
    1UNL    C13   20   0.387  -0.106   0.086
    1UNL     O8   21   0.513  -0.061   0.030
    1UNL    C14   22   0.356   0.001  -0.301
    1UNL     O9   23   0.482  -0.029  -0.251
    1UNL    C15   24   0.351   0.003  -0.458
    1UNL    O10   25   0.420  -0.106  -0.508
    1UNL    C16   26   0.202   0.029  -0.512
    1UNL    O11   27   0.137  -0.091  -0.555
    1UNL    O12   28  -0.165  -0.089  -0.298
    1UNL    C17   29  -0.292  -0.055  -0.254
    1UNL    C18   30  -0.309   0.038  -0.155
    1UNL    C19   31  -0.445   0.095  -0.122
    1UNL    O13   32  -0.461   0.188  -0.052
    1UNL    O14   33  -0.548   0.022  -0.168
    1UNL    C20   34  -0.674   0.076  -0.135
    1UNL    C21   35  -0.193   0.096  -0.074
    1UNL    C22   36  -0.214   0.139   0.074
    1UNL    C23   37  -0.250   0.046   0.192
    1UNL    C24   38  -0.386  -0.021   0.171
    1UNL    C25   39  -0.498   0.060   0.184
    1UNL    C26   40  -0.626   0.003   0.170
    1UNL    O15   41  -0.743   0.080   0.191
    1UNL    C27   42  -0.643  -0.134   0.160
    1UNL    O16   43  -0.770  -0.188   0.143
    1UNL    C28   44  -0.529  -0.210   0.156
    1UNL    C29   45  -0.401  -0.158   0.156
    1UNL    C30   46  -0.277  -0.238   0.146
    1UNL    C31   47  -0.187  -0.188   0.262
    1UNL     N1   48  -0.143  -0.052   0.242
    1UNL    C32   49  -0.008  -0.022   0.263
    1UNL    C33   50   0.031   0.118   0.281
    1UNL    O17   51   0.074  -0.108   0.268
    1UNL     H1   52   0.019  -0.314  -0.046
    1UNL     H2   53   0.035  -0.221  -0.213
    1UNL     H3   54  -0.034  -0.099   0.059
    1UNL     H4   55   0.029   0.106  -0.115
    1UNL     H5   56  -0.101   0.103  -0.310
    1UNL     H6   57   0.033   0.138  -0.447
    1UNL     H7   58   0.368   0.215  -0.290
    1UNL     H8   59   0.408   0.104  -0.071
    1UNL     H9   60   0.268   0.225  -0.051
    1UNL    H10   61   0.199  -0.027   0.152
    1UNL    H11   62   0.347   0.188   0.325
    1UNL    H12   63   0.621   0.106   0.210
    1UNL    H13   64   0.555   0.263   0.216
    1UNL    H14   65   0.568   0.280   0.435
    1UNL    H15   66   0.480  -0.038   0.402
    1UNL    H16   67   0.205  -0.069   0.371
    1UNL    H17   68   0.515  -0.193   0.234
    1UNL    H18   69   0.233  -0.227   0.276
    1UNL    H19   70   0.349  -0.183   0.024
    1UNL    H20   71   0.510  -0.037  -0.069
    1UNL    H21   72   0.289  -0.079  -0.267
    1UNL    H22   73   0.545  -0.035  -0.330
    1UNL    H23   74   0.406   0.088  -0.492
    1UNL    H24   75   0.357  -0.183  -0.519
    1UNL    H25   76   0.201   0.100  -0.597
    1UNL    H26   77   0.059  -0.100  -0.499
    1UNL    H27   78  -0.369  -0.120  -0.278
    1UNL    H28   79  -0.658   0.183  -0.112
    1UNL    H29   80  -0.754   0.061  -0.211
    1UNL    H30   81  -0.705   0.030  -0.039
    1UNL    H31   82  -0.175   0.196  -0.128
    1UNL    H32   83  -0.115   0.191   0.093
    1UNL    H33   84  -0.282   0.227   0.064
    1UNL    H34   85  -0.268   0.103   0.286
    1UNL    H35   86  -0.477   0.167   0.176
    1UNL    H36   87  -0.731   0.179   0.192
    1UNL    H37   88  -0.836  -0.116   0.156
    1UNL    H38   89  -0.544  -0.315   0.129
    1UNL    H39   90  -0.283  -0.347   0.153
    1UNL    H40   91  -0.236  -0.215   0.051
    1UNL    H41   92  -0.099  -0.255   0.270
    1UNL    H42   93  -0.245  -0.192   0.347
    1UNL    H43   94   0.062   0.181   0.201
    1UNL    H44   95   0.111   0.140   0.362
    1UNL    H45   96  -0.067   0.174   0.311
   0.00000   0.00000   0.00000   0.00000   0.00000   0.00000   0.00000   0.00000   0.00000
Generated with MDTraj, t= 42.0
 96
    1UNL     C1    1  -0.008  -0.220  -0.107
    1UNL     C2    2  -0.065  -0.113  -0.047
    1UNL     C3    3  -0.065   0.026  -0.103
    1UNL     C4    4  -0.065   0.015  -0.258
    1UNL     O1    5   0.066  -0.021  -0.314
    1UNL     C5    6   0.119   0.080  -0.397
    1UNL     O2    7   0.181   0.185  -0.319
    1UNL     C6    8   0.311   0.147  -0.263
    1UNL     C7    9   0.322   0.143  -0.105
    1UNL     O3   10   0.261   0.024  -0.057
    1UNL     C8   11   0.300   0.002   0.080
    1UNL     O4   12   0.314   0.119   0.163
    1UNL     C9   13   0.403   0.105   0.275
    1UNL    C10   14   0.537   0.173   0.249
    1UNL     O5   15   0.619   0.189   0.362
    1UNL    C11   16   0.424  -0.037   0.342
    1UNL     O6   17   0.328  -0.048   0.439
    1UNL    C12   18   0.425  -0.161   0.235
    1UNL     O7   19   0.324  -0.255   0.266
    1UNL    C13   20   0.411  -0.107   0.092
    1UNL     O8   21   0.535  -0.060   0.042
    1UNL    C14   22   0.371   0.008  -0.312
    1UNL     O9   23   0.505  -0.006  -0.265
    1UNL    C15   24   0.355   0.014  -0.468
    1UNL    O10   25   0.428  -0.100  -0.511
    1UNL    C16   26   0.203   0.023  -0.512
    1UNL    O11   27   0.149  -0.103  -0.545
    1UNL    O12   28  -0.165  -0.080  -0.291
    1UNL    C17   29  -0.287  -0.047  -0.228
    1UNL    C18   30  -0.308   0.042  -0.126
    1UNL    C19   31  -0.452   0.071  -0.110
    1UNL    O13   32  -0.490   0.166  -0.052
    1UNL    O14   33  -0.546  -0.006  -0.178
    1UNL    C20   34  -0.676   0.036  -0.161
    1UNL    C21   35  -0.195   0.111  -0.062
    1UNL    C22   36  -0.226   0.148   0.078
    1UNL    C23   37  -0.257   0.042   0.189
    1UNL    C24   38  -0.397  -0.015   0.183
    1UNL    C25   39  -0.512   0.071   0.194
    1UNL    C26   40  -0.642   0.017   0.174
    1UNL    O15   41  -0.747   0.104   0.187
    1UNL    C27   42  -0.655  -0.118   0.146
    1UNL    O16   43  -0.779  -0.182   0.152
    1UNL    C28   44  -0.541  -0.194   0.137
    1UNL    C29   45  -0.415  -0.146   0.147
    1UNL    C30   46  -0.291  -0.232   0.129
    1UNL    C31   47  -0.188  -0.194   0.236
    1UNL     N1   48  -0.141  -0.058   0.225
    1UNL    C32   49  -0.015  -0.022   0.270
    1UNL    C33   50   0.027   0.124   0.302
    1UNL    O17   51   0.071  -0.101   0.298
    1UNL     H1   52   0.024  -0.304  -0.051
    1UNL     H2   53   0.035  -0.200  -0.200
    1UNL     H3   54  -0.086  -0.118   0.058
    1UNL     H4   55   0.030   0.083  -0.076
    1UNL     H5   56  -0.101   0.107  -0.312
    1UNL     H6   57   0.034   0.131  -0.448
    1UNL     H7   58   0.374   0.224  -0.308
    1UNL     H8   59   0.425   0.129  -0.076
    1UNL     H9   60   0.268   0.223  -0.053
    1UNL    H10   61   0.216  -0.060   0.121
    1UNL    H11   62   0.344   0.167   0.344
    1UNL    H12   63   0.596   0.108   0.183
    1UNL    H13   64   0.532   0.263   0.189
    1UNL    H14   65   0.564   0.190   0.444
    1UNL    H15   66   0.509  -0.036   0.406
    1UNL    H16   67   0.242  -0.071   0.394
    1UNL    H17   68   0.521  -0.220   0.247
    1UNL    H18   69   0.237  -0.207   0.277
    1UNL    H19   70   0.384  -0.188   0.032
    1UNL    H20   71   0.530  -0.054  -0.052
    1UNL    H21   72   0.311  -0.067  -0.264
    1UNL    H22   73   0.555  -0.065  -0.338
    1UNL    H23   74   0.407   0.099  -0.509
    1UNL    H24   75   0.359  -0.168  -0.540
    1UNL    H25   76   0.198   0.085  -0.602
    1UNL    H26   77   0.072  -0.126  -0.484
    1UNL    H27   78  -0.373  -0.097  -0.274
    1UNL    H28   79  -0.683   0.143  -0.139
    1UNL    H29   80  -0.746   0.012  -0.242
    1UNL    H30   81  -0.701  -0.024  -0.074
    1UNL    H31   82  -0.183   0.205  -0.125
    1UNL    H32   83  -0.150   0.219   0.115
    1UNL    H33   84  -0.322   0.207   0.071
    1UNL    H34   85  -0.257   0.092   0.285
    1UNL    H35   86  -0.495   0.170   0.226
    1UNL    H36   87  -0.724   0.200   0.164
    1UNL    H37   88  -0.850  -0.128   0.193
    1UNL    H38   89  -0.559  -0.297   0.102
    1UNL    H39   90  -0.319  -0.335   0.145
    1UNL    H40   91  -0.248  -0.222   0.028
    1UNL    H41   92  -0.098  -0.256   0.224
    1UNL    H42   93  -0.228  -0.195   0.334
    1UNL    H43   94   0.055   0.184   0.216
    1UNL    H44   95   0.117   0.116   0.371
    1UNL    H45   96  -0.068   0.175   0.349
   0.00000   0.00000   0.00000   0.00000   0.00000   0.00000   0.00000   0.00000   0.00000
Generated with MDTraj, t= 43.0
 96
    1UNL     C1    1  -0.014  -0.194  -0.084
    1UNL     C2    2  -0.008  -0.070  -0.036
    1UNL     C3    3  -0.064   0.045  -0.111
    1UNL     C4    4  -0.059   0.021  -0.267
    1UNL     O1    5   0.073  -0.013  -0.306
    1UNL     C5    6   0.132   0.093  -0.389
    1UNL     O2    7   0.208   0.197  -0.313
    1UNL     C6    8   0.316   0.146  -0.243
    1UNL     C7    9   0.302   0.145  -0.096
    1UNL     O3   10   0.243   0.019  -0.060
    1UNL     C8   11   0.281  -0.006   0.079
    1UNL     O4   12   0.298   0.114   0.169
    1UNL     C9   13   0.401   0.103   0.266
    1UNL    C10   14   0.540   0.148   0.214
    1UNL     O5   15   0.626   0.171   0.314
    1UNL    C11   16   0.410  -0.034   0.337
    1UNL     O6   17   0.308  -0.043   0.425
    1UNL    C12   18   0.419  -0.153   0.222
    1UNL     O7   19   0.328  -0.253   0.246
    1UNL    C13   20   0.399  -0.103   0.079
    1UNL     O8   21   0.511  -0.040   0.022
    1UNL    C14   22   0.377   0.010  -0.299
    1UNL     O9   23   0.511  -0.023  -0.263
    1UNL    C15   24   0.366   0.021  -0.453
    1UNL    O10   25   0.430  -0.093  -0.516
    1UNL    C16   26   0.220   0.024  -0.501
    1UNL    O11   27   0.167  -0.109  -0.504
    1UNL    O12   28  -0.150  -0.081  -0.309
    1UNL    C17   29  -0.278  -0.074  -0.246
    1UNL    C18   30  -0.308   0.016  -0.144
    1UNL    C19   31  -0.452   0.053  -0.125
    1UNL    O13   32  -0.481   0.157  -0.073
    1UNL    O14   33  -0.548  -0.030  -0.178
    1UNL    C20   34  -0.670   0.029  -0.153
    1UNL    C21   35  -0.208   0.098  -0.066
    1UNL    C22   36  -0.234   0.140   0.077
    1UNL    C23   37  -0.255   0.034   0.190
    1UNL    C24   38  -0.393  -0.022   0.196
    1UNL    C25   39  -0.506   0.064   0.213
    1UNL    C26   40  -0.639   0.032   0.200
    1UNL    O15   41  -0.743   0.113   0.229
    1UNL    C27   42  -0.658  -0.108   0.159
    1UNL    O16   43  -0.785  -0.150   0.119
    1UNL    C28   44  -0.546  -0.188   0.129
    1UNL    C29   45  -0.419  -0.157   0.158
    1UNL    C30   46  -0.302  -0.248   0.144
    1UNL    C31   47  -0.187  -0.205   0.242
    1UNL     N1   48  -0.143  -0.062   0.220
    1UNL    C32   49  -0.019  -0.020   0.279
    1UNL    C33   50  -0.005   0.122   0.325
    1UNL    O17   51   0.069  -0.101   0.298
    1UNL     H1   52   0.018  -0.277  -0.010
    1UNL     H2   53  -0.033  -0.209  -0.188
    1UNL     H3   54   0.023  -0.053   0.067
    1UNL     H4   55   0.008   0.131  -0.087
    1UNL     H5   56  -0.083   0.112  -0.326
    1UNL     H6   57   0.055   0.160  -0.429
    1UNL     H7   58   0.398   0.218  -0.269
    1UNL     H8   59   0.392   0.158  -0.041
    1UNL     H9   60   0.225   0.216  -0.071
    1UNL    H10   61   0.195  -0.061   0.124
    1UNL    H11   62   0.384   0.184   0.342
    1UNL    H12   63   0.580   0.073   0.144
    1UNL    H13   64   0.532   0.234   0.147
    1UNL    H14   65   0.590   0.229   0.383
    1UNL    H15   66   0.498  -0.034   0.401
    1UNL    H16   67   0.223  -0.066   0.386
    1UNL    H17   68   0.524  -0.193   0.227
    1UNL    H18   69   0.243  -0.212   0.267
    1UNL    H19   70   0.387  -0.183   0.013
    1UNL    H20   71   0.498  -0.032  -0.078
    1UNL    H21   72   0.315  -0.063  -0.253
    1UNL    H22   73   0.575   0.012  -0.332
    1UNL    H23   74   0.424   0.105  -0.493
    1UNL    H24   75   0.373  -0.166  -0.500
    1UNL    H25   76   0.209   0.070  -0.600
    1UNL    H26   77   0.087  -0.124  -0.451
    1UNL    H27   78  -0.365  -0.124  -0.299
    1UNL    H28   79  -0.687   0.119  -0.213
    1UNL    H29   80  -0.755  -0.035  -0.167
    1UNL    H30   81  -0.665   0.046  -0.047
    1UNL    H31   82  -0.223   0.195  -0.120
    1UNL    H32   83  -0.146   0.197   0.106
    1UNL    H33   84  -0.323   0.211   0.082
    1UNL    H34   85  -0.250   0.085   0.285
    1UNL    H35   86  -0.484   0.166   0.245
    1UNL    H36   87  -0.718   0.206   0.254
    1UNL    H37   88  -0.861  -0.090   0.130
    1UNL    H38   89  -0.565  -0.277   0.082
    1UNL    H39   90  -0.330  -0.348   0.165
    1UNL    H40   91  -0.265  -0.240   0.037
    1UNL    H41   92  -0.090  -0.257   0.240
    1UNL    H42   93  -0.230  -0.193   0.340
    1UNL    H43   94   0.081   0.182   0.270
    1UNL    H44   95   0.029   0.110   0.430
    1UNL    H45   96  -0.102   0.176   0.329
   0.00000   0.00000   0.00000   0.00000   0.00000   0.00000   0.00000   0.00000   0.00000
Generated with MDTraj, t= 44.0
 96
    1UNL     C1    1   0.022  -0.194  -0.085
    1UNL     C2    2  -0.041  -0.091  -0.035
    1UNL     C3    3  -0.048   0.039  -0.098
    1UNL     C4    4  -0.049   0.014  -0.252
    1UNL     O1    5   0.080  -0.019  -0.300
    1UNL     C5    6   0.139   0.085  -0.384
    1UNL     O2    7   0.201   0.199  -0.322
    1UNL     C6    8   0.322   0.164  -0.257
    1UNL     C7    9   0.300   0.174  -0.101
    1UNL     O3   10   0.251   0.046  -0.059
    1UNL     C8   11   0.266   0.011   0.080
    1UNL     O4   12   0.298   0.124   0.163
    1UNL     C9   13   0.406   0.105   0.252
    1UNL    C10   14   0.546   0.149   0.200
    1UNL     O5   15   0.645   0.175   0.294
    1UNL    C11   16   0.406  -0.034   0.329
    1UNL     O6   17   0.307  -0.041   0.429
    1UNL    C12   18   0.401  -0.156   0.228
    1UNL     O7   19   0.305  -0.254   0.267
    1UNL    C13   20   0.366  -0.106   0.085
    1UNL     O8   21   0.480  -0.073   0.013
    1UNL    C14   22   0.381   0.021  -0.307
    1UNL     O9   23   0.510  -0.023  -0.250
    1UNL    C15   24   0.375   0.018  -0.457
    1UNL    O10   25   0.435  -0.102  -0.504
    1UNL    C16   26   0.231   0.026  -0.498
    1UNL    O11   27   0.194  -0.106  -0.518
    1UNL    O12   28  -0.148  -0.084  -0.284
    1UNL    C17   29  -0.275  -0.058  -0.229
    1UNL    C18   30  -0.305   0.035  -0.137
    1UNL    C19   31  -0.453   0.055  -0.116
    1UNL    O13   32  -0.498   0.150  -0.061
    1UNL    O14   33  -0.532  -0.042  -0.160
    1UNL    C20   34  -0.666  -0.009  -0.149
    1UNL    C21   35  -0.192   0.106  -0.065
    1UNL    C22   36  -0.227   0.139   0.085
    1UNL    C23   37  -0.259   0.048   0.202
    1UNL    C24   38  -0.403  -0.006   0.181
    1UNL    C25   39  -0.511   0.078   0.215
    1UNL    C26   40  -0.639   0.026   0.206
    1UNL    O15   41  -0.750   0.095   0.239
    1UNL    C27   42  -0.654  -0.103   0.159
    1UNL    O16   43  -0.786  -0.155   0.134
    1UNL    C28   44  -0.540  -0.182   0.127
    1UNL    C29   45  -0.414  -0.128   0.125
    1UNL    C30   46  -0.300  -0.210   0.103
    1UNL    C31   47  -0.201  -0.199   0.223
    1UNL     N1   48  -0.156  -0.059   0.227
    1UNL    C32   49  -0.021  -0.037   0.273
    1UNL    C33   50   0.014   0.099   0.321
    1UNL    O17   51   0.056  -0.130   0.276
    1UNL     H1   52   0.016  -0.278  -0.023
    1UNL     H2   53   0.067  -0.186  -0.180
    1UNL     H3   54  -0.082  -0.104   0.066
    1UNL     H4   55   0.050   0.093  -0.072
    1UNL     H5   56  -0.064   0.108  -0.306
    1UNL     H6   57   0.051   0.116  -0.442
    1UNL     H7   58   0.391   0.246  -0.291
    1UNL     H8   59   0.388   0.191  -0.046
    1UNL     H9   60   0.224   0.247  -0.079
    1UNL    H10   61   0.164  -0.018   0.113
    1UNL    H11   62   0.380   0.184   0.328
    1UNL    H12   63   0.581   0.077   0.120
    1UNL    H13   64   0.527   0.239   0.139
    1UNL    H14   65   0.610   0.236   0.360
    1UNL    H15   66   0.492  -0.054   0.399
    1UNL    H16   67   0.220  -0.072   0.383
    1UNL    H17   68   0.493  -0.217   0.231
    1UNL    H18   69   0.214  -0.211   0.280
    1UNL    H19   70   0.322  -0.190   0.037
    1UNL    H20   71   0.460  -0.046  -0.075
    1UNL    H21   72   0.307  -0.048  -0.277
    1UNL    H22   73   0.564  -0.052  -0.322
    1UNL    H23   74   0.437   0.097  -0.505
    1UNL    H24   75   0.372  -0.155  -0.568
    1UNL    H25   76   0.207   0.074  -0.594
    1UNL    H26   77   0.176  -0.155  -0.432
    1UNL    H27   78  -0.352  -0.127  -0.258
    1UNL    H28   79  -0.706   0.016  -0.248
    1UNL    H29   80  -0.726  -0.092  -0.117
    1UNL    H30   81  -0.678   0.068  -0.074
    1UNL    H31   82  -0.187   0.202  -0.117
    1UNL    H32   83  -0.148   0.206   0.110
    1UNL    H33   84  -0.319   0.204   0.069
    1UNL    H34   85  -0.255   0.106   0.293
    1UNL    H35   86  -0.483   0.166   0.267
    1UNL    H36   87  -0.732   0.190   0.257
    1UNL    H37   88  -0.848  -0.087   0.164
    1UNL    H38   89  -0.564  -0.284   0.083
    1UNL    H39   90  -0.327  -0.312   0.095
    1UNL    H40   91  -0.243  -0.184   0.008
    1UNL    H41   92  -0.107  -0.253   0.200
    1UNL    H42   93  -0.246  -0.219   0.321
    1UNL    H43   94   0.126   0.111   0.354
    1UNL    H44   95  -0.040   0.134   0.410
    1UNL    H45   96  -0.003   0.186   0.259
   0.00000   0.00000   0.00000   0.00000   0.00000   0.00000   0.00000   0.00000   0.00000
Generated with MDTraj, t= 45.0
 96
    1UNL     C1    1   0.080  -0.188  -0.088
    1UNL     C2    2  -0.011  -0.104  -0.044
    1UNL     C3    3  -0.042   0.031  -0.104
    1UNL     C4    4  -0.043   0.017  -0.261
    1UNL     O1    5   0.086  -0.020  -0.312
    1UNL     C5    6   0.135   0.082  -0.393
    1UNL     O2    7   0.179   0.189  -0.308
    1UNL     C6    8   0.309   0.164  -0.251
    1UNL     C7    9   0.297   0.160  -0.097
    1UNL     O3   10   0.240   0.042  -0.052
    1UNL     C8   11   0.272   0.008   0.081
    1UNL     O4   12   0.311   0.118   0.161
    1UNL     C9   13   0.409   0.106   0.261
    1UNL    C10   14   0.544   0.133   0.203
    1UNL     O5   15   0.648   0.148   0.299
    1UNL    C11   16   0.391  -0.032   0.337
    1UNL     O6   17   0.278  -0.023   0.414
    1UNL    C12   18   0.388  -0.148   0.238
    1UNL     O7   19   0.295  -0.249   0.275
    1UNL    C13   20   0.373  -0.109   0.087
    1UNL     O8   21   0.502  -0.083   0.027
    1UNL    C14   22   0.376   0.031  -0.303
    1UNL     O9   23   0.513   0.015  -0.260
    1UNL    C15   24   0.372   0.015  -0.457
    1UNL    O10   25   0.417  -0.113  -0.504
    1UNL    C16   26   0.225   0.029  -0.515
    1UNL    O11   27   0.169  -0.104  -0.539
    1UNL    O12   28  -0.141  -0.073  -0.310
    1UNL    C17   29  -0.257  -0.055  -0.247
    1UNL    C18   30  -0.292   0.019  -0.135
    1UNL    C19   31  -0.429   0.049  -0.110
    1UNL    O13   32  -0.466   0.150  -0.057
    1UNL    O14   33  -0.516  -0.047  -0.156
    1UNL    C20   34  -0.650   0.001  -0.127
    1UNL    C21   35  -0.193   0.102  -0.069
    1UNL    C22   36  -0.222   0.156   0.073
    1UNL    C23   37  -0.262   0.057   0.190
    1UNL    C24   38  -0.401  -0.012   0.174
    1UNL    C25   39  -0.512   0.063   0.216
    1UNL    C26   40  -0.640   0.025   0.207
    1UNL    O15   41  -0.751   0.090   0.252
    1UNL    C27   42  -0.663  -0.106   0.167
    1UNL    O16   43  -0.794  -0.146   0.157
    1UNL    C28   44  -0.557  -0.190   0.126
    1UNL    C29   45  -0.423  -0.147   0.132
    1UNL    C30   46  -0.308  -0.227   0.102
    1UNL    C31   47  -0.200  -0.207   0.211
    1UNL     N1   48  -0.162  -0.055   0.221
    1UNL    C32   49  -0.043  -0.024   0.275
    1UNL    C33   50  -0.004   0.116   0.319
    1UNL    O17   51   0.043  -0.103   0.297
    1UNL     H1   52   0.106  -0.275  -0.030
    1UNL     H2   53   0.129  -0.170  -0.190
    1UNL     H3   54  -0.058  -0.123   0.054
    1UNL     H4   55   0.037   0.094  -0.054
    1UNL     H5   56  -0.066   0.111  -0.308
    1UNL     H6   57   0.048   0.122  -0.441
    1UNL     H7   58   0.370   0.254  -0.273
    1UNL     H8   59   0.394   0.165  -0.056
    1UNL     H9   60   0.234   0.237  -0.056
    1UNL    H10   61   0.175  -0.019   0.127
    1UNL    H11   62   0.389   0.197   0.325
    1UNL    H12   63   0.579   0.044   0.140
    1UNL    H13   64   0.553   0.219   0.132
    1UNL    H14   65   0.637   0.237   0.343
    1UNL    H15   66   0.481  -0.054   0.405
    1UNL    H16   67   0.202  -0.056   0.370
    1UNL    H17   68   0.485  -0.195   0.240
    1UNL    H18   69   0.205  -0.217   0.292
    1UNL    H19   70   0.336  -0.197   0.035
    1UNL    H20   71   0.506  -0.055  -0.072
    1UNL    H21   72   0.317  -0.047  -0.264
    1UNL    H22   73   0.577   0.002  -0.342
    1UNL    H23   74   0.445   0.096  -0.490
    1UNL    H24   75   0.349  -0.174  -0.494
    1UNL    H25   76   0.207   0.108  -0.590
    1UNL    H26   77   0.090  -0.118  -0.485
    1UNL    H27   78  -0.329  -0.110  -0.297
    1UNL    H28   79  -0.674   0.078  -0.204
    1UNL    H29   80  -0.736  -0.068  -0.130
    1UNL    H30   81  -0.645   0.046  -0.027
    1UNL    H31   82  -0.189   0.194  -0.127
    1UNL    H32   83  -0.137   0.210   0.105
    1UNL    H33   84  -0.310   0.227   0.070
    1UNL    H34   85  -0.274   0.129   0.274
    1UNL    H35   86  -0.500   0.163   0.258
    1UNL    H36   87  -0.731   0.184   0.260
    1UNL    H37   88  -0.852  -0.079   0.200
    1UNL    H38   89  -0.589  -0.280   0.084
    1UNL    H39   90  -0.318  -0.335   0.092
    1UNL    H40   91  -0.269  -0.201  -0.000
    1UNL    H41   92  -0.117  -0.278   0.195
    1UNL    H42   93  -0.248  -0.223   0.310
    1UNL    H43   94  -0.023   0.122   0.422
    1UNL    H44   95  -0.052   0.194   0.254
    1UNL    H45   96   0.105   0.137   0.303
   0.00000   0.00000   0.00000   0.00000   0.00000   0.00000   0.00000   0.00000   0.00000
Generated with MDTraj, t= 46.0
 96
    1UNL     C1    1   0.036  -0.187  -0.092
    1UNL     C2    2  -0.029  -0.084  -0.044
    1UNL     C3    3  -0.053   0.032  -0.126
    1UNL     C4    4  -0.058   0.008  -0.273
    1UNL     O1    5   0.078  -0.004  -0.325
    1UNL     C5    6   0.137   0.107  -0.402
    1UNL     O2    7   0.206   0.217  -0.323
    1UNL     C6    8   0.329   0.169  -0.259
    1UNL     C7    9   0.303   0.168  -0.108
    1UNL     O3   10   0.241   0.051  -0.059
    1UNL     C8   11   0.278   0.015   0.075
    1UNL     O4   12   0.331   0.131   0.137
    1UNL     C9   13   0.418   0.108   0.258
    1UNL    C10   14   0.557   0.131   0.227
    1UNL     O5   15   0.641   0.124   0.347
    1UNL    C11   16   0.405  -0.029   0.333
    1UNL     O6   17   0.301  -0.024   0.426
    1UNL    C12   18   0.394  -0.149   0.239
    1UNL     O7   19   0.304  -0.245   0.299
    1UNL    C13   20   0.379  -0.107   0.089
    1UNL     O8   21   0.509  -0.079   0.035
    1UNL    C14   22   0.370   0.028  -0.307
    1UNL     O9   23   0.490  -0.022  -0.241
    1UNL    C15   24   0.369   0.011  -0.460
    1UNL    O10   25   0.437  -0.109  -0.494
    1UNL    C16   26   0.227   0.045  -0.517
    1UNL    O11   27   0.167  -0.074  -0.565
    1UNL    O12   28  -0.148  -0.105  -0.294
    1UNL    C17   29  -0.267  -0.088  -0.237
    1UNL    C18   30  -0.310   0.010  -0.156
    1UNL    C19   31  -0.449   0.049  -0.139
    1UNL    O13   32  -0.475   0.157  -0.094
    1UNL    O14   33  -0.553  -0.030  -0.185
    1UNL    C20   34  -0.675   0.029  -0.144
    1UNL    C21   35  -0.200   0.094  -0.095
    1UNL    C22   36  -0.224   0.126   0.056
    1UNL    C23   37  -0.256   0.041   0.185
    1UNL    C24   38  -0.400  -0.013   0.183
    1UNL    C25   39  -0.507   0.068   0.211
    1UNL    C26   40  -0.633   0.022   0.218
    1UNL    O15   41  -0.746   0.089   0.246
    1UNL    C27   42  -0.656  -0.114   0.185
    1UNL    O16   43  -0.791  -0.150   0.185
    1UNL    C28   44  -0.550  -0.199   0.149
    1UNL    C29   45  -0.421  -0.148   0.147
    1UNL    C30   46  -0.311  -0.238   0.141
    1UNL    C31   47  -0.194  -0.207   0.233
    1UNL     N1   48  -0.153  -0.060   0.226
    1UNL    C32   49  -0.035  -0.026   0.281
    1UNL    C33   50  -0.012   0.115   0.348
    1UNL    O17   51   0.054  -0.107   0.278
    1UNL     H1   52   0.066  -0.263  -0.031
    1UNL     H2   53   0.079  -0.192  -0.190
    1UNL     H3   54  -0.064  -0.086   0.060
    1UNL     H4   55   0.037   0.098  -0.103
    1UNL     H5   56  -0.102   0.087  -0.332
    1UNL     H6   57   0.052   0.146  -0.451
    1UNL     H7   58   0.414   0.236  -0.278
    1UNL     H8   59   0.394   0.173  -0.051
    1UNL     H9   60   0.240   0.258  -0.087
    1UNL    H10   61   0.184  -0.011   0.123
    1UNL    H11   62   0.377   0.186   0.327
    1UNL    H12   63   0.601   0.058   0.149
    1UNL    H13   64   0.571   0.235   0.186
    1UNL    H14   65   0.644   0.215   0.390
    1UNL    H15   66   0.501  -0.044   0.396
    1UNL    H16   67   0.215  -0.060   0.381
    1UNL    H17   68   0.493  -0.193   0.239
    1UNL    H18   69   0.210  -0.210   0.291
    1UNL    H19   70   0.333  -0.192   0.035
    1UNL    H20   71   0.509  -0.047  -0.057
    1UNL    H21   72   0.297  -0.044  -0.281
    1UNL    H22   73   0.546  -0.069  -0.301
    1UNL    H23   74   0.441   0.089  -0.499
    1UNL    H24   75   0.442  -0.108  -0.594
    1UNL    H25   76   0.248   0.104  -0.609
    1UNL    H26   77   0.113  -0.130  -0.502
    1UNL    H27   78  -0.342  -0.152  -0.289
    1UNL    H28   79  -0.680   0.129  -0.196
    1UNL    H29   80  -0.764  -0.029  -0.175
    1UNL    H30   81  -0.672   0.039  -0.035
    1UNL    H31   82  -0.192   0.189  -0.150
    1UNL    H32   83  -0.149   0.201   0.080
    1UNL    H33   84  -0.321   0.181   0.049
    1UNL    H34   85  -0.251   0.121   0.266
    1UNL    H35   86  -0.485   0.167   0.248
    1UNL    H36   87  -0.722   0.182   0.244
    1UNL    H37   88  -0.847  -0.075   0.215
    1UNL    H38   89  -0.569  -0.296   0.108
    1UNL    H39   90  -0.352  -0.341   0.150
    1UNL    H40   91  -0.271  -0.247   0.038
    1UNL    H41   92  -0.103  -0.255   0.200
    1UNL    H42   93  -0.209  -0.236   0.340
    1UNL    H43   94  -0.097   0.128   0.403
    1UNL    H44   95   0.013   0.185   0.265
    1UNL    H45   96   0.073   0.119   0.422
   0.00000   0.00000   0.00000   0.00000   0.00000   0.00000   0.00000   0.00000   0.00000
Generated with MDTraj, t= 47.0
 96
    1UNL     C1    1   0.035  -0.211  -0.106
    1UNL     C2    2  -0.005  -0.100  -0.043
    1UNL     C3    3  -0.048   0.029  -0.118
    1UNL     C4    4  -0.073   0.004  -0.277
    1UNL     O1    5   0.052  -0.033  -0.344
    1UNL     C5    6   0.122   0.081  -0.386
    1UNL     O2    7   0.175   0.170  -0.284
    1UNL     C6    8   0.312   0.138  -0.242
    1UNL     C7    9   0.323   0.151  -0.091
    1UNL     O3   10   0.238   0.063  -0.020
    1UNL     C8   11   0.294   0.026   0.103
    1UNL     O4   12   0.348   0.142   0.170
    1UNL     C9   13   0.436   0.108   0.286
    1UNL    C10   14   0.584   0.131   0.252
    1UNL     O5   15   0.672   0.130   0.364
    1UNL    C11   16   0.403  -0.028   0.346
    1UNL     O6   17   0.285  -0.028   0.423
    1UNL    C12   18   0.405  -0.146   0.237
    1UNL     O7   19   0.308  -0.246   0.269
    1UNL    C13   20   0.391  -0.093   0.091
    1UNL     O8   21   0.516  -0.045   0.038
    1UNL    C14   22   0.351   0.006  -0.300
    1UNL     O9   23   0.480  -0.038  -0.255
    1UNL    C15   24   0.356   0.016  -0.458
    1UNL    O10   25   0.424  -0.098  -0.512
    1UNL    C16   26   0.209   0.051  -0.512
    1UNL    O11   27   0.138  -0.052  -0.581
    1UNL    O12   28  -0.168  -0.103  -0.298
    1UNL    C17   29  -0.286  -0.068  -0.243
    1UNL    C18   30  -0.310   0.030  -0.156
    1UNL    C19   31  -0.451   0.066  -0.130
    1UNL    O13   32  -0.493   0.161  -0.066
    1UNL    O14   33  -0.530  -0.034  -0.183
    1UNL    C20   34  -0.654   0.010  -0.207
    1UNL    C21   35  -0.191   0.102  -0.085
    1UNL    C22   36  -0.210   0.153   0.059
    1UNL    C23   37  -0.254   0.054   0.171
    1UNL    C24   38  -0.395  -0.010   0.158
    1UNL    C25   39  -0.504   0.072   0.188
    1UNL    C26   40  -0.633   0.018   0.200
    1UNL    O15   41  -0.751   0.094   0.220
    1UNL    C27   42  -0.650  -0.120   0.198
    1UNL    O16   43  -0.780  -0.167   0.212
    1UNL    C28   44  -0.542  -0.206   0.164
    1UNL    C29   45  -0.415  -0.145   0.146
    1UNL    C30   46  -0.301  -0.236   0.124
    1UNL    C31   47  -0.189  -0.199   0.217
    1UNL     N1   48  -0.160  -0.050   0.209
    1UNL    C32   49  -0.034  -0.016   0.261
    1UNL    C33   50  -0.007   0.121   0.308
    1UNL    O17   51   0.056  -0.100   0.277
    1UNL     H1   52   0.023  -0.308  -0.047
    1UNL     H2   53   0.067  -0.231  -0.206
    1UNL     H3   54  -0.022  -0.103   0.059
    1UNL     H4   55   0.036   0.100  -0.093
    1UNL     H5   56  -0.105   0.105  -0.309
    1UNL     H6   57   0.042   0.142  -0.419
    1UNL     H7   58   0.380   0.210  -0.286
    1UNL     H8   59   0.427   0.128  -0.065
    1UNL     H9   60   0.301   0.257  -0.055
    1UNL    H10   61   0.214  -0.013   0.165
    1UNL    H11   62   0.401   0.174   0.366
    1UNL    H12   63   0.624   0.039   0.193
    1UNL    H13   64   0.600   0.226   0.190
    1UNL    H14   65   0.641   0.177   0.444
    1UNL    H15   66   0.481  -0.045   0.427
    1UNL    H16   67   0.207  -0.057   0.378
    1UNL    H17   68   0.506  -0.188   0.245
    1UNL    H18   69   0.220  -0.206   0.262
    1UNL    H19   70   0.345  -0.175   0.027
    1UNL    H20   71   0.503  -0.047  -0.060
    1UNL    H21   72   0.276  -0.065  -0.265
    1UNL    H22   73   0.517  -0.106  -0.320
    1UNL    H23   74   0.421   0.106  -0.477
    1UNL    H24   75   0.361  -0.139  -0.585
    1UNL    H25   76   0.214   0.146  -0.570
    1UNL    H26   77   0.064  -0.090  -0.530
    1UNL    H27   78  -0.375  -0.133  -0.271
    1UNL    H28   79  -0.644   0.102  -0.270
    1UNL    H29   80  -0.714  -0.065  -0.259
    1UNL    H30   81  -0.701   0.036  -0.113
    1UNL    H31   82  -0.181   0.194  -0.147
    1UNL    H32   83  -0.121   0.211   0.081
    1UNL    H33   84  -0.291   0.227   0.049
    1UNL    H34   85  -0.263   0.111   0.272
    1UNL    H35   86  -0.492   0.176   0.207
    1UNL    H36   87  -0.742   0.187   0.194
    1UNL    H37   88  -0.840  -0.092   0.231
    1UNL    H38   89  -0.558  -0.317   0.157
    1UNL    H39   90  -0.331  -0.346   0.127
    1UNL    H40   91  -0.282  -0.229   0.016
    1UNL    H41   92  -0.094  -0.247   0.201
    1UNL    H42   93  -0.208  -0.222   0.328
    1UNL    H43   94  -0.090   0.191   0.299
    1UNL    H44   95   0.083   0.166   0.271
    1UNL    H45   96  -0.004   0.132   0.418
   0.00000   0.00000   0.00000   0.00000   0.00000   0.00000   0.00000   0.00000   0.00000
Generated with MDTraj, t= 48.0
 96
    1UNL     C1    1   0.044  -0.190  -0.104
    1UNL     C2    2  -0.025  -0.090  -0.053
    1UNL     C3    3  -0.068   0.022  -0.142
    1UNL     C4    4  -0.077  -0.014  -0.290
    1UNL     O1    5   0.054  -0.029  -0.347
    1UNL     C5    6   0.108   0.097  -0.382
    1UNL     O2    7   0.154   0.174  -0.269
    1UNL     C6    8   0.294   0.148  -0.238
    1UNL     C7    9   0.314   0.151  -0.086
    1UNL     O3   10   0.240   0.053  -0.015
    1UNL     C8   11   0.302   0.030   0.111
    1UNL     O4   12   0.359   0.139   0.184
    1UNL     C9   13   0.439   0.105   0.303
    1UNL    C10   14   0.591   0.135   0.266
    1UNL     O5   15   0.679   0.117   0.370
    1UNL    C11   16   0.418  -0.031   0.367
    1UNL     O6   17   0.304  -0.035   0.450
    1UNL    C12   18   0.423  -0.143   0.252
    1UNL     O7   19   0.323  -0.243   0.276
    1UNL    C13   20   0.392  -0.091   0.102
    1UNL     O8   21   0.507  -0.063   0.032
    1UNL    C14   22   0.342   0.013  -0.292
    1UNL     O9   23   0.471  -0.038  -0.246
    1UNL    C15   24   0.339   0.008  -0.448
    1UNL    O10   25   0.375  -0.122  -0.482
    1UNL    C16   26   0.206   0.068  -0.508
    1UNL    O11   27   0.140  -0.016  -0.607
    1UNL    O12   28  -0.159  -0.130  -0.288
    1UNL    C17   29  -0.282  -0.109  -0.234
    1UNL    C18   30  -0.314  -0.009  -0.147
    1UNL    C19   31  -0.452   0.045  -0.146
    1UNL    O13   32  -0.463   0.157  -0.104
    1UNL    O14   33  -0.570  -0.019  -0.193
    1UNL    C20   34  -0.681   0.053  -0.149
    1UNL    C21   35  -0.204   0.083  -0.104
    1UNL    C22   36  -0.224   0.143   0.042
    1UNL    C23   37  -0.249   0.056   0.169
    1UNL    C24   38  -0.392  -0.003   0.163
    1UNL    C25   39  -0.502   0.076   0.186
    1UNL    C26   40  -0.631   0.017   0.188
    1UNL    O15   41  -0.750   0.094   0.204
    1UNL    C27   42  -0.645  -0.125   0.177
    1UNL    O16   43  -0.767  -0.180   0.194
    1UNL    C28   44  -0.534  -0.199   0.146
    1UNL    C29   45  -0.408  -0.140   0.131
    1UNL    C30   46  -0.281  -0.222   0.113
    1UNL    C31   47  -0.178  -0.182   0.219
    1UNL     N1   48  -0.147  -0.046   0.217
    1UNL    C32   49  -0.019  -0.005   0.253
    1UNL    C33   50   0.015   0.133   0.277
    1UNL    O17   51   0.066  -0.092   0.269
    1UNL     H1   52   0.108  -0.246  -0.039
    1UNL     H2   53   0.056  -0.211  -0.204
    1UNL     H3   54  -0.027  -0.071   0.048
    1UNL     H4   55   0.026   0.084  -0.137
    1UNL     H5   56  -0.131   0.066  -0.346
    1UNL     H6   57   0.032   0.157  -0.422
    1UNL     H7   58   0.338   0.229  -0.295
    1UNL     H8   59   0.419   0.122  -0.070
    1UNL     H9   60   0.306   0.256  -0.040
    1UNL    H10   61   0.225   0.002   0.183
    1UNL    H11   62   0.416   0.170   0.388
    1UNL    H12   63   0.623   0.054   0.190
    1UNL    H13   64   0.595   0.238   0.220
    1UNL    H14   65   0.641   0.146   0.454
    1UNL    H15   66   0.502  -0.046   0.436
    1UNL    H16   67   0.220  -0.043   0.390
    1UNL    H17   68   0.525  -0.188   0.248
    1UNL    H18   69   0.231  -0.197   0.278
    1UNL    H19   70   0.336  -0.173   0.042
    1UNL    H20   71   0.483  -0.057  -0.068
    1UNL    H21   72   0.263  -0.057  -0.265
    1UNL    H22   73   0.486  -0.129  -0.291
    1UNL    H23   74   0.416   0.073  -0.494
    1UNL    H24   75   0.320  -0.168  -0.541
    1UNL    H25   76   0.227   0.162  -0.564
    1UNL    H26   77   0.062  -0.064  -0.568
    1UNL    H27   78  -0.360  -0.162  -0.279
    1UNL    H28   79  -0.675   0.152  -0.199
    1UNL    H29   80  -0.776   0.003  -0.159
    1UNL    H30   81  -0.666   0.074  -0.046
    1UNL    H31   82  -0.214   0.163  -0.183
    1UNL    H32   83  -0.144   0.217   0.064
    1UNL    H33   84  -0.317   0.196   0.043
    1UNL    H34   85  -0.256   0.128   0.258
    1UNL    H35   86  -0.489   0.180   0.218
    1UNL    H36   87  -0.728   0.189   0.194
    1UNL    H37   88  -0.832  -0.115   0.230
    1UNL    H38   89  -0.544  -0.299   0.131
    1UNL    H39   90  -0.313  -0.333   0.117
    1UNL    H40   91  -0.244  -0.212   0.013
    1UNL    H41   92  -0.085  -0.234   0.210
    1UNL    H42   93  -0.220  -0.201   0.326
    1UNL    H43   94  -0.069   0.192   0.330
    1UNL    H44   95   0.047   0.182   0.190
    1UNL    H45   96   0.089   0.141   0.354
   0.00000   0.00000   0.00000   0.00000   0.00000   0.00000   0.00000   0.00000   0.00000
Generated with MDTraj, t= 49.0
 96
    1UNL     C1    1   0.069  -0.176  -0.106
    1UNL     C2    2  -0.019  -0.090  -0.058
    1UNL     C3    3  -0.076   0.031  -0.144
    1UNL     C4    4  -0.083  -0.027  -0.292
    1UNL     O1    5   0.044  -0.050  -0.355
    1UNL     C5    6   0.095   0.086  -0.388
    1UNL     O2    7   0.137   0.155  -0.273
    1UNL     C6    8   0.273   0.140  -0.227
    1UNL     C7    9   0.297   0.152  -0.076
    1UNL     O3   10   0.244   0.034  -0.021
    1UNL     C8   11   0.297   0.014   0.105
    1UNL     O4   12   0.368   0.129   0.156
    1UNL     C9   13   0.441   0.107   0.282
    1UNL    C10   14   0.596   0.110   0.255
    1UNL     O5   15   0.673   0.111   0.375
    1UNL    C11   16   0.414  -0.024   0.360
    1UNL     O6   17   0.305  -0.011   0.451
    1UNL    C12   18   0.412  -0.143   0.261
    1UNL     O7   19   0.312  -0.242   0.279
    1UNL    C13   20   0.397  -0.108   0.111
    1UNL     O8   21   0.515  -0.068   0.051
    1UNL    C14   22   0.327   0.014  -0.279
    1UNL     O9   23   0.456  -0.020  -0.222
    1UNL    C15   24   0.329  -0.001  -0.433
    1UNL    O10   25   0.317  -0.140  -0.466
    1UNL    C16   26   0.214   0.085  -0.496
    1UNL    O11   27   0.154   0.024  -0.610
    1UNL    O12   28  -0.174  -0.139  -0.295
    1UNL    C17   29  -0.290  -0.104  -0.225
    1UNL    C18   30  -0.315   0.012  -0.156
    1UNL    C19   31  -0.452   0.063  -0.134
    1UNL    O13   32  -0.473   0.181  -0.117
    1UNL    O14   33  -0.551  -0.030  -0.139
    1UNL    C20   34  -0.672   0.025  -0.146
    1UNL    C21   35  -0.209   0.102  -0.111
    1UNL    C22   36  -0.216   0.156   0.037
    1UNL    C23   37  -0.242   0.055   0.155
    1UNL    C24   38  -0.378  -0.014   0.163
    1UNL    C25   39  -0.489   0.064   0.189
    1UNL    C26   40  -0.620   0.010   0.186
    1UNL    O15   41  -0.735   0.088   0.224
    1UNL    C27   42  -0.638  -0.127   0.148
    1UNL    O16   43  -0.767  -0.168   0.120
    1UNL    C28   44  -0.526  -0.204   0.129
    1UNL    C29   45  -0.397  -0.151   0.134
    1UNL    C30   46  -0.270  -0.237   0.134
    1UNL    C31   47  -0.157  -0.181   0.224
    1UNL     N1   48  -0.125  -0.037   0.189
    1UNL    C32   49  -0.009   0.009   0.253
    1UNL    C33   50   0.015   0.156   0.280
    1UNL    O17   51   0.075  -0.072   0.298
    1UNL     H1   52   0.096  -0.271  -0.062
    1UNL     H2   53   0.102  -0.160  -0.213
    1UNL     H3   54  -0.068  -0.113   0.029
    1UNL     H4   55   0.008   0.104  -0.134
    1UNL     H5   56  -0.141   0.038  -0.360
    1UNL     H6   57   0.016   0.143  -0.423
    1UNL     H7   58   0.330   0.220  -0.276
    1UNL     H8   59   0.402   0.179  -0.045
    1UNL     H9   60   0.237   0.239  -0.030
    1UNL    H10   61   0.217   0.009   0.181
    1UNL    H11   62   0.415   0.185   0.353
    1UNL    H12   63   0.615   0.021   0.188
    1UNL    H13   64   0.612   0.206   0.204
    1UNL    H14   65   0.619   0.161   0.440
    1UNL    H15   66   0.494  -0.051   0.426
    1UNL    H16   67   0.225  -0.024   0.401
    1UNL    H17   68   0.508  -0.200   0.276
    1UNL    H18   69   0.229  -0.200   0.296
    1UNL    H19   70   0.346  -0.194   0.052
    1UNL    H20   71   0.507  -0.040  -0.039
    1UNL    H21   72   0.263  -0.062  -0.236
    1UNL    H22   73   0.479  -0.106  -0.251
    1UNL    H23   74   0.421   0.040  -0.471
    1UNL    H24   75   0.298  -0.157  -0.559
    1UNL    H25   76   0.252   0.185  -0.520
    1UNL    H26   77   0.077  -0.030  -0.590
    1UNL    H27   78  -0.364  -0.170  -0.259
    1UNL    H28   79  -0.662   0.118  -0.205
    1UNL    H29   80  -0.745  -0.049  -0.176
    1UNL    H30   81  -0.695   0.061  -0.049
    1UNL    H31   82  -0.223   0.189  -0.181
    1UNL    H32   83  -0.127   0.225   0.047
    1UNL    H33   84  -0.308   0.210   0.041
    1UNL    H34   85  -0.253   0.121   0.245
    1UNL    H35   86  -0.475   0.167   0.211
    1UNL    H36   87  -0.708   0.184   0.238
    1UNL    H37   88  -0.831  -0.094   0.131
    1UNL    H38   89  -0.535  -0.307   0.086
    1UNL    H39   90  -0.292  -0.346   0.171
    1UNL    H40   91  -0.237  -0.251   0.033
    1UNL    H41   92  -0.075  -0.249   0.217
    1UNL    H42   93  -0.198  -0.178   0.333
    1UNL    H43   94  -0.060   0.192   0.358
    1UNL    H44   95  -0.003   0.205   0.186
    1UNL    H45   96   0.108   0.161   0.326
   0.00000   0.00000   0.00000   0.00000   0.00000   0.00000   0.00000   0.00000   0.00000
Generated with MDTraj, t= 50.0
 96
    1UNL     C1    1   0.008  -0.202  -0.111
    1UNL     C2    2  -0.012  -0.085  -0.057
    1UNL     C3    3  -0.058   0.030  -0.142
    1UNL     C4    4  -0.086  -0.009  -0.290
    1UNL     O1    5   0.031  -0.027  -0.364
    1UNL     C5    6   0.101   0.097  -0.393
    1UNL     O2    7   0.151   0.168  -0.282
    1UNL     C6    8   0.284   0.145  -0.237
    1UNL     C7    9   0.303   0.155  -0.079
    1UNL     O3   10   0.240   0.045  -0.018
    1UNL     C8   11   0.293   0.024   0.112
    1UNL     O4   12   0.365   0.128   0.170
    1UNL     C9   13   0.451   0.108   0.282
    1UNL    C10   14   0.596   0.119   0.239
    1UNL     O5   15   0.693   0.118   0.349
    1UNL    C11   16   0.422  -0.025   0.367
    1UNL     O6   17   0.310  -0.003   0.457
    1UNL    C12   18   0.395  -0.150   0.276
    1UNL     O7   19   0.304  -0.252   0.311
    1UNL    C13   20   0.373  -0.107   0.126
    1UNL     O8   21   0.494  -0.097   0.058
    1UNL    C14   22   0.334   0.006  -0.282
    1UNL     O9   23   0.480   0.002  -0.246
    1UNL    C15   24   0.324  -0.016  -0.439
    1UNL    O10   25   0.284  -0.149  -0.479
    1UNL    C16   26   0.216   0.077  -0.502
    1UNL    O11   27   0.169   0.008  -0.613
    1UNL    O12   28  -0.185  -0.114  -0.295
    1UNL    C17   29  -0.299  -0.098  -0.228
    1UNL    C18   30  -0.316   0.006  -0.143
    1UNL    C19   31  -0.458   0.055  -0.121
    1UNL    O13   32  -0.488   0.154  -0.062
    1UNL    O14   33  -0.552  -0.034  -0.164
    1UNL    C20   34  -0.687  -0.004  -0.145
    1UNL    C21   35  -0.196   0.085  -0.092
    1UNL    C22   36  -0.206   0.140   0.058
    1UNL    C23   37  -0.237   0.056   0.182
    1UNL    C24   38  -0.376  -0.004   0.161
    1UNL    C25   39  -0.492   0.072   0.186
    1UNL    C26   40  -0.618   0.009   0.165
    1UNL    O15   41  -0.733   0.087   0.185
    1UNL    C27   42  -0.624  -0.127   0.130
    1UNL    O16   43  -0.749  -0.185   0.115
    1UNL    C28   44  -0.513  -0.200   0.099
    1UNL    C29   45  -0.386  -0.133   0.114
    1UNL    C30   46  -0.253  -0.210   0.103
    1UNL    C31   47  -0.165  -0.170   0.226
    1UNL     N1   48  -0.127  -0.030   0.216
    1UNL    C32   49  -0.008   0.013   0.277
    1UNL    C33   50   0.027   0.156   0.293
    1UNL    O17   51   0.073  -0.072   0.315
    1UNL     H1   52   0.031  -0.286  -0.057
    1UNL     H2   53  -0.007  -0.219  -0.218
    1UNL     H3   54   0.015  -0.070   0.047
    1UNL     H4   55   0.024   0.108  -0.131
    1UNL     H5   56  -0.140   0.076  -0.332
    1UNL     H6   57   0.028   0.162  -0.427
    1UNL     H7   58   0.350   0.217  -0.289
    1UNL     H8   59   0.408   0.147  -0.046
    1UNL     H9   60   0.271   0.256  -0.035
    1UNL    H10   61   0.210   0.020   0.186
    1UNL    H11   62   0.434   0.196   0.344
    1UNL    H12   63   0.618   0.025   0.186
    1UNL    H13   64   0.610   0.207   0.179
    1UNL    H14   65   0.673   0.185   0.421
    1UNL    H15   66   0.513  -0.048   0.416
    1UNL    H16   67   0.225  -0.017   0.403
    1UNL    H17   68   0.494  -0.205   0.276
    1UNL    H18   69   0.212  -0.210   0.327
    1UNL    H19   70   0.308  -0.191   0.076
    1UNL    H20   71   0.480  -0.064  -0.040
    1UNL    H21   72   0.280  -0.075  -0.236
    1UNL    H22   73   0.519  -0.066  -0.299
    1UNL    H23   74   0.416   0.008  -0.488
    1UNL    H24   75   0.258  -0.149  -0.580
    1UNL    H25   76   0.260   0.172  -0.530
    1UNL    H26   77   0.089  -0.042  -0.587
    1UNL    H27   78  -0.382  -0.172  -0.255
    1UNL    H28   79  -0.729   0.030  -0.243
    1UNL    H29   80  -0.739  -0.081  -0.085
    1UNL    H30   81  -0.688   0.092  -0.096
    1UNL    H31   82  -0.215   0.180  -0.147
    1UNL    H32   83  -0.110   0.199   0.067
    1UNL    H33   84  -0.286   0.209   0.043
    1UNL    H34   85  -0.248   0.116   0.271
    1UNL    H35   86  -0.483   0.176   0.219
    1UNL    H36   87  -0.712   0.184   0.192
    1UNL    H37   88  -0.813  -0.126   0.159
    1UNL    H38   89  -0.525  -0.300   0.058
    1UNL    H39   90  -0.276  -0.323   0.103
    1UNL    H40   91  -0.193  -0.184   0.017
    1UNL    H41   92  -0.074  -0.229   0.232
    1UNL    H42   93  -0.242  -0.200   0.310
    1UNL    H43   94  -0.044   0.220   0.255
    1UNL    H44   95   0.115   0.173   0.227
    1UNL    H45   96   0.033   0.164   0.399
   0.00000   0.00000   0.00000   0.00000   0.00000   0.00000   0.00000   0.00000   0.00000
Generated with MDTraj, t= 51.0
 96
    1UNL     C1    1   0.013  -0.191  -0.091
    1UNL     C2    2  -0.032  -0.072  -0.058
    1UNL     C3    3  -0.076   0.044  -0.139
    1UNL     C4    4  -0.084   0.006  -0.292
    1UNL     O1    5   0.046  -0.011  -0.345
    1UNL     C5    6   0.112   0.114  -0.366
    1UNL     O2    7   0.174   0.192  -0.262
    1UNL     C6    8   0.308   0.137  -0.228
    1UNL     C7    9   0.326   0.143  -0.080
    1UNL     O3   10   0.247   0.049  -0.020
    1UNL     C8   11   0.284   0.022   0.115
    1UNL     O4   12   0.344   0.136   0.173
    1UNL     C9   13   0.455   0.109   0.266
    1UNL    C10   14   0.589   0.117   0.209
    1UNL     O5   15   0.690   0.103   0.308
    1UNL    C11   16   0.422  -0.016   0.349
    1UNL     O6   17   0.319   0.017   0.445
    1UNL    C12   18   0.399  -0.151   0.262
    1UNL     O7   19   0.306  -0.233   0.315
    1UNL    C13   20   0.368  -0.114   0.116
    1UNL     O8   21   0.494  -0.094   0.043
    1UNL    C14   22   0.334  -0.009  -0.272
    1UNL     O9   23   0.461  -0.068  -0.230
    1UNL    C15   24   0.321  -0.020  -0.428
    1UNL    O10   25   0.315  -0.150  -0.475
    1UNL    C16   26   0.210   0.072  -0.484
    1UNL    O11   27   0.146   0.000  -0.588
    1UNL    O12   28  -0.176  -0.103  -0.313
    1UNL    C17   29  -0.294  -0.076  -0.255
    1UNL    C18   30  -0.316   0.012  -0.153
    1UNL    C19   31  -0.451   0.058  -0.130
    1UNL    O13   32  -0.475   0.159  -0.066
    1UNL    O14   33  -0.549  -0.023  -0.187
    1UNL    C20   34  -0.682   0.011  -0.163
    1UNL    C21   35  -0.209   0.103  -0.106
    1UNL    C22   36  -0.220   0.157   0.049
    1UNL    C23   37  -0.243   0.055   0.169
    1UNL    C24   38  -0.376  -0.017   0.172
    1UNL    C25   39  -0.492   0.060   0.184
    1UNL    C26   40  -0.618   0.004   0.171
    1UNL    O15   41  -0.739   0.072   0.189
    1UNL    C27   42  -0.624  -0.140   0.138
    1UNL    O16   43  -0.745  -0.199   0.111
    1UNL    C28   44  -0.510  -0.213   0.130
    1UNL    C29   45  -0.386  -0.157   0.152
    1UNL    C30   46  -0.259  -0.236   0.117
    1UNL    C31   47  -0.141  -0.188   0.199
    1UNL     N1   48  -0.130  -0.035   0.206
    1UNL    C32   49  -0.025   0.017   0.290
    1UNL    C33   50  -0.010   0.158   0.332
    1UNL    O17   51   0.067  -0.056   0.323
    1UNL     H1   52   0.051  -0.267  -0.022
    1UNL     H2   53   0.020  -0.222  -0.194
    1UNL     H3   54  -0.035  -0.055   0.051
    1UNL     H4   55   0.013   0.115  -0.137
    1UNL     H5   56  -0.125   0.091  -0.347
    1UNL     H6   57   0.045   0.175  -0.416
    1UNL     H7   58   0.381   0.201  -0.285
    1UNL     H8   59   0.429   0.134  -0.048
    1UNL     H9   60   0.289   0.243  -0.042
    1UNL    H10   61   0.189   0.006   0.171
    1UNL    H11   62   0.438   0.188   0.341
    1UNL    H12   63   0.604   0.036   0.139
    1UNL    H13   64   0.604   0.211   0.164
    1UNL    H14   65   0.740   0.188   0.317
    1UNL    H15   66   0.511  -0.032   0.407
    1UNL    H16   67   0.233   0.003   0.404
    1UNL    H17   68   0.496  -0.206   0.266
    1UNL    H18   69   0.222  -0.188   0.317
    1UNL    H19   70   0.313  -0.205   0.068
    1UNL    H20   71   0.474  -0.091  -0.049
    1UNL    H21   72   0.252  -0.067  -0.226
    1UNL    H22   73   0.483  -0.139  -0.299
    1UNL    H23   74   0.417   0.008  -0.469
    1UNL    H24   75   0.250  -0.165  -0.556
    1UNL    H25   76   0.255   0.158  -0.529
    1UNL    H26   77   0.077  -0.056  -0.542
    1UNL    H27   78  -0.382  -0.121  -0.306
    1UNL    H28   79  -0.722   0.061  -0.257
    1UNL    H29   80  -0.740  -0.071  -0.120
    1UNL    H30   81  -0.676   0.097  -0.094
    1UNL    H31   82  -0.215   0.189  -0.173
    1UNL    H32   83  -0.128   0.212   0.087
    1UNL    H33   84  -0.305   0.222   0.049
    1UNL    H34   85  -0.252   0.118   0.255
    1UNL    H35   86  -0.483   0.159   0.224
    1UNL    H36   87  -0.731   0.170   0.179
    1UNL    H37   88  -0.816  -0.131   0.117
    1UNL    H38   89  -0.511  -0.312   0.100
    1UNL    H39   90  -0.274  -0.345   0.143
    1UNL    H40   91  -0.240  -0.227   0.005
    1UNL    H41   92  -0.053  -0.238   0.163
    1UNL    H42   93  -0.151  -0.224   0.311
    1UNL    H43   94  -0.090   0.224   0.342
    1UNL    H44   95   0.049   0.211   0.254
    1UNL    H45   96   0.030   0.155   0.430
   0.00000   0.00000   0.00000   0.00000   0.00000   0.00000   0.00000   0.00000   0.00000
Generated with MDTraj, t= 52.0
 96
    1UNL     C1    1   0.050  -0.164  -0.111
    1UNL     C2    2  -0.005  -0.060  -0.051
    1UNL     C3    3  -0.066   0.065  -0.126
    1UNL     C4    4  -0.079   0.029  -0.278
    1UNL     O1    5   0.055   0.001  -0.338
    1UNL     C5    6   0.128   0.112  -0.388
    1UNL     O2    7   0.200   0.184  -0.285
    1UNL     C6    8   0.321   0.113  -0.245
    1UNL     C7    9   0.333   0.135  -0.093
    1UNL     O3   10   0.246   0.055  -0.019
    1UNL     C8   11   0.285   0.024   0.120
    1UNL     O4   12   0.346   0.137   0.178
    1UNL     C9   13   0.457   0.113   0.274
    1UNL    C10   14   0.591   0.101   0.204
    1UNL     O5   15   0.696   0.119   0.287
    1UNL    C11   16   0.428  -0.013   0.360
    1UNL     O6   17   0.326   0.022   0.452
    1UNL    C12   18   0.395  -0.146   0.272
    1UNL     O7   19   0.294  -0.217   0.340
    1UNL    C13   20   0.362  -0.108   0.128
    1UNL     O8   21   0.474  -0.106   0.037
    1UNL    C14   22   0.326  -0.036  -0.293
    1UNL     O9   23   0.437  -0.112  -0.248
    1UNL    C15   24   0.343  -0.021  -0.446
    1UNL    O10   25   0.351  -0.146  -0.502
    1UNL    C16   26   0.224   0.068  -0.508
    1UNL    O11   27   0.154  -0.002  -0.614
    1UNL    O12   28  -0.164  -0.087  -0.285
    1UNL    C17   29  -0.290  -0.057  -0.236
    1UNL    C18   30  -0.320   0.041  -0.150
    1UNL    C19   31  -0.456   0.081  -0.137
    1UNL    O13   32  -0.483   0.193  -0.100
    1UNL    O14   33  -0.549  -0.012  -0.173
    1UNL    C20   34  -0.676   0.031  -0.172
    1UNL    C21   35  -0.212   0.118  -0.087
    1UNL    C22   36  -0.228   0.151   0.071
    1UNL    C23   37  -0.260   0.047   0.179
    1UNL    C24   38  -0.388  -0.027   0.160
    1UNL    C25   39  -0.506   0.046   0.176
    1UNL    C26   40  -0.628  -0.025   0.170
    1UNL    O15   41  -0.748   0.040   0.199
    1UNL    C27   42  -0.630  -0.164   0.149
    1UNL    O16   43  -0.752  -0.231   0.150
    1UNL    C28   44  -0.513  -0.228   0.114
    1UNL    C29   45  -0.394  -0.164   0.127
    1UNL    C30   46  -0.266  -0.246   0.142
    1UNL    C31   47  -0.181  -0.179   0.249
    1UNL     N1   48  -0.140  -0.041   0.219
    1UNL    C32   49  -0.030   0.016   0.289
    1UNL    C33   50  -0.030   0.161   0.322
    1UNL    O17   51   0.066  -0.054   0.311
    1UNL     H1   52   0.107  -0.242  -0.054
    1UNL     H2   53   0.048  -0.183  -0.213
    1UNL     H3   54  -0.000  -0.055   0.057
    1UNL     H4   55   0.003   0.150  -0.102
    1UNL     H5   56  -0.138   0.111  -0.319
    1UNL     H6   57   0.055   0.174  -0.427
    1UNL     H7   58   0.407   0.164  -0.297
    1UNL     H8   59   0.432   0.107  -0.069
    1UNL     H9   60   0.326   0.242  -0.068
    1UNL    H10   61   0.186   0.011   0.168
    1UNL    H11   62   0.453   0.196   0.348
    1UNL    H12   63   0.608   0.003   0.160
    1UNL    H13   64   0.605   0.172   0.129
    1UNL    H14   65   0.679   0.185   0.356
    1UNL    H15   66   0.518  -0.035   0.420
    1UNL    H16   67   0.237  -0.005   0.411
    1UNL    H17   68   0.480  -0.215   0.270
    1UNL    H18   69   0.205  -0.173   0.312
    1UNL    H19   70   0.291  -0.190   0.089
    1UNL    H20   71   0.439  -0.097  -0.060
    1UNL    H21   72   0.230  -0.080  -0.269
    1UNL    H22   73   0.451  -0.188  -0.317
    1UNL    H23   74   0.441   0.024  -0.462
    1UNL    H24   75   0.317  -0.135  -0.586
    1UNL    H25   76   0.262   0.161  -0.544
    1UNL    H26   77   0.060  -0.002  -0.591
    1UNL    H27   78  -0.364  -0.096  -0.296
    1UNL    H28   79  -0.680   0.142  -0.195
    1UNL    H29   80  -0.729  -0.035  -0.241
    1UNL    H30   81  -0.709   0.012  -0.070
    1UNL    H31   82  -0.215   0.215  -0.134
    1UNL    H32   83  -0.137   0.194   0.115
    1UNL    H33   84  -0.308   0.223   0.081
    1UNL    H34   85  -0.274   0.108   0.266
    1UNL    H35   86  -0.504   0.150   0.207
    1UNL    H36   87  -0.742   0.137   0.196
    1UNL    H37   88  -0.811  -0.182   0.210
    1UNL    H38   89  -0.523  -0.337   0.086
    1UNL    H39   90  -0.282  -0.357   0.156
    1UNL    H40   91  -0.216  -0.228   0.040
    1UNL    H41   92  -0.093  -0.234   0.284
    1UNL    H42   93  -0.241  -0.167   0.348
    1UNL    H43   94  -0.121   0.204   0.378
    1UNL    H44   95  -0.021   0.215   0.231
    1UNL    H45   96   0.047   0.175   0.390
   0.00000   0.00000   0.00000   0.00000   0.00000   0.00000   0.00000   0.00000   0.00000
Generated with MDTraj, t= 53.0
 96
    1UNL     C1    1   0.023  -0.161  -0.083
    1UNL     C2    2  -0.029  -0.050  -0.034
    1UNL     C3    3  -0.056   0.062  -0.126
    1UNL     C4    4  -0.068   0.023  -0.270
    1UNL     O1    5   0.061   0.001  -0.334
    1UNL     C5    6   0.127   0.109  -0.387
    1UNL     O2    7   0.200   0.179  -0.283
    1UNL     C6    8   0.323   0.112  -0.246
    1UNL     C7    9   0.339   0.112  -0.094
    1UNL     O3   10   0.252   0.027  -0.034
    1UNL     C8   11   0.284   0.020   0.107
    1UNL     O4   12   0.366   0.128   0.152
    1UNL     C9   13   0.450   0.111   0.262
    1UNL    C10   14   0.597   0.114   0.210
    1UNL     O5   15   0.692   0.117   0.309
    1UNL    C11   16   0.410  -0.002   0.362
    1UNL     O6   17   0.295   0.028   0.435
    1UNL    C12   18   0.393  -0.138   0.277
    1UNL     O7   19   0.289  -0.214   0.345
    1UNL    C13   20   0.357  -0.112   0.124
    1UNL     O8   21   0.469  -0.133   0.034
    1UNL    C14   22   0.334  -0.032  -0.301
    1UNL     O9   23   0.444  -0.104  -0.256
    1UNL    C15   24   0.334  -0.014  -0.455
    1UNL    O10   25   0.346  -0.141  -0.515
    1UNL    C16   26   0.215   0.072  -0.505
    1UNL    O11   27   0.135  -0.008  -0.589
    1UNL    O12   28  -0.152  -0.091  -0.285
    1UNL    C17   29  -0.271  -0.056  -0.244
    1UNL    C18   30  -0.300   0.049  -0.164
    1UNL    C19   31  -0.440   0.092  -0.126
    1UNL    O13   32  -0.462   0.183  -0.047
    1UNL    O14   33  -0.539   0.011  -0.167
    1UNL    C20   34  -0.673   0.067  -0.146
    1UNL    C21   35  -0.191   0.126  -0.101
    1UNL    C22   36  -0.215   0.154   0.061
    1UNL    C23   37  -0.270   0.059   0.175
    1UNL    C24   38  -0.399  -0.015   0.149
    1UNL    C25   39  -0.529   0.036   0.165
    1UNL    C26   40  -0.638  -0.048   0.167
    1UNL    O15   41  -0.762   0.000   0.176
    1UNL    C27   42  -0.630  -0.185   0.153
    1UNL    O16   43  -0.748  -0.259   0.155
    1UNL    C28   44  -0.501  -0.241   0.141
    1UNL    C29   45  -0.392  -0.151   0.132
    1UNL    C30   46  -0.255  -0.214   0.119
    1UNL    C31   47  -0.166  -0.165   0.231
    1UNL     N1   48  -0.159  -0.019   0.231
    1UNL    C32   49  -0.041   0.024   0.291
    1UNL    C33   50  -0.007   0.173   0.312
    1UNL    O17   51   0.050  -0.054   0.317
    1UNL     H1   52   0.028  -0.254  -0.030
    1UNL     H2   53   0.054  -0.164  -0.184
    1UNL     H3   54  -0.054  -0.035   0.065
    1UNL     H4   55   0.031   0.131  -0.116
    1UNL     H5   56  -0.131   0.096  -0.323
    1UNL     H6   57   0.048   0.168  -0.421
    1UNL     H7   58   0.409   0.166  -0.290
    1UNL     H8   59   0.439   0.090  -0.070
    1UNL     H9   60   0.319   0.212  -0.059
    1UNL    H10   61   0.189   0.024   0.166
    1UNL    H11   62   0.433   0.201   0.324
    1UNL    H12   63   0.622   0.022   0.158
    1UNL    H13   64   0.608   0.186   0.137
    1UNL    H14   65   0.730   0.206   0.319
    1UNL    H15   66   0.498  -0.013   0.434
    1UNL    H16   67   0.210   0.002   0.391
    1UNL    H17   68   0.480  -0.201   0.278
    1UNL    H18   69   0.203  -0.178   0.330
    1UNL    H19   70   0.281  -0.191   0.098
    1UNL    H20   71   0.449  -0.132  -0.060
    1UNL    H21   72   0.243  -0.086  -0.278
    1UNL    H22   73   0.446  -0.192  -0.299
    1UNL    H23   74   0.431   0.034  -0.481
    1UNL    H24   75   0.321  -0.127  -0.616
    1UNL    H25   76   0.247   0.159  -0.559
    1UNL    H26   77   0.091  -0.077  -0.532
    1UNL    H27   78  -0.357  -0.114  -0.274
    1UNL    H28   79  -0.662   0.146  -0.070
    1UNL    H29   80  -0.722   0.107  -0.233
    1UNL    H30   81  -0.730  -0.014  -0.104
    1UNL    H31   82  -0.185   0.224  -0.148
    1UNL    H32   83  -0.114   0.185   0.083
    1UNL    H33   84  -0.275   0.242   0.054
    1UNL    H34   85  -0.298   0.122   0.257
    1UNL    H35   86  -0.539   0.136   0.203
    1UNL    H36   87  -0.763   0.096   0.162
    1UNL    H37   88  -0.820  -0.193   0.136
    1UNL    H38   89  -0.498  -0.341   0.113
    1UNL    H39   90  -0.273  -0.324   0.131
    1UNL    H40   91  -0.206  -0.201   0.014
    1UNL    H41   92  -0.064  -0.202   0.235
    1UNL    H42   93  -0.199  -0.200   0.337
    1UNL    H43   94  -0.092   0.243   0.279
    1UNL    H44   95   0.072   0.198   0.250
    1UNL    H45   96   0.001   0.188   0.417
   0.00000   0.00000   0.00000   0.00000   0.00000   0.00000   0.00000   0.00000   0.00000
Generated with MDTraj, t= 54.0
 96
    1UNL     C1    1   0.037  -0.179  -0.100
    1UNL     C2    2  -0.017  -0.079  -0.033
    1UNL     C3    3  -0.065   0.051  -0.108
    1UNL     C4    4  -0.073   0.019  -0.261
    1UNL     O1    5   0.048  -0.014  -0.330
    1UNL     C5    6   0.104   0.103  -0.380
    1UNL     O2    7   0.189   0.177  -0.280
    1UNL     C6    8   0.317   0.122  -0.251
    1UNL     C7    9   0.352   0.119  -0.102
    1UNL     O3   10   0.271   0.017  -0.044
    1UNL     C8   11   0.285   0.004   0.100
    1UNL     O4   12   0.362   0.127   0.146
    1UNL     C9   13   0.442   0.116   0.259
    1UNL    C10   14   0.590   0.097   0.215
    1UNL     O5   15   0.682   0.084   0.325
    1UNL    C11   16   0.402  -0.002   0.360
    1UNL     O6   17   0.298   0.040   0.442
    1UNL    C12   18   0.380  -0.135   0.285
    1UNL     O7   19   0.263  -0.200   0.340
    1UNL    C13   20   0.368  -0.123   0.131
    1UNL     O8   21   0.489  -0.113   0.061
    1UNL    C14   22   0.346  -0.023  -0.300
    1UNL     O9   23   0.473  -0.072  -0.252
    1UNL    C15   24   0.325  -0.021  -0.456
    1UNL    O10   25   0.329  -0.156  -0.516
    1UNL    C16   26   0.199   0.061  -0.501
    1UNL    O11   27   0.119  -0.025  -0.578
    1UNL    O12   28  -0.177  -0.085  -0.274
    1UNL    C17   29  -0.297  -0.047  -0.230
    1UNL    C18   30  -0.321   0.051  -0.140
    1UNL    C19   31  -0.459   0.098  -0.127
    1UNL    O13   32  -0.476   0.202  -0.062
    1UNL    O14   33  -0.559   0.017  -0.176
    1UNL    C20   34  -0.692   0.071  -0.155
    1UNL    C21   35  -0.207   0.119  -0.075
    1UNL    C22   36  -0.231   0.166   0.073
    1UNL    C23   37  -0.256   0.062   0.178
    1UNL    C24   38  -0.374  -0.029   0.150
    1UNL    C25   39  -0.499   0.023   0.173
    1UNL    C26   40  -0.616  -0.038   0.160
    1UNL    O15   41  -0.745   0.012   0.183
    1UNL    C27   42  -0.615  -0.183   0.135
    1UNL    O16   43  -0.735  -0.244   0.125
    1UNL    C28   44  -0.489  -0.233   0.101
    1UNL    C29   45  -0.367  -0.168   0.122
    1UNL    C30   46  -0.234  -0.236   0.111
    1UNL    C31   47  -0.139  -0.173   0.218
    1UNL     N1   48  -0.139  -0.017   0.219
    1UNL    C32   49  -0.031   0.038   0.286
    1UNL    C33   50  -0.034   0.182   0.329
    1UNL    O17   51   0.074  -0.021   0.295
    1UNL     H1   52   0.088  -0.264  -0.064
    1UNL     H2   53   0.023  -0.181  -0.212
    1UNL     H3   54  -0.006  -0.075   0.074
    1UNL     H4   55   0.019   0.121  -0.092
    1UNL     H5   56  -0.125   0.100  -0.312
    1UNL     H6   57   0.027   0.162  -0.419
    1UNL     H7   58   0.383   0.192  -0.303
    1UNL     H8   59   0.456   0.103  -0.090
    1UNL     H9   60   0.332   0.217  -0.062
    1UNL    H10   61   0.186   0.002   0.151
    1UNL    H11   62   0.430   0.205   0.322
    1UNL    H12   63   0.591   0.012   0.152
    1UNL    H13   64   0.615   0.174   0.148
    1UNL    H14   65   0.700   0.177   0.357
    1UNL    H15   66   0.490  -0.020   0.432
    1UNL    H16   67   0.214   0.027   0.387
    1UNL    H17   68   0.463  -0.200   0.301
    1UNL    H18   69   0.181  -0.138   0.338
    1UNL    H19   70   0.321  -0.216   0.093
    1UNL    H20   71   0.476  -0.080  -0.028
    1UNL    H21   72   0.270  -0.084  -0.251
    1UNL    H22   73   0.476  -0.165  -0.247
    1UNL    H23   74   0.417   0.032  -0.492
    1UNL    H24   75   0.301  -0.155  -0.608
    1UNL    H25   76   0.226   0.146  -0.563
    1UNL    H26   77   0.085  -0.092  -0.517
    1UNL    H27   78  -0.380  -0.106  -0.285
    1UNL    H28   79  -0.713   0.053  -0.048
    1UNL    H29   80  -0.700   0.178  -0.168
    1UNL    H30   81  -0.759   0.014  -0.215
    1UNL    H31   82  -0.202   0.213  -0.135
    1UNL    H32   83  -0.145   0.223   0.096
    1UNL    H33   84  -0.319   0.229   0.067
    1UNL    H34   85  -0.287   0.113   0.268
    1UNL    H35   86  -0.497   0.125   0.202
    1UNL    H36   87  -0.742   0.109   0.188
    1UNL    H37   88  -0.798  -0.181   0.167
    1UNL    H38   89  -0.493  -0.335   0.060
    1UNL    H39   90  -0.237  -0.346   0.127
    1UNL    H40   91  -0.191  -0.220   0.007
    1UNL    H41   92  -0.036  -0.210   0.220
    1UNL    H42   93  -0.177  -0.210   0.319
    1UNL    H43   94  -0.121   0.208   0.383
    1UNL    H44   95  -0.032   0.240   0.240
    1UNL    H45   96   0.048   0.202   0.401
   0.00000   0.00000   0.00000   0.00000   0.00000   0.00000   0.00000   0.00000   0.00000
Generated with MDTraj, t= 55.0
 96
    1UNL     C1    1   0.029  -0.145  -0.078
    1UNL     C2    2  -0.007  -0.021  -0.054
    1UNL     C3    3  -0.082   0.068  -0.149
    1UNL     C4    4  -0.106   0.011  -0.291
    1UNL     O1    5   0.023  -0.024  -0.346
    1UNL     C5    6   0.104   0.086  -0.388
    1UNL     O2    7   0.176   0.167  -0.285
    1UNL     C6    8   0.305   0.130  -0.254
    1UNL     C7    9   0.334   0.141  -0.099
    1UNL     O3   10   0.257   0.050  -0.028
    1UNL     C8   11   0.306   0.023   0.105
    1UNL     O4   12   0.374   0.133   0.170
    1UNL     C9   13   0.462   0.108   0.275
    1UNL    C10   14   0.610   0.104   0.228
    1UNL     O5   15   0.703   0.092   0.345
    1UNL    C11   16   0.430  -0.018   0.368
    1UNL     O6   17   0.324   0.015   0.451
    1UNL    C12   18   0.413  -0.147   0.279
    1UNL     O7   19   0.309  -0.222   0.345
    1UNL    C13   20   0.375  -0.115   0.125
    1UNL     O8   21   0.483  -0.132   0.043
    1UNL    C14   22   0.333  -0.018  -0.293
    1UNL     O9   23   0.461  -0.055  -0.235
    1UNL    C15   24   0.320  -0.033  -0.445
    1UNL    O10   25   0.313  -0.169  -0.482
    1UNL    C16   26   0.199   0.039  -0.508
    1UNL    O11   27   0.116  -0.039  -0.595
    1UNL    O12   28  -0.197  -0.097  -0.280
    1UNL    C17   29  -0.317  -0.072  -0.217
    1UNL    C18   30  -0.329   0.038  -0.136
    1UNL    C19   31  -0.464   0.089  -0.126
    1UNL    O13   32  -0.479   0.198  -0.072
    1UNL    O14   33  -0.568   0.012  -0.177
    1UNL    C20   34  -0.695   0.075  -0.177
    1UNL    C21   35  -0.217   0.124  -0.093
    1UNL    C22   36  -0.219   0.169   0.059
    1UNL    C23   37  -0.248   0.062   0.170
    1UNL    C24   38  -0.378  -0.019   0.159
    1UNL    C25   39  -0.507   0.033   0.187
    1UNL    C26   40  -0.621  -0.044   0.161
    1UNL    O15   41  -0.754   0.000   0.185
    1UNL    C27   42  -0.606  -0.170   0.102
    1UNL    O16   43  -0.719  -0.238   0.069
    1UNL    C28   44  -0.480  -0.231   0.095
    1UNL    C29   45  -0.368  -0.151   0.125
    1UNL    C30   46  -0.239  -0.221   0.131
    1UNL    C31   47  -0.152  -0.166   0.242
    1UNL     N1   48  -0.124  -0.025   0.218
    1UNL    C32   49  -0.026   0.037   0.295
    1UNL    C33   50  -0.036   0.177   0.348
    1UNL    O17   51   0.074  -0.030   0.314
    1UNL     H1   52   0.083  -0.205  -0.013
    1UNL     H2   53   0.001  -0.195  -0.171
    1UNL     H3   54   0.018   0.019   0.048
    1UNL     H4   55  -0.014   0.152  -0.161
    1UNL     H5   56  -0.154   0.093  -0.346
    1UNL     H6   57   0.042   0.159  -0.433
    1UNL     H7   58   0.365   0.194  -0.316
    1UNL     H8   59   0.439   0.138  -0.076
    1UNL     H9   60   0.299   0.239  -0.062
    1UNL    H10   61   0.210   0.015   0.162
    1UNL    H11   62   0.441   0.196   0.338
    1UNL    H12   63   0.618   0.019   0.161
    1UNL    H13   64   0.627   0.189   0.167
    1UNL    H14   65   0.789   0.048   0.319
    1UNL    H15   66   0.519  -0.035   0.439
    1UNL    H16   67   0.237   0.006   0.407
    1UNL    H17   68   0.505  -0.205   0.283
    1UNL    H18   69   0.231  -0.168   0.350
    1UNL    H19   70   0.303  -0.186   0.089
    1UNL    H20   71   0.469  -0.099  -0.051
    1UNL    H21   72   0.253  -0.082  -0.252
    1UNL    H22   73   0.534  -0.027  -0.292
    1UNL    H23   74   0.414   0.011  -0.490
    1UNL    H24   75   0.271  -0.176  -0.571
    1UNL    H25   76   0.228   0.128  -0.566
    1UNL    H26   77   0.052  -0.085  -0.534
    1UNL    H27   78  -0.400  -0.121  -0.269
    1UNL    H28   79  -0.770  -0.009  -0.183
    1UNL    H29   80  -0.724   0.130  -0.086
    1UNL    H30   81  -0.695   0.130  -0.270
    1UNL    H31   82  -0.239   0.211  -0.160
    1UNL    H32   83  -0.129   0.215   0.090
    1UNL    H33   84  -0.304   0.231   0.075
    1UNL    H34   85  -0.263   0.122   0.262
    1UNL    H35   86  -0.516   0.120   0.253
    1UNL    H36   87  -0.750   0.097   0.206
    1UNL    H37   88  -0.791  -0.183   0.108
    1UNL    H38   89  -0.473  -0.324   0.041
    1UNL    H39   90  -0.249  -0.332   0.150
    1UNL    H40   91  -0.184  -0.208   0.036
    1UNL    H41   92  -0.057  -0.223   0.240
    1UNL    H42   93  -0.189  -0.173   0.347
    1UNL    H43   94  -0.120   0.200   0.400
    1UNL    H44   95  -0.018   0.241   0.261
    1UNL    H45   96   0.040   0.193   0.429
   0.00000   0.00000   0.00000   0.00000   0.00000   0.00000   0.00000   0.00000   0.00000
Generated with MDTraj, t= 56.0
 96
    1UNL     C1    1   0.044  -0.137  -0.069
    1UNL     C2    2  -0.025  -0.029  -0.035
    1UNL     C3    3  -0.082   0.069  -0.132
    1UNL     C4    4  -0.107   0.001  -0.273
    1UNL     O1    5   0.020  -0.039  -0.336
    1UNL     C5    6   0.090   0.073  -0.375
    1UNL     O2    7   0.151   0.152  -0.274
    1UNL     C6    8   0.280   0.126  -0.227
    1UNL     C7    9   0.288   0.155  -0.075
    1UNL     O3   10   0.234   0.057   0.006
    1UNL     C8   11   0.311   0.031   0.119
    1UNL     O4   12   0.403   0.137   0.166
    1UNL     C9   13   0.497   0.099   0.270
    1UNL    C10   14   0.643   0.091   0.221
    1UNL     O5   15   0.739   0.095   0.325
    1UNL    C11   16   0.435  -0.024   0.350
    1UNL     O6   17   0.336   0.028   0.429
    1UNL    C12   18   0.404  -0.146   0.256
    1UNL     O7   19   0.296  -0.219   0.306
    1UNL    C13   20   0.387  -0.108   0.107
    1UNL     O8   21   0.516  -0.085   0.046
    1UNL    C14   22   0.318  -0.021  -0.264
    1UNL     O9   23   0.441  -0.070  -0.208
    1UNL    C15   24   0.308  -0.044  -0.417
    1UNL    O10   25   0.283  -0.180  -0.448
    1UNL    C16   26   0.193   0.041  -0.482
    1UNL    O11   27   0.139  -0.021  -0.600
    1UNL    O12   28  -0.190  -0.118  -0.251
    1UNL    C17   29  -0.314  -0.081  -0.203
    1UNL    C18   30  -0.329   0.040  -0.138
    1UNL    C19   31  -0.470   0.094  -0.124
    1UNL    O13   32  -0.495   0.191  -0.053
    1UNL    O14   33  -0.566   0.024  -0.185
    1UNL    C20   34  -0.705   0.053  -0.157
    1UNL    C21   35  -0.217   0.123  -0.090
    1UNL    C22   36  -0.228   0.164   0.061
    1UNL    C23   37  -0.249   0.062   0.180
    1UNL    C24   38  -0.371  -0.021   0.156
    1UNL    C25   39  -0.500   0.036   0.171
    1UNL    C26   40  -0.617  -0.031   0.132
    1UNL    O15   41  -0.745   0.026   0.142
    1UNL    C27   42  -0.607  -0.168   0.104
    1UNL    O16   43  -0.717  -0.244   0.059
    1UNL    C28   44  -0.482  -0.222   0.075
    1UNL    C29   45  -0.367  -0.150   0.095
    1UNL    C30   46  -0.232  -0.210   0.081
    1UNL    C31   47  -0.140  -0.165   0.193
    1UNL     N1   48  -0.133  -0.022   0.220
    1UNL    C32   49  -0.027   0.028   0.292
    1UNL    C33   50  -0.014   0.174   0.307
    1UNL    O17   51   0.064  -0.040   0.336
    1UNL     H1   52   0.074  -0.221  -0.001
    1UNL     H2   53   0.071  -0.154  -0.172
    1UNL     H3   54  -0.039  -0.005   0.066
    1UNL     H4   55  -0.004   0.142  -0.148
    1UNL     H5   56  -0.161   0.067  -0.342
    1UNL     H6   57   0.027   0.147  -0.421
    1UNL     H7   58   0.340   0.190  -0.287
    1UNL     H8   59   0.392   0.168  -0.043
    1UNL     H9   60   0.237   0.253  -0.048
    1UNL    H10   61   0.237   0.012   0.200
    1UNL    H11   62   0.490   0.184   0.340
    1UNL    H12   63   0.662  -0.006   0.171
    1UNL    H13   64   0.675   0.176   0.160
    1UNL    H14   65   0.709   0.057   0.409
    1UNL    H15   66   0.511  -0.056   0.428
    1UNL    H16   67   0.246   0.003   0.393
    1UNL    H17   68   0.488  -0.217   0.269
    1UNL    H18   69   0.214  -0.155   0.308
    1UNL    H19   70   0.331  -0.183   0.055
    1UNL    H20   71   0.496  -0.088  -0.048
    1UNL    H21   72   0.241  -0.083  -0.218
    1UNL    H22   73   0.519  -0.060  -0.274
    1UNL    H23   74   0.408  -0.020  -0.460
    1UNL    H24   75   0.241  -0.192  -0.542
    1UNL    H25   76   0.232   0.137  -0.524
    1UNL    H26   77   0.067  -0.084  -0.582
    1UNL    H27   78  -0.404  -0.128  -0.215
    1UNL    H28   79  -0.758   0.067  -0.256
    1UNL    H29   80  -0.764  -0.026  -0.103
    1UNL    H30   81  -0.707   0.150  -0.110
    1UNL    H31   82  -0.233   0.210  -0.159
    1UNL    H32   83  -0.135   0.219   0.074
    1UNL    H33   84  -0.311   0.231   0.067
    1UNL    H34   85  -0.266   0.117   0.276
    1UNL    H35   86  -0.512   0.136   0.200
    1UNL    H36   87  -0.737   0.125   0.154
    1UNL    H37   88  -0.801  -0.192   0.066
    1UNL    H38   89  -0.469  -0.318   0.036
    1UNL    H39   90  -0.248  -0.323   0.087
    1UNL    H40   91  -0.191  -0.192  -0.014
    1UNL    H41   92  -0.037  -0.205   0.190
    1UNL    H42   93  -0.176  -0.200   0.292
    1UNL    H43   94  -0.092   0.227   0.361
    1UNL    H44   95   0.016   0.217   0.211
    1UNL    H45   96   0.066   0.199   0.379
   0.00000   0.00000   0.00000   0.00000   0.00000   0.00000   0.00000   0.00000   0.00000
Generated with MDTraj, t= 57.0
 96
    1UNL     C1    1   0.021  -0.161  -0.080
    1UNL     C2    2  -0.002  -0.037  -0.039
    1UNL     C3    3  -0.084   0.063  -0.126
    1UNL     C4    4  -0.098  -0.002  -0.266
    1UNL     O1    5   0.022  -0.038  -0.337
    1UNL     C5    6   0.086   0.089  -0.376
    1UNL     O2    7   0.148   0.151  -0.251
    1UNL     C6    8   0.292   0.140  -0.234
    1UNL     C7    9   0.330   0.171  -0.087
    1UNL     O3   10   0.259   0.084  -0.003
    1UNL     C8   11   0.315   0.052   0.122
    1UNL     O4   12   0.405   0.150   0.169
    1UNL     C9   13   0.497   0.112   0.280
    1UNL    C10   14   0.631   0.082   0.234
    1UNL     O5   15   0.733   0.073   0.326
    1UNL    C11   16   0.443  -0.010   0.363
    1UNL     O6   17   0.335   0.015   0.446
    1UNL    C12   18   0.411  -0.139   0.269
    1UNL     O7   19   0.313  -0.222   0.328
    1UNL    C13   20   0.374  -0.086   0.128
    1UNL     O8   21   0.484  -0.096   0.040
    1UNL    C14   22   0.329  -0.006  -0.265
    1UNL     O9   23   0.457  -0.054  -0.226
    1UNL    C15   24   0.292  -0.047  -0.417
    1UNL    O10   25   0.253  -0.178  -0.418
    1UNL    C16   26   0.182   0.044  -0.489
    1UNL    O11   27   0.113  -0.039  -0.581
    1UNL    O12   28  -0.179  -0.116  -0.248
    1UNL    C17   29  -0.311  -0.075  -0.210
    1UNL    C18   30  -0.337   0.038  -0.135
    1UNL    C19   31  -0.470   0.089  -0.133
    1UNL    O13   32  -0.485   0.197  -0.077
    1UNL    O14   33  -0.575   0.015  -0.174
    1UNL    C20   34  -0.693   0.076  -0.163
    1UNL    C21   35  -0.226   0.125  -0.080
    1UNL    C22   36  -0.240   0.164   0.069
    1UNL    C23   37  -0.250   0.043   0.172
    1UNL    C24   38  -0.380  -0.035   0.146
    1UNL    C25   39  -0.498   0.033   0.154
    1UNL    C26   40  -0.621  -0.035   0.137
    1UNL    O15   41  -0.739   0.028   0.148
    1UNL    C27   42  -0.616  -0.171   0.090
    1UNL    O16   43  -0.734  -0.234   0.053
    1UNL    C28   44  -0.495  -0.236   0.079
    1UNL    C29   45  -0.377  -0.167   0.098
    1UNL    C30   46  -0.243  -0.233   0.104
    1UNL    C31   47  -0.149  -0.177   0.220
    1UNL     N1   48  -0.125  -0.031   0.195
    1UNL    C32   49  -0.010   0.025   0.254
    1UNL    C33   50   0.003   0.166   0.299
    1UNL    O17   51   0.097  -0.032   0.274
    1UNL     H1   52   0.091  -0.229  -0.033
    1UNL     H2   53  -0.024  -0.193  -0.164
    1UNL     H3   54   0.053   0.003   0.043
    1UNL     H4   55  -0.012   0.145  -0.129
    1UNL     H5   56  -0.158   0.064  -0.331
    1UNL     H6   57   0.019   0.169  -0.406
    1UNL     H7   58   0.339   0.202  -0.306
    1UNL     H8   59   0.438   0.161  -0.063
    1UNL     H9   60   0.298   0.275  -0.055
    1UNL    H10   61   0.232   0.056   0.197
    1UNL    H11   62   0.501   0.200   0.345
    1UNL    H12   63   0.637  -0.018   0.187
    1UNL    H13   64   0.661   0.163   0.162
    1UNL    H14   65   0.783   0.155   0.318
    1UNL    H15   66   0.525  -0.041   0.429
    1UNL    H16   67   0.246   0.002   0.406
    1UNL    H17   68   0.504  -0.202   0.255
    1UNL    H18   69   0.232  -0.177   0.327
    1UNL    H19   70   0.304  -0.151   0.084
    1UNL    H20   71   0.459  -0.080  -0.057
    1UNL    H21   72   0.257  -0.059  -0.200
    1UNL    H22   73   0.495  -0.104  -0.306
    1UNL    H23   74   0.382  -0.046  -0.480
    1UNL    H24   75   0.211  -0.190  -0.499
    1UNL    H25   76   0.232   0.128  -0.545
    1UNL    H26   77   0.025  -0.070  -0.547
    1UNL    H27   78  -0.395  -0.134  -0.249
    1UNL    H28   79  -0.693   0.156  -0.241
    1UNL    H29   80  -0.775   0.006  -0.190
    1UNL    H30   81  -0.703   0.122  -0.067
    1UNL    H31   82  -0.233   0.221  -0.138
    1UNL    H32   83  -0.154   0.229   0.085
    1UNL    H33   84  -0.326   0.224   0.077
    1UNL    H34   85  -0.256   0.081   0.278
    1UNL    H35   86  -0.502   0.132   0.203
    1UNL    H36   87  -0.727   0.119   0.188
    1UNL    H37   88  -0.814  -0.182   0.070
    1UNL    H38   89  -0.498  -0.336   0.030
    1UNL    H39   90  -0.261  -0.345   0.111
    1UNL    H40   91  -0.198  -0.209   0.011
    1UNL    H41   92  -0.043  -0.214   0.215
    1UNL    H42   93  -0.187  -0.207   0.317
    1UNL    H43   94  -0.097   0.232   0.298
    1UNL    H44   95   0.084   0.213   0.247
    1UNL    H45   96   0.021   0.176   0.407
   0.00000   0.00000   0.00000   0.00000   0.00000   0.00000   0.00000   0.00000   0.00000
Generated with MDTraj, t= 58.0
 96
    1UNL     C1    1   0.020  -0.152  -0.089
    1UNL     C2    2  -0.004  -0.033  -0.043
    1UNL     C3    3  -0.082   0.066  -0.129
    1UNL     C4    4  -0.096   0.015  -0.271
    1UNL     O1    5   0.030  -0.024  -0.326
    1UNL     C5    6   0.110   0.083  -0.370
    1UNL     O2    7   0.169   0.158  -0.264
    1UNL     C6    8   0.305   0.123  -0.243
    1UNL     C7    9   0.341   0.152  -0.098
    1UNL     O3   10   0.260   0.074  -0.015
    1UNL     C8   11   0.320   0.054   0.112
    1UNL     O4   12   0.422   0.146   0.144
    1UNL     C9   13   0.492   0.118   0.264
    1UNL    C10   14   0.636   0.093   0.236
    1UNL     O5   15   0.712   0.050   0.344
    1UNL    C11   16   0.423   0.011   0.358
    1UNL     O6   17   0.304   0.055   0.419
    1UNL    C12   18   0.407  -0.118   0.272
    1UNL     O7   19   0.315  -0.207   0.319
    1UNL    C13   20   0.384  -0.088   0.122
    1UNL     O8   21   0.511  -0.097   0.047
    1UNL    C14   22   0.339  -0.024  -0.281
    1UNL     O9   23   0.469  -0.045  -0.252
    1UNL    C15   24   0.308  -0.055  -0.439
    1UNL    O10   25   0.257  -0.184  -0.435
    1UNL    C16   26   0.197   0.043  -0.493
    1UNL    O11   27   0.123  -0.033  -0.596
    1UNL    O12   28  -0.188  -0.096  -0.273
    1UNL    C17   29  -0.315  -0.067  -0.226
    1UNL    C18   30  -0.336   0.037  -0.137
    1UNL    C19   31  -0.466   0.097  -0.135
    1UNL    O13   32  -0.485   0.212  -0.092
    1UNL    O14   33  -0.578   0.022  -0.175
    1UNL    C20   34  -0.696   0.089  -0.181
    1UNL    C21   35  -0.223   0.113  -0.070
    1UNL    C22   36  -0.235   0.152   0.078
    1UNL    C23   37  -0.256   0.045   0.193
    1UNL    C24   38  -0.385  -0.037   0.166
    1UNL    C25   39  -0.510   0.020   0.183
    1UNL    C26   40  -0.633  -0.039   0.140
    1UNL    O15   41  -0.758   0.018   0.167
    1UNL    C27   42  -0.623  -0.176   0.108
    1UNL    O16   43  -0.733  -0.241   0.060
    1UNL    C28   44  -0.499  -0.239   0.096
    1UNL    C29   45  -0.378  -0.164   0.120
    1UNL    C30   46  -0.252  -0.237   0.112
    1UNL    C31   47  -0.156  -0.190   0.229
    1UNL     N1   48  -0.128  -0.045   0.221
    1UNL    C32   49  -0.018   0.007   0.285
    1UNL    C33   50  -0.007   0.158   0.323
    1UNL    O17   51   0.076  -0.065   0.310
    1UNL     H1   52   0.074  -0.230  -0.034
    1UNL     H2   53  -0.013  -0.177  -0.193
    1UNL     H3   54   0.035  -0.005   0.058
    1UNL     H4   55  -0.013   0.150  -0.123
    1UNL     H5   56  -0.140   0.093  -0.335
    1UNL     H6   57   0.041   0.157  -0.413
    1UNL     H7   58   0.359   0.191  -0.306
    1UNL     H8   59   0.447   0.135  -0.069
    1UNL     H9   60   0.316   0.259  -0.071
    1UNL    H10   61   0.246   0.070   0.195
    1UNL    H11   62   0.488   0.214   0.318
    1UNL    H12   63   0.634   0.003   0.169
    1UNL    H13   64   0.688   0.177   0.177
    1UNL    H14   65   0.684   0.098   0.425
    1UNL    H15   66   0.483  -0.014   0.444
    1UNL    H16   67   0.231   0.005   0.375
    1UNL    H17   68   0.504  -0.177   0.285
    1UNL    H18   69   0.222  -0.160   0.316
    1UNL    H19   70   0.321  -0.157   0.079
    1UNL    H20   71   0.497  -0.059  -0.038
    1UNL    H21   72   0.280  -0.084  -0.207
    1UNL    H22   73   0.529  -0.006  -0.318
    1UNL    H23   74   0.399  -0.048  -0.498
    1UNL    H24   75   0.246  -0.220  -0.527
    1UNL    H25   76   0.243   0.134  -0.541
    1UNL    H26   77   0.065  -0.099  -0.554
    1UNL    H27   78  -0.403  -0.112  -0.285
    1UNL    H28   79  -0.677   0.195  -0.201
    1UNL    H29   80  -0.762   0.053  -0.259
    1UNL    H30   81  -0.742   0.086  -0.086
    1UNL    H31   82  -0.228   0.214  -0.114
    1UNL    H32   83  -0.163   0.232   0.106
    1UNL    H33   84  -0.325   0.204   0.091
    1UNL    H34   85  -0.274   0.104   0.285
    1UNL    H35   86  -0.514   0.115   0.228
    1UNL    H36   87  -0.754   0.112   0.192
    1UNL    H37   88  -0.806  -0.174   0.073
    1UNL    H38   89  -0.491  -0.339   0.072
    1UNL    H39   90  -0.268  -0.347   0.133
    1UNL    H40   91  -0.205  -0.223   0.016
    1UNL    H41   92  -0.065  -0.258   0.223
    1UNL    H42   93  -0.204  -0.201   0.326
    1UNL    H43   94  -0.088   0.187   0.398
    1UNL    H44   95  -0.004   0.212   0.223
    1UNL    H45   96   0.083   0.184   0.377
   0.00000   0.00000   0.00000   0.00000   0.00000   0.00000   0.00000   0.00000   0.00000
Generated with MDTraj, t= 59.0
 96
    1UNL     C1    1   0.048  -0.152  -0.072
    1UNL     C2    2  -0.033  -0.054  -0.036
    1UNL     C3    3  -0.070   0.061  -0.130
    1UNL     C4    4  -0.091   0.010  -0.275
    1UNL     O1    5   0.034  -0.024  -0.330
    1UNL     C5    6   0.103   0.086  -0.388
    1UNL     O2    7   0.171   0.174  -0.294
    1UNL     C6    8   0.309   0.135  -0.261
    1UNL     C7    9   0.341   0.148  -0.109
    1UNL     O3   10   0.268   0.061  -0.025
    1UNL     C8   11   0.332   0.050   0.102
    1UNL     O4   12   0.429   0.146   0.134
    1UNL     C9   13   0.486   0.132   0.266
    1UNL    C10   14   0.636   0.088   0.239
    1UNL     O5   15   0.706   0.074   0.366
    1UNL    C11   16   0.415   0.020   0.357
    1UNL     O6   17   0.282   0.067   0.396
    1UNL    C12   18   0.410  -0.121   0.272
    1UNL     O7   19   0.308  -0.204   0.317
    1UNL    C13   20   0.389  -0.092   0.122
    1UNL     O8   21   0.507  -0.109   0.045
    1UNL    C14   22   0.340  -0.014  -0.288
    1UNL     O9   23   0.457  -0.067  -0.244
    1UNL    C15   24   0.311  -0.051  -0.440
    1UNL    O10   25   0.299  -0.189  -0.462
    1UNL    C16   26   0.204   0.040  -0.499
    1UNL    O11   27   0.133  -0.026  -0.603
    1UNL    O12   28  -0.196  -0.093  -0.265
    1UNL    C17   29  -0.306  -0.058  -0.207
    1UNL    C18   30  -0.323   0.051  -0.133
    1UNL    C19   31  -0.456   0.110  -0.112
    1UNL    O13   32  -0.483   0.192  -0.022
    1UNL    O14   33  -0.551   0.059  -0.198
    1UNL    C20   34  -0.684   0.073  -0.158
    1UNL    C21   35  -0.208   0.123  -0.076
    1UNL    C22   36  -0.215   0.148   0.071
    1UNL    C23   37  -0.260   0.043   0.173
    1UNL    C24   38  -0.391  -0.032   0.138
    1UNL    C25   39  -0.513   0.028   0.164
    1UNL    C26   40  -0.631  -0.042   0.159
    1UNL    O15   41  -0.760   0.015   0.167
    1UNL    C27   42  -0.624  -0.178   0.120
    1UNL    O16   43  -0.738  -0.249   0.102
    1UNL    C28   44  -0.506  -0.237   0.094
    1UNL    C29   45  -0.383  -0.169   0.096
    1UNL    C30   46  -0.255  -0.238   0.098
    1UNL    C31   47  -0.160  -0.193   0.213
    1UNL     N1   48  -0.151  -0.050   0.229
    1UNL    C32   49  -0.049   0.001   0.300
    1UNL    C33   50  -0.039   0.147   0.333
    1UNL    O17   51   0.042  -0.068   0.340
    1UNL     H1   52   0.069  -0.236  -0.021
    1UNL     H2   53   0.090  -0.153  -0.171
    1UNL     H3   54  -0.071  -0.059   0.064
    1UNL     H4   55   0.019   0.119  -0.136
    1UNL     H5   56  -0.120   0.092  -0.340
    1UNL     H6   57   0.028   0.146  -0.443
    1UNL     H7   58   0.372   0.200  -0.322
    1UNL     H8   59   0.446   0.125  -0.091
    1UNL     H9   60   0.322   0.250  -0.067
    1UNL    H10   61   0.259   0.067   0.186
    1UNL    H11   62   0.491   0.231   0.314
    1UNL    H12   63   0.640   0.001   0.167
    1UNL    H13   64   0.678   0.176   0.176
    1UNL    H14   65   0.799   0.112   0.373
    1UNL    H15   66   0.467   0.001   0.447
    1UNL    H16   67   0.200   0.015   0.374
    1UNL    H17   68   0.507  -0.173   0.292
    1UNL    H18   69   0.220  -0.172   0.314
    1UNL    H19   70   0.317  -0.157   0.084
    1UNL    H20   71   0.494  -0.095  -0.056
    1UNL    H21   72   0.256  -0.073  -0.241
    1UNL    H22   73   0.450  -0.160  -0.232
    1UNL    H23   74   0.399  -0.034  -0.503
    1UNL    H24   75   0.270  -0.210  -0.562
    1UNL    H25   76   0.253   0.130  -0.546
    1UNL    H26   77   0.065  -0.079  -0.556
    1UNL    H27   78  -0.400  -0.098  -0.240
    1UNL    H28   79  -0.725   0.169  -0.188
    1UNL    H29   80  -0.751  -0.003  -0.198
    1UNL    H30   81  -0.682   0.078  -0.053
    1UNL    H31   82  -0.211   0.223  -0.118
    1UNL    H32   83  -0.111   0.189   0.095
    1UNL    H33   84  -0.269   0.237   0.092
    1UNL    H34   85  -0.296   0.108   0.255
    1UNL    H35   86  -0.517   0.128   0.206
    1UNL    H36   87  -0.749   0.108   0.188
    1UNL    H37   88  -0.814  -0.190   0.125
    1UNL    H38   89  -0.511  -0.332   0.036
    1UNL    H39   90  -0.268  -0.347   0.118
    1UNL    H40   91  -0.203  -0.221   0.002
    1UNL    H41   92  -0.053  -0.224   0.186
    1UNL    H42   93  -0.187  -0.239   0.305
    1UNL    H43   94  -0.124   0.199   0.300
    1UNL    H44   95   0.060   0.181   0.280
    1UNL    H45   96  -0.041   0.165   0.443
   0.00000   0.00000   0.00000   0.00000   0.00000   0.00000   0.00000   0.00000   0.00000
Generated with MDTraj, t= 60.0
 96
    1UNL     C1    1   0.048  -0.176  -0.084
    1UNL     C2    2   0.023  -0.053  -0.045
    1UNL     C3    3  -0.056   0.049  -0.125
    1UNL     C4    4  -0.080   0.012  -0.271
    1UNL     O1    5   0.041  -0.020  -0.338
    1UNL     C5    6   0.105   0.093  -0.397
    1UNL     O2    7   0.177   0.174  -0.299
    1UNL     C6    8   0.306   0.121  -0.258
    1UNL     C7    9   0.341   0.138  -0.107
    1UNL     O3   10   0.256   0.064  -0.022
    1UNL     C8   11   0.311   0.061   0.108
    1UNL     O4   12   0.419   0.150   0.134
    1UNL     C9   13   0.476   0.127   0.261
    1UNL    C10   14   0.626   0.085   0.241
    1UNL     O5   15   0.706   0.106   0.355
    1UNL    C11   16   0.406   0.021   0.354
    1UNL     O6   17   0.285   0.082   0.398
    1UNL    C12   18   0.389  -0.113   0.279
    1UNL     O7   19   0.294  -0.194   0.341
    1UNL    C13   20   0.353  -0.088   0.135
    1UNL     O8   21   0.461  -0.110   0.044
    1UNL    C14   22   0.327  -0.027  -0.298
    1UNL     O9   23   0.442  -0.078  -0.236
    1UNL    C15   24   0.327  -0.039  -0.458
    1UNL    O10   25   0.329  -0.175  -0.505
    1UNL    C16   26   0.200   0.040  -0.512
    1UNL    O11   27   0.113  -0.047  -0.586
    1UNL    O12   28  -0.175  -0.092  -0.275
    1UNL    C17   29  -0.298  -0.046  -0.243
    1UNL    C18   30  -0.311   0.049  -0.143
    1UNL    C19   31  -0.439   0.109  -0.129
    1UNL    O13   32  -0.454   0.220  -0.073
    1UNL    O14   33  -0.553   0.037  -0.161
    1UNL    C20   34  -0.662   0.115  -0.146
    1UNL    C21   35  -0.195   0.119  -0.080
    1UNL    C22   36  -0.219   0.144   0.069
    1UNL    C23   37  -0.260   0.038   0.178
    1UNL    C24   38  -0.389  -0.039   0.154
    1UNL    C25   39  -0.512   0.017   0.191
    1UNL    C26   40  -0.637  -0.044   0.171
    1UNL    O15   41  -0.762   0.003   0.197
    1UNL    C27   42  -0.629  -0.178   0.132
    1UNL    O16   43  -0.751  -0.249   0.108
    1UNL    C28   44  -0.500  -0.234   0.094
    1UNL    C29   45  -0.381  -0.168   0.109
    1UNL    C30   46  -0.247  -0.235   0.090
    1UNL    C31   47  -0.166  -0.200   0.209
    1UNL     N1   48  -0.152  -0.049   0.216
    1UNL    C32   49  -0.047  -0.010   0.305
    1UNL    C33   50  -0.041   0.117   0.381
    1UNL    O17   51   0.053  -0.080   0.314
    1UNL     H1   52   0.116  -0.246  -0.033
    1UNL     H2   53   0.002  -0.213  -0.180
    1UNL     H3   54   0.065  -0.018   0.043
    1UNL     H4   55   0.015   0.128  -0.119
    1UNL     H5   56  -0.115   0.104  -0.317
    1UNL     H6   57   0.026   0.159  -0.439
    1UNL     H7   58   0.375   0.193  -0.308
    1UNL     H8   59   0.442   0.113  -0.080
    1UNL     H9   60   0.325   0.243  -0.080
    1UNL    H10   61   0.239   0.091   0.189
    1UNL    H11   62   0.466   0.226   0.309
    1UNL    H12   63   0.619  -0.024   0.215
    1UNL    H13   64   0.674   0.130   0.146
    1UNL    H14   65   0.675   0.059   0.435
    1UNL    H15   66   0.462   0.008   0.443
    1UNL    H16   67   0.210   0.021   0.376
    1UNL    H17   68   0.485  -0.166   0.283
    1UNL    H18   69   0.202  -0.147   0.330
    1UNL    H19   70   0.280  -0.153   0.102
    1UNL    H20   71   0.434  -0.106  -0.047
    1UNL    H21   72   0.248  -0.089  -0.248
    1UNL    H22   73   0.526  -0.048  -0.276
    1UNL    H23   74   0.418   0.013  -0.486
    1UNL    H24   75   0.275  -0.189  -0.578
    1UNL    H25   76   0.230   0.128  -0.569
    1UNL    H26   77   0.042  -0.071  -0.521
    1UNL    H27   78  -0.370  -0.098  -0.296
    1UNL    H28   79  -0.643   0.221  -0.174
    1UNL    H29   80  -0.744   0.079  -0.209
    1UNL    H30   81  -0.686   0.111  -0.042
    1UNL    H31   82  -0.193   0.218  -0.126
    1UNL    H32   83  -0.127   0.202   0.099
    1UNL    H33   84  -0.289   0.222   0.070
    1UNL    H34   85  -0.277   0.087   0.274
    1UNL    H35   86  -0.513   0.119   0.227
    1UNL    H36   87  -0.750   0.098   0.206
    1UNL    H37   88  -0.830  -0.195   0.130
    1UNL    H38   89  -0.500  -0.323   0.035
    1UNL    H39   90  -0.257  -0.345   0.080
    1UNL    H40   91  -0.194  -0.190   0.002
    1UNL    H41   92  -0.060  -0.246   0.210
    1UNL    H42   93  -0.217  -0.215   0.301
    1UNL    H43   94  -0.131   0.171   0.388
    1UNL    H44   95   0.038   0.183   0.332
    1UNL    H45   96  -0.024   0.107   0.494
   0.00000   0.00000   0.00000   0.00000   0.00000   0.00000   0.00000   0.00000   0.00000
Generated with MDTraj, t= 61.0
 96
    1UNL     C1    1   0.013  -0.194  -0.093
    1UNL     C2    2  -0.008  -0.076  -0.037
    1UNL     C3    3  -0.055   0.050  -0.112
    1UNL     C4    4  -0.085   0.012  -0.260
    1UNL     O1    5   0.039  -0.016  -0.337
    1UNL     C5    6   0.116   0.095  -0.391
    1UNL     O2    7   0.187   0.174  -0.293
    1UNL     C6    8   0.307   0.122  -0.252
    1UNL     C7    9   0.325   0.143  -0.101
    1UNL     O3   10   0.250   0.049  -0.032
    1UNL     C8   11   0.296   0.053   0.103
    1UNL     O4   12   0.394   0.157   0.138
    1UNL     C9   13   0.465   0.140   0.260
    1UNL    C10   14   0.611   0.129   0.228
    1UNL     O5   15   0.686   0.105   0.345
    1UNL    C11   16   0.412   0.036   0.354
    1UNL     O6   17   0.283   0.068   0.405
    1UNL    C12   18   0.401  -0.104   0.282
    1UNL     O7   19   0.318  -0.194   0.366
    1UNL    C13   20   0.339  -0.090   0.138
    1UNL     O8   21   0.429  -0.136   0.038
    1UNL    C14   22   0.328  -0.026  -0.303
    1UNL     O9   23   0.444  -0.089  -0.243
    1UNL    C15   24   0.338  -0.025  -0.458
    1UNL    O10   25   0.353  -0.161  -0.497
    1UNL    C16   26   0.203   0.043  -0.509
    1UNL    O11   27   0.132  -0.055  -0.592
    1UNL    O12   28  -0.178  -0.107  -0.252
    1UNL    C17   29  -0.296  -0.057  -0.204
    1UNL    C18   30  -0.308   0.058  -0.129
    1UNL    C19   31  -0.441   0.117  -0.127
    1UNL    O13   32  -0.457   0.236  -0.105
    1UNL    O14   33  -0.545   0.040  -0.146
    1UNL    C20   34  -0.660   0.115  -0.157
    1UNL    C21   35  -0.190   0.119  -0.068
    1UNL    C22   36  -0.215   0.145   0.081
    1UNL    C23   37  -0.254   0.033   0.177
    1UNL    C24   38  -0.385  -0.038   0.142
    1UNL    C25   39  -0.507   0.020   0.189
    1UNL    C26   40  -0.623  -0.042   0.172
    1UNL    O15   41  -0.740   0.001   0.225
    1UNL    C27   42  -0.623  -0.167   0.114
    1UNL    O16   43  -0.749  -0.228   0.108
    1UNL    C28   44  -0.506  -0.233   0.073
    1UNL    C29   45  -0.385  -0.169   0.091
    1UNL    C30   46  -0.255  -0.237   0.074
    1UNL    C31   47  -0.161  -0.202   0.191
    1UNL     N1   48  -0.139  -0.058   0.218
    1UNL    C32   49  -0.033  -0.016   0.298
    1UNL    C33   50  -0.034   0.116   0.368
    1UNL    O17   51   0.063  -0.091   0.297
    1UNL     H1   52   0.044  -0.279  -0.038
    1UNL     H2   53  -0.008  -0.206  -0.191
    1UNL     H3   54   0.019  -0.058   0.069
    1UNL     H4   55   0.030   0.113  -0.109
    1UNL     H5   56  -0.136   0.089  -0.320
    1UNL     H6   57   0.036   0.162  -0.433
    1UNL     H7   58   0.382   0.194  -0.300
    1UNL     H8   59   0.427   0.131  -0.074
    1UNL     H9   60   0.286   0.236  -0.062
    1UNL    H10   61   0.209   0.075   0.170
    1UNL    H11   62   0.447   0.238   0.310
    1UNL    H12   63   0.638   0.048   0.158
    1UNL    H13   64   0.649   0.225   0.181
    1UNL    H14   65   0.708   0.012   0.355
    1UNL    H15   66   0.480   0.031   0.439
    1UNL    H16   67   0.204   0.021   0.371
    1UNL    H17   68   0.498  -0.151   0.284
    1UNL    H18   69   0.226  -0.174   0.344
    1UNL    H19   70   0.259  -0.156   0.129
    1UNL    H20   71   0.406  -0.091  -0.051
    1UNL    H21   72   0.239  -0.097  -0.287
    1UNL    H22   73   0.504  -0.135  -0.313
    1UNL    H23   74   0.419   0.036  -0.501
    1UNL    H24   75   0.334  -0.170  -0.598
    1UNL    H25   76   0.228   0.114  -0.586
    1UNL    H26   77   0.078  -0.111  -0.534
    1UNL    H27   78  -0.389  -0.101  -0.247
    1UNL    H28   79  -0.643   0.203  -0.226
    1UNL    H29   80  -0.745   0.055  -0.195
    1UNL    H30   81  -0.678   0.156  -0.057
    1UNL    H31   82  -0.190   0.217  -0.118
    1UNL    H32   83  -0.124   0.192   0.125
    1UNL    H33   84  -0.286   0.223   0.085
    1UNL    H34   85  -0.266   0.081   0.275
    1UNL    H35   86  -0.506   0.096   0.262
    1UNL    H36   87  -0.749   0.095   0.257
    1UNL    H37   88  -0.811  -0.179   0.168
    1UNL    H38   89  -0.512  -0.328   0.024
    1UNL    H39   90  -0.278  -0.342   0.073
    1UNL    H40   91  -0.220  -0.204  -0.030
    1UNL    H41   92  -0.049  -0.235   0.193
    1UNL    H42   93  -0.204  -0.240   0.279
    1UNL    H43   94  -0.137   0.138   0.416
    1UNL    H44   95  -0.011   0.192   0.297
    1UNL    H45   96   0.033   0.123   0.462
   0.00000   0.00000   0.00000   0.00000   0.00000   0.00000   0.00000   0.00000   0.00000
Generated with MDTraj, t= 62.0
 96
    1UNL     C1    1   0.058  -0.159  -0.074
    1UNL     C2    2  -0.012  -0.055  -0.038
    1UNL     C3    3  -0.062   0.043  -0.132
    1UNL     C4    4  -0.082  -0.010  -0.274
    1UNL     O1    5   0.037  -0.049  -0.349
    1UNL     C5    6   0.101   0.076  -0.391
    1UNL     O2    7   0.158   0.166  -0.285
    1UNL     C6    8   0.290   0.135  -0.241
    1UNL     C7    9   0.312   0.150  -0.094
    1UNL     O3   10   0.238   0.060  -0.011
    1UNL     C8   11   0.296   0.040   0.115
    1UNL     O4   12   0.374   0.161   0.139
    1UNL     C9   13   0.458   0.142   0.260
    1UNL    C10   14   0.602   0.107   0.222
    1UNL     O5   15   0.680   0.121   0.337
    1UNL    C11   16   0.405   0.031   0.356
    1UNL     O6   17   0.276   0.057   0.410
    1UNL    C12   18   0.408  -0.109   0.291
    1UNL     O7   19   0.326  -0.206   0.367
    1UNL    C13   20   0.367  -0.096   0.143
    1UNL     O8   21   0.475  -0.118   0.057
    1UNL    C14   22   0.323  -0.008  -0.296
    1UNL     O9   23   0.444  -0.074  -0.249
    1UNL    C15   24   0.322  -0.026  -0.448
    1UNL    O10   25   0.350  -0.161  -0.485
    1UNL    C16   26   0.190   0.034  -0.508
    1UNL    O11   27   0.126  -0.053  -0.588
    1UNL    O12   28  -0.186  -0.108  -0.281
    1UNL    C17   29  -0.304  -0.056  -0.236
    1UNL    C18   30  -0.307   0.058  -0.156
    1UNL    C19   31  -0.440   0.111  -0.119
    1UNL    O13   32  -0.453   0.194  -0.029
    1UNL    O14   33  -0.540   0.057  -0.180
    1UNL    C20   34  -0.664   0.104  -0.128
    1UNL    C21   35  -0.191   0.114  -0.084
    1UNL    C22   36  -0.200   0.139   0.075
    1UNL    C23   37  -0.249   0.037   0.179
    1UNL    C24   38  -0.378  -0.027   0.151
    1UNL    C25   39  -0.500   0.039   0.175
    1UNL    C26   40  -0.619  -0.028   0.165
    1UNL    O15   41  -0.739   0.024   0.201
    1UNL    C27   42  -0.626  -0.164   0.113
    1UNL    O16   43  -0.755  -0.211   0.092
    1UNL    C28   44  -0.504  -0.219   0.077
    1UNL    C29   45  -0.381  -0.160   0.104
    1UNL    C30   46  -0.258  -0.234   0.067
    1UNL    C31   47  -0.158  -0.211   0.185
    1UNL     N1   48  -0.139  -0.067   0.221
    1UNL    C32   49  -0.028  -0.032   0.288
    1UNL    C33   50  -0.011   0.109   0.349
    1UNL    O17   51   0.065  -0.105   0.303
    1UNL     H1   52   0.094  -0.229   0.009
    1UNL     H2   53   0.082  -0.176  -0.179
    1UNL     H3   54  -0.037  -0.039   0.068
    1UNL     H4   55   0.020   0.111  -0.140
    1UNL     H5   56  -0.130   0.072  -0.332
    1UNL     H6   57   0.017   0.145  -0.425
    1UNL     H7   58   0.349   0.218  -0.292
    1UNL     H8   59   0.415   0.143  -0.063
    1UNL     H9   60   0.275   0.248  -0.065
    1UNL    H10   61   0.206   0.045   0.179
    1UNL    H11   62   0.465   0.235   0.319
    1UNL    H12   63   0.616   0.006   0.191
    1UNL    H13   64   0.655   0.169   0.147
    1UNL    H14   65   0.763   0.168   0.313
    1UNL    H15   66   0.474   0.029   0.443
    1UNL    H16   67   0.211  -0.005   0.366
    1UNL    H17   68   0.507  -0.148   0.301
    1UNL    H18   69   0.227  -0.188   0.347
    1UNL    H19   70   0.309  -0.179   0.120
    1UNL    H20   71   0.445  -0.093  -0.034
    1UNL    H21   72   0.241  -0.074  -0.251
    1UNL    H22   73   0.449  -0.164  -0.281
    1UNL    H23   74   0.406   0.039  -0.480
    1UNL    H24   75   0.295  -0.194  -0.559
    1UNL    H25   76   0.219   0.124  -0.559
    1UNL    H26   77   0.072  -0.113  -0.530
    1UNL    H27   78  -0.404  -0.085  -0.284
    1UNL    H28   79  -0.748   0.104  -0.203
    1UNL    H29   80  -0.695   0.052  -0.037
    1UNL    H30   81  -0.640   0.209  -0.109
    1UNL    H31   82  -0.192   0.217  -0.123
    1UNL    H32   83  -0.100   0.166   0.112
    1UNL    H33   84  -0.258   0.225   0.090
    1UNL    H34   85  -0.262   0.091   0.273
    1UNL    H35   86  -0.486   0.134   0.232
    1UNL    H36   87  -0.717   0.117   0.232
    1UNL    H37   88  -0.818  -0.138   0.103
    1UNL    H38   89  -0.508  -0.313   0.018
    1UNL    H39   90  -0.280  -0.339   0.052
    1UNL    H40   91  -0.222  -0.195  -0.034
    1UNL    H41   92  -0.061  -0.271   0.159
    1UNL    H42   93  -0.181  -0.246   0.282
    1UNL    H43   94  -0.111   0.165   0.375
    1UNL    H44   95   0.025   0.171   0.272
    1UNL    H45   96   0.051   0.112   0.443
   0.00000   0.00000   0.00000   0.00000   0.00000   0.00000   0.00000   0.00000   0.00000
Generated with MDTraj, t= 63.0
 96
    1UNL     C1    1   0.043  -0.182  -0.135
    1UNL     C2    2  -0.009  -0.079  -0.067
    1UNL     C3    3  -0.064   0.044  -0.132
    1UNL     C4    4  -0.098  -0.006  -0.281
    1UNL     O1    5   0.022  -0.044  -0.352
    1UNL     C5    6   0.097   0.073  -0.393
    1UNL     O2    7   0.147   0.151  -0.282
    1UNL     C6    8   0.287   0.132  -0.246
    1UNL     C7    9   0.304   0.150  -0.094
    1UNL     O3   10   0.250   0.046  -0.012
    1UNL     C8   11   0.305   0.039   0.118
    1UNL     O4   12   0.373   0.156   0.157
    1UNL     C9   13   0.458   0.134   0.273
    1UNL    C10   14   0.602   0.146   0.223
    1UNL     O5   15   0.701   0.135   0.325
    1UNL    C11   16   0.422   0.010   0.358
    1UNL     O6   17   0.302   0.034   0.434
    1UNL    C12   18   0.419  -0.123   0.277
    1UNL     O7   19   0.317  -0.218   0.318
    1UNL    C13   20   0.392  -0.090   0.126
    1UNL     O8   21   0.526  -0.070   0.074
    1UNL    C14   22   0.325  -0.018  -0.280
    1UNL     O9   23   0.458  -0.047  -0.227
    1UNL    C15   24   0.331  -0.043  -0.434
    1UNL    O10   25   0.331  -0.181  -0.472
    1UNL    C16   26   0.206   0.038  -0.503
    1UNL    O11   27   0.153  -0.044  -0.608
    1UNL    O12   28  -0.197  -0.110  -0.268
    1UNL    C17   29  -0.316  -0.061  -0.214
    1UNL    C18   30  -0.320   0.039  -0.122
    1UNL    C19   31  -0.452   0.095  -0.109
    1UNL    O13   32  -0.469   0.193  -0.035
    1UNL    O14   33  -0.566   0.042  -0.163
    1UNL    C20   34  -0.685   0.123  -0.146
    1UNL    C21   35  -0.202   0.105  -0.066
    1UNL    C22   36  -0.213   0.142   0.086
    1UNL    C23   37  -0.245   0.032   0.189
    1UNL    C24   38  -0.379  -0.038   0.164
    1UNL    C25   39  -0.489   0.043   0.190
    1UNL    C26   40  -0.610  -0.016   0.156
    1UNL    O15   41  -0.736   0.048   0.174
    1UNL    C27   42  -0.628  -0.146   0.105
    1UNL    O16   43  -0.753  -0.200   0.073
    1UNL    C28   44  -0.512  -0.215   0.070
    1UNL    C29   45  -0.390  -0.162   0.110
    1UNL    C30   46  -0.262  -0.237   0.082
    1UNL    C31   47  -0.163  -0.206   0.194
    1UNL     N1   48  -0.128  -0.060   0.198
    1UNL    C32   49  -0.025  -0.026   0.286
    1UNL    C33   50  -0.034   0.117   0.348
    1UNL    O17   51   0.068  -0.097   0.319
    1UNL     H1   52   0.106  -0.249  -0.089
    1UNL     H2   53   0.018  -0.203  -0.235
    1UNL     H3   54   0.015  -0.073   0.036
    1UNL     H4   55   0.009   0.120  -0.133
    1UNL     H5   56  -0.149   0.078  -0.332
    1UNL     H6   57   0.013   0.130  -0.449
    1UNL     H7   58   0.342   0.208  -0.308
    1UNL     H8   59   0.410   0.159  -0.067
    1UNL     H9   60   0.253   0.237  -0.048
    1UNL    H10   61   0.216   0.022   0.183
    1UNL    H11   62   0.422   0.221   0.331
    1UNL    H12   63   0.629   0.066   0.158
    1UNL    H13   64   0.611   0.234   0.162
    1UNL    H14   65   0.658   0.095   0.407
    1UNL    H15   66   0.499  -0.001   0.440
    1UNL    H16   67   0.221  -0.005   0.394
    1UNL    H17   68   0.511  -0.175   0.285
    1UNL    H18   69   0.225  -0.184   0.313
    1UNL    H19   70   0.354  -0.172   0.072
    1UNL    H20   71   0.516  -0.066  -0.022
    1UNL    H21   72   0.252  -0.093  -0.237
    1UNL    H22   73   0.487  -0.132  -0.260
    1UNL    H23   74   0.428  -0.005  -0.477
    1UNL    H24   75   0.303  -0.191  -0.567
    1UNL    H25   76   0.243   0.125  -0.557
    1UNL    H26   77   0.075  -0.090  -0.575
    1UNL    H27   78  -0.396  -0.109  -0.264
    1UNL    H28   79  -0.773   0.062  -0.117
    1UNL    H29   80  -0.670   0.202  -0.075
    1UNL    H30   81  -0.697   0.159  -0.247
    1UNL    H31   82  -0.211   0.210  -0.102
    1UNL    H32   83  -0.121   0.195   0.104
    1UNL    H33   84  -0.289   0.214   0.099
    1UNL    H34   85  -0.263   0.079   0.286
    1UNL    H35   86  -0.487   0.142   0.225
    1UNL    H36   87  -0.721   0.144   0.192
    1UNL    H37   88  -0.817  -0.135   0.113
    1UNL    H38   89  -0.527  -0.294   0.005
    1UNL    H39   90  -0.273  -0.345   0.082
    1UNL    H40   91  -0.214  -0.204  -0.014
    1UNL    H41   92  -0.062  -0.264   0.191
    1UNL    H42   93  -0.207  -0.237   0.286
    1UNL    H43   94  -0.080   0.191   0.285
    1UNL    H44   95   0.067   0.163   0.348
    1UNL    H45   96  -0.086   0.115   0.448
   0.00000   0.00000   0.00000   0.00000   0.00000   0.00000   0.00000   0.00000   0.00000
Generated with MDTraj, t= 64.0
 96
    1UNL     C1    1  -0.013  -0.215  -0.085
    1UNL     C2    2  -0.041  -0.089  -0.054
    1UNL     C3    3  -0.071   0.030  -0.137
    1UNL     C4    4  -0.100  -0.008  -0.286
    1UNL     O1    5   0.023  -0.035  -0.349
    1UNL     C5    6   0.102   0.076  -0.380
    1UNL     O2    7   0.152   0.151  -0.264
    1UNL     C6    8   0.291   0.124  -0.236
    1UNL     C7    9   0.313   0.145  -0.088
    1UNL     O3   10   0.242   0.048  -0.013
    1UNL     C8   11   0.291   0.037   0.120
    1UNL     O4   12   0.361   0.146   0.171
    1UNL     C9   13   0.451   0.124   0.285
    1UNL    C10   14   0.596   0.160   0.243
    1UNL     O5   15   0.673   0.177   0.365
    1UNL    C11   16   0.447  -0.014   0.357
    1UNL     O6   17   0.331  -0.013   0.440
    1UNL    C12   18   0.441  -0.129   0.257
    1UNL     O7   19   0.363  -0.243   0.297
    1UNL    C13   20   0.389  -0.084   0.118
    1UNL     O8   21   0.505  -0.043   0.040
    1UNL    C14   22   0.330  -0.021  -0.276
    1UNL     O9   23   0.465  -0.047  -0.238
    1UNL    C15   24   0.313  -0.043  -0.429
    1UNL    O10   25   0.291  -0.174  -0.448
    1UNL    C16   26   0.204   0.044  -0.497
    1UNL    O11   27   0.134  -0.037  -0.588
    1UNL    O12   28  -0.208  -0.105  -0.295
    1UNL    C17   29  -0.314  -0.058  -0.234
    1UNL    C18   30  -0.323   0.038  -0.135
    1UNL    C19   31  -0.453   0.103  -0.128
    1UNL    O13   32  -0.463   0.219  -0.088
    1UNL    O14   33  -0.559   0.028  -0.156
    1UNL    C20   34  -0.683   0.099  -0.153
    1UNL    C21   35  -0.201   0.109  -0.088
    1UNL    C22   36  -0.192   0.144   0.067
    1UNL    C23   37  -0.240   0.041   0.185
    1UNL    C24   38  -0.379  -0.019   0.163
    1UNL    C25   39  -0.499   0.048   0.177
    1UNL    C26   40  -0.620  -0.011   0.144
    1UNL    O15   41  -0.736   0.050   0.176
    1UNL    C27   42  -0.622  -0.146   0.089
    1UNL    O16   43  -0.743  -0.200   0.060
    1UNL    C28   44  -0.505  -0.219   0.088
    1UNL    C29   45  -0.386  -0.153   0.114
    1UNL    C30   46  -0.261  -0.245   0.109
    1UNL    C31   47  -0.158  -0.205   0.217
    1UNL     N1   48  -0.129  -0.053   0.218
    1UNL    C32   49  -0.013  -0.013   0.289
    1UNL    C33   50  -0.015   0.113   0.364
    1UNL    O17   51   0.087  -0.081   0.281
    1UNL     H1   52  -0.005  -0.293  -0.011
    1UNL     H2   53  -0.002  -0.255  -0.191
    1UNL     H3   54  -0.053  -0.073   0.050
    1UNL     H4   55   0.023   0.077  -0.149
    1UNL     H5   56  -0.134   0.078  -0.346
    1UNL     H6   57   0.025   0.147  -0.431
    1UNL     H7   58   0.352   0.195  -0.295
    1UNL     H8   59   0.419   0.145  -0.052
    1UNL     H9   60   0.270   0.245  -0.058
    1UNL    H10   61   0.201   0.016   0.182
    1UNL    H11   62   0.429   0.203   0.359
    1UNL    H12   63   0.627   0.081   0.177
    1UNL    H13   64   0.605   0.246   0.185
    1UNL    H14   65   0.772   0.173   0.356
    1UNL    H15   66   0.539  -0.019   0.425
    1UNL    H16   67   0.252  -0.035   0.386
    1UNL    H17   68   0.538  -0.171   0.243
    1UNL    H18   69   0.265  -0.211   0.298
    1UNL    H19   70   0.342  -0.166   0.067
    1UNL    H20   71   0.491  -0.036  -0.058
    1UNL    H21   72   0.273  -0.096  -0.209
    1UNL    H22   73   0.507  -0.122  -0.295
    1UNL    H23   74   0.408  -0.017  -0.481
    1UNL    H24   75   0.279  -0.187  -0.552
    1UNL    H25   76   0.239   0.139  -0.543
    1UNL    H26   77   0.087  -0.100  -0.525
    1UNL    H27   78  -0.401  -0.098  -0.278
    1UNL    H28   79  -0.750   0.060  -0.076
    1UNL    H29   80  -0.663   0.202  -0.132
    1UNL    H30   81  -0.728   0.086  -0.250
    1UNL    H31   82  -0.196   0.210  -0.134
    1UNL    H32   83  -0.086   0.156   0.075
    1UNL    H33   84  -0.228   0.240   0.092
    1UNL    H34   85  -0.264   0.091   0.281
    1UNL    H35   86  -0.498   0.149   0.219
    1UNL    H36   87  -0.723   0.147   0.172
    1UNL    H37   88  -0.808  -0.137   0.098
    1UNL    H38   89  -0.497  -0.323   0.045
    1UNL    H39   90  -0.296  -0.347   0.130
    1UNL    H40   91  -0.208  -0.243   0.016
    1UNL    H41   92  -0.052  -0.255   0.217
    1UNL    H42   93  -0.202  -0.224   0.312
    1UNL    H43   94  -0.033   0.189   0.296
    1UNL    H44   95   0.095   0.140   0.390
    1UNL    H45   96  -0.086   0.102   0.446
   0.00000   0.00000   0.00000   0.00000   0.00000   0.00000   0.00000   0.00000   0.00000
Generated with MDTraj, t= 65.0
 96
    1UNL     C1    1   0.035  -0.209  -0.110
    1UNL     C2    2  -0.017  -0.101  -0.050
    1UNL     C3    3  -0.060   0.026  -0.119
    1UNL     C4    4  -0.087  -0.006  -0.274
    1UNL     O1    5   0.033  -0.037  -0.344
    1UNL     C5    6   0.092   0.085  -0.384
    1UNL     O2    7   0.156   0.173  -0.286
    1UNL     C6    8   0.285   0.124  -0.242
    1UNL     C7    9   0.311   0.148  -0.098
    1UNL     O3   10   0.254   0.045  -0.016
    1UNL     C8   11   0.305   0.030   0.114
    1UNL     O4   12   0.336   0.147   0.186
    1UNL     C9   13   0.435   0.130   0.292
    1UNL    C10   14   0.583   0.161   0.252
    1UNL     O5   15   0.660   0.186   0.369
    1UNL    C11   16   0.429  -0.014   0.354
    1UNL     O6   17   0.320  -0.019   0.450
    1UNL    C12   18   0.429  -0.132   0.249
    1UNL     O7   19   0.334  -0.235   0.264
    1UNL    C13   20   0.414  -0.078   0.108
    1UNL     O8   21   0.531  -0.037   0.032
    1UNL    C14   22   0.325  -0.022  -0.276
    1UNL     O9   23   0.448  -0.067  -0.232
    1UNL    C15   24   0.305  -0.044  -0.431
    1UNL    O10   25   0.280  -0.180  -0.460
    1UNL    C16   26   0.193   0.050  -0.493
    1UNL    O11   27   0.127  -0.025  -0.596
    1UNL    O12   28  -0.184  -0.106  -0.278
    1UNL    C17   29  -0.300  -0.068  -0.218
    1UNL    C18   30  -0.318   0.036  -0.132
    1UNL    C19   31  -0.445   0.107  -0.126
    1UNL    O13   32  -0.462   0.211  -0.058
    1UNL    O14   33  -0.547   0.043  -0.191
    1UNL    C20   34  -0.673   0.103  -0.169
    1UNL    C21   35  -0.191   0.093  -0.074
    1UNL    C22   36  -0.195   0.135   0.075
    1UNL    C23   37  -0.246   0.038   0.185
    1UNL    C24   38  -0.378  -0.036   0.160
    1UNL    C25   39  -0.491   0.043   0.168
    1UNL    C26   40  -0.619  -0.011   0.147
    1UNL    O15   41  -0.729   0.075   0.157
    1UNL    C27   42  -0.632  -0.151   0.116
    1UNL    O16   43  -0.759  -0.204   0.089
    1UNL    C28   44  -0.518  -0.222   0.096
    1UNL    C29   45  -0.389  -0.170   0.122
    1UNL    C30   46  -0.256  -0.245   0.124
    1UNL    C31   47  -0.168  -0.196   0.238
    1UNL     N1   48  -0.134  -0.056   0.218
    1UNL    C32   49  -0.011  -0.013   0.280
    1UNL    C33   50   0.019   0.130   0.311
    1UNL    O17   51   0.067  -0.105   0.301
    1UNL     H1   52   0.069  -0.294  -0.060
    1UNL     H2   53   0.053  -0.204  -0.215
    1UNL     H3   54  -0.020  -0.105   0.062
    1UNL     H4   55   0.021   0.092  -0.094
    1UNL     H5   56  -0.137   0.082  -0.317
    1UNL     H6   57   0.001   0.140  -0.434
    1UNL     H7   58   0.358   0.184  -0.296
    1UNL     H8   59   0.423   0.141  -0.088
    1UNL     H9   60   0.278   0.250  -0.061
    1UNL    H10   61   0.216  -0.006   0.173
    1UNL    H11   62   0.407   0.205   0.367
    1UNL    H12   63   0.625   0.081   0.197
    1UNL    H13   64   0.579   0.239   0.183
    1UNL    H14   65   0.611   0.218   0.445
    1UNL    H15   66   0.517  -0.031   0.422
    1UNL    H16   67   0.234  -0.054   0.415
    1UNL    H17   68   0.522  -0.187   0.252
    1UNL    H18   69   0.247  -0.200   0.267
    1UNL    H19   70   0.371  -0.159   0.046
    1UNL    H20   71   0.514  -0.037  -0.064
    1UNL    H21   72   0.257  -0.097  -0.222
    1UNL    H22   73   0.488  -0.123  -0.310
    1UNL    H23   74   0.401  -0.028  -0.483
    1UNL    H24   75   0.262  -0.190  -0.550
    1UNL    H25   76   0.233   0.147  -0.539
    1UNL    H26   77   0.062  -0.079  -0.550
    1UNL    H27   78  -0.392  -0.105  -0.278
    1UNL    H28   79  -0.688   0.101  -0.063
    1UNL    H29   80  -0.664   0.208  -0.192
    1UNL    H30   81  -0.759   0.058  -0.222
    1UNL    H31   82  -0.180   0.192  -0.121
    1UNL    H32   83  -0.105   0.181   0.106
    1UNL    H33   84  -0.261   0.219   0.081
    1UNL    H34   85  -0.265   0.087   0.283
    1UNL    H35   86  -0.477   0.148   0.191
    1UNL    H36   87  -0.716   0.170   0.145
    1UNL    H37   88  -0.824  -0.133   0.106
    1UNL    H38   89  -0.532  -0.322   0.072
    1UNL    H39   90  -0.271  -0.354   0.143
    1UNL    H40   91  -0.214  -0.225   0.030
    1UNL    H41   92  -0.069  -0.256   0.242
    1UNL    H42   93  -0.216  -0.201   0.334
    1UNL    H43   94   0.053   0.177   0.217
    1UNL    H44   95   0.122   0.148   0.360
    1UNL    H45   96  -0.058   0.186   0.354
   0.00000   0.00000   0.00000   0.00000   0.00000   0.00000   0.00000   0.00000   0.00000
Generated with MDTraj, t= 66.0
 96
    1UNL     C1    1   0.072  -0.169  -0.085
    1UNL     C2    2  -0.010  -0.078  -0.037
    1UNL     C3    3  -0.058   0.035  -0.127
    1UNL     C4    4  -0.079  -0.014  -0.275
    1UNL     O1    5   0.049  -0.034  -0.344
    1UNL     C5    6   0.106   0.085  -0.399
    1UNL     O2    7   0.158   0.173  -0.299
    1UNL     C6    8   0.294   0.126  -0.257
    1UNL     C7    9   0.308   0.142  -0.097
    1UNL     O3   10   0.239   0.034  -0.031
    1UNL     C8   11   0.285   0.029   0.100
    1UNL     O4   12   0.320   0.149   0.172
    1UNL     C9   13   0.408   0.126   0.284
    1UNL    C10   14   0.544   0.184   0.259
    1UNL     O5   15   0.629   0.169   0.363
    1UNL    C11   16   0.408  -0.011   0.348
    1UNL     O6   17   0.304  -0.019   0.445
    1UNL    C12   18   0.418  -0.136   0.250
    1UNL     O7   19   0.333  -0.243   0.281
    1UNL    C13   20   0.389  -0.090   0.101
    1UNL     O8   21   0.513  -0.059   0.034
    1UNL    C14   22   0.328  -0.026  -0.287
    1UNL     O9   23   0.455  -0.061  -0.233
    1UNL    C15   24   0.318  -0.033  -0.441
    1UNL    O10   25   0.309  -0.167  -0.473
    1UNL    C16   26   0.207   0.054  -0.507
    1UNL    O11   27   0.136  -0.015  -0.610
    1UNL    O12   28  -0.171  -0.120  -0.278
    1UNL    C17   29  -0.292  -0.086  -0.211
    1UNL    C18   30  -0.317   0.022  -0.131
    1UNL    C19   31  -0.444   0.090  -0.126
    1UNL    O13   32  -0.456   0.184  -0.045
    1UNL    O14   33  -0.552   0.048  -0.201
    1UNL    C20   34  -0.639   0.150  -0.208
    1UNL    C21   35  -0.192   0.095  -0.080
    1UNL    C22   36  -0.206   0.145   0.076
    1UNL    C23   37  -0.239   0.043   0.181
    1UNL    C24   38  -0.375  -0.032   0.180
    1UNL    C25   39  -0.493   0.046   0.193
    1UNL    C26   40  -0.622  -0.016   0.176
    1UNL    O15   41  -0.732   0.078   0.174
    1UNL    C27   42  -0.627  -0.151   0.137
    1UNL    O16   43  -0.752  -0.198   0.110
    1UNL    C28   44  -0.514  -0.224   0.121
    1UNL    C29   45  -0.388  -0.169   0.147
    1UNL    C30   46  -0.260  -0.253   0.138
    1UNL    C31   47  -0.159  -0.194   0.234
    1UNL     N1   48  -0.131  -0.056   0.213
    1UNL    C32   49  -0.012  -0.023   0.271
    1UNL    C33   50   0.024   0.114   0.310
    1UNL    O17   51   0.066  -0.109   0.303
    1UNL     H1   52   0.102  -0.255  -0.020
    1UNL     H2   53   0.098  -0.166  -0.186
    1UNL     H3   54  -0.043  -0.088   0.068
    1UNL     H4   55   0.025   0.102  -0.127
    1UNL     H5   56  -0.144   0.062  -0.326
    1UNL     H6   57   0.009   0.134  -0.446
    1UNL     H7   58   0.360   0.193  -0.307
    1UNL     H8   59   0.414   0.145  -0.064
    1UNL     H9   60   0.257   0.237  -0.061
    1UNL    H10   61   0.196   0.006   0.164
    1UNL    H11   62   0.364   0.192   0.359
    1UNL    H12   63   0.577   0.128   0.173
    1UNL    H13   64   0.538   0.286   0.237
    1UNL    H14   65   0.719   0.149   0.329
    1UNL    H15   66   0.493  -0.012   0.418
    1UNL    H16   67   0.222  -0.052   0.400
    1UNL    H17   68   0.517  -0.184   0.251
    1UNL    H18   69   0.235  -0.208   0.288
    1UNL    H19   70   0.345  -0.178   0.042
    1UNL    H20   71   0.489  -0.062  -0.064
    1UNL    H21   72   0.249  -0.090  -0.238
    1UNL    H22   73   0.506  -0.111  -0.303
    1UNL    H23   74   0.417  -0.003  -0.478
    1UNL    H24   75   0.264  -0.183  -0.568
    1UNL    H25   76   0.249   0.150  -0.554
    1UNL    H26   77   0.058  -0.062  -0.567
    1UNL    H27   78  -0.379  -0.135  -0.265
    1UNL    H28   79  -0.671   0.172  -0.106
    1UNL    H29   80  -0.590   0.240  -0.248
    1UNL    H30   81  -0.728   0.122  -0.271
    1UNL    H31   82  -0.193   0.188  -0.139
    1UNL    H32   83  -0.122   0.202   0.112
    1UNL    H33   84  -0.277   0.224   0.085
    1UNL    H34   85  -0.250   0.096   0.279
    1UNL    H35   86  -0.486   0.146   0.225
    1UNL    H36   87  -0.699   0.166   0.155
    1UNL    H37   88  -0.822  -0.130   0.124
    1UNL    H38   89  -0.522  -0.326   0.083
    1UNL    H39   90  -0.293  -0.359   0.153
    1UNL    H40   91  -0.224  -0.243   0.041
    1UNL    H41   92  -0.064  -0.254   0.221
    1UNL    H42   93  -0.185  -0.203   0.340
    1UNL    H43   94   0.037   0.176   0.216
    1UNL    H44   95   0.127   0.119   0.342
    1UNL    H45   96  -0.046   0.157   0.377
   0.00000   0.00000   0.00000   0.00000   0.00000   0.00000   0.00000   0.00000   0.00000
Generated with MDTraj, t= 67.0
 96
    1UNL     C1    1   0.024  -0.216  -0.090
    1UNL     C2    2  -0.033  -0.105  -0.043
    1UNL     C3    3  -0.057   0.020  -0.123
    1UNL     C4    4  -0.077  -0.018  -0.275
    1UNL     O1    5   0.043  -0.045  -0.348
    1UNL     C5    6   0.102   0.078  -0.396
    1UNL     O2    7   0.164   0.158  -0.294
    1UNL     C6    8   0.292   0.126  -0.251
    1UNL     C7    9   0.318   0.136  -0.104
    1UNL     O3   10   0.241   0.035  -0.040
    1UNL     C8   11   0.270   0.015   0.094
    1UNL     O4   12   0.301   0.134   0.167
    1UNL     C9   13   0.404   0.124   0.278
    1UNL    C10   14   0.547   0.151   0.231
    1UNL     O5   15   0.623   0.166   0.344
    1UNL    C11   16   0.408  -0.010   0.356
    1UNL     O6   17   0.307  -0.013   0.452
    1UNL    C12   18   0.410  -0.135   0.263
    1UNL     O7   19   0.337  -0.245   0.313
    1UNL    C13   20   0.379  -0.094   0.115
    1UNL     O8   21   0.493  -0.045   0.049
    1UNL    C14   22   0.346  -0.003  -0.306
    1UNL     O9   23   0.477  -0.032  -0.258
    1UNL    C15   24   0.338   0.000  -0.459
    1UNL    O10   25   0.358  -0.139  -0.501
    1UNL    C16   26   0.200   0.055  -0.514
    1UNL    O11   27   0.131  -0.043  -0.592
    1UNL    O12   28  -0.175  -0.116  -0.281
    1UNL    C17   29  -0.286  -0.070  -0.222
    1UNL    C18   30  -0.297   0.040  -0.137
    1UNL    C19   31  -0.431   0.110  -0.145
    1UNL    O13   32  -0.452   0.210  -0.071
    1UNL    O14   33  -0.527   0.045  -0.220
    1UNL    C20   34  -0.651   0.104  -0.204
    1UNL    C21   35  -0.174   0.101  -0.077
    1UNL    C22   36  -0.184   0.136   0.083
    1UNL    C23   37  -0.235   0.037   0.194
    1UNL    C24   38  -0.373  -0.018   0.166
    1UNL    C25   39  -0.488   0.051   0.192
    1UNL    C26   40  -0.615  -0.002   0.174
    1UNL    O15   41  -0.735   0.059   0.215
    1UNL    C27   42  -0.630  -0.140   0.144
    1UNL    O16   43  -0.757  -0.191   0.145
    1UNL    C28   44  -0.518  -0.215   0.120
    1UNL    C29   45  -0.394  -0.150   0.126
    1UNL    C30   46  -0.268  -0.240   0.119
    1UNL    C31   47  -0.162  -0.205   0.226
    1UNL     N1   48  -0.139  -0.060   0.237
    1UNL    C32   49  -0.018  -0.021   0.296
    1UNL    C33   50  -0.005   0.121   0.359
    1UNL    O17   51   0.074  -0.100   0.296
    1UNL     H1   52   0.047  -0.304  -0.025
    1UNL     H2   53   0.030  -0.229  -0.194
    1UNL     H3   54  -0.051  -0.104   0.063
    1UNL     H4   55   0.039   0.070  -0.120
    1UNL     H5   56  -0.135   0.061  -0.328
    1UNL     H6   57   0.010   0.145  -0.422
    1UNL     H7   58   0.347   0.203  -0.302
    1UNL     H8   59   0.424   0.128  -0.085
    1UNL     H9   60   0.286   0.237  -0.068
    1UNL    H10   61   0.172  -0.017   0.141
    1UNL    H11   62   0.377   0.209   0.341
    1UNL    H12   63   0.591   0.062   0.185
    1UNL    H13   64   0.548   0.239   0.168
    1UNL    H14   65   0.687   0.242   0.326
    1UNL    H15   66   0.499  -0.004   0.412
    1UNL    H16   67   0.221  -0.030   0.402
    1UNL    H17   68   0.515  -0.178   0.264
    1UNL    H18   69   0.245  -0.225   0.320
    1UNL    H19   70   0.344  -0.190   0.060
    1UNL    H20   71   0.470  -0.049  -0.044
    1UNL    H21   72   0.272  -0.083  -0.273
    1UNL    H22   73   0.532  -0.055  -0.330
    1UNL    H23   74   0.422   0.062  -0.492
    1UNL    H24   75   0.299  -0.154  -0.571
    1UNL    H25   76   0.210   0.149  -0.580
    1UNL    H26   77   0.066  -0.084  -0.530
    1UNL    H27   78  -0.376  -0.104  -0.256
    1UNL    H28   79  -0.685   0.075  -0.104
    1UNL    H29   80  -0.649   0.214  -0.205
    1UNL    H30   81  -0.729   0.067  -0.278
    1UNL    H31   82  -0.170   0.195  -0.136
    1UNL    H32   83  -0.096   0.188   0.121
    1UNL    H33   84  -0.247   0.222   0.090
    1UNL    H34   85  -0.268   0.092   0.284
    1UNL    H35   86  -0.478   0.156   0.227
    1UNL    H36   87  -0.729   0.156   0.200
    1UNL    H37   88  -0.831  -0.138   0.175
    1UNL    H38   89  -0.516  -0.324   0.104
    1UNL    H39   90  -0.307  -0.341   0.141
    1UNL    H40   91  -0.233  -0.241   0.020
    1UNL    H41   92  -0.067  -0.263   0.220
    1UNL    H42   93  -0.209  -0.239   0.321
    1UNL    H43   94  -0.106   0.158   0.394
    1UNL    H44   95   0.026   0.181   0.284
    1UNL    H45   96   0.056   0.114   0.448
   0.00000   0.00000   0.00000   0.00000   0.00000   0.00000   0.00000   0.00000   0.00000
Generated with MDTraj, t= 68.0
 96
    1UNL     C1    1   0.016  -0.227  -0.109
    1UNL     C2    2  -0.003  -0.110  -0.046
    1UNL     C3    3  -0.046   0.019  -0.115
    1UNL     C4    4  -0.061  -0.026  -0.266
    1UNL     O1    5   0.061  -0.048  -0.334
    1UNL     C5    6   0.105   0.074  -0.392
    1UNL     O2    7   0.156   0.171  -0.294
    1UNL     C6    8   0.284   0.140  -0.240
    1UNL     C7    9   0.296   0.131  -0.087
    1UNL     O3   10   0.233   0.017  -0.036
    1UNL     C8   11   0.278   0.003   0.094
    1UNL     O4   12   0.314   0.129   0.161
    1UNL     C9   13   0.418   0.123   0.263
    1UNL    C10   14   0.552   0.166   0.195
    1UNL     O5   15   0.647   0.198   0.305
    1UNL    C11   16   0.412  -0.008   0.345
    1UNL     O6   17   0.305  -0.006   0.443
    1UNL    C12   18   0.410  -0.137   0.261
    1UNL     O7   19   0.312  -0.233   0.302
    1UNL    C13   20   0.391  -0.104   0.112
    1UNL     O8   21   0.511  -0.074   0.048
    1UNL    C14   22   0.342   0.003  -0.301
    1UNL     O9   23   0.471  -0.045  -0.246
    1UNL    C15   24   0.346   0.024  -0.451
    1UNL    O10   25   0.413  -0.093  -0.504
    1UNL    C16   26   0.207   0.047  -0.504
    1UNL    O11   27   0.170  -0.063  -0.577
    1UNL    O12   28  -0.168  -0.120  -0.285
    1UNL    C17   29  -0.285  -0.069  -0.238
    1UNL    C18   30  -0.298   0.031  -0.146
    1UNL    C19   31  -0.435   0.090  -0.127
    1UNL    O13   32  -0.441   0.195  -0.056
    1UNL    O14   33  -0.550   0.032  -0.175
    1UNL    C20   34  -0.658   0.108  -0.141
    1UNL    C21   35  -0.180   0.096  -0.083
    1UNL    C22   36  -0.202   0.139   0.067
    1UNL    C23   37  -0.242   0.040   0.177
    1UNL    C24   38  -0.387  -0.016   0.152
    1UNL    C25   39  -0.492   0.068   0.175
    1UNL    C26   40  -0.614   0.004   0.180
    1UNL    O15   41  -0.732   0.067   0.216
    1UNL    C27   42  -0.633  -0.132   0.150
    1UNL    O16   43  -0.763  -0.174   0.154
    1UNL    C28   44  -0.527  -0.211   0.117
    1UNL    C29   45  -0.403  -0.148   0.109
    1UNL    C30   46  -0.282  -0.240   0.092
    1UNL    C31   47  -0.192  -0.204   0.212
    1UNL     N1   48  -0.149  -0.063   0.213
    1UNL    C32   49  -0.043  -0.030   0.303
    1UNL    C33   50  -0.028   0.105   0.352
    1UNL    O17   51   0.044  -0.107   0.342
    1UNL     H1   52   0.033  -0.312  -0.052
    1UNL     H2   53  -0.005  -0.237  -0.216
    1UNL     H3   54   0.013  -0.114   0.058
    1UNL     H4   55   0.031   0.093  -0.096
    1UNL     H5   56  -0.105   0.068  -0.306
    1UNL     H6   57   0.009   0.119  -0.437
    1UNL     H7   58   0.350   0.216  -0.281
    1UNL     H8   59   0.399   0.133  -0.061
    1UNL     H9   60   0.251   0.219  -0.041
    1UNL    H10   61   0.189  -0.035   0.149
    1UNL    H11   62   0.383   0.204   0.327
    1UNL    H12   63   0.586   0.078   0.135
    1UNL    H13   64   0.540   0.261   0.139
    1UNL    H14   65   0.740   0.206   0.271
    1UNL    H15   66   0.499   0.001   0.407
    1UNL    H16   67   0.219  -0.033   0.402
    1UNL    H17   68   0.511  -0.191   0.268
    1UNL    H18   69   0.218  -0.192   0.312
    1UNL    H19   70   0.345  -0.198   0.061
    1UNL    H20   71   0.506  -0.079  -0.053
    1UNL    H21   72   0.263  -0.078  -0.290
    1UNL    H22   73   0.527  -0.066  -0.320
    1UNL    H23   74   0.410   0.112  -0.468
    1UNL    H24   75   0.387  -0.102  -0.604
    1UNL    H25   76   0.209   0.122  -0.591
    1UNL    H26   77   0.142  -0.131  -0.513
    1UNL    H27   78  -0.365  -0.120  -0.289
    1UNL    H28   79  -0.670   0.092  -0.036
    1UNL    H29   80  -0.656   0.214  -0.166
    1UNL    H30   81  -0.746   0.059  -0.188
    1UNL    H31   82  -0.182   0.192  -0.138
    1UNL    H32   83  -0.111   0.198   0.096
    1UNL    H33   84  -0.268   0.221   0.062
    1UNL    H34   85  -0.269   0.093   0.269
    1UNL    H35   86  -0.480   0.170   0.191
    1UNL    H36   87  -0.721   0.165   0.233
    1UNL    H37   88  -0.809  -0.094   0.192
    1UNL    H38   89  -0.550  -0.302   0.074
    1UNL    H39   90  -0.313  -0.346   0.087
    1UNL    H40   91  -0.234  -0.213   0.000
    1UNL    H41   92  -0.094  -0.254   0.206
    1UNL    H42   93  -0.246  -0.231   0.304
    1UNL    H43   94  -0.012   0.105   0.456
    1UNL    H44   95  -0.111   0.165   0.318
    1UNL    H45   96   0.068   0.143   0.307
   0.00000   0.00000   0.00000   0.00000   0.00000   0.00000   0.00000   0.00000   0.00000
Generated with MDTraj, t= 69.0
 96
    1UNL     C1    1   0.053  -0.195  -0.092
    1UNL     C2    2  -0.026  -0.092  -0.063
    1UNL     C3    3  -0.057   0.025  -0.141
    1UNL     C4    4  -0.074  -0.016  -0.287
    1UNL     O1    5   0.051  -0.040  -0.360
    1UNL     C5    6   0.120   0.072  -0.403
    1UNL     O2    7   0.157   0.171  -0.302
    1UNL     C6    8   0.286   0.143  -0.237
    1UNL     C7    9   0.282   0.141  -0.087
    1UNL     O3   10   0.223   0.026  -0.032
    1UNL     C8   11   0.257   0.004   0.103
    1UNL     O4   12   0.301   0.131   0.175
    1UNL     C9   13   0.408   0.125   0.269
    1UNL    C10   14   0.541   0.148   0.191
    1UNL     O5   15   0.653   0.195   0.281
    1UNL    C11   16   0.409  -0.007   0.348
    1UNL     O6   17   0.298  -0.008   0.438
    1UNL    C12   18   0.409  -0.137   0.265
    1UNL     O7   19   0.319  -0.234   0.320
    1UNL    C13   20   0.365  -0.115   0.117
    1UNL     O8   21   0.483  -0.095   0.044
    1UNL    C14   22   0.355   0.008  -0.297
    1UNL     O9   23   0.487  -0.028  -0.244
    1UNL    C15   24   0.374   0.031  -0.443
    1UNL    O10   25   0.444  -0.087  -0.493
    1UNL    C16   26   0.232   0.039  -0.510
    1UNL    O11   27   0.196  -0.077  -0.584
    1UNL    O12   28  -0.184  -0.116  -0.292
    1UNL    C17   29  -0.293  -0.078  -0.231
    1UNL    C18   30  -0.302   0.026  -0.143
    1UNL    C19   31  -0.430   0.082  -0.105
    1UNL    O13   32  -0.442   0.199  -0.061
    1UNL    O14   33  -0.544   0.008  -0.126
    1UNL    C20   34  -0.657   0.091  -0.122
    1UNL    C21   35  -0.185   0.091  -0.089
    1UNL    C22   36  -0.204   0.130   0.062
    1UNL    C23   37  -0.242   0.034   0.184
    1UNL    C24   38  -0.384  -0.018   0.177
    1UNL    C25   39  -0.493   0.063   0.210
    1UNL    C26   40  -0.627   0.017   0.189
    1UNL    O15   41  -0.749   0.080   0.205
    1UNL    C27   42  -0.648  -0.123   0.152
    1UNL    O16   43  -0.775  -0.166   0.124
    1UNL    C28   44  -0.537  -0.198   0.120
    1UNL    C29   45  -0.406  -0.149   0.138
    1UNL    C30   46  -0.292  -0.239   0.109
    1UNL    C31   47  -0.183  -0.218   0.213
    1UNL     N1   48  -0.146  -0.072   0.225
    1UNL    C32   49  -0.023  -0.031   0.281
    1UNL    C33   50   0.004   0.107   0.329
    1UNL    O17   51   0.067  -0.114   0.289
    1UNL     H1   52   0.084  -0.266  -0.022
    1UNL     H2   53   0.110  -0.196  -0.191
    1UNL     H3   54  -0.063  -0.094   0.037
    1UNL     H4   55   0.034   0.084  -0.150
    1UNL     H5   56  -0.115   0.069  -0.343
    1UNL     H6   57   0.039   0.133  -0.454
    1UNL     H7   58   0.349   0.227  -0.272
    1UNL     H8   59   0.377   0.156  -0.048
    1UNL     H9   60   0.224   0.227  -0.058
    1UNL    H10   61   0.163  -0.030   0.152
    1UNL    H11   62   0.383   0.209   0.336
    1UNL    H12   63   0.569   0.050   0.143
    1UNL    H13   64   0.515   0.229   0.115
    1UNL    H14   65   0.742   0.182   0.246
    1UNL    H15   66   0.499   0.001   0.411
    1UNL    H16   67   0.220  -0.049   0.401
    1UNL    H17   68   0.512  -0.188   0.257
    1UNL    H18   69   0.227  -0.204   0.310
    1UNL    H19   70   0.315  -0.212   0.079
    1UNL    H20   71   0.480  -0.068  -0.050
    1UNL    H21   72   0.279  -0.070  -0.273
    1UNL    H22   73   0.551  -0.044  -0.324
    1UNL    H23   74   0.436   0.123  -0.446
    1UNL    H24   75   0.383  -0.137  -0.549
    1UNL    H25   76   0.233   0.123  -0.582
    1UNL    H26   77   0.128  -0.121  -0.523
    1UNL    H27   78  -0.386  -0.129  -0.278
    1UNL    H28   79  -0.654   0.148  -0.033
    1UNL    H29   80  -0.677   0.150  -0.208
    1UNL    H30   81  -0.742   0.022  -0.109
    1UNL    H31   82  -0.182   0.190  -0.139
    1UNL    H32   83  -0.136   0.212   0.102
    1UNL    H33   84  -0.289   0.195   0.057
    1UNL    H34   85  -0.262   0.102   0.271
    1UNL    H35   86  -0.473   0.167   0.240
    1UNL    H36   87  -0.736   0.172   0.240
    1UNL    H37   88  -0.825  -0.081   0.123
    1UNL    H38   89  -0.560  -0.300   0.075
    1UNL    H39   90  -0.326  -0.341   0.121
    1UNL    H40   91  -0.262  -0.224   0.004
    1UNL    H41   92  -0.101  -0.279   0.175
    1UNL    H42   93  -0.207  -0.242   0.320
    1UNL    H43   94   0.089   0.108   0.382
    1UNL    H44   95  -0.084   0.155   0.385
    1UNL    H45   96   0.026   0.179   0.246
   0.00000   0.00000   0.00000   0.00000   0.00000   0.00000   0.00000   0.00000   0.00000
Generated with MDTraj, t= 70.0
 96
    1UNL     C1    1   0.064  -0.200  -0.110
    1UNL     C2    2  -0.020  -0.106  -0.061
    1UNL     C3    3  -0.060   0.028  -0.128
    1UNL     C4    4  -0.086  -0.003  -0.275
    1UNL     O1    5   0.041  -0.037  -0.339
    1UNL     C5    6   0.112   0.078  -0.386
    1UNL     O2    7   0.162   0.170  -0.281
    1UNL     C6    8   0.301   0.159  -0.236
    1UNL     C7    9   0.296   0.149  -0.087
    1UNL     O3   10   0.254   0.025  -0.045
    1UNL     C8   11   0.262  -0.004   0.090
    1UNL     O4   12   0.282   0.118   0.174
    1UNL     C9   13   0.393   0.124   0.264
    1UNL    C10   14   0.540   0.142   0.199
    1UNL     O5   15   0.643   0.151   0.299
    1UNL    C11   16   0.398  -0.009   0.350
    1UNL     O6   17   0.285  -0.013   0.435
    1UNL    C12   18   0.409  -0.135   0.262
    1UNL     O7   19   0.330  -0.240   0.318
    1UNL    C13   20   0.378  -0.109   0.112
    1UNL     O8   21   0.492  -0.073   0.039
    1UNL    C14   22   0.362   0.027  -0.296
    1UNL     O9   23   0.489   0.002  -0.244
    1UNL    C15   24   0.361   0.021  -0.443
    1UNL    O10   25   0.423  -0.098  -0.488
    1UNL    C16   26   0.215   0.034  -0.498
    1UNL    O11   27   0.177  -0.094  -0.549
    1UNL    O12   28  -0.189  -0.102  -0.294
    1UNL    C17   29  -0.299  -0.067  -0.233
    1UNL    C18   30  -0.313   0.035  -0.141
    1UNL    C19   31  -0.448   0.082  -0.118
    1UNL    O13   32  -0.478   0.190  -0.064
    1UNL    O14   33  -0.538  -0.006  -0.162
    1UNL    C20   34  -0.670   0.026  -0.126
    1UNL    C21   35  -0.194   0.098  -0.082
    1UNL    C22   36  -0.204   0.139   0.067
    1UNL    C23   37  -0.235   0.037   0.179
    1UNL    C24   38  -0.376  -0.018   0.155
    1UNL    C25   39  -0.486   0.066   0.182
    1UNL    C26   40  -0.615   0.027   0.175
    1UNL    O15   41  -0.725   0.110   0.219
    1UNL    C27   42  -0.636  -0.106   0.130
    1UNL    O16   43  -0.766  -0.156   0.128
    1UNL    C28   44  -0.532  -0.193   0.108
    1UNL    C29   45  -0.402  -0.152   0.122
    1UNL    C30   46  -0.287  -0.253   0.132
    1UNL    C31   47  -0.185  -0.208   0.238
    1UNL     N1   48  -0.133  -0.068   0.225
    1UNL    C32   49  -0.011  -0.031   0.270
    1UNL    C33   50   0.023   0.111   0.298
    1UNL    O17   51   0.072  -0.116   0.295
    1UNL     H1   52   0.092  -0.287  -0.057
    1UNL     H2   53   0.105  -0.184  -0.206
    1UNL     H3   54  -0.057  -0.118   0.043
    1UNL     H4   55   0.020   0.100  -0.111
    1UNL     H5   56  -0.122   0.090  -0.320
    1UNL     H6   57   0.031   0.137  -0.433
    1UNL     H7   58   0.359   0.246  -0.277
    1UNL     H8   59   0.393   0.166  -0.054
    1UNL     H9   60   0.229   0.225  -0.049
    1UNL    H10   61   0.160  -0.046   0.113
    1UNL    H11   62   0.378   0.208   0.334
    1UNL    H12   63   0.561   0.048   0.145
    1UNL    H13   64   0.546   0.231   0.126
    1UNL    H14   65   0.733   0.155   0.263
    1UNL    H15   66   0.488  -0.000   0.417
    1UNL    H16   67   0.202  -0.053   0.387
    1UNL    H17   68   0.513  -0.180   0.256
    1UNL    H18   69   0.234  -0.209   0.323
    1UNL    H19   70   0.338  -0.205   0.066
    1UNL    H20   71   0.471  -0.041  -0.053
    1UNL    H21   72   0.296  -0.058  -0.270
    1UNL    H22   73   0.546  -0.023  -0.317
    1UNL    H23   74   0.425   0.097  -0.494
    1UNL    H24   75   0.372  -0.123  -0.569
    1UNL    H25   76   0.218   0.090  -0.592
    1UNL    H26   77   0.085  -0.104  -0.526
    1UNL    H27   78  -0.385  -0.129  -0.254
    1UNL    H28   79  -0.666   0.085  -0.038
    1UNL    H29   80  -0.723   0.080  -0.203
    1UNL    H30   81  -0.728  -0.066  -0.105
    1UNL    H31   82  -0.188   0.203  -0.118
    1UNL    H32   83  -0.106   0.181   0.100
    1UNL    H33   84  -0.267   0.224   0.081
    1UNL    H34   85  -0.243   0.103   0.267
    1UNL    H35   86  -0.469   0.155   0.238
    1UNL    H36   87  -0.695   0.197   0.256
    1UNL    H37   88  -0.827  -0.092   0.169
    1UNL    H38   89  -0.548  -0.291   0.078
    1UNL    H39   90  -0.329  -0.348   0.160
    1UNL    H40   91  -0.244  -0.275   0.032
    1UNL    H41   92  -0.095  -0.266   0.251
    1UNL    H42   93  -0.235  -0.217   0.338
    1UNL    H43   94   0.039   0.115   0.410
    1UNL    H44   95  -0.048   0.192   0.264
    1UNL    H45   96   0.120   0.140   0.260
   0.00000   0.00000   0.00000   0.00000   0.00000   0.00000   0.00000   0.00000   0.00000
Generated with MDTraj, t= 71.0
 96
    1UNL     C1    1  -0.002  -0.201  -0.093
    1UNL     C2    2  -0.020  -0.082  -0.038
    1UNL     C3    3  -0.069   0.033  -0.120
    1UNL     C4    4  -0.071  -0.002  -0.264
    1UNL     O1    5   0.068  -0.024  -0.319
    1UNL     C5    6   0.113   0.085  -0.392
    1UNL     O2    7   0.166   0.188  -0.310
    1UNL     C6    8   0.297   0.151  -0.244
    1UNL     C7    9   0.283   0.141  -0.087
    1UNL     O3   10   0.242   0.016  -0.043
    1UNL     C8   11   0.285  -0.000   0.086
    1UNL     O4   12   0.327   0.121   0.156
    1UNL     C9   13   0.417   0.115   0.269
    1UNL    C10   14   0.566   0.161   0.245
    1UNL     O5   15   0.643   0.162   0.353
    1UNL    C11   16   0.418  -0.023   0.342
    1UNL     O6   17   0.309  -0.033   0.434
    1UNL    C12   18   0.419  -0.146   0.247
    1UNL     O7   19   0.323  -0.244   0.292
    1UNL    C13   20   0.397  -0.108   0.095
    1UNL     O8   21   0.522  -0.073   0.040
    1UNL    C14   22   0.359   0.016  -0.303
    1UNL     O9   23   0.486   0.003  -0.238
    1UNL    C15   24   0.357   0.012  -0.462
    1UNL    O10   25   0.414  -0.105  -0.514
    1UNL    C16   26   0.205   0.034  -0.509
    1UNL    O11   27   0.161  -0.088  -0.566
    1UNL    O12   28  -0.160  -0.108  -0.297
    1UNL    C17   29  -0.284  -0.085  -0.236
    1UNL    C18   30  -0.319   0.011  -0.148
    1UNL    C19   31  -0.456   0.046  -0.127
    1UNL    O13   32  -0.481   0.151  -0.064
    1UNL    O14   33  -0.560  -0.021  -0.182
    1UNL    C20   34  -0.675   0.055  -0.170
    1UNL    C21   35  -0.209   0.094  -0.094
    1UNL    C22   36  -0.221   0.135   0.059
    1UNL    C23   37  -0.253   0.045   0.183
    1UNL    C24   38  -0.389  -0.013   0.176
    1UNL    C25   39  -0.499   0.071   0.204
    1UNL    C26   40  -0.633   0.029   0.187
    1UNL    O15   41  -0.737   0.119   0.184
    1UNL    C27   42  -0.649  -0.108   0.168
    1UNL    O16   43  -0.774  -0.166   0.136
    1UNL    C28   44  -0.531  -0.191   0.152
    1UNL    C29   45  -0.401  -0.142   0.144
    1UNL    C30   46  -0.279  -0.219   0.105
    1UNL    C31   47  -0.171  -0.195   0.207
    1UNL     N1   48  -0.138  -0.047   0.219
    1UNL    C32   49  -0.018  -0.026   0.288
    1UNL    C33   50   0.015   0.112   0.340
    1UNL    O17   51   0.064  -0.117   0.311
    1UNL     H1   52   0.054  -0.287  -0.040
    1UNL     H2   53  -0.035  -0.208  -0.193
    1UNL     H3   54   0.013  -0.056   0.065
    1UNL     H4   55   0.008   0.109  -0.107
    1UNL     H5   56  -0.118   0.083  -0.317
    1UNL     H6   57   0.026   0.129  -0.440
    1UNL     H7   58   0.363   0.239  -0.262
    1UNL     H8   59   0.376   0.164  -0.040
    1UNL     H9   60   0.212   0.219  -0.056
    1UNL    H10   61   0.191  -0.037   0.137
    1UNL    H11   62   0.370   0.183   0.344
    1UNL    H12   63   0.615   0.091   0.174
    1UNL    H13   64   0.560   0.266   0.196
    1UNL    H14   65   0.710   0.238   0.348
    1UNL    H15   66   0.509  -0.020   0.411
    1UNL    H16   67   0.229  -0.046   0.388
    1UNL    H17   68   0.512  -0.207   0.252
    1UNL    H18   69   0.237  -0.205   0.318
    1UNL    H19   70   0.355  -0.196   0.041
    1UNL    H20   71   0.506  -0.061  -0.059
    1UNL    H21   72   0.299  -0.058  -0.250
    1UNL    H22   73   0.551   0.009  -0.311
    1UNL    H23   74   0.427   0.094  -0.488
    1UNL    H24   75   0.341  -0.156  -0.567
    1UNL    H25   76   0.205   0.108  -0.586
    1UNL    H26   77   0.077  -0.110  -0.514
    1UNL    H27   78  -0.348  -0.164  -0.256
    1UNL    H28   79  -0.688   0.082  -0.065
    1UNL    H29   80  -0.659   0.142  -0.235
    1UNL    H30   81  -0.761  -0.003  -0.215
    1UNL    H31   82  -0.196   0.193  -0.144
    1UNL    H32   83  -0.133   0.198   0.082
    1UNL    H33   84  -0.301   0.203   0.050
    1UNL    H34   85  -0.243   0.103   0.276
    1UNL    H35   86  -0.472   0.172   0.228
    1UNL    H36   87  -0.699   0.202   0.219
    1UNL    H37   88  -0.855  -0.106   0.146
    1UNL    H38   89  -0.545  -0.295   0.120
    1UNL    H39   90  -0.306  -0.318   0.079
    1UNL    H40   91  -0.241  -0.176   0.008
    1UNL    H41   92  -0.082  -0.248   0.185
    1UNL    H42   93  -0.194  -0.232   0.311
    1UNL    H43   94   0.076   0.096   0.444
    1UNL    H44   95  -0.068   0.177   0.359
    1UNL    H45   96   0.085   0.167   0.276
   0.00000   0.00000   0.00000   0.00000   0.00000   0.00000   0.00000   0.00000   0.00000
Generated with MDTraj, t= 72.0
 96
    1UNL     C1    1   0.011  -0.212  -0.086
    1UNL     C2    2  -0.019  -0.091  -0.033
    1UNL     C3    3  -0.055   0.029  -0.120
    1UNL     C4    4  -0.073  -0.009  -0.268
    1UNL     O1    5   0.051  -0.033  -0.339
    1UNL     C5    6   0.109   0.086  -0.394
    1UNL     O2    7   0.164   0.174  -0.294
    1UNL     C6    8   0.296   0.143  -0.249
    1UNL     C7    9   0.314   0.150  -0.102
    1UNL     O3   10   0.236   0.054  -0.031
    1UNL     C8   11   0.294   0.025   0.093
    1UNL     O4   12   0.351   0.135   0.167
    1UNL     C9   13   0.432   0.105   0.285
    1UNL    C10   14   0.580   0.137   0.270
    1UNL     O5   15   0.644   0.179   0.386
    1UNL    C11   16   0.418  -0.043   0.337
    1UNL     O6   17   0.308  -0.061   0.421
    1UNL    C12   18   0.418  -0.155   0.230
    1UNL     O7   19   0.319  -0.244   0.248
    1UNL    C13   20   0.401  -0.092   0.086
    1UNL     O8   21   0.525  -0.052   0.030
    1UNL    C14   22   0.348   0.009  -0.301
    1UNL     O9   23   0.463  -0.046  -0.245
    1UNL    C15   24   0.361   0.017  -0.462
    1UNL    O10   25   0.412  -0.101  -0.517
    1UNL    C16   26   0.214   0.038  -0.512
    1UNL    O11   27   0.163  -0.080  -0.573
    1UNL    O12   28  -0.159  -0.120  -0.277
    1UNL    C17   29  -0.277  -0.089  -0.214
    1UNL    C18   30  -0.304   0.029  -0.145
    1UNL    C19   31  -0.443   0.065  -0.124
    1UNL    O13   32  -0.485   0.166  -0.061
    1UNL    O14   33  -0.527  -0.017  -0.198
    1UNL    C20   34  -0.663   0.021  -0.188
    1UNL    C21   35  -0.192   0.099  -0.086
    1UNL    C22   36  -0.208   0.144   0.065
    1UNL    C23   37  -0.255   0.048   0.176
    1UNL    C24   38  -0.396  -0.007   0.163
    1UNL    C25   39  -0.513   0.065   0.200
    1UNL    C26   40  -0.643   0.023   0.190
    1UNL    O15   41  -0.754   0.103   0.214
    1UNL    C27   42  -0.664  -0.114   0.162
    1UNL    O16   43  -0.789  -0.169   0.153
    1UNL    C28   44  -0.547  -0.186   0.134
    1UNL    C29   45  -0.412  -0.147   0.143
    1UNL    C30   46  -0.298  -0.239   0.132
    1UNL    C31   47  -0.178  -0.199   0.230
    1UNL     N1   48  -0.149  -0.051   0.230
    1UNL    C32   49  -0.027   0.001   0.276
    1UNL    C33   50  -0.017   0.134   0.335
    1UNL    O17   51   0.072  -0.069   0.276
    1UNL     H1   52   0.040  -0.293  -0.023
    1UNL     H2   53   0.002  -0.224  -0.189
    1UNL     H3   54   0.003  -0.072   0.069
    1UNL     H4   55   0.033   0.096  -0.116
    1UNL     H5   56  -0.128   0.069  -0.323
    1UNL     H6   57   0.034   0.142  -0.445
    1UNL     H7   58   0.361   0.221  -0.294
    1UNL     H8   59   0.420   0.123  -0.090
    1UNL     H9   60   0.308   0.252  -0.054
    1UNL    H10   61   0.210  -0.018   0.153
    1UNL    H11   62   0.395   0.173   0.367
    1UNL    H12   63   0.633   0.049   0.230
    1UNL    H13   64   0.585   0.220   0.189
    1UNL    H14   65   0.714   0.251   0.370
    1UNL    H15   66   0.509  -0.050   0.408
    1UNL    H16   67   0.220  -0.043   0.369
    1UNL    H17   68   0.510  -0.213   0.222
    1UNL    H18   69   0.231  -0.205   0.269
    1UNL    H19   70   0.363  -0.171   0.021
    1UNL    H20   71   0.504  -0.047  -0.064
    1UNL    H21   72   0.277  -0.069  -0.285
    1UNL    H22   73   0.523  -0.049  -0.329
    1UNL    H23   74   0.428   0.094  -0.505
    1UNL    H24   75   0.343  -0.147  -0.559
    1UNL    H25   76   0.217   0.109  -0.592
    1UNL    H26   77   0.104  -0.115  -0.506
    1UNL    H27   78  -0.369  -0.150  -0.233
    1UNL    H28   79  -0.711  -0.019  -0.098
    1UNL    H29   80  -0.660   0.132  -0.188
    1UNL    H30   81  -0.718  -0.008  -0.282
    1UNL    H31   82  -0.178   0.195  -0.135
    1UNL    H32   83  -0.109   0.177   0.100
    1UNL    H33   84  -0.272   0.229   0.059
    1UNL    H34   85  -0.255   0.114   0.264
    1UNL    H35   86  -0.512   0.172   0.224
    1UNL    H36   87  -0.733   0.186   0.259
    1UNL    H37   88  -0.847  -0.095   0.134
    1UNL    H38   89  -0.574  -0.284   0.091
    1UNL    H39   90  -0.315  -0.340   0.150
    1UNL    H40   91  -0.252  -0.236   0.029
    1UNL    H41   92  -0.090  -0.245   0.200
    1UNL    H42   93  -0.201  -0.240   0.332
    1UNL    H43   94   0.079   0.139   0.391
    1UNL    H44   95  -0.096   0.164   0.405
    1UNL    H45   96  -0.009   0.220   0.262
   0.00000   0.00000   0.00000   0.00000   0.00000   0.00000   0.00000   0.00000   0.00000
Generated with MDTraj, t= 73.0
 96
    1UNL     C1    1   0.082  -0.184  -0.061
    1UNL     C2    2  -0.010  -0.094  -0.032
    1UNL     C3    3  -0.049   0.020  -0.123
    1UNL     C4    4  -0.063  -0.022  -0.268
    1UNL     O1    5   0.067  -0.039  -0.316
    1UNL     C5    6   0.116   0.080  -0.372
    1UNL     O2    7   0.175   0.176  -0.284
    1UNL     C6    8   0.312   0.142  -0.252
    1UNL     C7    9   0.328   0.152  -0.099
    1UNL     O3   10   0.232   0.075  -0.028
    1UNL     C8   11   0.288   0.043   0.094
    1UNL     O4   12   0.355   0.145   0.170
    1UNL     C9   13   0.432   0.111   0.287
    1UNL    C10   14   0.576   0.138   0.267
    1UNL     O5   15   0.652   0.127   0.396
    1UNL    C11   16   0.408  -0.039   0.331
    1UNL     O6   17   0.300  -0.052   0.425
    1UNL    C12   18   0.403  -0.145   0.219
    1UNL     O7   19   0.305  -0.234   0.244
    1UNL    C13   20   0.385  -0.079   0.082
    1UNL     O8   21   0.506  -0.038   0.030
    1UNL    C14   22   0.361   0.004  -0.310
    1UNL     O9   23   0.485  -0.039  -0.260
    1UNL    C15   24   0.345   0.000  -0.462
    1UNL    O10   25   0.376  -0.126  -0.504
    1UNL    C16   26   0.207   0.049  -0.500
    1UNL    O11   27   0.145  -0.053  -0.572
    1UNL    O12   28  -0.163  -0.128  -0.280
    1UNL    C17   29  -0.287  -0.104  -0.232
    1UNL    C18   30  -0.309   0.006  -0.154
    1UNL    C19   31  -0.451   0.055  -0.141
    1UNL    O13   32  -0.459   0.173  -0.097
    1UNL    O14   33  -0.556  -0.021  -0.182
    1UNL    C20   34  -0.671   0.043  -0.146
    1UNL    C21   35  -0.195   0.085  -0.095
    1UNL    C22   36  -0.220   0.146   0.042
    1UNL    C23   37  -0.260   0.058   0.169
    1UNL    C24   38  -0.396  -0.001   0.158
    1UNL    C25   39  -0.509   0.072   0.190
    1UNL    C26   40  -0.640   0.019   0.193
    1UNL    O15   41  -0.757   0.082   0.226
    1UNL    C27   42  -0.650  -0.119   0.153
    1UNL    O16   43  -0.771  -0.182   0.160
    1UNL    C28   44  -0.538  -0.194   0.123
    1UNL    C29   45  -0.414  -0.134   0.126
    1UNL    C30   46  -0.304  -0.224   0.126
    1UNL    C31   47  -0.199  -0.186   0.239
    1UNL     N1   48  -0.154  -0.043   0.225
    1UNL    C32   49  -0.024  -0.004   0.272
    1UNL    C33   50   0.004   0.134   0.322
    1UNL    O17   51   0.062  -0.091   0.279
    1UNL     H1   52   0.117  -0.246   0.018
    1UNL     H2   53   0.141  -0.189  -0.159
    1UNL     H3   54  -0.050  -0.103   0.065
    1UNL     H4   55   0.027   0.100  -0.110
    1UNL     H5   56  -0.112   0.058  -0.326
    1UNL     H6   57   0.034   0.130  -0.416
    1UNL     H7   58   0.366   0.227  -0.296
    1UNL     H8   59   0.430   0.137  -0.059
    1UNL     H9   60   0.305   0.262  -0.071
    1UNL    H10   61   0.204   0.002   0.157
    1UNL    H11   62   0.394   0.176   0.370
    1UNL    H12   63   0.615   0.070   0.191
    1UNL    H13   64   0.587   0.241   0.220
    1UNL    H14   65   0.748   0.114   0.385
    1UNL    H15   66   0.498  -0.056   0.399
    1UNL    H16   67   0.219  -0.051   0.378
    1UNL    H17   68   0.489  -0.209   0.214
    1UNL    H18   69   0.216  -0.187   0.246
    1UNL    H19   70   0.335  -0.144   0.016
    1UNL    H20   71   0.513  -0.038  -0.072
    1UNL    H21   72   0.300  -0.061  -0.252
    1UNL    H22   73   0.534  -0.079  -0.329
    1UNL    H23   74   0.421   0.065  -0.507
    1UNL    H24   75   0.336  -0.137  -0.602
    1UNL    H25   76   0.216   0.133  -0.568
    1UNL    H26   77   0.106  -0.117  -0.504
    1UNL    H27   78  -0.376  -0.167  -0.266
    1UNL    H28   79  -0.694   0.037  -0.040
    1UNL    H29   80  -0.662   0.146  -0.182
    1UNL    H30   81  -0.751  -0.005  -0.206
    1UNL    H31   82  -0.199   0.174  -0.160
    1UNL    H32   83  -0.125   0.189   0.070
    1UNL    H33   84  -0.294   0.221   0.034
    1UNL    H34   85  -0.261   0.131   0.250
    1UNL    H35   86  -0.487   0.163   0.237
    1UNL    H36   87  -0.734   0.160   0.279
    1UNL    H37   88  -0.819  -0.113   0.216
    1UNL    H38   89  -0.546  -0.294   0.097
    1UNL    H39   90  -0.333  -0.320   0.156
    1UNL    H40   91  -0.241  -0.246   0.035
    1UNL    H41   92  -0.120  -0.254   0.234
    1UNL    H42   93  -0.246  -0.195   0.340
    1UNL    H43   94   0.075   0.131   0.394
    1UNL    H44   95  -0.092   0.185   0.357
    1UNL    H45   96   0.043   0.201   0.237
   0.00000   0.00000   0.00000   0.00000   0.00000   0.00000   0.00000   0.00000   0.00000
Generated with MDTraj, t= 74.0
 96
    1UNL     C1    1   0.071  -0.172  -0.079
    1UNL     C2    2   0.003  -0.068  -0.035
    1UNL     C3    3  -0.045   0.040  -0.120
    1UNL     C4    4  -0.061  -0.017  -0.266
    1UNL     O1    5   0.060  -0.040  -0.331
    1UNL     C5    6   0.104   0.074  -0.390
    1UNL     O2    7   0.161   0.173  -0.302
    1UNL     C6    8   0.300   0.161  -0.261
    1UNL     C7    9   0.320   0.175  -0.107
    1UNL     O3   10   0.246   0.072  -0.042
    1UNL     C8   11   0.291   0.044   0.091
    1UNL     O4   12   0.344   0.151   0.175
    1UNL     C9   13   0.428   0.111   0.287
    1UNL    C10   14   0.573   0.120   0.252
    1UNL     O5   15   0.667   0.065   0.350
    1UNL    C11   16   0.395  -0.028   0.351
    1UNL     O6   17   0.279  -0.028   0.432
    1UNL    C12   18   0.395  -0.139   0.242
    1UNL     O7   19   0.295  -0.237   0.265
    1UNL    C13   20   0.389  -0.084   0.096
    1UNL     O8   21   0.518  -0.058   0.040
    1UNL    C14   22   0.360   0.021  -0.300
    1UNL     O9   23   0.491   0.005  -0.262
    1UNL    C15   24   0.346  -0.017  -0.446
    1UNL    O10   25   0.344  -0.162  -0.452
    1UNL    C16   26   0.212   0.057  -0.504
    1UNL    O11   27   0.156  -0.030  -0.607
    1UNL    O12   28  -0.155  -0.131  -0.269
    1UNL    C17   29  -0.279  -0.104  -0.213
    1UNL    C18   30  -0.296   0.007  -0.131
    1UNL    C19   31  -0.436   0.056  -0.126
    1UNL    O13   32  -0.454   0.179  -0.103
    1UNL    O14   33  -0.537  -0.033  -0.151
    1UNL    C20   34  -0.656   0.032  -0.150
    1UNL    C21   35  -0.189   0.102  -0.087
    1UNL    C22   36  -0.225   0.154   0.053
    1UNL    C23   37  -0.261   0.051   0.174
    1UNL    C24   38  -0.390  -0.011   0.167
    1UNL    C25   39  -0.502   0.065   0.201
    1UNL    C26   40  -0.629   0.010   0.187
    1UNL    O15   41  -0.747   0.075   0.209
    1UNL    C27   42  -0.647  -0.125   0.166
    1UNL    O16   43  -0.776  -0.175   0.149
    1UNL    C28   44  -0.536  -0.199   0.137
    1UNL    C29   45  -0.410  -0.142   0.129
    1UNL    C30   46  -0.295  -0.225   0.104
    1UNL    C31   47  -0.193  -0.198   0.216
    1UNL     N1   48  -0.160  -0.047   0.218
    1UNL    C32   49  -0.035  -0.007   0.267
    1UNL    C33   50   0.008   0.138   0.275
    1UNL    O17   51   0.048  -0.087   0.308
    1UNL     H1   52   0.095  -0.252  -0.020
    1UNL     H2   53   0.109  -0.168  -0.184
    1UNL     H3   54  -0.024  -0.076   0.066
    1UNL     H4   55   0.040   0.113  -0.128
    1UNL     H5   56  -0.115   0.047  -0.337
    1UNL     H6   57   0.022   0.126  -0.426
    1UNL     H7   58   0.348   0.237  -0.323
    1UNL     H8   59   0.426   0.162  -0.081
    1UNL     H9   60   0.278   0.271  -0.058
    1UNL    H10   61   0.198   0.009   0.144
    1UNL    H11   62   0.400   0.182   0.370
    1UNL    H12   63   0.593   0.070   0.159
    1UNL    H13   64   0.604   0.223   0.222
    1UNL    H14   65   0.660   0.117   0.430
    1UNL    H15   66   0.479  -0.042   0.422
    1UNL    H16   67   0.186  -0.034   0.386
    1UNL    H17   68   0.478  -0.207   0.253
    1UNL    H18   69   0.207  -0.195   0.267
    1UNL    H19   70   0.341  -0.153   0.033
    1UNL    H20   71   0.514  -0.039  -0.056
    1UNL    H21   72   0.299  -0.053  -0.253
    1UNL    H22   73   0.514  -0.078  -0.309
    1UNL    H23   74   0.435   0.009  -0.503
    1UNL    H24   75   0.297  -0.186  -0.536
    1UNL    H25   76   0.231   0.161  -0.535
    1UNL    H26   77   0.098  -0.093  -0.564
    1UNL    H27   78  -0.351  -0.177  -0.241
    1UNL    H28   79  -0.656   0.119  -0.087
    1UNL    H29   80  -0.679   0.057  -0.251
    1UNL    H30   81  -0.729  -0.038  -0.110
    1UNL    H31   82  -0.200   0.180  -0.165
    1UNL    H32   83  -0.149   0.227   0.072
    1UNL    H33   84  -0.315   0.210   0.042
    1UNL    H34   85  -0.254   0.120   0.258
    1UNL    H35   86  -0.499   0.174   0.223
    1UNL    H36   87  -0.726   0.165   0.245
    1UNL    H37   88  -0.843  -0.106   0.170
    1UNL    H38   89  -0.545  -0.312   0.128
    1UNL    H39   90  -0.307  -0.329   0.085
    1UNL    H40   91  -0.241  -0.192   0.012
    1UNL    H41   92  -0.102  -0.246   0.207
    1UNL    H42   93  -0.241  -0.241   0.309
    1UNL    H43   94   0.081   0.143   0.351
    1UNL    H44   95  -0.085   0.201   0.294
    1UNL    H45   96   0.053   0.173   0.181
   0.00000   0.00000   0.00000   0.00000   0.00000   0.00000   0.00000   0.00000   0.00000
Generated with MDTraj, t= 75.0
 96
    1UNL     C1    1   0.030  -0.176  -0.080
    1UNL     C2    2  -0.008  -0.053  -0.044
    1UNL     C3    3  -0.059   0.045  -0.140
    1UNL     C4    4  -0.076  -0.013  -0.285
    1UNL     O1    5   0.048  -0.031  -0.345
    1UNL     C5    6   0.104   0.095  -0.396
    1UNL     O2    7   0.155   0.185  -0.286
    1UNL     C6    8   0.287   0.154  -0.233
    1UNL     C7    9   0.291   0.172  -0.083
    1UNL     O3   10   0.222   0.066  -0.021
    1UNL     C8   11   0.285   0.033   0.102
    1UNL     O4   12   0.366   0.139   0.151
    1UNL     C9   13   0.450   0.108   0.267
    1UNL    C10   14   0.605   0.104   0.233
    1UNL     O5   15   0.677   0.098   0.345
    1UNL    C11   16   0.417  -0.027   0.341
    1UNL     O6   17   0.305  -0.007   0.426
    1UNL    C12   18   0.392  -0.148   0.244
    1UNL     O7   19   0.294  -0.244   0.291
    1UNL    C13   20   0.365  -0.101   0.098
    1UNL     O8   21   0.492  -0.085   0.039
    1UNL    C14   22   0.346   0.013  -0.275
    1UNL     O9   23   0.488  -0.008  -0.230
    1UNL    C15   24   0.334  -0.019  -0.420
    1UNL    O10   25   0.325  -0.154  -0.430
    1UNL    C16   26   0.221   0.057  -0.488
    1UNL    O11   27   0.159  -0.021  -0.588
    1UNL    O12   28  -0.159  -0.126  -0.286
    1UNL    C17   29  -0.280  -0.093  -0.229
    1UNL    C18   30  -0.304   0.019  -0.145
    1UNL    C19   31  -0.443   0.051  -0.126
    1UNL    O13   32  -0.476   0.161  -0.082
    1UNL    O14   33  -0.532  -0.044  -0.165
    1UNL    C20   34  -0.668  -0.004  -0.141
    1UNL    C21   35  -0.195   0.107  -0.101
    1UNL    C22   36  -0.207   0.156   0.052
    1UNL    C23   37  -0.248   0.054   0.166
    1UNL    C24   38  -0.385  -0.013   0.154
    1UNL    C25   39  -0.497   0.066   0.168
    1UNL    C26   40  -0.622   0.012   0.176
    1UNL    O15   41  -0.737   0.082   0.196
    1UNL    C27   42  -0.642  -0.123   0.147
    1UNL    O16   43  -0.767  -0.163   0.140
    1UNL    C28   44  -0.535  -0.202   0.122
    1UNL    C29   45  -0.403  -0.150   0.122
    1UNL    C30   46  -0.283  -0.238   0.123
    1UNL    C31   47  -0.170  -0.184   0.215
    1UNL     N1   48  -0.140  -0.042   0.210
    1UNL    C32   49  -0.018  -0.003   0.263
    1UNL    C33   50   0.001   0.136   0.316
    1UNL    O17   51   0.072  -0.079   0.287
    1UNL     H1   52   0.082  -0.246  -0.011
    1UNL     H2   53   0.006  -0.212  -0.176
    1UNL     H3   54   0.026  -0.015   0.050
    1UNL     H4   55   0.010   0.134  -0.139
    1UNL     H5   56  -0.125   0.066  -0.340
    1UNL     H6   57   0.040   0.144  -0.460
    1UNL     H7   58   0.350   0.230  -0.278
    1UNL     H8   59   0.393   0.167  -0.043
    1UNL     H9   60   0.235   0.268  -0.055
    1UNL    H10   61   0.209   0.025   0.184
    1UNL    H11   62   0.435   0.188   0.342
    1UNL    H12   63   0.631   0.016   0.177
    1UNL    H13   64   0.638   0.182   0.164
    1UNL    H14   65   0.715   0.187   0.366
    1UNL    H15   66   0.507  -0.041   0.398
    1UNL    H16   67   0.229  -0.028   0.376
    1UNL    H17   68   0.478  -0.213   0.232
    1UNL    H18   69   0.205  -0.199   0.291
    1UNL    H19   70   0.321  -0.175   0.037
    1UNL    H20   71   0.470  -0.061  -0.055
    1UNL    H21   72   0.288  -0.055  -0.215
    1UNL    H22   73   0.540  -0.073  -0.290
    1UNL    H23   74   0.432   0.006  -0.461
    1UNL    H24   75   0.302  -0.181  -0.520
    1UNL    H25   76   0.262   0.146  -0.542
    1UNL    H26   77   0.087  -0.079  -0.552
    1UNL    H27   78  -0.363  -0.151  -0.257
    1UNL    H28   79  -0.665   0.061  -0.056
    1UNL    H29   80  -0.708   0.051  -0.224
    1UNL    H30   81  -0.733  -0.087  -0.111
    1UNL    H31   82  -0.204   0.193  -0.172
    1UNL    H32   83  -0.118   0.209   0.067
    1UNL    H33   84  -0.276   0.237   0.048
    1UNL    H34   85  -0.242   0.123   0.253
    1UNL    H35   86  -0.484   0.169   0.180
    1UNL    H36   87  -0.719   0.165   0.249
    1UNL    H37   88  -0.840  -0.098   0.150
    1UNL    H38   89  -0.551  -0.301   0.095
    1UNL    H39   90  -0.314  -0.338   0.150
    1UNL    H40   91  -0.246  -0.262   0.025
    1UNL    H41   92  -0.084  -0.235   0.193
    1UNL    H42   93  -0.181  -0.207   0.325
    1UNL    H43   94   0.016   0.135   0.431
    1UNL    H44   95  -0.077   0.207   0.294
    1UNL    H45   96   0.086   0.191   0.282
   0.00000   0.00000   0.00000   0.00000   0.00000   0.00000   0.00000   0.00000   0.00000
Generated with MDTraj, t= 76.0
 96
    1UNL     C1    1   0.027  -0.199  -0.125
    1UNL     C2    2  -0.015  -0.083  -0.070
    1UNL     C3    3  -0.079   0.031  -0.140
    1UNL     C4    4  -0.088  -0.004  -0.288
    1UNL     O1    5   0.038  -0.019  -0.357
    1UNL     C5    6   0.103   0.098  -0.390
    1UNL     O2    7   0.151   0.174  -0.276
    1UNL     C6    8   0.285   0.145  -0.231
    1UNL     C7    9   0.300   0.163  -0.087
    1UNL     O3   10   0.251   0.055  -0.009
    1UNL     C8   11   0.309   0.039   0.123
    1UNL     O4   12   0.399   0.139   0.172
    1UNL     C9   13   0.485   0.095   0.283
    1UNL    C10   14   0.637   0.093   0.234
    1UNL     O5   15   0.733   0.138   0.323
    1UNL    C11   16   0.438  -0.030   0.363
    1UNL     O6   17   0.326   0.008   0.448
    1UNL    C12   18   0.403  -0.154   0.266
    1UNL     O7   19   0.302  -0.245   0.318
    1UNL    C13   20   0.368  -0.109   0.124
    1UNL     O8   21   0.488  -0.118   0.051
    1UNL    C14   22   0.328   0.001  -0.265
    1UNL     O9   23   0.464  -0.026  -0.219
    1UNL    C15   24   0.335   0.000  -0.425
    1UNL    O10   25   0.342  -0.139  -0.463
    1UNL    C16   26   0.208   0.067  -0.492
    1UNL    O11   27   0.158  -0.022  -0.588
    1UNL    O12   28  -0.177  -0.117  -0.301
    1UNL    C17   29  -0.301  -0.088  -0.247
    1UNL    C18   30  -0.339   0.008  -0.158
    1UNL    C19   31  -0.479   0.037  -0.140
    1UNL    O13   32  -0.507   0.144  -0.083
    1UNL    O14   33  -0.565  -0.050  -0.181
    1UNL    C20   34  -0.694  -0.001  -0.169
    1UNL    C21   35  -0.226   0.090  -0.093
    1UNL    C22   36  -0.239   0.155   0.050
    1UNL    C23   37  -0.250   0.071   0.175
    1UNL    C24   38  -0.380  -0.002   0.172
    1UNL    C25   39  -0.498   0.065   0.204
    1UNL    C26   40  -0.625   0.013   0.168
    1UNL    O15   41  -0.741   0.093   0.171
    1UNL    C27   42  -0.632  -0.125   0.141
    1UNL    O16   43  -0.760  -0.176   0.130
    1UNL    C28   44  -0.513  -0.198   0.119
    1UNL    C29   45  -0.386  -0.133   0.122
    1UNL    C30   46  -0.265  -0.211   0.100
    1UNL    C31   47  -0.149  -0.175   0.196
    1UNL     N1   48  -0.123  -0.023   0.194
    1UNL    C32   49  -0.016   0.015   0.278
    1UNL    C33   50  -0.010   0.148   0.346
    1UNL    O17   51   0.065  -0.072   0.305
    1UNL     H1   52   0.076  -0.278  -0.062
    1UNL     H2   53   0.002  -0.221  -0.223
    1UNL     H3   54  -0.018  -0.073   0.041
    1UNL     H4   55  -0.013   0.122  -0.129
    1UNL     H5   56  -0.143   0.080  -0.327
    1UNL     H6   57   0.034   0.162  -0.431
    1UNL     H7   58   0.354   0.214  -0.280
    1UNL     H8   59   0.404   0.171  -0.063
    1UNL     H9   60   0.240   0.253  -0.052
    1UNL    H10   61   0.228   0.047   0.201
    1UNL    H11   62   0.461   0.176   0.352
    1UNL    H12   63   0.666  -0.004   0.204
    1UNL    H13   64   0.641   0.144   0.140
    1UNL    H14   65   0.699   0.141   0.419
    1UNL    H15   66   0.513  -0.060   0.429
    1UNL    H16   67   0.234  -0.003   0.400
    1UNL    H17   68   0.485  -0.227   0.261
    1UNL    H18   69   0.215  -0.203   0.323
    1UNL    H19   70   0.302  -0.176   0.077
    1UNL    H20   71   0.473  -0.071  -0.032
    1UNL    H21   72   0.249  -0.071  -0.238
    1UNL    H22   73   0.481  -0.112  -0.270
    1UNL    H23   74   0.426   0.050  -0.464
    1UNL    H24   75   0.320  -0.148  -0.565
    1UNL    H25   76   0.227   0.166  -0.543
    1UNL    H26   77   0.114  -0.098  -0.545
    1UNL    H27   78  -0.390  -0.145  -0.283
    1UNL    H28   79  -0.718   0.004  -0.062
    1UNL    H29   80  -0.701   0.100  -0.213
    1UNL    H30   81  -0.768  -0.074  -0.211
    1UNL    H31   82  -0.215   0.173  -0.164
    1UNL    H32   83  -0.174   0.236   0.070
    1UNL    H33   84  -0.334   0.205   0.044
    1UNL    H34   85  -0.244   0.139   0.262
    1UNL    H35   86  -0.489   0.172   0.226
    1UNL    H36   87  -0.722   0.186   0.201
    1UNL    H37   88  -0.829  -0.106   0.152
    1UNL    H38   89  -0.523  -0.303   0.097
    1UNL    H39   90  -0.283  -0.318   0.093
    1UNL    H40   91  -0.246  -0.196  -0.004
    1UNL    H41   92  -0.062  -0.229   0.180
    1UNL    H42   93  -0.173  -0.207   0.302
    1UNL    H43   94  -0.111   0.186   0.396
    1UNL    H44   95   0.024   0.220   0.283
    1UNL    H45   96   0.059   0.154   0.430
   0.00000   0.00000   0.00000   0.00000   0.00000   0.00000   0.00000   0.00000   0.00000
Generated with MDTraj, t= 77.0
 96
    1UNL     C1    1   0.020  -0.173  -0.113
    1UNL     C2    2  -0.036  -0.057  -0.072
    1UNL     C3    3  -0.081   0.050  -0.166
    1UNL     C4    4  -0.100   0.000  -0.307
    1UNL     O1    5   0.023  -0.022  -0.367
    1UNL     C5    6   0.094   0.101  -0.380
    1UNL     O2    7   0.146   0.151  -0.248
    1UNL     C6    8   0.286   0.117  -0.224
    1UNL     C7    9   0.316   0.123  -0.075
    1UNL     O3   10   0.253   0.020   0.000
    1UNL     C8   11   0.309   0.017   0.132
    1UNL     O4   12   0.392   0.130   0.164
    1UNL     C9   13   0.489   0.105   0.271
    1UNL    C10   14   0.635   0.089   0.220
    1UNL     O5   15   0.737   0.094   0.331
    1UNL    C11   16   0.444  -0.007   0.369
    1UNL     O6   17   0.342   0.050   0.451
    1UNL    C12   18   0.406  -0.141   0.293
    1UNL     O7   19   0.300  -0.217   0.353
    1UNL    C13   20   0.386  -0.121   0.149
    1UNL     O8   21   0.505  -0.117   0.074
    1UNL    C14   22   0.325  -0.023  -0.285
    1UNL     O9   23   0.453  -0.062  -0.231
    1UNL    C15   24   0.335   0.015  -0.436
    1UNL    O10   25   0.362  -0.100  -0.510
    1UNL    C16   26   0.207   0.082  -0.487
    1UNL    O11   27   0.144   0.007  -0.589
    1UNL    O12   28  -0.185  -0.119  -0.304
    1UNL    C17   29  -0.300  -0.088  -0.240
    1UNL    C18   30  -0.331   0.013  -0.155
    1UNL    C19   31  -0.467   0.047  -0.138
    1UNL    O13   32  -0.503   0.147  -0.071
    1UNL    O14   33  -0.559  -0.040  -0.193
    1UNL    C20   34  -0.691   0.016  -0.182
    1UNL    C21   35  -0.225   0.104  -0.105
    1UNL    C22   36  -0.218   0.145   0.041
    1UNL    C23   37  -0.252   0.063   0.166
    1UNL    C24   38  -0.385  -0.013   0.151
    1UNL    C25   39  -0.498   0.058   0.190
    1UNL    C26   40  -0.626   0.005   0.181
    1UNL    O15   41  -0.746   0.071   0.216
    1UNL    C27   42  -0.630  -0.130   0.130
    1UNL    O16   43  -0.751  -0.195   0.118
    1UNL    C28   44  -0.514  -0.212   0.112
    1UNL    C29   45  -0.390  -0.153   0.121
    1UNL    C30   46  -0.255  -0.222   0.105
    1UNL    C31   47  -0.165  -0.172   0.222
    1UNL     N1   48  -0.142  -0.024   0.213
    1UNL    C32   49  -0.028   0.022   0.270
    1UNL    C33   50  -0.023   0.174   0.287
    1UNL    O17   51   0.066  -0.043   0.315
    1UNL     H1   52   0.049  -0.246  -0.043
    1UNL     H2   53   0.005  -0.204  -0.218
    1UNL     H3   54  -0.047  -0.035   0.032
    1UNL     H4   55  -0.007   0.134  -0.172
    1UNL     H5   56  -0.161   0.070  -0.365
    1UNL     H6   57   0.027   0.173  -0.409
    1UNL     H7   58   0.345   0.202  -0.265
    1UNL     H8   59   0.418   0.112  -0.055
    1UNL     H9   60   0.277   0.219  -0.033
    1UNL    H10   61   0.225   0.023   0.207
    1UNL    H11   62   0.488   0.195   0.329
    1UNL    H12   63   0.642   0.002   0.162
    1UNL    H13   64   0.654   0.167   0.151
    1UNL    H14   65   0.715   0.053   0.419
    1UNL    H15   66   0.529  -0.022   0.429
    1UNL    H16   67   0.252   0.028   0.409
    1UNL    H17   68   0.494  -0.208   0.307
    1UNL    H18   69   0.217  -0.165   0.342
    1UNL    H19   70   0.326  -0.195   0.101
    1UNL    H20   71   0.492  -0.109  -0.026
    1UNL    H21   72   0.241  -0.092  -0.256
    1UNL    H22   73   0.491  -0.123  -0.289
    1UNL    H23   74   0.425   0.079  -0.444
    1UNL    H24   75   0.335  -0.079  -0.597
    1UNL    H25   76   0.236   0.179  -0.533
    1UNL    H26   77   0.085  -0.063  -0.551
    1UNL    H27   78  -0.386  -0.160  -0.259
    1UNL    H28   79  -0.717   0.019  -0.074
    1UNL    H29   80  -0.690   0.118  -0.224
    1UNL    H30   81  -0.771  -0.049  -0.226
    1UNL    H31   82  -0.222   0.192  -0.172
    1UNL    H32   83  -0.115   0.168   0.059
    1UNL    H33   84  -0.265   0.239   0.051
    1UNL    H34   85  -0.268   0.131   0.253
    1UNL    H35   86  -0.489   0.161   0.221
    1UNL    H36   87  -0.738   0.157   0.262
    1UNL    H37   88  -0.816  -0.126   0.134
    1UNL    H38   89  -0.530  -0.319   0.090
    1UNL    H39   90  -0.267  -0.331   0.096
    1UNL    H40   91  -0.201  -0.208   0.017
    1UNL    H41   92  -0.072  -0.218   0.212
    1UNL    H42   93  -0.211  -0.208   0.319
    1UNL    H43   94  -0.099   0.225   0.240
    1UNL    H44   95   0.076   0.202   0.255
    1UNL    H45   96  -0.028   0.191   0.395
   0.00000   0.00000   0.00000   0.00000   0.00000   0.00000   0.00000   0.00000   0.00000
Generated with MDTraj, t= 78.0
 96
    1UNL     C1    1   0.042  -0.165  -0.097
    1UNL     C2    2  -0.012  -0.051  -0.056
    1UNL     C3    3  -0.071   0.046  -0.146
    1UNL     C4    4  -0.081  -0.006  -0.287
    1UNL     O1    5   0.047  -0.019  -0.346
    1UNL     C5    6   0.107   0.107  -0.380
    1UNL     O2    7   0.169   0.175  -0.267
    1UNL     C6    8   0.302   0.122  -0.229
    1UNL     C7    9   0.335   0.114  -0.084
    1UNL     O3   10   0.262   0.018  -0.016
    1UNL     C8   11   0.296   0.015   0.121
    1UNL     O4   12   0.372   0.126   0.162
    1UNL     C9   13   0.471   0.114   0.270
    1UNL    C10   14   0.604   0.063   0.217
    1UNL     O5   15   0.696   0.059   0.334
    1UNL    C11   16   0.423   0.012   0.374
    1UNL     O6   17   0.309   0.055   0.441
    1UNL    C12   18   0.404  -0.126   0.308
    1UNL     O7   19   0.319  -0.214   0.379
    1UNL    C13   20   0.368  -0.120   0.157
    1UNL     O8   21   0.480  -0.144   0.075
    1UNL    C14   22   0.330  -0.015  -0.291
    1UNL     O9   23   0.431  -0.098  -0.248
    1UNL    C15   24   0.334   0.004  -0.444
    1UNL    O10   25   0.356  -0.117  -0.520
    1UNL    C16   26   0.217   0.095  -0.494
    1UNL    O11   27   0.152   0.043  -0.616
    1UNL    O12   28  -0.174  -0.115  -0.289
    1UNL    C17   29  -0.294  -0.085  -0.236
    1UNL    C18   30  -0.328   0.025  -0.157
    1UNL    C19   31  -0.471   0.063  -0.148
    1UNL    O13   32  -0.501   0.172  -0.098
    1UNL    O14   33  -0.573  -0.022  -0.187
    1UNL    C20   34  -0.698   0.033  -0.151
    1UNL    C21   35  -0.217   0.106  -0.103
    1UNL    C22   36  -0.228   0.155   0.044
    1UNL    C23   37  -0.259   0.069   0.167
    1UNL    C24   38  -0.388  -0.012   0.164
    1UNL    C25   39  -0.514   0.053   0.184
    1UNL    C26   40  -0.631  -0.022   0.189
    1UNL    O15   41  -0.757   0.032   0.217
    1UNL    C27   42  -0.625  -0.162   0.143
    1UNL    O16   43  -0.743  -0.237   0.122
    1UNL    C28   44  -0.499  -0.214   0.116
    1UNL    C29   45  -0.383  -0.150   0.143
    1UNL    C30   46  -0.251  -0.220   0.131
    1UNL    C31   47  -0.146  -0.160   0.221
    1UNL     N1   48  -0.141  -0.013   0.196
    1UNL    C32   49  -0.024   0.045   0.250
    1UNL    C33   50   0.008   0.191   0.270
    1UNL    O17   51   0.058  -0.037   0.292
    1UNL     H1   52   0.084  -0.229  -0.029
    1UNL     H2   53   0.036  -0.184  -0.208
    1UNL     H3   54   0.001  -0.021   0.043
    1UNL     H4   55  -0.009   0.140  -0.140
    1UNL     H5   56  -0.145   0.068  -0.338
    1UNL     H6   57   0.030   0.168  -0.411
    1UNL     H7   58   0.376   0.196  -0.267
    1UNL     H8   59   0.434   0.084  -0.072
    1UNL     H9   60   0.307   0.208  -0.034
    1UNL    H10   61   0.205   0.016   0.185
    1UNL    H11   62   0.481   0.212   0.310
    1UNL    H12   63   0.599  -0.034   0.178
    1UNL    H13   64   0.635   0.129   0.140
    1UNL    H14   65   0.784   0.067   0.298
    1UNL    H15   66   0.500   0.006   0.447
    1UNL    H16   67   0.229   0.031   0.396
    1UNL    H17   68   0.504  -0.173   0.319
    1UNL    H18   69   0.223  -0.191   0.358
    1UNL    H19   70   0.305  -0.206   0.133
    1UNL    H20   71   0.466  -0.135  -0.025
    1UNL    H21   72   0.236  -0.079  -0.283
    1UNL    H22   73   0.455  -0.152  -0.325
    1UNL    H23   74   0.436   0.044  -0.468
    1UNL    H24   75   0.311  -0.096  -0.614
    1UNL    H25   76   0.264   0.190  -0.522
    1UNL    H26   77   0.105  -0.042  -0.593
    1UNL    H27   78  -0.371  -0.146  -0.273
    1UNL    H28   79  -0.703   0.051  -0.042
    1UNL    H29   80  -0.716   0.124  -0.207
    1UNL    H30   81  -0.774  -0.045  -0.166
    1UNL    H31   82  -0.230   0.194  -0.172
    1UNL    H32   83  -0.147   0.223   0.060
    1UNL    H33   84  -0.310   0.216   0.025
    1UNL    H34   85  -0.285   0.129   0.258
    1UNL    H35   86  -0.514   0.158   0.194
    1UNL    H36   87  -0.738   0.108   0.272
    1UNL    H37   88  -0.820  -0.177   0.150
    1UNL    H38   89  -0.497  -0.314   0.090
    1UNL    H39   90  -0.244  -0.328   0.154
    1UNL    H40   91  -0.218  -0.219   0.032
    1UNL    H41   92  -0.051  -0.208   0.209
    1UNL    H42   93  -0.191  -0.168   0.324
    1UNL    H43   94  -0.073   0.247   0.304
    1UNL    H44   95   0.066   0.231   0.185
    1UNL    H45   96   0.075   0.188   0.353
   0.00000   0.00000   0.00000   0.00000   0.00000   0.00000   0.00000   0.00000   0.00000
Generated with MDTraj, t= 79.0
 96
    1UNL     C1    1   0.037  -0.164  -0.101
    1UNL     C2    2  -0.004  -0.045  -0.059
    1UNL     C3    3  -0.062   0.073  -0.135
    1UNL     C4    4  -0.073   0.027  -0.285
    1UNL     O1    5   0.052   0.002  -0.350
    1UNL     C5    6   0.118   0.116  -0.374
    1UNL     O2    7   0.186   0.178  -0.265
    1UNL     C6    8   0.317   0.123  -0.241
    1UNL     C7    9   0.347   0.127  -0.089
    1UNL     O3   10   0.257   0.034  -0.023
    1UNL     C8   11   0.288   0.023   0.114
    1UNL     O4   12   0.374   0.128   0.157
    1UNL     C9   13   0.464   0.099   0.266
    1UNL    C10   14   0.604   0.081   0.216
    1UNL     O5   15   0.705   0.059   0.311
    1UNL    C11   16   0.408  -0.003   0.368
    1UNL     O6   17   0.301   0.052   0.443
    1UNL    C12   18   0.367  -0.135   0.300
    1UNL     O7   19   0.252  -0.196   0.355
    1UNL    C13   20   0.339  -0.119   0.145
    1UNL     O8   21   0.452  -0.160   0.071
    1UNL    C14   22   0.324  -0.024  -0.297
    1UNL     O9   23   0.441  -0.087  -0.246
    1UNL    C15   24   0.317  -0.020  -0.450
    1UNL    O10   25   0.293  -0.155  -0.487
    1UNL    C16   26   0.213   0.083  -0.496
    1UNL    O11   27   0.136   0.021  -0.599
    1UNL    O12   28  -0.160  -0.093  -0.296
    1UNL    C17   29  -0.274  -0.067  -0.227
    1UNL    C18   30  -0.306   0.039  -0.147
    1UNL    C19   31  -0.453   0.063  -0.125
    1UNL    O13   32  -0.483   0.178  -0.083
    1UNL    O14   33  -0.537  -0.033  -0.156
    1UNL    C20   34  -0.661   0.022  -0.152
    1UNL    C21   35  -0.204   0.129  -0.095
    1UNL    C22   36  -0.220   0.167   0.057
    1UNL    C23   37  -0.257   0.071   0.169
    1UNL    C24   38  -0.384  -0.022   0.157
    1UNL    C25   39  -0.512   0.039   0.179
    1UNL    C26   40  -0.620  -0.042   0.164
    1UNL    O15   41  -0.743   0.019   0.173
    1UNL    C27   42  -0.612  -0.180   0.137
    1UNL    O16   43  -0.720  -0.257   0.175
    1UNL    C28   44  -0.491  -0.235   0.109
    1UNL    C29   45  -0.376  -0.160   0.128
    1UNL    C30   46  -0.243  -0.227   0.107
    1UNL    C31   47  -0.153  -0.157   0.210
    1UNL     N1   48  -0.141  -0.011   0.201
    1UNL    C32   49  -0.028   0.055   0.260
    1UNL    C33   50   0.002   0.198   0.267
    1UNL    O17   51   0.045  -0.029   0.310
    1UNL     H1   52   0.073  -0.238  -0.030
    1UNL     H2   53   0.044  -0.178  -0.205
    1UNL     H3   54  -0.005  -0.043   0.047
    1UNL     H4   55   0.010   0.161  -0.138
    1UNL     H5   56  -0.128   0.105  -0.344
    1UNL     H6   57   0.051   0.190  -0.401
    1UNL     H7   58   0.386   0.195  -0.291
    1UNL     H8   59   0.443   0.092  -0.066
    1UNL     H9   60   0.326   0.224  -0.042
    1UNL    H10   61   0.191   0.036   0.167
    1UNL    H11   62   0.461   0.191   0.322
    1UNL    H12   63   0.608  -0.007   0.156
    1UNL    H13   64   0.643   0.166   0.162
    1UNL    H14   65   0.659   0.034   0.393
    1UNL    H15   66   0.478  -0.030   0.446
    1UNL    H16   67   0.214   0.010   0.408
    1UNL    H17   68   0.450  -0.205   0.320
    1UNL    H18   69   0.169  -0.151   0.337
    1UNL    H19   70   0.259  -0.189   0.108
    1UNL    H20   71   0.445  -0.125  -0.022
    1UNL    H21   72   0.235  -0.077  -0.248
    1UNL    H22   73   0.472  -0.161  -0.308
    1UNL    H23   74   0.418   0.003  -0.491
    1UNL    H24   75   0.244  -0.148  -0.570
    1UNL    H25   76   0.259   0.175  -0.529
    1UNL    H26   77   0.053  -0.002  -0.556
    1UNL    H27   78  -0.352  -0.128  -0.263
    1UNL    H28   79  -0.688   0.056  -0.052
    1UNL    H29   80  -0.658   0.104  -0.221
    1UNL    H30   81  -0.735  -0.054  -0.175
    1UNL    H31   82  -0.226   0.209  -0.169
    1UNL    H32   83  -0.128   0.221   0.088
    1UNL    H33   84  -0.300   0.234   0.056
    1UNL    H34   85  -0.280   0.128   0.261
    1UNL    H35   86  -0.513   0.148   0.202
    1UNL    H36   87  -0.736   0.115   0.188
    1UNL    H37   88  -0.791  -0.193   0.195
    1UNL    H38   89  -0.488  -0.346   0.095
    1UNL    H39   90  -0.242  -0.337   0.104
    1UNL    H40   91  -0.203  -0.210   0.008
    1UNL    H41   92  -0.052  -0.196   0.206
    1UNL    H42   93  -0.199  -0.168   0.312
    1UNL    H43   94  -0.095   0.260   0.274
    1UNL    H44   95   0.057   0.234   0.182
    1UNL    H45   96   0.052   0.215   0.353
   0.00000   0.00000   0.00000   0.00000   0.00000   0.00000   0.00000   0.00000   0.00000
Generated with MDTraj, t= 80.0
 96
    1UNL     C1    1   0.022  -0.147  -0.095
    1UNL     C2    2  -0.029  -0.031  -0.057
    1UNL     C3    3  -0.068   0.083  -0.144
    1UNL     C4    4  -0.072   0.036  -0.289
    1UNL     O1    5   0.060   0.005  -0.336
    1UNL     C5    6   0.132   0.120  -0.386
    1UNL     O2    7   0.207   0.194  -0.282
    1UNL     C6    8   0.327   0.124  -0.235
    1UNL     C7    9   0.338   0.146  -0.090
    1UNL     O3   10   0.243   0.066  -0.015
    1UNL     C8   11   0.286   0.037   0.117
    1UNL     O4   12   0.384   0.130   0.170
    1UNL     C9   13   0.473   0.082   0.275
    1UNL    C10   14   0.610   0.040   0.217
    1UNL     O5   15   0.719   0.076   0.292
    1UNL    C11   16   0.410  -0.030   0.364
    1UNL     O6   17   0.306   0.019   0.447
    1UNL    C12   18   0.365  -0.153   0.276
    1UNL     O7   19   0.254  -0.220   0.328
    1UNL    C13   20   0.332  -0.107   0.124
    1UNL     O8   21   0.452  -0.116   0.049
    1UNL    C14   22   0.328  -0.023  -0.280
    1UNL     O9   23   0.444  -0.098  -0.234
    1UNL    C15   24   0.314  -0.049  -0.435
    1UNL    O10   25   0.263  -0.177  -0.462
    1UNL    C16   26   0.224   0.057  -0.503
    1UNL    O11   27   0.140  -0.002  -0.599
    1UNL    O12   28  -0.159  -0.076  -0.300
    1UNL    C17   29  -0.283  -0.055  -0.249
    1UNL    C18   30  -0.315   0.048  -0.162
    1UNL    C19   31  -0.464   0.071  -0.148
    1UNL    O13   32  -0.502   0.176  -0.092
    1UNL    O14   33  -0.548  -0.031  -0.184
    1UNL    C20   34  -0.675   0.007  -0.145
    1UNL    C21   35  -0.209   0.138  -0.109
    1UNL    C22   36  -0.234   0.168   0.050
    1UNL    C23   37  -0.261   0.068   0.168
    1UNL    C24   38  -0.368  -0.024   0.157
    1UNL    C25   39  -0.494   0.032   0.174
    1UNL    C26   40  -0.605  -0.050   0.163
    1UNL    O15   41  -0.724   0.006   0.183
    1UNL    C27   42  -0.601  -0.189   0.139
    1UNL    O16   43  -0.726  -0.252   0.139
    1UNL    C28   44  -0.475  -0.249   0.143
    1UNL    C29   45  -0.361  -0.164   0.147
    1UNL    C30   46  -0.222  -0.213   0.110
    1UNL    C31   47  -0.138  -0.153   0.218
    1UNL     N1   48  -0.139  -0.003   0.211
    1UNL    C32   49  -0.042   0.067   0.287
    1UNL    C33   50  -0.049   0.213   0.321
    1UNL    O17   51   0.048  -0.001   0.334
    1UNL     H1   52   0.066  -0.223  -0.021
    1UNL     H2   53   0.019  -0.174  -0.195
    1UNL     H3   54  -0.025  -0.019   0.053
    1UNL     H4   55   0.008   0.169  -0.142
    1UNL     H5   56  -0.120   0.118  -0.349
    1UNL     H6   57   0.069   0.189  -0.431
    1UNL     H7   58   0.407   0.181  -0.284
    1UNL     H8   59   0.435   0.122  -0.056
    1UNL     H9   60   0.306   0.249  -0.061
    1UNL    H10   61   0.193   0.042   0.176
    1UNL    H11   62   0.500   0.167   0.337
    1UNL    H12   63   0.629  -0.067   0.207
    1UNL    H13   64   0.628   0.094   0.125
    1UNL    H14   65   0.714   0.047   0.388
    1UNL    H15   66   0.480  -0.068   0.442
    1UNL    H16   67   0.222   0.019   0.400
    1UNL    H17   68   0.447  -0.225   0.280
    1UNL    H18   69   0.178  -0.154   0.343
    1UNL    H19   70   0.258  -0.174   0.069
    1UNL    H20   71   0.431  -0.118  -0.045
    1UNL    H21   72   0.237  -0.071  -0.228
    1UNL    H22   73   0.448  -0.181  -0.295
    1UNL    H23   74   0.413  -0.050  -0.484
    1UNL    H24   75   0.263  -0.186  -0.558
    1UNL    H25   76   0.282   0.123  -0.566
    1UNL    H26   77   0.061  -0.039  -0.548
    1UNL    H27   78  -0.357  -0.125  -0.300
    1UNL    H28   79  -0.670   0.062  -0.051
    1UNL    H29   80  -0.705   0.074  -0.223
    1UNL    H30   81  -0.745  -0.073  -0.125
    1UNL    H31   82  -0.219   0.229  -0.172
    1UNL    H32   83  -0.142   0.223   0.086
    1UNL    H33   84  -0.309   0.235   0.067
    1UNL    H34   85  -0.293   0.121   0.259
    1UNL    H35   86  -0.503   0.135   0.188
    1UNL    H36   87  -0.717   0.102   0.203
    1UNL    H37   88  -0.796  -0.197   0.179
    1UNL    H38   89  -0.466  -0.353   0.146
    1UNL    H39   90  -0.226  -0.321   0.117
    1UNL    H40   91  -0.206  -0.205  -0.000
    1UNL    H41   92  -0.031  -0.183   0.216
    1UNL    H42   93  -0.180  -0.179   0.316
    1UNL    H43   94  -0.161   0.242   0.326
    1UNL    H44   95  -0.012   0.272   0.241
    1UNL    H45   96   0.003   0.228   0.411
   0.00000   0.00000   0.00000   0.00000   0.00000   0.00000   0.00000   0.00000   0.00000
Generated with MDTraj, t= 81.0
 96
    1UNL     C1    1   0.015  -0.148  -0.105
    1UNL     C2    2  -0.012  -0.025  -0.059
    1UNL     C3    3  -0.072   0.085  -0.143
    1UNL     C4    4  -0.084   0.033  -0.293
    1UNL     O1    5   0.044  -0.001  -0.341
    1UNL     C5    6   0.130   0.105  -0.383
    1UNL     O2    7   0.200   0.176  -0.277
    1UNL     C6    8   0.327   0.124  -0.232
    1UNL     C7    9   0.352   0.149  -0.086
    1UNL     O3   10   0.252   0.073  -0.013
    1UNL     C8   11   0.295   0.034   0.111
    1UNL     O4   12   0.378   0.137   0.176
    1UNL     C9   13   0.478   0.079   0.270
    1UNL    C10   14   0.615   0.067   0.208
    1UNL     O5   15   0.719   0.058   0.307
    1UNL    C11   16   0.431  -0.050   0.347
    1UNL     O6   17   0.360  -0.016   0.459
    1UNL    C12   18   0.357  -0.160   0.256
    1UNL     O7   19   0.234  -0.194   0.306
    1UNL    C13   20   0.353  -0.107   0.109
    1UNL     O8   21   0.482  -0.107   0.051
    1UNL    C14   22   0.324  -0.029  -0.273
    1UNL     O9   23   0.430  -0.111  -0.215
    1UNL    C15   24   0.333  -0.050  -0.427
    1UNL    O10   25   0.303  -0.183  -0.464
    1UNL    C16   26   0.224   0.050  -0.492
    1UNL    O11   27   0.150  -0.022  -0.584
    1UNL    O12   28  -0.180  -0.075  -0.315
    1UNL    C17   29  -0.300  -0.051  -0.261
    1UNL    C18   30  -0.330   0.041  -0.159
    1UNL    C19   31  -0.476   0.074  -0.145
    1UNL    O13   32  -0.524   0.175  -0.091
    1UNL    O14   33  -0.562  -0.022  -0.191
    1UNL    C20   34  -0.690   0.012  -0.166
    1UNL    C21   35  -0.220   0.127  -0.100
    1UNL    C22   36  -0.250   0.174   0.056
    1UNL    C23   37  -0.264   0.082   0.177
    1UNL    C24   38  -0.382  -0.014   0.171
    1UNL    C25   39  -0.508   0.036   0.174
    1UNL    C26   40  -0.615  -0.056   0.168
    1UNL    O15   41  -0.747  -0.027   0.192
    1UNL    C27   42  -0.601  -0.189   0.127
    1UNL    O16   43  -0.716  -0.266   0.120
    1UNL    C28   44  -0.470  -0.226   0.111
    1UNL    C29   45  -0.365  -0.150   0.150
    1UNL    C30   46  -0.225  -0.200   0.133
    1UNL    C31   47  -0.126  -0.131   0.226
    1UNL     N1   48  -0.136   0.016   0.219
    1UNL    C32   49  -0.035   0.075   0.296
    1UNL    C33   50  -0.056   0.217   0.352
    1UNL    O17   51   0.069   0.019   0.328
    1UNL     H1   52   0.054  -0.230  -0.050
    1UNL     H2   53  -0.020  -0.169  -0.204
    1UNL     H3   54   0.023  -0.001   0.038
    1UNL     H4   55  -0.009   0.180  -0.142
    1UNL     H5   56  -0.129   0.114  -0.353
    1UNL     H6   57   0.067   0.183  -0.415
    1UNL     H7   58   0.401   0.169  -0.297
    1UNL     H8   59   0.443   0.104  -0.051
    1UNL     H9   60   0.348   0.259  -0.059
    1UNL    H10   61   0.205   0.015   0.175
    1UNL    H11   62   0.487   0.158   0.348
    1UNL    H12   63   0.611  -0.026   0.149
    1UNL    H13   64   0.635   0.156   0.147
    1UNL    H14   65   0.734  -0.039   0.331
    1UNL    H15   66   0.519  -0.104   0.395
    1UNL    H16   67   0.266   0.018   0.432
    1UNL    H17   68   0.411  -0.253   0.260
    1UNL    H18   69   0.176  -0.118   0.313
    1UNL    H19   70   0.291  -0.179   0.044
    1UNL    H20   71   0.482  -0.086  -0.045
    1UNL    H21   72   0.228  -0.077  -0.237
    1UNL    H22   73   0.407  -0.202  -0.237
    1UNL    H23   74   0.437  -0.030  -0.452
    1UNL    H24   75   0.279  -0.193  -0.567
    1UNL    H25   76   0.272   0.132  -0.542
    1UNL    H26   77   0.103  -0.093  -0.538
    1UNL    H27   78  -0.385  -0.098  -0.317
    1UNL    H28   79  -0.715   0.002  -0.058
    1UNL    H29   80  -0.694   0.116  -0.203
    1UNL    H30   81  -0.760  -0.050  -0.222
    1UNL    H31   82  -0.223   0.227  -0.147
    1UNL    H32   83  -0.162   0.245   0.077
    1UNL    H33   84  -0.326   0.244   0.056
    1UNL    H34   85  -0.296   0.140   0.263
    1UNL    H35   86  -0.528   0.143   0.171
    1UNL    H36   87  -0.755   0.057   0.245
    1UNL    H37   88  -0.801  -0.210   0.126
    1UNL    H38   89  -0.451  -0.323   0.064
    1UNL    H39   90  -0.224  -0.309   0.123
    1UNL    H40   91  -0.191  -0.182   0.027
    1UNL    H41   92  -0.018  -0.165   0.208
    1UNL    H42   93  -0.153  -0.162   0.325
    1UNL    H43   94  -0.139   0.213   0.418
    1UNL    H44   95  -0.100   0.278   0.275
    1UNL    H45   96   0.037   0.258   0.400
   0.00000   0.00000   0.00000   0.00000   0.00000   0.00000   0.00000   0.00000   0.00000
Generated with MDTraj, t= 82.0
 96
    1UNL     C1    1   0.027  -0.139  -0.088
    1UNL     C2    2  -0.026  -0.021  -0.048
    1UNL     C3    3  -0.077   0.085  -0.138
    1UNL     C4    4  -0.084   0.022  -0.284
    1UNL     O1    5   0.043  -0.012  -0.341
    1UNL     C5    6   0.120   0.095  -0.383
    1UNL     O2    7   0.191   0.171  -0.286
    1UNL     C6    8   0.317   0.112  -0.236
    1UNL     C7    9   0.336   0.125  -0.083
    1UNL     O3   10   0.239   0.063  -0.004
    1UNL     C8   11   0.301   0.027   0.117
    1UNL     O4   12   0.389   0.128   0.178
    1UNL     C9   13   0.475   0.083   0.283
    1UNL    C10   14   0.613   0.067   0.228
    1UNL     O5   15   0.714   0.053   0.335
    1UNL    C11   16   0.414  -0.036   0.363
    1UNL     O6   17   0.307   0.005   0.442
    1UNL    C12   18   0.382  -0.165   0.266
    1UNL     O7   19   0.267  -0.232   0.311
    1UNL    C13   20   0.363  -0.112   0.119
    1UNL     O8   21   0.486  -0.126   0.046
    1UNL    C14   22   0.328  -0.031  -0.296
    1UNL     O9   23   0.453  -0.088  -0.246
    1UNL    C15   24   0.326  -0.036  -0.447
    1UNL    O10   25   0.341  -0.165  -0.495
    1UNL    C16   26   0.206   0.050  -0.500
    1UNL    O11   27   0.124  -0.035  -0.581
    1UNL    O12   28  -0.184  -0.086  -0.287
    1UNL    C17   29  -0.300  -0.056  -0.226
    1UNL    C18   30  -0.327   0.041  -0.141
    1UNL    C19   31  -0.467   0.070  -0.118
    1UNL    O13   32  -0.504   0.163  -0.041
    1UNL    O14   33  -0.560  -0.007  -0.190
    1UNL    C20   34  -0.682   0.043  -0.163
    1UNL    C21   35  -0.228   0.136  -0.101
    1UNL    C22   36  -0.253   0.182   0.050
    1UNL    C23   37  -0.268   0.082   0.169
    1UNL    C24   38  -0.382  -0.013   0.163
    1UNL    C25   39  -0.510   0.023   0.185
    1UNL    C26   40  -0.617  -0.062   0.158
    1UNL    O15   41  -0.747  -0.014   0.179
    1UNL    C27   42  -0.595  -0.188   0.112
    1UNL    O16   43  -0.703  -0.270   0.119
    1UNL    C28   44  -0.463  -0.224   0.089
    1UNL    C29   45  -0.353  -0.142   0.120
    1UNL    C30   46  -0.216  -0.204   0.123
    1UNL    C31   47  -0.132  -0.127   0.226
    1UNL     N1   48  -0.135   0.017   0.207
    1UNL    C32   49  -0.040   0.089   0.284
    1UNL    C33   50  -0.068   0.240   0.308
    1UNL    O17   51   0.059   0.026   0.321
    1UNL     H1   52   0.085  -0.195  -0.023
    1UNL     H2   53   0.045  -0.162  -0.198
    1UNL     H3   54  -0.023   0.005   0.054
    1UNL     H4   55  -0.002   0.169  -0.149
    1UNL     H5   56  -0.126   0.098  -0.353
    1UNL     H6   57   0.051   0.161  -0.426
    1UNL     H7   58   0.395   0.165  -0.287
    1UNL     H8   59   0.438   0.099  -0.053
    1UNL     H9   60   0.312   0.234  -0.055
    1UNL    H10   61   0.212   0.024   0.184
    1UNL    H11   62   0.482   0.174   0.350
    1UNL    H12   63   0.609  -0.021   0.159
    1UNL    H13   64   0.634   0.161   0.170
    1UNL    H14   65   0.709  -0.037   0.375
    1UNL    H15   66   0.497  -0.070   0.434
    1UNL    H16   67   0.225   0.016   0.393
    1UNL    H17   68   0.464  -0.236   0.269
    1UNL    H18   69   0.195  -0.163   0.329
    1UNL    H19   70   0.287  -0.174   0.059
    1UNL    H20   71   0.477  -0.122  -0.053
    1UNL    H21   72   0.242  -0.095  -0.257
    1UNL    H22   73   0.455  -0.175  -0.281
    1UNL    H23   74   0.412   0.022  -0.477
    1UNL    H24   75   0.259  -0.206  -0.511
    1UNL    H25   76   0.231   0.131  -0.568
    1UNL    H26   77   0.041  -0.067  -0.534
    1UNL    H27   78  -0.388  -0.100  -0.258
    1UNL    H28   79  -0.716   0.013  -0.059
    1UNL    H29   80  -0.669   0.153  -0.180
    1UNL    H30   81  -0.755   0.002  -0.235
    1UNL    H31   82  -0.232   0.235  -0.151
    1UNL    H32   83  -0.165   0.246   0.082
    1UNL    H33   84  -0.324   0.258   0.038
    1UNL    H34   85  -0.293   0.133   0.262
    1UNL    H35   86  -0.533   0.128   0.201
    1UNL    H36   87  -0.740   0.073   0.229
    1UNL    H37   88  -0.778  -0.219   0.151
    1UNL    H38   89  -0.451  -0.329   0.066
    1UNL    H39   90  -0.203  -0.311   0.133
    1UNL    H40   91  -0.174  -0.195   0.017
    1UNL    H41   92  -0.022  -0.162   0.203
    1UNL    H42   93  -0.161  -0.155   0.324
    1UNL    H43   94  -0.041   0.276   0.399
    1UNL    H44   95  -0.173   0.263   0.307
    1UNL    H45   96  -0.007   0.298   0.226
   0.00000   0.00000   0.00000   0.00000   0.00000   0.00000   0.00000   0.00000   0.00000
Generated with MDTraj, t= 83.0
 96
    1UNL     C1    1   0.036  -0.132  -0.058
    1UNL     C2    2  -0.014  -0.010  -0.038
    1UNL     C3    3  -0.080   0.078  -0.139
    1UNL     C4    4  -0.089  -0.006  -0.270
    1UNL     O1    5   0.040  -0.026  -0.320
    1UNL     C5    6   0.093   0.096  -0.378
    1UNL     O2    7   0.171   0.179  -0.282
    1UNL     C6    8   0.306   0.133  -0.245
    1UNL     C7    9   0.334   0.136  -0.098
    1UNL     O3   10   0.279   0.025  -0.036
    1UNL     C8   11   0.299   0.015   0.105
    1UNL     O4   12   0.398   0.116   0.153
    1UNL     C9   13   0.471   0.090   0.275
    1UNL    C10   14   0.618   0.064   0.240
    1UNL     O5   15   0.696   0.059   0.357
    1UNL    C11   16   0.410  -0.027   0.367
    1UNL     O6   17   0.317   0.028   0.454
    1UNL    C12   18   0.367  -0.149   0.285
    1UNL     O7   19   0.249  -0.208   0.337
    1UNL    C13   20   0.354  -0.125   0.135
    1UNL     O8   21   0.477  -0.142   0.056
    1UNL    C14   22   0.334  -0.005  -0.304
    1UNL     O9   23   0.449  -0.069  -0.249
    1UNL    C15   24   0.331  -0.004  -0.456
    1UNL    O10   25   0.345  -0.136  -0.498
    1UNL    C16   26   0.189   0.058  -0.503
    1UNL    O11   27   0.113  -0.039  -0.576
    1UNL    O12   28  -0.179  -0.114  -0.246
    1UNL    C17   29  -0.303  -0.071  -0.203
    1UNL    C18   30  -0.328   0.047  -0.142
    1UNL    C19   31  -0.466   0.095  -0.142
    1UNL    O13   32  -0.498   0.207  -0.096
    1UNL    O14   33  -0.567   0.006  -0.177
    1UNL    C20   34  -0.693   0.058  -0.146
    1UNL    C21   35  -0.223   0.132  -0.095
    1UNL    C22   36  -0.245   0.183   0.053
    1UNL    C23   37  -0.263   0.075   0.169
    1UNL    C24   38  -0.378  -0.021   0.153
    1UNL    C25   39  -0.506   0.020   0.174
    1UNL    C26   40  -0.622  -0.055   0.153
    1UNL    O15   41  -0.753  -0.011   0.172
    1UNL    C27   42  -0.604  -0.192   0.116
    1UNL    O16   43  -0.704  -0.277   0.094
    1UNL    C28   44  -0.473  -0.236   0.125
    1UNL    C29   45  -0.358  -0.152   0.134
    1UNL    C30   46  -0.220  -0.193   0.109
    1UNL    C31   47  -0.137  -0.144   0.230
    1UNL     N1   48  -0.128   0.002   0.202
    1UNL    C32   49  -0.016   0.056   0.259
    1UNL    C33   50   0.001   0.202   0.261
    1UNL    O17   51   0.068  -0.018   0.304
    1UNL     H1   52   0.068  -0.182   0.027
    1UNL     H2   53   0.056  -0.172  -0.156
    1UNL     H3   54  -0.005   0.040   0.060
    1UNL     H4   55  -0.014   0.167  -0.160
    1UNL     H5   56  -0.143   0.054  -0.342
    1UNL     H6   57   0.013   0.155  -0.412
    1UNL     H7   58   0.371   0.206  -0.294
    1UNL     H8   59   0.441   0.111  -0.090
    1UNL     H9   60   0.306   0.239  -0.053
    1UNL    H10   61   0.202   0.041   0.153
    1UNL    H11   62   0.460   0.189   0.330
    1UNL    H12   63   0.624  -0.035   0.184
    1UNL    H13   64   0.661   0.145   0.173
    1UNL    H14   65   0.645   0.081   0.435
    1UNL    H15   66   0.491  -0.066   0.440
    1UNL    H16   67   0.232   0.028   0.396
    1UNL    H17   68   0.442  -0.227   0.309
    1UNL    H18   69   0.176  -0.145   0.333
    1UNL    H19   70   0.279  -0.207   0.104
    1UNL    H20   71   0.457  -0.101  -0.035
    1UNL    H21   72   0.247  -0.072  -0.271
    1UNL    H22   73   0.466  -0.150  -0.312
    1UNL    H23   74   0.413   0.058  -0.492
    1UNL    H24   75   0.321  -0.148  -0.593
    1UNL    H25   76   0.201   0.148  -0.563
    1UNL    H26   77   0.112  -0.115  -0.516
    1UNL    H27   78  -0.383  -0.135  -0.232
    1UNL    H28   79  -0.711   0.063  -0.035
    1UNL    H29   80  -0.694   0.156  -0.197
    1UNL    H30   81  -0.771  -0.008  -0.185
    1UNL    H31   82  -0.224   0.230  -0.146
    1UNL    H32   83  -0.165   0.250   0.096
    1UNL    H33   84  -0.329   0.247   0.054
    1UNL    H34   85  -0.294   0.129   0.261
    1UNL    H35   86  -0.519   0.124   0.187
    1UNL    H36   87  -0.760   0.073   0.223
    1UNL    H37   88  -0.788  -0.231   0.117
    1UNL    H38   89  -0.451  -0.338   0.130
    1UNL    H39   90  -0.213  -0.300   0.092
    1UNL    H40   91  -0.178  -0.155   0.011
    1UNL    H41   92  -0.032  -0.198   0.241
    1UNL    H42   93  -0.197  -0.155   0.316
    1UNL    H43   94   0.087   0.229   0.318
    1UNL    H44   95  -0.086   0.247   0.311
    1UNL    H45   96   0.016   0.242   0.159
   0.00000   0.00000   0.00000   0.00000   0.00000   0.00000   0.00000   0.00000   0.00000
Generated with MDTraj, t= 84.0
 96
    1UNL     C1    1   0.022  -0.132  -0.051
    1UNL     C2    2  -0.002  -0.004  -0.043
    1UNL     C3    3  -0.079   0.073  -0.141
    1UNL     C4    4  -0.096  -0.001  -0.277
    1UNL     O1    5   0.026  -0.025  -0.338
    1UNL     C5    6   0.085   0.090  -0.380
    1UNL     O2    7   0.140   0.171  -0.274
    1UNL     C6    8   0.281   0.132  -0.234
    1UNL     C7    9   0.304   0.125  -0.081
    1UNL     O3   10   0.260   0.011  -0.013
    1UNL     C8   11   0.314   0.005   0.117
    1UNL     O4   12   0.416   0.100   0.143
    1UNL     C9   13   0.484   0.091   0.267
    1UNL    C10   14   0.633   0.059   0.244
    1UNL     O5   15   0.713   0.086   0.350
    1UNL    C11   16   0.427  -0.016   0.370
    1UNL     O6   17   0.308   0.033   0.436
    1UNL    C12   18   0.411  -0.156   0.298
    1UNL     O7   19   0.287  -0.222   0.354
    1UNL    C13   20   0.379  -0.128   0.145
    1UNL     O8   21   0.491  -0.143   0.057
    1UNL    C14   22   0.326  -0.004  -0.290
    1UNL     O9   23   0.456  -0.038  -0.245
    1UNL    C15   24   0.325   0.005  -0.445
    1UNL    O10   25   0.350  -0.127  -0.496
    1UNL    C16   26   0.186   0.056  -0.494
    1UNL    O11   27   0.114  -0.031  -0.581
    1UNL    O12   28  -0.181  -0.115  -0.255
    1UNL    C17   29  -0.302  -0.078  -0.201
    1UNL    C18   30  -0.328   0.040  -0.133
    1UNL    C19   31  -0.470   0.086  -0.138
    1UNL    O13   32  -0.488   0.202  -0.112
    1UNL    O14   33  -0.567   0.002  -0.158
    1UNL    C20   34  -0.691   0.066  -0.177
    1UNL    C21   35  -0.218   0.120  -0.091
    1UNL    C22   36  -0.237   0.164   0.059
    1UNL    C23   37  -0.256   0.060   0.167
    1UNL    C24   38  -0.379  -0.027   0.146
    1UNL    C25   39  -0.506   0.031   0.139
    1UNL    C26   40  -0.624  -0.044   0.141
    1UNL    O15   41  -0.742   0.018   0.174
    1UNL    C27   42  -0.610  -0.180   0.110
    1UNL    O16   43  -0.727  -0.254   0.110
    1UNL    C28   44  -0.490  -0.233   0.091
    1UNL    C29   45  -0.372  -0.163   0.118
    1UNL    C30   46  -0.236  -0.229   0.127
    1UNL    C31   47  -0.151  -0.155   0.229
    1UNL     N1   48  -0.130  -0.006   0.192
    1UNL    C32   49  -0.023   0.056   0.260
    1UNL    C33   50  -0.023   0.204   0.283
    1UNL    O17   51   0.073  -0.003   0.305
    1UNL     H1   52   0.101  -0.187   0.011
    1UNL     H2   53  -0.035  -0.182  -0.124
    1UNL     H3   54   0.050   0.052   0.033
    1UNL     H4   55  -0.020   0.164  -0.165
    1UNL     H5   56  -0.160   0.055  -0.345
    1UNL     H6   57   0.010   0.146  -0.432
    1UNL     H7   58   0.352   0.206  -0.275
    1UNL     H8   59   0.413   0.132  -0.072
    1UNL     H9   60   0.249   0.214  -0.034
    1UNL    H10   61   0.237   0.034   0.191
    1UNL    H11   62   0.464   0.195   0.310
    1UNL    H12   63   0.649  -0.046   0.203
    1UNL    H13   64   0.671   0.132   0.164
    1UNL    H14   65   0.799   0.041   0.343
    1UNL    H15   66   0.507  -0.026   0.449
    1UNL    H16   67   0.224   0.018   0.397
    1UNL    H17   68   0.507  -0.215   0.302
    1UNL    H18   69   0.212  -0.158   0.349
    1UNL    H19   70   0.309  -0.213   0.114
    1UNL    H20   71   0.473  -0.102  -0.028
    1UNL    H21   72   0.260  -0.085  -0.252
    1UNL    H22   73   0.505  -0.095  -0.314
    1UNL    H23   74   0.414   0.062  -0.480
    1UNL    H24   75   0.311  -0.140  -0.590
    1UNL    H25   76   0.208   0.149  -0.551
    1UNL    H26   77   0.076  -0.101  -0.520
    1UNL    H27   78  -0.387  -0.149  -0.224
    1UNL    H28   79  -0.709   0.143  -0.100
    1UNL    H29   80  -0.684   0.112  -0.275
    1UNL    H30   81  -0.770  -0.006  -0.172
    1UNL    H31   82  -0.230   0.215  -0.149
    1UNL    H32   83  -0.149   0.223   0.083
    1UNL    H33   84  -0.318   0.230   0.077
    1UNL    H34   85  -0.276   0.116   0.262
    1UNL    H35   86  -0.515   0.140   0.123
    1UNL    H36   87  -0.724   0.099   0.225
    1UNL    H37   88  -0.805  -0.192   0.112
    1UNL    H38   89  -0.490  -0.345   0.079
    1UNL    H39   90  -0.242  -0.337   0.146
    1UNL    H40   91  -0.194  -0.233   0.027
    1UNL    H41   92  -0.041  -0.192   0.218
    1UNL    H42   93  -0.185  -0.164   0.329
    1UNL    H43   94   0.054   0.213   0.364
    1UNL    H44   95  -0.118   0.248   0.323
    1UNL    H45   96   0.006   0.263   0.204
   0.00000   0.00000   0.00000   0.00000   0.00000   0.00000   0.00000   0.00000   0.00000
Generated with MDTraj, t= 85.0
 96
    1UNL     C1    1   0.041  -0.157  -0.088
    1UNL     C2    2  -0.015  -0.043  -0.056
    1UNL     C3    3  -0.093   0.050  -0.143
    1UNL     C4    4  -0.097  -0.011  -0.286
    1UNL     O1    5   0.033  -0.034  -0.344
    1UNL     C5    6   0.093   0.084  -0.375
    1UNL     O2    7   0.144   0.164  -0.268
    1UNL     C6    8   0.283   0.132  -0.228
    1UNL     C7    9   0.301   0.150  -0.076
    1UNL     O3   10   0.274   0.033  -0.009
    1UNL     C8   11   0.327   0.028   0.122
    1UNL     O4   12   0.424   0.129   0.152
    1UNL     C9   13   0.502   0.106   0.270
    1UNL    C10   14   0.647   0.086   0.218
    1UNL     O5   15   0.734   0.066   0.323
    1UNL    C11   16   0.441  -0.011   0.362
    1UNL     O6   17   0.332   0.032   0.439
    1UNL    C12   18   0.415  -0.140   0.283
    1UNL     O7   19   0.303  -0.208   0.346
    1UNL    C13   20   0.387  -0.122   0.136
    1UNL     O8   21   0.509  -0.132   0.060
    1UNL    C14   22   0.320  -0.008  -0.276
    1UNL     O9   23   0.437  -0.057  -0.221
    1UNL    C15   24   0.330  -0.004  -0.432
    1UNL    O10   25   0.362  -0.136  -0.476
    1UNL    C16   26   0.198   0.060  -0.487
    1UNL    O11   27   0.133  -0.013  -0.591
    1UNL    O12   28  -0.187  -0.127  -0.270
    1UNL    C17   29  -0.312  -0.086  -0.220
    1UNL    C18   30  -0.340   0.034  -0.158
    1UNL    C19   31  -0.483   0.077  -0.149
    1UNL    O13   32  -0.507   0.177  -0.086
    1UNL    O14   33  -0.575   0.001  -0.204
    1UNL    C20   34  -0.708   0.049  -0.174
    1UNL    C21   35  -0.232   0.110  -0.095
    1UNL    C22   36  -0.236   0.155   0.062
    1UNL    C23   37  -0.256   0.063   0.176
    1UNL    C24   38  -0.384  -0.015   0.173
    1UNL    C25   39  -0.508   0.050   0.180
    1UNL    C26   40  -0.630  -0.020   0.147
    1UNL    O15   41  -0.752   0.041   0.134
    1UNL    C27   42  -0.621  -0.158   0.117
    1UNL    O16   43  -0.739  -0.238   0.106
    1UNL    C28   44  -0.502  -0.220   0.104
    1UNL    C29   45  -0.388  -0.144   0.130
    1UNL    C30   46  -0.261  -0.209   0.109
    1UNL    C31   47  -0.155  -0.169   0.202
    1UNL     N1   48  -0.135  -0.017   0.211
    1UNL    C32   49  -0.027   0.040   0.287
    1UNL    C33   50  -0.033   0.173   0.360
    1UNL    O17   51   0.070  -0.031   0.306
    1UNL     H1   52   0.070  -0.234  -0.016
    1UNL     H2   53   0.045  -0.183  -0.187
    1UNL     H3   54  -0.021  -0.032   0.049
    1UNL     H4   55  -0.028   0.139  -0.164
    1UNL     H5   56  -0.156   0.045  -0.360
    1UNL     H6   57   0.018   0.144  -0.427
    1UNL     H7   58   0.349   0.209  -0.274
    1UNL     H8   59   0.404   0.171  -0.052
    1UNL     H9   60   0.236   0.239  -0.045
    1UNL    H10   61   0.237   0.043   0.185
    1UNL    H11   62   0.492   0.197   0.336
    1UNL    H12   63   0.644  -0.013   0.162
    1UNL    H13   64   0.686   0.162   0.142
    1UNL    H14   65   0.819   0.019   0.297
    1UNL    H15   66   0.519  -0.036   0.437
    1UNL    H16   67   0.246   0.016   0.382
    1UNL    H17   68   0.505  -0.210   0.286
    1UNL    H18   69   0.224  -0.156   0.321
    1UNL    H19   70   0.309  -0.196   0.102
    1UNL    H20   71   0.494  -0.114  -0.038
    1UNL    H21   72   0.239  -0.074  -0.245
    1UNL    H22   73   0.493  -0.094  -0.287
    1UNL    H23   74   0.417   0.054  -0.476
    1UNL    H24   75   0.347  -0.134  -0.566
    1UNL    H25   76   0.224   0.159  -0.534
    1UNL    H26   77   0.100  -0.092  -0.545
    1UNL    H27   78  -0.393  -0.156  -0.245
    1UNL    H28   79  -0.708   0.092  -0.073
    1UNL    H29   80  -0.736   0.128  -0.241
    1UNL    H30   81  -0.782  -0.027  -0.172
    1UNL    H31   82  -0.250   0.204  -0.155
    1UNL    H32   83  -0.149   0.218   0.080
    1UNL    H33   84  -0.319   0.222   0.056
    1UNL    H34   85  -0.268   0.131   0.264
    1UNL    H35   86  -0.507   0.154   0.188
    1UNL    H36   87  -0.746   0.136   0.153
    1UNL    H37   88  -0.813  -0.179   0.118
    1UNL    H38   89  -0.499  -0.323   0.098
    1UNL    H39   90  -0.278  -0.319   0.098
    1UNL    H40   91  -0.225  -0.191   0.010
    1UNL    H41   92  -0.052  -0.212   0.173
    1UNL    H42   93  -0.186  -0.198   0.299
    1UNL    H43   94   0.063   0.184   0.424
    1UNL    H44   95  -0.120   0.184   0.428
    1UNL    H45   96  -0.046   0.262   0.308
   0.00000   0.00000   0.00000   0.00000   0.00000   0.00000   0.00000   0.00000   0.00000
Generated with MDTraj, t= 86.0
 96
    1UNL     C1    1   0.033  -0.177  -0.094
    1UNL     C2    2  -0.023  -0.068  -0.054
    1UNL     C3    3  -0.065   0.041  -0.142
    1UNL     C4    4  -0.079   0.001  -0.291
    1UNL     O1    5   0.044  -0.024  -0.352
    1UNL     C5    6   0.106   0.100  -0.381
    1UNL     O2    7   0.161   0.169  -0.264
    1UNL     C6    8   0.296   0.128  -0.227
    1UNL     C7    9   0.317   0.158  -0.080
    1UNL     O3   10   0.237   0.077   0.003
    1UNL     C8   11   0.307   0.057   0.127
    1UNL     O4   12   0.398   0.156   0.160
    1UNL     C9   13   0.498   0.115   0.259
    1UNL    C10   14   0.632   0.066   0.203
    1UNL     O5   15   0.726   0.048   0.316
    1UNL    C11   16   0.449  -0.001   0.355
    1UNL     O6   17   0.339   0.043   0.428
    1UNL    C12   18   0.412  -0.138   0.273
    1UNL     O7   19   0.304  -0.204   0.349
    1UNL    C13   20   0.373  -0.088   0.130
    1UNL     O8   21   0.486  -0.092   0.045
    1UNL    C14   22   0.327  -0.017  -0.277
    1UNL     O9   23   0.451  -0.058  -0.222
    1UNL    C15   24   0.327  -0.024  -0.433
    1UNL    O10   25   0.337  -0.155  -0.470
    1UNL    C16   26   0.205   0.057  -0.494
    1UNL    O11   27   0.137  -0.018  -0.591
    1UNL    O12   28  -0.177  -0.110  -0.292
    1UNL    C17   29  -0.298  -0.076  -0.224
    1UNL    C18   30  -0.318   0.026  -0.138
    1UNL    C19   31  -0.462   0.055  -0.123
    1UNL    O13   32  -0.501   0.152  -0.063
    1UNL    O14   33  -0.556  -0.024  -0.184
    1UNL    C20   34  -0.684   0.037  -0.195
    1UNL    C21   35  -0.206   0.111  -0.092
    1UNL    C22   36  -0.214   0.151   0.062
    1UNL    C23   37  -0.250   0.049   0.172
    1UNL    C24   38  -0.386  -0.020   0.165
    1UNL    C25   39  -0.504   0.047   0.191
    1UNL    C26   40  -0.628  -0.009   0.166
    1UNL    O15   41  -0.747   0.061   0.187
    1UNL    C27   42  -0.632  -0.141   0.107
    1UNL    O16   43  -0.753  -0.197   0.086
    1UNL    C28   44  -0.516  -0.216   0.101
    1UNL    C29   45  -0.398  -0.154   0.123
    1UNL    C30   46  -0.276  -0.229   0.098
    1UNL    C31   47  -0.174  -0.185   0.210
    1UNL     N1   48  -0.146  -0.040   0.217
    1UNL    C32   49  -0.039   0.021   0.283
    1UNL    C33   50  -0.055   0.151   0.348
    1UNL    O17   51   0.060  -0.040   0.315
    1UNL     H1   52   0.058  -0.253  -0.026
    1UNL     H2   53   0.052  -0.208  -0.202
    1UNL     H3   54  -0.028  -0.059   0.056
    1UNL     H4   55   0.012   0.122  -0.140
    1UNL     H5   56  -0.133   0.083  -0.343
    1UNL     H6   57   0.034   0.166  -0.433
    1UNL     H7   58   0.372   0.195  -0.277
    1UNL     H8   59   0.420   0.141  -0.056
    1UNL     H9   60   0.302   0.262  -0.043
    1UNL    H10   61   0.223   0.054   0.200
    1UNL    H11   62   0.513   0.198   0.331
    1UNL    H12   63   0.632  -0.031   0.142
    1UNL    H13   64   0.666   0.143   0.130
    1UNL    H14   65   0.821   0.062   0.286
    1UNL    H15   66   0.529  -0.025   0.425
    1UNL    H16   67   0.250   0.017   0.394
    1UNL    H17   68   0.495  -0.214   0.257
    1UNL    H18   69   0.213  -0.168   0.330
    1UNL    H19   70   0.296  -0.160   0.099
    1UNL    H20   71   0.454  -0.071  -0.044
    1UNL    H21   72   0.250  -0.082  -0.236
    1UNL    H22   73   0.493  -0.119  -0.284
    1UNL    H23   74   0.424   0.024  -0.466
    1UNL    H24   75   0.311  -0.154  -0.572
    1UNL    H25   76   0.250   0.146  -0.544
    1UNL    H26   77   0.103  -0.097  -0.539
    1UNL    H27   78  -0.374  -0.135  -0.263
    1UNL    H28   79  -0.752  -0.023  -0.134
    1UNL    H29   80  -0.690   0.143  -0.164
    1UNL    H30   81  -0.717   0.032  -0.296
    1UNL    H31   82  -0.224   0.200  -0.157
    1UNL    H32   83  -0.121   0.194   0.094
    1UNL    H33   84  -0.286   0.230   0.055
    1UNL    H34   85  -0.262   0.113   0.263
    1UNL    H35   86  -0.508   0.153   0.221
    1UNL    H36   87  -0.735   0.158   0.184
    1UNL    H37   88  -0.822  -0.129   0.118
    1UNL    H38   89  -0.516  -0.326   0.086
    1UNL    H39   90  -0.287  -0.339   0.111
    1UNL    H40   91  -0.245  -0.227  -0.004
    1UNL    H41   92  -0.075  -0.237   0.186
    1UNL    H42   93  -0.221  -0.206   0.305
    1UNL    H43   94   0.045   0.178   0.391
    1UNL    H44   95  -0.125   0.136   0.429
    1UNL    H45   96  -0.105   0.237   0.285
   0.00000   0.00000   0.00000   0.00000   0.00000   0.00000   0.00000   0.00000   0.00000
Generated with MDTraj, t= 87.0
 96
    1UNL     C1    1   0.041  -0.201  -0.092
    1UNL     C2    2   0.002  -0.084  -0.044
    1UNL     C3    3  -0.049   0.036  -0.114
    1UNL     C4    4  -0.055   0.008  -0.276
    1UNL     O1    5   0.061  -0.020  -0.344
    1UNL     C5    6   0.118   0.099  -0.390
    1UNL     O2    7   0.180   0.183  -0.291
    1UNL     C6    8   0.312   0.142  -0.243
    1UNL     C7    9   0.350   0.161  -0.097
    1UNL     O3   10   0.252   0.092  -0.024
    1UNL     C8   11   0.289   0.068   0.113
    1UNL     O4   12   0.379   0.167   0.173
    1UNL     C9   13   0.475   0.121   0.270
    1UNL    C10   14   0.607   0.091   0.213
    1UNL     O5   15   0.697   0.061   0.321
    1UNL    C11   16   0.406   0.003   0.351
    1UNL     O6   17   0.291   0.045   0.416
    1UNL    C12   18   0.376  -0.123   0.267
    1UNL     O7   19   0.292  -0.210   0.334
    1UNL    C13   20   0.334  -0.088   0.124
    1UNL     O8   21   0.449  -0.113   0.042
    1UNL    C14   22   0.334  -0.004  -0.284
    1UNL     O9   23   0.456  -0.055  -0.239
    1UNL    C15   24   0.330  -0.031  -0.440
    1UNL    O10   25   0.304  -0.166  -0.469
    1UNL    C16   26   0.212   0.060  -0.505
    1UNL    O11   27   0.135  -0.010  -0.602
    1UNL    O12   28  -0.150  -0.106  -0.289
    1UNL    C17   29  -0.271  -0.085  -0.236
    1UNL    C18   30  -0.300   0.010  -0.140
    1UNL    C19   31  -0.444   0.061  -0.138
    1UNL    O13   32  -0.479   0.171  -0.101
    1UNL    O14   33  -0.543  -0.027  -0.173
    1UNL    C20   34  -0.668   0.026  -0.143
    1UNL    C21   35  -0.193   0.097  -0.079
    1UNL    C22   36  -0.211   0.143   0.068
    1UNL    C23   37  -0.256   0.051   0.188
    1UNL    C24   38  -0.387  -0.019   0.161
    1UNL    C25   39  -0.500   0.053   0.191
    1UNL    C26   40  -0.624  -0.008   0.181
    1UNL    O15   41  -0.745   0.048   0.221
    1UNL    C27   42  -0.642  -0.134   0.121
    1UNL    O16   43  -0.767  -0.187   0.095
    1UNL    C28   44  -0.520  -0.198   0.085
    1UNL    C29   45  -0.394  -0.151   0.121
    1UNL    C30   46  -0.271  -0.229   0.111
    1UNL    C31   47  -0.172  -0.188   0.226
    1UNL     N1   48  -0.150  -0.043   0.223
    1UNL    C32   49  -0.031   0.001   0.283
    1UNL    C33   50  -0.016   0.140   0.340
    1UNL    O17   51   0.059  -0.080   0.309
    1UNL     H1   52   0.071  -0.279  -0.031
    1UNL     H2   53   0.039  -0.223  -0.201
    1UNL     H3   54  -0.010  -0.073   0.064
    1UNL     H4   55   0.027   0.114  -0.093
    1UNL     H5   56  -0.116   0.091  -0.319
    1UNL     H6   57   0.035   0.157  -0.437
    1UNL     H7   58   0.385   0.202  -0.302
    1UNL     H8   59   0.446   0.131  -0.056
    1UNL     H9   60   0.341   0.267  -0.073
    1UNL    H10   61   0.193   0.083   0.167
    1UNL    H11   62   0.491   0.191   0.352
    1UNL    H12   63   0.599  -0.006   0.157
    1UNL    H13   64   0.640   0.166   0.141
    1UNL    H14   65   0.787   0.057   0.288
    1UNL    H15   66   0.475  -0.020   0.430
    1UNL    H16   67   0.218  -0.004   0.379
    1UNL    H17   68   0.471  -0.179   0.244
    1UNL    H18   69   0.201  -0.178   0.320
    1UNL    H19   70   0.260  -0.158   0.090
    1UNL    H20   71   0.432  -0.094  -0.055
    1UNL    H21   72   0.252  -0.064  -0.248
    1UNL    H22   73   0.452  -0.153  -0.273
    1UNL    H23   74   0.437  -0.010  -0.466
    1UNL    H24   75   0.300  -0.179  -0.566
    1UNL    H25   76   0.261   0.149  -0.549
    1UNL    H26   77   0.080  -0.072  -0.553
    1UNL    H27   78  -0.357  -0.141  -0.272
    1UNL    H28   79  -0.739  -0.043  -0.196
    1UNL    H29   80  -0.694   0.021  -0.034
    1UNL    H30   81  -0.677   0.130  -0.174
    1UNL    H31   82  -0.187   0.191  -0.136
    1UNL    H32   83  -0.136   0.209   0.104
    1UNL    H33   84  -0.305   0.194   0.060
    1UNL    H34   85  -0.266   0.112   0.279
    1UNL    H35   86  -0.485   0.157   0.191
    1UNL    H36   87  -0.723   0.136   0.261
    1UNL    H37   88  -0.830  -0.120   0.126
    1UNL    H38   89  -0.536  -0.294   0.040
    1UNL    H39   90  -0.300  -0.338   0.111
    1UNL    H40   91  -0.226  -0.223   0.016
    1UNL    H41   92  -0.070  -0.235   0.204
    1UNL    H42   93  -0.216  -0.213   0.322
    1UNL    H43   94   0.082   0.142   0.391
    1UNL    H44   95  -0.098   0.154   0.413
    1UNL    H45   96  -0.029   0.223   0.261
   0.00000   0.00000   0.00000   0.00000   0.00000   0.00000   0.00000   0.00000   0.00000
Generated with MDTraj, t= 88.0
 96
    1UNL     C1    1   0.062  -0.176  -0.083
    1UNL     C2    2  -0.016  -0.078  -0.040
    1UNL     C3    3  -0.047   0.047  -0.120
    1UNL     C4    4  -0.047  -0.004  -0.267
    1UNL     O1    5   0.074  -0.020  -0.325
    1UNL     C5    6   0.124   0.103  -0.386
    1UNL     O2    7   0.196   0.181  -0.293
    1UNL     C6    8   0.322   0.136  -0.251
    1UNL     C7    9   0.323   0.144  -0.099
    1UNL     O3   10   0.239   0.042  -0.040
    1UNL     C8   11   0.284   0.032   0.095
    1UNL     O4   12   0.355   0.146   0.143
    1UNL     C9   13   0.443   0.130   0.257
    1UNL    C10   14   0.588   0.109   0.229
    1UNL     O5   15   0.658   0.067   0.343
    1UNL    C11   16   0.389   0.015   0.347
    1UNL     O6   17   0.262   0.049   0.407
    1UNL    C12   18   0.393  -0.126   0.270
    1UNL     O7   19   0.296  -0.219   0.318
    1UNL    C13   20   0.362  -0.098   0.116
    1UNL     O8   21   0.481  -0.097   0.049
    1UNL    C14   22   0.345  -0.013  -0.302
    1UNL     O9   23   0.470  -0.073  -0.249
    1UNL    C15   24   0.330  -0.022  -0.451
    1UNL    O10   25   0.321  -0.155  -0.482
    1UNL    C16   26   0.212   0.065  -0.506
    1UNL    O11   27   0.135   0.000  -0.604
    1UNL    O12   28  -0.150  -0.111  -0.278
    1UNL    C17   29  -0.268  -0.084  -0.219
    1UNL    C18   30  -0.294   0.023  -0.141
    1UNL    C19   31  -0.431   0.064  -0.118
    1UNL    O13   32  -0.457   0.173  -0.069
    1UNL    O14   33  -0.525  -0.025  -0.158
    1UNL    C20   34  -0.650   0.040  -0.161
    1UNL    C21   35  -0.191   0.116  -0.089
    1UNL    C22   36  -0.218   0.150   0.062
    1UNL    C23   37  -0.258   0.057   0.181
    1UNL    C24   38  -0.392  -0.009   0.158
    1UNL    C25   39  -0.518   0.051   0.193
    1UNL    C26   40  -0.637  -0.011   0.190
    1UNL    O15   41  -0.759   0.055   0.210
    1UNL    C27   42  -0.643  -0.141   0.141
    1UNL    O16   43  -0.767  -0.198   0.154
    1UNL    C28   44  -0.522  -0.208   0.110
    1UNL    C29   45  -0.400  -0.141   0.117
    1UNL    C30   46  -0.269  -0.213   0.091
    1UNL    C31   47  -0.169  -0.185   0.204
    1UNL     N1   48  -0.146  -0.040   0.215
    1UNL    C32   49  -0.029  -0.007   0.279
    1UNL    C33   50  -0.010   0.130   0.328
    1UNL    O17   51   0.051  -0.098   0.308
    1UNL     H1   52   0.080  -0.267  -0.021
    1UNL     H2   53   0.099  -0.177  -0.180
    1UNL     H3   54  -0.045  -0.065   0.060
    1UNL     H4   55   0.040   0.112  -0.107
    1UNL     H5   56  -0.110   0.074  -0.315
    1UNL     H6   57   0.040   0.168  -0.420
    1UNL     H7   58   0.397   0.200  -0.301
    1UNL     H8   59   0.424   0.138  -0.060
    1UNL     H9   60   0.288   0.236  -0.052
    1UNL    H10   61   0.195   0.034   0.163
    1UNL    H11   62   0.431   0.219   0.317
    1UNL    H12   63   0.597   0.028   0.155
    1UNL    H13   64   0.628   0.199   0.191
    1UNL    H14   65   0.731   0.125   0.370
    1UNL    H15   66   0.457   0.010   0.431
    1UNL    H16   67   0.185  -0.009   0.373
    1UNL    H17   68   0.490  -0.174   0.289
    1UNL    H18   69   0.206  -0.181   0.322
    1UNL    H19   70   0.302  -0.179   0.082
    1UNL    H20   71   0.471  -0.082  -0.045
    1UNL    H21   72   0.262  -0.065  -0.257
    1UNL    H22   73   0.488  -0.169  -0.276
    1UNL    H23   74   0.416   0.025  -0.499
    1UNL    H24   75   0.312  -0.164  -0.577
    1UNL    H25   76   0.240   0.159  -0.559
    1UNL    H26   77   0.100  -0.082  -0.564
    1UNL    H27   78  -0.359  -0.146  -0.251
    1UNL    H28   79  -0.727  -0.035  -0.191
    1UNL    H29   80  -0.681   0.078  -0.059
    1UNL    H30   81  -0.642   0.127  -0.228
    1UNL    H31   82  -0.171   0.210  -0.142
    1UNL    H32   83  -0.135   0.209   0.085
    1UNL    H33   84  -0.304   0.216   0.055
    1UNL    H34   85  -0.267   0.117   0.271
    1UNL    H35   86  -0.518   0.158   0.211
    1UNL    H36   87  -0.744   0.152   0.227
    1UNL    H37   88  -0.830  -0.130   0.182
    1UNL    H38   89  -0.530  -0.306   0.071
    1UNL    H39   90  -0.290  -0.321   0.066
    1UNL    H40   91  -0.231  -0.183  -0.005
    1UNL    H41   92  -0.075  -0.245   0.185
    1UNL    H42   93  -0.214  -0.220   0.296
    1UNL    H43   94  -0.050   0.128   0.434
    1UNL    H44   95  -0.064   0.216   0.272
    1UNL    H45   96   0.085   0.169   0.336
   0.00000   0.00000   0.00000   0.00000   0.00000   0.00000   0.00000   0.00000   0.00000
Generated with MDTraj, t= 89.0
 96
    1UNL     C1    1   0.038  -0.157  -0.085
    1UNL     C2    2   0.003  -0.035  -0.051
    1UNL     C3    3  -0.060   0.069  -0.145
    1UNL     C4    4  -0.075   0.003  -0.283
    1UNL     O1    5   0.045  -0.026  -0.342
    1UNL     C5    6   0.116   0.091  -0.392
    1UNL     O2    7   0.188   0.168  -0.294
    1UNL     C6    8   0.320   0.128  -0.253
    1UNL     C7    9   0.341   0.130  -0.106
    1UNL     O3   10   0.270   0.030  -0.034
    1UNL     C8   11   0.304   0.023   0.107
    1UNL     O4   12   0.360   0.142   0.157
    1UNL     C9   13   0.439   0.122   0.284
    1UNL    C10   14   0.590   0.122   0.243
    1UNL     O5   15   0.676   0.141   0.347
    1UNL    C11   16   0.401  -0.009   0.369
    1UNL     O6   17   0.287   0.003   0.447
    1UNL    C12   18   0.411  -0.136   0.283
    1UNL     O7   19   0.319  -0.234   0.311
    1UNL    C13   20   0.393  -0.105   0.127
    1UNL     O8   21   0.517  -0.092   0.060
    1UNL    C14   22   0.351  -0.009  -0.308
    1UNL     O9   23   0.467  -0.079  -0.259
    1UNL    C15   24   0.352  -0.004  -0.465
    1UNL    O10   25   0.370  -0.141  -0.513
    1UNL    C16   26   0.211   0.056  -0.515
    1UNL    O11   27   0.138  -0.029  -0.603
    1UNL    O12   28  -0.162  -0.114  -0.281
    1UNL    C17   29  -0.284  -0.077  -0.218
    1UNL    C18   30  -0.307   0.034  -0.146
    1UNL    C19   31  -0.446   0.081  -0.136
    1UNL    O13   32  -0.472   0.184  -0.077
    1UNL    O14   33  -0.537   0.001  -0.196
    1UNL    C20   34  -0.674   0.039  -0.162
    1UNL    C21   35  -0.199   0.122  -0.096
    1UNL    C22   36  -0.220   0.146   0.061
    1UNL    C23   37  -0.261   0.044   0.169
    1UNL    C24   38  -0.392  -0.025   0.144
    1UNL    C25   39  -0.511   0.046   0.183
    1UNL    C26   40  -0.641   0.001   0.187
    1UNL    O15   41  -0.756   0.073   0.216
    1UNL    C27   42  -0.652  -0.139   0.162
    1UNL    O16   43  -0.778  -0.189   0.179
    1UNL    C28   44  -0.535  -0.214   0.132
    1UNL    C29   45  -0.409  -0.162   0.132
    1UNL    C30   46  -0.278  -0.238   0.103
    1UNL    C31   47  -0.181  -0.204   0.207
    1UNL     N1   48  -0.153  -0.060   0.219
    1UNL    C32   49  -0.043  -0.009   0.281
    1UNL    C33   50  -0.045   0.133   0.343
    1UNL    O17   51   0.055  -0.082   0.291
    1UNL     H1   52   0.091  -0.221  -0.010
    1UNL     H2   53   0.026  -0.196  -0.180
    1UNL     H3   54   0.018  -0.004   0.049
    1UNL     H4   55   0.008   0.153  -0.162
    1UNL     H5   56  -0.141   0.075  -0.336
    1UNL     H6   57   0.042   0.166  -0.428
    1UNL     H7   58   0.378   0.198  -0.311
    1UNL     H8   59   0.444   0.139  -0.070
    1UNL     H9   60   0.297   0.226  -0.078
    1UNL    H10   61   0.206   0.024   0.162
    1UNL    H11   62   0.415   0.209   0.338
    1UNL    H12   63   0.609   0.023   0.200
    1UNL    H13   64   0.607   0.198   0.173
    1UNL    H14   65   0.629   0.169   0.431
    1UNL    H15   66   0.489  -0.029   0.432
    1UNL    H16   67   0.209  -0.013   0.393
    1UNL    H17   68   0.508  -0.175   0.307
    1UNL    H18   69   0.228  -0.194   0.321
    1UNL    H19   70   0.338  -0.182   0.077
    1UNL    H20   71   0.501  -0.099  -0.038
    1UNL    H21   72   0.267  -0.068  -0.283
    1UNL    H22   73   0.479  -0.155  -0.314
    1UNL    H23   74   0.435   0.056  -0.500
    1UNL    H24   75   0.318  -0.167  -0.601
    1UNL    H25   76   0.227   0.147  -0.574
    1UNL    H26   77   0.058  -0.063  -0.557
    1UNL    H27   78  -0.365  -0.137  -0.264
    1UNL    H28   79  -0.739  -0.048  -0.146
    1UNL    H29   80  -0.668   0.086  -0.063
    1UNL    H30   81  -0.711   0.117  -0.227
    1UNL    H31   82  -0.202   0.217  -0.151
    1UNL    H32   83  -0.125   0.185   0.087
    1UNL    H33   84  -0.291   0.227   0.058
    1UNL    H34   85  -0.278   0.111   0.252
    1UNL    H35   86  -0.495   0.152   0.202
    1UNL    H36   87  -0.733   0.170   0.207
    1UNL    H37   88  -0.843  -0.119   0.213
    1UNL    H38   89  -0.541  -0.326   0.137
    1UNL    H39   90  -0.301  -0.345   0.079
    1UNL    H40   91  -0.247  -0.206   0.003
    1UNL    H41   92  -0.085  -0.260   0.200
    1UNL    H42   93  -0.220  -0.241   0.304
    1UNL    H43   94  -0.135   0.194   0.311
    1UNL    H44   95   0.050   0.192   0.343
    1UNL    H45   96  -0.063   0.125   0.447
   0.00000   0.00000   0.00000   0.00000   0.00000   0.00000   0.00000   0.00000   0.00000
Generated with MDTraj, t= 90.0
 96
    1UNL     C1    1   0.025  -0.169  -0.080
    1UNL     C2    2  -0.008  -0.047  -0.050
    1UNL     C3    3  -0.070   0.057  -0.134
    1UNL     C4    4  -0.083   0.006  -0.283
    1UNL     O1    5   0.041  -0.037  -0.341
    1UNL     C5    6   0.116   0.079  -0.378
    1UNL     O2    7   0.171   0.161  -0.268
    1UNL     C6    8   0.307   0.126  -0.229
    1UNL     C7    9   0.326   0.118  -0.076
    1UNL     O3   10   0.247   0.023  -0.012
    1UNL     C8   11   0.304   0.013   0.117
    1UNL     O4   12   0.373   0.130   0.161
    1UNL     C9   13   0.458   0.113   0.282
    1UNL    C10   14   0.602   0.146   0.245
    1UNL     O5   15   0.671   0.196   0.364
    1UNL    C11   16   0.443  -0.021   0.356
    1UNL     O6   17   0.336  -0.018   0.449
    1UNL    C12   18   0.425  -0.150   0.264
    1UNL     O7   19   0.326  -0.246   0.302
    1UNL    C13   20   0.397  -0.105   0.114
    1UNL     O8   21   0.526  -0.086   0.051
    1UNL    C14   22   0.349  -0.016  -0.291
    1UNL     O9   23   0.468  -0.072  -0.236
    1UNL    C15   24   0.357  -0.001  -0.445
    1UNL    O10   25   0.387  -0.123  -0.504
    1UNL    C16   26   0.218   0.045  -0.496
    1UNL    O11   27   0.149  -0.051  -0.572
    1UNL    O12   28  -0.186  -0.098  -0.297
    1UNL    C17   29  -0.311  -0.069  -0.246
    1UNL    C18   30  -0.336   0.034  -0.158
    1UNL    C19   31  -0.484   0.078  -0.150
    1UNL    O13   32  -0.491   0.190  -0.108
    1UNL    O14   33  -0.581  -0.008  -0.177
    1UNL    C20   34  -0.701   0.060  -0.162
    1UNL    C21   35  -0.219   0.108  -0.103
    1UNL    C22   36  -0.244   0.147   0.041
    1UNL    C23   37  -0.263   0.053   0.163
    1UNL    C24   38  -0.392  -0.015   0.150
    1UNL    C25   39  -0.505   0.063   0.180
    1UNL    C26   40  -0.628   0.004   0.193
    1UNL    O15   41  -0.747   0.075   0.209
    1UNL    C27   42  -0.638  -0.130   0.160
    1UNL    O16   43  -0.767  -0.189   0.163
    1UNL    C28   44  -0.525  -0.205   0.134
    1UNL    C29   45  -0.398  -0.152   0.136
    1UNL    C30   46  -0.283  -0.238   0.103
    1UNL    C31   47  -0.166  -0.195   0.186
    1UNL     N1   48  -0.148  -0.043   0.184
    1UNL    C32   49  -0.031  -0.006   0.262
    1UNL    C33   50  -0.011   0.114   0.342
    1UNL    O17   51   0.058  -0.090   0.269
    1UNL     H1   52   0.086  -0.237  -0.030
    1UNL     H2   53  -0.012  -0.205  -0.177
    1UNL     H3   54   0.025  -0.017   0.052
    1UNL     H4   55   0.001   0.138  -0.142
    1UNL     H5   56  -0.127   0.086  -0.341
    1UNL     H6   57   0.049   0.152  -0.431
    1UNL     H7   58   0.368   0.201  -0.276
    1UNL     H8   59   0.434   0.096  -0.065
    1UNL     H9   60   0.317   0.212  -0.020
    1UNL    H10   61   0.234   0.006   0.205
    1UNL    H11   62   0.413   0.186   0.347
    1UNL    H12   63   0.645   0.054   0.205
    1UNL    H13   64   0.595   0.221   0.174
    1UNL    H14   65   0.699   0.291   0.347
    1UNL    H15   66   0.535  -0.045   0.415
    1UNL    H16   67   0.248  -0.019   0.401
    1UNL    H17   68   0.515  -0.205   0.270
    1UNL    H18   69   0.240  -0.199   0.294
    1UNL    H19   70   0.353  -0.187   0.060
    1UNL    H20   71   0.510  -0.076  -0.048
    1UNL    H21   72   0.270  -0.085  -0.277
    1UNL    H22   73   0.513  -0.131  -0.297
    1UNL    H23   74   0.438   0.069  -0.465
    1UNL    H24   75   0.342  -0.141  -0.583
    1UNL    H25   76   0.241   0.128  -0.561
    1UNL    H26   77   0.103  -0.110  -0.510
    1UNL    H27   78  -0.390  -0.128  -0.275
    1UNL    H28   79  -0.770   0.022  -0.235
    1UNL    H29   80  -0.738   0.026  -0.066
    1UNL    H30   81  -0.687   0.166  -0.158
    1UNL    H31   82  -0.227   0.196  -0.172
    1UNL    H32   83  -0.159   0.204   0.075
    1UNL    H33   84  -0.330   0.211   0.038
    1UNL    H34   85  -0.264   0.118   0.251
    1UNL    H35   86  -0.494   0.164   0.207
    1UNL    H36   87  -0.729   0.172   0.205
    1UNL    H37   88  -0.826  -0.116   0.179
    1UNL    H38   89  -0.542  -0.306   0.128
    1UNL    H39   90  -0.311  -0.344   0.105
    1UNL    H40   91  -0.271  -0.218  -0.005
    1UNL    H41   92  -0.081  -0.238   0.133
    1UNL    H42   93  -0.150  -0.237   0.289
    1UNL    H43   94   0.081   0.160   0.316
    1UNL    H44   95  -0.032   0.082   0.444
    1UNL    H45   96  -0.091   0.189   0.315
   0.00000   0.00000   0.00000   0.00000   0.00000   0.00000   0.00000   0.00000   0.00000
Generated with MDTraj, t= 91.0
 96
    1UNL     C1    1  -0.003  -0.180  -0.114
    1UNL     C2    2  -0.016  -0.058  -0.071
    1UNL     C3    3  -0.073   0.047  -0.150
    1UNL     C4    4  -0.101  -0.004  -0.293
    1UNL     O1    5   0.021  -0.032  -0.363
    1UNL     C5    6   0.099   0.079  -0.387
    1UNL     O2    7   0.151   0.151  -0.272
    1UNL     C6    8   0.288   0.132  -0.229
    1UNL     C7    9   0.303   0.141  -0.075
    1UNL     O3   10   0.253   0.034  -0.009
    1UNL     C8   11   0.303   0.009   0.123
    1UNL     O4   12   0.346   0.129   0.187
    1UNL     C9   13   0.448   0.111   0.290
    1UNL    C10   14   0.593   0.141   0.243
    1UNL     O5   15   0.684   0.179   0.351
    1UNL    C11   16   0.435  -0.024   0.361
    1UNL     O6   17   0.314  -0.020   0.439
    1UNL    C12   18   0.434  -0.152   0.263
    1UNL     O7   19   0.343  -0.259   0.297
    1UNL    C13   20   0.409  -0.105   0.124
    1UNL     O8   21   0.526  -0.067   0.056
    1UNL    C14   22   0.344   0.004  -0.280
    1UNL     O9   23   0.456  -0.033  -0.215
    1UNL    C15   24   0.347  -0.008  -0.436
    1UNL    O10   25   0.374  -0.146  -0.457
    1UNL    C16   26   0.208   0.042  -0.500
    1UNL    O11   27   0.163  -0.074  -0.576
    1UNL    O12   28  -0.194  -0.115  -0.293
    1UNL    C17   29  -0.306  -0.076  -0.221
    1UNL    C18   30  -0.321   0.037  -0.141
    1UNL    C19   31  -0.470   0.080  -0.116
    1UNL    O13   32  -0.495   0.179  -0.051
    1UNL    O14   33  -0.561  -0.010  -0.171
    1UNL    C20   34  -0.688   0.049  -0.153
    1UNL    C21   35  -0.208   0.114  -0.099
    1UNL    C22   36  -0.219   0.153   0.048
    1UNL    C23   37  -0.245   0.055   0.174
    1UNL    C24   38  -0.383  -0.013   0.156
    1UNL    C25   39  -0.492   0.058   0.195
    1UNL    C26   40  -0.621   0.009   0.185
    1UNL    O15   41  -0.741   0.072   0.203
    1UNL    C27   42  -0.635  -0.123   0.140
    1UNL    O16   43  -0.754  -0.183   0.139
    1UNL    C28   44  -0.525  -0.191   0.093
    1UNL    C29   45  -0.395  -0.144   0.106
    1UNL    C30   46  -0.277  -0.224   0.073
    1UNL    C31   47  -0.171  -0.191   0.183
    1UNL     N1   48  -0.141  -0.044   0.197
    1UNL    C32   49  -0.013  -0.002   0.253
    1UNL    C33   50   0.014   0.144   0.278
    1UNL    O17   51   0.068  -0.091   0.284
    1UNL     H1   52   0.017  -0.269  -0.061
    1UNL     H2   53  -0.023  -0.209  -0.223
    1UNL     H3   54   0.026  -0.032   0.023
    1UNL     H4   55   0.003   0.121  -0.161
    1UNL     H5   56  -0.159   0.075  -0.338
    1UNL     H6   57   0.034   0.158  -0.437
    1UNL     H7   58   0.339   0.217  -0.270
    1UNL     H8   59   0.409   0.161  -0.048
    1UNL     H9   60   0.251   0.235  -0.056
    1UNL    H10   61   0.215  -0.020   0.184
    1UNL    H11   62   0.433   0.182   0.374
    1UNL    H12   63   0.641   0.048   0.211
    1UNL    H13   64   0.598   0.214   0.170
    1UNL    H14   65   0.669   0.128   0.434
    1UNL    H15   66   0.516  -0.036   0.436
    1UNL    H16   67   0.232  -0.037   0.392
    1UNL    H17   68   0.532  -0.191   0.271
    1UNL    H18   69   0.258  -0.215   0.303
    1UNL    H19   70   0.364  -0.189   0.068
    1UNL    H20   71   0.508  -0.058  -0.038
    1UNL    H21   72   0.270  -0.067  -0.251
    1UNL    H22   73   0.506  -0.108  -0.263
    1UNL    H23   74   0.421   0.057  -0.481
    1UNL    H24   75   0.330  -0.161  -0.550
    1UNL    H25   76   0.229   0.124  -0.567
    1UNL    H26   77   0.103  -0.125  -0.515
    1UNL    H27   78  -0.393  -0.136  -0.250
    1UNL    H28   79  -0.761   0.002  -0.218
    1UNL    H29   80  -0.719   0.017  -0.053
    1UNL    H30   81  -0.683   0.157  -0.157
    1UNL    H31   82  -0.221   0.206  -0.160
    1UNL    H32   83  -0.124   0.204   0.074
    1UNL    H33   84  -0.296   0.226   0.049
    1UNL    H34   85  -0.251   0.113   0.267
    1UNL    H35   86  -0.487   0.166   0.213
    1UNL    H36   87  -0.723   0.168   0.200
    1UNL    H37   88  -0.814  -0.112   0.178
    1UNL    H38   89  -0.533  -0.298   0.064
    1UNL    H39   90  -0.308  -0.329   0.066
    1UNL    H40   91  -0.230  -0.201  -0.026
    1UNL    H41   92  -0.081  -0.249   0.179
    1UNL    H42   93  -0.224  -0.225   0.277
    1UNL    H43   94   0.047   0.147   0.375
    1UNL    H44   95  -0.078   0.198   0.257
    1UNL    H45   96   0.109   0.182   0.221
   0.00000   0.00000   0.00000   0.00000   0.00000   0.00000   0.00000   0.00000   0.00000
Generated with MDTraj, t= 92.0
 96
    1UNL     C1    1   0.026  -0.186  -0.106
    1UNL     C2    2  -0.020  -0.070  -0.061
    1UNL     C3    3  -0.080   0.040  -0.154
    1UNL     C4    4  -0.086  -0.018  -0.296
    1UNL     O1    5   0.047  -0.050  -0.343
    1UNL     C5    6   0.108   0.067  -0.396
    1UNL     O2    7   0.148   0.161  -0.293
    1UNL     C6    8   0.283   0.146  -0.238
    1UNL     C7    9   0.271   0.150  -0.079
    1UNL     O3   10   0.237   0.029  -0.028
    1UNL     C8   11   0.288   0.020   0.108
    1UNL     O4   12   0.330   0.144   0.178
    1UNL     C9   13   0.425   0.121   0.291
    1UNL    C10   14   0.572   0.145   0.256
    1UNL     O5   15   0.648   0.109   0.368
    1UNL    C11   16   0.412  -0.010   0.362
    1UNL     O6   17   0.294  -0.001   0.445
    1UNL    C12   18   0.416  -0.135   0.259
    1UNL     O7   19   0.322  -0.236   0.292
    1UNL    C13   20   0.391  -0.095   0.114
    1UNL     O8   21   0.511  -0.064   0.055
    1UNL    C14   22   0.336   0.004  -0.275
    1UNL     O9   23   0.463  -0.021  -0.222
    1UNL    C15   24   0.338  -0.028  -0.433
    1UNL    O10   25   0.348  -0.163  -0.457
    1UNL    C16   26   0.215   0.037  -0.506
    1UNL    O11   27   0.149  -0.053  -0.595
    1UNL    O12   28  -0.190  -0.116  -0.303
    1UNL    C17   29  -0.307  -0.069  -0.240
    1UNL    C18   30  -0.327   0.035  -0.157
    1UNL    C19   31  -0.464   0.085  -0.125
    1UNL    O13   32  -0.473   0.185  -0.058
    1UNL    O14   33  -0.566   0.004  -0.169
    1UNL    C20   34  -0.686   0.062  -0.129
    1UNL    C21   35  -0.214   0.104  -0.098
    1UNL    C22   36  -0.208   0.147   0.056
    1UNL    C23   37  -0.230   0.050   0.177
    1UNL    C24   38  -0.372  -0.010   0.167
    1UNL    C25   39  -0.482   0.053   0.213
    1UNL    C26   40  -0.608  -0.001   0.192
    1UNL    O15   41  -0.725   0.054   0.229
    1UNL    C27   42  -0.617  -0.122   0.117
    1UNL    O16   43  -0.745  -0.163   0.086
    1UNL    C28   44  -0.505  -0.199   0.101
    1UNL    C29   45  -0.382  -0.139   0.117
    1UNL    C30   46  -0.260  -0.226   0.097
    1UNL    C31   47  -0.152  -0.191   0.205
    1UNL     N1   48  -0.122  -0.049   0.206
    1UNL    C32   49   0.008  -0.006   0.254
    1UNL    C33   50   0.039   0.135   0.299
    1UNL    O17   51   0.084  -0.096   0.285
    1UNL     H1   52   0.103  -0.241  -0.054
    1UNL     H2   53   0.013  -0.222  -0.202
    1UNL     H3   54   0.011  -0.042   0.036
    1UNL     H4   55  -0.006   0.117  -0.168
    1UNL     H5   56  -0.133   0.060  -0.357
    1UNL     H6   57   0.034   0.128  -0.459
    1UNL     H7   58   0.356   0.219  -0.270
    1UNL     H8   59   0.375   0.179  -0.049
    1UNL     H9   60   0.210   0.232  -0.039
    1UNL    H10   61   0.197  -0.013   0.161
    1UNL    H11   62   0.406   0.196   0.374
    1UNL    H12   63   0.613   0.085   0.176
    1UNL    H13   64   0.587   0.247   0.234
    1UNL    H14   65   0.742   0.128   0.360
    1UNL    H15   66   0.492  -0.025   0.437
    1UNL    H16   67   0.215  -0.037   0.391
    1UNL    H17   68   0.516  -0.174   0.266
    1UNL    H18   69   0.230  -0.196   0.297
    1UNL    H19   70   0.344  -0.182   0.060
    1UNL    H20   71   0.486  -0.034  -0.039
    1UNL    H21   72   0.275  -0.075  -0.237
    1UNL    H22   73   0.496  -0.104  -0.257
    1UNL    H23   74   0.431   0.019  -0.469
    1UNL    H24   75   0.275  -0.187  -0.522
    1UNL    H25   76   0.257   0.121  -0.563
    1UNL    H26   77   0.064  -0.078  -0.555
    1UNL    H27   78  -0.391  -0.120  -0.302
    1UNL    H28   79  -0.746  -0.020  -0.083
    1UNL    H29   80  -0.669   0.133  -0.045
    1UNL    H30   81  -0.735   0.116  -0.212
    1UNL    H31   82  -0.222   0.204  -0.147
    1UNL    H32   83  -0.115   0.209   0.066
    1UNL    H33   84  -0.283   0.221   0.057
    1UNL    H34   85  -0.239   0.108   0.272
    1UNL    H35   86  -0.488   0.152   0.251
    1UNL    H36   87  -0.704   0.143   0.260
    1UNL    H37   88  -0.802  -0.095   0.124
    1UNL    H38   89  -0.504  -0.299   0.070
    1UNL    H39   90  -0.274  -0.333   0.096
    1UNL    H40   91  -0.219  -0.205  -0.007
    1UNL    H41   92  -0.068  -0.257   0.189
    1UNL    H42   93  -0.189  -0.230   0.308
    1UNL    H43   94  -0.007   0.141   0.395
    1UNL    H44   95   0.005   0.217   0.238
    1UNL    H45   96   0.140   0.154   0.322
   0.00000   0.00000   0.00000   0.00000   0.00000   0.00000   0.00000   0.00000   0.00000
Generated with MDTraj, t= 93.0
 96
    1UNL     C1    1   0.052  -0.192  -0.122
    1UNL     C2    2  -0.002  -0.087  -0.066
    1UNL     C3    3  -0.055   0.035  -0.140
    1UNL     C4    4  -0.088  -0.009  -0.284
    1UNL     O1    5   0.030  -0.029  -0.366
    1UNL     C5    6   0.104   0.082  -0.397
    1UNL     O2    7   0.153   0.160  -0.285
    1UNL     C6    8   0.295   0.131  -0.253
    1UNL     C7    9   0.311   0.152  -0.100
    1UNL     O3   10   0.238   0.066  -0.027
    1UNL     C8   11   0.286   0.043   0.104
    1UNL     O4   12   0.346   0.153   0.166
    1UNL     C9   13   0.431   0.127   0.284
    1UNL    C10   14   0.579   0.141   0.256
    1UNL     O5   15   0.661   0.143   0.368
    1UNL    C11   16   0.405  -0.006   0.354
    1UNL     O6   17   0.300  -0.001   0.447
    1UNL    C12   18   0.400  -0.136   0.257
    1UNL     O7   19   0.303  -0.236   0.292
    1UNL    C13   20   0.365  -0.093   0.107
    1UNL     O8   21   0.491  -0.076   0.042
    1UNL    C14   22   0.334  -0.012  -0.290
    1UNL     O9   23   0.464  -0.041  -0.240
    1UNL    C15   24   0.332  -0.039  -0.450
    1UNL    O10   25   0.319  -0.179  -0.475
    1UNL    C16   26   0.211   0.044  -0.509
    1UNL    O11   27   0.148  -0.036  -0.609
    1UNL    O12   28  -0.177  -0.122  -0.279
    1UNL    C17   29  -0.290  -0.088  -0.216
    1UNL    C18   30  -0.305   0.018  -0.128
    1UNL    C19   31  -0.441   0.093  -0.124
    1UNL    O13   32  -0.456   0.205  -0.087
    1UNL    O14   33  -0.546   0.009  -0.151
    1UNL    C20   34  -0.662   0.081  -0.147
    1UNL    C21   35  -0.187   0.098  -0.079
    1UNL    C22   36  -0.201   0.149   0.067
    1UNL    C23   37  -0.239   0.049   0.173
    1UNL    C24   38  -0.366  -0.025   0.156
    1UNL    C25   39  -0.477   0.048   0.199
    1UNL    C26   40  -0.608  -0.009   0.190
    1UNL    O15   41  -0.724   0.059   0.229
    1UNL    C27   42  -0.619  -0.137   0.131
    1UNL    O16   43  -0.758  -0.182   0.111
    1UNL    C28   44  -0.512  -0.203   0.088
    1UNL    C29   45  -0.379  -0.152   0.100
    1UNL    C30   46  -0.256  -0.233   0.081
    1UNL    C31   47  -0.160  -0.183   0.192
    1UNL     N1   48  -0.123  -0.045   0.204
    1UNL    C32   49  -0.022  -0.011   0.294
    1UNL    C33   50  -0.034   0.121   0.363
    1UNL    O17   51   0.053  -0.093   0.337
    1UNL     H1   52   0.094  -0.284  -0.069
    1UNL     H2   53   0.042  -0.196  -0.227
    1UNL     H3   54  -0.003  -0.072   0.043
    1UNL     H4   55   0.031   0.099  -0.145
    1UNL     H5   56  -0.153   0.065  -0.334
    1UNL     H6   57   0.034   0.152  -0.455
    1UNL     H7   58   0.358   0.205  -0.305
    1UNL     H8   59   0.419   0.152  -0.068
    1UNL     H9   60   0.289   0.257  -0.081
    1UNL    H10   61   0.200   0.018   0.165
    1UNL    H11   62   0.392   0.209   0.352
    1UNL    H12   63   0.601   0.056   0.188
    1UNL    H13   64   0.600   0.228   0.196
    1UNL    H14   65   0.611   0.190   0.439
    1UNL    H15   66   0.485  -0.035   0.423
    1UNL    H16   67   0.216  -0.038   0.407
    1UNL    H17   68   0.501  -0.183   0.254
    1UNL    H18   69   0.214  -0.202   0.300
    1UNL    H19   70   0.313  -0.184   0.060
    1UNL    H20   71   0.483  -0.066  -0.053
    1UNL    H21   72   0.262  -0.081  -0.247
    1UNL    H22   73   0.485  -0.129  -0.258
    1UNL    H23   74   0.433  -0.004  -0.483
    1UNL    H24   75   0.292  -0.197  -0.563
    1UNL    H25   76   0.250   0.134  -0.563
    1UNL    H26   77   0.075  -0.086  -0.564
    1UNL    H27   78  -0.376  -0.142  -0.246
    1UNL    H28   79  -0.751   0.017  -0.125
    1UNL    H29   80  -0.656   0.152  -0.060
    1UNL    H30   81  -0.665   0.143  -0.241
    1UNL    H31   82  -0.180   0.194  -0.135
    1UNL    H32   83  -0.117   0.215   0.104
    1UNL    H33   84  -0.282   0.218   0.068
    1UNL    H34   85  -0.246   0.109   0.267
    1UNL    H35   86  -0.470   0.157   0.206
    1UNL    H36   87  -0.705   0.147   0.265
    1UNL    H37   88  -0.812  -0.107   0.150
    1UNL    H38   89  -0.527  -0.304   0.053
    1UNL    H39   90  -0.290  -0.336   0.072
    1UNL    H40   91  -0.212  -0.214  -0.022
    1UNL    H41   92  -0.074  -0.244   0.184
    1UNL    H42   93  -0.198  -0.221   0.295
    1UNL    H43   94  -0.133   0.113   0.416
    1UNL    H44   95  -0.017   0.204   0.303
    1UNL    H45   96   0.028   0.125   0.442
   0.00000   0.00000   0.00000   0.00000   0.00000   0.00000   0.00000   0.00000   0.00000
Generated with MDTraj, t= 94.0
 96
    1UNL     C1    1   0.065  -0.191  -0.068
    1UNL     C2    2  -0.001  -0.081  -0.041
    1UNL     C3    3  -0.039   0.034  -0.130
    1UNL     C4    4  -0.068  -0.020  -0.274
    1UNL     O1    5   0.046  -0.035  -0.363
    1UNL     C5    6   0.110   0.089  -0.395
    1UNL     O2    7   0.169   0.163  -0.282
    1UNL     C6    8   0.304   0.118  -0.248
    1UNL     C7    9   0.322   0.141  -0.102
    1UNL     O3   10   0.230   0.077  -0.020
    1UNL     C8   11   0.284   0.050   0.110
    1UNL     O4   12   0.367   0.155   0.150
    1UNL     C9   13   0.440   0.127   0.273
    1UNL    C10   14   0.593   0.136   0.241
    1UNL     O5   15   0.679   0.186   0.341
    1UNL    C11   16   0.406  -0.016   0.353
    1UNL     O6   17   0.303  -0.005   0.446
    1UNL    C12   18   0.388  -0.130   0.255
    1UNL     O7   19   0.292  -0.227   0.302
    1UNL    C13   20   0.367  -0.079   0.110
    1UNL     O8   21   0.491  -0.060   0.042
    1UNL    C14   22   0.325  -0.026  -0.302
    1UNL     O9   23   0.446  -0.086  -0.253
    1UNL    C15   24   0.318  -0.037  -0.457
    1UNL    O10   25   0.298  -0.170  -0.504
    1UNL    C16   26   0.209   0.057  -0.511
    1UNL    O11   27   0.136  -0.013  -0.604
    1UNL    O12   28  -0.173  -0.115  -0.283
    1UNL    C17   29  -0.287  -0.066  -0.230
    1UNL    C18   30  -0.291   0.038  -0.144
    1UNL    C19   31  -0.421   0.101  -0.126
    1UNL    O13   32  -0.431   0.203  -0.065
    1UNL    O14   33  -0.528   0.025  -0.174
    1UNL    C20   34  -0.647   0.085  -0.142
    1UNL    C21   35  -0.172   0.100  -0.085
    1UNL    C22   36  -0.179   0.135   0.065
    1UNL    C23   37  -0.247   0.040   0.169
    1UNL    C24   38  -0.381  -0.017   0.143
    1UNL    C25   39  -0.500   0.056   0.174
    1UNL    C26   40  -0.625  -0.008   0.174
    1UNL    O15   41  -0.740   0.059   0.189
    1UNL    C27   42  -0.628  -0.149   0.138
    1UNL    O16   43  -0.748  -0.213   0.158
    1UNL    C28   44  -0.514  -0.215   0.097
    1UNL    C29   45  -0.392  -0.148   0.094
    1UNL    C30   46  -0.257  -0.222   0.077
    1UNL    C31   47  -0.168  -0.205   0.198
    1UNL     N1   48  -0.157  -0.061   0.227
    1UNL    C32   49  -0.056  -0.027   0.316
    1UNL    C33   50  -0.069   0.108   0.396
    1UNL    O17   51   0.031  -0.104   0.346
    1UNL     H1   52   0.062  -0.271  -0.001
    1UNL     H2   53   0.089  -0.209  -0.171
    1UNL     H3   54  -0.039  -0.068   0.059
    1UNL     H4   55   0.041   0.106  -0.123
    1UNL     H5   56  -0.124   0.069  -0.319
    1UNL     H6   57   0.028   0.159  -0.438
    1UNL     H7   58   0.369   0.187  -0.308
    1UNL     H8   59   0.430   0.113  -0.085
    1UNL     H9   60   0.337   0.243  -0.072
    1UNL    H10   61   0.199   0.048   0.180
    1UNL    H11   62   0.428   0.217   0.338
    1UNL    H12   63   0.631   0.034   0.212
    1UNL    H13   64   0.606   0.190   0.144
    1UNL    H14   65   0.700   0.284   0.329
    1UNL    H15   66   0.495  -0.050   0.408
    1UNL    H16   67   0.218  -0.047   0.407
    1UNL    H17   68   0.488  -0.183   0.245
    1UNL    H18   69   0.199  -0.190   0.318
    1UNL    H19   70   0.311  -0.154   0.047
    1UNL    H20   71   0.486  -0.060  -0.059
    1UNL    H21   72   0.236  -0.078  -0.271
    1UNL    H22   73   0.470  -0.167  -0.302
    1UNL    H23   74   0.410  -0.002  -0.509
    1UNL    H24   75   0.287  -0.172  -0.608
    1UNL    H25   76   0.239   0.155  -0.557
    1UNL    H26   77   0.107  -0.095  -0.558
    1UNL    H27   78  -0.373  -0.111  -0.265
    1UNL    H28   79  -0.724   0.064  -0.217
    1UNL    H29   80  -0.686   0.042  -0.050
    1UNL    H30   81  -0.626   0.193  -0.133
    1UNL    H31   82  -0.151   0.198  -0.130
    1UNL    H32   83  -0.075   0.157   0.103
    1UNL    H33   84  -0.223   0.232   0.080
    1UNL    H34   85  -0.252   0.103   0.262
    1UNL    H35   86  -0.501   0.162   0.184
    1UNL    H36   87  -0.729   0.157   0.191
    1UNL    H37   88  -0.818  -0.147   0.179
    1UNL    H38   89  -0.507  -0.324   0.081
    1UNL    H39   90  -0.282  -0.328   0.066
    1UNL    H40   91  -0.218  -0.201  -0.026
    1UNL    H41   92  -0.073  -0.250   0.183
    1UNL    H42   93  -0.207  -0.275   0.284
    1UNL    H43   94  -0.150   0.088   0.467
    1UNL    H44   95  -0.062   0.195   0.343
    1UNL    H45   96   0.011   0.110   0.467
   0.00000   0.00000   0.00000   0.00000   0.00000   0.00000   0.00000   0.00000   0.00000
Generated with MDTraj, t= 95.0
 96
    1UNL     C1    1   0.040  -0.194  -0.094
    1UNL     C2    2   0.002  -0.080  -0.039
    1UNL     C3    3  -0.047   0.043  -0.113
    1UNL     C4    4  -0.067  -0.004  -0.254
    1UNL     O1    5   0.059  -0.029  -0.326
    1UNL     C5    6   0.116   0.091  -0.387
    1UNL     O2    7   0.184   0.179  -0.294
    1UNL     C6    8   0.316   0.130  -0.254
    1UNL     C7    9   0.326   0.135  -0.101
    1UNL     O3   10   0.241   0.043  -0.034
    1UNL     C8   11   0.283   0.025   0.101
    1UNL     O4   12   0.346   0.145   0.151
    1UNL     C9   13   0.436   0.134   0.256
    1UNL    C10   14   0.576   0.150   0.210
    1UNL     O5   15   0.678   0.146   0.308
    1UNL    C11   16   0.405   0.012   0.347
    1UNL     O6   17   0.288   0.024   0.422
    1UNL    C12   18   0.399  -0.121   0.259
    1UNL     O7   19   0.313  -0.220   0.329
    1UNL    C13   20   0.371  -0.099   0.107
    1UNL     O8   21   0.500  -0.085   0.038
    1UNL    C14   22   0.334  -0.017  -0.305
    1UNL     O9   23   0.437  -0.096  -0.247
    1UNL    C15   24   0.333  -0.026  -0.453
    1UNL    O10   25   0.323  -0.163  -0.489
    1UNL    C16   26   0.210   0.059  -0.508
    1UNL    O11   27   0.144  -0.011  -0.610
    1UNL    O12   28  -0.161  -0.108  -0.254
    1UNL    C17   29  -0.283  -0.058  -0.221
    1UNL    C18   30  -0.296   0.047  -0.142
    1UNL    C19   31  -0.431   0.106  -0.130
    1UNL    O13   32  -0.444   0.200  -0.057
    1UNL    O14   33  -0.540   0.051  -0.198
    1UNL    C20   34  -0.657   0.116  -0.170
    1UNL    C21   35  -0.180   0.108  -0.074
    1UNL    C22   36  -0.193   0.141   0.076
    1UNL    C23   37  -0.248   0.034   0.175
    1UNL    C24   38  -0.388  -0.033   0.158
    1UNL    C25   39  -0.509   0.039   0.175
    1UNL    C26   40  -0.633  -0.015   0.159
    1UNL    O15   41  -0.755   0.054   0.183
    1UNL    C27   42  -0.638  -0.154   0.133
    1UNL    O16   43  -0.761  -0.217   0.127
    1UNL    C28   44  -0.520  -0.230   0.125
    1UNL    C29   45  -0.397  -0.171   0.135
    1UNL    C30   46  -0.272  -0.255   0.117
    1UNL    C31   47  -0.158  -0.211   0.221
    1UNL     N1   48  -0.147  -0.063   0.231
    1UNL    C32   49  -0.040  -0.018   0.314
    1UNL    C33   50  -0.053   0.100   0.394
    1UNL    O17   51   0.056  -0.091   0.310
    1UNL     H1   52   0.093  -0.263  -0.034
    1UNL     H2   53   0.033  -0.221  -0.205
    1UNL     H3   54   0.007  -0.069   0.065
    1UNL     H4   55   0.027   0.122  -0.113
    1UNL     H5   56  -0.112   0.079  -0.318
    1UNL     H6   57   0.023   0.151  -0.425
    1UNL     H7   58   0.392   0.195  -0.310
    1UNL     H8   59   0.432   0.128  -0.064
    1UNL     H9   60   0.308   0.234  -0.069
    1UNL    H10   61   0.188   0.018   0.160
    1UNL    H11   62   0.414   0.221   0.320
    1UNL    H12   63   0.596   0.070   0.130
    1UNL    H13   64   0.592   0.245   0.148
    1UNL    H14   65   0.687   0.233   0.357
    1UNL    H15   66   0.476   0.002   0.433
    1UNL    H16   67   0.210  -0.011   0.380
    1UNL    H17   68   0.498  -0.175   0.276
    1UNL    H18   69   0.223  -0.187   0.322
    1UNL    H19   70   0.316  -0.190   0.072
    1UNL    H20   71   0.484  -0.102  -0.056
    1UNL    H21   72   0.241  -0.064  -0.274
    1UNL    H22   73   0.462  -0.175  -0.311
    1UNL    H23   74   0.436   0.004  -0.482
    1UNL    H24   75   0.308  -0.176  -0.579
    1UNL    H25   76   0.250   0.159  -0.546
    1UNL    H26   77   0.091  -0.089  -0.579
    1UNL    H27   78  -0.369  -0.099  -0.285
    1UNL    H28   79  -0.722   0.097  -0.252
    1UNL    H29   80  -0.709   0.082  -0.083
    1UNL    H30   81  -0.633   0.221  -0.166
    1UNL    H31   82  -0.166   0.206  -0.121
    1UNL    H32   83  -0.097   0.189   0.110
    1UNL    H33   84  -0.252   0.231   0.072
    1UNL    H34   85  -0.268   0.101   0.261
    1UNL    H35   86  -0.505   0.147   0.175
    1UNL    H36   87  -0.735   0.150   0.174
    1UNL    H37   88  -0.827  -0.153   0.160
    1UNL    H38   89  -0.527  -0.332   0.119
    1UNL    H39   90  -0.289  -0.364   0.100
    1UNL    H40   91  -0.231  -0.230   0.017
    1UNL    H41   92  -0.064  -0.249   0.190
    1UNL    H42   93  -0.195  -0.262   0.319
    1UNL    H43   94  -0.132   0.087   0.459
    1UNL    H44   95  -0.053   0.189   0.337
    1UNL    H45   96   0.033   0.114   0.460
   0.00000   0.00000   0.00000   0.00000   0.00000   0.00000   0.00000   0.00000   0.00000
Generated with MDTraj, t= 96.0
 96
    1UNL     C1    1   0.029  -0.183  -0.104
    1UNL     C2    2  -0.037  -0.085  -0.045
    1UNL     C3    3  -0.067   0.045  -0.106
    1UNL     C4    4  -0.089   0.022  -0.257
    1UNL     O1    5   0.034  -0.011  -0.325
    1UNL     C5    6   0.111   0.094  -0.380
    1UNL     O2    7   0.179   0.170  -0.281
    1UNL     C6    8   0.311   0.126  -0.252
    1UNL     C7    9   0.333   0.127  -0.101
    1UNL     O3   10   0.250   0.029  -0.031
    1UNL     C8   11   0.287   0.010   0.107
    1UNL     O4   12   0.323   0.138   0.166
    1UNL     C9   13   0.437   0.138   0.259
    1UNL    C10   14   0.574   0.133   0.195
    1UNL     O5   15   0.681   0.113   0.281
    1UNL    C11   16   0.419   0.024   0.363
    1UNL     O6   17   0.301   0.053   0.424
    1UNL    C12   18   0.421  -0.115   0.291
    1UNL     O7   19   0.335  -0.197   0.358
    1UNL    C13   20   0.385  -0.102   0.136
    1UNL     O8   21   0.497  -0.104   0.040
    1UNL    C14   22   0.348  -0.015  -0.300
    1UNL     O9   23   0.480  -0.061  -0.256
    1UNL    C15   24   0.334  -0.023  -0.450
    1UNL    O10   25   0.346  -0.162  -0.486
    1UNL    C16   26   0.199   0.040  -0.503
    1UNL    O11   27   0.126  -0.048  -0.589
    1UNL    O12   28  -0.185  -0.077  -0.283
    1UNL    C17   29  -0.302  -0.047  -0.227
    1UNL    C18   30  -0.310   0.047  -0.129
    1UNL    C19   31  -0.448   0.111  -0.115
    1UNL    O13   32  -0.462   0.200  -0.037
    1UNL    O14   33  -0.546   0.046  -0.188
    1UNL    C20   34  -0.648   0.134  -0.210
    1UNL    C21   35  -0.198   0.104  -0.055
    1UNL    C22   36  -0.213   0.131   0.094
    1UNL    C23   37  -0.254   0.021   0.197
    1UNL    C24   38  -0.386  -0.045   0.174
    1UNL    C25   39  -0.503   0.029   0.186
    1UNL    C26   40  -0.626  -0.024   0.157
    1UNL    O15   41  -0.747   0.051   0.162
    1UNL    C27   42  -0.640  -0.156   0.114
    1UNL    O16   43  -0.765  -0.214   0.090
    1UNL    C28   44  -0.520  -0.231   0.099
    1UNL    C29   45  -0.394  -0.180   0.134
    1UNL    C30   46  -0.264  -0.253   0.127
    1UNL    C31   47  -0.171  -0.210   0.244
    1UNL     N1   48  -0.140  -0.071   0.225
    1UNL    C32   49  -0.016  -0.024   0.284
    1UNL    C33   50  -0.012   0.113   0.342
    1UNL    O17   51   0.086  -0.088   0.292
    1UNL     H1   52   0.057  -0.275  -0.063
    1UNL     H2   53   0.066  -0.174  -0.203
    1UNL     H3   54  -0.062  -0.093   0.058
    1UNL     H4   55   0.015   0.113  -0.092
    1UNL     H5   56  -0.124   0.113  -0.315
    1UNL     H6   57   0.029   0.166  -0.424
    1UNL     H7   58   0.384   0.191  -0.309
    1UNL     H8   59   0.441   0.137  -0.069
    1UNL     H9   60   0.301   0.224  -0.072
    1UNL    H10   61   0.191  -0.016   0.155
    1UNL    H11   62   0.417   0.235   0.304
    1UNL    H12   63   0.585   0.045   0.125
    1UNL    H13   64   0.590   0.220   0.120
    1UNL    H14   65   0.699   0.190   0.336
    1UNL    H15   66   0.499   0.040   0.441
    1UNL    H16   67   0.223   0.015   0.370
    1UNL    H17   68   0.528  -0.155   0.291
    1UNL    H18   69   0.243  -0.163   0.330
    1UNL    H19   70   0.348  -0.203   0.114
    1UNL    H20   71   0.461  -0.083  -0.050
    1UNL    H21   72   0.271  -0.081  -0.260
    1UNL    H22   73   0.514  -0.133  -0.320
    1UNL    H23   74   0.420   0.027  -0.500
    1UNL    H24   75   0.280  -0.176  -0.567
    1UNL    H25   76   0.228   0.130  -0.567
    1UNL    H26   77   0.042  -0.080  -0.555
    1UNL    H27   78  -0.393  -0.099  -0.267
    1UNL    H28   79  -0.737   0.083  -0.240
    1UNL    H29   80  -0.676   0.198  -0.127
    1UNL    H30   81  -0.612   0.195  -0.292
    1UNL    H31   82  -0.200   0.204  -0.103
    1UNL    H32   83  -0.130   0.192   0.137
    1UNL    H33   84  -0.288   0.211   0.096
    1UNL    H34   85  -0.269   0.078   0.290
    1UNL    H35   86  -0.493   0.134   0.212
    1UNL    H36   87  -0.713   0.145   0.163
    1UNL    H37   88  -0.828  -0.138   0.113
    1UNL    H38   89  -0.539  -0.336   0.060
    1UNL    H39   90  -0.282  -0.362   0.146
    1UNL    H40   91  -0.216  -0.255   0.029
    1UNL    H41   92  -0.088  -0.274   0.230
    1UNL    H42   93  -0.230  -0.215   0.346
    1UNL    H43   94  -0.100   0.160   0.350
    1UNL    H44   95   0.048   0.186   0.284
    1UNL    H45   96   0.035   0.107   0.441
   0.00000   0.00000   0.00000   0.00000   0.00000   0.00000   0.00000   0.00000   0.00000
Generated with MDTraj, t= 97.0
 96
    1UNL     C1    1   0.022  -0.193  -0.085
    1UNL     C2    2  -0.044  -0.093  -0.031
    1UNL     C3    3  -0.082   0.034  -0.108
    1UNL     C4    4  -0.094   0.007  -0.258
    1UNL     O1    5   0.032  -0.021  -0.319
    1UNL     C5    6   0.100   0.094  -0.377
    1UNL     O2    7   0.173   0.177  -0.285
    1UNL     C6    8   0.301   0.130  -0.244
    1UNL     C7    9   0.320   0.138  -0.093
    1UNL     O3   10   0.268   0.021  -0.036
    1UNL     C8   11   0.295   0.010   0.106
    1UNL     O4   12   0.351   0.132   0.164
    1UNL     C9   13   0.457   0.124   0.261
    1UNL    C10   14   0.598   0.118   0.192
    1UNL     O5   15   0.698   0.168   0.280
    1UNL    C11   16   0.424   0.013   0.361
    1UNL     O6   17   0.306   0.046   0.430
    1UNL    C12   18   0.421  -0.126   0.278
    1UNL     O7   19   0.339  -0.209   0.355
    1UNL    C13   20   0.376  -0.111   0.129
    1UNL     O8   21   0.492  -0.111   0.043
    1UNL    C14   22   0.337  -0.013  -0.288
    1UNL     O9   23   0.465  -0.059  -0.232
    1UNL    C15   24   0.327  -0.023  -0.442
    1UNL    O10   25   0.349  -0.152  -0.492
    1UNL    C16   26   0.191   0.035  -0.494
    1UNL    O11   27   0.115  -0.059  -0.557
    1UNL    O12   28  -0.191  -0.087  -0.293
    1UNL    C17   29  -0.313  -0.047  -0.240
    1UNL    C18   30  -0.330   0.050  -0.140
    1UNL    C19   31  -0.462   0.120  -0.123
    1UNL    O13   32  -0.464   0.202  -0.036
    1UNL    O14   33  -0.567   0.069  -0.199
    1UNL    C20   34  -0.683   0.132  -0.155
    1UNL    C21   35  -0.215   0.106  -0.061
    1UNL    C22   36  -0.220   0.135   0.090
    1UNL    C23   37  -0.244   0.028   0.196
    1UNL    C24   38  -0.379  -0.033   0.167
    1UNL    C25   39  -0.503   0.039   0.167
    1UNL    C26   40  -0.622  -0.026   0.135
    1UNL    O15   41  -0.743   0.038   0.146
    1UNL    C27   42  -0.628  -0.163   0.090
    1UNL    O16   43  -0.743  -0.216   0.048
    1UNL    C28   44  -0.503  -0.224   0.087
    1UNL    C29   45  -0.388  -0.164   0.123
    1UNL    C30   46  -0.260  -0.246   0.127
    1UNL    C31   47  -0.166  -0.200   0.237
    1UNL     N1   48  -0.124  -0.058   0.231
    1UNL    C32   49  -0.008  -0.021   0.299
    1UNL    C33   50   0.019   0.126   0.317
    1UNL    O17   51   0.077  -0.101   0.334
    1UNL     H1   52   0.064  -0.284  -0.028
    1UNL     H2   53   0.034  -0.199  -0.188
    1UNL     H3   54  -0.054  -0.084   0.077
    1UNL     H4   55  -0.002   0.103  -0.098
    1UNL     H5   56  -0.128   0.100  -0.311
    1UNL     H6   57   0.013   0.153  -0.431
    1UNL     H7   58   0.373   0.200  -0.294
    1UNL     H8   59   0.432   0.139  -0.074
    1UNL     H9   60   0.298   0.234  -0.050
    1UNL    H10   61   0.192   0.004   0.150
    1UNL    H11   62   0.443   0.221   0.305
    1UNL    H12   63   0.620   0.020   0.146
    1UNL    H13   64   0.604   0.190   0.102
    1UNL    H14   65   0.675   0.255   0.317
    1UNL    H15   66   0.504   0.008   0.441
    1UNL    H16   67   0.233  -0.003   0.392
    1UNL    H17   68   0.521  -0.178   0.276
    1UNL    H18   69   0.247  -0.185   0.350
    1UNL    H19   70   0.315  -0.199   0.110
    1UNL    H20   71   0.458  -0.090  -0.051
    1UNL    H21   72   0.253  -0.070  -0.244
    1UNL    H22   73   0.483  -0.143  -0.264
    1UNL    H23   74   0.403   0.046  -0.482
    1UNL    H24   75   0.296  -0.156  -0.569
    1UNL    H25   76   0.209   0.122  -0.563
    1UNL    H26   77   0.073  -0.123  -0.491
    1UNL    H27   78  -0.384  -0.101  -0.291
    1UNL    H28   79  -0.773   0.085  -0.196
    1UNL    H29   80  -0.697   0.136  -0.046
    1UNL    H30   81  -0.685   0.235  -0.198
    1UNL    H31   82  -0.212   0.205  -0.111
    1UNL    H32   83  -0.119   0.172   0.117
    1UNL    H33   84  -0.278   0.225   0.117
    1UNL    H34   85  -0.248   0.077   0.293
    1UNL    H35   86  -0.509   0.144   0.186
    1UNL    H36   87  -0.730   0.127   0.188
    1UNL    H37   88  -0.808  -0.146   0.045
    1UNL    H38   89  -0.497  -0.324   0.056
    1UNL    H39   90  -0.290  -0.356   0.124
    1UNL    H40   91  -0.222  -0.239   0.026
    1UNL    H41   92  -0.071  -0.248   0.237
    1UNL    H42   93  -0.227  -0.215   0.335
    1UNL    H43   94  -0.082   0.181   0.328
    1UNL    H44   95   0.066   0.172   0.228
    1UNL    H45   96   0.079   0.126   0.405
   0.00000   0.00000   0.00000   0.00000   0.00000   0.00000   0.00000   0.00000   0.00000
Generated with MDTraj, t= 98.0
 96
    1UNL     C1    1   0.021  -0.190  -0.087
    1UNL     C2    2  -0.012  -0.073  -0.037
    1UNL     C3    3  -0.062   0.047  -0.114
    1UNL     C4    4  -0.093  -0.001  -0.260
    1UNL     O1    5   0.020  -0.031  -0.351
    1UNL     C5    6   0.094   0.081  -0.390
    1UNL     O2    7   0.151   0.157  -0.291
    1UNL     C6    8   0.279   0.106  -0.236
    1UNL     C7    9   0.293   0.124  -0.084
    1UNL     O3   10   0.228   0.023  -0.017
    1UNL     C8   11   0.291   0.009   0.115
    1UNL     O4   12   0.361   0.135   0.159
    1UNL     C9   13   0.452   0.119   0.266
    1UNL    C10   14   0.595   0.140   0.206
    1UNL     O5   15   0.703   0.175   0.293
    1UNL    C11   16   0.436  -0.010   0.353
    1UNL     O6   17   0.334   0.004   0.448
    1UNL    C12   18   0.415  -0.143   0.271
    1UNL     O7   19   0.309  -0.222   0.324
    1UNL    C13   20   0.383  -0.116   0.122
    1UNL     O8   21   0.497  -0.079   0.040
    1UNL    C14   22   0.314  -0.034  -0.282
    1UNL     O9   23   0.438  -0.076  -0.227
    1UNL    C15   24   0.327  -0.025  -0.442
    1UNL    O10   25   0.356  -0.153  -0.500
    1UNL    C16   26   0.199   0.042  -0.503
    1UNL    O11   27   0.134  -0.054  -0.582
    1UNL    O12   28  -0.195  -0.107  -0.254
    1UNL    C17   29  -0.309  -0.040  -0.206
    1UNL    C18   30  -0.312   0.070  -0.126
    1UNL    C19   31  -0.449   0.126  -0.105
    1UNL    O13   32  -0.458   0.229  -0.047
    1UNL    O14   33  -0.554   0.053  -0.160
    1UNL    C20   34  -0.676   0.121  -0.160
    1UNL    C21   35  -0.185   0.127  -0.059
    1UNL    C22   36  -0.208   0.157   0.092
    1UNL    C23   37  -0.256   0.040   0.189
    1UNL    C24   38  -0.376  -0.036   0.159
    1UNL    C25   39  -0.503   0.022   0.176
    1UNL    C26   40  -0.620  -0.038   0.136
    1UNL    O15   41  -0.740   0.025   0.157
    1UNL    C27   42  -0.613  -0.163   0.077
    1UNL    O16   43  -0.728  -0.223   0.021
    1UNL    C28   44  -0.491  -0.230   0.080
    1UNL    C29   45  -0.377  -0.166   0.120
    1UNL    C30   46  -0.249  -0.250   0.136
    1UNL    C31   47  -0.169  -0.191   0.244
    1UNL     N1   48  -0.134  -0.046   0.224
    1UNL    C32   49  -0.023   0.007   0.290
    1UNL    C33   50  -0.021   0.155   0.333
    1UNL    O17   51   0.081  -0.055   0.306
    1UNL     H1   52   0.073  -0.264  -0.027
    1UNL     H2   53  -0.001  -0.213  -0.186
    1UNL     H3   54   0.010  -0.051   0.070
    1UNL     H4   55   0.024   0.110  -0.122
    1UNL     H5   56  -0.147   0.080  -0.312
    1UNL     H6   57   0.010   0.137  -0.454
    1UNL     H7   58   0.353   0.169  -0.288
    1UNL     H8   59   0.403   0.142  -0.056
    1UNL     H9   60   0.253   0.219  -0.049
    1UNL    H10   61   0.199   0.010   0.180
    1UNL    H11   62   0.423   0.204   0.329
    1UNL    H12   63   0.627   0.047   0.157
    1UNL    H13   64   0.590   0.218   0.122
    1UNL    H14   65   0.674   0.215   0.379
    1UNL    H15   66   0.525  -0.027   0.418
    1UNL    H16   67   0.249  -0.012   0.400
    1UNL    H17   68   0.500  -0.212   0.274
    1UNL    H18   69   0.220  -0.172   0.322
    1UNL    H19   70   0.328  -0.201   0.086
    1UNL    H20   71   0.480  -0.067  -0.053
    1UNL    H21   72   0.231  -0.108  -0.263
    1UNL    H22   73   0.469  -0.152  -0.288
    1UNL    H23   74   0.422   0.030  -0.452
    1UNL    H24   75   0.307  -0.167  -0.590
    1UNL    H25   76   0.230   0.133  -0.559
    1UNL    H26   77   0.076  -0.112  -0.533
    1UNL    H27   78  -0.393  -0.066  -0.270
    1UNL    H28   79  -0.691   0.165  -0.262
    1UNL    H29   80  -0.765   0.061  -0.138
    1UNL    H30   81  -0.674   0.216  -0.098
    1UNL    H31   82  -0.169   0.228  -0.107
    1UNL    H32   83  -0.131   0.220   0.134
    1UNL    H33   84  -0.289   0.235   0.083
    1UNL    H34   85  -0.274   0.072   0.292
    1UNL    H35   86  -0.501   0.123   0.218
    1UNL    H36   87  -0.729   0.116   0.189
    1UNL    H37   88  -0.808  -0.167   0.045
    1UNL    H38   89  -0.482  -0.330   0.039
    1UNL    H39   90  -0.284  -0.358   0.147
    1UNL    H40   91  -0.200  -0.258   0.041
    1UNL    H41   92  -0.079  -0.246   0.264
    1UNL    H42   93  -0.243  -0.182   0.334
    1UNL    H43   94  -0.128   0.203   0.315
    1UNL    H44   95   0.037   0.223   0.265
    1UNL    H45   96   0.012   0.159   0.434
   0.00000   0.00000   0.00000   0.00000   0.00000   0.00000   0.00000   0.00000   0.00000
Generated with MDTraj, t= 99.0
 96
    1UNL     C1    1   0.026  -0.174  -0.073
    1UNL     C2    2  -0.022  -0.058  -0.041
    1UNL     C3    3  -0.060   0.049  -0.135
    1UNL     C4    4  -0.093  -0.021  -0.270
    1UNL     O1    5   0.028  -0.052  -0.338
    1UNL     C5    6   0.088   0.075  -0.384
    1UNL     O2    7   0.155   0.160  -0.285
    1UNL     C6    8   0.289   0.120  -0.247
    1UNL     C7    9   0.313   0.137  -0.094
    1UNL     O3   10   0.234   0.051  -0.026
    1UNL     C8   11   0.291   0.026   0.105
    1UNL     O4   12   0.339   0.140   0.173
    1UNL     C9   13   0.432   0.121   0.280
    1UNL    C10   14   0.576   0.134   0.229
    1UNL     O5   15   0.677   0.120   0.329
    1UNL    C11   16   0.424  -0.019   0.354
    1UNL     O6   17   0.322  -0.021   0.458
    1UNL    C12   18   0.421  -0.141   0.253
    1UNL     O7   19   0.320  -0.232   0.300
    1UNL    C13   20   0.386  -0.093   0.107
    1UNL     O8   21   0.501  -0.068   0.029
    1UNL    C14   22   0.311  -0.026  -0.292
    1UNL     O9   23   0.425  -0.086  -0.238
    1UNL    C15   24   0.313  -0.033  -0.445
    1UNL    O10   25   0.322  -0.164  -0.491
    1UNL    C16   26   0.191   0.040  -0.507
    1UNL    O11   27   0.125  -0.054  -0.587
    1UNL    O12   28  -0.193  -0.125  -0.248
    1UNL    C17   29  -0.314  -0.073  -0.206
    1UNL    C18   30  -0.322   0.039  -0.128
    1UNL    C19   31  -0.446   0.118  -0.114
    1UNL    O13   32  -0.444   0.223  -0.059
    1UNL    O14   33  -0.561   0.060  -0.163
    1UNL    C20   34  -0.675   0.144  -0.150
    1UNL    C21   35  -0.197   0.112  -0.079
    1UNL    C22   36  -0.208   0.154   0.079
    1UNL    C23   37  -0.247   0.060   0.192
    1UNL    C24   38  -0.370  -0.019   0.154
    1UNL    C25   39  -0.498   0.035   0.179
    1UNL    C26   40  -0.608  -0.038   0.136
    1UNL    O15   41  -0.736   0.020   0.128
    1UNL    C27   42  -0.596  -0.171   0.089
    1UNL    O16   43  -0.703  -0.250   0.062
    1UNL    C28   44  -0.474  -0.219   0.075
    1UNL    C29   45  -0.358  -0.152   0.111
    1UNL    C30   46  -0.224  -0.219   0.098
    1UNL    C31   47  -0.136  -0.169   0.220
    1UNL     N1   48  -0.139  -0.028   0.247
    1UNL    C32   49  -0.032   0.022   0.316
    1UNL    C33   50  -0.019   0.157   0.367
    1UNL    O17   51   0.065  -0.049   0.334
    1UNL     H1   52   0.048  -0.250  -0.004
    1UNL     H2   53   0.041  -0.194  -0.184
    1UNL     H3   54  -0.039  -0.038   0.060
    1UNL     H4   55   0.026   0.113  -0.136
    1UNL     H5   56  -0.153   0.045  -0.331
    1UNL     H6   57  -0.003   0.135  -0.430
    1UNL     H7   58   0.356   0.184  -0.303
    1UNL     H8   59   0.421   0.113  -0.063
    1UNL     H9   60   0.301   0.241  -0.064
    1UNL    H10   61   0.201   0.002   0.165
    1UNL    H11   62   0.415   0.204   0.352
    1UNL    H12   63   0.591   0.054   0.158
    1UNL    H13   64   0.592   0.235   0.178
    1UNL    H14   65   0.713   0.210   0.356
    1UNL    H15   66   0.521  -0.024   0.404
    1UNL    H16   67   0.228  -0.034   0.427
    1UNL    H17   68   0.517  -0.185   0.232
    1UNL    H18   69   0.238  -0.181   0.299
    1UNL    H19   70   0.342  -0.181   0.058
    1UNL    H20   71   0.481  -0.072  -0.071
    1UNL    H21   72   0.223  -0.089  -0.256
    1UNL    H22   73   0.465  -0.157  -0.298
    1UNL    H23   74   0.404   0.015  -0.482
    1UNL    H24   75   0.295  -0.159  -0.588
    1UNL    H25   76   0.219   0.137  -0.549
    1UNL    H26   77   0.068  -0.110  -0.529
    1UNL    H27   78  -0.412  -0.098  -0.261
    1UNL    H28   79  -0.638   0.248  -0.138
    1UNL    H29   80  -0.738   0.140  -0.237
    1UNL    H30   81  -0.740   0.129  -0.060
    1UNL    H31   82  -0.192   0.215  -0.122
    1UNL    H32   83  -0.118   0.204   0.103
    1UNL    H33   84  -0.279   0.243   0.076
    1UNL    H34   85  -0.283   0.114   0.281
    1UNL    H35   86  -0.510   0.128   0.228
    1UNL    H36   87  -0.719   0.106   0.168
    1UNL    H37   88  -0.780  -0.192   0.071
    1UNL    H38   89  -0.471  -0.314   0.022
    1UNL    H39   90  -0.232  -0.332   0.112
    1UNL    H40   91  -0.181  -0.212   0.000
    1UNL    H41   92  -0.036  -0.189   0.189
    1UNL    H42   93  -0.178  -0.217   0.318
    1UNL    H43   94  -0.085   0.231   0.316
    1UNL    H44   95   0.077   0.211   0.343
    1UNL    H45   96  -0.034   0.167   0.476
   0.00000   0.00000   0.00000   0.00000   0.00000   0.00000   0.00000   0.00000   0.00000
