[ moleculetype ]
; name        nrexcl
res           1

[ atoms ]
;    nr  type  resnr resid  atom  cgnr     charge       mass
      1 TN4a      1 res   C1        1      0.000     36.000
      2 TC5       1 res   C2        2      0.000     36.000
      3 SX3       1 res   C3        3      0.000     54.000
      4 TC5       1 res   C4        4      0.000     36.000

[ constraints ]
;  ai    aj   funct      b0(nm)
    1     2     1      0.24542
    3     4     1      0.29562
    2     3     1      0.31335
    2     4     1      0.25586

[ bonds ]
;  ai    aj   funct      b0(nm)          k(kJ/mol/nm^2)

[ angles ]
;  ai    aj    ak  funct     th0(deg)        k(kJ/mol/rad^2)
    1     2     3     1     83.70323           911.15
    1     2     4     1    144.87177           853.09
    2     3     4     1     49.58335          9301.17
    2     4     3     1     68.81323          6908.24
    3     2     4     1     61.60338          6794.22

[ dihedrals ]
;  ai    aj    ak    al  funct   phi0(deg)        k(kJ/mol)   mult
    1     2     3     4     1      0.91937       10.072      1
    1     2     4     3     1   -179.16871       15.793      1
