1TPCN01970
21
    1res  C1    1    1.689   0.063  -0.062
    1res  C2    2    1.415  -0.068   0.320
    1res  C3    3    1.029   0.002   0.113
    1res  C4    4    0.762  -0.181   0.031
    1res  C5    5    0.458  -0.209  -0.142
    1res  C6    6    0.263  -0.057  -0.007
    1res  C7    7    0.054   0.026   0.048
    1res  C8    8   -0.159   0.178   0.088
    1res  C9    9   -0.304  -0.042   0.180
    1res  C10   10   -0.360  -0.056  -0.090
    1res  C11   11   -0.406   0.224  -0.242
    1res  C12   12   -0.570   0.087  -0.104
    1res  C13   13   -0.735  -0.013   0.043
    1res  C14   14   -0.868   0.224  -0.108
    1res  C15   15   -0.818   0.078  -0.338
    1res  C16   16   -1.130  -0.015  -0.160
    1res  C17   17   -1.189  -0.138   0.258
    1res  C18   18   -1.476  -0.151   0.069
    1res  C19   19    0.097   0.189  -0.098
    1res  C20   20    0.302   0.258  -0.066
    1res  C21   21    0.426   0.100  -0.134
  10.00000  10.00000  10.00000
