[ moleculetype ]
; name        nrexcl
res           1

[ atoms ]
;    nr  type  resnr resid  atom  cgnr     charge       mass
      1 SN3r      1 res   C1        1      0.000     54.000
      2 TN3r      1 res   C2        2      0.000     36.000
      3 TC5       1 res   C3        3      0.000     36.000
      4 TN6a      1 res   C4        4      0.000     36.000
      5 SC2       1 res   C5        5      0.000     54.000
      6 SN4a      1 res   C6        6      0.000     54.000
      7 TC5       1 res   C7        7      0.000     36.000
      8 SC3       1 res   C8        8      0.000     54.000

[ constraints ]
;  ai    aj   funct      b0(nm)
    3     4     1      0.26981
    7     8     1      0.20426
    3     7     1      0.25364
    4     7     1      0.21885

[ bonds ]
;  ai    aj   funct      b0(nm)          k(kJ/mol/nm^2)
    1     2     1      0.30184           4453.4
    4     5     1      0.29726           9751.2
    1     3     1      0.31121           4097.4
    5     6     1      0.27684           5842.8

[ angles ]
;  ai    aj    ak  funct     th0(deg)        k(kJ/mol/rad^2)
    1     3     4     1    154.54048            65.58
    1     3     7     1    109.08510           127.72
    2     1     3     1     67.01779           102.75
    3     4     5     1     84.11992           182.41
    3     4     7     1     61.49211          6902.62
    3     7     4     1     69.20113          4818.97
    3     7     8     1    164.14789           269.53
    4     3     7     1     49.30671          7333.17
    4     5     6     1    111.41911            11.99
    4     7     8     1    117.15015           916.27
    5     4     7     1    139.67706           124.71

[ dihedrals ]
;  ai    aj    ak    al  funct   phi0(deg)        k(kJ/mol)   mult
    1     3     4     5     1     -7.95037       31.703      1
    1     3     4     7     1   -165.25122       29.222      1
    1     3     7     4     1     13.08834       20.890      1
    1     3     7     8     1   -115.01167       27.191      1
    2     1     3     4     1     91.68563       30.414      1
    2     1     3     7     1     99.53214       24.006      1
    3     4     5     6     1     36.64760       29.221      1
    3     4     7     8     1    -15.96358       13.586      1
    3     7     4     5     1    150.81874       18.886      1
    4     3     7     8     1     52.07977       22.545      1
    5     4     3     7     1    -20.06116       16.378      1
    5     4     7     8     1    -45.78058       18.722      1
    6     5     4     7     1     57.03786       26.434      1
