Generated with MDTraj, t= 0.0
 53
    1UNL     C1    1   0.348   0.339   0.058
    1UNL     C2    2   0.317   0.195   0.071
    1UNL     C3    3   0.243   0.126  -0.015
    1UNL     C4    4   0.181   0.191  -0.136
    1UNL     N1    5   0.172   0.100  -0.250
    1UNL     C5    6   0.118  -0.033  -0.218
    1UNL     C6    7   0.212  -0.103  -0.120
    1UNL     C7    8   0.213  -0.021   0.011
    1UNL     C8    9   0.079  -0.041   0.086
    1UNL     C9   10   0.081  -0.175   0.158
    1UNL     O1   11   0.115  -0.274   0.098
    1UNL     O2   12   0.040  -0.172   0.288
    1UNL    C10   13   0.046  -0.301   0.340
    1UNL    C11   14  -0.050  -0.021  -0.003
    1UNL    C12   15  -0.116   0.116   0.023
    1UNL    C13   16  -0.168   0.162  -0.114
    1UNL     O3   17  -0.171   0.305  -0.124
    1UNL    C14   18  -0.265   0.363  -0.037
    1UNL     O4   19  -0.090   0.098  -0.216
    1UNL    C15   20  -0.029  -0.023  -0.164
    1UNL     N2   21  -0.107  -0.140  -0.208
    1UNL    C16   22  -0.182  -0.195  -0.104
    1UNL    C17   23  -0.278  -0.296  -0.109
    1UNL    C18   24  -0.342  -0.333   0.007
    1UNL    C19   25  -0.313  -0.270   0.127
    1UNL    C20   26  -0.219  -0.169   0.133
    1UNL    C21   27  -0.152  -0.132   0.018
    1UNL     H1   28   0.412   0.358  -0.029
    1UNL     H2   29   0.400   0.378   0.146
    1UNL     H3   30   0.257   0.398   0.046
    1UNL     H4   31   0.356   0.143   0.157
    1UNL     H5   32   0.238   0.280  -0.165
    1UNL     H6   33   0.080   0.226  -0.113
    1UNL     H7   34   0.264   0.091  -0.295
    1UNL     H8   35   0.113  -0.090  -0.312
    1UNL     H9   36   0.313  -0.111  -0.161
    1UNL    H10   37   0.176  -0.204  -0.099
    1UNL    H11   38   0.294  -0.060   0.075
    1UNL    H12   39   0.074   0.035   0.165
    1UNL    H13   40   0.149  -0.336   0.336
    1UNL    H14   41   0.011  -0.299   0.444
    1UNL    H15   42  -0.018  -0.366   0.280
    1UNL    H16   43  -0.043   0.189   0.061
    1UNL    H17   44  -0.196   0.108   0.097
    1UNL    H18   45  -0.271   0.127  -0.130
    1UNL    H19   46  -0.265   0.471  -0.054
    1UNL    H20   47  -0.364   0.323  -0.057
    1UNL    H21   48  -0.238   0.344   0.067
    1UNL    H22   49  -0.150  -0.124  -0.299
    1UNL    H23   50  -0.300  -0.343  -0.203
    1UNL    H24   51  -0.416  -0.411   0.004
    1UNL    H25   52  -0.364  -0.301   0.217
    1UNL    H26   53  -0.195  -0.121   0.226
   0.00000   0.00000   0.00000   0.00000   0.00000   0.00000   0.00000   0.00000   0.00000
Generated with MDTraj, t= 1.0
 53
    1UNL     C1    1   0.330   0.356   0.031
    1UNL     C2    2   0.300   0.219   0.064
    1UNL     C3    3   0.234   0.134  -0.018
    1UNL     C4    4   0.172   0.187  -0.145
    1UNL     N1    5   0.175   0.091  -0.261
    1UNL     C5    6   0.122  -0.043  -0.213
    1UNL     C6    7   0.215  -0.098  -0.106
    1UNL     C7    8   0.203  -0.014   0.024
    1UNL     C8    9   0.074  -0.042   0.091
    1UNL     C9   10   0.086  -0.171   0.159
    1UNL     O1   11   0.108  -0.275   0.102
    1UNL     O2   12   0.055  -0.169   0.298
    1UNL    C10   13   0.042  -0.303   0.347
    1UNL    C11   14  -0.050  -0.025  -0.004
    1UNL    C12   15  -0.124   0.102   0.032
    1UNL    C13   16  -0.160   0.166  -0.111
    1UNL     O3   17  -0.142   0.307  -0.110
    1UNL    C14   18  -0.232   0.371  -0.014
    1UNL     O4   19  -0.088   0.093  -0.217
    1UNL    C15   20  -0.028  -0.025  -0.163
    1UNL     N2   21  -0.101  -0.146  -0.203
    1UNL    C16   22  -0.188  -0.200  -0.113
    1UNL    C17   23  -0.297  -0.284  -0.123
    1UNL    C18   24  -0.350  -0.331  -0.010
    1UNL    C19   25  -0.315  -0.283   0.116
    1UNL    C20   26  -0.220  -0.177   0.128
    1UNL    C21   27  -0.151  -0.142   0.015
    1UNL     H1   28   0.361   0.369  -0.068
    1UNL     H2   29   0.410   0.393   0.097
    1UNL     H3   30   0.254   0.430   0.065
    1UNL     H4   31   0.336   0.185   0.160
    1UNL     H5   32   0.228   0.272  -0.181
    1UNL     H6   33   0.068   0.220  -0.127
    1UNL     H7   34   0.262   0.071  -0.306
    1UNL     H8   35   0.118  -0.112  -0.299
    1UNL     H9   36   0.311  -0.086  -0.152
    1UNL    H10   37   0.195  -0.205  -0.079
    1UNL    H11   38   0.286  -0.047   0.088
    1UNL    H12   39   0.053   0.039   0.161
    1UNL    H13   40   0.077  -0.378   0.268
    1UNL    H14   41   0.109  -0.320   0.433
    1UNL    H15   42  -0.056  -0.313   0.384
    1UNL    H16   43  -0.060   0.177   0.080
    1UNL    H17   44  -0.206   0.080   0.101
    1UNL    H18   45  -0.265   0.167  -0.143
    1UNL    H19   46  -0.234   0.473  -0.054
    1UNL    H20   47  -0.333   0.341  -0.044
    1UNL    H21   48  -0.204   0.358   0.093
    1UNL    H22   49  -0.130  -0.143  -0.300
    1UNL    H23   50  -0.315  -0.334  -0.222
    1UNL    H24   51  -0.424  -0.410  -0.018
    1UNL    H25   52  -0.348  -0.329   0.210
    1UNL    H26   53  -0.176  -0.156   0.226
   0.00000   0.00000   0.00000   0.00000   0.00000   0.00000   0.00000   0.00000   0.00000
Generated with MDTraj, t= 2.0
 53
    1UNL     C1    1   0.317   0.354   0.052
    1UNL     C2    2   0.299   0.209   0.070
    1UNL     C3    3   0.237   0.128  -0.020
    1UNL     C4    4   0.177   0.183  -0.144
    1UNL     N1    5   0.160   0.090  -0.253
    1UNL     C5    6   0.117  -0.044  -0.211
    1UNL     C6    7   0.219  -0.104  -0.118
    1UNL     C7    8   0.211  -0.020   0.010
    1UNL     C8    9   0.077  -0.040   0.090
    1UNL     C9   10   0.078  -0.178   0.163
    1UNL     O1   11   0.114  -0.279   0.110
    1UNL     O2   12   0.047  -0.172   0.289
    1UNL    C10   13   0.072  -0.291   0.356
    1UNL    C11   14  -0.059  -0.025  -0.004
    1UNL    C12   15  -0.128   0.114   0.020
    1UNL    C13   16  -0.162   0.173  -0.117
    1UNL     O3   17  -0.142   0.312  -0.120
    1UNL    C14   18  -0.215   0.387  -0.019
    1UNL     O4   19  -0.087   0.102  -0.207
    1UNL    C15   20  -0.033  -0.026  -0.157
    1UNL     N2   21  -0.112  -0.135  -0.218
    1UNL    C16   22  -0.181  -0.200  -0.110
    1UNL    C17   23  -0.283  -0.299  -0.121
    1UNL    C18   24  -0.346  -0.343  -0.006
    1UNL    C19   25  -0.319  -0.286   0.117
    1UNL    C20   26  -0.227  -0.179   0.127
    1UNL    C21   27  -0.160  -0.143   0.014
    1UNL     H1   28   0.418   0.376   0.045
    1UNL     H2   29   0.259   0.414   0.127
    1UNL     H3   30   0.267   0.403  -0.035
    1UNL     H4   31   0.352   0.167   0.154
    1UNL     H5   32   0.231   0.269  -0.179
    1UNL     H6   33   0.074   0.218  -0.128
    1UNL     H7   34   0.246   0.075  -0.301
    1UNL     H8   35   0.102  -0.101  -0.303
    1UNL     H9   36   0.319  -0.105  -0.152
    1UNL    H10   37   0.169  -0.202  -0.086
    1UNL    H11   38   0.279  -0.054   0.087
    1UNL    H12   39   0.051   0.037   0.162
    1UNL    H13   40   0.044  -0.384   0.288
    1UNL    H14   41   0.181  -0.310   0.374
    1UNL    H15   42   0.021  -0.285   0.446
    1UNL    H16   43  -0.062   0.179   0.079
    1UNL    H17   44  -0.214   0.093   0.086
    1UNL    H18   45  -0.264   0.152  -0.149
    1UNL    H19   46  -0.189   0.491  -0.045
    1UNL    H20   47  -0.318   0.381  -0.059
    1UNL    H21   48  -0.193   0.359   0.087
    1UNL    H22   49  -0.135  -0.118  -0.314
    1UNL    H23   50  -0.304  -0.340  -0.212
    1UNL    H24   51  -0.423  -0.417  -0.009
    1UNL    H25   52  -0.374  -0.326   0.197
    1UNL    H26   53  -0.194  -0.150   0.224
   0.00000   0.00000   0.00000   0.00000   0.00000   0.00000   0.00000   0.00000   0.00000
Generated with MDTraj, t= 3.0
 53
    1UNL     C1    1   0.310   0.333   0.104
    1UNL     C2    2   0.278   0.187   0.091
    1UNL     C3    3   0.232   0.117  -0.019
    1UNL     C4    4   0.182   0.187  -0.145
    1UNL     N1    5   0.167   0.102  -0.256
    1UNL     C5    6   0.110  -0.039  -0.226
    1UNL     C6    7   0.206  -0.111  -0.136
    1UNL     C7    8   0.211  -0.031  -0.002
    1UNL     C8    9   0.080  -0.038   0.080
    1UNL     C9   10   0.079  -0.170   0.154
    1UNL     O1   11   0.110  -0.277   0.105
    1UNL     O2   12   0.054  -0.160   0.291
    1UNL    C10   13   0.065  -0.285   0.353
    1UNL    C11   14  -0.053  -0.021  -0.008
    1UNL    C12   15  -0.119   0.112   0.013
    1UNL    C13   16  -0.162   0.169  -0.120
    1UNL     O3   17  -0.144   0.321  -0.125
    1UNL    C14   18  -0.231   0.387  -0.039
    1UNL     O4   19  -0.085   0.102  -0.217
    1UNL    C15   20  -0.035  -0.027  -0.172
    1UNL     N2   21  -0.120  -0.141  -0.212
    1UNL    C16   22  -0.187  -0.197  -0.108
    1UNL    C17   23  -0.271  -0.308  -0.104
    1UNL    C18   24  -0.333  -0.341   0.012
    1UNL    C19   25  -0.302  -0.279   0.131
    1UNL    C20   26  -0.210  -0.177   0.133
    1UNL    C21   27  -0.156  -0.130   0.014
    1UNL     H1   28   0.370   0.345   0.190
    1UNL     H2   29   0.216   0.393   0.089
    1UNL     H3   30   0.368   0.364   0.018
    1UNL     H4   31   0.315   0.123   0.170
    1UNL     H5   32   0.252   0.262  -0.173
    1UNL     H6   33   0.095   0.250  -0.121
    1UNL     H7   34   0.252   0.092  -0.302
    1UNL     H8   35   0.098  -0.092  -0.321
    1UNL     H9   36   0.301  -0.113  -0.181
    1UNL    H10   37   0.166  -0.215  -0.109
    1UNL    H11   38   0.290  -0.061   0.066
    1UNL    H12   39   0.067   0.041   0.155
    1UNL    H13   40  -0.044  -0.336   0.351
    1UNL    H14   41   0.133  -0.358   0.296
    1UNL    H15   42   0.088  -0.274   0.452
    1UNL    H16   43  -0.048   0.178   0.064
    1UNL    H17   44  -0.203   0.109   0.085
    1UNL    H18   45  -0.260   0.135  -0.144
    1UNL    H19   46  -0.221   0.497  -0.045
    1UNL    H20   47  -0.325   0.343  -0.078
    1UNL    H21   48  -0.216   0.346   0.062
    1UNL    H22   49  -0.168  -0.104  -0.292
    1UNL    H23   50  -0.310  -0.348  -0.204
    1UNL    H24   51  -0.409  -0.417   0.006
    1UNL    H25   52  -0.354  -0.309   0.225
    1UNL    H26   53  -0.191  -0.127   0.228
   0.00000   0.00000   0.00000   0.00000   0.00000   0.00000   0.00000   0.00000   0.00000
Generated with MDTraj, t= 4.0
 53
    1UNL     C1    1   0.310   0.339   0.100
    1UNL     C2    2   0.309   0.191   0.085
    1UNL     C3    3   0.255   0.121  -0.019
    1UNL     C4    4   0.197   0.198  -0.137
    1UNL     N1    5   0.168   0.109  -0.251
    1UNL     C5    6   0.114  -0.032  -0.232
    1UNL     C6    7   0.203  -0.106  -0.136
    1UNL     C7    8   0.213  -0.033   0.006
    1UNL     C8    9   0.085  -0.046   0.079
    1UNL     C9   10   0.076  -0.174   0.151
    1UNL     O1   11   0.069  -0.283   0.099
    1UNL     O2   12   0.064  -0.167   0.283
    1UNL    C10   13   0.049  -0.292   0.348
    1UNL    C11   14  -0.046  -0.023  -0.008
    1UNL    C12   15  -0.094   0.116   0.020
    1UNL    C13   16  -0.162   0.166  -0.109
    1UNL     O3   17  -0.160   0.311  -0.128
    1UNL    C14   18  -0.259   0.377  -0.054
    1UNL     O4   19  -0.112   0.088  -0.220
    1UNL    C15   20  -0.033  -0.024  -0.172
    1UNL     N2   21  -0.100  -0.149  -0.201
    1UNL    C16   22  -0.188  -0.189  -0.101
    1UNL    C17   23  -0.271  -0.299  -0.103
    1UNL    C18   24  -0.327  -0.343   0.013
    1UNL    C19   25  -0.300  -0.274   0.130
    1UNL    C20   26  -0.210  -0.169   0.134
    1UNL    C21   27  -0.154  -0.118   0.018
    1UNL     H1   28   0.276   0.369   0.198
    1UNL     H2   29   0.269   0.392   0.014
    1UNL     H3   30   0.412   0.373   0.100
    1UNL     H4   31   0.354   0.124   0.155
    1UNL     H5   32   0.257   0.285  -0.156
    1UNL     H6   33   0.101   0.247  -0.116
    1UNL     H7   34   0.249   0.101  -0.302
    1UNL     H8   35   0.108  -0.082  -0.329
    1UNL     H9   36   0.294  -0.109  -0.188
    1UNL    H10   37   0.169  -0.214  -0.115
    1UNL    H11   38   0.299  -0.065   0.064
    1UNL    H12   39   0.077   0.037   0.151
    1UNL    H13   40  -0.047  -0.350   0.303
    1UNL    H14   41   0.138  -0.362   0.347
    1UNL    H15   42   0.015  -0.268   0.445
    1UNL    H16   43  -0.017   0.190   0.052
    1UNL    H17   44  -0.160   0.120   0.108
    1UNL    H18   45  -0.264   0.138  -0.114
    1UNL    H19   46  -0.233   0.482  -0.070
    1UNL    H20   47  -0.360   0.333  -0.068
    1UNL    H21   48  -0.229   0.357   0.050
    1UNL    H22   49  -0.135  -0.137  -0.295
    1UNL    H23   50  -0.308  -0.346  -0.190
    1UNL    H24   51  -0.395  -0.428   0.025
    1UNL    H25   52  -0.343  -0.303   0.221
    1UNL    H26   53  -0.195  -0.118   0.228
   0.00000   0.00000   0.00000   0.00000   0.00000   0.00000   0.00000   0.00000   0.00000
Generated with MDTraj, t= 5.0
 53
    1UNL     C1    1   0.355   0.340   0.074
    1UNL     C2    2   0.316   0.197   0.082
    1UNL     C3    3   0.243   0.128  -0.006
    1UNL     C4    4   0.181   0.189  -0.131
    1UNL     N1    5   0.183   0.097  -0.245
    1UNL     C5    6   0.118  -0.032  -0.209
    1UNL     C6    7   0.206  -0.108  -0.120
    1UNL     C7    8   0.208  -0.019   0.013
    1UNL     C8    9   0.076  -0.036   0.088
    1UNL     C9   10   0.086  -0.182   0.150
    1UNL     O1   11   0.117  -0.283   0.086
    1UNL     O2   12   0.056  -0.186   0.281
    1UNL    C10   13   0.069  -0.317   0.327
    1UNL    C11   14  -0.047  -0.015  -0.006
    1UNL    C12   15  -0.125   0.114   0.012
    1UNL    C13   16  -0.177   0.162  -0.129
    1UNL     O3   17  -0.175   0.307  -0.135
    1UNL    C14   18  -0.276   0.364  -0.049
    1UNL     O4   19  -0.092   0.105  -0.224
    1UNL    C15   20  -0.030  -0.017  -0.163
    1UNL     N2   21  -0.111  -0.136  -0.204
    1UNL    C16   22  -0.175  -0.201  -0.096
    1UNL    C17   23  -0.268  -0.310  -0.099
    1UNL    C18   24  -0.342  -0.332   0.023
    1UNL    C19   25  -0.323  -0.249   0.130
    1UNL    C20   26  -0.237  -0.146   0.131
    1UNL    C21   27  -0.158  -0.126   0.021
    1UNL     H1   28   0.309   0.407   0.149
    1UNL     H2   29   0.358   0.377  -0.024
    1UNL     H3   30   0.459   0.352   0.100
    1UNL     H4   31   0.347   0.134   0.164
    1UNL     H5   32   0.232   0.282  -0.158
    1UNL     H6   33   0.082   0.235  -0.118
    1UNL     H7   34   0.270   0.074  -0.276
    1UNL     H8   35   0.114  -0.091  -0.300
    1UNL     H9   36   0.306  -0.118  -0.154
    1UNL    H10   37   0.166  -0.215  -0.104
    1UNL    H11   38   0.289  -0.058   0.077
    1UNL    H12   39   0.045   0.024   0.177
    1UNL    H13   40  -0.014  -0.380   0.279
    1UNL    H14   41   0.169  -0.365   0.311
    1UNL    H15   42   0.039  -0.318   0.434
    1UNL    H16   43  -0.056   0.190   0.053
    1UNL    H17   44  -0.204   0.104   0.087
    1UNL    H18   45  -0.274   0.132  -0.152
    1UNL    H19   46  -0.251   0.470  -0.050
    1UNL    H20   47  -0.381   0.329  -0.052
    1UNL    H21   48  -0.239   0.344   0.051
    1UNL    H22   49  -0.122  -0.135  -0.304
    1UNL    H23   50  -0.287  -0.379  -0.177
    1UNL    H24   51  -0.419  -0.405   0.037
    1UNL    H25   52  -0.387  -0.267   0.221
    1UNL    H26   53  -0.213  -0.093   0.223
   0.00000   0.00000   0.00000   0.00000   0.00000   0.00000   0.00000   0.00000   0.00000
Generated with MDTraj, t= 6.0
 53
    1UNL     C1    1   0.383   0.345   0.035
    1UNL     C2    2   0.334   0.202   0.067
    1UNL     C3    3   0.245   0.138  -0.007
    1UNL     C4    4   0.183   0.200  -0.128
    1UNL     N1    5   0.162   0.113  -0.245
    1UNL     C5    6   0.122  -0.028  -0.205
    1UNL     C6    7   0.222  -0.091  -0.116
    1UNL     C7    8   0.214  -0.011   0.021
    1UNL     C8    9   0.077  -0.039   0.092
    1UNL     C9   10   0.081  -0.182   0.154
    1UNL     O1   11   0.128  -0.276   0.092
    1UNL     O2   12   0.027  -0.197   0.278
    1UNL    C10   13   0.060  -0.326   0.324
    1UNL    C11   14  -0.052  -0.022   0.010
    1UNL    C12   15  -0.122   0.119   0.029
    1UNL    C13   16  -0.172   0.151  -0.115
    1UNL     O3   17  -0.176   0.297  -0.139
    1UNL    C14   18  -0.281   0.351  -0.064
    1UNL     O4   19  -0.094   0.092  -0.205
    1UNL    C15   20  -0.025  -0.030  -0.151
    1UNL     N2   21  -0.099  -0.150  -0.197
    1UNL    C16   22  -0.177  -0.193  -0.095
    1UNL    C17   23  -0.289  -0.273  -0.111
    1UNL    C18   24  -0.356  -0.313   0.001
    1UNL    C19   25  -0.330  -0.263   0.122
    1UNL    C20   26  -0.231  -0.169   0.138
    1UNL    C21   27  -0.152  -0.129   0.029
    1UNL     H1   28   0.310   0.400  -0.027
    1UNL     H2   29   0.478   0.334  -0.006
    1UNL     H3   30   0.389   0.397   0.129
    1UNL     H4   31   0.375   0.149   0.150
    1UNL     H5   32   0.208   0.302  -0.157
    1UNL     H6   33   0.078   0.231  -0.105
    1UNL     H7   34   0.244   0.109  -0.297
    1UNL     H8   35   0.130  -0.076  -0.302
    1UNL     H9   36   0.320  -0.095  -0.164
    1UNL    H10   37   0.190  -0.195  -0.088
    1UNL    H11   38   0.296  -0.050   0.084
    1UNL    H12   39   0.078   0.027   0.183
    1UNL    H13   40   0.003  -0.400   0.269
    1UNL    H14   41   0.168  -0.346   0.324
    1UNL    H15   42   0.015  -0.337   0.432
    1UNL    H16   43  -0.051   0.201   0.055
    1UNL    H17   44  -0.207   0.109   0.098
    1UNL    H18   45  -0.266   0.108  -0.127
    1UNL    H19   46  -0.296   0.456  -0.083
    1UNL    H20   47  -0.374   0.293  -0.067
    1UNL    H21   48  -0.252   0.347   0.040
    1UNL    H22   49  -0.127  -0.144  -0.294
    1UNL    H23   50  -0.319  -0.332  -0.204
    1UNL    H24   51  -0.442  -0.382  -0.014
    1UNL    H25   52  -0.385  -0.288   0.207
    1UNL    H26   53  -0.186  -0.150   0.234
   0.00000   0.00000   0.00000   0.00000   0.00000   0.00000   0.00000   0.00000   0.00000
Generated with MDTraj, t= 7.0
 53
    1UNL     C1    1   0.381   0.343   0.041
    1UNL     C2    2   0.340   0.195   0.057
    1UNL     C3    3   0.246   0.130  -0.013
    1UNL     C4    4   0.170   0.192  -0.127
    1UNL     N1    5   0.162   0.112  -0.248
    1UNL     C5    6   0.120  -0.031  -0.215
    1UNL     C6    7   0.217  -0.097  -0.120
    1UNL     C7    8   0.222  -0.018   0.019
    1UNL     C8    9   0.082  -0.040   0.087
    1UNL     C9   10   0.091  -0.172   0.165
    1UNL     O1   11   0.134  -0.268   0.102
    1UNL     O2   12   0.039  -0.175   0.290
    1UNL    C10   13   0.016  -0.309   0.318
    1UNL    C11   14  -0.046  -0.028   0.004
    1UNL    C12   15  -0.123   0.108   0.034
    1UNL    C13   16  -0.165   0.149  -0.108
    1UNL     O3   17  -0.175   0.299  -0.107
    1UNL    C14   18  -0.286   0.338  -0.046
    1UNL     O4   19  -0.093   0.090  -0.211
    1UNL    C15   20  -0.027  -0.026  -0.161
    1UNL     N2   21  -0.103  -0.147  -0.210
    1UNL    C16   22  -0.178  -0.200  -0.106
    1UNL    C17   23  -0.282  -0.286  -0.109
    1UNL    C18   24  -0.353  -0.316   0.005
    1UNL    C19   25  -0.324  -0.254   0.121
    1UNL    C20   26  -0.222  -0.161   0.128
    1UNL    C21   27  -0.148  -0.133   0.014
    1UNL     H1   28   0.362   0.380  -0.060
    1UNL     H2   29   0.483   0.355   0.066
    1UNL     H3   30   0.319   0.403   0.106
    1UNL     H4   31   0.383   0.143   0.142
    1UNL     H5   32   0.202   0.293  -0.152
    1UNL     H6   33   0.066   0.231  -0.114
    1UNL     H7   34   0.245   0.116  -0.302
    1UNL     H8   35   0.127  -0.083  -0.308
    1UNL     H9   36   0.320  -0.074  -0.162
    1UNL    H10   37   0.200  -0.206  -0.113
    1UNL    H11   38   0.312  -0.042   0.081
    1UNL    H12   39   0.090   0.041   0.163
    1UNL    H13   40  -0.021  -0.358   0.232
    1UNL    H14   41   0.105  -0.355   0.360
    1UNL    H15   42  -0.072  -0.320   0.399
    1UNL    H16   43  -0.054   0.189   0.067
    1UNL    H17   44  -0.215   0.094   0.095
    1UNL    H18   45  -0.260   0.110  -0.121
    1UNL    H19   46  -0.288   0.446  -0.037
    1UNL    H20   47  -0.366   0.316  -0.119
    1UNL    H21   48  -0.313   0.290   0.047
    1UNL    H22   49  -0.132  -0.129  -0.305
    1UNL    H23   50  -0.311  -0.334  -0.193
    1UNL    H24   51  -0.432  -0.385   0.011
    1UNL    H25   52  -0.379  -0.274   0.216
    1UNL    H26   53  -0.202  -0.119   0.224
   0.00000   0.00000   0.00000   0.00000   0.00000   0.00000   0.00000   0.00000   0.00000
Generated with MDTraj, t= 8.0
 53
    1UNL     C1    1   0.365   0.324   0.061
    1UNL     C2    2   0.334   0.178   0.071
    1UNL     C3    3   0.259   0.120  -0.019
    1UNL     C4    4   0.198   0.185  -0.143
    1UNL     N1    5   0.174   0.094  -0.254
    1UNL     C5    6   0.116  -0.035  -0.215
    1UNL     C6    7   0.211  -0.108  -0.130
    1UNL     C7    8   0.219  -0.026   0.007
    1UNL     C8    9   0.081  -0.044   0.077
    1UNL     C9   10   0.080  -0.176   0.155
    1UNL     O1   11   0.141  -0.274   0.118
    1UNL     O2   12   0.010  -0.169   0.277
    1UNL    C10   13   0.030  -0.286   0.347
    1UNL    C11   14  -0.043  -0.017  -0.007
    1UNL    C12   15  -0.116   0.123   0.031
    1UNL    C13   16  -0.181   0.163  -0.106
    1UNL     O3   17  -0.198   0.308  -0.111
    1UNL    C14   18  -0.292   0.364  -0.024
    1UNL     O4   19  -0.102   0.108  -0.211
    1UNL    C15   20  -0.033  -0.010  -0.163
    1UNL     N2   21  -0.110  -0.131  -0.213
    1UNL    C16   22  -0.179  -0.190  -0.113
    1UNL    C17   23  -0.265  -0.306  -0.116
    1UNL    C18   24  -0.326  -0.339   0.005
    1UNL    C19   25  -0.302  -0.270   0.123
    1UNL    C20   26  -0.218  -0.164   0.128
    1UNL    C21   27  -0.153  -0.125   0.012
    1UNL     H1   28   0.466   0.356   0.041
    1UNL     H2   29   0.345   0.380   0.152
    1UNL     H3   30   0.310   0.376  -0.014
    1UNL     H4   31   0.352   0.116   0.158
    1UNL     H5   32   0.231   0.282  -0.186
    1UNL     H6   33   0.100   0.231  -0.117
    1UNL     H7   34   0.258   0.074  -0.308
    1UNL     H8   35   0.098  -0.089  -0.305
    1UNL     H9   36   0.313  -0.107  -0.184
    1UNL    H10   37   0.175  -0.209  -0.111
    1UNL    H11   38   0.301  -0.067   0.071
    1UNL    H12   39   0.085   0.024   0.167
    1UNL    H13   40  -0.040  -0.358   0.326
    1UNL    H14   41   0.138  -0.312   0.341
    1UNL    H15   42   0.014  -0.256   0.459
    1UNL    H16   43  -0.040   0.198   0.059
    1UNL    H17   44  -0.183   0.096   0.116
    1UNL    H18   45  -0.269   0.113  -0.123
    1UNL    H19   46  -0.298   0.470  -0.053
    1UNL    H20   47  -0.394   0.330  -0.056
    1UNL    H21   48  -0.285   0.351   0.086
    1UNL    H22   49  -0.127  -0.134  -0.314
    1UNL    H23   50  -0.300  -0.359  -0.209
    1UNL    H24   51  -0.388  -0.431   0.020
    1UNL    H25   52  -0.348  -0.309   0.210
    1UNL    H26   53  -0.222  -0.097   0.215
   0.00000   0.00000   0.00000   0.00000   0.00000   0.00000   0.00000   0.00000   0.00000
Generated with MDTraj, t= 9.0
 53
    1UNL     C1    1   0.363   0.311   0.088
    1UNL     C2    2   0.320   0.167   0.076
    1UNL     C3    3   0.253   0.111  -0.022
    1UNL     C4    4   0.193   0.184  -0.138
    1UNL     N1    5   0.175   0.097  -0.262
    1UNL     C5    6   0.113  -0.034  -0.230
    1UNL     C6    7   0.200  -0.111  -0.135
    1UNL     C7    8   0.210  -0.028   0.003
    1UNL     C8    9   0.072  -0.031   0.076
    1UNL     C9   10   0.076  -0.161   0.170
    1UNL     O1   11   0.106  -0.262   0.111
    1UNL     O2   12   0.043  -0.142   0.297
    1UNL    C10   13   0.045  -0.271   0.355
    1UNL    C11   14  -0.049  -0.020  -0.008
    1UNL    C12   15  -0.132   0.114   0.017
    1UNL    C13   16  -0.177   0.174  -0.119
    1UNL     O3   17  -0.188   0.310  -0.126
    1UNL    C14   18  -0.268   0.366  -0.013
    1UNL     O4   19  -0.090   0.120  -0.214
    1UNL    C15   20  -0.033  -0.010  -0.171
    1UNL     N2   21  -0.125  -0.126  -0.211
    1UNL    C16   22  -0.191  -0.185  -0.108
    1UNL    C17   23  -0.271  -0.304  -0.115
    1UNL    C18   24  -0.323  -0.352  -0.003
    1UNL    C19   25  -0.288  -0.297   0.121
    1UNL    C20   26  -0.197  -0.193   0.130
    1UNL    C21   27  -0.143  -0.140   0.015
    1UNL     H1   28   0.464   0.322   0.122
    1UNL     H2   29   0.304   0.357   0.168
    1UNL     H3   30   0.349   0.360  -0.004
    1UNL     H4   31   0.335   0.100   0.161
    1UNL     H5   32   0.250   0.276  -0.159
    1UNL     H6   33   0.098   0.241  -0.127
    1UNL     H7   34   0.249   0.086  -0.335
    1UNL     H8   35   0.090  -0.090  -0.316
    1UNL     H9   36   0.305  -0.126  -0.186
    1UNL    H10   37   0.150  -0.203  -0.108
    1UNL    H11   38   0.286  -0.079   0.070
    1UNL    H12   39   0.077   0.055   0.147
    1UNL    H13   40   0.003  -0.341   0.295
    1UNL    H14   41   0.153  -0.292   0.376
    1UNL    H15   42  -0.002  -0.273   0.457
    1UNL    H16   43  -0.060   0.179   0.066
    1UNL    H17   44  -0.217   0.091   0.087
    1UNL    H18   45  -0.265   0.138  -0.162
    1UNL    H19   46  -0.306   0.458  -0.061
    1UNL    H20   47  -0.365   0.315   0.010
    1UNL    H21   48  -0.216   0.382   0.082
    1UNL    H22   49  -0.130  -0.143  -0.312
    1UNL    H23   50  -0.301  -0.353  -0.206
    1UNL    H24   51  -0.385  -0.436   0.002
    1UNL    H25   52  -0.332  -0.330   0.216
    1UNL    H26   53  -0.179  -0.139   0.220
   0.00000   0.00000   0.00000   0.00000   0.00000   0.00000   0.00000   0.00000   0.00000
Generated with MDTraj, t= 10.0
 53
    1UNL     C1    1   0.368   0.324   0.051
    1UNL     C2    2   0.329   0.178   0.065
    1UNL     C3    3   0.248   0.115  -0.016
    1UNL     C4    4   0.177   0.190  -0.123
    1UNL     N1    5   0.162   0.114  -0.240
    1UNL     C5    6   0.110  -0.022  -0.227
    1UNL     C6    7   0.199  -0.102  -0.136
    1UNL     C7    8   0.211  -0.032   0.004
    1UNL     C8    9   0.074  -0.047   0.075
    1UNL     C9   10   0.075  -0.162   0.171
    1UNL     O1   11   0.085  -0.275   0.130
    1UNL     O2   12   0.058  -0.132   0.311
    1UNL    C10   13   0.068  -0.255   0.378
    1UNL    C11   14  -0.051  -0.027  -0.011
    1UNL    C12   15  -0.121   0.112   0.028
    1UNL    C13   16  -0.168   0.167  -0.113
    1UNL     O3   17  -0.158   0.313  -0.104
    1UNL    C14   18  -0.263   0.363  -0.019
    1UNL     O4   19  -0.089   0.112  -0.222
    1UNL    C15   20  -0.036  -0.017  -0.173
    1UNL     N2   21  -0.124  -0.133  -0.219
    1UNL    C16   22  -0.194  -0.189  -0.120
    1UNL    C17   23  -0.275  -0.305  -0.130
    1UNL    C18   24  -0.334  -0.361  -0.019
    1UNL    C19   25  -0.307  -0.309   0.105
    1UNL    C20   26  -0.215  -0.200   0.120
    1UNL    C21   27  -0.153  -0.141   0.009
    1UNL     H1   28   0.394   0.361   0.146
    1UNL     H2   29   0.276   0.379   0.024
    1UNL     H3   30   0.444   0.328  -0.025
    1UNL     H4   31   0.375   0.121   0.144
    1UNL     H5   32   0.214   0.292  -0.149
    1UNL     H6   33   0.079   0.231  -0.092
    1UNL     H7   34   0.258   0.098  -0.284
    1UNL     H8   35   0.099  -0.063  -0.323
    1UNL     H9   36   0.306  -0.089  -0.185
    1UNL    H10   37   0.165  -0.204  -0.125
    1UNL    H11   38   0.299  -0.081   0.055
    1UNL    H12   39   0.077   0.037   0.150
    1UNL    H13   40   0.000  -0.326   0.343
    1UNL    H14   41   0.175  -0.287   0.374
    1UNL    H15   42   0.057  -0.229   0.483
    1UNL    H16   43  -0.037   0.174   0.055
    1UNL    H17   44  -0.185   0.117   0.121
    1UNL    H18   45  -0.265   0.137  -0.140
    1UNL    H19   46  -0.250   0.471  -0.004
    1UNL    H20   47  -0.360   0.353  -0.072
    1UNL    H21   48  -0.262   0.304   0.072
    1UNL    H22   49  -0.149  -0.127  -0.318
    1UNL    H23   50  -0.272  -0.363  -0.220
    1UNL    H24   51  -0.420  -0.430  -0.021
    1UNL    H25   52  -0.355  -0.351   0.191
    1UNL    H26   53  -0.190  -0.173   0.223
   0.00000   0.00000   0.00000   0.00000   0.00000   0.00000   0.00000   0.00000   0.00000
Generated with MDTraj, t= 11.0
 53
    1UNL     C1    1   0.393   0.326   0.039
    1UNL     C2    2   0.334   0.191   0.065
    1UNL     C3    3   0.249   0.129  -0.014
    1UNL     C4    4   0.188   0.186  -0.138
    1UNL     N1    5   0.179   0.096  -0.247
    1UNL     C5    6   0.111  -0.037  -0.221
    1UNL     C6    7   0.193  -0.106  -0.115
    1UNL     C7    8   0.206  -0.015   0.010
    1UNL     C8    9   0.063  -0.028   0.080
    1UNL     C9   10   0.078  -0.154   0.174
    1UNL     O1   11   0.103  -0.258   0.118
    1UNL     O2   12   0.066  -0.132   0.306
    1UNL    C10   13   0.082  -0.253   0.374
    1UNL    C11   14  -0.070  -0.033  -0.002
    1UNL    C12   15  -0.161   0.093   0.031
    1UNL    C13   16  -0.176   0.162  -0.100
    1UNL     O3   17  -0.155   0.302  -0.072
    1UNL    C14   18  -0.254   0.383  -0.028
    1UNL     O4   19  -0.107   0.104  -0.206
    1UNL    C15   20  -0.040  -0.016  -0.163
    1UNL     N2   21  -0.121  -0.131  -0.225
    1UNL    C16   22  -0.171  -0.213  -0.125
    1UNL    C17   23  -0.269  -0.310  -0.141
    1UNL    C18   24  -0.352  -0.348  -0.034
    1UNL    C19   25  -0.328  -0.296   0.091
    1UNL    C20   26  -0.221  -0.206   0.110
    1UNL    C21   27  -0.145  -0.166   0.007
    1UNL     H1   28   0.422   0.382   0.125
    1UNL     H2   29   0.318   0.397   0.002
    1UNL     H3   30   0.473   0.321  -0.032
    1UNL     H4   31   0.373   0.122   0.139
    1UNL     H5   32   0.243   0.281  -0.157
    1UNL     H6   33   0.092   0.236  -0.116
    1UNL     H7   34   0.277   0.078  -0.290
    1UNL     H8   35   0.111  -0.095  -0.308
    1UNL     H9   36   0.295  -0.137  -0.157
    1UNL    H10   37   0.131  -0.189  -0.079
    1UNL    H11   38   0.284  -0.056   0.079
    1UNL    H12   39   0.055   0.064   0.145
    1UNL    H13   40  -0.004  -0.314   0.363
    1UNL    H14   41   0.167  -0.310   0.328
    1UNL    H15   42   0.116  -0.235   0.471
    1UNL    H16   43  -0.130   0.171   0.102
    1UNL    H17   44  -0.259   0.059   0.073
    1UNL    H18   45  -0.278   0.153  -0.130
    1UNL    H19   46  -0.217   0.486  -0.023
    1UNL    H20   47  -0.335   0.381  -0.101
    1UNL    H21   48  -0.275   0.331   0.064
    1UNL    H22   49  -0.182  -0.079  -0.293
    1UNL    H23   50  -0.288  -0.361  -0.237
    1UNL    H24   51  -0.438  -0.406  -0.056
    1UNL    H25   52  -0.391  -0.324   0.174
    1UNL    H26   53  -0.192  -0.189   0.212
   0.00000   0.00000   0.00000   0.00000   0.00000   0.00000   0.00000   0.00000   0.00000
Generated with MDTraj, t= 12.0
 53
    1UNL     C1    1   0.382   0.327   0.030
    1UNL     C2    2   0.332   0.187   0.042
    1UNL     C3    3   0.229   0.128  -0.014
    1UNL     C4    4   0.157   0.184  -0.135
    1UNL     N1    5   0.171   0.098  -0.245
    1UNL     C5    6   0.109  -0.034  -0.212
    1UNL     C6    7   0.198  -0.100  -0.110
    1UNL     C7    8   0.201  -0.017   0.018
    1UNL     C8    9   0.063  -0.041   0.084
    1UNL     C9   10   0.072  -0.167   0.180
    1UNL     O1   11   0.098  -0.274   0.127
    1UNL     O2   12   0.051  -0.139   0.314
    1UNL    C10   13   0.074  -0.252   0.389
    1UNL    C11   14  -0.063  -0.030  -0.006
    1UNL    C12   15  -0.140   0.098   0.027
    1UNL    C13   16  -0.163   0.168  -0.108
    1UNL     O3   17  -0.142   0.311  -0.099
    1UNL    C14   18  -0.246   0.377  -0.028
    1UNL     O4   19  -0.081   0.114  -0.210
    1UNL    C15   20  -0.035  -0.013  -0.165
    1UNL     N2   21  -0.130  -0.115  -0.223
    1UNL    C16   22  -0.200  -0.189  -0.127
    1UNL    C17   23  -0.294  -0.292  -0.149
    1UNL    C18   24  -0.333  -0.358  -0.032
    1UNL    C19   25  -0.286  -0.325   0.097
    1UNL    C20   26  -0.201  -0.217   0.121
    1UNL    C21   27  -0.158  -0.152   0.001
    1UNL     H1   28   0.470   0.351   0.088
    1UNL     H2   29   0.312   0.392   0.079
    1UNL     H3   30   0.401   0.352  -0.076
    1UNL     H4   31   0.394   0.125   0.106
    1UNL     H5   32   0.183   0.292  -0.154
    1UNL     H6   33   0.052   0.205  -0.108
    1UNL     H7   34   0.279   0.080  -0.261
    1UNL     H8   35   0.112  -0.092  -0.297
    1UNL     H9   36   0.300  -0.112  -0.155
    1UNL    H10   37   0.146  -0.195  -0.085
    1UNL    H11   38   0.276  -0.054   0.096
    1UNL    H12   39   0.047   0.035   0.164
    1UNL    H13   40   0.042  -0.338   0.330
    1UNL    H14   41   0.183  -0.265   0.405
    1UNL    H15   42   0.035  -0.244   0.479
    1UNL    H16   43  -0.092   0.166   0.097
    1UNL    H17   44  -0.237   0.082   0.079
    1UNL    H18   45  -0.262   0.150  -0.148
    1UNL    H19   46  -0.218   0.474   0.013
    1UNL    H20   47  -0.333   0.390  -0.092
    1UNL    H21   48  -0.262   0.305   0.051
    1UNL    H22   49  -0.194  -0.066  -0.290
    1UNL    H23   50  -0.339  -0.315  -0.239
    1UNL    H24   51  -0.399  -0.445  -0.035
    1UNL    H25   52  -0.301  -0.393   0.182
    1UNL    H26   53  -0.161  -0.191   0.218
   0.00000   0.00000   0.00000   0.00000   0.00000   0.00000   0.00000   0.00000   0.00000
Generated with MDTraj, t= 13.0
 53
    1UNL     C1    1   0.373   0.306   0.065
    1UNL     C2    2   0.337   0.164   0.051
    1UNL     C3    3   0.249   0.116  -0.035
    1UNL     C4    4   0.187   0.188  -0.149
    1UNL     N1    5   0.173   0.096  -0.258
    1UNL     C5    6   0.106  -0.037  -0.229
    1UNL     C6    7   0.196  -0.107  -0.131
    1UNL     C7    8   0.201  -0.025   0.002
    1UNL     C8    9   0.074  -0.030   0.082
    1UNL     C9   10   0.073  -0.150   0.170
    1UNL     O1   11   0.113  -0.257   0.127
    1UNL     O2   12   0.027  -0.135   0.298
    1UNL    C10   13   0.038  -0.255   0.368
    1UNL    C11   14  -0.062  -0.022  -0.003
    1UNL    C12   15  -0.140   0.109   0.037
    1UNL    C13   16  -0.176   0.180  -0.103
    1UNL     O3   17  -0.160   0.314  -0.103
    1UNL    C14   18  -0.261   0.375  -0.011
    1UNL     O4   19  -0.091   0.118  -0.203
    1UNL    C15   20  -0.033  -0.011  -0.161
    1UNL     N2   21  -0.121  -0.124  -0.215
    1UNL    C16   22  -0.184  -0.196  -0.113
    1UNL    C17   23  -0.268  -0.306  -0.130
    1UNL    C18   24  -0.312  -0.376  -0.018
    1UNL    C19   25  -0.288  -0.318   0.107
    1UNL    C20   26  -0.213  -0.204   0.122
    1UNL    C21   27  -0.150  -0.142   0.013
    1UNL     H1   28   0.377   0.333   0.170
    1UNL     H2   29   0.288   0.360   0.034
    1UNL     H3   30   0.467   0.319   0.005
    1UNL     H4   31   0.384   0.102   0.126
    1UNL     H5   32   0.249   0.277  -0.176
    1UNL     H6   33   0.092   0.244  -0.129
    1UNL     H7   34   0.263   0.084  -0.321
    1UNL     H8   35   0.094  -0.093  -0.315
    1UNL     H9   36   0.291  -0.116  -0.184
    1UNL    H10   37   0.149  -0.209  -0.110
    1UNL    H11   38   0.289  -0.065   0.056
    1UNL    H12   39   0.078   0.055   0.155
    1UNL    H13   40  -0.001  -0.336   0.306
    1UNL    H14   41   0.141  -0.282   0.396
    1UNL    H15   42  -0.016  -0.241   0.453
    1UNL    H16   43  -0.079   0.177   0.097
    1UNL    H17   44  -0.229   0.099   0.101
    1UNL    H18   45  -0.278   0.165  -0.145
    1UNL    H19   46  -0.268   0.480  -0.041
    1UNL    H20   47  -0.363   0.334  -0.010
    1UNL    H21   48  -0.211   0.374   0.086
    1UNL    H22   49  -0.165  -0.092  -0.304
    1UNL    H23   50  -0.319  -0.321  -0.229
    1UNL    H24   51  -0.359  -0.472  -0.025
    1UNL    H25   52  -0.313  -0.374   0.194
    1UNL    H26   53  -0.207  -0.140   0.208
   0.00000   0.00000   0.00000   0.00000   0.00000   0.00000   0.00000   0.00000   0.00000
Generated with MDTraj, t= 14.0
 53
    1UNL     C1    1   0.376   0.296   0.058
    1UNL     C2    2   0.336   0.155   0.067
    1UNL     C3    3   0.259   0.101  -0.022
    1UNL     C4    4   0.202   0.185  -0.125
    1UNL     N1    5   0.165   0.119  -0.246
    1UNL     C5    6   0.106  -0.020  -0.234
    1UNL     C6    7   0.200  -0.108  -0.150
    1UNL     C7    8   0.212  -0.041  -0.006
    1UNL     C8    9   0.082  -0.039   0.074
    1UNL     C9   10   0.082  -0.160   0.169
    1UNL     O1   11   0.137  -0.264   0.133
    1UNL     O2   12   0.009  -0.135   0.280
    1UNL    C10   13   0.009  -0.253   0.357
    1UNL    C11   14  -0.047  -0.021  -0.015
    1UNL    C12   15  -0.117   0.109   0.022
    1UNL    C13   16  -0.188   0.169  -0.105
    1UNL     O3   17  -0.201   0.308  -0.100
    1UNL    C14   18  -0.282   0.355   0.008
    1UNL     O4   19  -0.103   0.113  -0.215
    1UNL    C15   20  -0.039  -0.014  -0.174
    1UNL     N2   21  -0.116  -0.130  -0.222
    1UNL    C16   22  -0.169  -0.200  -0.116
    1UNL    C17   23  -0.255  -0.306  -0.115
    1UNL    C18   24  -0.314  -0.354   0.006
    1UNL    C19   25  -0.284  -0.284   0.127
    1UNL    C20   26  -0.213  -0.168   0.120
    1UNL    C21   27  -0.143  -0.135   0.004
    1UNL     H1   28   0.291   0.362   0.031
    1UNL     H2   29   0.445   0.316  -0.020
    1UNL     H3   30   0.427   0.328   0.151
    1UNL     H4   31   0.375   0.096   0.148
    1UNL     H5   32   0.276   0.265  -0.150
    1UNL     H6   33   0.120   0.245  -0.082
    1UNL     H7   34   0.251   0.100  -0.314
    1UNL     H8   35   0.093  -0.065  -0.326
    1UNL     H9   36   0.289  -0.118  -0.206
    1UNL    H10   37   0.148  -0.211  -0.142
    1UNL    H11   38   0.286  -0.095   0.055
    1UNL    H12   39   0.075   0.050   0.142
    1UNL    H13   40  -0.063  -0.321   0.308
    1UNL    H14   41   0.100  -0.309   0.347
    1UNL    H15   42  -0.019  -0.236   0.458
    1UNL    H16   43  -0.045   0.189   0.049
    1UNL    H17   44  -0.187   0.102   0.106
    1UNL    H18   45  -0.289   0.122  -0.118
    1UNL    H19   46  -0.285   0.466   0.000
    1UNL    H20   47  -0.384   0.317  -0.014
    1UNL    H21   48  -0.241   0.332   0.108
    1UNL    H22   49  -0.168  -0.110  -0.310
    1UNL    H23   50  -0.298  -0.345  -0.202
    1UNL    H24   51  -0.383  -0.440   0.006
    1UNL    H25   52  -0.328  -0.320   0.223
    1UNL    H26   53  -0.202  -0.107   0.210
   0.00000   0.00000   0.00000   0.00000   0.00000   0.00000   0.00000   0.00000   0.00000
Generated with MDTraj, t= 15.0
 53
    1UNL     C1    1   0.415   0.297   0.074
    1UNL     C2    2   0.370   0.155   0.060
    1UNL     C3    3   0.270   0.114  -0.018
    1UNL     C4    4   0.198   0.200  -0.127
    1UNL     N1    5   0.147   0.129  -0.239
    1UNL     C5    6   0.118  -0.017  -0.224
    1UNL     C6    7   0.211  -0.094  -0.137
    1UNL     C7    8   0.217  -0.025  -0.005
    1UNL     C8    9   0.085  -0.034   0.072
    1UNL     C9   10   0.087  -0.159   0.154
    1UNL     O1   11   0.126  -0.265   0.111
    1UNL     O2   12   0.037  -0.143   0.284
    1UNL    C10   13   0.034  -0.262   0.351
    1UNL    C11   14  -0.049  -0.025  -0.006
    1UNL    C12   15  -0.117   0.109   0.026
    1UNL    C13   16  -0.186   0.152  -0.105
    1UNL     O3   17  -0.216   0.292  -0.113
    1UNL    C14   18  -0.306   0.345  -0.021
    1UNL     O4   19  -0.105   0.096  -0.214
    1UNL    C15   20  -0.033  -0.023  -0.167
    1UNL     N2   21  -0.108  -0.142  -0.212
    1UNL    C16   22  -0.173  -0.206  -0.104
    1UNL    C17   23  -0.278  -0.296  -0.116
    1UNL    C18   24  -0.350  -0.331  -0.001
    1UNL    C19   25  -0.322  -0.270   0.120
    1UNL    C20   26  -0.220  -0.171   0.131
    1UNL    C21   27  -0.147  -0.136   0.016
    1UNL     H1   28   0.411   0.349  -0.022
    1UNL     H2   29   0.513   0.320   0.111
    1UNL     H3   30   0.354   0.354   0.144
    1UNL     H4   31   0.418   0.084   0.125
    1UNL     H5   32   0.268   0.281  -0.155
    1UNL     H6   33   0.115   0.257  -0.077
    1UNL     H7   34   0.213   0.137  -0.328
    1UNL     H8   35   0.112  -0.060  -0.317
    1UNL     H9   36   0.304  -0.103  -0.185
    1UNL    H10   37   0.157  -0.198  -0.127
    1UNL    H11   38   0.284  -0.081   0.061
    1UNL    H12   39   0.075   0.044   0.150
    1UNL    H13   40   0.019  -0.340   0.273
    1UNL    H14   41   0.120  -0.291   0.402
    1UNL    H15   42  -0.060  -0.259   0.411
    1UNL    H16   43  -0.054   0.200   0.042
    1UNL    H17   44  -0.190   0.090   0.105
    1UNL    H18   45  -0.281   0.090  -0.103
    1UNL    H19   46  -0.353   0.439  -0.057
    1UNL    H20   47  -0.377   0.261  -0.037
    1UNL    H21   48  -0.272   0.360   0.082
    1UNL    H22   49  -0.156  -0.101  -0.295
    1UNL    H23   50  -0.290  -0.354  -0.210
    1UNL    H24   51  -0.440  -0.388  -0.013
    1UNL    H25   52  -0.380  -0.285   0.205
    1UNL    H26   53  -0.181  -0.132   0.222
   0.00000   0.00000   0.00000   0.00000   0.00000   0.00000   0.00000   0.00000   0.00000
Generated with MDTraj, t= 16.0
 53
    1UNL     C1    1   0.434   0.292   0.048
    1UNL     C2    2   0.367   0.161   0.047
    1UNL     C3    3   0.249   0.130  -0.007
    1UNL     C4    4   0.173   0.205  -0.112
    1UNL     N1    5   0.171   0.130  -0.235
    1UNL     C5    6   0.118  -0.017  -0.219
    1UNL     C6    7   0.211  -0.095  -0.119
    1UNL     C7    8   0.213  -0.019   0.017
    1UNL     C8    9   0.076  -0.039   0.088
    1UNL     C9   10   0.075  -0.176   0.162
    1UNL     O1   11   0.109  -0.276   0.105
    1UNL     O2   12   0.055  -0.176   0.295
    1UNL    C10   13   0.091  -0.294   0.353
    1UNL    C11   14  -0.052  -0.014  -0.001
    1UNL    C12   15  -0.121   0.119   0.023
    1UNL    C13   16  -0.185   0.153  -0.114
    1UNL     O3   17  -0.225   0.283  -0.134
    1UNL    C14   18  -0.327   0.336  -0.045
    1UNL     O4   19  -0.106   0.096  -0.219
    1UNL    C15   20  -0.028  -0.017  -0.161
    1UNL     N2   21  -0.097  -0.135  -0.203
    1UNL    C16   22  -0.178  -0.189  -0.110
    1UNL    C17   23  -0.285  -0.279  -0.119
    1UNL    C18   24  -0.356  -0.316  -0.004
    1UNL    C19   25  -0.324  -0.257   0.118
    1UNL    C20   26  -0.218  -0.164   0.131
    1UNL    C21   27  -0.154  -0.125   0.014
    1UNL     H1   28   0.535   0.276   0.003
    1UNL     H2   29   0.436   0.333   0.150
    1UNL     H3   30   0.384   0.359  -0.018
    1UNL     H4   31   0.425   0.087   0.099
    1UNL     H5   32   0.219   0.307  -0.123
    1UNL     H6   33   0.067   0.230  -0.084
    1UNL     H7   34   0.272   0.126  -0.275
    1UNL     H8   35   0.106  -0.058  -0.313
    1UNL     H9   36   0.306  -0.094  -0.167
    1UNL    H10   37   0.177  -0.206  -0.114
    1UNL    H11   38   0.284  -0.068   0.085
    1UNL    H12   39   0.072   0.047   0.157
    1UNL    H13   40   0.027  -0.370   0.297
    1UNL    H14   41   0.188  -0.323   0.333
    1UNL    H15   42   0.049  -0.295   0.460
    1UNL    H16   43  -0.048   0.198   0.046
    1UNL    H17   44  -0.204   0.113   0.092
    1UNL    H18   45  -0.280   0.086  -0.113
    1UNL    H19   46  -0.363   0.436  -0.082
    1UNL    H20   47  -0.411   0.266  -0.047
    1UNL    H21   48  -0.295   0.341   0.058
    1UNL    H22   49  -0.120  -0.125  -0.302
    1UNL    H23   50  -0.291  -0.335  -0.211
    1UNL    H24   51  -0.432  -0.393  -0.006
    1UNL    H25   52  -0.385  -0.271   0.211
    1UNL    H26   53  -0.179  -0.135   0.228
   0.00000   0.00000   0.00000   0.00000   0.00000   0.00000   0.00000   0.00000   0.00000
Generated with MDTraj, t= 17.0
 53
    1UNL     C1    1   0.422   0.317   0.022
    1UNL     C2    2   0.362   0.185   0.063
    1UNL     C3    3   0.258   0.126  -0.001
    1UNL     C4    4   0.191   0.191  -0.124
    1UNL     N1    5   0.189   0.103  -0.233
    1UNL     C5    6   0.119  -0.027  -0.205
    1UNL     C6    7   0.210  -0.097  -0.108
    1UNL     C7    8   0.212  -0.018   0.026
    1UNL     C8    9   0.077  -0.031   0.095
    1UNL     C9   10   0.078  -0.163   0.154
    1UNL     O1   11   0.073  -0.265   0.088
    1UNL     O2   12   0.084  -0.169   0.294
    1UNL    C10   13   0.081  -0.303   0.328
    1UNL    C11   14  -0.055  -0.016  -0.001
    1UNL    C12   15  -0.134   0.108   0.029
    1UNL    C13   16  -0.185   0.164  -0.113
    1UNL     O3   17  -0.200   0.303  -0.114
    1UNL    C14   18  -0.330   0.329  -0.056
    1UNL     O4   19  -0.087   0.110  -0.211
    1UNL    C15   20  -0.031  -0.015  -0.158
    1UNL     N2   21  -0.122  -0.129  -0.212
    1UNL    C16   22  -0.187  -0.192  -0.107
    1UNL    C17   23  -0.276  -0.297  -0.116
    1UNL    C18   24  -0.351  -0.328  -0.004
    1UNL    C19   25  -0.330  -0.267   0.126
    1UNL    C20   26  -0.223  -0.175   0.127
    1UNL    C21   27  -0.160  -0.132   0.017
    1UNL     H1   28   0.482   0.360   0.107
    1UNL     H2   29   0.340   0.386  -0.007
    1UNL     H3   30   0.491   0.295  -0.054
    1UNL     H4   31   0.425   0.136   0.137
    1UNL     H5   32   0.233   0.289  -0.156
    1UNL     H6   33   0.085   0.213  -0.089
    1UNL     H7   34   0.290   0.076  -0.256
    1UNL     H8   35   0.110  -0.085  -0.292
    1UNL     H9   36   0.305  -0.122  -0.154
    1UNL    H10   37   0.163  -0.200  -0.101
    1UNL    H11   38   0.280  -0.071   0.093
    1UNL    H12   39   0.067   0.046   0.173
    1UNL    H13   40  -0.027  -0.340   0.344
    1UNL    H14   41   0.128  -0.354   0.252
    1UNL    H15   42   0.134  -0.318   0.431
    1UNL    H16   43  -0.072   0.184   0.078
    1UNL    H17   44  -0.222   0.096   0.092
    1UNL    H18   45  -0.286   0.113  -0.141
    1UNL    H19   46  -0.350   0.437  -0.068
    1UNL    H20   47  -0.416   0.274  -0.090
    1UNL    H21   48  -0.325   0.304   0.049
    1UNL    H22   49  -0.151  -0.117  -0.308
    1UNL    H23   50  -0.285  -0.358  -0.203
    1UNL    H24   51  -0.407  -0.420  -0.002
    1UNL    H25   52  -0.391  -0.288   0.210
    1UNL    H26   53  -0.206  -0.119   0.216
   0.00000   0.00000   0.00000   0.00000   0.00000   0.00000   0.00000   0.00000   0.00000
Generated with MDTraj, t= 18.0
 53
    1UNL     C1    1   0.377   0.326   0.043
    1UNL     C2    2   0.329   0.191   0.067
    1UNL     C3    3   0.253   0.119  -0.016
    1UNL     C4    4   0.182   0.190  -0.130
    1UNL     N1    5   0.178   0.107  -0.252
    1UNL     C5    6   0.111  -0.029  -0.225
    1UNL     C6    7   0.205  -0.102  -0.131
    1UNL     C7    8   0.210  -0.025   0.005
    1UNL     C8    9   0.079  -0.045   0.089
    1UNL     C9   10   0.075  -0.179   0.165
    1UNL     O1   11   0.072  -0.287   0.108
    1UNL     O2   12   0.081  -0.170   0.299
    1UNL    C10   13   0.073  -0.300   0.355
    1UNL    C11   14  -0.052  -0.014   0.003
    1UNL    C12   15  -0.110   0.123   0.028
    1UNL    C13   16  -0.177   0.169  -0.103
    1UNL     O3   17  -0.177   0.307  -0.117
    1UNL    C14   18  -0.293   0.356  -0.062
    1UNL     O4   19  -0.095   0.110  -0.204
    1UNL    C15   20  -0.034  -0.013  -0.158
    1UNL     N2   21  -0.119  -0.125  -0.213
    1UNL    C16   22  -0.188  -0.178  -0.108
    1UNL    C17   23  -0.276  -0.290  -0.115
    1UNL    C18   24  -0.338  -0.346  -0.006
    1UNL    C19   25  -0.310  -0.288   0.118
    1UNL    C20   26  -0.213  -0.185   0.135
    1UNL    C21   27  -0.161  -0.122   0.021
    1UNL     H1   28   0.316   0.414   0.071
    1UNL     H2   29   0.400   0.352  -0.062
    1UNL     H3   30   0.467   0.349   0.095
    1UNL     H4   31   0.373   0.143   0.153
    1UNL     H5   32   0.235   0.287  -0.135
    1UNL     H6   33   0.072   0.214  -0.112
    1UNL     H7   34   0.272   0.096  -0.297
    1UNL     H8   35   0.105  -0.085  -0.314
    1UNL     H9   36   0.301  -0.126  -0.185
    1UNL    H10   37   0.174  -0.208  -0.119
    1UNL    H11   38   0.285  -0.073   0.068
    1UNL    H12   39   0.073   0.039   0.160
    1UNL    H13   40  -0.011  -0.364   0.314
    1UNL    H14   41   0.165  -0.338   0.328
    1UNL    H15   42   0.068  -0.307   0.475
    1UNL    H16   43  -0.044   0.204   0.061
    1UNL    H17   44  -0.181   0.119   0.112
    1UNL    H18   45  -0.286   0.126  -0.118
    1UNL    H19   46  -0.266   0.463  -0.045
    1UNL    H20   47  -0.389   0.347  -0.112
    1UNL    H21   48  -0.307   0.307   0.033
    1UNL    H22   49  -0.170  -0.103  -0.297
    1UNL    H23   50  -0.284  -0.334  -0.217
    1UNL    H24   51  -0.392  -0.440  -0.004
    1UNL    H25   52  -0.366  -0.314   0.209
    1UNL    H26   53  -0.211  -0.122   0.224
   0.00000   0.00000   0.00000   0.00000   0.00000   0.00000   0.00000   0.00000   0.00000
Generated with MDTraj, t= 19.0
 53
    1UNL     C1    1   0.331   0.321   0.103
    1UNL     C2    2   0.305   0.180   0.074
    1UNL     C3    3   0.244   0.122  -0.030
    1UNL     C4    4   0.178   0.182  -0.152
    1UNL     N1    5   0.165   0.093  -0.259
    1UNL     C5    6   0.100  -0.038  -0.230
    1UNL     C6    7   0.196  -0.111  -0.134
    1UNL     C7    8   0.213  -0.026  -0.006
    1UNL     C8    9   0.081  -0.041   0.080
    1UNL     C9   10   0.088  -0.167   0.157
    1UNL     O1   11   0.127  -0.269   0.105
    1UNL     O2   12   0.042  -0.158   0.284
    1UNL    C10   13   0.078  -0.270   0.349
    1UNL    C11   14  -0.055  -0.026  -0.004
    1UNL    C12   15  -0.138   0.101   0.023
    1UNL    C13   16  -0.165   0.168  -0.112
    1UNL     O3   17  -0.143   0.318  -0.107
    1UNL    C14   18  -0.243   0.384  -0.036
    1UNL     O4   19  -0.092   0.107  -0.217
    1UNL    C15   20  -0.037  -0.017  -0.168
    1UNL     N2   21  -0.127  -0.129  -0.209
    1UNL    C16   22  -0.190  -0.194  -0.103
    1UNL    C17   23  -0.285  -0.298  -0.111
    1UNL    C18   24  -0.343  -0.339   0.007
    1UNL    C19   25  -0.295  -0.290   0.130
    1UNL    C20   26  -0.206  -0.181   0.136
    1UNL    C21   27  -0.155  -0.138   0.015
    1UNL     H1   28   0.296   0.390   0.028
    1UNL     H2   29   0.440   0.349   0.098
    1UNL     H3   30   0.291   0.347   0.203
    1UNL     H4   31   0.344   0.117   0.152
    1UNL     H5   32   0.223   0.276  -0.193
    1UNL     H6   33   0.076   0.213  -0.112
    1UNL     H7   34   0.255   0.088  -0.307
    1UNL     H8   35   0.086  -0.093  -0.320
    1UNL     H9   36   0.298  -0.125  -0.183
    1UNL    H10   37   0.174  -0.217  -0.121
    1UNL    H11   38   0.290  -0.076   0.053
    1UNL    H12   39   0.068   0.038   0.156
    1UNL    H13   40   0.040  -0.366   0.305
    1UNL    H14   41   0.183  -0.257   0.351
    1UNL    H15   42   0.048  -0.261   0.462
    1UNL    H16   43  -0.091   0.179   0.081
    1UNL    H17   44  -0.228   0.080   0.084
    1UNL    H18   45  -0.277   0.141  -0.135
    1UNL    H19   46  -0.229   0.494  -0.038
    1UNL    H20   47  -0.345   0.359  -0.059
    1UNL    H21   48  -0.230   0.347   0.064
    1UNL    H22   49  -0.181  -0.096  -0.286
    1UNL    H23   50  -0.295  -0.348  -0.202
    1UNL    H24   51  -0.419  -0.415   0.004
    1UNL    H25   52  -0.349  -0.311   0.222
    1UNL    H26   53  -0.179  -0.134   0.228
   0.00000   0.00000   0.00000   0.00000   0.00000   0.00000   0.00000   0.00000   0.00000
Generated with MDTraj, t= 20.0
 53
    1UNL     C1    1   0.294   0.348   0.066
    1UNL     C2    2   0.290   0.192   0.072
    1UNL     C3    3   0.236   0.120  -0.031
    1UNL     C4    4   0.183   0.191  -0.153
    1UNL     N1    5   0.147   0.097  -0.259
    1UNL     C5    6   0.103  -0.040  -0.227
    1UNL     C6    7   0.203  -0.106  -0.135
    1UNL     C7    8   0.214  -0.028  -0.011
    1UNL     C8    9   0.084  -0.049   0.074
    1UNL     C9   10   0.094  -0.177   0.164
    1UNL     O1   11   0.155  -0.277   0.132
    1UNL     O2   12   0.035  -0.159   0.286
    1UNL    C10   13   0.043  -0.278   0.361
    1UNL    C11   14  -0.051  -0.031  -0.009
    1UNL    C12   15  -0.111   0.114   0.024
    1UNL    C13   16  -0.163   0.174  -0.104
    1UNL     O3   17  -0.132   0.316  -0.106
    1UNL    C14   18  -0.192   0.390   0.000
    1UNL     O4   19  -0.120   0.096  -0.219
    1UNL    C15   20  -0.041  -0.023  -0.171
    1UNL     N2   21  -0.120  -0.144  -0.215
    1UNL    C16   22  -0.190  -0.202  -0.112
    1UNL    C17   23  -0.297  -0.286  -0.120
    1UNL    C18   24  -0.334  -0.346   0.003
    1UNL    C19   25  -0.297  -0.290   0.127
    1UNL    C20   26  -0.207  -0.183   0.130
    1UNL    C21   27  -0.150  -0.140   0.012
    1UNL     H1   28   0.335   0.375  -0.027
    1UNL     H2   29   0.370   0.390   0.136
    1UNL     H3   30   0.188   0.381   0.089
    1UNL     H4   31   0.320   0.153   0.168
    1UNL     H5   32   0.264   0.263  -0.178
    1UNL     H6   33   0.090   0.252  -0.136
    1UNL     H7   34   0.200   0.118  -0.342
    1UNL     H8   35   0.094  -0.093  -0.318
    1UNL     H9   36   0.306  -0.125  -0.186
    1UNL    H10   37   0.180  -0.209  -0.112
    1UNL    H11   38   0.299  -0.075   0.041
    1UNL    H12   39   0.085   0.034   0.147
    1UNL    H13   40   0.007  -0.361   0.300
    1UNL    H14   41   0.149  -0.287   0.389
    1UNL    H15   42  -0.012  -0.279   0.461
    1UNL    H16   43  -0.036   0.179   0.065
    1UNL    H17   44  -0.194   0.114   0.099
    1UNL    H18   45  -0.279   0.150  -0.102
    1UNL    H19   46  -0.147   0.492  -0.001
    1UNL    H20   47  -0.299   0.413  -0.005
    1UNL    H21   48  -0.173   0.343   0.094
    1UNL    H22   49  -0.169  -0.123  -0.299
    1UNL    H23   50  -0.329  -0.326  -0.217
    1UNL    H24   51  -0.410  -0.422  -0.004
    1UNL    H25   52  -0.354  -0.319   0.213
    1UNL    H26   53  -0.173  -0.153   0.227
   0.00000   0.00000   0.00000   0.00000   0.00000   0.00000   0.00000   0.00000   0.00000
Generated with MDTraj, t= 21.0
 53
    1UNL     C1    1   0.298   0.361   0.044
    1UNL     C2    2   0.289   0.214   0.056
    1UNL     C3    3   0.224   0.132  -0.027
    1UNL     C4    4   0.168   0.186  -0.158
    1UNL     N1    5   0.152   0.090  -0.272
    1UNL     C5    6   0.108  -0.043  -0.227
    1UNL     C6    7   0.217  -0.104  -0.126
    1UNL     C7    8   0.217  -0.015   0.004
    1UNL     C8    9   0.084  -0.042   0.082
    1UNL     C9   10   0.093  -0.176   0.154
    1UNL     O1   11   0.137  -0.279   0.105
    1UNL     O2   12   0.038  -0.166   0.276
    1UNL    C10   13   0.034  -0.291   0.334
    1UNL    C11   14  -0.047  -0.030  -0.002
    1UNL    C12   15  -0.120   0.109   0.034
    1UNL    C13   16  -0.154   0.179  -0.100
    1UNL     O3   17  -0.118   0.319  -0.092
    1UNL    C14   18  -0.191   0.385   0.010
    1UNL     O4   19  -0.103   0.096  -0.214
    1UNL    C15   20  -0.034  -0.029  -0.169
    1UNL     N2   21  -0.114  -0.149  -0.207
    1UNL    C16   22  -0.176  -0.216  -0.098
    1UNL    C17   23  -0.280  -0.300  -0.110
    1UNL    C18   24  -0.343  -0.345   0.005
    1UNL    C19   25  -0.321  -0.281   0.127
    1UNL    C20   26  -0.229  -0.175   0.139
    1UNL    C21   27  -0.152  -0.145   0.023
    1UNL     H1   28   0.401   0.388   0.043
    1UNL     H2   29   0.266   0.415   0.135
    1UNL     H3   30   0.240   0.411  -0.039
    1UNL     H4   31   0.327   0.171   0.147
    1UNL     H5   32   0.234   0.264  -0.199
    1UNL     H6   33   0.072   0.229  -0.123
    1UNL     H7   34   0.240   0.075  -0.318
    1UNL     H8   35   0.084  -0.108  -0.309
    1UNL     H9   36   0.317  -0.140  -0.177
    1UNL    H10   37   0.188  -0.199  -0.086
    1UNL    H11   38   0.307  -0.040   0.064
    1UNL    H12   39   0.072   0.026   0.166
    1UNL    H13   40  -0.021  -0.353   0.266
    1UNL    H14   41   0.142  -0.331   0.353
    1UNL    H15   42  -0.016  -0.289   0.430
    1UNL    H16   43  -0.066   0.180   0.095
    1UNL    H17   44  -0.211   0.074   0.086
    1UNL    H18   45  -0.268   0.176  -0.124
    1UNL    H19   46  -0.200   0.490  -0.031
    1UNL    H20   47  -0.298   0.368   0.033
    1UNL    H21   48  -0.134   0.389   0.101
    1UNL    H22   49  -0.153  -0.141  -0.299
    1UNL    H23   50  -0.304  -0.343  -0.205
    1UNL    H24   51  -0.421  -0.422   0.001
    1UNL    H25   52  -0.371  -0.316   0.219
    1UNL    H26   53  -0.204  -0.122   0.230
   0.00000   0.00000   0.00000   0.00000   0.00000   0.00000   0.00000   0.00000   0.00000
Generated with MDTraj, t= 22.0
 53
    1UNL     C1    1   0.316   0.362   0.047
    1UNL     C2    2   0.281   0.221   0.067
    1UNL     C3    3   0.232   0.139  -0.026
    1UNL     C4    4   0.171   0.193  -0.156
    1UNL     N1    5   0.163   0.088  -0.258
    1UNL     C5    6   0.119  -0.044  -0.220
    1UNL     C6    7   0.211  -0.100  -0.116
    1UNL     C7    8   0.205  -0.009   0.011
    1UNL     C8    9   0.078  -0.040   0.093
    1UNL     C9   10   0.081  -0.183   0.154
    1UNL     O1   11   0.107  -0.279   0.084
    1UNL     O2   12   0.042  -0.192   0.281
    1UNL    C10   13   0.064  -0.324   0.316
    1UNL    C11   14  -0.052  -0.028   0.004
    1UNL    C12   15  -0.125   0.122   0.025
    1UNL    C13   16  -0.163   0.169  -0.118
    1UNL     O3   17  -0.138   0.317  -0.124
    1UNL    C14   18  -0.199   0.383  -0.016
    1UNL     O4   19  -0.081   0.095  -0.219
    1UNL    C15   20  -0.031  -0.026  -0.159
    1UNL     N2   21  -0.119  -0.139  -0.201
    1UNL    C16   22  -0.185  -0.198  -0.094
    1UNL    C17   23  -0.280  -0.299  -0.099
    1UNL    C18   24  -0.346  -0.333   0.019
    1UNL    C19   25  -0.308  -0.281   0.140
    1UNL    C20   26  -0.218  -0.180   0.150
    1UNL    C21   27  -0.156  -0.142   0.027
    1UNL     H1   28   0.408   0.365  -0.012
    1UNL     H2   29   0.337   0.418   0.138
    1UNL     H3   30   0.241   0.426  -0.006
    1UNL     H4   31   0.288   0.180   0.168
    1UNL     H5   32   0.250   0.262  -0.187
    1UNL     H6   33   0.067   0.234  -0.153
    1UNL     H7   34   0.250   0.079  -0.303
    1UNL     H8   35   0.105  -0.103  -0.310
    1UNL     H9   36   0.322  -0.096  -0.153
    1UNL    H10   37   0.194  -0.202  -0.093
    1UNL    H11   38   0.293  -0.038   0.073
    1UNL    H12   39   0.069   0.024   0.181
    1UNL    H13   40  -0.011  -0.374   0.263
    1UNL    H14   41   0.173  -0.364   0.286
    1UNL    H15   42   0.046  -0.340   0.418
    1UNL    H16   43  -0.044   0.189   0.056
    1UNL    H17   44  -0.207   0.117   0.099
    1UNL    H18   45  -0.273   0.149  -0.146
    1UNL    H19   46  -0.188   0.492  -0.042
    1UNL    H20   47  -0.311   0.387  -0.019
    1UNL    H21   48  -0.155   0.362   0.081
    1UNL    H22   49  -0.179  -0.119  -0.279
    1UNL    H23   50  -0.322  -0.342  -0.191
    1UNL    H24   51  -0.403  -0.424   0.018
    1UNL    H25   52  -0.345  -0.321   0.229
    1UNL    H26   53  -0.192  -0.121   0.235
   0.00000   0.00000   0.00000   0.00000   0.00000   0.00000   0.00000   0.00000   0.00000
Generated with MDTraj, t= 23.0
 53
    1UNL     C1    1   0.312   0.356   0.070
    1UNL     C2    2   0.302   0.205   0.073
    1UNL     C3    3   0.236   0.129  -0.015
    1UNL     C4    4   0.176   0.195  -0.131
    1UNL     N1    5   0.165   0.102  -0.247
    1UNL     C5    6   0.112  -0.037  -0.228
    1UNL     C6    7   0.210  -0.104  -0.125
    1UNL     C7    8   0.214  -0.022   0.006
    1UNL     C8    9   0.084  -0.046   0.088
    1UNL     C9   10   0.084  -0.190   0.151
    1UNL     O1   11   0.091  -0.290   0.081
    1UNL     O2   12   0.068  -0.198   0.288
    1UNL    C10   13   0.083  -0.335   0.317
    1UNL    C11   14  -0.050  -0.023   0.003
    1UNL    C12   15  -0.114   0.126   0.025
    1UNL    C13   16  -0.159   0.165  -0.109
    1UNL     O3   17  -0.139   0.312  -0.131
    1UNL    C14   18  -0.244   0.382  -0.076
    1UNL     O4   19  -0.098   0.098  -0.215
    1UNL    C15   20  -0.033  -0.018  -0.168
    1UNL     N2   21  -0.117  -0.136  -0.200
    1UNL    C16   22  -0.197  -0.185  -0.094
    1UNL    C17   23  -0.280  -0.295  -0.091
    1UNL    C18   24  -0.341  -0.333   0.026
    1UNL    C19   25  -0.308  -0.264   0.142
    1UNL    C20   26  -0.218  -0.164   0.147
    1UNL    C21   27  -0.164  -0.124   0.027
    1UNL     H1   28   0.352   0.386  -0.031
    1UNL     H2   29   0.379   0.376   0.154
    1UNL     H3   30   0.217   0.406   0.090
    1UNL     H4   31   0.327   0.160   0.167
    1UNL     H5   32   0.228   0.283  -0.171
    1UNL     H6   33   0.075   0.217  -0.097
    1UNL     H7   34   0.255   0.088  -0.277
    1UNL     H8   35   0.106  -0.091  -0.322
    1UNL     H9   36   0.318  -0.113  -0.161
    1UNL    H10   37   0.180  -0.205  -0.097
    1UNL    H11   38   0.301  -0.049   0.072
    1UNL    H12   39   0.095   0.025   0.169
    1UNL    H13   40   0.009  -0.379   0.257
    1UNL    H14   41   0.187  -0.381   0.277
    1UNL    H15   42   0.062  -0.360   0.414
    1UNL    H16   43  -0.043   0.201   0.065
    1UNL    H17   44  -0.198   0.125   0.095
    1UNL    H18   45  -0.271   0.141  -0.115
    1UNL    H19   46  -0.243   0.481  -0.124
    1UNL    H20   47  -0.341   0.344  -0.115
    1UNL    H21   48  -0.241   0.391   0.031
    1UNL    H22   49  -0.150  -0.123  -0.295
    1UNL    H23   50  -0.303  -0.348  -0.181
    1UNL    H24   51  -0.411  -0.417   0.027
    1UNL    H25   52  -0.348  -0.312   0.236
    1UNL    H26   53  -0.208  -0.095   0.233
   0.00000   0.00000   0.00000   0.00000   0.00000   0.00000   0.00000   0.00000   0.00000
Generated with MDTraj, t= 24.0
 53
    1UNL     C1    1   0.338   0.336   0.094
    1UNL     C2    2   0.305   0.187   0.096
    1UNL     C3    3   0.252   0.119  -0.008
    1UNL     C4    4   0.190   0.190  -0.128
    1UNL     N1    5   0.170   0.103  -0.250
    1UNL     C5    6   0.113  -0.023  -0.222
    1UNL     C6    7   0.214  -0.102  -0.137
    1UNL     C7    8   0.218  -0.030   0.001
    1UNL     C8    9   0.084  -0.049   0.075
    1UNL     C9   10   0.088  -0.189   0.136
    1UNL     O1   11   0.089  -0.291   0.070
    1UNL     O2   12   0.088  -0.183   0.273
    1UNL    C10   13   0.088  -0.310   0.315
    1UNL    C11   14  -0.047  -0.016  -0.002
    1UNL    C12   15  -0.107   0.130   0.029
    1UNL    C13   16  -0.174   0.160  -0.105
    1UNL     O3   17  -0.163   0.311  -0.116
    1UNL    C14   18  -0.288   0.372  -0.094
    1UNL     O4   19  -0.110   0.091  -0.214
    1UNL    C15   20  -0.032  -0.025  -0.165
    1UNL     N2   21  -0.104  -0.152  -0.193
    1UNL    C16   22  -0.195  -0.191  -0.095
    1UNL    C17   23  -0.279  -0.299  -0.093
    1UNL    C18   24  -0.338  -0.326   0.028
    1UNL    C19   25  -0.324  -0.247   0.143
    1UNL    C20   26  -0.235  -0.142   0.146
    1UNL    C21   27  -0.163  -0.118   0.028
    1UNL     H1   28   0.441   0.347   0.042
    1UNL     H2   29   0.334   0.366   0.200
    1UNL     H3   30   0.275   0.405   0.039
    1UNL     H4   31   0.327   0.133   0.187
    1UNL     H5   32   0.276   0.251  -0.155
    1UNL     H6   33   0.099   0.249  -0.115
    1UNL     H7   34   0.258   0.082  -0.282
    1UNL     H8   35   0.109  -0.061  -0.326
    1UNL     H9   36   0.316  -0.124  -0.177
    1UNL    H10   37   0.160  -0.197  -0.115
    1UNL    H11   38   0.299  -0.071   0.067
    1UNL    H12   39   0.097   0.015   0.161
    1UNL    H13   40   0.001  -0.356   0.278
    1UNL    H14   41   0.176  -0.372   0.264
    1UNL    H15   42   0.093  -0.306   0.419
    1UNL    H16   43  -0.040   0.212   0.063
    1UNL    H17   44  -0.173   0.119   0.116
    1UNL    H18   45  -0.283   0.132  -0.101
    1UNL    H19   46  -0.264   0.471  -0.053
    1UNL    H20   47  -0.338   0.389  -0.191
    1UNL    H21   48  -0.359   0.322  -0.032
    1UNL    H22   49  -0.154  -0.137  -0.280
    1UNL    H23   50  -0.293  -0.360  -0.181
    1UNL    H24   51  -0.409  -0.403   0.041
    1UNL    H25   52  -0.385  -0.261   0.227
    1UNL    H26   53  -0.223  -0.094   0.238
   0.00000   0.00000   0.00000   0.00000   0.00000   0.00000   0.00000   0.00000   0.00000
Generated with MDTraj, t= 25.0
 53
    1UNL     C1    1   0.360   0.314   0.088
    1UNL     C2    2   0.318   0.177   0.086
    1UNL     C3    3   0.252   0.120  -0.010
    1UNL     C4    4   0.200   0.200  -0.127
    1UNL     N1    5   0.162   0.111  -0.242
    1UNL     C5    6   0.111  -0.027  -0.229
    1UNL     C6    7   0.213  -0.101  -0.134
    1UNL     C7    8   0.222  -0.025   0.003
    1UNL     C8    9   0.087  -0.047   0.080
    1UNL     C9   10   0.080  -0.185   0.150
    1UNL     O1   11   0.091  -0.287   0.084
    1UNL     O2   12   0.078  -0.187   0.287
    1UNL    C10   13   0.085  -0.323   0.325
    1UNL    C11   14  -0.046  -0.020  -0.001
    1UNL    C12   15  -0.110   0.126   0.030
    1UNL    C13   16  -0.172   0.165  -0.108
    1UNL     O3   17  -0.183   0.308  -0.122
    1UNL    C14   18  -0.319   0.355  -0.101
    1UNL     O4   19  -0.102   0.101  -0.222
    1UNL    C15   20  -0.035  -0.018  -0.165
    1UNL     N2   21  -0.101  -0.146  -0.200
    1UNL    C16   22  -0.180  -0.191  -0.092
    1UNL    C17   23  -0.286  -0.284  -0.099
    1UNL    C18   24  -0.347  -0.307   0.021
    1UNL    C19   25  -0.316  -0.248   0.140
    1UNL    C20   26  -0.219  -0.151   0.145
    1UNL    C21   27  -0.152  -0.128   0.029
    1UNL     H1   28   0.434   0.344   0.005
    1UNL     H2   29   0.398   0.336   0.190
    1UNL     H3   30   0.290   0.398   0.083
    1UNL     H4   31   0.325   0.115   0.174
    1UNL     H5   32   0.264   0.278  -0.165
    1UNL     H6   33   0.110   0.243  -0.084
    1UNL     H7   34   0.141   0.156  -0.325
    1UNL     H8   35   0.113  -0.068  -0.332
    1UNL     H9   36   0.314  -0.104  -0.172
    1UNL    H10   37   0.178  -0.206  -0.111
    1UNL    H11   38   0.308  -0.063   0.065
    1UNL    H12   39   0.086   0.023   0.162
    1UNL    H13   40   0.001  -0.382   0.289
    1UNL    H14   41   0.167  -0.369   0.262
    1UNL    H15   42   0.114  -0.334   0.428
    1UNL    H16   43  -0.036   0.203   0.063
    1UNL    H17   44  -0.177   0.122   0.115
    1UNL    H18   45  -0.277   0.135  -0.118
    1UNL    H19   46  -0.298   0.452  -0.147
    1UNL    H20   47  -0.402   0.287  -0.134
    1UNL    H21   48  -0.349   0.378  -0.001
    1UNL    H22   49  -0.126  -0.138  -0.300
    1UNL    H23   50  -0.304  -0.341  -0.189
    1UNL    H24   51  -0.436  -0.371   0.013
    1UNL    H25   52  -0.374  -0.268   0.231
    1UNL    H26   53  -0.181  -0.119   0.245
   0.00000   0.00000   0.00000   0.00000   0.00000   0.00000   0.00000   0.00000   0.00000
Generated with MDTraj, t= 26.0
 53
    1UNL     C1    1   0.389   0.330   0.077
    1UNL     C2    2   0.356   0.178   0.065
    1UNL     C3    3   0.263   0.121  -0.011
    1UNL     C4    4   0.192   0.199  -0.121
    1UNL     N1    5   0.155   0.119  -0.241
    1UNL     C5    6   0.122  -0.021  -0.221
    1UNL     C6    7   0.216  -0.097  -0.127
    1UNL     C7    8   0.222  -0.026   0.012
    1UNL     C8    9   0.085  -0.044   0.089
    1UNL     C9   10   0.087  -0.184   0.155
    1UNL     O1   11   0.100  -0.285   0.087
    1UNL     O2   12   0.065  -0.182   0.288
    1UNL    C10   13   0.059  -0.314   0.328
    1UNL    C11   14  -0.047  -0.017   0.002
    1UNL    C12   15  -0.115   0.130   0.020
    1UNL    C13   16  -0.172   0.163  -0.117
    1UNL     O3   17  -0.192   0.305  -0.128
    1UNL    C14   18  -0.320   0.338  -0.074
    1UNL     O4   19  -0.089   0.102  -0.225
    1UNL    C15   20  -0.028  -0.021  -0.167
    1UNL     N2   21  -0.109  -0.137  -0.200
    1UNL    C16   22  -0.187  -0.192  -0.097
    1UNL    C17   23  -0.299  -0.284  -0.100
    1UNL    C18   24  -0.358  -0.319   0.018
    1UNL    C19   25  -0.320  -0.261   0.135
    1UNL    C20   26  -0.219  -0.165   0.141
    1UNL    C21   27  -0.157  -0.133   0.024
    1UNL     H1   28   0.421   0.379  -0.019
    1UNL     H2   29   0.464   0.339   0.158
    1UNL     H3   30   0.306   0.392   0.113
    1UNL     H4   31   0.397   0.112   0.141
    1UNL     H5   32   0.275   0.254  -0.164
    1UNL     H6   33   0.115   0.272  -0.094
    1UNL     H7   34   0.086   0.156  -0.306
    1UNL     H8   35   0.129  -0.062  -0.326
    1UNL     H9   36   0.315  -0.096  -0.163
    1UNL    H10   37   0.180  -0.205  -0.113
    1UNL    H11   38   0.301  -0.082   0.069
    1UNL    H12   39   0.084   0.026   0.171
    1UNL    H13   40   0.011  -0.386   0.256
    1UNL    H14   41   0.161  -0.343   0.321
    1UNL    H15   42   0.034  -0.326   0.437
    1UNL    H16   43  -0.051   0.215   0.055
    1UNL    H17   44  -0.198   0.119   0.090
    1UNL    H18   45  -0.270   0.125  -0.132
    1UNL    H19   46  -0.321   0.444  -0.050
    1UNL    H20   47  -0.396   0.301  -0.148
    1UNL    H21   48  -0.342   0.290   0.019
    1UNL    H22   49  -0.155  -0.136  -0.292
    1UNL    H23   50  -0.325  -0.336  -0.190
    1UNL    H24   51  -0.443  -0.383   0.019
    1UNL    H25   52  -0.363  -0.304   0.225
    1UNL    H26   53  -0.193  -0.119   0.233
   0.00000   0.00000   0.00000   0.00000   0.00000   0.00000   0.00000   0.00000   0.00000
Generated with MDTraj, t= 27.0
 53
    1UNL     C1    1   0.411   0.311   0.035
    1UNL     C2    2   0.354   0.174   0.068
    1UNL     C3    3   0.256   0.123  -0.010
    1UNL     C4    4   0.185   0.197  -0.122
    1UNL     N1    5   0.154   0.116  -0.241
    1UNL     C5    6   0.117  -0.025  -0.218
    1UNL     C6    7   0.215  -0.100  -0.120
    1UNL     C7    8   0.215  -0.017   0.014
    1UNL     C8    9   0.079  -0.040   0.089
    1UNL     C9   10   0.082  -0.175   0.150
    1UNL     O1   11   0.122  -0.278   0.099
    1UNL     O2   12   0.034  -0.169   0.278
    1UNL    C10   13   0.038  -0.292   0.333
    1UNL    C11   14  -0.053  -0.021  -0.006
    1UNL    C12   15  -0.121   0.123   0.024
    1UNL    C13   16  -0.185   0.160  -0.111
    1UNL     O3   17  -0.200   0.308  -0.116
    1UNL    C14   18  -0.300   0.352  -0.027
    1UNL     O4   19  -0.097   0.102  -0.213
    1UNL    C15   20  -0.030  -0.022  -0.168
    1UNL     N2   21  -0.100  -0.144  -0.210
    1UNL    C16   22  -0.172  -0.204  -0.103
    1UNL    C17   23  -0.266  -0.298  -0.111
    1UNL    C18   24  -0.338  -0.321  -0.001
    1UNL    C19   25  -0.319  -0.261   0.125
    1UNL    C20   26  -0.226  -0.164   0.136
    1UNL    C21   27  -0.152  -0.136   0.024
    1UNL     H1   28   0.487   0.307  -0.043
    1UNL     H2   29   0.453   0.341   0.135
    1UNL     H3   30   0.327   0.382   0.010
    1UNL     H4   31   0.392   0.124   0.156
    1UNL     H5   32   0.237   0.285  -0.155
    1UNL     H6   33   0.090   0.230  -0.086
    1UNL     H7   34   0.104   0.153  -0.329
    1UNL     H8   35   0.119  -0.080  -0.318
    1UNL     H9   36   0.310  -0.122  -0.159
    1UNL    H10   37   0.167  -0.199  -0.086
    1UNL    H11   38   0.299  -0.058   0.075
    1UNL    H12   39   0.074   0.034   0.167
    1UNL    H13   40  -0.025  -0.372   0.281
    1UNL    H14   41   0.137  -0.317   0.325
    1UNL    H15   42   0.014  -0.284   0.447
    1UNL    H16   43  -0.052   0.201   0.057
    1UNL    H17   44  -0.200   0.101   0.100
    1UNL    H18   45  -0.281   0.119  -0.109
    1UNL    H19   46  -0.289   0.452   0.013
    1UNL    H20   47  -0.397   0.338  -0.086
    1UNL    H21   48  -0.286   0.293   0.063
    1UNL    H22   49  -0.142  -0.130  -0.304
    1UNL    H23   50  -0.282  -0.334  -0.212
    1UNL    H24   51  -0.395  -0.414   0.005
    1UNL    H25   52  -0.376  -0.283   0.211
    1UNL    H26   53  -0.225  -0.101   0.226
   0.00000   0.00000   0.00000   0.00000   0.00000   0.00000   0.00000   0.00000   0.00000
Generated with MDTraj, t= 28.0
 53
    1UNL     C1    1   0.416   0.309   0.031
    1UNL     C2    2   0.356   0.171   0.054
    1UNL     C3    3   0.252   0.119  -0.014
    1UNL     C4    4   0.186   0.200  -0.127
    1UNL     N1    5   0.148   0.121  -0.245
    1UNL     C5    6   0.106  -0.023  -0.223
    1UNL     C6    7   0.206  -0.102  -0.126
    1UNL     C7    8   0.214  -0.027   0.009
    1UNL     C8    9   0.082  -0.033   0.093
    1UNL     C9   10   0.079  -0.161   0.163
    1UNL     O1   11   0.134  -0.262   0.123
    1UNL     O2   12   0.016  -0.152   0.283
    1UNL    C10   13   0.014  -0.280   0.339
    1UNL    C11   14  -0.056  -0.021  -0.000
    1UNL    C12   15  -0.129   0.114   0.031
    1UNL    C13   16  -0.188   0.159  -0.106
    1UNL     O3   17  -0.184   0.297  -0.107
    1UNL    C14   18  -0.260   0.366  -0.009
    1UNL     O4   19  -0.114   0.097  -0.215
    1UNL    C15   20  -0.035  -0.016  -0.164
    1UNL     N2   21  -0.101  -0.135  -0.208
    1UNL    C16   22  -0.174  -0.200  -0.110
    1UNL    C17   23  -0.266  -0.305  -0.124
    1UNL    C18   24  -0.332  -0.346  -0.010
    1UNL    C19   25  -0.302  -0.286   0.114
    1UNL    C20   26  -0.217  -0.180   0.127
    1UNL    C21   27  -0.152  -0.139   0.012
    1UNL     H1   28   0.472   0.334  -0.060
    1UNL     H2   29   0.498   0.329   0.107
    1UNL     H3   30   0.338   0.390   0.054
    1UNL     H4   31   0.396   0.109   0.132
    1UNL     H5   32   0.261   0.270  -0.163
    1UNL     H6   33   0.106   0.257  -0.084
    1UNL     H7   34   0.078   0.164  -0.316
    1UNL     H8   35   0.107  -0.081  -0.322
    1UNL     H9   36   0.305  -0.115  -0.159
    1UNL    H10   37   0.167  -0.207  -0.106
    1UNL    H11   38   0.295  -0.071   0.070
    1UNL    H12   39   0.086   0.049   0.163
    1UNL    H13   40  -0.037  -0.353   0.266
    1UNL    H14   41   0.111  -0.306   0.355
    1UNL    H15   42  -0.050  -0.290   0.437
    1UNL    H16   43  -0.051   0.185   0.060
    1UNL    H17   44  -0.215   0.103   0.102
    1UNL    H18   45  -0.289   0.137  -0.106
    1UNL    H19   46  -0.312   0.445  -0.063
    1UNL    H20   47  -0.348   0.307   0.039
    1UNL    H21   48  -0.179   0.419   0.043
    1UNL    H22   49  -0.147  -0.129  -0.301
    1UNL    H23   50  -0.284  -0.349  -0.220
    1UNL    H24   51  -0.392  -0.435  -0.013
    1UNL    H25   52  -0.363  -0.328   0.199
    1UNL    H26   53  -0.220  -0.121   0.216
   0.00000   0.00000   0.00000   0.00000   0.00000   0.00000   0.00000   0.00000   0.00000
Generated with MDTraj, t= 29.0
 53
    1UNL     C1    1   0.406   0.306   0.046
    1UNL     C2    2   0.367   0.163   0.046
    1UNL     C3    3   0.259   0.116  -0.019
    1UNL     C4    4   0.171   0.203  -0.116
    1UNL     N1    5   0.149   0.128  -0.238
    1UNL     C5    6   0.105  -0.011  -0.224
    1UNL     C6    7   0.207  -0.097  -0.136
    1UNL     C7    8   0.210  -0.030   0.001
    1UNL     C8    9   0.073  -0.041   0.077
    1UNL     C9   10   0.080  -0.160   0.171
    1UNL     O1   11   0.129  -0.264   0.140
    1UNL     O2   12   0.017  -0.146   0.289
    1UNL    C10   13   0.033  -0.261   0.365
    1UNL    C11   14  -0.062  -0.021  -0.013
    1UNL    C12   15  -0.139   0.107   0.032
    1UNL    C13   16  -0.184   0.161  -0.110
    1UNL     O3   17  -0.179   0.301  -0.123
    1UNL    C14   18  -0.230   0.364  -0.001
    1UNL     O4   19  -0.100   0.102  -0.220
    1UNL    C15   20  -0.041  -0.012  -0.175
    1UNL     N2   21  -0.120  -0.130  -0.223
    1UNL    C16   22  -0.192  -0.195  -0.114
    1UNL    C17   23  -0.272  -0.309  -0.126
    1UNL    C18   24  -0.314  -0.365  -0.005
    1UNL    C19   25  -0.299  -0.302   0.118
    1UNL    C20   26  -0.219  -0.189   0.127
    1UNL    C21   27  -0.162  -0.138   0.007
    1UNL     H1   28   0.456   0.353  -0.039
    1UNL     H2   29   0.489   0.325   0.123
    1UNL     H3   30   0.314   0.366   0.078
    1UNL     H4   31   0.419   0.095   0.112
    1UNL     H5   32   0.227   0.294  -0.138
    1UNL     H6   33   0.079   0.235  -0.076
    1UNL     H7   34   0.089   0.167  -0.312
    1UNL     H8   35   0.118  -0.052  -0.332
    1UNL     H9   36   0.307  -0.099  -0.175
    1UNL    H10   37   0.178  -0.203  -0.118
    1UNL    H11   38   0.268  -0.089   0.073
    1UNL    H12   39   0.062   0.043   0.143
    1UNL    H13   40  -0.006  -0.351   0.304
    1UNL    H14   41   0.131  -0.271   0.394
    1UNL    H15   42  -0.045  -0.264   0.451
    1UNL    H16   43  -0.074   0.180   0.081
    1UNL    H17   44  -0.226   0.076   0.094
    1UNL    H18   45  -0.279   0.131  -0.134
    1UNL    H19   46  -0.253   0.467  -0.030
    1UNL    H20   47  -0.328   0.314   0.026
    1UNL    H21   48  -0.161   0.354   0.081
    1UNL    H22   49  -0.181  -0.098  -0.301
    1UNL    H23   50  -0.267  -0.370  -0.216
    1UNL    H24   51  -0.376  -0.452  -0.019
    1UNL    H25   52  -0.359  -0.338   0.195
    1UNL    H26   53  -0.191  -0.136   0.218
   0.00000   0.00000   0.00000   0.00000   0.00000   0.00000   0.00000   0.00000   0.00000
Generated with MDTraj, t= 30.0
 53
    1UNL     C1    1   0.406   0.294   0.056
    1UNL     C2    2   0.340   0.163   0.071
    1UNL     C3    3   0.248   0.114  -0.015
    1UNL     C4    4   0.192   0.198  -0.128
    1UNL     N1    5   0.159   0.125  -0.258
    1UNL     C5    6   0.098  -0.010  -0.235
    1UNL     C6    7   0.201  -0.097  -0.146
    1UNL     C7    8   0.205  -0.029  -0.008
    1UNL     C8    9   0.076  -0.038   0.082
    1UNL     C9   10   0.074  -0.156   0.170
    1UNL     O1   11   0.101  -0.267   0.132
    1UNL     O2   12   0.036  -0.127   0.295
    1UNL    C10   13   0.059  -0.241   0.372
    1UNL    C11   14  -0.061  -0.027  -0.007
    1UNL    C12   15  -0.145   0.097   0.031
    1UNL    C13   16  -0.182   0.174  -0.099
    1UNL     O3   17  -0.159   0.313  -0.101
    1UNL    C14   18  -0.250   0.382  -0.016
    1UNL     O4   19  -0.117   0.107  -0.207
    1UNL    C15   20  -0.046  -0.016  -0.163
    1UNL     N2   21  -0.115  -0.135  -0.219
    1UNL    C16   22  -0.180  -0.212  -0.120
    1UNL    C17   23  -0.264  -0.318  -0.132
    1UNL    C18   24  -0.329  -0.364  -0.016
    1UNL    C19   25  -0.300  -0.308   0.108
    1UNL    C20   26  -0.211  -0.201   0.124
    1UNL    C21   27  -0.146  -0.154   0.008
    1UNL     H1   28   0.482   0.312  -0.022
    1UNL     H2   29   0.475   0.297   0.148
    1UNL     H3   30   0.326   0.374   0.066
    1UNL     H4   31   0.375   0.108   0.157
    1UNL     H5   32   0.257   0.281  -0.161
    1UNL     H6   33   0.108   0.250  -0.090
    1UNL     H7   34   0.126   0.166  -0.340
    1UNL     H8   35   0.074  -0.059  -0.338
    1UNL     H9   36   0.305  -0.120  -0.175
    1UNL    H10   37   0.160  -0.198  -0.131
    1UNL    H11   38   0.282  -0.083   0.047
    1UNL    H12   39   0.070   0.049   0.145
    1UNL    H13   40  -0.018  -0.315   0.334
    1UNL    H14   41   0.158  -0.277   0.363
    1UNL    H15   42   0.025  -0.229   0.477
    1UNL    H16   43  -0.081   0.171   0.080
    1UNL    H17   44  -0.237   0.078   0.089
    1UNL    H18   45  -0.280   0.153  -0.127
    1UNL    H19   46  -0.219   0.482  -0.045
    1UNL    H20   47  -0.351   0.366  -0.063
    1UNL    H21   48  -0.256   0.339   0.083
    1UNL    H22   49  -0.170  -0.126  -0.305
    1UNL    H23   50  -0.251  -0.383  -0.216
    1UNL    H24   51  -0.399  -0.448  -0.026
    1UNL    H25   52  -0.365  -0.325   0.199
    1UNL    H26   53  -0.181  -0.158   0.220
   0.00000   0.00000   0.00000   0.00000   0.00000   0.00000   0.00000   0.00000   0.00000
Generated with MDTraj, t= 31.0
 53
    1UNL     C1    1   0.381   0.305   0.057
    1UNL     C2    2   0.350   0.160   0.070
    1UNL     C3    3   0.264   0.104  -0.017
    1UNL     C4    4   0.181   0.191  -0.113
    1UNL     N1    5   0.161   0.115  -0.233
    1UNL     C5    6   0.102  -0.018  -0.225
    1UNL     C6    7   0.194  -0.111  -0.138
    1UNL     C7    8   0.204  -0.044  -0.003
    1UNL     C8    9   0.075  -0.036   0.080
    1UNL     C9   10   0.077  -0.154   0.167
    1UNL     O1   11   0.083  -0.269   0.129
    1UNL     O2   12   0.071  -0.125   0.300
    1UNL    C10   13   0.069  -0.243   0.374
    1UNL    C11   14  -0.061  -0.023  -0.007
    1UNL    C12   15  -0.126   0.110   0.029
    1UNL    C13   16  -0.177   0.178  -0.100
    1UNL     O3   17  -0.159   0.324  -0.098
    1UNL    C14   18  -0.272   0.382  -0.047
    1UNL     O4   19  -0.108   0.115  -0.208
    1UNL    C15   20  -0.045  -0.009  -0.172
    1UNL     N2   21  -0.127  -0.125  -0.224
    1UNL    C16   22  -0.189  -0.207  -0.121
    1UNL    C17   23  -0.278  -0.309  -0.134
    1UNL    C18   24  -0.331  -0.365  -0.016
    1UNL    C19   25  -0.291  -0.319   0.112
    1UNL    C20   26  -0.200  -0.213   0.118
    1UNL    C21   27  -0.154  -0.153   0.003
    1UNL     H1   28   0.449   0.346  -0.024
    1UNL     H2   29   0.449   0.329   0.146
    1UNL     H3   30   0.287   0.362   0.067
    1UNL     H4   31   0.388   0.103   0.154
    1UNL     H5   32   0.235   0.285  -0.135
    1UNL     H6   33   0.086   0.223  -0.076
    1UNL     H7   34   0.120   0.165  -0.311
    1UNL     H8   35   0.099  -0.058  -0.336
    1UNL     H9   36   0.291  -0.136  -0.187
    1UNL    H10   37   0.156  -0.211  -0.127
    1UNL    H11   38   0.273  -0.105   0.054
    1UNL    H12   39   0.080   0.056   0.137
    1UNL    H13   40  -0.027  -0.287   0.346
    1UNL    H14   41   0.154  -0.311   0.347
    1UNL    H15   42   0.074  -0.226   0.479
    1UNL    H16   43  -0.057   0.184   0.071
    1UNL    H17   44  -0.210   0.105   0.100
    1UNL    H18   45  -0.278   0.148  -0.112
    1UNL    H19   46  -0.246   0.485  -0.028
    1UNL    H20   47  -0.337   0.381  -0.138
    1UNL    H21   48  -0.315   0.312   0.022
    1UNL    H22   49  -0.158  -0.116  -0.319
    1UNL    H23   50  -0.304  -0.352  -0.232
    1UNL    H24   51  -0.396  -0.447  -0.035
    1UNL    H25   52  -0.339  -0.363   0.193
    1UNL    H26   53  -0.179  -0.163   0.210
   0.00000   0.00000   0.00000   0.00000   0.00000   0.00000   0.00000   0.00000   0.00000
Generated with MDTraj, t= 32.0
 53
    1UNL     C1    1   0.391   0.303   0.062
    1UNL     C2    2   0.343   0.166   0.073
    1UNL     C3    3   0.251   0.112  -0.008
    1UNL     C4    4   0.196   0.190  -0.136
    1UNL     N1    5   0.165   0.106  -0.250
    1UNL     C5    6   0.101  -0.029  -0.227
    1UNL     C6    7   0.190  -0.107  -0.123
    1UNL     C7    8   0.204  -0.031   0.012
    1UNL     C8    9   0.072  -0.036   0.090
    1UNL     C9   10   0.076  -0.164   0.173
    1UNL     O1   11   0.098  -0.273   0.125
    1UNL     O2   12   0.067  -0.147   0.307
    1UNL    C10   13   0.091  -0.263   0.375
    1UNL    C11   14  -0.062  -0.021  -0.010
    1UNL    C12   15  -0.126   0.112   0.028
    1UNL    C13   16  -0.168   0.174  -0.111
    1UNL     O3   17  -0.173   0.315  -0.103
    1UNL    C14   18  -0.300   0.356  -0.047
    1UNL     O4   19  -0.082   0.121  -0.211
    1UNL    C15   20  -0.043  -0.010  -0.173
    1UNL     N2   21  -0.130  -0.116  -0.226
    1UNL    C16   22  -0.190  -0.192  -0.124
    1UNL    C17   23  -0.283  -0.301  -0.134
    1UNL    C18   24  -0.336  -0.354  -0.014
    1UNL    C19   25  -0.297  -0.303   0.111
    1UNL    C20   26  -0.208  -0.196   0.121
    1UNL    C21   27  -0.166  -0.133   0.001
    1UNL     H1   28   0.437   0.346  -0.034
    1UNL     H2   29   0.484   0.318   0.127
    1UNL     H3   30   0.316   0.372   0.099
    1UNL     H4   31   0.378   0.104   0.153
    1UNL     H5   32   0.278   0.258  -0.169
    1UNL     H6   33   0.116   0.258  -0.111
    1UNL     H7   34   0.114   0.162  -0.327
    1UNL     H8   35   0.095  -0.080  -0.334
    1UNL     H9   36   0.294  -0.115  -0.166
    1UNL    H10   37   0.165  -0.209  -0.109
    1UNL    H11   38   0.279  -0.077   0.075
    1UNL    H12   39   0.063   0.047   0.159
    1UNL    H13   40   0.020  -0.336   0.339
    1UNL    H14   41   0.198  -0.300   0.354
    1UNL    H15   42   0.100  -0.240   0.477
    1UNL    H16   43  -0.068   0.184   0.089
    1UNL    H17   44  -0.216   0.099   0.088
    1UNL    H18   45  -0.264   0.130  -0.127
    1UNL    H19   46  -0.314   0.460  -0.063
    1UNL    H20   47  -0.379   0.297  -0.098
    1UNL    H21   48  -0.292   0.331   0.056
    1UNL    H22   49  -0.193  -0.090  -0.300
    1UNL    H23   50  -0.320  -0.324  -0.229
    1UNL    H24   51  -0.394  -0.446  -0.017
    1UNL    H25   52  -0.332  -0.356   0.202
    1UNL    H26   53  -0.183  -0.151   0.219
   0.00000   0.00000   0.00000   0.00000   0.00000   0.00000   0.00000   0.00000   0.00000
Generated with MDTraj, t= 33.0
 53
    1UNL     C1    1   0.391   0.319   0.053
    1UNL     C2    2   0.347   0.171   0.060
    1UNL     C3    3   0.258   0.114  -0.021
    1UNL     C4    4   0.204   0.189  -0.139
    1UNL     N1    5   0.171   0.105  -0.255
    1UNL     C5    6   0.122  -0.032  -0.217
    1UNL     C6    7   0.211  -0.104  -0.118
    1UNL     C7    8   0.216  -0.029   0.012
    1UNL     C8    9   0.076  -0.032   0.093
    1UNL     C9   10   0.074  -0.168   0.162
    1UNL     O1   11   0.100  -0.269   0.103
    1UNL     O2   12   0.052  -0.157   0.292
    1UNL    C10   13   0.063  -0.280   0.357
    1UNL    C11   14  -0.055  -0.022   0.003
    1UNL    C12   15  -0.131   0.106   0.030
    1UNL    C13   16  -0.188   0.153  -0.109
    1UNL     O3   17  -0.211   0.288  -0.121
    1UNL    C14   18  -0.306   0.340  -0.021
    1UNL     O4   19  -0.083   0.110  -0.203
    1UNL    C15   20  -0.028  -0.015  -0.160
    1UNL     N2   21  -0.104  -0.127  -0.211
    1UNL    C16   22  -0.179  -0.191  -0.112
    1UNL    C17   23  -0.284  -0.275  -0.130
    1UNL    C18   24  -0.344  -0.319  -0.017
    1UNL    C19   25  -0.314  -0.270   0.114
    1UNL    C20   26  -0.214  -0.179   0.130
    1UNL    C21   27  -0.151  -0.139   0.015
    1UNL     H1   28   0.490   0.338  -0.003
    1UNL     H2   29   0.408   0.348   0.160
    1UNL     H3   30   0.310   0.383   0.016
    1UNL     H4   31   0.383   0.107   0.140
    1UNL     H5   32   0.275   0.270  -0.173
    1UNL     H6   33   0.121   0.250  -0.103
    1UNL     H7   34   0.122   0.159  -0.337
    1UNL     H8   35   0.108  -0.100  -0.312
    1UNL     H9   36   0.317  -0.122  -0.153
    1UNL    H10   37   0.173  -0.200  -0.100
    1UNL    H11   38   0.287  -0.074   0.081
    1UNL    H12   39   0.062   0.038   0.176
    1UNL    H13   40   0.021  -0.358   0.297
    1UNL    H14   41   0.177  -0.300   0.362
    1UNL    H15   42   0.042  -0.265   0.456
    1UNL    H16   43  -0.071   0.188   0.075
    1UNL    H17   44  -0.215   0.097   0.098
    1UNL    H18   45  -0.279   0.103  -0.142
    1UNL    H19   46  -0.273   0.443  -0.016
    1UNL    H20   47  -0.414   0.331  -0.054
    1UNL    H21   48  -0.270   0.312   0.076
    1UNL    H22   49  -0.150  -0.095  -0.293
    1UNL    H23   50  -0.315  -0.286  -0.236
    1UNL    H24   51  -0.411  -0.402  -0.027
    1UNL    H25   52  -0.368  -0.291   0.205
    1UNL    H26   53  -0.182  -0.139   0.222
   0.00000   0.00000   0.00000   0.00000   0.00000   0.00000   0.00000   0.00000   0.00000
Generated with MDTraj, t= 34.0
 53
    1UNL     C1    1   0.389   0.318   0.050
    1UNL     C2    2   0.342   0.181   0.070
    1UNL     C3    3   0.246   0.129  -0.010
    1UNL     C4    4   0.179   0.200  -0.124
    1UNL     N1    5   0.155   0.116  -0.240
    1UNL     C5    6   0.132  -0.023  -0.219
    1UNL     C6    7   0.222  -0.096  -0.124
    1UNL     C7    8   0.220  -0.017   0.010
    1UNL     C8    9   0.088  -0.039   0.088
    1UNL     C9   10   0.097  -0.176   0.152
    1UNL     O1   11   0.129  -0.282   0.098
    1UNL     O2   12   0.045  -0.164   0.278
    1UNL    C10   13   0.017  -0.290   0.341
    1UNL    C11   14  -0.041  -0.025  -0.008
    1UNL    C12   15  -0.107   0.109   0.028
    1UNL    C13   16  -0.181   0.143  -0.108
    1UNL     O3   17  -0.196   0.289  -0.114
    1UNL    C14   18  -0.300   0.326  -0.023
    1UNL     O4   19  -0.090   0.091  -0.218
    1UNL    C15   20  -0.019  -0.028  -0.170
    1UNL     N2   21  -0.096  -0.142  -0.209
    1UNL    C16   22  -0.181  -0.188  -0.109
    1UNL    C17   23  -0.294  -0.276  -0.113
    1UNL    C18   24  -0.358  -0.314   0.005
    1UNL    C19   25  -0.323  -0.253   0.128
    1UNL    C20   26  -0.224  -0.151   0.127
    1UNL    C21   27  -0.150  -0.132   0.016
    1UNL     H1   28   0.454   0.321  -0.045
    1UNL     H2   29   0.439   0.350   0.145
    1UNL     H3   30   0.301   0.387   0.037
    1UNL     H4   31   0.394   0.120   0.143
    1UNL     H5   32   0.256   0.278  -0.151
    1UNL     H6   33   0.087   0.258  -0.114
    1UNL     H7   34   0.094   0.157  -0.317
    1UNL     H8   35   0.135  -0.068  -0.329
    1UNL     H9   36   0.325  -0.107  -0.170
    1UNL    H10   37   0.193  -0.193  -0.097
    1UNL    H11   38   0.304  -0.046   0.072
    1UNL    H12   39   0.078   0.034   0.169
    1UNL    H13   40  -0.053  -0.348   0.285
    1UNL    H14   41   0.119  -0.342   0.323
    1UNL    H15   42   0.002  -0.275   0.440
    1UNL    H16   43  -0.047   0.194   0.064
    1UNL    H17   44  -0.181   0.089   0.105
    1UNL    H18   45  -0.275   0.082  -0.121
    1UNL    H19   46  -0.352   0.411  -0.067
    1UNL    H20   47  -0.368   0.234  -0.012
    1UNL    H21   48  -0.253   0.372   0.063
    1UNL    H22   49  -0.136  -0.133  -0.301
    1UNL    H23   50  -0.311  -0.332  -0.202
    1UNL    H24   51  -0.451  -0.373   0.001
    1UNL    H25   52  -0.382  -0.283   0.211
    1UNL    H26   53  -0.192  -0.108   0.222
   0.00000   0.00000   0.00000   0.00000   0.00000   0.00000   0.00000   0.00000   0.00000
Generated with MDTraj, t= 35.0
 53
    1UNL     C1    1   0.372   0.325   0.075
    1UNL     C2    2   0.351   0.181   0.059
    1UNL     C3    3   0.264   0.124  -0.023
    1UNL     C4    4   0.202   0.203  -0.130
    1UNL     N1    5   0.152   0.123  -0.240
    1UNL     C5    6   0.115  -0.022  -0.217
    1UNL     C6    7   0.208  -0.095  -0.121
    1UNL     C7    8   0.218  -0.020   0.010
    1UNL     C8    9   0.080  -0.040   0.088
    1UNL     C9   10   0.088  -0.172   0.154
    1UNL     O1   11   0.149  -0.262   0.101
    1UNL     O2   12   0.022  -0.192   0.272
    1UNL    C10   13   0.028  -0.324   0.313
    1UNL    C11   14  -0.048  -0.022   0.002
    1UNL    C12   15  -0.110   0.123   0.014
    1UNL    C13   16  -0.181   0.149  -0.114
    1UNL     O3   17  -0.197   0.291  -0.130
    1UNL    C14   18  -0.277   0.363  -0.038
    1UNL     O4   19  -0.111   0.082  -0.218
    1UNL    C15   20  -0.036  -0.029  -0.163
    1UNL     N2   21  -0.093  -0.154  -0.198
    1UNL    C16   22  -0.176  -0.200  -0.093
    1UNL    C17   23  -0.271  -0.300  -0.099
    1UNL    C18   24  -0.345  -0.322   0.014
    1UNL    C19   25  -0.324  -0.243   0.126
    1UNL    C20   26  -0.230  -0.139   0.134
    1UNL    C21   27  -0.152  -0.132   0.027
    1UNL     H1   28   0.367   0.390  -0.018
    1UNL     H2   29   0.467   0.348   0.126
    1UNL     H3   30   0.303   0.383   0.148
    1UNL     H4   31   0.392   0.117   0.137
    1UNL     H5   32   0.277   0.269  -0.185
    1UNL     H6   33   0.136   0.277  -0.082
    1UNL     H7   34   0.083   0.172  -0.285
    1UNL     H8   35   0.123  -0.081  -0.319
    1UNL     H9   36   0.314  -0.093  -0.160
    1UNL    H10   37   0.186  -0.195  -0.099
    1UNL    H11   38   0.307  -0.052   0.066
    1UNL    H12   39   0.068   0.036   0.165
    1UNL    H13   40  -0.016  -0.387   0.238
    1UNL    H14   41   0.143  -0.350   0.305
    1UNL    H15   42  -0.017  -0.322   0.405
    1UNL    H16   43  -0.035   0.200   0.029
    1UNL    H17   44  -0.190   0.130   0.089
    1UNL    H18   45  -0.281   0.092  -0.110
    1UNL    H19   46  -0.261   0.467  -0.067
    1UNL    H20   47  -0.384   0.321  -0.044
    1UNL    H21   48  -0.237   0.354   0.062
    1UNL    H22   49  -0.126  -0.138  -0.293
    1UNL    H23   50  -0.265  -0.360  -0.188
    1UNL    H24   51  -0.427  -0.389   0.006
    1UNL    H25   52  -0.391  -0.248   0.217
    1UNL    H26   53  -0.211  -0.085   0.225
   0.00000   0.00000   0.00000   0.00000   0.00000   0.00000   0.00000   0.00000   0.00000
Generated with MDTraj, t= 36.0
 53
    1UNL     C1    1   0.378   0.319   0.094
    1UNL     C2    2   0.318   0.182   0.095
    1UNL     C3    3   0.234   0.136   0.002
    1UNL     C4    4   0.196   0.214  -0.126
    1UNL     N1    5   0.135   0.136  -0.238
    1UNL     C5    6   0.105  -0.007  -0.223
    1UNL     C6    7   0.208  -0.078  -0.142
    1UNL     C7    8   0.215  -0.017   0.003
    1UNL     C8    9   0.083  -0.045   0.073
    1UNL     C9   10   0.080  -0.190   0.131
    1UNL     O1   11   0.149  -0.278   0.083
    1UNL     O2   12   0.013  -0.201   0.250
    1UNL    C10   13   0.030  -0.327   0.312
    1UNL    C11   14  -0.050  -0.017  -0.008
    1UNL    C12   15  -0.109   0.127   0.023
    1UNL    C13   16  -0.173   0.163  -0.119
    1UNL     O3   17  -0.158   0.307  -0.151
    1UNL    C14   18  -0.250   0.388  -0.080
    1UNL     O4   19  -0.119   0.079  -0.222
    1UNL    C15   20  -0.038  -0.031  -0.167
    1UNL     N2   21  -0.096  -0.163  -0.191
    1UNL    C16   22  -0.174  -0.207  -0.081
    1UNL    C17   23  -0.259  -0.322  -0.071
    1UNL    C18   24  -0.335  -0.336   0.046
    1UNL    C19   25  -0.323  -0.255   0.156
    1UNL    C20   26  -0.226  -0.152   0.145
    1UNL    C21   27  -0.151  -0.125   0.030
    1UNL     H1   28   0.446   0.332   0.007
    1UNL     H2   29   0.427   0.339   0.192
    1UNL     H3   30   0.308   0.411   0.079
    1UNL     H4   31   0.358   0.108   0.164
    1UNL     H5   32   0.289   0.272  -0.154
    1UNL     H6   33   0.117   0.291  -0.115
    1UNL     H7   34   0.052   0.183  -0.277
    1UNL     H8   35   0.109  -0.056  -0.331
    1UNL     H9   36   0.312  -0.077  -0.182
    1UNL    H10   37   0.180  -0.179  -0.125
    1UNL    H11   38   0.295  -0.071   0.059
    1UNL    H12   39   0.080   0.024   0.158
    1UNL    H13   40   0.039  -0.397   0.229
    1UNL    H14   41   0.142  -0.328   0.354
    1UNL    H15   42  -0.050  -0.346   0.377
    1UNL    H16   43  -0.028   0.197   0.036
    1UNL    H17   44  -0.174   0.115   0.110
    1UNL    H18   45  -0.283   0.130  -0.113
    1UNL    H19   46  -0.224   0.492  -0.100
    1UNL    H20   47  -0.359   0.357  -0.085
    1UNL    H21   48  -0.226   0.374   0.025
    1UNL    H22   49  -0.154  -0.159  -0.276
    1UNL    H23   50  -0.267  -0.385  -0.159
    1UNL    H24   51  -0.402  -0.422   0.051
    1UNL    H25   52  -0.373  -0.267   0.246
    1UNL    H26   53  -0.214  -0.084   0.228
   0.00000   0.00000   0.00000   0.00000   0.00000   0.00000   0.00000   0.00000   0.00000
Generated with MDTraj, t= 37.0
 53
    1UNL     C1    1   0.345   0.331   0.110
    1UNL     C2    2   0.314   0.187   0.095
    1UNL     C3    3   0.253   0.126  -0.007
    1UNL     C4    4   0.202   0.220  -0.116
    1UNL     N1    5   0.120   0.153  -0.219
    1UNL     C5    6   0.084   0.006  -0.216
    1UNL     C6    7   0.201  -0.069  -0.153
    1UNL     C7    8   0.205  -0.015  -0.004
    1UNL     C8    9   0.074  -0.045   0.076
    1UNL     C9   10   0.083  -0.185   0.135
    1UNL     O1   11   0.114  -0.274   0.060
    1UNL     O2   12   0.046  -0.204   0.266
    1UNL    C10   13   0.039  -0.337   0.283
    1UNL    C11   14  -0.058  -0.014   0.005
    1UNL    C12   15  -0.107   0.132   0.026
    1UNL    C13   16  -0.170   0.167  -0.118
    1UNL     O3   17  -0.126   0.290  -0.173
    1UNL    C14   18  -0.192   0.401  -0.122
    1UNL     O4   19  -0.148   0.064  -0.207
    1UNL    C15   20  -0.051  -0.030  -0.152
    1UNL     N2   21  -0.098  -0.168  -0.184
    1UNL    C16   22  -0.172  -0.218  -0.072
    1UNL    C17   23  -0.249  -0.333  -0.067
    1UNL    C18   24  -0.326  -0.351   0.048
    1UNL    C19   25  -0.315  -0.259   0.156
    1UNL    C20   26  -0.228  -0.153   0.151
    1UNL    C21   27  -0.158  -0.127   0.037
    1UNL     H1   28   0.450   0.334   0.147
    1UNL     H2   29   0.272   0.374   0.185
    1UNL     H3   30   0.361   0.389   0.011
    1UNL     H4   31   0.351   0.127   0.178
    1UNL     H5   32   0.284   0.261  -0.184
    1UNL     H6   33   0.163   0.314  -0.071
    1UNL     H7   34   0.025   0.196  -0.215
    1UNL     H8   35   0.080  -0.029  -0.329
    1UNL     H9   36   0.299  -0.056  -0.198
    1UNL    H10   37   0.183  -0.175  -0.140
    1UNL    H11   38   0.277  -0.082   0.049
    1UNL    H12   39   0.073   0.018   0.166
    1UNL    H13   40  -0.037  -0.375   0.213
    1UNL    H14   41   0.145  -0.383   0.256
    1UNL    H15   42   0.004  -0.352   0.385
    1UNL    H16   43  -0.023   0.201   0.037
    1UNL    H17   44  -0.187   0.140   0.100
    1UNL    H18   45  -0.286   0.184  -0.121
    1UNL    H19   46  -0.121   0.477  -0.153
    1UNL    H20   47  -0.296   0.426  -0.153
    1UNL    H21   48  -0.197   0.402  -0.015
    1UNL    H22   49  -0.112  -0.190  -0.286
    1UNL    H23   50  -0.264  -0.385  -0.157
    1UNL    H24   51  -0.389  -0.436   0.056
    1UNL    H25   52  -0.364  -0.298   0.249
    1UNL    H26   53  -0.240  -0.079   0.229
   0.00000   0.00000   0.00000   0.00000   0.00000   0.00000   0.00000   0.00000   0.00000
Generated with MDTraj, t= 38.0
 53
    1UNL     C1    1   0.331   0.328   0.110
    1UNL     C2    2   0.281   0.192   0.111
    1UNL     C3    3   0.234   0.138   0.000
    1UNL     C4    4   0.204   0.211  -0.129
    1UNL     N1    5   0.122   0.147  -0.229
    1UNL     C5    6   0.094   0.000  -0.221
    1UNL     C6    7   0.201  -0.076  -0.141
    1UNL     C7    8   0.201  -0.010   0.006
    1UNL     C8    9   0.071  -0.045   0.078
    1UNL     C9   10   0.081  -0.187   0.128
    1UNL     O1   11   0.094  -0.276   0.046
    1UNL     O2   12   0.065  -0.204   0.262
    1UNL    C10   13   0.075  -0.343   0.283
    1UNL    C11   14  -0.061  -0.015  -0.002
    1UNL    C12   15  -0.123   0.127   0.017
    1UNL    C13   16  -0.167   0.166  -0.128
    1UNL     O3   17  -0.107   0.294  -0.167
    1UNL    C14   18  -0.164   0.394  -0.093
    1UNL     O4   19  -0.151   0.061  -0.215
    1UNL    C15   20  -0.046  -0.029  -0.159
    1UNL     N2   21  -0.094  -0.166  -0.189
    1UNL    C16   22  -0.180  -0.211  -0.081
    1UNL    C17   23  -0.250  -0.331  -0.053
    1UNL    C18   24  -0.318  -0.350   0.065
    1UNL    C19   25  -0.309  -0.254   0.167
    1UNL    C20   26  -0.241  -0.138   0.144
    1UNL    C21   27  -0.169  -0.117   0.022
    1UNL     H1   28   0.293   0.378   0.201
    1UNL     H2   29   0.293   0.393   0.023
    1UNL     H3   30   0.442   0.322   0.123
    1UNL     H4   31   0.296   0.125   0.194
    1UNL     H5   32   0.298   0.262  -0.163
    1UNL     H6   33   0.140   0.297  -0.102
    1UNL     H7   34   0.034   0.190  -0.248
    1UNL     H8   35   0.099  -0.045  -0.329
    1UNL     H9   36   0.301  -0.068  -0.176
    1UNL    H10   37   0.173  -0.183  -0.130
    1UNL    H11   38   0.281  -0.066   0.059
    1UNL    H12   39   0.070   0.028   0.160
    1UNL    H13   40  -0.031  -0.377   0.281
    1UNL    H14   41   0.136  -0.386   0.199
    1UNL    H15   42   0.117  -0.380   0.382
    1UNL    H16   43  -0.043   0.198   0.038
    1UNL    H17   44  -0.205   0.139   0.088
    1UNL    H18   45  -0.285   0.184  -0.134
    1UNL    H19   46  -0.124   0.489  -0.125
    1UNL    H20   47  -0.274   0.400  -0.110
    1UNL    H21   48  -0.154   0.386   0.012
    1UNL    H22   49  -0.128  -0.189  -0.285
    1UNL    H23   50  -0.264  -0.407  -0.132
    1UNL    H24   51  -0.369  -0.446   0.083
    1UNL    H25   52  -0.343  -0.280   0.263
    1UNL    H26   53  -0.223  -0.071   0.226
   0.00000   0.00000   0.00000   0.00000   0.00000   0.00000   0.00000   0.00000   0.00000
Generated with MDTraj, t= 39.0
 53
    1UNL     C1    1   0.289   0.346   0.097
    1UNL     C2    2   0.261   0.202   0.101
    1UNL     C3    3   0.233   0.128  -0.004
    1UNL     C4    4   0.218   0.203  -0.143
    1UNL     N1    5   0.138   0.128  -0.238
    1UNL     C5    6   0.105  -0.016  -0.216
    1UNL     C6    7   0.207  -0.083  -0.135
    1UNL     C7    8   0.206  -0.019   0.008
    1UNL     C8    9   0.070  -0.055   0.079
    1UNL     C9   10   0.077  -0.194   0.125
    1UNL     O1   11   0.082  -0.291   0.051
    1UNL     O2   12   0.082  -0.205   0.266
    1UNL    C10   13   0.098  -0.337   0.297
    1UNL    C11   14  -0.057  -0.019   0.000
    1UNL    C12   15  -0.103   0.133   0.018
    1UNL    C13   16  -0.167   0.171  -0.119
    1UNL     O3   17  -0.132   0.308  -0.166
    1UNL    C14   18  -0.159   0.406  -0.073
    1UNL     O4   19  -0.135   0.067  -0.215
    1UNL    C15   20  -0.044  -0.032  -0.156
    1UNL     N2   21  -0.106  -0.161  -0.183
    1UNL    C16   22  -0.189  -0.205  -0.077
    1UNL    C17   23  -0.274  -0.310  -0.074
    1UNL    C18   24  -0.323  -0.343   0.049
    1UNL    C19   25  -0.313  -0.256   0.151
    1UNL    C20   26  -0.233  -0.144   0.151
    1UNL    C21   27  -0.166  -0.122   0.030
    1UNL     H1   28   0.224   0.399   0.021
    1UNL     H2   29   0.397   0.376   0.074
    1UNL     H3   30   0.267   0.396   0.193
    1UNL     H4   31   0.269   0.150   0.195
    1UNL     H5   32   0.319   0.201  -0.189
    1UNL     H6   33   0.193   0.309  -0.130
    1UNL     H7   34   0.048   0.183  -0.240
    1UNL     H8   35   0.105  -0.075  -0.318
    1UNL     H9   36   0.298  -0.067  -0.182
    1UNL    H10   37   0.179  -0.192  -0.118
    1UNL    H11   38   0.293  -0.065   0.061
    1UNL    H12   39   0.071   0.010   0.168
    1UNL    H13   40   0.039  -0.398   0.227
    1UNL    H14   41   0.206  -0.355   0.309
    1UNL    H15   42   0.045  -0.363   0.399
    1UNL    H16   43  -0.019   0.199   0.035
    1UNL    H17   44  -0.164   0.144   0.108
    1UNL    H18   45  -0.281   0.147  -0.099
    1UNL    H19   46  -0.163   0.510  -0.106
    1UNL    H20   47  -0.264   0.383  -0.047
    1UNL    H21   48  -0.104   0.400   0.018
    1UNL    H22   49  -0.142  -0.174  -0.278
    1UNL    H23   50  -0.291  -0.363  -0.164
    1UNL    H24   51  -0.384  -0.429   0.053
    1UNL    H25   52  -0.362  -0.279   0.245
    1UNL    H26   53  -0.184  -0.095   0.235
   0.00000   0.00000   0.00000   0.00000   0.00000   0.00000   0.00000   0.00000   0.00000
Generated with MDTraj, t= 40.0
 53
    1UNL     C1    1   0.251   0.359   0.090
    1UNL     C2    2   0.246   0.206   0.096
    1UNL     C3    3   0.231   0.132  -0.014
    1UNL     C4    4   0.240   0.182  -0.154
    1UNL     N1    5   0.132   0.133  -0.243
    1UNL     C5    6   0.096  -0.015  -0.222
    1UNL     C6    7   0.206  -0.088  -0.147
    1UNL     C7    8   0.220  -0.017  -0.004
    1UNL     C8    9   0.082  -0.054   0.076
    1UNL     C9   10   0.095  -0.194   0.136
    1UNL     O1   11   0.117  -0.289   0.064
    1UNL     O2   12   0.086  -0.203   0.270
    1UNL    C10   13   0.093  -0.333   0.307
    1UNL    C11   14  -0.049  -0.026  -0.003
    1UNL    C12   15  -0.118   0.112   0.028
    1UNL    C13   16  -0.159   0.171  -0.107
    1UNL     O3   17  -0.106   0.297  -0.132
    1UNL    C14   18  -0.162   0.412  -0.070
    1UNL     O4   19  -0.139   0.076  -0.210
    1UNL    C15   20  -0.046  -0.032  -0.163
    1UNL     N2   21  -0.104  -0.162  -0.191
    1UNL    C16   22  -0.175  -0.221  -0.080
    1UNL    C17   23  -0.283  -0.300  -0.075
    1UNL    C18   24  -0.365  -0.315   0.036
    1UNL    C19   25  -0.331  -0.245   0.148
    1UNL    C20   26  -0.227  -0.156   0.147
    1UNL    C21   27  -0.155  -0.143   0.032
    1UNL     H1   28   0.185   0.403   0.004
    1UNL     H2   29   0.357   0.401   0.090
    1UNL     H3   30   0.220   0.408   0.182
    1UNL     H4   31   0.246   0.160   0.193
    1UNL     H5   32   0.342   0.169  -0.194
    1UNL     H6   33   0.227   0.289  -0.143
    1UNL     H7   34   0.044   0.200  -0.231
    1UNL     H8   35   0.082  -0.067  -0.326
    1UNL     H9   36   0.292  -0.078  -0.207
    1UNL    H10   37   0.178  -0.194  -0.124
    1UNL    H11   38   0.305  -0.059   0.053
    1UNL    H12   39   0.082   0.018   0.159
    1UNL    H13   40   0.016  -0.392   0.256
    1UNL    H14   41   0.193  -0.367   0.294
    1UNL    H15   42   0.070  -0.351   0.424
    1UNL    H16   43  -0.059   0.182   0.087
    1UNL    H17   44  -0.208   0.101   0.088
    1UNL    H18   45  -0.276   0.181  -0.113
    1UNL    H19   46  -0.224   0.465  -0.144
    1UNL    H20   47  -0.239   0.389   0.007
    1UNL    H21   48  -0.090   0.480  -0.029
    1UNL    H22   49  -0.148  -0.162  -0.282
    1UNL    H23   50  -0.312  -0.356  -0.165
    1UNL    H24   51  -0.463  -0.365   0.021
    1UNL    H25   52  -0.394  -0.260   0.233
    1UNL    H26   53  -0.193  -0.118   0.240
   0.00000   0.00000   0.00000   0.00000   0.00000   0.00000   0.00000   0.00000   0.00000
Generated with MDTraj, t= 41.0
 53
    1UNL     C1    1   0.235   0.375   0.086
    1UNL     C2    2   0.230   0.221   0.082
    1UNL     C3    3   0.217   0.138  -0.024
    1UNL     C4    4   0.231   0.180  -0.169
    1UNL     N1    5   0.136   0.124  -0.254
    1UNL     C5    6   0.100  -0.020  -0.224
    1UNL     C6    7   0.201  -0.085  -0.147
    1UNL     C7    8   0.204  -0.014  -0.007
    1UNL     C8    9   0.086  -0.057   0.078
    1UNL     C9   10   0.099  -0.192   0.136
    1UNL     O1   11   0.148  -0.285   0.076
    1UNL     O2   12   0.058  -0.207   0.268
    1UNL    C10   13   0.085  -0.339   0.318
    1UNL    C11   14  -0.046  -0.033   0.001
    1UNL    C12   15  -0.090   0.119   0.037
    1UNL    C13   16  -0.151   0.171  -0.100
    1UNL     O3   17  -0.094   0.296  -0.128
    1UNL    C14   18  -0.141   0.409  -0.050
    1UNL     O4   19  -0.131   0.072  -0.203
    1UNL    C15   20  -0.039  -0.036  -0.154
    1UNL     N2   21  -0.108  -0.161  -0.190
    1UNL    C16   22  -0.189  -0.204  -0.082
    1UNL    C17   23  -0.290  -0.299  -0.088
    1UNL    C18   24  -0.364  -0.322   0.023
    1UNL    C19   25  -0.335  -0.262   0.143
    1UNL    C20   26  -0.236  -0.162   0.148
    1UNL    C21   27  -0.158  -0.131   0.036
    1UNL     H1   28   0.139   0.417   0.132
    1UNL     H2   29   0.258   0.419  -0.017
    1UNL     H3   30   0.329   0.403   0.135
    1UNL     H4   31   0.214   0.186   0.183
    1UNL     H5   32   0.331   0.152  -0.203
    1UNL     H6   33   0.240   0.288  -0.184
    1UNL     H7   34   0.049   0.165  -0.242
    1UNL     H8   35   0.082  -0.074  -0.326
    1UNL     H9   36   0.295  -0.062  -0.192
    1UNL    H10   37   0.175  -0.194  -0.139
    1UNL    H11   38   0.292  -0.059   0.043
    1UNL    H12   39   0.089   0.007   0.169
    1UNL    H13   40  -0.008  -0.396   0.320
    1UNL    H14   41   0.154  -0.393   0.262
    1UNL    H15   42   0.139  -0.336   0.424
    1UNL    H16   43  -0.013   0.192   0.061
    1UNL    H17   44  -0.158   0.126   0.121
    1UNL    H18   45  -0.264   0.193  -0.104
    1UNL    H19   46  -0.251   0.404  -0.038
    1UNL    H20   47  -0.101   0.418   0.053
    1UNL    H21   48  -0.117   0.499  -0.105
    1UNL    H22   49  -0.141  -0.177  -0.283
    1UNL    H23   50  -0.320  -0.349  -0.178
    1UNL    H24   51  -0.444  -0.391   0.020
    1UNL    H25   52  -0.399  -0.283   0.228
    1UNL    H26   53  -0.234  -0.102   0.240
   0.00000   0.00000   0.00000   0.00000   0.00000   0.00000   0.00000   0.00000   0.00000
Generated with MDTraj, t= 42.0
 53
    1UNL     C1    1   0.241   0.370   0.079
    1UNL     C2    2   0.245   0.222   0.086
    1UNL     C3    3   0.228   0.137  -0.015
    1UNL     C4    4   0.237   0.183  -0.154
    1UNL     N1    5   0.129   0.136  -0.241
    1UNL     C5    6   0.088  -0.015  -0.227
    1UNL     C6    7   0.201  -0.086  -0.144
    1UNL     C7    8   0.204  -0.011   0.003
    1UNL     C8    9   0.071  -0.043   0.077
    1UNL     C9   10   0.091  -0.182   0.138
    1UNL     O1   11   0.133  -0.271   0.067
    1UNL     O2   12   0.044  -0.206   0.263
    1UNL    C10   13   0.056  -0.341   0.288
    1UNL    C11   14  -0.050  -0.028  -0.004
    1UNL    C12   15  -0.115   0.109   0.022
    1UNL    C13   16  -0.159   0.167  -0.115
    1UNL     O3   17  -0.085   0.288  -0.132
    1UNL    C14   18  -0.114   0.389  -0.038
    1UNL     O4   19  -0.141   0.066  -0.212
    1UNL    C15   20  -0.049  -0.034  -0.164
    1UNL     N2   21  -0.108  -0.166  -0.190
    1UNL    C16   22  -0.185  -0.203  -0.082
    1UNL    C17   23  -0.277  -0.307  -0.075
    1UNL    C18   24  -0.338  -0.328   0.043
    1UNL    C19   25  -0.312  -0.257   0.155
    1UNL    C20   26  -0.218  -0.159   0.154
    1UNL    C21   27  -0.154  -0.130   0.033
    1UNL     H1   28   0.299   0.418   0.163
    1UNL     H2   29   0.144   0.427   0.077
    1UNL     H3   30   0.284   0.399  -0.021
    1UNL     H4   31   0.228   0.185   0.186
    1UNL     H5   32   0.331   0.149  -0.196
    1UNL     H6   33   0.258   0.290  -0.152
    1UNL     H7   34   0.036   0.189  -0.223
    1UNL     H8   35   0.088  -0.066  -0.329
    1UNL     H9   36   0.298  -0.085  -0.193
    1UNL    H10   37   0.168  -0.184  -0.125
    1UNL    H11   38   0.282  -0.057   0.067
    1UNL    H12   39   0.059   0.027   0.162
    1UNL    H13   40   0.009  -0.393   0.205
    1UNL    H14   41   0.155  -0.373   0.290
    1UNL    H15   42   0.026  -0.363   0.401
    1UNL    H16   43  -0.038   0.175   0.064
    1UNL    H17   44  -0.189   0.122   0.101
    1UNL    H18   45  -0.268   0.198  -0.119
    1UNL    H19   46  -0.224   0.392  -0.026
    1UNL    H20   47  -0.069   0.373   0.060
    1UNL    H21   48  -0.082   0.480  -0.090
    1UNL    H22   49  -0.122  -0.180  -0.288
    1UNL    H23   50  -0.289  -0.360  -0.166
    1UNL    H24   51  -0.395  -0.420   0.055
    1UNL    H25   52  -0.357  -0.282   0.251
    1UNL    H26   53  -0.213  -0.087   0.233
   0.00000   0.00000   0.00000   0.00000   0.00000   0.00000   0.00000   0.00000   0.00000
Generated with MDTraj, t= 43.0
 53
    1UNL     C1    1   0.289   0.355   0.087
    1UNL     C2    2   0.252   0.210   0.095
    1UNL     C3    3   0.215   0.137  -0.010
    1UNL     C4    4   0.214   0.190  -0.154
    1UNL     N1    5   0.120   0.125  -0.245
    1UNL     C5    6   0.091  -0.015  -0.218
    1UNL     C6    7   0.200  -0.084  -0.137
    1UNL     C7    8   0.206  -0.015   0.003
    1UNL     C8    9   0.079  -0.044   0.079
    1UNL     C9   10   0.084  -0.191   0.125
    1UNL     O1   11   0.120  -0.284   0.055
    1UNL     O2   12   0.043  -0.209   0.254
    1UNL    C10   13   0.029  -0.340   0.289
    1UNL    C11   14  -0.058  -0.016   0.005
    1UNL    C12   15  -0.116   0.126   0.027
    1UNL    C13   16  -0.157   0.183  -0.112
    1UNL     O3   17  -0.085   0.306  -0.141
    1UNL    C14   18  -0.138   0.417  -0.080
    1UNL     O4   19  -0.143   0.085  -0.205
    1UNL    C15   20  -0.050  -0.028  -0.155
    1UNL     N2   21  -0.107  -0.157  -0.186
    1UNL    C16   22  -0.170  -0.207  -0.072
    1UNL    C17   23  -0.241  -0.332  -0.063
    1UNL    C18   24  -0.317  -0.360   0.046
    1UNL    C19   25  -0.304  -0.273   0.155
    1UNL    C20   26  -0.224  -0.161   0.150
    1UNL    C21   27  -0.164  -0.122   0.036
    1UNL     H1   28   0.398   0.372   0.099
    1UNL     H2   29   0.247   0.436   0.151
    1UNL     H3   30   0.257   0.389  -0.019
    1UNL     H4   31   0.256   0.164   0.192
    1UNL     H5   32   0.315   0.177  -0.186
    1UNL     H6   33   0.195   0.298  -0.159
    1UNL     H7   34   0.039   0.183  -0.249
    1UNL     H8   35   0.086  -0.070  -0.316
    1UNL     H9   36   0.295  -0.087  -0.194
    1UNL    H10   37   0.172  -0.181  -0.120
    1UNL    H11   38   0.297  -0.052   0.052
    1UNL    H12   39   0.089   0.028   0.163
    1UNL    H13   40   0.031  -0.394   0.196
    1UNL    H14   41   0.106  -0.374   0.350
    1UNL    H15   42  -0.067  -0.343   0.356
    1UNL    H16   43  -0.039   0.197   0.061
    1UNL    H17   44  -0.179   0.130   0.117
    1UNL    H18   45  -0.266   0.202  -0.108
    1UNL    H19   46  -0.231   0.436  -0.139
    1UNL    H20   47  -0.165   0.392   0.021
    1UNL    H21   48  -0.067   0.496  -0.101
    1UNL    H22   49  -0.154  -0.159  -0.274
    1UNL    H23   50  -0.233  -0.420  -0.135
    1UNL    H24   51  -0.367  -0.453   0.063
    1UNL    H25   52  -0.346  -0.307   0.247
    1UNL    H26   53  -0.212  -0.105   0.243
   0.00000   0.00000   0.00000   0.00000   0.00000   0.00000   0.00000   0.00000   0.00000
Generated with MDTraj, t= 44.0
 53
    1UNL     C1    1   0.319   0.336   0.109
    1UNL     C2    2   0.287   0.197   0.094
    1UNL     C3    3   0.239   0.132  -0.009
    1UNL     C4    4   0.215   0.206  -0.138
    1UNL     N1    5   0.121   0.139  -0.233
    1UNL     C5    6   0.095  -0.003  -0.213
    1UNL     C6    7   0.202  -0.076  -0.143
    1UNL     C7    8   0.198  -0.019   0.005
    1UNL     C8    9   0.065  -0.046   0.077
    1UNL     C9   10   0.075  -0.192   0.125
    1UNL     O1   11   0.119  -0.286   0.059
    1UNL     O2   12   0.027  -0.208   0.255
    1UNL    C10   13   0.046  -0.339   0.290
    1UNL    C11   14  -0.063  -0.017   0.002
    1UNL    C12   15  -0.120   0.129   0.022
    1UNL    C13   16  -0.169   0.180  -0.116
    1UNL     O3   17  -0.094   0.305  -0.155
    1UNL    C14   18  -0.168   0.421  -0.114
    1UNL     O4   19  -0.143   0.077  -0.213
    1UNL    C15   20  -0.056  -0.028  -0.153
    1UNL     N2   21  -0.110  -0.161  -0.186
    1UNL    C16   22  -0.175  -0.213  -0.075
    1UNL    C17   23  -0.249  -0.326  -0.064
    1UNL    C18   24  -0.304  -0.361   0.055
    1UNL    C19   25  -0.293  -0.273   0.160
    1UNL    C20   26  -0.217  -0.159   0.157
    1UNL    C21   27  -0.167  -0.124   0.037
    1UNL     H1   28   0.332   0.383   0.009
    1UNL     H2   29   0.410   0.353   0.171
    1UNL     H3   30   0.226   0.383   0.161
    1UNL     H4   31   0.294   0.142   0.187
    1UNL     H5   32   0.303   0.221  -0.198
    1UNL     H6   33   0.177   0.305  -0.110
    1UNL     H7   34   0.038   0.207  -0.234
    1UNL     H8   35   0.089  -0.048  -0.314
    1UNL     H9   36   0.300  -0.046  -0.188
    1UNL    H10   37   0.198  -0.178  -0.155
    1UNL    H11   38   0.274  -0.077   0.058
    1UNL    H12   39   0.053   0.015   0.170
    1UNL    H13   40  -0.031  -0.396   0.238
    1UNL    H14   41   0.137  -0.375   0.255
    1UNL    H15   42   0.029  -0.339   0.404
    1UNL    H16   43  -0.051   0.197   0.072
    1UNL    H17   44  -0.206   0.129   0.089
    1UNL    H18   45  -0.275   0.191  -0.134
    1UNL    H19   46  -0.266   0.406  -0.164
    1UNL    H20   47  -0.183   0.416  -0.008
    1UNL    H21   48  -0.124   0.509  -0.159
    1UNL    H22   49  -0.135  -0.157  -0.283
    1UNL    H23   50  -0.258  -0.382  -0.148
    1UNL    H24   51  -0.374  -0.442   0.070
    1UNL    H25   52  -0.358  -0.283   0.248
    1UNL    H26   53  -0.180  -0.115   0.248
   0.00000   0.00000   0.00000   0.00000   0.00000   0.00000   0.00000   0.00000   0.00000
Generated with MDTraj, t= 45.0
 53
    1UNL     C1    1   0.350   0.308   0.130
    1UNL     C2    2   0.301   0.178   0.109
    1UNL     C3    3   0.242   0.139  -0.002
    1UNL     C4    4   0.212   0.216  -0.133
    1UNL     N1    5   0.112   0.153  -0.228
    1UNL     C5    6   0.098  -0.002  -0.222
    1UNL     C6    7   0.205  -0.072  -0.145
    1UNL     C7    8   0.210  -0.012   0.002
    1UNL     C8    9   0.080  -0.044   0.079
    1UNL     C9   10   0.088  -0.187   0.143
    1UNL     O1   11   0.105  -0.281   0.069
    1UNL     O2   12   0.067  -0.200   0.272
    1UNL    C10   13   0.067  -0.338   0.303
    1UNL    C11   14  -0.055  -0.021  -0.004
    1UNL    C12   15  -0.109   0.128   0.010
    1UNL    C13   16  -0.171   0.164  -0.127
    1UNL     O3   17  -0.135   0.293  -0.175
    1UNL    C14   18  -0.211   0.394  -0.099
    1UNL     O4   19  -0.148   0.062  -0.213
    1UNL    C15   20  -0.044  -0.036  -0.165
    1UNL     N2   21  -0.098  -0.166  -0.190
    1UNL    C16   22  -0.174  -0.206  -0.084
    1UNL    C17   23  -0.263  -0.314  -0.069
    1UNL    C18   24  -0.333  -0.335   0.046
    1UNL    C19   25  -0.315  -0.258   0.155
    1UNL    C20   26  -0.233  -0.143   0.141
    1UNL    C21   27  -0.168  -0.116   0.022
    1UNL     H1   28   0.261   0.378   0.110
    1UNL     H2   29   0.443   0.327   0.068
    1UNL     H3   30   0.379   0.318   0.238
    1UNL     H4   31   0.323   0.107   0.187
    1UNL     H5   32   0.311   0.225  -0.174
    1UNL     H6   33   0.191   0.322  -0.116
    1UNL     H7   34   0.020   0.192  -0.220
    1UNL     H8   35   0.098  -0.041  -0.325
    1UNL     H9   36   0.301  -0.046  -0.195
    1UNL    H10   37   0.198  -0.177  -0.147
    1UNL    H11   38   0.289  -0.061   0.058
    1UNL    H12   39   0.073   0.033   0.159
    1UNL    H13   40  -0.021  -0.391   0.256
    1UNL    H14   41   0.146  -0.383   0.247
    1UNL    H15   42   0.061  -0.354   0.412
    1UNL    H16   43  -0.036   0.203   0.041
    1UNL    H17   44  -0.184   0.127   0.091
    1UNL    H18   45  -0.276   0.169  -0.122
    1UNL    H19   46  -0.317   0.400  -0.137
    1UNL    H20   47  -0.211   0.367   0.004
    1UNL    H21   48  -0.163   0.485  -0.130
    1UNL    H22   49  -0.135  -0.169  -0.285
    1UNL    H23   50  -0.284  -0.387  -0.152
    1UNL    H24   51  -0.419  -0.400   0.040
    1UNL    H25   52  -0.373  -0.268   0.242
    1UNL    H26   53  -0.198  -0.085   0.226
   0.00000   0.00000   0.00000   0.00000   0.00000   0.00000   0.00000   0.00000   0.00000
Generated with MDTraj, t= 46.0
 53
    1UNL     C1    1   0.359   0.325   0.114
    1UNL     C2    2   0.333   0.174   0.096
    1UNL     C3    3   0.254   0.123   0.001
    1UNL     C4    4   0.213   0.207  -0.121
    1UNL     N1    5   0.116   0.144  -0.212
    1UNL     C5    6   0.104  -0.008  -0.209
    1UNL     C6    7   0.218  -0.080  -0.146
    1UNL     C7    8   0.215  -0.027  -0.001
    1UNL     C8    9   0.082  -0.046   0.077
    1UNL     C9   10   0.077  -0.182   0.130
    1UNL     O1   11   0.086  -0.285   0.066
    1UNL     O2   12   0.077  -0.183   0.271
    1UNL    C10   13   0.093  -0.310   0.315
    1UNL    C11   14  -0.045  -0.022  -0.001
    1UNL    C12   15  -0.104   0.126   0.016
    1UNL    C13   16  -0.181   0.150  -0.119
    1UNL     O3   17  -0.167   0.291  -0.158
    1UNL    C14   18  -0.244   0.372  -0.071
    1UNL     O4   19  -0.130   0.057  -0.213
    1UNL    C15   20  -0.035  -0.036  -0.158
    1UNL     N2   21  -0.087  -0.173  -0.188
    1UNL    C16   22  -0.171  -0.215  -0.083
    1UNL    C17   23  -0.268  -0.312  -0.092
    1UNL    C18   24  -0.353  -0.321   0.022
    1UNL    C19   25  -0.350  -0.220   0.124
    1UNL    C20   26  -0.252  -0.126   0.128
    1UNL    C21   27  -0.158  -0.126   0.024
    1UNL     H1   28   0.283   0.363   0.188
    1UNL     H2   29   0.349   0.384   0.014
    1UNL     H3   30   0.460   0.358   0.148
    1UNL     H4   31   0.373   0.113   0.176
    1UNL     H5   32   0.299   0.239  -0.177
    1UNL     H6   33   0.182   0.303  -0.077
    1UNL     H7   34   0.027   0.195  -0.208
    1UNL     H8   35   0.104  -0.037  -0.314
    1UNL     H9   36   0.310  -0.050  -0.196
    1UNL    H10   37   0.215  -0.187  -0.143
    1UNL    H11   38   0.286  -0.084   0.058
    1UNL    H12   39   0.079   0.018   0.170
    1UNL    H13   40   0.054  -0.391   0.240
    1UNL    H14   41   0.200  -0.330   0.318
    1UNL    H15   42   0.034  -0.314   0.403
    1UNL    H16   43  -0.021   0.196   0.011
    1UNL    H17   44  -0.159   0.140   0.111
    1UNL    H18   45  -0.283   0.137  -0.103
    1UNL    H19   46  -0.348   0.332  -0.054
    1UNL    H20   47  -0.186   0.374   0.020
    1UNL    H21   48  -0.252   0.468  -0.123
    1UNL    H22   49  -0.105  -0.173  -0.290
    1UNL    H23   50  -0.285  -0.377  -0.175
    1UNL    H24   51  -0.418  -0.408   0.033
    1UNL    H25   52  -0.421  -0.225   0.208
    1UNL    H26   53  -0.257  -0.053   0.207
   0.00000   0.00000   0.00000   0.00000   0.00000   0.00000   0.00000   0.00000   0.00000
Generated with MDTraj, t= 47.0
 53
    1UNL     C1    1   0.382   0.310   0.092
    1UNL     C2    2   0.319   0.172   0.105
    1UNL     C3    3   0.246   0.123   0.004
    1UNL     C4    4   0.196   0.205  -0.116
    1UNL     N1    5   0.122   0.139  -0.223
    1UNL     C5    6   0.100  -0.010  -0.220
    1UNL     C6    7   0.215  -0.074  -0.139
    1UNL     C7    8   0.211  -0.019   0.015
    1UNL     C8    9   0.075  -0.045   0.085
    1UNL     C9   10   0.095  -0.184   0.146
    1UNL     O1   11   0.124  -0.284   0.084
    1UNL     O2   12   0.084  -0.182   0.277
    1UNL    C10   13   0.092  -0.312   0.328
    1UNL    C11   14  -0.054  -0.025  -0.004
    1UNL    C12   15  -0.118   0.118   0.017
    1UNL    C13   16  -0.180   0.148  -0.117
    1UNL     O3   17  -0.180   0.290  -0.156
    1UNL    C14   18  -0.239   0.376  -0.067
    1UNL     O4   19  -0.129   0.067  -0.222
    1UNL    C15   20  -0.039  -0.035  -0.163
    1UNL     N2   21  -0.087  -0.171  -0.194
    1UNL    C16   22  -0.166  -0.211  -0.090
    1UNL    C17   23  -0.274  -0.294  -0.099
    1UNL    C18   24  -0.372  -0.306   0.001
    1UNL    C19   25  -0.350  -0.229   0.117
    1UNL    C20   26  -0.247  -0.138   0.126
    1UNL    C21   27  -0.149  -0.130   0.027
    1UNL     H1   28   0.306   0.392   0.110
    1UNL     H2   29   0.418   0.329  -0.017
    1UNL     H3   30   0.476   0.342   0.142
    1UNL     H4   31   0.354   0.114   0.188
    1UNL     H5   32   0.288   0.235  -0.163
    1UNL     H6   33   0.155   0.305  -0.089
    1UNL     H7   34   0.028   0.199  -0.216
    1UNL     H8   35   0.082  -0.039  -0.323
    1UNL     H9   36   0.315  -0.062  -0.173
    1UNL    H10   37   0.196  -0.180  -0.132
    1UNL    H11   38   0.287  -0.061   0.080
    1UNL    H12   39   0.060   0.028   0.169
    1UNL    H13   40  -0.006  -0.376   0.310
    1UNL    H14   41   0.172  -0.358   0.264
    1UNL    H15   42   0.110  -0.315   0.429
    1UNL    H16   43  -0.038   0.187   0.041
    1UNL    H17   44  -0.195   0.113   0.095
    1UNL    H18   45  -0.282   0.123  -0.118
    1UNL    H19   46  -0.353   0.377  -0.067
    1UNL    H20   47  -0.193   0.351   0.027
    1UNL    H21   48  -0.207   0.476  -0.099
    1UNL    H22   49  -0.124  -0.186  -0.291
    1UNL    H23   50  -0.287  -0.354  -0.189
    1UNL    H24   51  -0.437  -0.390   0.013
    1UNL    H25   52  -0.404  -0.254   0.204
    1UNL    H26   53  -0.235  -0.061   0.201
   0.00000   0.00000   0.00000   0.00000   0.00000   0.00000   0.00000   0.00000   0.00000
Generated with MDTraj, t= 48.0
 53
    1UNL     C1    1   0.382   0.327   0.099
    1UNL     C2    2   0.340   0.180   0.080
    1UNL     C3    3   0.246   0.136  -0.005
    1UNL     C4    4   0.199   0.216  -0.120
    1UNL     N1    5   0.117   0.152  -0.213
    1UNL     C5    6   0.101   0.002  -0.215
    1UNL     C6    7   0.216  -0.073  -0.145
    1UNL     C7    8   0.212  -0.018  -0.002
    1UNL     C8    9   0.079  -0.048   0.074
    1UNL     C9   10   0.078  -0.178   0.145
    1UNL     O1   11   0.106  -0.279   0.086
    1UNL     O2   12   0.055  -0.182   0.281
    1UNL    C10   13   0.074  -0.311   0.327
    1UNL    C11   14  -0.056  -0.024   0.004
    1UNL    C12   15  -0.121   0.117   0.020
    1UNL    C13   16  -0.177   0.152  -0.117
    1UNL     O3   17  -0.134   0.291  -0.145
    1UNL    C14   18  -0.218   0.385  -0.084
    1UNL     O4   19  -0.137   0.056  -0.221
    1UNL    C15   20  -0.042  -0.031  -0.159
    1UNL     N2   21  -0.093  -0.172  -0.197
    1UNL    C16   22  -0.180  -0.210  -0.092
    1UNL    C17   23  -0.282  -0.301  -0.098
    1UNL    C18   24  -0.359  -0.330   0.013
    1UNL    C19   25  -0.331  -0.268   0.136
    1UNL    C20   26  -0.238  -0.164   0.138
    1UNL    C21   27  -0.163  -0.133   0.023
    1UNL     H1   28   0.329   0.386   0.019
    1UNL     H2   29   0.494   0.338   0.088
    1UNL     H3   30   0.361   0.374   0.198
    1UNL     H4   31   0.399   0.107   0.134
    1UNL     H5   32   0.284   0.263  -0.170
    1UNL     H6   33   0.150   0.305  -0.075
    1UNL     H7   34   0.030   0.193  -0.218
    1UNL     H8   35   0.093  -0.023  -0.319
    1UNL     H9   36   0.307  -0.048  -0.189
    1UNL    H10   37   0.214  -0.183  -0.133
    1UNL    H11   38   0.286  -0.076   0.053
    1UNL    H12   39   0.075   0.026   0.158
    1UNL    H13   40  -0.004  -0.389   0.279
    1UNL    H14   41   0.178  -0.331   0.289
    1UNL    H15   42   0.070  -0.321   0.429
    1UNL    H16   43  -0.038   0.185   0.037
    1UNL    H17   44  -0.192   0.121   0.103
    1UNL    H18   45  -0.282   0.150  -0.125
    1UNL    H19   46  -0.329   0.372  -0.104
    1UNL    H20   47  -0.196   0.378   0.020
    1UNL    H21   48  -0.197   0.490  -0.108
    1UNL    H22   49  -0.125  -0.162  -0.294
    1UNL    H23   50  -0.313  -0.350  -0.194
    1UNL    H24   51  -0.446  -0.395  -0.000
    1UNL    H25   52  -0.379  -0.297   0.232
    1UNL    H26   53  -0.224  -0.090   0.217
   0.00000   0.00000   0.00000   0.00000   0.00000   0.00000   0.00000   0.00000   0.00000
Generated with MDTraj, t= 49.0
 53
    1UNL     C1    1   0.367   0.306   0.101
    1UNL     C2    2   0.330   0.167   0.088
    1UNL     C3    3   0.246   0.124  -0.009
    1UNL     C4    4   0.177   0.218  -0.110
    1UNL     N1    5   0.116   0.148  -0.226
    1UNL     C5    6   0.090   0.000  -0.226
    1UNL     C6    7   0.188  -0.080  -0.150
    1UNL     C7    8   0.203  -0.017  -0.008
    1UNL     C8    9   0.069  -0.039   0.070
    1UNL     C9   10   0.079  -0.176   0.143
    1UNL     O1   11   0.106  -0.277   0.079
    1UNL     O2   12   0.046  -0.182   0.277
    1UNL    C10   13   0.034  -0.310   0.316
    1UNL    C11   14  -0.065  -0.014  -0.007
    1UNL    C12   15  -0.125   0.129   0.019
    1UNL    C13   16  -0.169   0.175  -0.119
    1UNL     O3   17  -0.112   0.300  -0.146
    1UNL    C14   18  -0.178   0.408  -0.087
    1UNL     O4   19  -0.148   0.072  -0.219
    1UNL    C15   20  -0.054  -0.025  -0.168
    1UNL     N2   21  -0.110  -0.158  -0.194
    1UNL    C16   22  -0.173  -0.208  -0.085
    1UNL    C17   23  -0.232  -0.333  -0.082
    1UNL    C18   24  -0.299  -0.372   0.037
    1UNL    C19   25  -0.302  -0.281   0.145
    1UNL    C20   26  -0.233  -0.155   0.144
    1UNL    C21   27  -0.162  -0.129   0.028
    1UNL     H1   28   0.447   0.325   0.025
    1UNL     H2   29   0.398   0.321   0.207
    1UNL     H3   30   0.283   0.382   0.082
    1UNL     H4   31   0.390   0.102   0.149
    1UNL     H5   32   0.244   0.298  -0.142
    1UNL     H6   33   0.105   0.282  -0.052
    1UNL     H7   34   0.017   0.179  -0.258
    1UNL     H8   35   0.082  -0.037  -0.326
    1UNL     H9   36   0.284  -0.073  -0.191
    1UNL    H10   37   0.164  -0.189  -0.141
    1UNL    H11   38   0.283  -0.076   0.036
    1UNL    H12   39   0.060   0.042   0.147
    1UNL    H13   40   0.026  -0.381   0.224
    1UNL    H14   41   0.131  -0.329   0.370
    1UNL    H15   42  -0.047  -0.340   0.376
    1UNL    H16   43  -0.052   0.194   0.068
    1UNL    H17   44  -0.205   0.110   0.091
    1UNL    H18   45  -0.273   0.199  -0.110
    1UNL    H19   46  -0.277   0.432  -0.134
    1UNL    H20   47  -0.189   0.392   0.017
    1UNL    H21   48  -0.121   0.501  -0.089
    1UNL    H22   49  -0.159  -0.162  -0.284
    1UNL    H23   50  -0.241  -0.392  -0.165
    1UNL    H24   51  -0.371  -0.453   0.030
    1UNL    H25   52  -0.371  -0.299   0.221
    1UNL    H26   53  -0.224  -0.100   0.234
   0.00000   0.00000   0.00000   0.00000   0.00000   0.00000   0.00000   0.00000   0.00000
Generated with MDTraj, t= 50.0
 53
    1UNL     C1    1   0.368   0.312   0.093
    1UNL     C2    2   0.315   0.177   0.084
    1UNL     C3    3   0.234   0.130  -0.010
    1UNL     C4    4   0.172   0.209  -0.114
    1UNL     N1    5   0.108   0.142  -0.234
    1UNL     C5    6   0.081  -0.002  -0.226
    1UNL     C6    7   0.178  -0.078  -0.143
    1UNL     C7    8   0.196  -0.020   0.000
    1UNL     C8    9   0.065  -0.044   0.079
    1UNL     C9   10   0.064  -0.183   0.135
    1UNL     O1   11   0.116  -0.275   0.077
    1UNL     O2   12   0.008  -0.183   0.259
    1UNL    C10   13   0.023  -0.305   0.313
    1UNL    C11   14  -0.069  -0.016  -0.001
    1UNL    C12   15  -0.132   0.126   0.018
    1UNL    C13   16  -0.173   0.186  -0.122
    1UNL     O3   17  -0.098   0.302  -0.149
    1UNL    C14   18  -0.132   0.415  -0.072
    1UNL     O4   19  -0.152   0.086  -0.224
    1UNL    C15   20  -0.059  -0.016  -0.167
    1UNL     N2   21  -0.108  -0.152  -0.199
    1UNL    C16   22  -0.173  -0.214  -0.090
    1UNL    C17   23  -0.216  -0.342  -0.071
    1UNL    C18   24  -0.271  -0.382   0.050
    1UNL    C19   25  -0.283  -0.291   0.155
    1UNL    C20   26  -0.224  -0.163   0.144
    1UNL    C21   27  -0.162  -0.132   0.028
    1UNL     H1   28   0.466   0.310   0.144
    1UNL     H2   29   0.298   0.376   0.150
    1UNL     H3   30   0.397   0.381   0.002
    1UNL     H4   31   0.353   0.099   0.150
    1UNL     H5   32   0.243   0.286  -0.146
    1UNL     H6   33   0.095   0.271  -0.061
    1UNL     H7   34   0.012   0.178  -0.258
    1UNL     H8   35   0.076  -0.050  -0.320
    1UNL     H9   36   0.273  -0.085  -0.187
    1UNL    H10   37   0.151  -0.186  -0.126
    1UNL    H11   38   0.274  -0.084   0.045
    1UNL    H12   39   0.066   0.027   0.165
    1UNL    H13   40  -0.039  -0.375   0.251
    1UNL    H14   41   0.133  -0.331   0.308
    1UNL    H15   42  -0.006  -0.317   0.414
    1UNL    H16   43  -0.066   0.181   0.087
    1UNL    H17   44  -0.223   0.103   0.073
    1UNL    H18   45  -0.276   0.225  -0.115
    1UNL    H19   46  -0.237   0.444  -0.090
    1UNL    H20   47  -0.108   0.407   0.030
    1UNL    H21   48  -0.074   0.501  -0.107
    1UNL    H22   49  -0.143  -0.144  -0.293
    1UNL    H23   50  -0.190  -0.410  -0.159
    1UNL    H24   51  -0.313  -0.480   0.062
    1UNL    H25   52  -0.313  -0.323   0.257
    1UNL    H26   53  -0.193  -0.105   0.233
   0.00000   0.00000   0.00000   0.00000   0.00000   0.00000   0.00000   0.00000   0.00000
Generated with MDTraj, t= 51.0
 53
    1UNL     C1    1   0.365   0.332   0.079
    1UNL     C2    2   0.317   0.192   0.074
    1UNL     C3    3   0.239   0.134  -0.021
    1UNL     C4    4   0.184   0.219  -0.128
    1UNL     N1    5   0.116   0.137  -0.224
    1UNL     C5    6   0.088  -0.004  -0.219
    1UNL     C6    7   0.187  -0.084  -0.140
    1UNL     C7    8   0.198  -0.007   0.000
    1UNL     C8    9   0.066  -0.038   0.079
    1UNL     C9   10   0.071  -0.176   0.141
    1UNL     O1   11   0.107  -0.271   0.077
    1UNL     O2   12   0.037  -0.180   0.276
    1UNL    C10   13   0.047  -0.309   0.319
    1UNL    C11   14  -0.071  -0.017  -0.002
    1UNL    C12   15  -0.148   0.119   0.026
    1UNL    C13   16  -0.168   0.177  -0.112
    1UNL     O3   17  -0.091   0.301  -0.143
    1UNL    C14   18  -0.137   0.406  -0.056
    1UNL     O4   19  -0.143   0.075  -0.214
    1UNL    C15   20  -0.054  -0.024  -0.161
    1UNL     N2   21  -0.111  -0.162  -0.195
    1UNL    C16   22  -0.174  -0.218  -0.090
    1UNL    C17   23  -0.248  -0.342  -0.092
    1UNL    C18   24  -0.319  -0.368   0.022
    1UNL    C19   25  -0.310  -0.287   0.143
    1UNL    C20   26  -0.224  -0.175   0.141
    1UNL    C21   27  -0.160  -0.138   0.024
    1UNL     H1   28   0.336   0.386   0.171
    1UNL     H2   29   0.321   0.388  -0.007
    1UNL     H3   30   0.478   0.353   0.072
    1UNL     H4   31   0.357   0.130   0.152
    1UNL     H5   32   0.257   0.273  -0.189
    1UNL     H6   33   0.118   0.301  -0.088
    1UNL     H7   34   0.026   0.180  -0.236
    1UNL     H8   35   0.090  -0.033  -0.320
    1UNL     H9   36   0.287  -0.089  -0.178
    1UNL    H10   37   0.162  -0.191  -0.120
    1UNL    H11   38   0.283  -0.047   0.058
    1UNL    H12   39   0.058   0.029   0.167
    1UNL    H13   40  -0.028  -0.359   0.264
    1UNL    H14   41   0.151  -0.351   0.305
    1UNL    H15   42   0.028  -0.330   0.425
    1UNL    H16   43  -0.075   0.176   0.084
    1UNL    H17   44  -0.241   0.104   0.079
    1UNL    H18   45  -0.275   0.208  -0.132
    1UNL    H19   46  -0.246   0.408  -0.072
    1UNL    H20   47  -0.110   0.397   0.046
    1UNL    H21   48  -0.100   0.501  -0.096
    1UNL    H22   49  -0.086  -0.225  -0.271
    1UNL    H23   50  -0.265  -0.395  -0.182
    1UNL    H24   51  -0.378  -0.460   0.033
    1UNL    H25   52  -0.335  -0.324   0.238
    1UNL    H26   53  -0.197  -0.126   0.233
   0.00000   0.00000   0.00000   0.00000   0.00000   0.00000   0.00000   0.00000   0.00000
Generated with MDTraj, t= 52.0
 53
    1UNL     C1    1   0.349   0.339   0.073
    1UNL     C2    2   0.311   0.191   0.079
    1UNL     C3    3   0.230   0.136  -0.012
    1UNL     C4    4   0.172   0.213  -0.117
    1UNL     N1    5   0.119   0.135  -0.237
    1UNL     C5    6   0.093  -0.011  -0.224
    1UNL     C6    7   0.201  -0.079  -0.140
    1UNL     C7    8   0.210  -0.014   0.002
    1UNL     C8    9   0.077  -0.055   0.075
    1UNL     C9   10   0.097  -0.179   0.153
    1UNL     O1   11   0.121  -0.280   0.093
    1UNL     O2   12   0.064  -0.179   0.283
    1UNL    C10   13   0.089  -0.304   0.335
    1UNL    C11   14  -0.065  -0.027   0.003
    1UNL    C12   15  -0.128   0.113   0.026
    1UNL    C13   16  -0.156   0.168  -0.111
    1UNL     O3   17  -0.106   0.300  -0.136
    1UNL    C14   18  -0.171   0.389  -0.050
    1UNL     O4   19  -0.131   0.066  -0.216
    1UNL    C15   20  -0.046  -0.032  -0.161
    1UNL     N2   21  -0.106  -0.164  -0.210
    1UNL    C16   22  -0.184  -0.207  -0.098
    1UNL    C17   23  -0.280  -0.314  -0.101
    1UNL    C18   24  -0.358  -0.342   0.011
    1UNL    C19   25  -0.329  -0.270   0.131
    1UNL    C20   26  -0.238  -0.168   0.134
    1UNL    C21   27  -0.169  -0.138   0.021
    1UNL     H1   28   0.273   0.402   0.021
    1UNL     H2   29   0.444   0.342   0.014
    1UNL     H3   30   0.373   0.382   0.174
    1UNL     H4   31   0.355   0.121   0.151
    1UNL     H5   32   0.250   0.284  -0.149
    1UNL     H6   33   0.087   0.275  -0.076
    1UNL     H7   34   0.032   0.195  -0.272
    1UNL     H8   35   0.097  -0.050  -0.322
    1UNL     H9   36   0.298  -0.103  -0.185
    1UNL    H10   37   0.166  -0.179  -0.110
    1UNL    H11   38   0.292  -0.055   0.065
    1UNL    H12   39   0.072   0.023   0.155
    1UNL    H13   40   0.044  -0.365   0.268
    1UNL    H14   41   0.197  -0.331   0.342
    1UNL    H15   42   0.044  -0.328   0.433
    1UNL    H16   43  -0.054   0.175   0.076
    1UNL    H17   44  -0.216   0.098   0.087
    1UNL    H18   45  -0.269   0.186  -0.127
    1UNL    H19   46  -0.267   0.404  -0.103
    1UNL    H20   47  -0.187   0.356   0.051
    1UNL    H21   48  -0.108   0.480  -0.059
    1UNL    H22   49  -0.148  -0.139  -0.299
    1UNL    H23   50  -0.315  -0.338  -0.203
    1UNL    H24   51  -0.428  -0.420   0.008
    1UNL    H25   52  -0.377  -0.307   0.224
    1UNL    H26   53  -0.221  -0.108   0.222
   0.00000   0.00000   0.00000   0.00000   0.00000   0.00000   0.00000   0.00000   0.00000
Generated with MDTraj, t= 53.0
 53
    1UNL     C1    1   0.334   0.329   0.109
    1UNL     C2    2   0.317   0.186   0.080
    1UNL     C3    3   0.243   0.123  -0.015
    1UNL     C4    4   0.172   0.203  -0.125
    1UNL     N1    5   0.133   0.125  -0.247
    1UNL     C5    6   0.100  -0.008  -0.222
    1UNL     C6    7   0.198  -0.080  -0.143
    1UNL     C7    8   0.212  -0.020  -0.005
    1UNL     C8    9   0.080  -0.047   0.074
    1UNL     C9   10   0.092  -0.180   0.142
    1UNL     O1   11   0.122  -0.284   0.083
    1UNL     O2   12   0.069  -0.176   0.282
    1UNL    C10   13   0.110  -0.295   0.333
    1UNL    C11   14  -0.058  -0.028  -0.003
    1UNL    C12   15  -0.123   0.108   0.030
    1UNL    C13   16  -0.170   0.162  -0.106
    1UNL     O3   17  -0.123   0.294  -0.136
    1UNL    C14   18  -0.195   0.395  -0.066
    1UNL     O4   19  -0.134   0.071  -0.216
    1UNL    C15   20  -0.042  -0.028  -0.163
    1UNL     N2   21  -0.098  -0.163  -0.192
    1UNL    C16   22  -0.184  -0.211  -0.094
    1UNL    C17   23  -0.289  -0.298  -0.104
    1UNL    C18   24  -0.364  -0.328   0.010
    1UNL    C19   25  -0.344  -0.254   0.127
    1UNL    C20   26  -0.237  -0.161   0.140
    1UNL    C21   27  -0.150  -0.145   0.031
    1UNL     H1   28   0.397   0.380   0.027
    1UNL     H2   29   0.390   0.337   0.204
    1UNL     H3   30   0.245   0.389   0.136
    1UNL     H4   31   0.341   0.121   0.162
    1UNL     H5   32   0.247   0.279  -0.156
    1UNL     H6   33   0.081   0.251  -0.077
    1UNL     H7   34   0.049   0.169  -0.284
    1UNL     H8   35   0.095  -0.049  -0.319
    1UNL     H9   36   0.301  -0.066  -0.184
    1UNL    H10   37   0.179  -0.187  -0.142
    1UNL    H11   38   0.298  -0.062   0.055
    1UNL    H12   39   0.079   0.028   0.155
    1UNL    H13   40   0.037  -0.354   0.302
    1UNL    H14   41   0.197  -0.336   0.277
    1UNL    H15   42   0.129  -0.303   0.442
    1UNL    H16   43  -0.045   0.169   0.073
    1UNL    H17   44  -0.199   0.091   0.105
    1UNL    H18   45  -0.287   0.163  -0.094
    1UNL    H19   46  -0.297   0.392  -0.109
    1UNL    H20   47  -0.198   0.374   0.040
    1UNL    H21   48  -0.133   0.486  -0.089
    1UNL    H22   49  -0.114  -0.194  -0.285
    1UNL    H23   50  -0.322  -0.332  -0.203
    1UNL    H24   51  -0.449  -0.400   0.008
    1UNL    H25   52  -0.409  -0.265   0.209
    1UNL    H26   53  -0.234  -0.090   0.223
   0.00000   0.00000   0.00000   0.00000   0.00000   0.00000   0.00000   0.00000   0.00000
Generated with MDTraj, t= 54.0
 53
    1UNL     C1    1   0.339   0.333   0.105
    1UNL     C2    2   0.307   0.191   0.097
    1UNL     C3    3   0.234   0.137   0.000
    1UNL     C4    4   0.200   0.209  -0.121
    1UNL     N1    5   0.126   0.134  -0.229
    1UNL     C5    6   0.101  -0.008  -0.229
    1UNL     C6    7   0.202  -0.078  -0.141
    1UNL     C7    8   0.212  -0.014  -0.002
    1UNL     C8    9   0.076  -0.059   0.072
    1UNL     C9   10   0.083  -0.192   0.143
    1UNL     O1   11   0.096  -0.298   0.085
    1UNL     O2   12   0.088  -0.196   0.277
    1UNL    C10   13   0.089  -0.322   0.324
    1UNL    C11   14  -0.053  -0.022  -0.008
    1UNL    C12   15  -0.104   0.122   0.010
    1UNL    C13   16  -0.179   0.166  -0.119
    1UNL     O3   17  -0.138   0.297  -0.154
    1UNL    C14   18  -0.197   0.404  -0.069
    1UNL     O4   19  -0.142   0.072  -0.223
    1UNL    C15   20  -0.047  -0.025  -0.171
    1UNL     N2   21  -0.111  -0.163  -0.197
    1UNL    C16   22  -0.186  -0.212  -0.090
    1UNL    C17   23  -0.273  -0.314  -0.084
    1UNL    C18   24  -0.345  -0.330   0.034
    1UNL    C19   25  -0.320  -0.253   0.145
    1UNL    C20   26  -0.232  -0.146   0.131
    1UNL    C21   27  -0.157  -0.130   0.017
    1UNL     H1   28   0.450   0.341   0.137
    1UNL     H2   29   0.266   0.370   0.180
    1UNL     H3   30   0.319   0.400   0.020
    1UNL     H4   31   0.318   0.125   0.183
    1UNL     H5   32   0.294   0.245  -0.169
    1UNL     H6   33   0.132   0.293  -0.085
    1UNL     H7   34   0.025   0.180  -0.227
    1UNL     H8   35   0.095  -0.038  -0.329
    1UNL     H9   36   0.303  -0.066  -0.194
    1UNL    H10   37   0.180  -0.182  -0.128
    1UNL    H11   38   0.290  -0.065   0.061
    1UNL    H12   39   0.068   0.014   0.154
    1UNL    H13   40   0.029  -0.375   0.263
    1UNL    H14   41   0.185  -0.377   0.305
    1UNL    H15   42   0.066  -0.317   0.433
    1UNL    H16   43  -0.022   0.187   0.037
    1UNL    H17   44  -0.177   0.120   0.091
    1UNL    H18   45  -0.294   0.167  -0.095
    1UNL    H19   46  -0.305   0.411  -0.090
    1UNL    H20   47  -0.189   0.380   0.036
    1UNL    H21   48  -0.139   0.495  -0.095
    1UNL    H22   49  -0.075  -0.220  -0.271
    1UNL    H23   50  -0.279  -0.390  -0.156
    1UNL    H24   51  -0.416  -0.406   0.030
    1UNL    H25   52  -0.363  -0.274   0.244
    1UNL    H26   53  -0.211  -0.082   0.213
   0.00000   0.00000   0.00000   0.00000   0.00000   0.00000   0.00000   0.00000   0.00000
Generated with MDTraj, t= 55.0
 53
    1UNL     C1    1   0.344   0.330   0.115
    1UNL     C2    2   0.289   0.186   0.107
    1UNL     C3    3   0.247   0.123  -0.003
    1UNL     C4    4   0.236   0.200  -0.127
    1UNL     N1    5   0.129   0.145  -0.218
    1UNL     C5    6   0.092  -0.000  -0.223
    1UNL     C6    7   0.199  -0.080  -0.144
    1UNL     C7    8   0.207  -0.018  -0.000
    1UNL     C8    9   0.065  -0.041   0.068
    1UNL     C9   10   0.068  -0.179   0.117
    1UNL     O1   11   0.077  -0.276   0.043
    1UNL     O2   12   0.057  -0.192   0.254
    1UNL    C10   13   0.067  -0.328   0.279
    1UNL    C11   14  -0.070  -0.009  -0.006
    1UNL    C12   15  -0.120   0.130   0.013
    1UNL    C13   16  -0.181   0.171  -0.119
    1UNL     O3   17  -0.127   0.299  -0.163
    1UNL    C14   18  -0.184   0.408  -0.092
    1UNL     O4   19  -0.153   0.061  -0.211
    1UNL    C15   20  -0.052  -0.028  -0.158
    1UNL     N2   21  -0.088  -0.168  -0.179
    1UNL    C16   22  -0.168  -0.211  -0.073
    1UNL    C17   23  -0.233  -0.336  -0.059
    1UNL    C18   24  -0.312  -0.354   0.057
    1UNL    C19   25  -0.306  -0.263   0.163
    1UNL    C20   26  -0.239  -0.146   0.155
    1UNL    C21   27  -0.169  -0.122   0.034
    1UNL     H1   28   0.337   0.364   0.223
    1UNL     H2   29   0.283   0.389   0.044
    1UNL     H3   30   0.448   0.352   0.086
    1UNL     H4   31   0.280   0.134   0.201
    1UNL     H5   32   0.331   0.181  -0.180
    1UNL     H6   33   0.217   0.311  -0.117
    1UNL     H7   34   0.043   0.190  -0.218
    1UNL     H8   35   0.076  -0.020  -0.325
    1UNL     H9   36   0.303  -0.058  -0.189
    1UNL    H10   37   0.171  -0.183  -0.143
    1UNL    H11   38   0.286  -0.073   0.058
    1UNL    H12   39   0.062   0.024   0.157
    1UNL    H13   40  -0.006  -0.374   0.221
    1UNL    H14   41   0.154  -0.364   0.218
    1UNL    H15   42   0.086  -0.366   0.383
    1UNL    H16   43  -0.042   0.199   0.044
    1UNL    H17   44  -0.198   0.125   0.089
    1UNL    H18   45  -0.296   0.188  -0.113
    1UNL    H19   46  -0.290   0.394  -0.075
    1UNL    H20   47  -0.137   0.409   0.007
    1UNL    H21   48  -0.154   0.500  -0.146
    1UNL    H22   49  -0.125  -0.183  -0.271
    1UNL    H23   50  -0.215  -0.425  -0.128
    1UNL    H24   51  -0.380  -0.443   0.066
    1UNL    H25   52  -0.370  -0.288   0.245
    1UNL    H26   53  -0.220  -0.079   0.240
   0.00000   0.00000   0.00000   0.00000   0.00000   0.00000   0.00000   0.00000   0.00000
Generated with MDTraj, t= 56.0
 53
    1UNL     C1    1   0.329   0.334   0.105
    1UNL     C2    2   0.272   0.189   0.108
    1UNL     C3    3   0.229   0.129  -0.006
    1UNL     C4    4   0.213   0.201  -0.135
    1UNL     N1    5   0.124   0.141  -0.241
    1UNL     C5    6   0.090  -0.000  -0.222
    1UNL     C6    7   0.194  -0.076  -0.143
    1UNL     C7    8   0.198  -0.019  -0.002
    1UNL     C8    9   0.069  -0.057   0.078
    1UNL     C9   10   0.083  -0.191   0.133
    1UNL     O1   11   0.130  -0.281   0.068
    1UNL     O2   12   0.035  -0.220   0.257
    1UNL    C10   13   0.038  -0.356   0.273
    1UNL    C11   14  -0.064  -0.006  -0.001
    1UNL    C12   15  -0.109   0.142   0.013
    1UNL    C13   16  -0.165   0.182  -0.121
    1UNL     O3   17  -0.114   0.314  -0.164
    1UNL    C14   18  -0.176   0.416  -0.099
    1UNL     O4   19  -0.144   0.067  -0.212
    1UNL    C15   20  -0.053  -0.024  -0.161
    1UNL     N2   21  -0.104  -0.166  -0.185
    1UNL    C16   22  -0.185  -0.203  -0.075
    1UNL    C17   23  -0.241  -0.328  -0.056
    1UNL    C18   24  -0.291  -0.365   0.065
    1UNL    C19   25  -0.288  -0.268   0.167
    1UNL    C20   26  -0.225  -0.146   0.157
    1UNL    C21   27  -0.176  -0.106   0.032
    1UNL     H1   28   0.278   0.406   0.172
    1UNL     H2   29   0.319   0.375  -0.000
    1UNL     H3   30   0.434   0.365   0.127
    1UNL     H4   31   0.277   0.130   0.199
    1UNL     H5   32   0.307   0.217  -0.189
    1UNL     H6   33   0.164   0.300  -0.110
    1UNL     H7   34   0.027   0.193  -0.231
    1UNL     H8   35   0.090  -0.037  -0.320
    1UNL     H9   36   0.296  -0.056  -0.194
    1UNL    H10   37   0.168  -0.180  -0.136
    1UNL    H11   38   0.283  -0.073   0.048
    1UNL    H12   39   0.072   0.009   0.166
    1UNL    H13   40  -0.038  -0.398   0.207
    1UNL    H14   41   0.138  -0.391   0.241
    1UNL    H15   42   0.020  -0.388   0.377
    1UNL    H16   43  -0.021   0.202   0.029
    1UNL    H17   44  -0.175   0.162   0.097
    1UNL    H18   45  -0.280   0.196  -0.116
    1UNL    H19   46  -0.284   0.415  -0.107
    1UNL    H20   47  -0.159   0.400   0.009
    1UNL    H21   48  -0.131   0.511  -0.126
    1UNL    H22   49  -0.115  -0.202  -0.278
    1UNL    H23   50  -0.252  -0.389  -0.136
    1UNL    H24   51  -0.341  -0.453   0.086
    1UNL    H25   52  -0.335  -0.289   0.264
    1UNL    H26   53  -0.195  -0.087   0.240
   0.00000   0.00000   0.00000   0.00000   0.00000   0.00000   0.00000   0.00000   0.00000
Generated with MDTraj, t= 57.0
 53
    1UNL     C1    1   0.290   0.351   0.097
    1UNL     C2    2   0.297   0.207   0.083
    1UNL     C3    3   0.240   0.141  -0.017
    1UNL     C4    4   0.185   0.216  -0.132
    1UNL     N1    5   0.125   0.131  -0.243
    1UNL     C5    6   0.091  -0.013  -0.220
    1UNL     C6    7   0.220  -0.079  -0.151
    1UNL     C7    8   0.225  -0.005  -0.008
    1UNL     C8    9   0.088  -0.053   0.075
    1UNL     C9   10   0.094  -0.192   0.130
    1UNL     O1   11   0.147  -0.280   0.068
    1UNL     O2   12   0.029  -0.210   0.247
    1UNL    C10   13   0.028  -0.344   0.281
    1UNL    C11   14  -0.053  -0.025  -0.001
    1UNL    C12   15  -0.117   0.113   0.027
    1UNL    C13   16  -0.159   0.171  -0.111
    1UNL     O3   17  -0.099   0.295  -0.142
    1UNL    C14   18  -0.165   0.398  -0.073
    1UNL     O4   19  -0.146   0.071  -0.209
    1UNL    C15   20  -0.048  -0.030  -0.162
    1UNL     N2   21  -0.105  -0.170  -0.185
    1UNL    C16   22  -0.180  -0.210  -0.075
    1UNL    C17   23  -0.274  -0.313  -0.060
    1UNL    C18   24  -0.338  -0.338   0.059
    1UNL    C19   25  -0.320  -0.254   0.165
    1UNL    C20   26  -0.224  -0.152   0.149
    1UNL    C21   27  -0.155  -0.126   0.033
    1UNL     H1   28   0.189   0.386   0.081
    1UNL     H2   29   0.368   0.403   0.032
    1UNL     H3   30   0.308   0.388   0.200
    1UNL     H4   31   0.361   0.153   0.151
    1UNL     H5   32   0.270   0.269  -0.179
    1UNL     H6   33   0.108   0.293  -0.102
    1UNL     H7   34   0.041   0.178  -0.270
    1UNL     H8   35   0.084  -0.061  -0.312
    1UNL     H9   36   0.318  -0.055  -0.206
    1UNL    H10   37   0.210  -0.186  -0.137
    1UNL    H11   38   0.312  -0.039   0.053
    1UNL    H12   39   0.087   0.013   0.162
    1UNL    H13   40   0.040  -0.402   0.183
    1UNL    H14   41   0.113  -0.361   0.344
    1UNL    H15   42  -0.067  -0.386   0.318
    1UNL    H16   43  -0.041   0.173   0.077
    1UNL    H17   44  -0.201   0.110   0.096
    1UNL    H18   45  -0.272   0.193  -0.104
    1UNL    H19   46  -0.264   0.426  -0.105
    1UNL    H20   47  -0.182   0.363   0.029
    1UNL    H21   48  -0.103   0.485  -0.062
    1UNL    H22   49  -0.098  -0.219  -0.273
    1UNL    H23   50  -0.308  -0.368  -0.150
    1UNL    H24   51  -0.403  -0.427   0.065
    1UNL    H25   52  -0.364  -0.276   0.261
    1UNL    H26   53  -0.204  -0.093   0.238
   0.00000   0.00000   0.00000   0.00000   0.00000   0.00000   0.00000   0.00000   0.00000
Generated with MDTraj, t= 58.0
 53
    1UNL     C1    1   0.313   0.364   0.085
    1UNL     C2    2   0.271   0.222   0.089
    1UNL     C3    3   0.226   0.145  -0.013
    1UNL     C4    4   0.176   0.214  -0.151
    1UNL     N1    5   0.111   0.124  -0.253
    1UNL     C5    6   0.095  -0.014  -0.219
    1UNL     C6    7   0.208  -0.072  -0.140
    1UNL     C7    8   0.207  -0.010   0.001
    1UNL     C8    9   0.083  -0.056   0.087
    1UNL     C9   10   0.104  -0.196   0.129
    1UNL     O1   11   0.158  -0.284   0.069
    1UNL     O2   12   0.059  -0.211   0.258
    1UNL    C10   13   0.074  -0.346   0.296
    1UNL    C11   14  -0.049  -0.028   0.011
    1UNL    C12   15  -0.105   0.115   0.032
    1UNL    C13   16  -0.171   0.161  -0.104
    1UNL     O3   17  -0.118   0.288  -0.148
    1UNL    C14   18  -0.137   0.396  -0.057
    1UNL     O4   19  -0.148   0.056  -0.196
    1UNL    C15   20  -0.042  -0.035  -0.147
    1UNL     N2   21  -0.096  -0.173  -0.178
    1UNL    C16   22  -0.168  -0.221  -0.074
    1UNL    C17   23  -0.279  -0.310  -0.086
    1UNL    C18   24  -0.371  -0.310   0.020
    1UNL    C19   25  -0.346  -0.230   0.126
    1UNL    C20   26  -0.237  -0.144   0.142
    1UNL    C21   27  -0.151  -0.138   0.037
    1UNL     H1   28   0.224   0.419   0.063
    1UNL     H2   29   0.398   0.375   0.013
    1UNL     H3   30   0.349   0.388   0.189
    1UNL     H4   31   0.295   0.160   0.174
    1UNL     H5   32   0.262   0.264  -0.194
    1UNL     H6   33   0.104   0.294  -0.123
    1UNL     H7   34   0.018   0.158  -0.279
    1UNL     H8   35   0.100  -0.073  -0.304
    1UNL     H9   36   0.306  -0.038  -0.186
    1UNL    H10   37   0.206  -0.183  -0.139
    1UNL    H11   38   0.286  -0.066   0.057
    1UNL    H12   39   0.081  -0.001   0.182
    1UNL    H13   40   0.021  -0.402   0.208
    1UNL    H14   41   0.179  -0.358   0.298
    1UNL    H15   42   0.022  -0.379   0.385
    1UNL    H16   43  -0.025   0.185   0.058
    1UNL    H17   44  -0.175   0.113   0.116
    1UNL    H18   45  -0.282   0.172  -0.098
    1UNL    H19   46  -0.238   0.412  -0.025
    1UNL    H20   47  -0.080   0.376   0.036
    1UNL    H21   48  -0.099   0.493  -0.089
    1UNL    H22   49  -0.138  -0.179  -0.271
    1UNL    H23   50  -0.292  -0.369  -0.178
    1UNL    H24   51  -0.447  -0.384   0.026
    1UNL    H25   52  -0.416  -0.239   0.208
    1UNL    H26   53  -0.241  -0.087   0.233
   0.00000   0.00000   0.00000   0.00000   0.00000   0.00000   0.00000   0.00000   0.00000
Generated with MDTraj, t= 59.0
 53
    1UNL     C1    1   0.305   0.359   0.089
    1UNL     C2    2   0.273   0.218   0.104
    1UNL     C3    3   0.240   0.141   0.000
    1UNL     C4    4   0.237   0.194  -0.148
    1UNL     N1    5   0.119   0.134  -0.224
    1UNL     C5    6   0.092  -0.015  -0.217
    1UNL     C6    7   0.203  -0.088  -0.131
    1UNL     C7    8   0.210  -0.010   0.009
    1UNL     C8    9   0.074  -0.048   0.080
    1UNL     C9   10   0.100  -0.192   0.128
    1UNL     O1   11   0.141  -0.277   0.056
    1UNL     O2   12   0.075  -0.216   0.257
    1UNL    C10   13   0.114  -0.339   0.296
    1UNL    C11   14  -0.057  -0.023  -0.001
    1UNL    C12   15  -0.110   0.118   0.018
    1UNL    C13   16  -0.177   0.159  -0.118
    1UNL     O3   17  -0.137   0.292  -0.155
    1UNL    C14   18  -0.157   0.386  -0.056
    1UNL     O4   19  -0.148   0.056  -0.209
    1UNL    C15   20  -0.047  -0.036  -0.155
    1UNL     N2   21  -0.099  -0.168  -0.185
    1UNL    C16   22  -0.180  -0.213  -0.077
    1UNL    C17   23  -0.284  -0.303  -0.081
    1UNL    C18   24  -0.367  -0.310   0.023
    1UNL    C19   25  -0.347  -0.241   0.141
    1UNL    C20   26  -0.249  -0.144   0.144
    1UNL    C21   27  -0.168  -0.127   0.035
    1UNL     H1   28   0.209   0.410   0.085
    1UNL     H2   29   0.366   0.378   0.000
    1UNL     H3   30   0.367   0.391   0.179
    1UNL     H4   31   0.287   0.162   0.195
    1UNL     H5   32   0.328   0.168  -0.201
    1UNL     H6   33   0.229   0.305  -0.149
    1UNL     H7   34   0.025   0.188  -0.207
    1UNL     H8   35   0.099  -0.061  -0.310
    1UNL     H9   36   0.300  -0.067  -0.180
    1UNL    H10   37   0.189  -0.200  -0.123
    1UNL    H11   38   0.292  -0.060   0.064
    1UNL    H12   39   0.074   0.023   0.163
    1UNL    H13   40   0.012  -0.401   0.301
    1UNL    H14   41   0.176  -0.371   0.217
    1UNL    H15   42   0.159  -0.335   0.392
    1UNL    H16   43  -0.034   0.194   0.042
    1UNL    H17   44  -0.187   0.112   0.093
    1UNL    H18   45  -0.287   0.158  -0.121
    1UNL    H19   46  -0.237   0.358   0.008
    1UNL    H20   47  -0.063   0.410   0.001
    1UNL    H21   48  -0.187   0.481  -0.102
    1UNL    H22   49  -0.129  -0.178  -0.281
    1UNL    H23   50  -0.294  -0.368  -0.160
    1UNL    H24   51  -0.450  -0.379   0.022
    1UNL    H25   52  -0.413  -0.246   0.227
    1UNL    H26   53  -0.235  -0.079   0.230
   0.00000   0.00000   0.00000   0.00000   0.00000   0.00000   0.00000   0.00000   0.00000
Generated with MDTraj, t= 60.0
 53
    1UNL     C1    1   0.291   0.339   0.118
    1UNL     C2    2   0.268   0.193   0.103
    1UNL     C3    3   0.232   0.128  -0.007
    1UNL     C4    4   0.219   0.201  -0.137
    1UNL     N1    5   0.126   0.139  -0.231
    1UNL     C5    6   0.097  -0.004  -0.223
    1UNL     C6    7   0.206  -0.085  -0.152
    1UNL     C7    8   0.212  -0.026  -0.008
    1UNL     C8    9   0.079  -0.053   0.071
    1UNL     C9   10   0.080  -0.194   0.130
    1UNL     O1   11   0.059  -0.295   0.066
    1UNL     O2   12   0.104  -0.204   0.267
    1UNL    C10   13   0.097  -0.334   0.309
    1UNL    C11   14  -0.049  -0.018  -0.009
    1UNL    C12   15  -0.091   0.126   0.013
    1UNL    C13   16  -0.160   0.165  -0.124
    1UNL     O3   17  -0.125   0.304  -0.150
    1UNL    C14   18  -0.202   0.392  -0.073
    1UNL     O4   19  -0.135   0.068  -0.220
    1UNL    C15   20  -0.044  -0.032  -0.164
    1UNL     N2   21  -0.102  -0.165  -0.188
    1UNL    C16   22  -0.181  -0.198  -0.081
    1UNL    C17   23  -0.271  -0.300  -0.069
    1UNL    C18   24  -0.329  -0.331   0.048
    1UNL    C19   25  -0.314  -0.251   0.158
    1UNL    C20   26  -0.230  -0.144   0.147
    1UNL    C21   27  -0.161  -0.116   0.028
    1UNL     H1   28   0.224   0.397   0.053
    1UNL     H2   29   0.392   0.373   0.104
    1UNL     H3   30   0.267   0.378   0.221
    1UNL     H4   31   0.301   0.129   0.183
    1UNL     H5   32   0.316   0.200  -0.187
    1UNL     H6   33   0.192   0.308  -0.128
    1UNL     H7   34   0.043   0.194  -0.233
    1UNL     H8   35   0.097  -0.034  -0.324
    1UNL     H9   36   0.301  -0.085  -0.207
    1UNL    H10   37   0.169  -0.195  -0.144
    1UNL    H11   38   0.298  -0.076   0.037
    1UNL    H12   39   0.090   0.014   0.157
    1UNL    H13   40   0.012  -0.392   0.247
    1UNL    H14   41   0.193  -0.366   0.275
    1UNL    H15   42   0.075  -0.334   0.415
    1UNL    H16   43   0.003   0.178   0.033
    1UNL    H17   44  -0.162   0.151   0.093
    1UNL    H18   45  -0.267   0.151  -0.114
    1UNL    H19   46  -0.304   0.367  -0.094
    1UNL    H20   47  -0.170   0.402   0.037
    1UNL    H21   48  -0.181   0.489  -0.121
    1UNL    H22   49  -0.134  -0.196  -0.281
    1UNL    H23   50  -0.286  -0.371  -0.157
    1UNL    H24   51  -0.405  -0.410   0.052
    1UNL    H25   52  -0.384  -0.266   0.235
    1UNL    H26   53  -0.212  -0.077   0.227
   0.00000   0.00000   0.00000   0.00000   0.00000   0.00000   0.00000   0.00000   0.00000
Generated with MDTraj, t= 61.0
 53
    1UNL     C1    1   0.301   0.323   0.134
    1UNL     C2    2   0.262   0.175   0.113
    1UNL     C3    3   0.242   0.117  -0.007
    1UNL     C4    4   0.230   0.188  -0.137
    1UNL     N1    5   0.125   0.146  -0.235
    1UNL     C5    6   0.088   0.001  -0.229
    1UNL     C6    7   0.192  -0.080  -0.155
    1UNL     C7    8   0.206  -0.028  -0.009
    1UNL     C8    9   0.073  -0.047   0.072
    1UNL     C9   10   0.076  -0.187   0.133
    1UNL     O1   11   0.067  -0.288   0.065
    1UNL     O2   12   0.107  -0.196   0.263
    1UNL    C10   13   0.082  -0.330   0.309
    1UNL    C11   14  -0.054  -0.014  -0.005
    1UNL    C12   15  -0.112   0.128   0.019
    1UNL    C13   16  -0.170   0.171  -0.127
    1UNL     O3   17  -0.119   0.306  -0.159
    1UNL    C14   18  -0.198   0.414  -0.099
    1UNL     O4   19  -0.137   0.076  -0.223
    1UNL    C15   20  -0.053  -0.022  -0.167
    1UNL     N2   21  -0.110  -0.161  -0.194
    1UNL    C16   22  -0.179  -0.200  -0.074
    1UNL    C17   23  -0.259  -0.316  -0.065
    1UNL    C18   24  -0.315  -0.350   0.054
    1UNL    C19   25  -0.293  -0.263   0.159
    1UNL    C20   26  -0.217  -0.148   0.154
    1UNL    C21   27  -0.160  -0.113   0.032
    1UNL     H1   28   0.209   0.382   0.163
    1UNL     H2   29   0.343   0.368   0.046
    1UNL     H3   30   0.378   0.341   0.211
    1UNL     H4   31   0.257   0.117   0.204
    1UNL     H5   32   0.320   0.195  -0.195
    1UNL     H6   33   0.202   0.292  -0.121
    1UNL     H7   34   0.037   0.189  -0.212
    1UNL     H8   35   0.075  -0.033  -0.327
    1UNL     H9   36   0.285  -0.078  -0.211
    1UNL    H10   37   0.146  -0.188  -0.147
    1UNL    H11   38   0.284  -0.088   0.039
    1UNL    H12   39   0.088   0.020   0.157
    1UNL    H13   40  -0.001  -0.380   0.241
    1UNL    H14   41   0.170  -0.380   0.272
    1UNL    H15   42   0.060  -0.335   0.417
    1UNL    H16   43  -0.036   0.203   0.045
    1UNL    H17   44  -0.179   0.124   0.106
    1UNL    H18   45  -0.275   0.161  -0.132
    1UNL    H19   46  -0.247   0.463  -0.180
    1UNL    H20   47  -0.267   0.373  -0.019
    1UNL    H21   48  -0.125   0.480  -0.048
    1UNL    H22   49  -0.143  -0.177  -0.290
    1UNL    H23   50  -0.263  -0.378  -0.148
    1UNL    H24   51  -0.365  -0.444   0.063
    1UNL    H25   52  -0.344  -0.296   0.253
    1UNL    H26   53  -0.200  -0.084   0.241
   0.00000   0.00000   0.00000   0.00000   0.00000   0.00000   0.00000   0.00000   0.00000
Generated with MDTraj, t= 62.0
 53
    1UNL     C1    1   0.339   0.337   0.104
    1UNL     C2    2   0.291   0.196   0.096
    1UNL     C3    3   0.238   0.136  -0.010
    1UNL     C4    4   0.224   0.205  -0.140
    1UNL     N1    5   0.121   0.134  -0.219
    1UNL     C5    6   0.087  -0.014  -0.218
    1UNL     C6    7   0.197  -0.089  -0.142
    1UNL     C7    8   0.203  -0.012  -0.002
    1UNL     C8    9   0.062  -0.046   0.071
    1UNL     C9   10   0.084  -0.182   0.133
    1UNL     O1   11   0.123  -0.270   0.058
    1UNL     O2   12   0.035  -0.205   0.257
    1UNL    C10   13   0.091  -0.324   0.312
    1UNL    C11   14  -0.068  -0.020  -0.004
    1UNL    C12   15  -0.133   0.126   0.022
    1UNL    C13   16  -0.175   0.180  -0.114
    1UNL     O3   17  -0.108   0.296  -0.153
    1UNL    C14   18  -0.158   0.411  -0.090
    1UNL     O4   19  -0.154   0.077  -0.206
    1UNL    C15   20  -0.059  -0.022  -0.160
    1UNL     N2   21  -0.106  -0.154  -0.188
    1UNL    C16   22  -0.178  -0.216  -0.086
    1UNL    C17   23  -0.253  -0.328  -0.073
    1UNL    C18   24  -0.325  -0.356   0.044
    1UNL    C19   25  -0.311  -0.273   0.155
    1UNL    C20   26  -0.235  -0.160   0.149
    1UNL    C21   27  -0.168  -0.133   0.027
    1UNL     H1   28   0.309   0.374   0.206
    1UNL     H2   29   0.290   0.402   0.027
    1UNL     H3   30   0.445   0.346   0.090
    1UNL     H4   31   0.303   0.136   0.185
    1UNL     H5   32   0.314   0.193  -0.198
    1UNL     H6   33   0.207   0.313  -0.136
    1UNL     H7   34   0.025   0.181  -0.229
    1UNL     H8   35   0.078  -0.040  -0.319
    1UNL     H9   36   0.289  -0.076  -0.201
    1UNL    H10   37   0.169  -0.201  -0.125
    1UNL    H11   38   0.285  -0.052   0.058
    1UNL    H12   39   0.059   0.014   0.162
    1UNL    H13   40   0.008  -0.402   0.322
    1UNL    H14   41   0.154  -0.363   0.233
    1UNL    H15   42   0.143  -0.288   0.403
    1UNL    H16   43  -0.062   0.199   0.059
    1UNL    H17   44  -0.214   0.121   0.097
    1UNL    H18   45  -0.277   0.196  -0.130
    1UNL    H19   46  -0.254   0.429  -0.130
    1UNL    H20   47  -0.148   0.393   0.021
    1UNL    H21   48  -0.087   0.490  -0.116
    1UNL    H22   49  -0.135  -0.179  -0.284
    1UNL    H23   50  -0.253  -0.392  -0.160
    1UNL    H24   51  -0.370  -0.456   0.058
    1UNL    H25   52  -0.343  -0.300   0.250
    1UNL    H26   53  -0.230  -0.100   0.239
   0.00000   0.00000   0.00000   0.00000   0.00000   0.00000   0.00000   0.00000   0.00000
Generated with MDTraj, t= 63.0
 53
    1UNL     C1    1   0.356   0.351   0.056
    1UNL     C2    2   0.305   0.209   0.076
    1UNL     C3    3   0.234   0.143  -0.015
    1UNL     C4    4   0.174   0.216  -0.141
    1UNL     N1    5   0.104   0.138  -0.246
    1UNL     C5    6   0.096  -0.011  -0.218
    1UNL     C6    7   0.201  -0.067  -0.133
    1UNL     C7    8   0.201  -0.007   0.003
    1UNL     C8    9   0.077  -0.046   0.087
    1UNL     C9   10   0.091  -0.181   0.149
    1UNL     O1   11   0.149  -0.271   0.087
    1UNL     O2   12   0.035  -0.195   0.277
    1UNL    C10   13   0.028  -0.332   0.306
    1UNL    C11   14  -0.054  -0.029   0.001
    1UNL    C12   15  -0.120   0.120   0.028
    1UNL    C13   16  -0.173   0.167  -0.112
    1UNL     O3   17  -0.119   0.303  -0.144
    1UNL    C14   18  -0.131   0.400  -0.043
    1UNL     O4   19  -0.143   0.057  -0.204
    1UNL    C15   20  -0.040  -0.037  -0.157
    1UNL     N2   21  -0.105  -0.168  -0.191
    1UNL    C16   22  -0.183  -0.221  -0.086
    1UNL    C17   23  -0.264  -0.331  -0.091
    1UNL    C18   24  -0.335  -0.348   0.025
    1UNL    C19   25  -0.322  -0.269   0.138
    1UNL    C20   26  -0.229  -0.164   0.136
    1UNL    C21   27  -0.162  -0.137   0.024
    1UNL     H1   28   0.457   0.365   0.096
    1UNL     H2   29   0.292   0.426   0.111
    1UNL     H3   30   0.358   0.387  -0.046
    1UNL     H4   31   0.312   0.152   0.168
    1UNL     H5   32   0.256   0.270  -0.184
    1UNL     H6   33   0.104   0.289  -0.102
    1UNL     H7   34   0.021   0.182  -0.282
    1UNL     H8   35   0.095  -0.059  -0.311
    1UNL     H9   36   0.300  -0.045  -0.182
    1UNL    H10   37   0.188  -0.180  -0.121
    1UNL    H11   38   0.290  -0.043   0.054
    1UNL    H12   39   0.077   0.015   0.178
    1UNL    H13   40  -0.060  -0.370   0.252
    1UNL    H14   41   0.113  -0.375   0.251
    1UNL    H15   42   0.035  -0.347   0.418
    1UNL    H16   43  -0.051   0.191   0.073
    1UNL    H17   44  -0.205   0.120   0.099
    1UNL    H18   45  -0.275   0.179  -0.114
    1UNL    H19   46  -0.210   0.363   0.017
    1UNL    H20   47  -0.031   0.411   0.007
    1UNL    H21   48  -0.162   0.493  -0.087
    1UNL    H22   49  -0.147  -0.171  -0.285
    1UNL    H23   50  -0.285  -0.395  -0.183
    1UNL    H24   51  -0.405  -0.426   0.020
    1UNL    H25   52  -0.375  -0.304   0.230
    1UNL    H26   53  -0.208  -0.096   0.216
   0.00000   0.00000   0.00000   0.00000   0.00000   0.00000   0.00000   0.00000   0.00000
Generated with MDTraj, t= 64.0
 53
    1UNL     C1    1   0.342   0.344   0.067
    1UNL     C2    2   0.332   0.199   0.055
    1UNL     C3    3   0.249   0.136  -0.025
    1UNL     C4    4   0.154   0.209  -0.126
    1UNL     N1    5   0.118   0.129  -0.246
    1UNL     C5    6   0.099  -0.016  -0.226
    1UNL     C6    7   0.216  -0.076  -0.148
    1UNL     C7    8   0.227  -0.008  -0.003
    1UNL     C8    9   0.085  -0.034   0.078
    1UNL     C9   10   0.083  -0.174   0.143
    1UNL     O1   11   0.147  -0.263   0.087
    1UNL     O2   12   0.020  -0.181   0.259
    1UNL    C10   13   0.015  -0.311   0.302
    1UNL    C11   14  -0.051  -0.028  -0.001
    1UNL    C12   15  -0.135   0.103   0.030
    1UNL    C13   16  -0.166   0.162  -0.110
    1UNL     O3   17  -0.118   0.296  -0.123
    1UNL    C14   18  -0.172   0.384  -0.028
    1UNL     O4   19  -0.132   0.069  -0.210
    1UNL    C15   20  -0.039  -0.035  -0.160
    1UNL     N2   21  -0.088  -0.171  -0.193
    1UNL    C16   22  -0.171  -0.215  -0.087
    1UNL    C17   23  -0.270  -0.312  -0.080
    1UNL    C18   24  -0.345  -0.345   0.035
    1UNL    C19   25  -0.328  -0.262   0.144
    1UNL    C20   26  -0.229  -0.163   0.144
    1UNL    C21   27  -0.148  -0.147   0.030
    1UNL     H1   28   0.431   0.377   0.017
    1UNL     H2   29   0.352   0.365   0.176
    1UNL     H3   30   0.247   0.392   0.028
    1UNL     H4   31   0.375   0.136   0.131
    1UNL     H5   32   0.202   0.300  -0.160
    1UNL     H6   33   0.065   0.239  -0.076
    1UNL     H7   34   0.037   0.179  -0.289
    1UNL     H8   35   0.098  -0.054  -0.321
    1UNL     H9   36   0.312  -0.060  -0.209
    1UNL    H10   37   0.208  -0.186  -0.131
    1UNL    H11   38   0.314  -0.037   0.056
    1UNL    H12   39   0.073   0.041   0.156
    1UNL    H13   40   0.039  -0.370   0.217
    1UNL    H14   41   0.096  -0.321   0.375
    1UNL    H15   42  -0.088  -0.340   0.338
    1UNL    H16   43  -0.086   0.160   0.110
    1UNL    H17   44  -0.237   0.091   0.072
    1UNL    H18   45  -0.268   0.176  -0.121
    1UNL    H19   46  -0.276   0.367  -0.028
    1UNL    H20   47  -0.129   0.369   0.075
    1UNL    H21   48  -0.159   0.488  -0.054
    1UNL    H22   49  -0.113  -0.199  -0.289
    1UNL    H23   50  -0.298  -0.350  -0.170
    1UNL    H24   51  -0.425  -0.421   0.030
    1UNL    H25   52  -0.399  -0.267   0.220
    1UNL    H26   53  -0.197  -0.116   0.239
   0.00000   0.00000   0.00000   0.00000   0.00000   0.00000   0.00000   0.00000   0.00000
Generated with MDTraj, t= 65.0
 53
    1UNL     C1    1   0.362   0.329   0.077
    1UNL     C2    2   0.313   0.183   0.073
    1UNL     C3    3   0.236   0.127  -0.015
    1UNL     C4    4   0.185   0.207  -0.131
    1UNL     N1    5   0.126   0.127  -0.239
    1UNL     C5    6   0.094  -0.013  -0.221
    1UNL     C6    7   0.203  -0.087  -0.146
    1UNL     C7    8   0.208  -0.026  -0.006
    1UNL     C8    9   0.084  -0.053   0.075
    1UNL     C9   10   0.090  -0.182   0.150
    1UNL     O1   11   0.154  -0.273   0.098
    1UNL     O2   12   0.031  -0.200   0.280
    1UNL    C10   13   0.064  -0.321   0.337
    1UNL    C11   14  -0.058  -0.019   0.004
    1UNL    C12   15  -0.110   0.126   0.031
    1UNL    C13   16  -0.174   0.173  -0.109
    1UNL     O3   17  -0.138   0.308  -0.135
    1UNL    C14   18  -0.219   0.410  -0.079
    1UNL     O4   19  -0.134   0.084  -0.212
    1UNL    C15   20  -0.050  -0.024  -0.159
    1UNL     N2   21  -0.113  -0.154  -0.198
    1UNL    C16   22  -0.185  -0.205  -0.090
    1UNL    C17   23  -0.269  -0.314  -0.094
    1UNL    C18   24  -0.325  -0.356   0.020
    1UNL    C19   25  -0.307  -0.275   0.136
    1UNL    C20   26  -0.231  -0.158   0.138
    1UNL    C21   27  -0.162  -0.126   0.025
    1UNL     H1   28   0.361   0.374  -0.023
    1UNL     H2   29   0.465   0.325   0.109
    1UNL     H3   30   0.297   0.389   0.147
    1UNL     H4   31   0.338   0.116   0.154
    1UNL     H5   32   0.267   0.255  -0.184
    1UNL     H6   33   0.117   0.287  -0.111
    1UNL     H7   34   0.041   0.185  -0.276
    1UNL     H8   35   0.086  -0.059  -0.313
    1UNL     H9   36   0.313  -0.072  -0.188
    1UNL    H10   37   0.189  -0.196  -0.136
    1UNL    H11   38   0.292  -0.073   0.048
    1UNL    H12   39   0.079   0.019   0.158
    1UNL    H13   40   0.071  -0.389   0.261
    1UNL    H14   41   0.154  -0.305   0.398
    1UNL    H15   42  -0.026  -0.359   0.395
    1UNL    H16   43  -0.038   0.207   0.048
    1UNL    H17   44  -0.159   0.120   0.129
    1UNL    H18   45  -0.280   0.176  -0.115
    1UNL    H19   46  -0.298   0.429  -0.148
    1UNL    H20   47  -0.271   0.377   0.013
    1UNL    H21   48  -0.172   0.506  -0.053
    1UNL    H22   49  -0.154  -0.156  -0.292
    1UNL    H23   50  -0.277  -0.363  -0.196
    1UNL    H24   51  -0.390  -0.438   0.016
    1UNL    H25   52  -0.339  -0.308   0.237
    1UNL    H26   53  -0.210  -0.105   0.226
   0.00000   0.00000   0.00000   0.00000   0.00000   0.00000   0.00000   0.00000   0.00000
Generated with MDTraj, t= 66.0
 53
    1UNL     C1    1   0.372   0.314   0.107
    1UNL     C2    2   0.326   0.172   0.096
    1UNL     C3    3   0.260   0.117  -0.003
    1UNL     C4    4   0.196   0.203  -0.112
    1UNL     N1    5   0.123   0.135  -0.228
    1UNL     C5    6   0.094  -0.007  -0.228
    1UNL     C6    7   0.195  -0.088  -0.148
    1UNL     C7    8   0.201  -0.019  -0.004
    1UNL     C8    9   0.072  -0.037   0.070
    1UNL     C9   10   0.088  -0.178   0.138
    1UNL     O1   11   0.107  -0.275   0.067
    1UNL     O2   12   0.062  -0.179   0.270
    1UNL    C10   13   0.083  -0.304   0.324
    1UNL    C11   14  -0.063  -0.018  -0.006
    1UNL    C12   15  -0.129   0.116   0.027
    1UNL    C13   16  -0.174   0.170  -0.111
    1UNL     O3   17  -0.138   0.308  -0.128
    1UNL    C14   18  -0.236   0.402  -0.119
    1UNL     O4   19  -0.131   0.081  -0.216
    1UNL    C15   20  -0.050  -0.027  -0.163
    1UNL     N2   21  -0.115  -0.154  -0.200
    1UNL    C16   22  -0.183  -0.207  -0.094
    1UNL    C17   23  -0.269  -0.316  -0.089
    1UNL    C18   24  -0.332  -0.344   0.033
    1UNL    C19   25  -0.299  -0.279   0.157
    1UNL    C20   26  -0.217  -0.166   0.147
    1UNL    C21   27  -0.154  -0.136   0.025
    1UNL     H1   28   0.386   0.369   0.009
    1UNL     H2   29   0.471   0.322   0.148
    1UNL     H3   30   0.307   0.382   0.167
    1UNL     H4   31   0.342   0.110   0.183
    1UNL     H5   32   0.267   0.271  -0.158
    1UNL     H6   33   0.121   0.267  -0.071
    1UNL     H7   34   0.036   0.183  -0.243
    1UNL     H8   35   0.090  -0.045  -0.323
    1UNL     H9   36   0.305  -0.084  -0.191
    1UNL    H10   37   0.169  -0.193  -0.126
    1UNL    H11   38   0.272  -0.076   0.060
    1UNL    H12   39   0.061   0.050   0.135
    1UNL    H13   40  -0.001  -0.354   0.299
    1UNL    H14   41   0.175  -0.342   0.281
    1UNL    H15   42   0.086  -0.309   0.439
    1UNL    H16   43  -0.052   0.180   0.070
    1UNL    H17   44  -0.204   0.119   0.108
    1UNL    H18   45  -0.280   0.162  -0.130
    1UNL    H19   46  -0.324   0.377  -0.174
    1UNL    H20   47  -0.273   0.417  -0.014
    1UNL    H21   48  -0.199   0.499  -0.154
    1UNL    H22   49  -0.183  -0.121  -0.269
    1UNL    H23   50  -0.277  -0.368  -0.182
    1UNL    H24   51  -0.404  -0.431   0.038
    1UNL    H25   52  -0.327  -0.332   0.244
    1UNL    H26   53  -0.198  -0.111   0.243
   0.00000   0.00000   0.00000   0.00000   0.00000   0.00000   0.00000   0.00000   0.00000
Generated with MDTraj, t= 67.0
 53
    1UNL     C1    1   0.371   0.306   0.103
    1UNL     C2    2   0.334   0.163   0.084
    1UNL     C3    3   0.245   0.123  -0.003
    1UNL     C4    4   0.177   0.222  -0.094
    1UNL     N1    5   0.110   0.162  -0.211
    1UNL     C5    6   0.081   0.020  -0.219
    1UNL     C6    7   0.195  -0.067  -0.162
    1UNL     C7    8   0.212  -0.026  -0.008
    1UNL     C8    9   0.085  -0.056   0.071
    1UNL     C9   10   0.076  -0.187   0.134
    1UNL     O1   11   0.051  -0.288   0.074
    1UNL     O2   12   0.109  -0.192   0.272
    1UNL    C10   13   0.083  -0.311   0.334
    1UNL    C11   14  -0.055  -0.017   0.003
    1UNL    C12   15  -0.109   0.126   0.027
    1UNL    C13   16  -0.173   0.166  -0.111
    1UNL     O3   17  -0.129   0.297  -0.148
    1UNL    C14   18  -0.226   0.392  -0.153
    1UNL     O4   19  -0.157   0.071  -0.209
    1UNL    C15   20  -0.051  -0.019  -0.159
    1UNL     N2   21  -0.093  -0.152  -0.192
    1UNL    C16   22  -0.174  -0.205  -0.083
    1UNL    C17   23  -0.252  -0.325  -0.084
    1UNL    C18   24  -0.325  -0.351   0.027
    1UNL    C19   25  -0.314  -0.271   0.145
    1UNL    C20   26  -0.230  -0.156   0.144
    1UNL    C21   27  -0.155  -0.131   0.035
    1UNL     H1   28   0.460   0.339   0.040
    1UNL     H2   29   0.409   0.315   0.205
    1UNL     H3   30   0.288   0.376   0.089
    1UNL     H4   31   0.384   0.085   0.141
    1UNL     H5   32   0.250   0.290  -0.137
    1UNL     H6   33   0.118   0.288  -0.032
    1UNL     H7   34   0.009   0.205  -0.220
    1UNL     H8   35   0.073  -0.007  -0.319
    1UNL     H9   36   0.298  -0.058  -0.214
    1UNL    H10   37   0.157  -0.172  -0.153
    1UNL    H11   38   0.294  -0.088   0.036
    1UNL    H12   39   0.084   0.014   0.155
    1UNL    H13   40  -0.017  -0.321   0.345
    1UNL    H14   41   0.136  -0.393   0.286
    1UNL    H15   42   0.122  -0.306   0.442
    1UNL    H16   43  -0.029   0.188   0.071
    1UNL    H17   44  -0.184   0.136   0.103
    1UNL    H18   45  -0.284   0.162  -0.100
    1UNL    H19   46  -0.300   0.373  -0.230
    1UNL    H20   47  -0.286   0.388  -0.059
    1UNL    H21   48  -0.184   0.493  -0.163
    1UNL    H22   49  -0.091  -0.177  -0.291
    1UNL    H23   50  -0.262  -0.383  -0.172
    1UNL    H24   51  -0.385  -0.436   0.023
    1UNL    H25   52  -0.368  -0.296   0.236
    1UNL    H26   53  -0.229  -0.081   0.215
   0.00000   0.00000   0.00000   0.00000   0.00000   0.00000   0.00000   0.00000   0.00000
Generated with MDTraj, t= 68.0
 53
    1UNL     C1    1   0.394   0.296   0.102
    1UNL     C2    2   0.331   0.160   0.091
    1UNL     C3    3   0.244   0.128  -0.004
    1UNL     C4    4   0.202   0.223  -0.112
    1UNL     N1    5   0.114   0.158  -0.209
    1UNL     C5    6   0.085   0.010  -0.215
    1UNL     C6    7   0.181  -0.076  -0.140
    1UNL     C7    8   0.199  -0.016   0.004
    1UNL     C8    9   0.070  -0.041   0.083
    1UNL     C9   10   0.075  -0.182   0.140
    1UNL     O1   11   0.093  -0.273   0.063
    1UNL     O2   12   0.097  -0.192   0.276
    1UNL    C10   13   0.129  -0.326   0.321
    1UNL    C11   14  -0.063  -0.015   0.001
    1UNL    C12   15  -0.123   0.121   0.043
    1UNL    C13   16  -0.184   0.171  -0.092
    1UNL     O3   17  -0.137   0.305  -0.114
    1UNL    C14   18  -0.223   0.378  -0.205
    1UNL     O4   19  -0.145   0.090  -0.211
    1UNL    C15   20  -0.059  -0.018  -0.162
    1UNL     N2   21  -0.116  -0.150  -0.193
    1UNL    C16   22  -0.179  -0.208  -0.086
    1UNL    C17   23  -0.248  -0.331  -0.084
    1UNL    C18   24  -0.325  -0.360   0.030
    1UNL    C19   25  -0.332  -0.267   0.132
    1UNL    C20   26  -0.246  -0.157   0.141
    1UNL    C21   27  -0.164  -0.132   0.032
    1UNL     H1   28   0.472   0.310   0.025
    1UNL     H2   29   0.453   0.298   0.197
    1UNL     H3   30   0.315   0.370   0.098
    1UNL     H4   31   0.361   0.089   0.166
    1UNL     H5   32   0.293   0.262  -0.157
    1UNL     H6   33   0.157   0.311  -0.069
    1UNL     H7   34   0.021   0.189  -0.201
    1UNL     H8   35   0.106  -0.010  -0.316
    1UNL     H9   36   0.285  -0.070  -0.183
    1UNL    H10   37   0.138  -0.180  -0.122
    1UNL    H11   38   0.282  -0.072   0.054
    1UNL    H12   39   0.062   0.038   0.160
    1UNL    H13   40   0.050  -0.390   0.300
    1UNL    H14   41   0.213  -0.365   0.260
    1UNL    H15   42   0.158  -0.350   0.430
    1UNL    H16   43  -0.045   0.190   0.078
    1UNL    H17   44  -0.198   0.119   0.120
    1UNL    H18   45  -0.297   0.178  -0.084
    1UNL    H19   46  -0.292   0.308  -0.253
    1UNL    H20   47  -0.292   0.440  -0.145
    1UNL    H21   48  -0.170   0.444  -0.275
    1UNL    H22   49  -0.160  -0.170  -0.282
    1UNL    H23   50  -0.248  -0.387  -0.184
    1UNL    H24   51  -0.399  -0.443   0.028
    1UNL    H25   52  -0.401  -0.271   0.214
    1UNL    H26   53  -0.257  -0.081   0.222
   0.00000   0.00000   0.00000   0.00000   0.00000   0.00000   0.00000   0.00000   0.00000
Generated with MDTraj, t= 69.0
 53
    1UNL     C1    1   0.393   0.307   0.105
    1UNL     C2    2   0.329   0.171   0.102
    1UNL     C3    3   0.255   0.129   0.001
    1UNL     C4    4   0.228   0.214  -0.117
    1UNL     N1    5   0.100   0.178  -0.190
    1UNL     C5    6   0.073   0.034  -0.211
    1UNL     C6    7   0.175  -0.061  -0.152
    1UNL     C7    8   0.205  -0.016  -0.002
    1UNL     C8    9   0.074  -0.052   0.083
    1UNL     C9   10   0.093  -0.190   0.131
    1UNL     O1   11   0.113  -0.274   0.049
    1UNL     O2   12   0.076  -0.205   0.268
    1UNL    C10   13   0.115  -0.323   0.317
    1UNL    C11   14  -0.072  -0.022   0.015
    1UNL    C12   15  -0.119   0.126   0.050
    1UNL    C13   16  -0.188   0.173  -0.083
    1UNL     O3   17  -0.164   0.301  -0.120
    1UNL    C14   18  -0.173   0.315  -0.262
    1UNL     O4   19  -0.157   0.084  -0.191
    1UNL    C15   20  -0.063  -0.009  -0.151
    1UNL     N2   21  -0.111  -0.143  -0.191
    1UNL    C16   22  -0.200  -0.189  -0.087
    1UNL    C17   23  -0.285  -0.294  -0.088
    1UNL    C18   24  -0.348  -0.338   0.027
    1UNL    C19   25  -0.309  -0.292   0.152
    1UNL    C20   26  -0.214  -0.188   0.149
    1UNL    C21   27  -0.172  -0.131   0.034
    1UNL     H1   28   0.440   0.342   0.014
    1UNL     H2   29   0.488   0.309   0.169
    1UNL     H3   30   0.325   0.382   0.142
    1UNL     H4   31   0.353   0.100   0.180
    1UNL     H5   32   0.306   0.198  -0.191
    1UNL     H6   33   0.229   0.317  -0.083
    1UNL     H7   34   0.020   0.233  -0.151
    1UNL     H8   35   0.066   0.025  -0.314
    1UNL     H9   36   0.267  -0.058  -0.214
    1UNL    H10   37   0.130  -0.167  -0.138
    1UNL    H11   38   0.290  -0.076   0.041
    1UNL    H12   39   0.071   0.011   0.174
    1UNL    H13   40   0.099  -0.406   0.253
    1UNL    H14   41   0.226  -0.317   0.336
    1UNL    H15   42   0.069  -0.341   0.419
    1UNL    H16   43  -0.052   0.211   0.068
    1UNL    H17   44  -0.191   0.121   0.129
    1UNL    H18   45  -0.303   0.180  -0.072
    1UNL    H19   46  -0.075   0.297  -0.308
    1UNL    H20   47  -0.242   0.241  -0.301
    1UNL    H21   48  -0.207   0.418  -0.273
    1UNL    H22   49  -0.152  -0.118  -0.281
    1UNL    H23   50  -0.298  -0.338  -0.180
    1UNL    H24   51  -0.419  -0.417   0.017
    1UNL    H25   52  -0.348  -0.341   0.242
    1UNL    H26   53  -0.159  -0.166   0.237
   0.00000   0.00000   0.00000   0.00000   0.00000   0.00000   0.00000   0.00000   0.00000
Generated with MDTraj, t= 70.0
 53
    1UNL     C1    1   0.353   0.308   0.121
    1UNL     C2    2   0.321   0.160   0.094
    1UNL     C3    3   0.250   0.123  -0.013
    1UNL     C4    4   0.203   0.225  -0.112
    1UNL     N1    5   0.107   0.167  -0.213
    1UNL     C5    6   0.080   0.022  -0.228
    1UNL     C6    7   0.180  -0.067  -0.164
    1UNL     C7    8   0.200  -0.016  -0.023
    1UNL     C8    9   0.085  -0.046   0.078
    1UNL     C9   10   0.100  -0.192   0.127
    1UNL     O1   11   0.131  -0.277   0.046
    1UNL     O2   12   0.068  -0.199   0.265
    1UNL    C10   13   0.046  -0.328   0.303
    1UNL    C11   14  -0.054  -0.018   0.008
    1UNL    C12   15  -0.118   0.118   0.047
    1UNL    C13   16  -0.186   0.171  -0.087
    1UNL     O3   17  -0.137   0.302  -0.106
    1UNL    C14   18  -0.185   0.354  -0.228
    1UNL     O4   19  -0.151   0.084  -0.200
    1UNL    C15   20  -0.055  -0.018  -0.153
    1UNL     N2   21  -0.113  -0.152  -0.182
    1UNL    C16   22  -0.177  -0.214  -0.078
    1UNL    C17   23  -0.267  -0.319  -0.073
    1UNL    C18   24  -0.333  -0.340   0.045
    1UNL    C19   25  -0.307  -0.256   0.158
    1UNL    C20   26  -0.211  -0.157   0.164
    1UNL    C21   27  -0.151  -0.132   0.038
    1UNL     H1   28   0.432   0.351   0.062
    1UNL     H2   29   0.399   0.330   0.221
    1UNL     H3   30   0.259   0.366   0.113
    1UNL     H4   31   0.363   0.085   0.158
    1UNL     H5   32   0.292   0.268  -0.159
    1UNL     H6   33   0.147   0.303  -0.060
    1UNL     H7   34   0.022   0.209  -0.182
    1UNL     H8   35   0.059   0.006  -0.329
    1UNL     H9   36   0.278  -0.061  -0.213
    1UNL    H10   37   0.141  -0.178  -0.158
    1UNL    H11   38   0.287  -0.079   0.016
    1UNL    H12   39   0.088   0.018   0.167
    1UNL    H13   40  -0.027  -0.375   0.236
    1UNL    H14   41   0.138  -0.388   0.276
    1UNL    H15   42   0.025  -0.351   0.410
    1UNL    H16   43  -0.035   0.186   0.066
    1UNL    H17   44  -0.184   0.110   0.132
    1UNL    H18   45  -0.301   0.158  -0.074
    1UNL    H19   46  -0.105   0.421  -0.263
    1UNL    H20   47  -0.197   0.269  -0.294
    1UNL    H21   48  -0.275   0.409  -0.202
    1UNL    H22   49  -0.134  -0.175  -0.278
    1UNL    H23   50  -0.284  -0.389  -0.159
    1UNL    H24   51  -0.401  -0.423   0.049
    1UNL    H25   52  -0.359  -0.282   0.247
    1UNL    H26   53  -0.188  -0.109   0.260
   0.00000   0.00000   0.00000   0.00000   0.00000   0.00000   0.00000   0.00000   0.00000
Generated with MDTraj, t= 71.0
 53
    1UNL     C1    1   0.326   0.326   0.102
    1UNL     C2    2   0.309   0.176   0.086
    1UNL     C3    3   0.236   0.129  -0.014
    1UNL     C4    4   0.183   0.223  -0.123
    1UNL     N1    5   0.125   0.147  -0.236
    1UNL     C5    6   0.090   0.006  -0.230
    1UNL     C6    7   0.196  -0.081  -0.154
    1UNL     C7    8   0.212  -0.023  -0.009
    1UNL     C8    9   0.086  -0.059   0.078
    1UNL     C9   10   0.087  -0.204   0.126
    1UNL     O1   11   0.133  -0.288   0.050
    1UNL     O2   12   0.025  -0.222   0.248
    1UNL    C10   13   0.025  -0.349   0.296
    1UNL    C11   14  -0.046  -0.016   0.007
    1UNL    C12   15  -0.081   0.130   0.035
    1UNL    C13   16  -0.157   0.182  -0.091
    1UNL     O3   17  -0.117   0.315  -0.116
    1UNL    C14   18  -0.224   0.381  -0.185
    1UNL     O4   19  -0.151   0.087  -0.196
    1UNL    C15   20  -0.049  -0.013  -0.155
    1UNL     N2   21  -0.102  -0.149  -0.187
    1UNL    C16   22  -0.164  -0.204  -0.066
    1UNL    C17   23  -0.242  -0.317  -0.056
    1UNL    C18   24  -0.306  -0.346   0.061
    1UNL    C19   25  -0.305  -0.262   0.167
    1UNL    C20   26  -0.233  -0.147   0.160
    1UNL    C21   27  -0.160  -0.116   0.041
    1UNL     H1   28   0.377   0.370   0.019
    1UNL     H2   29   0.396   0.348   0.184
    1UNL     H3   30   0.222   0.364   0.118
    1UNL     H4   31   0.369   0.110   0.148
    1UNL     H5   32   0.264   0.288  -0.161
    1UNL     H6   33   0.112   0.293  -0.079
    1UNL     H7   34   0.030   0.203  -0.247
    1UNL     H8   35   0.071  -0.023  -0.330
    1UNL     H9   36   0.289  -0.104  -0.204
    1UNL    H10   37   0.145  -0.185  -0.137
    1UNL    H11   38   0.303  -0.070   0.040
    1UNL    H12   39   0.083   0.000   0.172
    1UNL    H13   40  -0.077  -0.398   0.281
    1UNL    H14   41   0.093  -0.416   0.238
    1UNL    H15   42   0.060  -0.352   0.398
    1UNL    H16   43   0.011   0.183   0.037
    1UNL    H17   44  -0.145   0.145   0.122
    1UNL    H18   45  -0.267   0.172  -0.055
    1UNL    H19   46  -0.224   0.485  -0.145
    1UNL    H20   47  -0.196   0.373  -0.289
    1UNL    H21   48  -0.320   0.337  -0.162
    1UNL    H22   49  -0.118  -0.161  -0.287
    1UNL    H23   50  -0.250  -0.380  -0.143
    1UNL    H24   51  -0.353  -0.446   0.067
    1UNL    H25   52  -0.367  -0.283   0.255
    1UNL    H26   53  -0.213  -0.068   0.232
   0.00000   0.00000   0.00000   0.00000   0.00000   0.00000   0.00000   0.00000   0.00000
Generated with MDTraj, t= 72.0
 53
    1UNL     C1    1   0.335   0.343   0.094
    1UNL     C2    2   0.293   0.204   0.100
    1UNL     C3    3   0.244   0.139  -0.005
    1UNL     C4    4   0.213   0.208  -0.140
    1UNL     N1    5   0.135   0.134  -0.242
    1UNL     C5    6   0.087  -0.006  -0.212
    1UNL     C6    7   0.198  -0.077  -0.128
    1UNL     C7    8   0.208  -0.010   0.013
    1UNL     C8    9   0.082  -0.050   0.086
    1UNL     C9   10   0.093  -0.194   0.120
    1UNL     O1   11   0.134  -0.273   0.035
    1UNL     O2   12   0.059  -0.232   0.247
    1UNL    C10   13   0.041  -0.367   0.255
    1UNL    C11   14  -0.053  -0.016   0.012
    1UNL    C12   15  -0.096   0.126   0.045
    1UNL    C13   16  -0.164   0.173  -0.087
    1UNL     O3   17  -0.144   0.311  -0.098
    1UNL    C14   18  -0.205   0.363  -0.217
    1UNL     O4   19  -0.129   0.094  -0.199
    1UNL    C15   20  -0.053  -0.022  -0.149
    1UNL     N2   21  -0.122  -0.150  -0.182
    1UNL    C16   22  -0.184  -0.201  -0.067
    1UNL    C17   23  -0.284  -0.298  -0.066
    1UNL    C18   24  -0.335  -0.336   0.059
    1UNL    C19   25  -0.299  -0.268   0.173
    1UNL    C20   26  -0.213  -0.162   0.167
    1UNL    C21   27  -0.162  -0.120   0.042
    1UNL     H1   28   0.402   0.368   0.010
    1UNL     H2   29   0.404   0.369   0.174
    1UNL     H3   30   0.244   0.406   0.095
    1UNL     H4   31   0.322   0.146   0.185
    1UNL     H5   32   0.310   0.238  -0.184
    1UNL     H6   33   0.172   0.306  -0.110
    1UNL     H7   34   0.056   0.189  -0.259
    1UNL     H8   35   0.081  -0.054  -0.307
    1UNL     H9   36   0.289  -0.073  -0.186
    1UNL    H10   37   0.179  -0.190  -0.116
    1UNL    H11   38   0.298  -0.057   0.063
    1UNL    H12   39   0.085   0.004   0.184
    1UNL    H13   40   0.009  -0.408   0.149
    1UNL    H14   41   0.133  -0.414   0.285
    1UNL    H15   42  -0.028  -0.384   0.331
    1UNL    H16   43  -0.019   0.200   0.056
    1UNL    H17   44  -0.166   0.130   0.128
    1UNL    H18   45  -0.277   0.155  -0.077
    1UNL    H19   46  -0.130   0.426  -0.272
    1UNL    H20   47  -0.240   0.277  -0.272
    1UNL    H21   48  -0.286   0.428  -0.185
    1UNL    H22   49  -0.194  -0.149  -0.254
    1UNL    H23   50  -0.318  -0.355  -0.148
    1UNL    H24   51  -0.400  -0.417   0.071
    1UNL    H25   52  -0.352  -0.293   0.262
    1UNL    H26   53  -0.192  -0.107   0.256
   0.00000   0.00000   0.00000   0.00000   0.00000   0.00000   0.00000   0.00000   0.00000
Generated with MDTraj, t= 73.0
 53
    1UNL     C1    1   0.309   0.350   0.100
    1UNL     C2    2   0.283   0.202   0.104
    1UNL     C3    3   0.238   0.131  -0.001
    1UNL     C4    4   0.225   0.204  -0.136
    1UNL     N1    5   0.111   0.158  -0.212
    1UNL     C5    6   0.090   0.012  -0.214
    1UNL     C6    7   0.195  -0.073  -0.150
    1UNL     C7    8   0.209  -0.021  -0.003
    1UNL     C8    9   0.089  -0.058   0.081
    1UNL     C9   10   0.093  -0.210   0.115
    1UNL     O1   11   0.123  -0.293   0.029
    1UNL     O2   12   0.074  -0.239   0.245
    1UNL    C10   13   0.089  -0.379   0.279
    1UNL    C11   14  -0.046  -0.016   0.017
    1UNL    C12   15  -0.083   0.130   0.051
    1UNL    C13   16  -0.175   0.164  -0.069
    1UNL     O3   17  -0.153   0.300  -0.112
    1UNL    C14   18  -0.184   0.326  -0.247
    1UNL     O4   19  -0.145   0.080  -0.182
    1UNL    C15   20  -0.047  -0.015  -0.146
    1UNL     N2   21  -0.107  -0.150  -0.176
    1UNL    C16   22  -0.186  -0.194  -0.069
    1UNL    C17   23  -0.298  -0.269  -0.073
    1UNL    C18   24  -0.362  -0.299   0.045
    1UNL    C19   25  -0.309  -0.249   0.163
    1UNL    C20   26  -0.208  -0.155   0.167
    1UNL    C21   27  -0.155  -0.116   0.049
    1UNL     H1   28   0.397   0.388   0.041
    1UNL     H2   29   0.335   0.389   0.196
    1UNL     H3   30   0.218   0.400   0.068
    1UNL     H4   31   0.321   0.156   0.194
    1UNL     H5   32   0.323   0.206  -0.190
    1UNL     H6   33   0.212   0.313  -0.120
    1UNL     H7   34   0.020   0.201  -0.179
    1UNL     H8   35   0.082  -0.034  -0.312
    1UNL     H9   36   0.294  -0.060  -0.200
    1UNL    H10   37   0.171  -0.182  -0.160
    1UNL    H11   38   0.299  -0.075   0.036
    1UNL    H12   39   0.104  -0.003   0.177
    1UNL    H13   40   0.151  -0.419   0.188
    1UNL    H14   41   0.140  -0.393   0.370
    1UNL    H15   42  -0.002  -0.426   0.288
    1UNL    H16   43  -0.006   0.205   0.048
    1UNL    H17   44  -0.133   0.154   0.145
    1UNL    H18   45  -0.284   0.148  -0.042
    1UNL    H19   46  -0.084   0.333  -0.302
    1UNL    H20   47  -0.245   0.248  -0.292
    1UNL    H21   48  -0.229   0.424  -0.259
    1UNL    H22   49  -0.147  -0.140  -0.268
    1UNL    H23   50  -0.320  -0.330  -0.166
    1UNL    H24   51  -0.449  -0.371   0.042
    1UNL    H25   52  -0.363  -0.265   0.256
    1UNL    H26   53  -0.205  -0.105   0.264
   0.00000   0.00000   0.00000   0.00000   0.00000   0.00000   0.00000   0.00000   0.00000
Generated with MDTraj, t= 74.0
 53
    1UNL     C1    1   0.275   0.316   0.148
    1UNL     C2    2   0.269   0.173   0.116
    1UNL     C3    3   0.239   0.128  -0.005
    1UNL     C4    4   0.214   0.207  -0.128
    1UNL     N1    5   0.118   0.147  -0.232
    1UNL     C5    6   0.083  -0.001  -0.226
    1UNL     C6    7   0.199  -0.076  -0.164
    1UNL     C7    8   0.220  -0.020  -0.013
    1UNL     C8    9   0.096  -0.057   0.076
    1UNL     C9   10   0.115  -0.202   0.112
    1UNL     O1   11   0.122  -0.288   0.027
    1UNL     O2   12   0.112  -0.225   0.246
    1UNL    C10   13   0.119  -0.360   0.276
    1UNL    C11   14  -0.049  -0.025   0.010
    1UNL    C12   15  -0.091   0.120   0.034
    1UNL    C13   16  -0.164   0.172  -0.090
    1UNL     O3   17  -0.126   0.307  -0.116
    1UNL    C14   18  -0.198   0.353  -0.219
    1UNL     O4   19  -0.149   0.078  -0.195
    1UNL    C15   20  -0.050  -0.024  -0.152
    1UNL     N2   21  -0.110  -0.152  -0.177
    1UNL    C16   22  -0.178  -0.196  -0.061
    1UNL    C17   23  -0.278  -0.297  -0.051
    1UNL    C18   24  -0.367  -0.297   0.054
    1UNL    C19   25  -0.349  -0.219   0.159
    1UNL    C20   26  -0.243  -0.124   0.164
    1UNL    C21   27  -0.159  -0.121   0.054
    1UNL     H1   28   0.342   0.379   0.083
    1UNL     H2   29   0.319   0.329   0.243
    1UNL     H3   30   0.174   0.352   0.146
    1UNL     H4   31   0.300   0.110   0.197
    1UNL     H5   32   0.309   0.218  -0.188
    1UNL     H6   33   0.203   0.315  -0.108
    1UNL     H7   34   0.034   0.196  -0.210
    1UNL     H8   35   0.068  -0.040  -0.326
    1UNL     H9   36   0.291  -0.086  -0.232
    1UNL    H10   37   0.169  -0.181  -0.155
    1UNL    H11   38   0.302  -0.084   0.025
    1UNL    H12   39   0.099  -0.012   0.179
    1UNL    H13   40   0.231  -0.372   0.306
    1UNL    H14   41   0.054  -0.374   0.356
    1UNL    H15   42   0.092  -0.417   0.195
    1UNL    H16   43  -0.018   0.189   0.075
    1UNL    H17   44  -0.158   0.130   0.120
    1UNL    H18   45  -0.271   0.162  -0.064
    1UNL    H19   46  -0.223   0.267  -0.289
    1UNL    H20   47  -0.289   0.405  -0.196
    1UNL    H21   48  -0.133   0.416  -0.280
    1UNL    H22   49  -0.164  -0.149  -0.263
    1UNL    H23   50  -0.267  -0.379  -0.110
    1UNL    H24   51  -0.432  -0.377   0.064
    1UNL    H25   52  -0.430  -0.215   0.230
    1UNL    H26   53  -0.238  -0.048   0.239
   0.00000   0.00000   0.00000   0.00000   0.00000   0.00000   0.00000   0.00000   0.00000
Generated with MDTraj, t= 75.0
 53
    1UNL     C1    1   0.287   0.341   0.124
    1UNL     C2    2   0.273   0.189   0.113
    1UNL     C3    3   0.236   0.124   0.000
    1UNL     C4    4   0.199   0.207  -0.123
    1UNL     N1    5   0.116   0.154  -0.224
    1UNL     C5    6   0.087   0.006  -0.225
    1UNL     C6    7   0.200  -0.072  -0.154
    1UNL     C7    8   0.209  -0.026  -0.008
    1UNL     C8    9   0.088  -0.063   0.079
    1UNL     C9   10   0.084  -0.214   0.119
    1UNL     O1   11   0.086  -0.301   0.035
    1UNL     O2   12   0.099  -0.235   0.253
    1UNL    C10   13   0.139  -0.373   0.284
    1UNL    C11   14  -0.041  -0.015   0.009
    1UNL    C12   15  -0.088   0.125   0.040
    1UNL    C13   16  -0.161   0.175  -0.088
    1UNL     O3   17  -0.109   0.304  -0.131
    1UNL    C14   18  -0.198   0.357  -0.221
    1UNL     O4   19  -0.141   0.082  -0.196
    1UNL    C15   20  -0.049  -0.021  -0.153
    1UNL     N2   21  -0.122  -0.148  -0.179
    1UNL    C16   22  -0.187  -0.195  -0.066
    1UNL    C17   23  -0.285  -0.295  -0.064
    1UNL    C18   24  -0.345  -0.313   0.053
    1UNL    C19   25  -0.325  -0.229   0.163
    1UNL    C20   26  -0.221  -0.140   0.166
    1UNL    C21   27  -0.161  -0.115   0.045
    1UNL     H1   28   0.346   0.390   0.044
    1UNL     H2   29   0.336   0.377   0.213
    1UNL     H3   30   0.189   0.383   0.122
    1UNL     H4   31   0.299   0.133   0.202
    1UNL     H5   32   0.295   0.250  -0.162
    1UNL     H6   33   0.154   0.303  -0.085
    1UNL     H7   34   0.019   0.204  -0.213
    1UNL     H8   35   0.086  -0.017  -0.332
    1UNL     H9   36   0.300  -0.044  -0.208
    1UNL    H10   37   0.197  -0.179  -0.167
    1UNL    H11   38   0.300  -0.074   0.032
    1UNL    H12   39   0.100  -0.005   0.175
    1UNL    H13   40   0.223  -0.387   0.363
    1UNL    H14   41   0.049  -0.414   0.319
    1UNL    H15   42   0.167  -0.414   0.193
    1UNL    H16   43  -0.002   0.193   0.050
    1UNL    H17   44  -0.134   0.156   0.136
    1UNL    H18   45  -0.268   0.175  -0.070
    1UNL    H19   46  -0.269   0.281  -0.268
    1UNL    H20   47  -0.255   0.441  -0.191
    1UNL    H21   48  -0.144   0.387  -0.310
    1UNL    H22   49  -0.166  -0.158  -0.271
    1UNL    H23   50  -0.299  -0.366  -0.150
    1UNL    H24   51  -0.422  -0.392   0.064
    1UNL    H25   52  -0.395  -0.229   0.245
    1UNL    H26   53  -0.193  -0.083   0.255
   0.00000   0.00000   0.00000   0.00000   0.00000   0.00000   0.00000   0.00000   0.00000
Generated with MDTraj, t= 76.0
 53
    1UNL     C1    1   0.327   0.343   0.106
    1UNL     C2    2   0.274   0.202   0.106
    1UNL     C3    3   0.243   0.136  -0.006
    1UNL     C4    4   0.238   0.194  -0.143
    1UNL     N1    5   0.121   0.145  -0.206
    1UNL     C5    6   0.078   0.003  -0.213
    1UNL     C6    7   0.193  -0.076  -0.140
    1UNL     C7    8   0.212  -0.015   0.005
    1UNL     C8    9   0.080  -0.047   0.089
    1UNL     C9   10   0.096  -0.189   0.118
    1UNL     O1   11   0.084  -0.268   0.031
    1UNL     O2   12   0.118  -0.233   0.247
    1UNL    C10   13   0.099  -0.370   0.261
    1UNL    C11   14  -0.063  -0.015   0.017
    1UNL    C12   15  -0.115   0.127   0.047
    1UNL    C13   16  -0.181   0.173  -0.088
    1UNL     O3   17  -0.136   0.303  -0.110
    1UNL    C14   18  -0.162   0.344  -0.244
    1UNL     O4   19  -0.145   0.089  -0.198
    1UNL    C15   20  -0.063  -0.016  -0.141
    1UNL     N2   21  -0.122  -0.142  -0.181
    1UNL    C16   22  -0.192  -0.189  -0.068
    1UNL    C17   23  -0.285  -0.292  -0.067
    1UNL    C18   24  -0.343  -0.332   0.047
    1UNL    C19   25  -0.304  -0.277   0.171
    1UNL    C20   26  -0.218  -0.173   0.169
    1UNL    C21   27  -0.176  -0.112   0.052
    1UNL     H1   28   0.401   0.364   0.029
    1UNL     H2   29   0.379   0.366   0.199
    1UNL     H3   30   0.247   0.412   0.092
    1UNL     H4   31   0.274   0.144   0.197
    1UNL     H5   32   0.322   0.158  -0.206
    1UNL     H6   33   0.253   0.304  -0.138
    1UNL     H7   34   0.044   0.197  -0.168
    1UNL     H8   35   0.054  -0.027  -0.316
    1UNL     H9   36   0.292  -0.086  -0.201
    1UNL    H10   37   0.158  -0.177  -0.136
    1UNL    H11   38   0.305  -0.049   0.054
    1UNL    H12   39   0.089   0.010   0.185
    1UNL    H13   40   0.059  -0.385   0.370
    1UNL    H14   41   0.012  -0.396   0.204
    1UNL    H15   42   0.195  -0.415   0.240
    1UNL    H16   43  -0.049   0.211   0.072
    1UNL    H17   44  -0.180   0.135   0.134
    1UNL    H18   45  -0.287   0.176  -0.087
    1UNL    H19   46  -0.076   0.322  -0.315
    1UNL    H20   47  -0.250   0.309  -0.291
    1UNL    H21   48  -0.171   0.450  -0.244
    1UNL    H22   49  -0.170  -0.116  -0.270
    1UNL    H23   50  -0.318  -0.334  -0.164
    1UNL    H24   51  -0.420  -0.407   0.053
    1UNL    H25   52  -0.347  -0.322   0.261
    1UNL    H26   53  -0.167  -0.147   0.258
   0.00000   0.00000   0.00000   0.00000   0.00000   0.00000   0.00000   0.00000   0.00000
Generated with MDTraj, t= 77.0
 53
    1UNL     C1    1   0.338   0.333   0.100
    1UNL     C2    2   0.286   0.192   0.093
    1UNL     C3    3   0.239   0.128  -0.015
    1UNL     C4    4   0.213   0.205  -0.141
    1UNL     N1    5   0.104   0.157  -0.219
    1UNL     C5    6   0.071   0.011  -0.219
    1UNL     C6    7   0.178  -0.073  -0.148
    1UNL     C7    8   0.200  -0.019  -0.009
    1UNL     C8    9   0.078  -0.052   0.082
    1UNL     C9   10   0.080  -0.207   0.120
    1UNL     O1   11   0.109  -0.292   0.040
    1UNL     O2   12   0.053  -0.227   0.254
    1UNL    C10   13   0.094  -0.352   0.297
    1UNL    C11   14  -0.053  -0.010   0.014
    1UNL    C12   15  -0.094   0.130   0.047
    1UNL    C13   16  -0.170   0.185  -0.075
    1UNL     O3   17  -0.105   0.307  -0.105
    1UNL    C14   18  -0.162   0.358  -0.227
    1UNL     O4   19  -0.164   0.089  -0.184
    1UNL    C15   20  -0.065  -0.014  -0.153
    1UNL     N2   21  -0.120  -0.141  -0.182
    1UNL    C16   22  -0.181  -0.196  -0.072
    1UNL    C17   23  -0.256  -0.315  -0.073
    1UNL    C18   24  -0.313  -0.354   0.047
    1UNL    C19   25  -0.301  -0.270   0.158
    1UNL    C20   26  -0.225  -0.154   0.168
    1UNL    C21   27  -0.166  -0.112   0.044
    1UNL     H1   28   0.412   0.349   0.025
    1UNL     H2   29   0.380   0.347   0.201
    1UNL     H3   30   0.260   0.405   0.076
    1UNL     H4   31   0.293   0.130   0.182
    1UNL     H5   32   0.309   0.207  -0.198
    1UNL     H6   33   0.201   0.314  -0.124
    1UNL     H7   34   0.015   0.198  -0.176
    1UNL     H8   35   0.062  -0.015  -0.325
    1UNL     H9   36   0.271  -0.075  -0.216
    1UNL    H10   37   0.151  -0.177  -0.138
    1UNL    H11   38   0.280  -0.071   0.043
    1UNL    H12   39   0.085   0.006   0.179
    1UNL    H13   40   0.081  -0.366   0.406
    1UNL    H14   41   0.012  -0.414   0.254
    1UNL    H15   42   0.198  -0.368   0.257
    1UNL    H16   43  -0.012   0.201   0.068
    1UNL    H17   44  -0.152   0.135   0.138
    1UNL    H18   45  -0.272   0.193  -0.056
    1UNL    H19   46  -0.127   0.466  -0.241
    1UNL    H20   47  -0.146   0.296  -0.314
    1UNL    H21   48  -0.266   0.368  -0.212
    1UNL    H22   49  -0.165  -0.137  -0.275
    1UNL    H23   50  -0.273  -0.360  -0.162
    1UNL    H24   51  -0.363  -0.448   0.054
    1UNL    H25   52  -0.351  -0.301   0.248
    1UNL    H26   53  -0.199  -0.110   0.265
   0.00000   0.00000   0.00000   0.00000   0.00000   0.00000   0.00000   0.00000   0.00000
Generated with MDTraj, t= 78.0
 53
    1UNL     C1    1   0.323   0.308   0.127
    1UNL     C2    2   0.308   0.167   0.092
    1UNL     C3    3   0.253   0.117  -0.020
    1UNL     C4    4   0.224   0.199  -0.149
    1UNL     N1    5   0.102   0.154  -0.216
    1UNL     C5    6   0.076   0.010  -0.232
    1UNL     C6    7   0.175  -0.079  -0.167
    1UNL     C7    8   0.211  -0.029  -0.029
    1UNL     C8    9   0.096  -0.048   0.067
    1UNL     C9   10   0.104  -0.187   0.133
    1UNL     O1   11   0.146  -0.278   0.068
    1UNL     O2   12   0.048  -0.201   0.258
    1UNL    C10   13   0.042  -0.336   0.295
    1UNL    C11   14  -0.055  -0.025   0.002
    1UNL    C12   15  -0.107   0.123   0.036
    1UNL    C13   16  -0.181   0.180  -0.090
    1UNL     O3   17  -0.130   0.315  -0.101
    1UNL    C14   18  -0.193   0.395  -0.194
    1UNL     O4   19  -0.152   0.092  -0.201
    1UNL    C15   20  -0.061  -0.016  -0.158
    1UNL     N2   21  -0.125  -0.142  -0.188
    1UNL    C16   22  -0.182  -0.205  -0.070
    1UNL    C17   23  -0.262  -0.315  -0.067
    1UNL    C18   24  -0.318  -0.344   0.059
    1UNL    C19   25  -0.296  -0.267   0.170
    1UNL    C20   26  -0.209  -0.158   0.161
    1UNL    C21   27  -0.147  -0.136   0.043
    1UNL     H1   28   0.358   0.367   0.049
    1UNL     H2   29   0.389   0.308   0.215
    1UNL     H3   30   0.225   0.356   0.146
    1UNL     H4   31   0.326   0.095   0.171
    1UNL     H5   32   0.301   0.200  -0.229
    1UNL     H6   33   0.222   0.304  -0.121
    1UNL     H7   34   0.015   0.206  -0.188
    1UNL     H8   35   0.059  -0.005  -0.339
    1UNL     H9   36   0.271  -0.090  -0.228
    1UNL    H10   37   0.135  -0.181  -0.165
    1UNL    H11   38   0.288  -0.096   0.010
    1UNL    H12   39   0.093   0.027   0.152
    1UNL    H13   40   0.000  -0.346   0.393
    1UNL    H14   41  -0.040  -0.377   0.229
    1UNL    H15   42   0.146  -0.385   0.281
    1UNL    H16   43  -0.026   0.193   0.063
    1UNL    H17   44  -0.173   0.127   0.122
    1UNL    H18   45  -0.284   0.171  -0.080
    1UNL    H19   46  -0.180   0.496  -0.140
    1UNL    H20   47  -0.136   0.387  -0.286
    1UNL    H21   48  -0.297   0.370  -0.198
    1UNL    H22   49  -0.158  -0.145  -0.285
    1UNL    H23   50  -0.281  -0.390  -0.151
    1UNL    H24   51  -0.380  -0.433   0.059
    1UNL    H25   52  -0.338  -0.293   0.267
    1UNL    H26   53  -0.192  -0.091   0.242
   0.00000   0.00000   0.00000   0.00000   0.00000   0.00000   0.00000   0.00000   0.00000
Generated with MDTraj, t= 79.0
 53
    1UNL     C1    1   0.353   0.311   0.099
    1UNL     C2    2   0.302   0.178   0.091
    1UNL     C3    3   0.250   0.123  -0.017
    1UNL     C4    4   0.232   0.200  -0.140
    1UNL     N1    5   0.108   0.172  -0.220
    1UNL     C5    6   0.074   0.019  -0.226
    1UNL     C6    7   0.183  -0.072  -0.175
    1UNL     C7    8   0.219  -0.027  -0.028
    1UNL     C8    9   0.100  -0.060   0.066
    1UNL     C9   10   0.099  -0.194   0.129
    1UNL     O1   11   0.139  -0.292   0.071
    1UNL     O2   12   0.048  -0.196   0.256
    1UNL    C10   13   0.046  -0.322   0.315
    1UNL    C11   14  -0.045  -0.023   0.015
    1UNL    C12   15  -0.086   0.123   0.062
    1UNL    C13   16  -0.170   0.174  -0.060
    1UNL     O3   17  -0.147   0.313  -0.099
    1UNL    C14   18  -0.225   0.337  -0.219
    1UNL     O4   19  -0.144   0.093  -0.178
    1UNL    C15   20  -0.053  -0.014  -0.146
    1UNL     N2   21  -0.117  -0.135  -0.186
    1UNL    C16   22  -0.191  -0.190  -0.082
    1UNL    C17   23  -0.274  -0.292  -0.084
    1UNL    C18   24  -0.339  -0.340   0.035
    1UNL    C19   25  -0.307  -0.279   0.152
    1UNL    C20   26  -0.219  -0.172   0.158
    1UNL    C21   27  -0.150  -0.135   0.043
    1UNL     H1   28   0.428   0.337   0.031
    1UNL     H2   29   0.388   0.315   0.201
    1UNL     H3   30   0.285   0.395   0.079
    1UNL     H4   31   0.322   0.110   0.173
    1UNL     H5   32   0.321   0.186  -0.200
    1UNL     H6   33   0.234   0.308  -0.127
    1UNL     H7   34   0.036   0.230  -0.183
    1UNL     H8   35   0.047   0.001  -0.329
    1UNL     H9   36   0.270  -0.084  -0.241
    1UNL    H10   37   0.139  -0.174  -0.169
    1UNL    H11   38   0.314  -0.072   0.006
    1UNL    H12   39   0.105   0.015   0.150
    1UNL    H13   40  -0.025  -0.325   0.391
    1UNL    H14   41   0.004  -0.392   0.235
    1UNL    H15   42   0.150  -0.354   0.351
    1UNL    H16   43  -0.002   0.191   0.077
    1UNL    H17   44  -0.153   0.127   0.148
    1UNL    H18   45  -0.273   0.161  -0.042
    1UNL    H19   46  -0.153   0.396  -0.285
    1UNL    H20   47  -0.249   0.240  -0.258
    1UNL    H21   48  -0.310   0.397  -0.186
    1UNL    H22   49  -0.179  -0.114  -0.265
    1UNL    H23   50  -0.285  -0.342  -0.177
    1UNL    H24   51  -0.414  -0.419   0.027
    1UNL    H25   52  -0.347  -0.319   0.245
    1UNL    H26   53  -0.199  -0.120   0.251
   0.00000   0.00000   0.00000   0.00000   0.00000   0.00000   0.00000   0.00000   0.00000
Generated with MDTraj, t= 80.0
 53
    1UNL     C1    1   0.375   0.317   0.088
    1UNL     C2    2   0.326   0.175   0.086
    1UNL     C3    3   0.254   0.123  -0.014
    1UNL     C4    4   0.215   0.214  -0.128
    1UNL     N1    5   0.113   0.159  -0.205
    1UNL     C5    6   0.083   0.016  -0.213
    1UNL     C6    7   0.185  -0.067  -0.151
    1UNL     C7    8   0.201  -0.024  -0.008
    1UNL     C8    9   0.082  -0.047   0.082
    1UNL     C9   10   0.086  -0.186   0.133
    1UNL     O1   11   0.125  -0.276   0.057
    1UNL     O2   12   0.075  -0.207   0.270
    1UNL    C10   13   0.101  -0.341   0.298
    1UNL    C11   14  -0.055  -0.021   0.008
    1UNL    C12   15  -0.127   0.109   0.053
    1UNL    C13   16  -0.185   0.159  -0.078
    1UNL     O3   17  -0.150   0.294  -0.092
    1UNL    C14   18  -0.201   0.361  -0.217
    1UNL     O4   19  -0.147   0.087  -0.193
    1UNL    C15   20  -0.055  -0.017  -0.157
    1UNL     N2   21  -0.111  -0.154  -0.194
    1UNL    C16   22  -0.185  -0.203  -0.078
    1UNL    C17   23  -0.281  -0.304  -0.079
    1UNL    C18   24  -0.351  -0.332   0.036
    1UNL    C19   25  -0.327  -0.249   0.149
    1UNL    C20   26  -0.229  -0.150   0.150
    1UNL    C21   27  -0.146  -0.136   0.036
    1UNL     H1   28   0.449   0.341   0.015
    1UNL     H2   29   0.414   0.336   0.184
    1UNL     H3   30   0.301   0.393   0.060
    1UNL     H4   31   0.346   0.109   0.170
    1UNL     H5   32   0.292   0.240  -0.200
    1UNL     H6   33   0.192   0.312  -0.087
    1UNL     H7   34   0.019   0.202  -0.172
    1UNL     H8   35   0.082  -0.001  -0.319
    1UNL     H9   36   0.272  -0.062  -0.215
    1UNL    H10   37   0.149  -0.174  -0.141
    1UNL    H11   38   0.283  -0.078   0.042
    1UNL    H12   39   0.083   0.029   0.165
    1UNL    H13   40   0.100  -0.366   0.396
    1UNL    H14   41   0.024  -0.398   0.238
    1UNL    H15   42   0.202  -0.371   0.254
    1UNL    H16   43  -0.061   0.188   0.088
    1UNL    H17   44  -0.202   0.089   0.130
    1UNL    H18   45  -0.291   0.149  -0.070
    1UNL    H19   46  -0.106   0.370  -0.278
    1UNL    H20   47  -0.271   0.295  -0.263
    1UNL    H21   48  -0.234   0.461  -0.187
    1UNL    H22   49  -0.163  -0.143  -0.280
    1UNL    H23   50  -0.309  -0.349  -0.174
    1UNL    H24   51  -0.425  -0.407   0.028
    1UNL    H25   52  -0.386  -0.261   0.236
    1UNL    H26   53  -0.212  -0.085   0.232
   0.00000   0.00000   0.00000   0.00000   0.00000   0.00000   0.00000   0.00000   0.00000
Generated with MDTraj, t= 81.0
 53
    1UNL     C1    1   0.390   0.308   0.107
    1UNL     C2    2   0.321   0.175   0.101
    1UNL     C3    3   0.240   0.137  -0.001
    1UNL     C4    4   0.203   0.227  -0.115
    1UNL     N1    5   0.100   0.167  -0.202
    1UNL     C5    6   0.070   0.017  -0.209
    1UNL     C6    7   0.190  -0.065  -0.140
    1UNL     C7    8   0.207  -0.010   0.004
    1UNL     C8    9   0.082  -0.053   0.079
    1UNL     C9   10   0.098  -0.194   0.128
    1UNL     O1   11   0.092  -0.282   0.042
    1UNL     O2   12   0.110  -0.213   0.258
    1UNL    C10   13   0.124  -0.346   0.288
    1UNL    C11   14  -0.062  -0.015   0.012
    1UNL    C12   15  -0.112   0.129   0.042
    1UNL    C13   16  -0.182   0.179  -0.090
    1UNL     O3   17  -0.130   0.304  -0.127
    1UNL    C14   18  -0.185   0.346  -0.246
    1UNL     O4   19  -0.161   0.081  -0.196
    1UNL    C15   20  -0.066  -0.017  -0.144
    1UNL     N2   21  -0.107  -0.151  -0.179
    1UNL    C16   22  -0.193  -0.196  -0.080
    1UNL    C17   23  -0.283  -0.310  -0.074
    1UNL    C18   24  -0.354  -0.346   0.039
    1UNL    C19   25  -0.323  -0.273   0.158
    1UNL    C20   26  -0.240  -0.162   0.155
    1UNL    C21   27  -0.172  -0.126   0.035
    1UNL     H1   28   0.364   0.373   0.023
    1UNL     H2   29   0.492   0.284   0.113
    1UNL     H3   30   0.363   0.362   0.195
    1UNL     H4   31   0.346   0.106   0.180
    1UNL     H5   32   0.293   0.258  -0.167
    1UNL     H6   33   0.166   0.323  -0.081
    1UNL     H7   34   0.011   0.217  -0.198
    1UNL     H8   35   0.051  -0.017  -0.308
    1UNL     H9   36   0.280  -0.066  -0.195
    1UNL    H10   37   0.148  -0.169  -0.119
    1UNL    H11   38   0.288  -0.055   0.065
    1UNL    H12   39   0.059   0.003   0.174
    1UNL    H13   40   0.151  -0.357   0.385
    1UNL    H14   41   0.043  -0.408   0.245
    1UNL    H15   42   0.212  -0.384   0.230
    1UNL    H16   43  -0.029   0.192   0.066
    1UNL    H17   44  -0.182   0.129   0.127
    1UNL    H18   45  -0.290   0.194  -0.078
    1UNL    H19   46  -0.200   0.254  -0.306
    1UNL    H20   47  -0.280   0.393  -0.224
    1UNL    H21   48  -0.103   0.409  -0.286
    1UNL    H22   49  -0.147  -0.155  -0.272
    1UNL    H23   50  -0.302  -0.355  -0.170
    1UNL    H24   51  -0.436  -0.420   0.038
    1UNL    H25   52  -0.364  -0.317   0.249
    1UNL    H26   53  -0.214  -0.106   0.247
   0.00000   0.00000   0.00000   0.00000   0.00000   0.00000   0.00000   0.00000   0.00000
Generated with MDTraj, t= 82.0
 53
    1UNL     C1    1   0.350   0.312   0.133
    1UNL     C2    2   0.318   0.164   0.106
    1UNL     C3    3   0.253   0.120  -0.005
    1UNL     C4    4   0.200   0.214  -0.108
    1UNL     N1    5   0.110   0.160  -0.206
    1UNL     C5    6   0.087   0.014  -0.221
    1UNL     C6    7   0.187  -0.080  -0.148
    1UNL     C7    8   0.196  -0.027  -0.007
    1UNL     C8    9   0.073  -0.052   0.074
    1UNL     C9   10   0.075  -0.198   0.120
    1UNL     O1   11   0.049  -0.292   0.044
    1UNL     O2   12   0.116  -0.217   0.255
    1UNL    C10   13   0.126  -0.352   0.285
    1UNL    C11   14  -0.064  -0.008   0.005
    1UNL    C12   15  -0.105   0.138   0.038
    1UNL    C13   16  -0.184   0.186  -0.088
    1UNL     O3   17  -0.158   0.321  -0.125
    1UNL    C14   18  -0.195   0.347  -0.256
    1UNL     O4   19  -0.148   0.090  -0.199
    1UNL    C15   20  -0.052  -0.013  -0.153
    1UNL     N2   21  -0.109  -0.150  -0.175
    1UNL    C16   22  -0.187  -0.196  -0.071
    1UNL    C17   23  -0.258  -0.312  -0.068
    1UNL    C18   24  -0.316  -0.339   0.048
    1UNL    C19   25  -0.304  -0.258   0.166
    1UNL    C20   26  -0.218  -0.147   0.163
    1UNL    C21   27  -0.166  -0.114   0.043
    1UNL     H1   28   0.266   0.362   0.184
    1UNL     H2   29   0.368   0.365   0.042
    1UNL     H3   30   0.434   0.337   0.191
    1UNL     H4   31   0.327   0.093   0.187
    1UNL     H5   32   0.280   0.251  -0.170
    1UNL     H6   33   0.158   0.304  -0.064
    1UNL     H7   34   0.018   0.204  -0.182
    1UNL     H8   35   0.074  -0.012  -0.323
    1UNL     H9   36   0.280  -0.070  -0.194
    1UNL    H10   37   0.151  -0.190  -0.145
    1UNL    H11   38   0.275  -0.085   0.046
    1UNL    H12   39   0.067   0.013   0.164
    1UNL    H13   40   0.157  -0.370   0.382
    1UNL    H14   41   0.047  -0.413   0.241
    1UNL    H15   42   0.209  -0.385   0.220
    1UNL    H16   43  -0.016   0.197   0.040
    1UNL    H17   44  -0.150   0.153   0.137
    1UNL    H18   45  -0.295   0.187  -0.068
    1UNL    H19   46  -0.284   0.288  -0.285
    1UNL    H20   47  -0.221   0.451  -0.270
    1UNL    H21   48  -0.107   0.315  -0.313
    1UNL    H22   49  -0.139  -0.158  -0.272
    1UNL    H23   50  -0.271  -0.356  -0.165
    1UNL    H24   51  -0.387  -0.420   0.049
    1UNL    H25   52  -0.350  -0.289   0.256
    1UNL    H26   53  -0.189  -0.092   0.248
   0.00000   0.00000   0.00000   0.00000   0.00000   0.00000   0.00000   0.00000   0.00000
Generated with MDTraj, t= 83.0
 53
    1UNL     C1    1   0.342   0.309   0.155
    1UNL     C2    2   0.286   0.173   0.125
    1UNL     C3    3   0.236   0.129   0.006
    1UNL     C4    4   0.225   0.204  -0.124
    1UNL     N1    5   0.113   0.157  -0.212
    1UNL     C5    6   0.075   0.015  -0.225
    1UNL     C6    7   0.189  -0.072  -0.159
    1UNL     C7    8   0.207  -0.022  -0.012
    1UNL     C8    9   0.087  -0.056   0.073
    1UNL     C9   10   0.092  -0.199   0.116
    1UNL     O1   11   0.094  -0.287   0.033
    1UNL     O2   12   0.104  -0.216   0.253
    1UNL    C10   13   0.097  -0.345   0.286
    1UNL    C11   14  -0.055  -0.014   0.007
    1UNL    C12   15  -0.107   0.130   0.034
    1UNL    C13   16  -0.168   0.180  -0.093
    1UNL     O3   17  -0.134   0.308  -0.130
    1UNL    C14   18  -0.219   0.352  -0.238
    1UNL     O4   19  -0.158   0.084  -0.200
    1UNL    C15   20  -0.058  -0.018  -0.155
    1UNL     N2   21  -0.117  -0.147  -0.189
    1UNL    C16   22  -0.184  -0.198  -0.078
    1UNL    C17   23  -0.264  -0.313  -0.056
    1UNL    C18   24  -0.333  -0.330   0.062
    1UNL    C19   25  -0.304  -0.251   0.173
    1UNL    C20   26  -0.210  -0.141   0.161
    1UNL    C21   27  -0.158  -0.120   0.037
    1UNL     H1   28   0.355   0.324   0.262
    1UNL     H2   29   0.274   0.388   0.126
    1UNL     H3   30   0.433   0.328   0.108
    1UNL     H4   31   0.285   0.100   0.204
    1UNL     H5   32   0.320   0.200  -0.176
    1UNL     H6   33   0.215   0.310  -0.105
    1UNL     H7   34   0.017   0.210  -0.205
    1UNL     H8   35   0.070   0.001  -0.330
    1UNL     H9   36   0.273  -0.071  -0.220
    1UNL    H10   37   0.152  -0.180  -0.153
    1UNL    H11   38   0.304  -0.066   0.020
    1UNL    H12   39   0.080   0.012   0.159
    1UNL    H13   40   0.145  -0.355   0.381
    1UNL    H14   41   0.000  -0.391   0.276
    1UNL    H15   42   0.158  -0.397   0.212
    1UNL    H16   43  -0.034   0.200   0.072
    1UNL    H17   44  -0.181   0.134   0.114
    1UNL    H18   45  -0.280   0.194  -0.070
    1UNL    H19   46  -0.299   0.416  -0.198
    1UNL    H20   47  -0.175   0.414  -0.314
    1UNL    H21   48  -0.264   0.264  -0.288
    1UNL    H22   49  -0.148  -0.167  -0.283
    1UNL    H23   50  -0.279  -0.380  -0.141
    1UNL    H24   51  -0.402  -0.412   0.068
    1UNL    H25   52  -0.330  -0.277   0.275
    1UNL    H26   53  -0.177  -0.097   0.256
   0.00000   0.00000   0.00000   0.00000   0.00000   0.00000   0.00000   0.00000   0.00000
Generated with MDTraj, t= 84.0
 53
    1UNL     C1    1   0.300   0.343   0.107
    1UNL     C2    2   0.308   0.197   0.088
    1UNL     C3    3   0.247   0.131  -0.012
    1UNL     C4    4   0.217   0.208  -0.137
    1UNL     N1    5   0.108   0.150  -0.222
    1UNL     C5    6   0.080   0.005  -0.221
    1UNL     C6    7   0.198  -0.075  -0.158
    1UNL     C7    8   0.219  -0.020  -0.011
    1UNL     C8    9   0.095  -0.057   0.079
    1UNL     C9   10   0.092  -0.203   0.121
    1UNL     O1   11   0.133  -0.288   0.049
    1UNL     O2   12   0.058  -0.227   0.253
    1UNL    C10   13   0.074  -0.361   0.281
    1UNL    C11   14  -0.044  -0.017   0.016
    1UNL    C12   15  -0.090   0.125   0.055
    1UNL    C13   16  -0.166   0.176  -0.067
    1UNL     O3   17  -0.138   0.307  -0.103
    1UNL    C14   18  -0.195   0.341  -0.227
    1UNL     O4   19  -0.142   0.092  -0.184
    1UNL    C15   20  -0.052  -0.017  -0.148
    1UNL     N2   21  -0.115  -0.145  -0.187
    1UNL    C16   22  -0.184  -0.192  -0.071
    1UNL    C17   23  -0.279  -0.297  -0.070
    1UNL    C18   24  -0.342  -0.330   0.051
    1UNL    C19   25  -0.325  -0.253   0.161
    1UNL    C20   26  -0.225  -0.153   0.157
    1UNL    C21   27  -0.155  -0.123   0.045
    1UNL     H1   28   0.358   0.367   0.193
    1UNL     H2   29   0.203   0.383   0.139
    1UNL     H3   30   0.343   0.394   0.023
    1UNL     H4   31   0.339   0.138   0.173
    1UNL     H5   32   0.311   0.207  -0.192
    1UNL     H6   33   0.195   0.313  -0.122
    1UNL     H7   34   0.029   0.204  -0.195
    1UNL     H8   35   0.070  -0.026  -0.321
    1UNL     H9   36   0.285  -0.064  -0.215
    1UNL    H10   37   0.167  -0.183  -0.162
    1UNL    H11   38   0.302  -0.079   0.035
    1UNL    H12   39   0.086  -0.007   0.176
    1UNL    H13   40   0.038  -0.392   0.382
    1UNL    H14   41   0.033  -0.424   0.202
    1UNL    H15   42   0.180  -0.382   0.270
    1UNL    H16   43  -0.010   0.195   0.083
    1UNL    H17   44  -0.152   0.126   0.143
    1UNL    H18   45  -0.279   0.169  -0.044
    1UNL    H19   46  -0.303   0.330  -0.208
    1UNL    H20   47  -0.169   0.437  -0.268
    1UNL    H21   48  -0.181   0.267  -0.308
    1UNL    H22   49  -0.127  -0.164  -0.288
    1UNL    H23   50  -0.293  -0.342  -0.165
    1UNL    H24   51  -0.402  -0.418   0.051
    1UNL    H25   52  -0.376  -0.280   0.255
    1UNL    H26   53  -0.193  -0.107   0.253
   0.00000   0.00000   0.00000   0.00000   0.00000   0.00000   0.00000   0.00000   0.00000
Generated with MDTraj, t= 85.0
 53
    1UNL     C1    1   0.314   0.348   0.083
    1UNL     C2    2   0.264   0.209   0.091
    1UNL     C3    3   0.233   0.138  -0.019
    1UNL     C4    4   0.230   0.203  -0.156
    1UNL     N1    5   0.108   0.158  -0.226
    1UNL     C5    6   0.087   0.014  -0.218
    1UNL     C6    7   0.197  -0.070  -0.148
    1UNL     C7    8   0.213  -0.015  -0.008
    1UNL     C8    9   0.094  -0.057   0.073
    1UNL     C9   10   0.111  -0.204   0.123
    1UNL     O1   11   0.175  -0.284   0.064
    1UNL     O2   12   0.047  -0.228   0.240
    1UNL    C10   13   0.039  -0.368   0.257
    1UNL    C11   14  -0.051  -0.025   0.010
    1UNL    C12   15  -0.105   0.112   0.055
    1UNL    C13   16  -0.170   0.173  -0.074
    1UNL     O3   17  -0.128   0.308  -0.093
    1UNL    C14   18  -0.183   0.364  -0.202
    1UNL     O4   19  -0.143   0.082  -0.187
    1UNL    C15   20  -0.048  -0.027  -0.149
    1UNL     N2   21  -0.103  -0.166  -0.168
    1UNL    C16   22  -0.182  -0.207  -0.062
    1UNL    C17   23  -0.288  -0.294  -0.071
    1UNL    C18   24  -0.352  -0.317   0.048
    1UNL    C19   25  -0.317  -0.251   0.168
    1UNL    C20   26  -0.216  -0.157   0.167
    1UNL    C21   27  -0.151  -0.127   0.050
    1UNL     H1   28   0.338   0.386   0.177
    1UNL     H2   29   0.251   0.427   0.045
    1UNL     H3   30   0.406   0.336   0.023
    1UNL     H4   31   0.259   0.159   0.186
    1UNL     H5   32   0.312   0.168  -0.218
    1UNL     H6   33   0.232   0.312  -0.146
    1UNL     H7   34   0.028   0.215  -0.179
    1UNL     H8   35   0.080  -0.019  -0.318
    1UNL     H9   36   0.288  -0.053  -0.203
    1UNL    H10   37   0.168  -0.176  -0.156
    1UNL    H11   38   0.299  -0.062   0.044
    1UNL    H12   39   0.098  -0.004   0.169
    1UNL    H13   40  -0.059  -0.407   0.305
    1UNL    H14   41   0.046  -0.420   0.159
    1UNL    H15   42   0.126  -0.400   0.311
    1UNL    H16   43  -0.022   0.175   0.087
    1UNL    H17   44  -0.175   0.111   0.137
    1UNL    H18   45  -0.287   0.172  -0.067
    1UNL    H19   46  -0.276   0.314  -0.233
    1UNL    H20   47  -0.193   0.469  -0.181
    1UNL    H21   48  -0.125   0.366  -0.299
    1UNL    H22   49  -0.157  -0.180  -0.254
    1UNL    H23   50  -0.316  -0.342  -0.166
    1UNL    H24   51  -0.434  -0.388   0.055
    1UNL    H25   52  -0.368  -0.266   0.258
    1UNL    H26   53  -0.189  -0.113   0.254
   0.00000   0.00000   0.00000   0.00000   0.00000   0.00000   0.00000   0.00000   0.00000
Generated with MDTraj, t= 86.0
 53
    1UNL     C1    1   0.287   0.344   0.098
    1UNL     C2    2   0.277   0.195   0.093
    1UNL     C3    3   0.241   0.130  -0.020
    1UNL     C4    4   0.225   0.202  -0.150
    1UNL     N1    5   0.110   0.144  -0.224
    1UNL     C5    6   0.078   0.002  -0.214
    1UNL     C6    7   0.197  -0.080  -0.144
    1UNL     C7    8   0.211  -0.014  -0.006
    1UNL     C8    9   0.088  -0.055   0.083
    1UNL     C9   10   0.114  -0.201   0.122
    1UNL     O1   11   0.181  -0.281   0.063
    1UNL     O2   12   0.033  -0.241   0.225
    1UNL    C10   13   0.056  -0.369   0.244
    1UNL    C11   14  -0.053  -0.019   0.020
    1UNL    C12   15  -0.085   0.125   0.049
    1UNL    C13   16  -0.162   0.186  -0.072
    1UNL     O3   17  -0.118   0.317  -0.107
    1UNL    C14   18  -0.187   0.349  -0.222
    1UNL     O4   19  -0.144   0.095  -0.179
    1UNL    C15   20  -0.056  -0.013  -0.139
    1UNL     N2   21  -0.109  -0.138  -0.180
    1UNL    C16   22  -0.182  -0.201  -0.069
    1UNL    C17   23  -0.275  -0.306  -0.058
    1UNL    C18   24  -0.345  -0.333   0.059
    1UNL    C19   25  -0.310  -0.262   0.176
    1UNL    C20   26  -0.233  -0.151   0.166
    1UNL    C21   27  -0.166  -0.118   0.044
    1UNL     H1   28   0.324   0.373   0.190
    1UNL     H2   29   0.202   0.406   0.086
    1UNL     H3   30   0.362   0.365   0.019
    1UNL     H4   31   0.290   0.135   0.183
    1UNL     H5   32   0.323   0.190  -0.199
    1UNL     H6   33   0.210   0.309  -0.135
    1UNL     H7   34   0.022   0.192  -0.207
    1UNL     H8   35   0.070  -0.036  -0.312
    1UNL     H9   36   0.282  -0.079  -0.216
    1UNL    H10   37   0.167  -0.181  -0.133
    1UNL    H11   38   0.306  -0.046   0.044
    1UNL    H12   39   0.105  -0.003   0.177
    1UNL    H13   40   0.016  -0.393   0.353
    1UNL    H14   41  -0.008  -0.427   0.174
    1UNL    H15   42   0.162  -0.383   0.229
    1UNL    H16   43   0.006   0.186   0.063
    1UNL    H17   44  -0.154   0.139   0.131
    1UNL    H18   45  -0.277   0.192  -0.059
    1UNL    H19   46  -0.287   0.389  -0.203
    1UNL    H20   47  -0.125   0.417  -0.282
    1UNL    H21   48  -0.211   0.270  -0.299
    1UNL    H22   49  -0.153  -0.117  -0.270
    1UNL    H23   50  -0.288  -0.370  -0.141
    1UNL    H24   51  -0.424  -0.406   0.061
    1UNL    H25   52  -0.364  -0.280   0.271
    1UNL    H26   53  -0.224  -0.079   0.252
   0.00000   0.00000   0.00000   0.00000   0.00000   0.00000   0.00000   0.00000   0.00000
Generated with MDTraj, t= 87.0
 53
    1UNL     C1    1   0.282   0.343   0.128
    1UNL     C2    2   0.274   0.192   0.109
    1UNL     C3    3   0.237   0.135  -0.010
    1UNL     C4    4   0.220   0.208  -0.140
    1UNL     N1    5   0.109   0.159  -0.217
    1UNL     C5    6   0.086   0.014  -0.221
    1UNL     C6    7   0.192  -0.070  -0.147
    1UNL     C7    8   0.210  -0.019  -0.003
    1UNL     C8    9   0.087  -0.055   0.080
    1UNL     C9   10   0.091  -0.209   0.106
    1UNL     O1   11   0.130  -0.297   0.032
    1UNL     O2   12   0.049  -0.236   0.233
    1UNL    C10   13   0.064  -0.373   0.253
    1UNL    C11   14  -0.044  -0.016   0.007
    1UNL    C12   15  -0.093   0.123   0.046
    1UNL    C13   16  -0.169   0.176  -0.080
    1UNL     O3   17  -0.127   0.311  -0.111
    1UNL    C14   18  -0.173   0.346  -0.244
    1UNL     O4   19  -0.151   0.082  -0.186
    1UNL    C15   20  -0.056  -0.019  -0.151
    1UNL     N2   21  -0.116  -0.152  -0.175
    1UNL    C16   22  -0.179  -0.201  -0.062
    1UNL    C17   23  -0.276  -0.306  -0.054
    1UNL    C18   24  -0.327  -0.322   0.076
    1UNL    C19   25  -0.291  -0.236   0.178
    1UNL    C20   26  -0.200  -0.138   0.169
    1UNL    C21   27  -0.145  -0.120   0.043
    1UNL     H1   28   0.324   0.365   0.224
    1UNL     H2   29   0.198   0.406   0.128
    1UNL     H3   30   0.350   0.375   0.050
    1UNL     H4   31   0.281   0.126   0.194
    1UNL     H5   32   0.307   0.185  -0.204
    1UNL     H6   33   0.220   0.316  -0.126
    1UNL     H7   34   0.029   0.204  -0.175
    1UNL     H8   35   0.096  -0.008  -0.326
    1UNL     H9   36   0.291  -0.062  -0.201
    1UNL    H10   37   0.161  -0.168  -0.165
    1UNL    H11   38   0.302  -0.069   0.035
    1UNL    H12   39   0.098  -0.008   0.177
    1UNL    H13   40  -0.002  -0.424   0.341
    1UNL    H14   41   0.023  -0.424   0.163
    1UNL    H15   42   0.170  -0.387   0.258
    1UNL    H16   43  -0.010   0.193   0.055
    1UNL    H17   44  -0.152   0.120   0.137
    1UNL    H18   45  -0.280   0.169  -0.056
    1UNL    H19   46  -0.214   0.446  -0.243
    1UNL    H20   47  -0.099   0.337  -0.325
    1UNL    H21   48  -0.256   0.282  -0.285
    1UNL    H22   49  -0.156  -0.173  -0.268
    1UNL    H23   50  -0.311  -0.374  -0.132
    1UNL    H24   51  -0.394  -0.404   0.099
    1UNL    H25   52  -0.356  -0.246   0.261
    1UNL    H26   53  -0.176  -0.061   0.239
   0.00000   0.00000   0.00000   0.00000   0.00000   0.00000   0.00000   0.00000   0.00000
Generated with MDTraj, t= 88.0
 53
    1UNL     C1    1   0.296   0.334   0.146
    1UNL     C2    2   0.277   0.192   0.116
    1UNL     C3    3   0.227   0.137   0.000
    1UNL     C4    4   0.219   0.209  -0.132
    1UNL     N1    5   0.112   0.153  -0.229
    1UNL     C5    6   0.082   0.006  -0.217
    1UNL     C6    7   0.199  -0.078  -0.149
    1UNL     C7    8   0.216  -0.012  -0.005
    1UNL     C8    9   0.091  -0.061   0.077
    1UNL     C9   10   0.099  -0.205   0.111
    1UNL     O1   11   0.091  -0.288   0.024
    1UNL     O2   12   0.100  -0.238   0.236
    1UNL    C10   13   0.071  -0.372   0.249
    1UNL    C11   14  -0.046  -0.015   0.016
    1UNL    C12   15  -0.087   0.134   0.047
    1UNL    C13   16  -0.165   0.183  -0.086
    1UNL     O3   17  -0.137   0.314  -0.134
    1UNL    C14   18  -0.201   0.338  -0.256
    1UNL     O4   19  -0.142   0.083  -0.187
    1UNL    C15   20  -0.050  -0.021  -0.141
    1UNL     N2   21  -0.103  -0.153  -0.175
    1UNL    C16   22  -0.181  -0.192  -0.062
    1UNL    C17   23  -0.268  -0.291  -0.055
    1UNL    C18   24  -0.332  -0.322   0.066
    1UNL    C19   25  -0.313  -0.249   0.180
    1UNL    C20   26  -0.219  -0.151   0.171
    1UNL    C21   27  -0.161  -0.110   0.052
    1UNL     H1   28   0.329   0.343   0.250
    1UNL     H2   29   0.220   0.408   0.140
    1UNL     H3   30   0.374   0.363   0.079
    1UNL     H4   31   0.312   0.125   0.194
    1UNL     H5   32   0.319   0.208  -0.181
    1UNL     H6   33   0.200   0.316  -0.118
    1UNL     H7   34   0.021   0.209  -0.205
    1UNL     H8   35   0.069  -0.021  -0.321
    1UNL     H9   36   0.291  -0.078  -0.214
    1UNL    H10   37   0.178  -0.180  -0.147
    1UNL    H11   38   0.306  -0.060   0.036
    1UNL    H12   39   0.095  -0.028   0.180
    1UNL    H13   40   0.069  -0.400   0.363
    1UNL    H14   41  -0.030  -0.396   0.213
    1UNL    H15   42   0.148  -0.423   0.198
    1UNL    H16   43   0.001   0.196   0.058
    1UNL    H17   44  -0.147   0.138   0.138
    1UNL    H18   45  -0.273   0.171  -0.061
    1UNL    H19   46  -0.124   0.390  -0.310
    1UNL    H20   47  -0.243   0.254  -0.312
    1UNL    H21   48  -0.288   0.408  -0.245
    1UNL    H22   49  -0.130  -0.153  -0.275
    1UNL    H23   50  -0.277  -0.366  -0.132
    1UNL    H24   51  -0.378  -0.420   0.073
    1UNL    H25   52  -0.357  -0.270   0.277
    1UNL    H26   53  -0.191  -0.097   0.261
   0.00000   0.00000   0.00000   0.00000   0.00000   0.00000   0.00000   0.00000   0.00000
Generated with MDTraj, t= 89.0
 53
    1UNL     C1    1   0.309   0.347   0.121
    1UNL     C2    2   0.288   0.198   0.116
    1UNL     C3    3   0.244   0.129   0.007
    1UNL     C4    4   0.226   0.202  -0.121
    1UNL     N1    5   0.117   0.154  -0.207
    1UNL     C5    6   0.089   0.010  -0.213
    1UNL     C6    7   0.199  -0.073  -0.149
    1UNL     C7    8   0.212  -0.023  -0.004
    1UNL     C8    9   0.082  -0.059   0.080
    1UNL     C9   10   0.086  -0.210   0.110
    1UNL     O1   11   0.091  -0.297   0.021
    1UNL     O2   12   0.089  -0.234   0.241
    1UNL    C10   13   0.120  -0.368   0.274
    1UNL    C11   14  -0.055  -0.013   0.013
    1UNL    C12   15  -0.098   0.133   0.044
    1UNL    C13   16  -0.171   0.172  -0.084
    1UNL     O3   17  -0.151   0.308  -0.116
    1UNL    C14   18  -0.205   0.347  -0.240
    1UNL     O4   19  -0.136   0.084  -0.195
    1UNL    C15   20  -0.046  -0.023  -0.153
    1UNL     N2   21  -0.111  -0.156  -0.179
    1UNL    C16   22  -0.184  -0.199  -0.071
    1UNL    C17   23  -0.276  -0.302  -0.062
    1UNL    C18   24  -0.343  -0.323   0.060
    1UNL    C19   25  -0.322  -0.241   0.166
    1UNL    C20   26  -0.228  -0.135   0.159
    1UNL    C21   27  -0.165  -0.107   0.040
    1UNL     H1   28   0.350   0.375   0.219
    1UNL     H2   29   0.234   0.419   0.103
    1UNL     H3   30   0.380   0.372   0.048
    1UNL     H4   31   0.314   0.144   0.205
    1UNL     H5   32   0.319   0.177  -0.178
    1UNL     H6   33   0.230   0.312  -0.116
    1UNL     H7   34   0.033   0.201  -0.195
    1UNL     H8   35   0.079  -0.014  -0.320
    1UNL     H9   36   0.293  -0.052  -0.204
    1UNL    H10   37   0.182  -0.177  -0.166
    1UNL    H11   38   0.297  -0.083   0.032
    1UNL    H12   39   0.098  -0.015   0.177
    1UNL    H13   40   0.210  -0.383   0.343
    1UNL    H14   41   0.033  -0.418   0.317
    1UNL    H15   42   0.145  -0.410   0.182
    1UNL    H16   43  -0.016   0.202   0.055
    1UNL    H17   44  -0.166   0.147   0.130
    1UNL    H18   45  -0.278   0.158  -0.067
    1UNL    H19   46  -0.172   0.275  -0.312
    1UNL    H20   47  -0.311   0.368  -0.236
    1UNL    H21   48  -0.158   0.447  -0.260
    1UNL    H22   49  -0.121  -0.189  -0.275
    1UNL    H23   50  -0.287  -0.375  -0.140
    1UNL    H24   51  -0.402  -0.413   0.075
    1UNL    H25   52  -0.378  -0.259   0.258
    1UNL    H26   53  -0.208  -0.085   0.254
   0.00000   0.00000   0.00000   0.00000   0.00000   0.00000   0.00000   0.00000   0.00000
Generated with MDTraj, t= 90.0
 53
    1UNL     C1    1   0.325   0.330   0.120
    1UNL     C2    2   0.278   0.188   0.112
    1UNL     C3    3   0.240   0.130  -0.005
    1UNL     C4    4   0.221   0.208  -0.133
    1UNL     N1    5   0.109   0.153  -0.217
    1UNL     C5    6   0.079   0.009  -0.223
    1UNL     C6    7   0.192  -0.074  -0.153
    1UNL     C7    8   0.207  -0.022  -0.008
    1UNL     C8    9   0.083  -0.053   0.084
    1UNL     C9   10   0.100  -0.194   0.132
    1UNL     O1   11   0.116  -0.281   0.046
    1UNL     O2   12   0.109  -0.225   0.267
    1UNL    C10   13   0.122  -0.361   0.288
    1UNL    C11   14  -0.055  -0.020   0.010
    1UNL    C12   15  -0.107   0.121   0.046
    1UNL    C13   16  -0.172   0.178  -0.077
    1UNL     O3   17  -0.115   0.305  -0.120
    1UNL    C14   18  -0.197   0.346  -0.227
    1UNL     O4   19  -0.160   0.082  -0.192
    1UNL    C15   20  -0.061  -0.011  -0.153
    1UNL     N2   21  -0.112  -0.152  -0.181
    1UNL    C16   22  -0.182  -0.197  -0.074
    1UNL    C17   23  -0.288  -0.296  -0.082
    1UNL    C18   24  -0.356  -0.321   0.034
    1UNL    C19   25  -0.325  -0.252   0.149
    1UNL    C20   26  -0.226  -0.153   0.157
    1UNL    C21   27  -0.157  -0.126   0.042
    1UNL     H1   28   0.351   0.355   0.224
    1UNL     H2   29   0.263   0.410   0.085
    1UNL     H3   30   0.404   0.340   0.054
    1UNL     H4   31   0.284   0.127   0.201
    1UNL     H5   32   0.314   0.218  -0.194
    1UNL     H6   33   0.190   0.310  -0.104
    1UNL     H7   34   0.023   0.208  -0.178
    1UNL     H8   35   0.061  -0.025  -0.328
    1UNL     H9   36   0.284  -0.074  -0.210
    1UNL    H10   37   0.161  -0.180  -0.147
    1UNL    H11   38   0.293  -0.077   0.034
    1UNL    H12   39   0.089   0.007   0.173
    1UNL    H13   40   0.179  -0.388   0.380
    1UNL    H14   41   0.024  -0.399   0.279
    1UNL    H15   42   0.185  -0.395   0.208
    1UNL    H16   43  -0.033   0.191   0.082
    1UNL    H17   44  -0.186   0.121   0.124
    1UNL    H18   45  -0.275   0.196  -0.054
    1UNL    H19   46  -0.231   0.250  -0.263
    1UNL    H20   47  -0.279   0.407  -0.189
    1UNL    H21   48  -0.141   0.412  -0.299
    1UNL    H22   49  -0.132  -0.172  -0.279
    1UNL    H23   50  -0.305  -0.352  -0.171
    1UNL    H24   51  -0.441  -0.386   0.035
    1UNL    H25   52  -0.393  -0.260   0.231
    1UNL    H26   53  -0.213  -0.103   0.249
   0.00000   0.00000   0.00000   0.00000   0.00000   0.00000   0.00000   0.00000   0.00000
Generated with MDTraj, t= 91.0
 53
    1UNL     C1    1   0.318   0.333   0.108
    1UNL     C2    2   0.288   0.192   0.103
    1UNL     C3    3   0.254   0.129  -0.012
    1UNL     C4    4   0.216   0.213  -0.136
    1UNL     N1    5   0.110   0.149  -0.212
    1UNL     C5    6   0.079   0.005  -0.226
    1UNL     C6    7   0.202  -0.077  -0.163
    1UNL     C7    8   0.219  -0.021  -0.017
    1UNL     C8    9   0.091  -0.059   0.066
    1UNL     C9   10   0.096  -0.196   0.126
    1UNL     O1   11   0.097  -0.292   0.052
    1UNL     O2   12   0.090  -0.200   0.260
    1UNL    C10   13   0.106  -0.327   0.307
    1UNL    C11   14  -0.054  -0.026   0.005
    1UNL    C12   15  -0.103   0.111   0.044
    1UNL    C13   16  -0.173   0.176  -0.070
    1UNL     O3   17  -0.138   0.310  -0.085
    1UNL    C14   18  -0.168   0.350  -0.211
    1UNL     O4   19  -0.147   0.096  -0.190
    1UNL    C15   20  -0.053  -0.013  -0.155
    1UNL     N2   21  -0.116  -0.145  -0.189
    1UNL    C16   22  -0.190  -0.199  -0.085
    1UNL    C17   23  -0.289  -0.301  -0.078
    1UNL    C18   24  -0.354  -0.329   0.035
    1UNL    C19   25  -0.319  -0.272   0.159
    1UNL    C20   26  -0.227  -0.172   0.153
    1UNL    C21   27  -0.165  -0.138   0.037
    1UNL     H1   28   0.387   0.349   0.189
    1UNL     H2   29   0.233   0.397   0.125
    1UNL     H3   30   0.355   0.362   0.015
    1UNL     H4   31   0.305   0.134   0.193
    1UNL     H5   32   0.307   0.214  -0.201
    1UNL     H6   33   0.191   0.316  -0.109
    1UNL     H7   34   0.027   0.197  -0.192
    1UNL     H8   35   0.069  -0.016  -0.336
    1UNL     H9   36   0.290  -0.067  -0.221
    1UNL    H10   37   0.175  -0.187  -0.151
    1UNL    H11   38   0.307  -0.062   0.032
    1UNL    H12   39   0.096   0.005   0.153
    1UNL    H13   40   0.038  -0.347   0.390
    1UNL    H14   41   0.084  -0.390   0.226
    1UNL    H15   42   0.207  -0.343   0.347
    1UNL    H16   43  -0.019   0.174   0.072
    1UNL    H17   44  -0.163   0.108   0.136
    1UNL    H18   45  -0.274   0.170  -0.048
    1UNL    H19   46  -0.088   0.305  -0.269
    1UNL    H20   47  -0.259   0.297  -0.242
    1UNL    H21   48  -0.182   0.463  -0.198
    1UNL    H22   49  -0.170  -0.141  -0.275
    1UNL    H23   50  -0.313  -0.360  -0.168
    1UNL    H24   51  -0.439  -0.395   0.041
    1UNL    H25   52  -0.364  -0.290   0.258
    1UNL    H26   53  -0.199  -0.109   0.238
   0.00000   0.00000   0.00000   0.00000   0.00000   0.00000   0.00000   0.00000   0.00000
Generated with MDTraj, t= 92.0
 53
    1UNL     C1    1   0.329   0.320   0.110
    1UNL     C2    2   0.284   0.177   0.096
    1UNL     C3    3   0.256   0.114  -0.019
    1UNL     C4    4   0.243   0.191  -0.145
    1UNL     N1    5   0.119   0.160  -0.217
    1UNL     C5    6   0.077   0.017  -0.222
    1UNL     C6    7   0.177  -0.080  -0.163
    1UNL     C7    8   0.202  -0.035  -0.022
    1UNL     C8    9   0.089  -0.055   0.073
    1UNL     C9   10   0.094  -0.197   0.134
    1UNL     O1   11   0.132  -0.291   0.071
    1UNL     O2   12   0.065  -0.204   0.273
    1UNL    C10   13   0.080  -0.338   0.311
    1UNL    C11   14  -0.057  -0.009   0.008
    1UNL    C12   15  -0.110   0.128   0.053
    1UNL    C13   16  -0.181   0.185  -0.070
    1UNL     O3   17  -0.137   0.321  -0.109
    1UNL    C14   18  -0.210   0.381  -0.220
    1UNL     O4   19  -0.149   0.099  -0.188
    1UNL    C15   20  -0.059  -0.007  -0.151
    1UNL     N2   21  -0.127  -0.141  -0.189
    1UNL    C16   22  -0.190  -0.199  -0.082
    1UNL    C17   23  -0.275  -0.309  -0.087
    1UNL    C18   24  -0.325  -0.349   0.031
    1UNL    C19   25  -0.289  -0.281   0.151
    1UNL    C20   26  -0.203  -0.171   0.159
    1UNL    C21   27  -0.155  -0.128   0.039
    1UNL     H1   28   0.347   0.339   0.211
    1UNL     H2   29   0.255   0.391   0.077
    1UNL     H3   30   0.415   0.343   0.048
    1UNL     H4   31   0.280   0.116   0.184
    1UNL     H5   32   0.332   0.178  -0.210
    1UNL     H6   33   0.240   0.295  -0.110
    1UNL     H7   34   0.041   0.206  -0.171
    1UNL     H8   35   0.060  -0.009  -0.332
    1UNL     H9   36   0.267  -0.077  -0.217
    1UNL    H10   37   0.129  -0.184  -0.157
    1UNL    H11   38   0.282  -0.099   0.016
    1UNL    H12   39   0.101   0.009   0.158
    1UNL    H13   40   0.041  -0.359   0.406
    1UNL    H14   41   0.020  -0.385   0.237
    1UNL    H15   42   0.180  -0.383   0.304
    1UNL    H16   43  -0.030   0.194   0.083
    1UNL    H17   44  -0.170   0.123   0.145
    1UNL    H18   45  -0.282   0.192  -0.046
    1UNL    H19   46  -0.138   0.374  -0.301
    1UNL    H20   47  -0.296   0.314  -0.245
    1UNL    H21   48  -0.233   0.482  -0.178
    1UNL    H22   49  -0.178  -0.123  -0.274
    1UNL    H23   50  -0.296  -0.353  -0.182
    1UNL    H24   51  -0.393  -0.435   0.047
    1UNL    H25   52  -0.334  -0.325   0.237
    1UNL    H26   53  -0.184  -0.118   0.248
   0.00000   0.00000   0.00000   0.00000   0.00000   0.00000   0.00000   0.00000   0.00000
Generated with MDTraj, t= 93.0
 53
    1UNL     C1    1   0.354   0.318   0.115
    1UNL     C2    2   0.305   0.179   0.090
    1UNL     C3    3   0.247   0.127  -0.018
    1UNL     C4    4   0.222   0.209  -0.141
    1UNL     N1    5   0.113   0.154  -0.225
    1UNL     C5    6   0.076   0.015  -0.226
    1UNL     C6    7   0.184  -0.075  -0.162
    1UNL     C7    8   0.220  -0.024  -0.015
    1UNL     C8    9   0.093  -0.050   0.074
    1UNL     C9   10   0.092  -0.192   0.132
    1UNL     O1   11   0.128  -0.281   0.064
    1UNL     O2   12   0.030  -0.206   0.249
    1UNL    C10   13   0.048  -0.336   0.297
    1UNL    C11   14  -0.055  -0.018   0.008
    1UNL    C12   15  -0.107   0.121   0.054
    1UNL    C13   16  -0.177   0.178  -0.067
    1UNL     O3   17  -0.142   0.311  -0.092
    1UNL    C14   18  -0.191   0.369  -0.218
    1UNL     O4   19  -0.156   0.094  -0.184
    1UNL    C15   20  -0.065  -0.010  -0.154
    1UNL     N2   21  -0.117  -0.144  -0.199
    1UNL    C16   22  -0.188  -0.193  -0.089
    1UNL    C17   23  -0.259  -0.313  -0.067
    1UNL    C18   24  -0.308  -0.359   0.053
    1UNL    C19   25  -0.290  -0.280   0.165
    1UNL    C20   26  -0.212  -0.163   0.154
    1UNL    C21   27  -0.152  -0.130   0.030
    1UNL     H1   28   0.386   0.327   0.212
    1UNL     H2   29   0.272   0.384   0.107
    1UNL     H3   30   0.429   0.359   0.048
    1UNL     H4   31   0.329   0.115   0.174
    1UNL     H5   32   0.314   0.210  -0.202
    1UNL     H6   33   0.196   0.314  -0.121
    1UNL     H7   34   0.019   0.213  -0.206
    1UNL     H8   35   0.052  -0.016  -0.334
    1UNL     H9   36   0.273  -0.092  -0.216
    1UNL    H10   37   0.126  -0.170  -0.144
    1UNL    H11   38   0.310  -0.069   0.026
    1UNL    H12   39   0.089   0.017   0.158
    1UNL    H13   40   0.071  -0.330   0.397
    1UNL    H14   41  -0.050  -0.381   0.289
    1UNL    H15   42   0.116  -0.410   0.241
    1UNL    H16   43  -0.033   0.190   0.096
    1UNL    H17   44  -0.179   0.111   0.135
    1UNL    H18   45  -0.279   0.184  -0.042
    1UNL    H19   46  -0.210   0.299  -0.297
    1UNL    H20   47  -0.285   0.425  -0.191
    1UNL    H21   48  -0.103   0.430  -0.240
    1UNL    H22   49  -0.165  -0.120  -0.285
    1UNL    H23   50  -0.275  -0.375  -0.152
    1UNL    H24   51  -0.351  -0.454   0.048
    1UNL    H25   52  -0.325  -0.319   0.261
    1UNL    H26   53  -0.195  -0.112   0.250
   0.00000   0.00000   0.00000   0.00000   0.00000   0.00000   0.00000   0.00000   0.00000
Generated with MDTraj, t= 94.0
 53
    1UNL     C1    1   0.375   0.322   0.098
    1UNL     C2    2   0.323   0.182   0.092
    1UNL     C3    3   0.250   0.137  -0.010
    1UNL     C4    4   0.206   0.221  -0.117
    1UNL     N1    5   0.100   0.168  -0.204
    1UNL     C5    6   0.071   0.022  -0.215
    1UNL     C6    7   0.183  -0.065  -0.153
    1UNL     C7    8   0.213  -0.012  -0.013
    1UNL     C8    9   0.096  -0.045   0.077
    1UNL     C9   10   0.094  -0.191   0.120
    1UNL     O1   11   0.115  -0.283   0.046
    1UNL     O2   12   0.071  -0.209   0.258
    1UNL    C10   13   0.048  -0.350   0.276
    1UNL    C11   14  -0.052  -0.016   0.020
    1UNL    C12   15  -0.105   0.122   0.054
    1UNL    C13   16  -0.179   0.175  -0.074
    1UNL     O3   17  -0.134   0.313  -0.112
    1UNL    C14   18  -0.178   0.359  -0.243
    1UNL     O4   19  -0.173   0.074  -0.180
    1UNL    C15   20  -0.065  -0.018  -0.146
    1UNL     N2   21  -0.111  -0.154  -0.177
    1UNL    C16   22  -0.182  -0.212  -0.073
    1UNL    C17   23  -0.262  -0.321  -0.078
    1UNL    C18   24  -0.322  -0.352   0.045
    1UNL    C19   25  -0.316  -0.269   0.154
    1UNL    C20   26  -0.232  -0.157   0.155
    1UNL    C21   27  -0.152  -0.138   0.045
    1UNL     H1   28   0.456   0.333   0.164
    1UNL     H2   29   0.296   0.376   0.141
    1UNL     H3   30   0.396   0.377   0.007
    1UNL     H4   31   0.343   0.117   0.175
    1UNL     H5   32   0.291   0.243  -0.186
    1UNL     H6   33   0.178   0.318  -0.075
    1UNL     H7   34   0.015   0.206  -0.180
    1UNL     H8   35   0.065   0.011  -0.330
    1UNL     H9   36   0.273  -0.053  -0.214
    1UNL    H10   37   0.154  -0.170  -0.132
    1UNL    H11   38   0.297  -0.069   0.025
    1UNL    H12   39   0.098   0.010   0.169
    1UNL    H13   40  -0.000  -0.373   0.365
    1UNL    H14   41  -0.015  -0.387   0.190
    1UNL    H15   42   0.142  -0.419   0.260
    1UNL    H16   43  -0.024   0.195   0.066
    1UNL    H17   44  -0.159   0.117   0.148
    1UNL    H18   45  -0.283   0.192  -0.054
    1UNL    H19   46  -0.282   0.349  -0.258
    1UNL    H20   47  -0.162   0.469  -0.230
    1UNL    H21   48  -0.121   0.296  -0.313
    1UNL    H22   49  -0.131  -0.178  -0.274
    1UNL    H23   50  -0.280  -0.376  -0.170
    1UNL    H24   51  -0.391  -0.440   0.046
    1UNL    H25   52  -0.366  -0.292   0.246
    1UNL    H26   53  -0.223  -0.092   0.240
   0.00000   0.00000   0.00000   0.00000   0.00000   0.00000   0.00000   0.00000   0.00000
Generated with MDTraj, t= 95.0
 53
    1UNL     C1    1   0.387   0.314   0.102
    1UNL     C2    2   0.317   0.180   0.109
    1UNL     C3    3   0.255   0.126   0.004
    1UNL     C4    4   0.208   0.218  -0.107
    1UNL     N1    5   0.111   0.163  -0.202
    1UNL     C5    6   0.089   0.020  -0.213
    1UNL     C6    7   0.197  -0.068  -0.148
    1UNL     C7    8   0.210  -0.021   0.001
    1UNL     C8    9   0.082  -0.054   0.081
    1UNL     C9   10   0.090  -0.199   0.122
    1UNL     O1   11   0.117  -0.282   0.038
    1UNL     O2   12   0.060  -0.234   0.249
    1UNL    C10   13   0.104  -0.361   0.268
    1UNL    C11   14  -0.058  -0.012   0.011
    1UNL    C12   15  -0.112   0.136   0.042
    1UNL    C13   16  -0.188   0.170  -0.088
    1UNL     O3   17  -0.166   0.309  -0.128
    1UNL    C14   18  -0.230   0.348  -0.245
    1UNL     O4   19  -0.153   0.075  -0.191
    1UNL    C15   20  -0.048  -0.014  -0.145
    1UNL     N2   21  -0.096  -0.147  -0.179
    1UNL    C16   22  -0.181  -0.204  -0.071
    1UNL    C17   23  -0.278  -0.303  -0.076
    1UNL    C18   24  -0.341  -0.327   0.052
    1UNL    C19   25  -0.310  -0.253   0.165
    1UNL    C20   26  -0.230  -0.145   0.157
    1UNL    C21   27  -0.159  -0.123   0.044
    1UNL     H1   28   0.452   0.331   0.186
    1UNL     H2   29   0.308   0.379   0.116
    1UNL     H3   30   0.435   0.342   0.011
    1UNL     H4   31   0.327   0.125   0.202
    1UNL     H5   32   0.298   0.250  -0.161
    1UNL     H6   33   0.169   0.310  -0.062
    1UNL     H7   34   0.017   0.213  -0.174
    1UNL     H8   35   0.076  -0.000  -0.327
    1UNL     H9   36   0.300  -0.071  -0.194
    1UNL    H10   37   0.157  -0.167  -0.137
    1UNL    H11   38   0.295  -0.070   0.046
    1UNL    H12   39   0.067   0.010   0.167
    1UNL    H13   40   0.080  -0.394   0.366
    1UNL    H14   41   0.084  -0.434   0.182
    1UNL    H15   42   0.222  -0.351   0.263
    1UNL    H16   43  -0.029   0.206   0.057
    1UNL    H17   44  -0.176   0.140   0.129
    1UNL    H18   45  -0.296   0.153  -0.077
    1UNL    H19   46  -0.286   0.435  -0.228
    1UNL    H20   47  -0.139   0.382  -0.298
    1UNL    H21   48  -0.287   0.264  -0.287
    1UNL    H22   49  -0.143  -0.142  -0.268
    1UNL    H23   50  -0.309  -0.348  -0.170
    1UNL    H24   51  -0.415  -0.402   0.065
    1UNL    H25   52  -0.347  -0.286   0.263
    1UNL    H26   53  -0.195  -0.088   0.242
   0.00000   0.00000   0.00000   0.00000   0.00000   0.00000   0.00000   0.00000   0.00000
Generated with MDTraj, t= 96.0
 53
    1UNL     C1    1   0.369   0.311   0.137
    1UNL     C2    2   0.311   0.175   0.115
    1UNL     C3    3   0.258   0.135   0.001
    1UNL     C4    4   0.209   0.225  -0.107
    1UNL     N1    5   0.122   0.156  -0.211
    1UNL     C5    6   0.085   0.013  -0.219
    1UNL     C6    7   0.205  -0.061  -0.156
    1UNL     C7    8   0.222  -0.017  -0.013
    1UNL     C8    9   0.095  -0.055   0.073
    1UNL     C9   10   0.102  -0.197   0.115
    1UNL     O1   11   0.116  -0.288   0.031
    1UNL     O2   12   0.091  -0.222   0.253
    1UNL    C10   13   0.090  -0.361   0.270
    1UNL    C11   14  -0.049  -0.020   0.013
    1UNL    C12   15  -0.101   0.125   0.041
    1UNL    C13   16  -0.179   0.168  -0.083
    1UNL     O3   17  -0.167   0.303  -0.122
    1UNL    C14   18  -0.245   0.323  -0.239
    1UNL     O4   19  -0.147   0.084  -0.195
    1UNL    C15   20  -0.052  -0.018  -0.154
    1UNL     N2   21  -0.108  -0.147  -0.184
    1UNL    C16   22  -0.183  -0.200  -0.071
    1UNL    C17   23  -0.284  -0.301  -0.067
    1UNL    C18   24  -0.350  -0.322   0.055
    1UNL    C19   25  -0.324  -0.238   0.167
    1UNL    C20   26  -0.242  -0.131   0.160
    1UNL    C21   27  -0.163  -0.117   0.041
    1UNL     H1   28   0.391   0.325   0.243
    1UNL     H2   29   0.285   0.371   0.119
    1UNL     H3   30   0.448   0.346   0.080
    1UNL     H4   31   0.322   0.100   0.192
    1UNL     H5   32   0.300   0.267  -0.152
    1UNL     H6   33   0.163   0.309  -0.058
    1UNL     H7   34   0.026   0.203  -0.207
    1UNL     H8   35   0.086  -0.022  -0.331
    1UNL     H9   36   0.304  -0.052  -0.212
    1UNL    H10   37   0.187  -0.165  -0.144
    1UNL    H11   38   0.308  -0.066   0.033
    1UNL    H12   39   0.093   0.014   0.157
    1UNL    H13   40   0.118  -0.390   0.369
    1UNL    H14   41   0.005  -0.417   0.223
    1UNL    H15   42   0.182  -0.388   0.204
    1UNL    H16   43  -0.017   0.192   0.060
    1UNL    H17   44  -0.173   0.133   0.120
    1UNL    H18   45  -0.289   0.150  -0.071
    1UNL    H19   46  -0.260   0.431  -0.239
    1UNL    H20   47  -0.191   0.280  -0.326
    1UNL    H21   48  -0.344   0.279  -0.226
    1UNL    H22   49  -0.158  -0.144  -0.273
    1UNL    H23   50  -0.317  -0.355  -0.155
    1UNL    H24   51  -0.425  -0.401   0.055
    1UNL    H25   52  -0.361  -0.272   0.260
    1UNL    H26   53  -0.214  -0.081   0.253
   0.00000   0.00000   0.00000   0.00000   0.00000   0.00000   0.00000   0.00000   0.00000
Generated with MDTraj, t= 97.0
 53
    1UNL     C1    1   0.325   0.332   0.128
    1UNL     C2    2   0.300   0.190   0.102
    1UNL     C3    3   0.258   0.129  -0.006
    1UNL     C4    4   0.220   0.214  -0.123
    1UNL     N1    5   0.107   0.164  -0.202
    1UNL     C5    6   0.083   0.026  -0.224
    1UNL     C6    7   0.199  -0.059  -0.171
    1UNL     C7    8   0.225  -0.023  -0.020
    1UNL     C8    9   0.105  -0.063   0.070
    1UNL     C9   10   0.093  -0.205   0.121
    1UNL     O1   11   0.094  -0.298   0.038
    1UNL     O2   12   0.091  -0.228   0.256
    1UNL    C10   13   0.070  -0.363   0.277
    1UNL    C11   14  -0.041  -0.014   0.009
    1UNL    C12   15  -0.099   0.126   0.053
    1UNL    C13   16  -0.185   0.168  -0.068
    1UNL     O3   17  -0.150   0.304  -0.110
    1UNL    C14   18  -0.216   0.330  -0.235
    1UNL     O4   19  -0.160   0.074  -0.186
    1UNL    C15   20  -0.052  -0.021  -0.154
    1UNL     N2   21  -0.100  -0.159  -0.177
    1UNL    C16   22  -0.174  -0.200  -0.067
    1UNL    C17   23  -0.273  -0.298  -0.071
    1UNL    C18   24  -0.337  -0.318   0.047
    1UNL    C19   25  -0.326  -0.229   0.154
    1UNL    C20   26  -0.219  -0.140   0.158
    1UNL    C21   27  -0.139  -0.120   0.044
    1UNL     H1   28   0.375   0.347   0.223
    1UNL     H2   29   0.223   0.363   0.148
    1UNL     H3   30   0.358   0.392   0.052
    1UNL     H4   31   0.318   0.129   0.191
    1UNL     H5   32   0.305   0.232  -0.190
    1UNL     H6   33   0.195   0.312  -0.086
    1UNL     H7   34   0.025   0.208  -0.175
    1UNL     H8   35   0.072   0.008  -0.339
    1UNL     H9   36   0.291  -0.041  -0.233
    1UNL    H10   37   0.186  -0.164  -0.171
    1UNL    H11   38   0.307  -0.078   0.026
    1UNL    H12   39   0.118  -0.003   0.161
    1UNL    H13   40   0.075  -0.389   0.382
    1UNL    H14   41  -0.017  -0.403   0.226
    1UNL    H15   42   0.161  -0.407   0.229
    1UNL    H16   43  -0.023   0.202   0.068
    1UNL    H17   44  -0.156   0.115   0.144
    1UNL    H18   45  -0.298   0.173  -0.047
    1UNL    H19   46  -0.140   0.357  -0.309
    1UNL    H20   47  -0.272   0.236  -0.266
    1UNL    H21   48  -0.289   0.411  -0.232
    1UNL    H22   49  -0.151  -0.170  -0.265
    1UNL    H23   50  -0.307  -0.330  -0.168
    1UNL    H24   51  -0.419  -0.391   0.051
    1UNL    H25   52  -0.400  -0.239   0.236
    1UNL    H26   53  -0.201  -0.077   0.242
   0.00000   0.00000   0.00000   0.00000   0.00000   0.00000   0.00000   0.00000   0.00000
Generated with MDTraj, t= 98.0
 53
    1UNL     C1    1   0.314   0.338   0.120
    1UNL     C2    2   0.264   0.200   0.105
    1UNL     C3    3   0.234   0.133  -0.003
    1UNL     C4    4   0.213   0.199  -0.138
    1UNL     N1    5   0.113   0.138  -0.229
    1UNL     C5    6   0.076  -0.003  -0.219
    1UNL     C6    7   0.193  -0.081  -0.155
    1UNL     C7    8   0.219  -0.018  -0.010
    1UNL     C8    9   0.095  -0.058   0.074
    1UNL     C9   10   0.101  -0.199   0.119
    1UNL     O1   11   0.139  -0.279   0.035
    1UNL     O2   12   0.066  -0.228   0.244
    1UNL    C10   13   0.087  -0.362   0.268
    1UNL    C11   14  -0.055  -0.014   0.015
    1UNL    C12   15  -0.102   0.128   0.051
    1UNL    C13   16  -0.169   0.183  -0.076
    1UNL     O3   17  -0.131   0.313  -0.105
    1UNL    C14   18  -0.176   0.368  -0.225
    1UNL     O4   19  -0.144   0.096  -0.185
    1UNL    C15   20  -0.061  -0.018  -0.144
    1UNL     N2   21  -0.114  -0.146  -0.183
    1UNL    C16   22  -0.193  -0.189  -0.077
    1UNL    C17   23  -0.270  -0.301  -0.065
    1UNL    C18   24  -0.340  -0.332   0.050
    1UNL    C19   25  -0.307  -0.271   0.170
    1UNL    C20   26  -0.221  -0.164   0.166
    1UNL    C21   27  -0.165  -0.126   0.047
    1UNL     H1   28   0.360   0.356   0.214
    1UNL     H2   29   0.225   0.396   0.117
    1UNL     H3   30   0.371   0.382   0.041
    1UNL     H4   31   0.272   0.148   0.199
    1UNL     H5   32   0.307   0.204  -0.193
    1UNL     H6   33   0.190   0.305  -0.128
    1UNL     H7   34   0.021   0.194  -0.203
    1UNL     H8   35   0.057  -0.042  -0.329
    1UNL     H9   36   0.293  -0.081  -0.205
    1UNL    H10   37   0.167  -0.185  -0.155
    1UNL    H11   38   0.305  -0.067   0.037
    1UNL    H12   39   0.100  -0.006   0.172
    1UNL    H13   40   0.068  -0.388   0.375
    1UNL    H14   41   0.023  -0.420   0.209
    1UNL    H15   42   0.190  -0.378   0.242
    1UNL    H16   43  -0.018   0.190   0.077
    1UNL    H17   44  -0.172   0.128   0.134
    1UNL    H18   45  -0.284   0.194  -0.058
    1UNL    H19   46  -0.169   0.294  -0.307
    1UNL    H20   47  -0.284   0.403  -0.219
    1UNL    H21   48  -0.115   0.452  -0.258
    1UNL    H22   49  -0.152  -0.145  -0.279
    1UNL    H23   50  -0.264  -0.362  -0.155
    1UNL    H24   51  -0.407  -0.413   0.048
    1UNL    H25   52  -0.352  -0.301   0.260
    1UNL    H26   53  -0.207  -0.109   0.256
   0.00000   0.00000   0.00000   0.00000   0.00000   0.00000   0.00000   0.00000   0.00000
Generated with MDTraj, t= 99.0
 53
    1UNL     C1    1   0.291   0.361   0.101
    1UNL     C2    2   0.252   0.211   0.098
    1UNL     C3    3   0.235   0.140  -0.012
    1UNL     C4    4   0.231   0.195  -0.150
    1UNL     N1    5   0.110   0.149  -0.218
    1UNL     C5    6   0.074   0.001  -0.218
    1UNL     C6    7   0.183  -0.078  -0.147
    1UNL     C7    8   0.199  -0.016  -0.009
    1UNL     C8    9   0.079  -0.055   0.075
    1UNL     C9   10   0.093  -0.201   0.116
    1UNL     O1   11   0.150  -0.285   0.046
    1UNL     O2   12   0.051  -0.231   0.246
    1UNL    C10   13   0.075  -0.368   0.271
    1UNL    C11   14  -0.058  -0.013   0.008
    1UNL    C12   15  -0.106   0.130   0.057
    1UNL    C13   16  -0.160   0.189  -0.075
    1UNL     O3   17  -0.092   0.316  -0.103
    1UNL    C14   18  -0.140   0.381  -0.212
    1UNL     O4   19  -0.159   0.084  -0.176
    1UNL    C15   20  -0.067  -0.018  -0.147
    1UNL     N2   21  -0.129  -0.145  -0.183
    1UNL    C16   22  -0.203  -0.195  -0.075
    1UNL    C17   23  -0.284  -0.313  -0.073
    1UNL    C18   24  -0.325  -0.347   0.049
    1UNL    C19   25  -0.284  -0.281   0.165
    1UNL    C20   26  -0.194  -0.169   0.167
    1UNL    C21   27  -0.159  -0.131   0.043
    1UNL     H1   28   0.311   0.400   0.194
    1UNL     H2   29   0.210   0.417   0.059
    1UNL     H3   30   0.367   0.395   0.030
    1UNL     H4   31   0.235   0.165   0.195
    1UNL     H5   32   0.317   0.161  -0.208
    1UNL     H6   33   0.243   0.302  -0.149
    1UNL     H7   34   0.029   0.194  -0.188
    1UNL     H8   35   0.063  -0.024  -0.332
    1UNL     H9   36   0.273  -0.084  -0.208
    1UNL    H10   37   0.146  -0.184  -0.141
    1UNL    H11   38   0.281  -0.077   0.034
    1UNL    H12   39   0.098   0.006   0.165
    1UNL    H13   40   0.004  -0.415   0.345
    1UNL    H14   41   0.045  -0.411   0.183
    1UNL    H15   42   0.179  -0.381   0.291
    1UNL    H16   43  -0.027   0.193   0.093
    1UNL    H17   44  -0.181   0.119   0.135
    1UNL    H18   45  -0.270   0.216  -0.051
    1UNL    H19   46  -0.218   0.321  -0.260
    1UNL    H20   47  -0.189   0.482  -0.194
    1UNL    H21   48  -0.069   0.389  -0.291
    1UNL    H22   49  -0.167  -0.149  -0.279
    1UNL    H23   50  -0.288  -0.386  -0.151
    1UNL    H24   51  -0.376  -0.446   0.055
    1UNL    H25   52  -0.324  -0.321   0.262
    1UNL    H26   53  -0.178  -0.112   0.260
   0.00000   0.00000   0.00000   0.00000   0.00000   0.00000   0.00000   0.00000   0.00000
