Generated with MDTraj, t= 0.0
 65
    1UNL     C1    1  -0.191  -0.186   0.260
    1UNL     C2    2  -0.072  -0.180   0.166
    1UNL     C3    3  -0.050  -0.306   0.078
    1UNL     C4    4   0.070  -0.276  -0.019
    1UNL     O1    5   0.088  -0.379  -0.116
    1UNL     O2    6   0.184  -0.253   0.068
    1UNL     C5    7   0.152  -0.132   0.141
    1UNL     O3    8   0.052  -0.161   0.240
    1UNL     C6    9   0.080  -0.039   0.035
    1UNL     C7   10   0.136   0.100   0.007
    1UNL     O4   11   0.251   0.096  -0.074
    1UNL     C8   12   0.363   0.073   0.002
    1UNL     O5   13   0.361   0.061   0.123
    1UNL     C9   14   0.490   0.063  -0.071
    1UNL    C10   15   0.495   0.082  -0.208
    1UNL    C11   16   0.615   0.074  -0.278
    1UNL     O6   17   0.622   0.094  -0.414
    1UNL    C12   18   0.733   0.046  -0.207
    1UNL     O7   19   0.854   0.037  -0.270
    1UNL    C13   20   0.728   0.025  -0.067
    1UNL     O8   21   0.848  -0.003  -0.004
    1UNL    C14   22   0.607   0.034  -0.002
    1UNL    C15   23   0.048  -0.133  -0.086
    1UNL    C16   24  -0.097  -0.081  -0.081
    1UNL    C17   25  -0.074  -0.051   0.070
    1UNL     O9   26  -0.131   0.067   0.125
    1UNL    C18   27  -0.267   0.081   0.087
    1UNL    O10   28  -0.283   0.125  -0.048
    1UNL    C19   29  -0.422   0.142  -0.090
    1UNL    C20   30  -0.448   0.064  -0.219
    1UNL    O11   31  -0.576   0.089  -0.273
    1UNL    C21   32  -0.523   0.100   0.020
    1UNL    O12   33  -0.515  -0.039   0.044
    1UNL    C22   34  -0.494   0.182   0.149
    1UNL    O13   35  -0.532   0.319   0.136
    1UNL    C23   36  -0.343   0.172   0.187
    1UNL    O14   37  -0.329   0.123   0.319
    1UNL     H1   38  -0.283  -0.206   0.206
    1UNL     H2   39  -0.201  -0.091   0.313
    1UNL     H3   40  -0.176  -0.265   0.334
    1UNL     H4   41  -0.023  -0.390   0.141
    1UNL     H5   42  -0.140  -0.333   0.023
    1UNL     H6   43   0.008  -0.385  -0.174
    1UNL     H7   44   0.242  -0.087   0.187
    1UNL     H8   45   0.061   0.161  -0.046
    1UNL     H9   46   0.161   0.152   0.101
    1UNL    H10   47   0.404   0.104  -0.260
    1UNL    H11   48   0.533   0.113  -0.451
    1UNL    H12   49   0.923   0.016  -0.202
    1UNL    H13   50   0.832  -0.016   0.092
    1UNL    H14   51   0.601   0.020   0.105
    1UNL    H15   52   0.108  -0.113  -0.176
    1UNL    H16   53  -0.174  -0.156  -0.100
    1UNL    H17   54  -0.115   0.011  -0.139
    1UNL    H18   55  -0.312  -0.019   0.092
    1UNL    H19   56  -0.432   0.249  -0.110
    1UNL    H20   57  -0.444  -0.044  -0.197
    1UNL    H21   58  -0.372   0.084  -0.294
    1UNL    H22   59  -0.584   0.184  -0.297
    1UNL    H23   60  -0.625   0.122  -0.017
    1UNL    H24   61  -0.580  -0.066   0.112
    1UNL    H25   62  -0.552   0.139   0.232
    1UNL    H26   63  -0.627   0.326   0.112
    1UNL    H27   64  -0.298   0.272   0.182
    1UNL    H28   65  -0.368   0.186   0.383
   0.00000   0.00000   0.00000   0.00000   0.00000   0.00000   0.00000   0.00000   0.00000
Generated with MDTraj, t= 1.0
 65
    1UNL     C1    1  -0.191  -0.198   0.284
    1UNL     C2    2  -0.073  -0.194   0.178
    1UNL     C3    3  -0.059  -0.315   0.090
    1UNL     C4    4   0.058  -0.287  -0.017
    1UNL     O1    5   0.089  -0.401  -0.110
    1UNL     O2    6   0.175  -0.268   0.063
    1UNL     C5    7   0.150  -0.149   0.138
    1UNL     O3    8   0.058  -0.183   0.246
    1UNL     C6    9   0.072  -0.057   0.038
    1UNL     C7   10   0.123   0.092   0.005
    1UNL     O4   11   0.234   0.085  -0.075
    1UNL     C8   12   0.352   0.065  -0.011
    1UNL     O5   13   0.360   0.049   0.111
    1UNL     C9   14   0.487   0.069  -0.081
    1UNL    C10   15   0.499   0.120  -0.211
    1UNL    C11   16   0.615   0.107  -0.285
    1UNL     O6   17   0.622   0.152  -0.418
    1UNL    C12   18   0.725   0.065  -0.211
    1UNL     O7   19   0.856   0.050  -0.262
    1UNL    C13   20   0.724   0.031  -0.073
    1UNL     O8   21   0.844  -0.019  -0.010
    1UNL    C14   22   0.598   0.018  -0.015
    1UNL    C15   23   0.030  -0.151  -0.084
    1UNL    C16   24  -0.112  -0.093  -0.057
    1UNL    C17   25  -0.076  -0.062   0.086
    1UNL     O9   26  -0.134   0.051   0.145
    1UNL    C18   27  -0.260   0.086   0.097
    1UNL    O10   28  -0.267   0.126  -0.041
    1UNL    C19   29  -0.398   0.135  -0.096
    1UNL    C20   30  -0.428   0.046  -0.216
    1UNL    O11   31  -0.542   0.067  -0.287
    1UNL    C21   32  -0.515   0.120   0.009
    1UNL    O12   33  -0.525  -0.022   0.053
    1UNL    C22   34  -0.490   0.207   0.136
    1UNL    O13   35  -0.499   0.346   0.111
    1UNL    C23   36  -0.338   0.183   0.187
    1UNL    O14   37  -0.345   0.150   0.319
    1UNL     H1   38  -0.285  -0.246   0.254
    1UNL     H2   39  -0.224  -0.098   0.320
    1UNL     H3   40  -0.164  -0.248   0.368
    1UNL     H4   41  -0.024  -0.398   0.152
    1UNL     H5   42  -0.147  -0.338   0.046
    1UNL     H6   43   0.045  -0.399  -0.194
    1UNL     H7   44   0.248  -0.116   0.175
    1UNL     H8   45   0.055   0.153  -0.055
    1UNL     H9   46   0.146   0.146   0.098
    1UNL    H10   47   0.412   0.154  -0.261
    1UNL    H11   48   0.533   0.163  -0.454
    1UNL    H12   49   0.918   0.042  -0.185
    1UNL    H13   50   0.846   0.017   0.085
    1UNL    H14   51   0.593  -0.014   0.087
    1UNL    H15   52   0.070  -0.128  -0.185
    1UNL    H16   53  -0.196  -0.169  -0.068
    1UNL    H17   54  -0.126  -0.011  -0.122
    1UNL    H18   55  -0.316  -0.008   0.105
    1UNL    H19   56  -0.407   0.236  -0.130
    1UNL    H20   57  -0.431  -0.061  -0.195
    1UNL    H21   58  -0.352   0.052  -0.293
    1UNL    H22   59  -0.557   0.165  -0.322
    1UNL    H23   60  -0.617   0.157  -0.022
    1UNL    H24   61  -0.621  -0.047   0.063
    1UNL    H25   62  -0.567   0.184   0.211
    1UNL    H26   63  -0.589   0.370   0.107
    1UNL    H27   64  -0.280   0.277   0.190
    1UNL    H28   65  -0.397   0.209   0.370
   0.00000   0.00000   0.00000   0.00000   0.00000   0.00000   0.00000   0.00000   0.00000
Generated with MDTraj, t= 2.0
 65
    1UNL     C1    1  -0.178  -0.210   0.287
    1UNL     C2    2  -0.063  -0.202   0.191
    1UNL     C3    3  -0.055  -0.331   0.101
    1UNL     C4    4   0.050  -0.303  -0.007
    1UNL     O1    5   0.060  -0.412  -0.097
    1UNL     O2    6   0.182  -0.278   0.072
    1UNL     C5    7   0.155  -0.156   0.142
    1UNL     O3    8   0.063  -0.182   0.249
    1UNL     C6    9   0.071  -0.063   0.045
    1UNL     C7   10   0.122   0.077   0.001
    1UNL     O4   11   0.234   0.080  -0.079
    1UNL     C8   12   0.348   0.063  -0.012
    1UNL     O5   13   0.354   0.048   0.111
    1UNL     C9   14   0.474   0.063  -0.085
    1UNL    C10   15   0.479   0.114  -0.214
    1UNL    C11   16   0.606   0.129  -0.270
    1UNL     O6   17   0.611   0.192  -0.389
    1UNL    C12   18   0.721   0.082  -0.210
    1UNL     O7   19   0.849   0.095  -0.263
    1UNL    C13   20   0.707   0.017  -0.087
    1UNL     O8   21   0.827  -0.034  -0.037
    1UNL    C14   22   0.587   0.023  -0.015
    1UNL    C15   23   0.019  -0.160  -0.068
    1UNL    C16   24  -0.119  -0.102  -0.053
    1UNL    C17   25  -0.079  -0.073   0.098
    1UNL     O9   26  -0.135   0.041   0.148
    1UNL    C18   27  -0.258   0.074   0.096
    1UNL    O10   28  -0.255   0.117  -0.043
    1UNL    C19   29  -0.384   0.136  -0.105
    1UNL    C20   30  -0.405   0.049  -0.225
    1UNL    O11   31  -0.532   0.049  -0.284
    1UNL    C21   32  -0.507   0.138  -0.002
    1UNL    O12   33  -0.544   0.005   0.052
    1UNL    C22   34  -0.464   0.224   0.112
    1UNL    O13   35  -0.461   0.361   0.090
    1UNL    C23   36  -0.320   0.188   0.178
    1UNL    O14   37  -0.341   0.153   0.313
    1UNL     H1   38  -0.275  -0.210   0.239
    1UNL     H2   39  -0.185  -0.128   0.361
    1UNL     H3   40  -0.180  -0.300   0.339
    1UNL     H4   41  -0.035  -0.420   0.163
    1UNL     H5   42  -0.146  -0.342   0.054
    1UNL     H6   43  -0.005  -0.397  -0.165
    1UNL     H7   44   0.241  -0.106   0.193
    1UNL     H8   45   0.041   0.129  -0.055
    1UNL     H9   46   0.146   0.133   0.093
    1UNL    H10   47   0.382   0.132  -0.269
    1UNL    H11   48   0.523   0.214  -0.421
    1UNL    H12   49   0.901   0.034  -0.205
    1UNL    H13   50   0.818  -0.048   0.066
    1UNL    H14   51   0.588  -0.004   0.093
    1UNL    H15   52   0.083  -0.143  -0.158
    1UNL    H16   53  -0.209  -0.169  -0.075
    1UNL    H17   54  -0.129  -0.015  -0.112
    1UNL    H18   55  -0.323  -0.013   0.102
    1UNL    H19   56  -0.374   0.238  -0.139
    1UNL    H20   57  -0.397  -0.053  -0.184
    1UNL    H21   58  -0.323   0.051  -0.296
    1UNL    H22   59  -0.544   0.148  -0.299
    1UNL    H23   60  -0.601   0.174  -0.053
    1UNL    H24   61  -0.635  -0.021   0.023
    1UNL    H25   62  -0.532   0.204   0.195
    1UNL    H26   63  -0.548   0.401   0.092
    1UNL    H27   64  -0.259   0.282   0.177
    1UNL    H28   65  -0.386   0.217   0.360
   0.00000   0.00000   0.00000   0.00000   0.00000   0.00000   0.00000   0.00000   0.00000
Generated with MDTraj, t= 3.0
 65
    1UNL     C1    1  -0.182  -0.208   0.286
    1UNL     C2    2  -0.071  -0.209   0.192
    1UNL     C3    3  -0.055  -0.343   0.118
    1UNL     C4    4   0.061  -0.318   0.010
    1UNL     O1    5   0.066  -0.428  -0.078
    1UNL     O2    6   0.178  -0.284   0.081
    1UNL     C5    7   0.153  -0.157   0.149
    1UNL     O3    8   0.061  -0.178   0.253
    1UNL     C6    9   0.066  -0.075   0.041
    1UNL     C7   10   0.111   0.066   0.004
    1UNL     O4   11   0.232   0.063  -0.075
    1UNL     C8   12   0.341   0.051  -0.004
    1UNL     O5   13   0.349   0.032   0.118
    1UNL     C9   14   0.468   0.065  -0.075
    1UNL    C10   15   0.467   0.135  -0.194
    1UNL    C11   16   0.589   0.160  -0.256
    1UNL     O6   17   0.598   0.224  -0.379
    1UNL    C12   18   0.707   0.092  -0.212
    1UNL     O7   19   0.822   0.117  -0.279
    1UNL    C13   20   0.703   0.014  -0.094
    1UNL     O8   21   0.823  -0.032  -0.049
    1UNL    C14   22   0.582   0.004  -0.028
    1UNL    C15   23   0.031  -0.182  -0.073
    1UNL    C16   24  -0.118  -0.136  -0.058
    1UNL    C17   25  -0.081  -0.092   0.087
    1UNL     O9   26  -0.139   0.022   0.145
    1UNL    C18   27  -0.251   0.074   0.082
    1UNL    O10   28  -0.236   0.126  -0.053
    1UNL    C19   29  -0.373   0.145  -0.111
    1UNL    C20   30  -0.391   0.040  -0.219
    1UNL    O11   31  -0.531   0.049  -0.259
    1UNL    C21   32  -0.494   0.167  -0.008
    1UNL    O12   33  -0.536   0.031   0.036
    1UNL    C22   34  -0.452   0.245   0.110
    1UNL    O13   35  -0.439   0.384   0.084
    1UNL    C23   36  -0.314   0.190   0.166
    1UNL    O14   37  -0.335   0.151   0.301
    1UNL     H1   38  -0.281  -0.230   0.255
    1UNL     H2   39  -0.177  -0.112   0.335
    1UNL     H3   40  -0.155  -0.287   0.359
    1UNL     H4   41  -0.015  -0.428   0.175
    1UNL     H5   42  -0.150  -0.386   0.078
    1UNL     H6   43  -0.011  -0.442  -0.140
    1UNL     H7   44   0.248  -0.104   0.174
    1UNL     H8   45   0.030   0.105  -0.064
    1UNL     H9   46   0.128   0.130   0.092
    1UNL    H10   47   0.380   0.182  -0.220
    1UNL    H11   48   0.516   0.257  -0.410
    1UNL    H12   49   0.881   0.049  -0.241
    1UNL    H13   50   0.815  -0.047   0.052
    1UNL    H14   51   0.575  -0.063   0.051
    1UNL    H15   52   0.088  -0.154  -0.165
    1UNL    H16   53  -0.191  -0.216  -0.063
    1UNL    H17   54  -0.146  -0.046  -0.118
    1UNL    H18   55  -0.313  -0.013   0.072
    1UNL    H19   56  -0.365   0.237  -0.170
    1UNL    H20   57  -0.366  -0.063  -0.189
    1UNL    H21   58  -0.322   0.057  -0.300
    1UNL    H22   59  -0.555   0.107  -0.328
    1UNL    H23   60  -0.578   0.213  -0.066
    1UNL    H24   61  -0.576  -0.010  -0.043
    1UNL    H25   62  -0.519   0.223   0.195
    1UNL    H26   63  -0.521   0.421   0.036
    1UNL    H27   64  -0.239   0.275   0.154
    1UNL    H28   65  -0.379   0.217   0.349
   0.00000   0.00000   0.00000   0.00000   0.00000   0.00000   0.00000   0.00000   0.00000
Generated with MDTraj, t= 4.0
 65
    1UNL     C1    1  -0.199  -0.213   0.301
    1UNL     C2    2  -0.081  -0.217   0.201
    1UNL     C3    3  -0.063  -0.346   0.120
    1UNL     C4    4   0.060  -0.334   0.017
    1UNL     O1    5   0.083  -0.440  -0.076
    1UNL     O2    6   0.171  -0.299   0.106
    1UNL     C5    7   0.144  -0.172   0.165
    1UNL     O3    8   0.043  -0.196   0.271
    1UNL     C6    9   0.068  -0.087   0.054
    1UNL     C7   10   0.107   0.049   0.017
    1UNL     O4   11   0.222   0.059  -0.075
    1UNL     C8   12   0.342   0.048  -0.006
    1UNL     O5   13   0.340   0.027   0.118
    1UNL     C9   14   0.465   0.069  -0.079
    1UNL    C10   15   0.466   0.155  -0.191
    1UNL    C11   16   0.580   0.172  -0.268
    1UNL     O6   17   0.597   0.255  -0.381
    1UNL    C12   18   0.696   0.109  -0.215
    1UNL     O7   19   0.808   0.123  -0.295
    1UNL    C13   20   0.700   0.031  -0.097
    1UNL     O8   21   0.819  -0.035  -0.066
    1UNL    C14   22   0.586   0.017  -0.029
    1UNL    C15   23   0.039  -0.194  -0.058
    1UNL    C16   24  -0.105  -0.147  -0.061
    1UNL    C17   25  -0.086  -0.105   0.089
    1UNL     O9   26  -0.145   0.019   0.143
    1UNL    C18   27  -0.252   0.071   0.074
    1UNL    O10   28  -0.229   0.112  -0.055
    1UNL    C19   29  -0.356   0.155  -0.122
    1UNL    C20   30  -0.391   0.062  -0.231
    1UNL    O11   31  -0.533   0.035  -0.247
    1UNL    C21   32  -0.473   0.178  -0.031
    1UNL    O12   33  -0.542   0.056   0.013
    1UNL    C22   34  -0.437   0.250   0.104
    1UNL    O13   35  -0.406   0.395   0.091
    1UNL    C23   36  -0.305   0.191   0.163
    1UNL    O14   37  -0.328   0.155   0.298
    1UNL     H1   38  -0.284  -0.257   0.258
    1UNL     H2   39  -0.215  -0.112   0.319
    1UNL     H3   40  -0.189  -0.277   0.395
    1UNL     H4   41  -0.044  -0.432   0.180
    1UNL     H5   42  -0.165  -0.376   0.069
    1UNL     H6   43  -0.010  -0.465  -0.114
    1UNL     H7   44   0.233  -0.121   0.208
    1UNL     H8   45   0.023   0.097  -0.039
    1UNL     H9   46   0.132   0.099   0.112
    1UNL    H10   47   0.370   0.214  -0.210
    1UNL    H11   48   0.519   0.299  -0.406
    1UNL    H12   49   0.882   0.082  -0.244
    1UNL    H13   50   0.818  -0.046   0.033
    1UNL    H14   51   0.588  -0.067   0.047
    1UNL    H15   52   0.098  -0.199  -0.154
    1UNL    H16   53  -0.173  -0.229  -0.065
    1UNL    H17   54  -0.132  -0.059  -0.130
    1UNL    H18   55  -0.329  -0.004   0.088
    1UNL    H19   56  -0.328   0.256  -0.163
    1UNL    H20   57  -0.338  -0.033  -0.213
    1UNL    H21   58  -0.345   0.096  -0.324
    1UNL    H22   59  -0.566   0.029  -0.341
    1UNL    H23   60  -0.537   0.255  -0.075
    1UNL    H24   61  -0.566  -0.003  -0.062
    1UNL    H25   62  -0.527   0.240   0.170
    1UNL    H26   63  -0.447   0.437   0.006
    1UNL    H27   64  -0.225   0.273   0.155
    1UNL    H28   65  -0.360   0.231   0.349
   0.00000   0.00000   0.00000   0.00000   0.00000   0.00000   0.00000   0.00000   0.00000
Generated with MDTraj, t= 5.0
 65
    1UNL     C1    1  -0.213  -0.237   0.297
    1UNL     C2    2  -0.084  -0.233   0.201
    1UNL     C3    3  -0.059  -0.364   0.120
    1UNL     C4    4   0.063  -0.340   0.023
    1UNL     O1    5   0.090  -0.446  -0.063
    1UNL     O2    6   0.169  -0.306   0.119
    1UNL     C5    7   0.136  -0.178   0.170
    1UNL     O3    8   0.033  -0.204   0.271
    1UNL     C6    9   0.064  -0.097   0.058
    1UNL     C7   10   0.115   0.050   0.032
    1UNL     O4   11   0.221   0.064  -0.066
    1UNL     C8   12   0.341   0.048  -0.001
    1UNL     O5   13   0.352   0.026   0.120
    1UNL     C9   14   0.458   0.067  -0.080
    1UNL    C10   15   0.459   0.141  -0.194
    1UNL    C11   16   0.572   0.175  -0.263
    1UNL     O6   17   0.563   0.261  -0.370
    1UNL    C12   18   0.695   0.121  -0.226
    1UNL     O7   19   0.809   0.149  -0.296
    1UNL    C13   20   0.699   0.035  -0.112
    1UNL     O8   21   0.820  -0.028  -0.085
    1UNL    C14   22   0.581   0.011  -0.038
    1UNL    C15   23   0.034  -0.199  -0.054
    1UNL    C16   24  -0.121  -0.145  -0.044
    1UNL    C17   25  -0.090  -0.108   0.096
    1UNL     O9   26  -0.131   0.026   0.149
    1UNL    C18   27  -0.244   0.078   0.083
    1UNL    O10   28  -0.230   0.109  -0.052
    1UNL    C19   29  -0.353   0.146  -0.122
    1UNL    C20   30  -0.393   0.043  -0.227
    1UNL    O11   31  -0.516   0.079  -0.286
    1UNL    C21   32  -0.469   0.177  -0.028
    1UNL    O12   33  -0.539   0.053   0.012
    1UNL    C22   34  -0.419   0.261   0.094
    1UNL    O13   35  -0.383   0.399   0.065
    1UNL    C23   36  -0.298   0.199   0.168
    1UNL    O14   37  -0.336   0.164   0.299
    1UNL     H1   38  -0.298  -0.238   0.235
    1UNL     H2   39  -0.220  -0.155   0.362
    1UNL     H3   40  -0.222  -0.340   0.343
    1UNL     H4   41  -0.018  -0.435   0.188
    1UNL     H5   42  -0.142  -0.427   0.064
    1UNL     H6   43   0.003  -0.499  -0.085
    1UNL     H7   44   0.232  -0.135   0.213
    1UNL     H8   45   0.036   0.105  -0.021
    1UNL     H9   46   0.150   0.104   0.122
    1UNL    H10   47   0.364   0.163  -0.230
    1UNL    H11   48   0.480   0.300  -0.375
    1UNL    H12   49   0.873   0.081  -0.266
    1UNL    H13   50   0.811  -0.062   0.004
    1UNL    H14   51   0.580  -0.035   0.054
    1UNL    H15   52   0.090  -0.186  -0.151
    1UNL    H16   53  -0.186  -0.229  -0.066
    1UNL    H17   54  -0.148  -0.048  -0.096
    1UNL    H18   55  -0.317   0.001   0.105
    1UNL    H19   56  -0.342   0.235  -0.193
    1UNL    H20   57  -0.414  -0.057  -0.188
    1UNL    H21   58  -0.315   0.018  -0.301
    1UNL    H22   59  -0.499   0.084  -0.389
    1UNL    H23   60  -0.531   0.244  -0.087
    1UNL    H24   61  -0.580   0.020  -0.071
    1UNL    H25   62  -0.507   0.251   0.162
    1UNL    H26   63  -0.443   0.431  -0.009
    1UNL    H27   64  -0.209   0.275   0.171
    1UNL    H28   65  -0.347   0.249   0.355
   0.00000   0.00000   0.00000   0.00000   0.00000   0.00000   0.00000   0.00000   0.00000
Generated with MDTraj, t= 6.0
 65
    1UNL     C1    1  -0.201  -0.236   0.296
    1UNL     C2    2  -0.080  -0.233   0.200
    1UNL     C3    3  -0.052  -0.365   0.133
    1UNL     C4    4   0.060  -0.336   0.028
    1UNL     O1    5   0.081  -0.433  -0.077
    1UNL     O2    6   0.171  -0.297   0.108
    1UNL     C5    7   0.138  -0.173   0.178
    1UNL     O3    8   0.045  -0.203   0.279
    1UNL     C6    9   0.066  -0.094   0.065
    1UNL     C7   10   0.117   0.045   0.036
    1UNL     O4   11   0.222   0.055  -0.060
    1UNL     C8   12   0.340   0.029   0.004
    1UNL     O5   13   0.356  -0.006   0.121
    1UNL     C9   14   0.459   0.059  -0.079
    1UNL    C10   15   0.444   0.150  -0.180
    1UNL    C11   16   0.552   0.182  -0.256
    1UNL     O6   17   0.529   0.249  -0.373
    1UNL    C12   18   0.680   0.130  -0.230
    1UNL     O7   19   0.795   0.154  -0.298
    1UNL    C13   20   0.695   0.037  -0.118
    1UNL     O8   21   0.820  -0.010  -0.083
    1UNL    C14   22   0.581   0.001  -0.049
    1UNL    C15   23   0.032  -0.195  -0.046
    1UNL    C16   24  -0.110  -0.146  -0.046
    1UNL    C17   25  -0.085  -0.102   0.105
    1UNL     O9   26  -0.146   0.012   0.167
    1UNL    C18   27  -0.258   0.061   0.094
    1UNL    O10   28  -0.232   0.082  -0.044
    1UNL    C19   29  -0.346   0.138  -0.121
    1UNL    C20   30  -0.379   0.045  -0.240
    1UNL    O11   31  -0.481   0.085  -0.329
    1UNL    C21   32  -0.466   0.187  -0.030
    1UNL    O12   33  -0.533   0.066   0.021
    1UNL    C22   34  -0.413   0.275   0.087
    1UNL    O13   35  -0.373   0.401   0.050
    1UNL    C23   36  -0.297   0.200   0.166
    1UNL    O14   37  -0.348   0.172   0.294
    1UNL     H1   38  -0.293  -0.270   0.251
    1UNL     H2   39  -0.213  -0.132   0.322
    1UNL     H3   40  -0.185  -0.303   0.376
    1UNL     H4   41  -0.008  -0.439   0.201
    1UNL     H5   42  -0.152  -0.402   0.101
    1UNL     H6   43   0.019  -0.410  -0.154
    1UNL     H7   44   0.237  -0.127   0.215
    1UNL     H8   45   0.035   0.109   0.003
    1UNL     H9   46   0.162   0.085   0.130
    1UNL    H10   47   0.337   0.162  -0.208
    1UNL    H11   48   0.441   0.277  -0.376
    1UNL    H12   49   0.854   0.079  -0.267
    1UNL    H13   50   0.827  -0.047   0.003
    1UNL    H14   51   0.597  -0.062   0.043
    1UNL    H15   52   0.095  -0.187  -0.138
    1UNL    H16   53  -0.189  -0.224  -0.067
    1UNL    H17   54  -0.131  -0.059  -0.109
    1UNL    H18   55  -0.335  -0.015   0.108
    1UNL    H19   56  -0.298   0.235  -0.153
    1UNL    H20   57  -0.408  -0.054  -0.208
    1UNL    H21   58  -0.285   0.031  -0.297
    1UNL    H22   59  -0.491   0.182  -0.312
    1UNL    H23   60  -0.530   0.258  -0.083
    1UNL    H24   61  -0.583   0.029  -0.054
    1UNL    H25   62  -0.497   0.286   0.160
    1UNL    H26   63  -0.411   0.447  -0.024
    1UNL    H27   64  -0.201   0.266   0.155
    1UNL    H28   65  -0.273   0.201   0.364
   0.00000   0.00000   0.00000   0.00000   0.00000   0.00000   0.00000   0.00000   0.00000
Generated with MDTraj, t= 7.0
 65
    1UNL     C1    1  -0.197  -0.251   0.317
    1UNL     C2    2  -0.078  -0.242   0.217
    1UNL     C3    3  -0.053  -0.371   0.126
    1UNL     C4    4   0.065  -0.333   0.021
    1UNL     O1    5   0.080  -0.436  -0.066
    1UNL     O2    6   0.178  -0.308   0.110
    1UNL     C5    7   0.141  -0.187   0.179
    1UNL     O3    8   0.042  -0.205   0.280
    1UNL     C6    9   0.061  -0.098   0.080
    1UNL     C7   10   0.109   0.046   0.056
    1UNL     O4   11   0.210   0.070  -0.039
    1UNL     C8   12   0.331   0.029   0.007
    1UNL     O5   13   0.352  -0.017   0.116
    1UNL     C9   14   0.454   0.054  -0.081
    1UNL    C10   15   0.440   0.129  -0.195
    1UNL    C11   16   0.544   0.168  -0.274
    1UNL     O6   17   0.528   0.255  -0.389
    1UNL    C12   18   0.670   0.128  -0.227
    1UNL     O7   19   0.779   0.152  -0.309
    1UNL    C13   20   0.690   0.050  -0.110
    1UNL     O8   21   0.820   0.004  -0.092
    1UNL    C14   22   0.578   0.018  -0.032
    1UNL    C15   23   0.036  -0.190  -0.046
    1UNL    C16   24  -0.112  -0.152  -0.045
    1UNL    C17   25  -0.098  -0.115   0.110
    1UNL     O9   26  -0.161  -0.007   0.172
    1UNL    C18   27  -0.247   0.068   0.090
    1UNL    O10   28  -0.213   0.112  -0.043
    1UNL    C19   29  -0.323   0.162  -0.121
    1UNL    C20   30  -0.353   0.068  -0.233
    1UNL    O11   31  -0.470   0.108  -0.310
    1UNL    C21   32  -0.459   0.184  -0.041
    1UNL    O12   33  -0.530   0.061  -0.002
    1UNL    C22   34  -0.413   0.273   0.074
    1UNL    O13   35  -0.377   0.396   0.028
    1UNL    C23   36  -0.295   0.198   0.164
    1UNL    O14   37  -0.334   0.169   0.292
    1UNL     H1   38  -0.298  -0.269   0.280
    1UNL     H2   39  -0.206  -0.155   0.371
    1UNL     H3   40  -0.178  -0.330   0.379
    1UNL     H4   41  -0.016  -0.452   0.193
    1UNL     H5   42  -0.142  -0.405   0.090
    1UNL     H6   43   0.009  -0.432  -0.135
    1UNL     H7   44   0.228  -0.132   0.229
    1UNL     H8   45   0.027   0.111   0.025
    1UNL     H9   46   0.154   0.082   0.151
    1UNL    H10   47   0.345   0.173  -0.221
    1UNL    H11   48   0.443   0.289  -0.395
    1UNL    H12   49   0.854   0.116  -0.258
    1UNL    H13   50   0.830  -0.026  -0.004
    1UNL    H14   51   0.597  -0.053   0.041
    1UNL    H15   52   0.098  -0.166  -0.137
    1UNL    H16   53  -0.190  -0.235  -0.059
    1UNL    H17   54  -0.135  -0.060  -0.091
    1UNL    H18   55  -0.336   0.005   0.079
    1UNL    H19   56  -0.289   0.257  -0.164
    1UNL    H20   57  -0.382  -0.022  -0.180
    1UNL    H21   58  -0.269   0.050  -0.306
    1UNL    H22   59  -0.483   0.074  -0.396
    1UNL    H23   60  -0.532   0.237  -0.106
    1UNL    H24   61  -0.586   0.030  -0.074
    1UNL    H25   62  -0.496   0.269   0.145
    1UNL    H26   63  -0.453   0.450   0.016
    1UNL    H27   64  -0.215   0.284   0.170
    1UNL    H28   65  -0.426   0.115   0.288
   0.00000   0.00000   0.00000   0.00000   0.00000   0.00000   0.00000   0.00000   0.00000
Generated with MDTraj, t= 8.0
 65
    1UNL     C1    1  -0.203  -0.255   0.302
    1UNL     C2    2  -0.084  -0.240   0.210
    1UNL     C3    3  -0.061  -0.369   0.124
    1UNL     C4    4   0.061  -0.336   0.026
    1UNL     O1    5   0.087  -0.447  -0.064
    1UNL     O2    6   0.173  -0.303   0.119
    1UNL     C5    7   0.137  -0.183   0.185
    1UNL     O3    8   0.038  -0.215   0.289
    1UNL     C6    9   0.061  -0.098   0.078
    1UNL     C7   10   0.106   0.051   0.043
    1UNL     O4   11   0.202   0.055  -0.055
    1UNL     C8   12   0.321   0.038   0.010
    1UNL     O5   13   0.338   0.017   0.126
    1UNL     C9   14   0.439   0.069  -0.076
    1UNL    C10   15   0.415   0.128  -0.196
    1UNL    C11   16   0.532   0.163  -0.274
    1UNL     O6   17   0.528   0.226  -0.399
    1UNL    C12   18   0.657   0.119  -0.234
    1UNL     O7   19   0.769   0.154  -0.310
    1UNL    C13   20   0.681   0.057  -0.114
    1UNL     O8   21   0.813   0.016  -0.091
    1UNL    C14   22   0.567   0.031  -0.037
    1UNL    C15   23   0.034  -0.197  -0.043
    1UNL    C16   24  -0.116  -0.154  -0.037
    1UNL    C17   25  -0.087  -0.116   0.111
    1UNL     O9   26  -0.147   0.005   0.168
    1UNL    C18   27  -0.245   0.068   0.097
    1UNL    O10   28  -0.200   0.105  -0.036
    1UNL    C19   29  -0.296   0.167  -0.123
    1UNL    C20   30  -0.326   0.080  -0.248
    1UNL    O11   31  -0.459   0.088  -0.301
    1UNL    C21   32  -0.429   0.189  -0.044
    1UNL    O12   33  -0.499   0.073  -0.037
    1UNL    C22   34  -0.405   0.270   0.091
    1UNL    O13   35  -0.363   0.400   0.065
    1UNL    C23   36  -0.298   0.188   0.179
    1UNL    O14   37  -0.360   0.152   0.294
    1UNL     H1   38  -0.294  -0.247   0.247
    1UNL     H2   39  -0.218  -0.172   0.373
    1UNL     H3   40  -0.202  -0.351   0.344
    1UNL     H4   41  -0.037  -0.469   0.169
    1UNL     H5   42  -0.151  -0.376   0.075
    1UNL     H6   43   0.006  -0.482  -0.099
    1UNL     H7   44   0.234  -0.137   0.226
    1UNL     H8   45   0.025   0.110  -0.002
    1UNL     H9   46   0.155   0.109   0.126
    1UNL    H10   47   0.319   0.165  -0.217
    1UNL    H11   48   0.442   0.260  -0.409
    1UNL    H12   49   0.838   0.089  -0.283
    1UNL    H13   50   0.811  -0.025  -0.005
    1UNL    H14   51   0.583  -0.035   0.052
    1UNL    H15   52   0.088  -0.181  -0.140
    1UNL    H16   53  -0.192  -0.233  -0.057
    1UNL    H17   54  -0.117  -0.066  -0.103
    1UNL    H18   55  -0.319  -0.013   0.082
    1UNL    H19   56  -0.251   0.262  -0.151
    1UNL    H20   57  -0.306  -0.024  -0.232
    1UNL    H21   58  -0.248   0.120  -0.321
    1UNL    H22   59  -0.458   0.096  -0.400
    1UNL    H23   60  -0.494   0.268  -0.092
    1UNL    H24   61  -0.515   0.042  -0.130
    1UNL    H25   62  -0.493   0.273   0.154
    1UNL    H26   63  -0.438   0.461   0.047
    1UNL    H27   64  -0.216   0.270   0.200
    1UNL    H28   65  -0.450   0.102   0.273
   0.00000   0.00000   0.00000   0.00000   0.00000   0.00000   0.00000   0.00000   0.00000
Generated with MDTraj, t= 9.0
 65
    1UNL     C1    1  -0.197  -0.261   0.303
    1UNL     C2    2  -0.079  -0.245   0.210
    1UNL     C3    3  -0.049  -0.374   0.134
    1UNL     C4    4   0.068  -0.336   0.029
    1UNL     O1    5   0.094  -0.444  -0.056
    1UNL     O2    6   0.180  -0.301   0.116
    1UNL     C5    7   0.141  -0.182   0.178
    1UNL     O3    8   0.039  -0.209   0.281
    1UNL     C6    9   0.054  -0.099   0.068
    1UNL     C7   10   0.092   0.048   0.037
    1UNL     O4   11   0.198   0.051  -0.053
    1UNL     C8   12   0.320   0.052   0.011
    1UNL     O5   13   0.343   0.040   0.127
    1UNL     C9   14   0.437   0.076  -0.078
    1UNL    C10   15   0.420   0.138  -0.198
    1UNL    C11   16   0.527   0.150  -0.285
    1UNL     O6   17   0.515   0.199  -0.414
    1UNL    C12   18   0.654   0.115  -0.239
    1UNL     O7   19   0.767   0.135  -0.321
    1UNL    C13   20   0.669   0.052  -0.114
    1UNL     O8   21   0.802   0.040  -0.078
    1UNL    C14   22   0.561   0.033  -0.030
    1UNL    C15   23   0.019  -0.207  -0.042
    1UNL    C16   24  -0.128  -0.171  -0.035
    1UNL    C17   25  -0.092  -0.121   0.108
    1UNL     O9   26  -0.154  -0.009   0.176
    1UNL    C18   27  -0.241   0.070   0.094
    1UNL    O10   28  -0.194   0.131  -0.033
    1UNL    C19   29  -0.295   0.184  -0.125
    1UNL    C20   30  -0.315   0.081  -0.235
    1UNL    O11   31  -0.419   0.104  -0.326
    1UNL    C21   32  -0.428   0.204  -0.046
    1UNL    O12   33  -0.490   0.086  -0.036
    1UNL    C22   34  -0.401   0.275   0.097
    1UNL    O13   35  -0.344   0.409   0.093
    1UNL    C23   36  -0.317   0.173   0.183
    1UNL    O14   37  -0.390   0.110   0.285
    1UNL     H1   38  -0.284  -0.311   0.274
    1UNL     H2   39  -0.233  -0.162   0.318
    1UNL     H3   40  -0.159  -0.303   0.398
    1UNL     H4   41  -0.013  -0.451   0.200
    1UNL     H5   42  -0.138  -0.412   0.078
    1UNL     H6   43   0.019  -0.478  -0.100
    1UNL     H7   44   0.232  -0.116   0.199
    1UNL     H8   45   0.009   0.107  -0.006
    1UNL     H9   46   0.138   0.095   0.130
    1UNL    H10   47   0.314   0.134  -0.238
    1UNL    H11   48   0.429   0.235  -0.435
    1UNL    H12   49   0.840   0.106  -0.260
    1UNL    H13   50   0.805   0.009   0.015
    1UNL    H14   51   0.568  -0.007   0.067
    1UNL    H15   52   0.080  -0.195  -0.134
    1UNL    H16   53  -0.196  -0.255  -0.041
    1UNL    H17   54  -0.158  -0.083  -0.104
    1UNL    H18   55  -0.313  -0.008   0.062
    1UNL    H19   56  -0.255   0.269  -0.176
    1UNL    H20   57  -0.334  -0.004  -0.174
    1UNL    H21   58  -0.218   0.058  -0.293
    1UNL    H22   59  -0.370   0.121  -0.416
    1UNL    H23   60  -0.488   0.283  -0.097
    1UNL    H24   61  -0.525   0.068  -0.127
    1UNL    H25   62  -0.498   0.277   0.148
    1UNL    H26   63  -0.415   0.464   0.044
    1UNL    H27   64  -0.239   0.240   0.239
    1UNL    H28   65  -0.482   0.072   0.260
   0.00000   0.00000   0.00000   0.00000   0.00000   0.00000   0.00000   0.00000   0.00000
Generated with MDTraj, t= 10.0
 65
    1UNL     C1    1  -0.177  -0.255   0.331
    1UNL     C2    2  -0.065  -0.245   0.226
    1UNL     C3    3  -0.037  -0.377   0.139
    1UNL     C4    4   0.072  -0.341   0.027
    1UNL     O1    5   0.092  -0.430  -0.073
    1UNL     O2    6   0.191  -0.294   0.103
    1UNL     C5    7   0.150  -0.178   0.177
    1UNL     O3    8   0.069  -0.203   0.284
    1UNL     C6    9   0.053  -0.095   0.079
    1UNL     C7   10   0.088   0.049   0.030
    1UNL     O4   11   0.195   0.070  -0.062
    1UNL     C8   12   0.318   0.058  -0.000
    1UNL     O5   13   0.329   0.044   0.118
    1UNL     C9   14   0.435   0.077  -0.086
    1UNL    C10   15   0.417   0.110  -0.218
    1UNL    C11   16   0.524   0.127  -0.299
    1UNL     O6   17   0.504   0.174  -0.427
    1UNL    C12   18   0.653   0.102  -0.243
    1UNL     O7   19   0.769   0.117  -0.315
    1UNL    C13   20   0.674   0.078  -0.102
    1UNL     O8   21   0.806   0.041  -0.065
    1UNL    C14   22   0.561   0.069  -0.027
    1UNL    C15   23   0.025  -0.203  -0.040
    1UNL    C16   24  -0.126  -0.166  -0.024
    1UNL    C17   25  -0.099  -0.125   0.125
    1UNL     O9   26  -0.170  -0.021   0.189
    1UNL    C18   27  -0.264   0.047   0.105
    1UNL    O10   28  -0.197   0.108  -0.003
    1UNL    C19   29  -0.280   0.179  -0.101
    1UNL    C20   30  -0.307   0.092  -0.231
    1UNL    O11   31  -0.391   0.152  -0.325
    1UNL    C21   32  -0.421   0.214  -0.048
    1UNL    O12   33  -0.520   0.120  -0.051
    1UNL    C22   34  -0.402   0.271   0.099
    1UNL    O13   35  -0.313   0.382   0.083
    1UNL    C23   36  -0.339   0.152   0.184
    1UNL    O14   37  -0.441   0.078   0.249
    1UNL     H1   38  -0.268  -0.249   0.279
    1UNL     H2   39  -0.187  -0.174   0.396
    1UNL     H3   40  -0.171  -0.359   0.377
    1UNL     H4   41   0.001  -0.456   0.197
    1UNL     H5   42  -0.138  -0.403   0.084
    1UNL     H6   43   0.016  -0.457  -0.123
    1UNL     H7   44   0.229  -0.105   0.207
    1UNL     H8   45  -0.001   0.082  -0.031
    1UNL     H9   46   0.111   0.120   0.115
    1UNL    H10   47   0.322   0.116  -0.250
    1UNL    H11   48   0.414   0.199  -0.449
    1UNL    H12   49   0.837   0.120  -0.246
    1UNL    H13   50   0.809   0.012   0.031
    1UNL    H14   51   0.572   0.067   0.082
    1UNL    H15   52   0.080  -0.184  -0.133
    1UNL    H16   53  -0.188  -0.254  -0.046
    1UNL    H17   54  -0.160  -0.071  -0.080
    1UNL    H18   55  -0.344  -0.024   0.071
    1UNL    H19   56  -0.213   0.259  -0.136
    1UNL    H20   57  -0.358   0.001  -0.212
    1UNL    H21   58  -0.206   0.071  -0.278
    1UNL    H22   59  -0.352   0.232  -0.369
    1UNL    H23   60  -0.453   0.305  -0.100
    1UNL    H24   61  -0.548   0.096  -0.140
    1UNL    H25   62  -0.497   0.305   0.147
    1UNL    H26   63  -0.349   0.449   0.014
    1UNL    H27   64  -0.264   0.207   0.255
    1UNL    H28   65  -0.520   0.075   0.193
   0.00000   0.00000   0.00000   0.00000   0.00000   0.00000   0.00000   0.00000   0.00000
Generated with MDTraj, t= 11.0
 65
    1UNL     C1    1  -0.150  -0.287   0.347
    1UNL     C2    2  -0.050  -0.250   0.227
    1UNL     C3    3  -0.015  -0.375   0.145
    1UNL     C4    4   0.073  -0.322   0.025
    1UNL     O1    5   0.105  -0.423  -0.073
    1UNL     O2    6   0.187  -0.273   0.097
    1UNL     C5    7   0.147  -0.157   0.169
    1UNL     O3    8   0.068  -0.195   0.282
    1UNL     C6    9   0.047  -0.084   0.072
    1UNL     C7   10   0.070   0.060   0.030
    1UNL     O4   11   0.180   0.075  -0.062
    1UNL     C8   12   0.311   0.071  -0.005
    1UNL     O5   13   0.325   0.064   0.115
    1UNL     C9   14   0.427   0.079  -0.087
    1UNL    C10   15   0.412   0.091  -0.224
    1UNL    C11   16   0.525   0.098  -0.304
    1UNL     O6   17   0.512   0.128  -0.435
    1UNL    C12   18   0.654   0.097  -0.243
    1UNL     O7   19   0.769   0.116  -0.313
    1UNL    C13   20   0.667   0.072  -0.103
    1UNL     O8   21   0.797   0.074  -0.056
    1UNL    C14   22   0.551   0.057  -0.027
    1UNL    C15   23   0.015  -0.190  -0.043
    1UNL    C16   24  -0.134  -0.170  -0.015
    1UNL    C17   25  -0.094  -0.129   0.131
    1UNL     O9   26  -0.182  -0.035   0.193
    1UNL    C18   27  -0.270   0.039   0.101
    1UNL    O10   28  -0.198   0.099  -0.015
    1UNL    C19   29  -0.274   0.190  -0.103
    1UNL    C20   30  -0.292   0.105  -0.241
    1UNL    O11   31  -0.393   0.165  -0.324
    1UNL    C21   32  -0.406   0.238  -0.038
    1UNL    O12   33  -0.504   0.136  -0.051
    1UNL    C22   34  -0.384   0.274   0.116
    1UNL    O13   35  -0.276   0.364   0.126
    1UNL    C23   36  -0.363   0.130   0.184
    1UNL    O14   37  -0.492   0.061   0.206
    1UNL     H1   38  -0.249  -0.324   0.321
    1UNL     H2   39  -0.174  -0.193   0.384
    1UNL     H3   40  -0.105  -0.356   0.420
    1UNL     H4   41   0.065  -0.427   0.195
    1UNL     H5   42  -0.106  -0.432   0.107
    1UNL     H6   43   0.026  -0.453  -0.120
    1UNL     H7   44   0.233  -0.098   0.207
    1UNL     H8   45  -0.020   0.094  -0.036
    1UNL     H9   46   0.097   0.132   0.113
    1UNL    H10   47   0.302   0.100  -0.258
    1UNL    H11   48   0.419   0.108  -0.462
    1UNL    H12   49   0.843   0.088  -0.254
    1UNL    H13   50   0.785   0.041   0.041
    1UNL    H14   51   0.554   0.011   0.071
    1UNL    H15   52   0.056  -0.170  -0.143
    1UNL    H16   53  -0.183  -0.271  -0.019
    1UNL    H17   54  -0.190  -0.093  -0.069
    1UNL    H18   55  -0.339  -0.040   0.062
    1UNL    H19   56  -0.196   0.270  -0.112
    1UNL    H20   57  -0.331   0.014  -0.208
    1UNL    H21   58  -0.193   0.094  -0.297
    1UNL    H22   59  -0.359   0.220  -0.391
    1UNL    H23   60  -0.443   0.328  -0.085
    1UNL    H24   61  -0.513   0.113  -0.147
    1UNL    H25   62  -0.486   0.298   0.158
    1UNL    H26   63  -0.280   0.436   0.058
    1UNL    H27   64  -0.310   0.143   0.287
    1UNL    H28   65  -0.524   0.050   0.121
   0.00000   0.00000   0.00000   0.00000   0.00000   0.00000   0.00000   0.00000   0.00000
Generated with MDTraj, t= 12.0
 65
    1UNL     C1    1  -0.156  -0.285   0.318
    1UNL     C2    2  -0.050  -0.251   0.214
    1UNL     C3    3  -0.001  -0.376   0.138
    1UNL     C4    4   0.104  -0.331   0.030
    1UNL     O1    5   0.145  -0.427  -0.067
    1UNL     O2    6   0.211  -0.258   0.108
    1UNL     C5    7   0.147  -0.146   0.166
    1UNL     O3    8   0.069  -0.196   0.280
    1UNL     C6    9   0.046  -0.091   0.063
    1UNL     C7   10   0.073   0.051   0.016
    1UNL     O4   11   0.181   0.053  -0.074
    1UNL     C8   12   0.299   0.073  -0.008
    1UNL     O5   13   0.303   0.098   0.112
    1UNL     C9   14   0.414   0.076  -0.088
    1UNL    C10   15   0.402   0.085  -0.225
    1UNL    C11   16   0.515   0.088  -0.301
    1UNL     O6   17   0.515   0.074  -0.437
    1UNL    C12   18   0.639   0.084  -0.235
    1UNL     O7   19   0.754   0.091  -0.314
    1UNL    C13   20   0.652   0.080  -0.097
    1UNL     O8   21   0.778   0.095  -0.046
    1UNL    C14   22   0.536   0.081  -0.024
    1UNL    C15   23   0.034  -0.202  -0.044
    1UNL    C16   24  -0.120  -0.181  -0.034
    1UNL    C17   25  -0.096  -0.130   0.113
    1UNL     O9   26  -0.183  -0.035   0.181
    1UNL    C18   27  -0.273   0.035   0.094
    1UNL    O10   28  -0.194   0.124   0.007
    1UNL    C19   29  -0.270   0.198  -0.093
    1UNL    C20   30  -0.309   0.098  -0.214
    1UNL    O11   31  -0.382   0.167  -0.319
    1UNL    C21   32  -0.392   0.264  -0.027
    1UNL    O12   33  -0.509   0.187  -0.058
    1UNL    C22   34  -0.382   0.268   0.129
    1UNL    O13   35  -0.274   0.350   0.166
    1UNL    C23   36  -0.372   0.114   0.180
    1UNL    O14   37  -0.497   0.054   0.190
    1UNL     H1   38  -0.243  -0.341   0.280
    1UNL     H2   39  -0.197  -0.195   0.359
    1UNL     H3   40  -0.106  -0.346   0.385
    1UNL     H4   41   0.070  -0.425   0.208
    1UNL     H5   42  -0.076  -0.432   0.090
    1UNL     H6   43   0.061  -0.463  -0.110
    1UNL     H7   44   0.231  -0.083   0.199
    1UNL     H8   45  -0.008   0.092  -0.058
    1UNL     H9   46   0.088   0.119   0.105
    1UNL    H10   47   0.305   0.098  -0.264
    1UNL    H11   48   0.429   0.038  -0.474
    1UNL    H12   49   0.829   0.105  -0.252
    1UNL    H13   50   0.776   0.078   0.056
    1UNL    H14   51   0.543   0.070   0.082
    1UNL    H15   52   0.077  -0.175  -0.140
    1UNL    H16   53  -0.187  -0.274  -0.045
    1UNL    H17   54  -0.174  -0.109  -0.093
    1UNL    H18   55  -0.331  -0.041   0.034
    1UNL    H19   56  -0.191   0.272  -0.129
    1UNL    H20   57  -0.380   0.035  -0.172
    1UNL    H21   58  -0.220   0.044  -0.254
    1UNL    H22   59  -0.327   0.176  -0.399
    1UNL    H23   60  -0.406   0.364  -0.066
    1UNL    H24   61  -0.535   0.204  -0.152
    1UNL    H25   62  -0.479   0.311   0.164
    1UNL    H26   63  -0.265   0.431   0.118
    1UNL    H27   64  -0.330   0.125   0.287
    1UNL    H28   65  -0.546   0.088   0.100
   0.00000   0.00000   0.00000   0.00000   0.00000   0.00000   0.00000   0.00000   0.00000
Generated with MDTraj, t= 13.0
 65
    1UNL     C1    1  -0.167  -0.293   0.307
    1UNL     C2    2  -0.048  -0.256   0.211
    1UNL     C3    3   0.012  -0.378   0.135
    1UNL     C4    4   0.117  -0.319   0.036
    1UNL     O1    5   0.164  -0.421  -0.055
    1UNL     O2    6   0.217  -0.254   0.116
    1UNL     C5    7   0.150  -0.140   0.170
    1UNL     O3    8   0.060  -0.191   0.273
    1UNL     C6    9   0.047  -0.089   0.061
    1UNL     C7   10   0.066   0.052   0.018
    1UNL     O4   11   0.175   0.073  -0.075
    1UNL     C8   12   0.290   0.092  -0.010
    1UNL     O5   13   0.292   0.106   0.114
    1UNL     C9   14   0.412   0.094  -0.092
    1UNL    C10   15   0.405   0.055  -0.227
    1UNL    C11   16   0.521   0.057  -0.303
    1UNL     O6   17   0.527   0.037  -0.439
    1UNL    C12   18   0.641   0.072  -0.233
    1UNL     O7   19   0.754   0.056  -0.308
    1UNL    C13   20   0.653   0.106  -0.097
    1UNL     O8   21   0.781   0.114  -0.051
    1UNL    C14   22   0.534   0.124  -0.029
    1UNL    C15   23   0.044  -0.199  -0.050
    1UNL    C16   24  -0.110  -0.203  -0.041
    1UNL    C17   25  -0.100  -0.148   0.107
    1UNL     O9   26  -0.183  -0.049   0.169
    1UNL    C18   27  -0.267   0.030   0.087
    1UNL    O10   28  -0.196   0.119   0.000
    1UNL    C19   29  -0.276   0.200  -0.088
    1UNL    C20   30  -0.341   0.113  -0.202
    1UNL    O11   31  -0.369   0.189  -0.322
    1UNL    C21   32  -0.392   0.276  -0.015
    1UNL    O12   33  -0.526   0.240  -0.051
    1UNL    C22   34  -0.385   0.257   0.139
    1UNL    O13   35  -0.270   0.338   0.173
    1UNL    C23   36  -0.375   0.104   0.174
    1UNL    O14   37  -0.495   0.030   0.182
    1UNL     H1   38  -0.253  -0.312   0.243
    1UNL     H2   39  -0.207  -0.216   0.375
    1UNL     H3   40  -0.149  -0.383   0.354
    1UNL     H4   41   0.073  -0.443   0.202
    1UNL     H5   42  -0.065  -0.421   0.086
    1UNL     H6   43   0.084  -0.464  -0.105
    1UNL     H7   44   0.219  -0.064   0.204
    1UNL     H8   45  -0.020   0.091  -0.036
    1UNL     H9   46   0.087   0.118   0.109
    1UNL    H10   47   0.310   0.020  -0.267
    1UNL    H11   48   0.435   0.028  -0.482
    1UNL    H12   49   0.830   0.093  -0.256
    1UNL    H13   50   0.789   0.102   0.049
    1UNL    H14   51   0.540   0.153   0.078
    1UNL    H15   52   0.094  -0.173  -0.143
    1UNL    H16   53  -0.170  -0.299  -0.041
    1UNL    H17   54  -0.156  -0.127  -0.103
    1UNL    H18   55  -0.319  -0.045   0.022
    1UNL    H19   56  -0.212   0.267  -0.150
    1UNL    H20   57  -0.429   0.069  -0.167
    1UNL    H21   58  -0.277   0.030  -0.234
    1UNL    H22   59  -0.440   0.133  -0.374
    1UNL    H23   60  -0.381   0.385  -0.029
    1UNL    H24   61  -0.527   0.252  -0.147
    1UNL    H25   62  -0.469   0.314   0.185
    1UNL    H26   63  -0.216   0.301   0.240
    1UNL    H27   64  -0.338   0.093   0.282
    1UNL    H28   65  -0.566   0.059   0.129
   0.00000   0.00000   0.00000   0.00000   0.00000   0.00000   0.00000   0.00000   0.00000
Generated with MDTraj, t= 14.0
 65
    1UNL     C1    1  -0.149  -0.297   0.313
    1UNL     C2    2  -0.044  -0.255   0.214
    1UNL     C3    3   0.011  -0.371   0.130
    1UNL     C4    4   0.113  -0.311   0.020
    1UNL     O1    5   0.162  -0.403  -0.070
    1UNL     O2    6   0.214  -0.245   0.105
    1UNL     C5    7   0.151  -0.130   0.179
    1UNL     O3    8   0.066  -0.192   0.283
    1UNL     C6    9   0.054  -0.075   0.069
    1UNL     C7   10   0.069   0.068   0.022
    1UNL     O4   11   0.171   0.080  -0.076
    1UNL     C8   12   0.289   0.094  -0.015
    1UNL     O5   13   0.302   0.110   0.109
    1UNL     C9   14   0.416   0.092  -0.085
    1UNL    C10   15   0.412   0.054  -0.217
    1UNL    C11   16   0.528   0.025  -0.290
    1UNL     O6   17   0.524  -0.014  -0.423
    1UNL    C12   18   0.653   0.060  -0.238
    1UNL     O7   19   0.768   0.056  -0.304
    1UNL    C13   20   0.656   0.110  -0.107
    1UNL     O8   21   0.782   0.148  -0.057
    1UNL    C14   22   0.540   0.110  -0.024
    1UNL    C15   23   0.051  -0.183  -0.046
    1UNL    C16   24  -0.104  -0.192  -0.031
    1UNL    C17   25  -0.088  -0.137   0.111
    1UNL     O9   26  -0.189  -0.053   0.168
    1UNL    C18   27  -0.283   0.012   0.081
    1UNL    O10   28  -0.215   0.089  -0.020
    1UNL    C19   29  -0.284   0.188  -0.101
    1UNL    C20   30  -0.346   0.128  -0.222
    1UNL    O11   31  -0.441   0.203  -0.291
    1UNL    C21   32  -0.376   0.270  -0.008
    1UNL    O12   33  -0.511   0.245  -0.031
    1UNL    C22   34  -0.368   0.249   0.144
    1UNL    O13   35  -0.251   0.312   0.201
    1UNL    C23   36  -0.390   0.093   0.164
    1UNL    O14   37  -0.524   0.048   0.126
    1UNL     H1   38  -0.221  -0.365   0.282
    1UNL     H2   39  -0.201  -0.206   0.344
    1UNL     H3   40  -0.100  -0.338   0.401
    1UNL     H4   41   0.072  -0.421   0.204
    1UNL     H5   42  -0.071  -0.432   0.086
    1UNL     H6   43   0.102  -0.456  -0.137
    1UNL     H7   44   0.219  -0.054   0.211
    1UNL     H8   45  -0.017   0.105  -0.023
    1UNL     H9   46   0.093   0.140   0.108
    1UNL    H10   47   0.315   0.021  -0.262
    1UNL    H11   48   0.425  -0.022  -0.452
    1UNL    H12   49   0.841   0.066  -0.238
    1UNL    H13   50   0.775   0.148   0.041
    1UNL    H14   51   0.544   0.142   0.075
    1UNL    H15   52   0.085  -0.154  -0.145
    1UNL    H16   53  -0.156  -0.291  -0.024
    1UNL    H17   54  -0.151  -0.115  -0.096
    1UNL    H18   55  -0.326  -0.076   0.027
    1UNL    H19   56  -0.207   0.256  -0.140
    1UNL    H20   57  -0.397   0.043  -0.190
    1UNL    H21   58  -0.273   0.093  -0.297
    1UNL    H22   59  -0.394   0.280  -0.337
    1UNL    H23   60  -0.365   0.381  -0.019
    1UNL    H24   61  -0.516   0.245  -0.130
    1UNL    H25   62  -0.444   0.304   0.201
    1UNL    H26   63  -0.210   0.240   0.250
    1UNL    H27   64  -0.387   0.050   0.269
    1UNL    H28   65  -0.542   0.087   0.044
   0.00000   0.00000   0.00000   0.00000   0.00000   0.00000   0.00000   0.00000   0.00000
Generated with MDTraj, t= 15.0
 65
    1UNL     C1    1  -0.134  -0.286   0.312
    1UNL     C2    2  -0.041  -0.242   0.205
    1UNL     C3    3   0.030  -0.363   0.127
    1UNL     C4    4   0.125  -0.303   0.019
    1UNL     O1    5   0.175  -0.399  -0.081
    1UNL     O2    6   0.226  -0.234   0.094
    1UNL     C5    7   0.159  -0.131   0.168
    1UNL     O3    8   0.076  -0.184   0.270
    1UNL     C6    9   0.050  -0.074   0.066
    1UNL     C7   10   0.074   0.070   0.016
    1UNL     O4   11   0.182   0.080  -0.073
    1UNL     C8   12   0.295   0.087  -0.001
    1UNL     O5   13   0.308   0.108   0.121
    1UNL     C9   14   0.420   0.072  -0.076
    1UNL    C10   15   0.413   0.023  -0.208
    1UNL    C11   16   0.528   0.008  -0.280
    1UNL     O6   17   0.512  -0.057  -0.400
    1UNL    C12   18   0.649   0.060  -0.228
    1UNL     O7   19   0.769   0.059  -0.303
    1UNL    C13   20   0.657   0.119  -0.101
    1UNL     O8   21   0.782   0.167  -0.052
    1UNL    C14   22   0.542   0.119  -0.027
    1UNL    C15   23   0.040  -0.181  -0.045
    1UNL    C16   24  -0.111  -0.181  -0.036
    1UNL    C17   25  -0.094  -0.133   0.106
    1UNL     O9   26  -0.189  -0.037   0.161
    1UNL    C18   27  -0.289   0.008   0.073
    1UNL    O10   28  -0.226   0.091  -0.023
    1UNL    C19   29  -0.313   0.193  -0.093
    1UNL    C20   30  -0.398   0.127  -0.194
    1UNL    O11   31  -0.434   0.213  -0.301
    1UNL    C21   32  -0.391   0.284   0.010
    1UNL    O12   33  -0.528   0.283  -0.029
    1UNL    C22   34  -0.361   0.234   0.151
    1UNL    O13   35  -0.225   0.265   0.180
    1UNL    C23   36  -0.392   0.083   0.152
    1UNL    O14   37  -0.527   0.034   0.116
    1UNL     H1   38  -0.223  -0.321   0.274
    1UNL     H2   39  -0.157  -0.205   0.375
    1UNL     H3   40  -0.086  -0.367   0.373
    1UNL     H4   41   0.088  -0.424   0.192
    1UNL     H5   42  -0.051  -0.421   0.061
    1UNL     H6   43   0.093  -0.444  -0.116
    1UNL     H7   44   0.221  -0.055   0.208
    1UNL     H8   45  -0.007   0.115  -0.028
    1UNL     H9   46   0.097   0.134   0.105
    1UNL    H10   47   0.326  -0.009  -0.250
    1UNL    H11   48   0.411  -0.084  -0.405
    1UNL    H12   49   0.840   0.114  -0.260
    1UNL    H13   50   0.784   0.172   0.042
    1UNL    H14   51   0.546   0.165   0.076
    1UNL    H15   52   0.093  -0.147  -0.133
    1UNL    H16   53  -0.158  -0.278  -0.058
    1UNL    H17   54  -0.151  -0.097  -0.103
    1UNL    H18   55  -0.334  -0.075   0.015
    1UNL    H19   56  -0.238   0.252  -0.141
    1UNL    H20   57  -0.484   0.085  -0.153
    1UNL    H21   58  -0.337   0.041  -0.232
    1UNL    H22   59  -0.402   0.190  -0.386
    1UNL    H23   60  -0.375   0.396   0.005
    1UNL    H24   61  -0.527   0.327  -0.117
    1UNL    H25   62  -0.414   0.293   0.226
    1UNL    H26   63  -0.176   0.176   0.201
    1UNL    H27   64  -0.391   0.053   0.259
    1UNL    H28   65  -0.561   0.122   0.065
   0.00000   0.00000   0.00000   0.00000   0.00000   0.00000   0.00000   0.00000   0.00000
Generated with MDTraj, t= 16.0
 65
    1UNL     C1    1  -0.155  -0.287   0.292
    1UNL     C2    2  -0.041  -0.244   0.200
    1UNL     C3    3   0.024  -0.366   0.121
    1UNL     C4    4   0.124  -0.303   0.016
    1UNL     O1    5   0.175  -0.400  -0.073
    1UNL     O2    6   0.229  -0.235   0.096
    1UNL     C5    7   0.157  -0.130   0.158
    1UNL     O3    8   0.074  -0.174   0.261
    1UNL     C6    9   0.051  -0.076   0.051
    1UNL     C7   10   0.067   0.081   0.016
    1UNL     O4   11   0.172   0.096  -0.072
    1UNL     C8   12   0.290   0.107  -0.002
    1UNL     O5   13   0.302   0.125   0.120
    1UNL     C9   14   0.420   0.084  -0.072
    1UNL    C10   15   0.426  -0.005  -0.185
    1UNL    C11   16   0.534  -0.003  -0.271
    1UNL     O6   17   0.532  -0.075  -0.396
    1UNL    C12   18   0.654   0.055  -0.224
    1UNL     O7   19   0.770   0.036  -0.292
    1UNL    C13   20   0.660   0.124  -0.101
    1UNL     O8   21   0.781   0.183  -0.063
    1UNL    C14   22   0.538   0.147  -0.031
    1UNL    C15   23   0.049  -0.179  -0.059
    1UNL    C16   24  -0.109  -0.173  -0.055
    1UNL    C17   25  -0.088  -0.133   0.095
    1UNL     O9   26  -0.176  -0.043   0.155
    1UNL    C18   27  -0.283   0.002   0.069
    1UNL    O10   28  -0.232   0.074  -0.046
    1UNL    C19   29  -0.315   0.184  -0.095
    1UNL    C20   30  -0.419   0.114  -0.173
    1UNL    O11   31  -0.470   0.188  -0.280
    1UNL    C21   32  -0.370   0.286   0.009
    1UNL    O12   33  -0.501   0.330  -0.019
    1UNL    C22   34  -0.365   0.229   0.156
    1UNL    O13   35  -0.240   0.253   0.209
    1UNL    C23   36  -0.389   0.077   0.161
    1UNL    O14   37  -0.517   0.037   0.110
    1UNL     H1   38  -0.237  -0.312   0.226
    1UNL     H2   39  -0.187  -0.202   0.341
    1UNL     H3   40  -0.132  -0.364   0.366
    1UNL     H4   41   0.091  -0.415   0.192
    1UNL     H5   42  -0.041  -0.442   0.064
    1UNL     H6   43   0.111  -0.460  -0.112
    1UNL     H7   44   0.226  -0.061   0.201
    1UNL     H8   45  -0.015   0.114  -0.037
    1UNL     H9   46   0.074   0.157   0.094
    1UNL    H10   47   0.332  -0.066  -0.209
    1UNL    H11   48   0.438  -0.120  -0.411
    1UNL    H12   49   0.843   0.092  -0.255
    1UNL    H13   50   0.793   0.193   0.030
    1UNL    H14   51   0.531   0.187   0.064
    1UNL    H15   52   0.103  -0.138  -0.143
    1UNL    H16   53  -0.148  -0.270  -0.079
    1UNL    H17   54  -0.149  -0.094  -0.129
    1UNL    H18   55  -0.329  -0.088   0.024
    1UNL    H19   56  -0.242   0.238  -0.154
    1UNL    H20   57  -0.492   0.083  -0.104
    1UNL    H21   58  -0.385   0.018  -0.222
    1UNL    H22   59  -0.409   0.245  -0.332
    1UNL    H23   60  -0.316   0.384   0.006
    1UNL    H24   61  -0.496   0.353  -0.113
    1UNL    H25   62  -0.432   0.288   0.220
    1UNL    H26   63  -0.192   0.172   0.212
    1UNL    H27   64  -0.390   0.024   0.256
    1UNL    H28   65  -0.555   0.118   0.070
   0.00000   0.00000   0.00000   0.00000   0.00000   0.00000   0.00000   0.00000   0.00000
Generated with MDTraj, t= 17.0
 65
    1UNL     C1    1  -0.148  -0.305   0.292
    1UNL     C2    2  -0.038  -0.253   0.198
    1UNL     C3    3   0.022  -0.367   0.114
    1UNL     C4    4   0.121  -0.304   0.013
    1UNL     O1    5   0.178  -0.389  -0.093
    1UNL     O2    6   0.214  -0.238   0.098
    1UNL     C5    7   0.153  -0.133   0.173
    1UNL     O3    8   0.075  -0.190   0.277
    1UNL     C6    9   0.056  -0.071   0.060
    1UNL     C7   10   0.064   0.070   0.013
    1UNL     O4   11   0.168   0.074  -0.082
    1UNL     C8   12   0.285   0.111  -0.015
    1UNL     O5   13   0.291   0.145   0.102
    1UNL     C9   14   0.416   0.102  -0.081
    1UNL    C10   15   0.416   0.027  -0.199
    1UNL    C11   16   0.537  -0.004  -0.259
    1UNL     O6   17   0.555  -0.096  -0.363
    1UNL    C12   18   0.663   0.049  -0.212
    1UNL     O7   19   0.781   0.017  -0.278
    1UNL    C13   20   0.656   0.139  -0.104
    1UNL     O8   21   0.778   0.193  -0.071
    1UNL    C14   22   0.537   0.155  -0.037
    1UNL    C15   23   0.056  -0.174  -0.064
    1UNL    C16   24  -0.094  -0.175  -0.053
    1UNL    C17   25  -0.085  -0.133   0.098
    1UNL     O9   26  -0.182  -0.052   0.152
    1UNL    C18   27  -0.287  -0.004   0.064
    1UNL    O10   28  -0.231   0.069  -0.048
    1UNL    C19   29  -0.313   0.183  -0.103
    1UNL    C20   30  -0.429   0.108  -0.169
    1UNL    O11   31  -0.524   0.184  -0.237
    1UNL    C21   32  -0.354   0.296   0.004
    1UNL    O12   33  -0.476   0.374  -0.023
    1UNL    C22   34  -0.351   0.230   0.147
    1UNL    O13   35  -0.225   0.245   0.217
    1UNL    C23   36  -0.393   0.079   0.143
    1UNL    O14   37  -0.520   0.050   0.091
    1UNL     H1   38  -0.223  -0.365   0.237
    1UNL     H2   39  -0.197  -0.221   0.332
    1UNL     H3   40  -0.105  -0.352   0.374
    1UNL     H4   41   0.079  -0.433   0.192
    1UNL     H5   42  -0.051  -0.421   0.055
    1UNL     H6   43   0.114  -0.434  -0.144
    1UNL     H7   44   0.225  -0.068   0.222
    1UNL     H8   45  -0.030   0.104  -0.024
    1UNL     H9   46   0.085   0.133   0.096
    1UNL    H10   47   0.323   0.005  -0.239
    1UNL    H11   48   0.471  -0.158  -0.367
    1UNL    H12   49   0.861   0.027  -0.223
    1UNL    H13   50   0.788   0.227   0.019
    1UNL    H14   51   0.531   0.214   0.059
    1UNL    H15   52   0.110  -0.148  -0.155
    1UNL    H16   53  -0.121  -0.280  -0.059
    1UNL    H17   54  -0.141  -0.103  -0.127
    1UNL    H18   55  -0.333  -0.090   0.015
    1UNL    H19   56  -0.252   0.236  -0.178
    1UNL    H20   57  -0.478   0.037  -0.107
    1UNL    H21   58  -0.377   0.035  -0.240
    1UNL    H22   59  -0.607   0.124  -0.260
    1UNL    H23   60  -0.284   0.379   0.017
    1UNL    H24   61  -0.521   0.314  -0.087
    1UNL    H25   62  -0.414   0.276   0.224
    1UNL    H26   63  -0.170   0.159   0.200
    1UNL    H27   64  -0.396   0.042   0.242
    1UNL    H28   65  -0.579   0.108   0.132
   0.00000   0.00000   0.00000   0.00000   0.00000   0.00000   0.00000   0.00000   0.00000
Generated with MDTraj, t= 18.0
 65
    1UNL     C1    1  -0.142  -0.293   0.289
    1UNL     C2    2  -0.035  -0.252   0.190
    1UNL     C3    3   0.027  -0.364   0.104
    1UNL     C4    4   0.130  -0.304   0.008
    1UNL     O1    5   0.184  -0.403  -0.081
    1UNL     O2    6   0.230  -0.235   0.090
    1UNL     C5    7   0.159  -0.121   0.149
    1UNL     O3    8   0.072  -0.173   0.252
    1UNL     C6    9   0.049  -0.080   0.044
    1UNL     C7   10   0.065   0.066   0.007
    1UNL     O4   11   0.170   0.082  -0.085
    1UNL     C8   12   0.286   0.117  -0.015
    1UNL     O5   13   0.290   0.158   0.101
    1UNL     C9   14   0.410   0.093  -0.086
    1UNL    C10   15   0.421   0.006  -0.190
    1UNL    C11   16   0.543  -0.024  -0.246
    1UNL     O6   17   0.558  -0.101  -0.357
    1UNL    C12   18   0.658   0.055  -0.206
    1UNL     O7   19   0.782   0.021  -0.260
    1UNL    C13   20   0.648   0.146  -0.096
    1UNL     O8   21   0.771   0.204  -0.053
    1UNL    C14   22   0.523   0.160  -0.039
    1UNL    C15   23   0.050  -0.183  -0.068
    1UNL    C16   24  -0.106  -0.193  -0.058
    1UNL    C17   25  -0.095  -0.141   0.093
    1UNL     O9   26  -0.188  -0.049   0.153
    1UNL    C18   27  -0.294  -0.008   0.067
    1UNL    O10   28  -0.245   0.047  -0.054
    1UNL    C19   29  -0.318   0.168  -0.104
    1UNL    C20   30  -0.440   0.112  -0.174
    1UNL    O11   31  -0.537   0.204  -0.201
    1UNL    C21   32  -0.340   0.286  -0.000
    1UNL    O12   33  -0.470   0.349  -0.012
    1UNL    C22   34  -0.332   0.230   0.147
    1UNL    O13   35  -0.207   0.244   0.204
    1UNL    C23   36  -0.387   0.086   0.149
    1UNL    O14   37  -0.514   0.082   0.103
    1UNL     H1   38  -0.228  -0.320   0.228
    1UNL     H2   39  -0.172  -0.214   0.357
    1UNL     H3   40  -0.111  -0.368   0.351
    1UNL     H4   41   0.090  -0.435   0.175
    1UNL     H5   42  -0.041  -0.419   0.045
    1UNL     H6   43   0.123  -0.460  -0.124
    1UNL     H7   44   0.223  -0.039   0.187
    1UNL     H8   45  -0.024   0.084  -0.053
    1UNL     H9   46   0.058   0.132   0.090
    1UNL    H10   47   0.338  -0.055  -0.229
    1UNL    H11   48   0.470  -0.155  -0.377
    1UNL    H12   49   0.853   0.084  -0.233
    1UNL    H13   50   0.752   0.254   0.029
    1UNL    H14   51   0.498   0.227   0.038
    1UNL    H15   52   0.098  -0.146  -0.158
    1UNL    H16   53  -0.153  -0.294  -0.050
    1UNL    H17   54  -0.168  -0.128  -0.119
    1UNL    H18   55  -0.349  -0.096   0.036
    1UNL    H19   56  -0.254   0.212  -0.186
    1UNL    H20   57  -0.472   0.033  -0.110
    1UNL    H21   58  -0.416   0.043  -0.263
    1UNL    H22   59  -0.609   0.155  -0.249
    1UNL    H23   60  -0.278   0.373  -0.017
    1UNL    H24   61  -0.493   0.336  -0.107
    1UNL    H25   62  -0.404   0.291   0.205
    1UNL    H26   63  -0.165   0.160   0.205
    1UNL    H27   64  -0.392   0.056   0.249
    1UNL    H28   65  -0.541   0.173   0.069
   0.00000   0.00000   0.00000   0.00000   0.00000   0.00000   0.00000   0.00000   0.00000
Generated with MDTraj, t= 19.0
 65
    1UNL     C1    1  -0.125  -0.289   0.298
    1UNL     C2    2  -0.028  -0.241   0.195
    1UNL     C3    3   0.033  -0.364   0.117
    1UNL     C4    4   0.121  -0.307   0.008
    1UNL     O1    5   0.173  -0.399  -0.088
    1UNL     O2    6   0.224  -0.225   0.075
    1UNL     C5    7   0.154  -0.108   0.131
    1UNL     O3    8   0.083  -0.166   0.246
    1UNL     C6    9   0.039  -0.078   0.030
    1UNL     C7   10   0.046   0.066  -0.026
    1UNL     O4   11   0.164   0.080  -0.103
    1UNL     C8   12   0.275   0.104  -0.021
    1UNL     O5   13   0.266   0.138   0.094
    1UNL     C9   14   0.411   0.094  -0.080
    1UNL    C10   15   0.425  -0.005  -0.178
    1UNL    C11   16   0.547  -0.022  -0.247
    1UNL     O6   17   0.558  -0.116  -0.343
    1UNL    C12   18   0.654   0.054  -0.191
    1UNL     O7   19   0.779   0.045  -0.250
    1UNL    C13   20   0.642   0.144  -0.081
    1UNL     O8   21   0.758   0.210  -0.038
    1UNL    C14   22   0.517   0.163  -0.021
    1UNL    C15   23   0.037  -0.194  -0.073
    1UNL    C16   24  -0.114  -0.207  -0.053
    1UNL    C17   25  -0.096  -0.145   0.090
    1UNL     O9   26  -0.194  -0.056   0.148
    1UNL    C18   27  -0.294  -0.004   0.062
    1UNL    O10   28  -0.234   0.057  -0.053
    1UNL    C19   29  -0.322   0.170  -0.098
    1UNL    C20   30  -0.456   0.121  -0.146
    1UNL    O11   31  -0.516   0.211  -0.238
    1UNL    C21   32  -0.336   0.287  -0.000
    1UNL    O12   33  -0.472   0.331   0.006
    1UNL    C22   34  -0.304   0.235   0.145
    1UNL    O13   35  -0.162   0.228   0.156
    1UNL    C23   36  -0.377   0.094   0.163
    1UNL    O14   37  -0.511   0.081   0.138
    1UNL     H1   38  -0.198  -0.348   0.252
    1UNL     H2   39  -0.173  -0.216   0.363
    1UNL     H3   40  -0.068  -0.345   0.369
    1UNL     H4   41   0.109  -0.418   0.178
    1UNL     H5   42  -0.031  -0.436   0.070
    1UNL     H6   43   0.105  -0.453  -0.130
    1UNL     H7   44   0.228  -0.029   0.161
    1UNL     H8   45  -0.045   0.090  -0.083
    1UNL     H9   46   0.044   0.134   0.055
    1UNL    H10   47   0.339  -0.063  -0.213
    1UNL    H11   48   0.465  -0.146  -0.377
    1UNL    H12   49   0.835   0.120  -0.225
    1UNL    H13   50   0.738   0.268   0.042
    1UNL    H14   51   0.492   0.256   0.035
    1UNL    H15   52   0.072  -0.171  -0.174
    1UNL    H16   53  -0.160  -0.311  -0.051
    1UNL    H17   54  -0.170  -0.151  -0.122
    1UNL    H18   55  -0.352  -0.087   0.026
    1UNL    H19   56  -0.269   0.196  -0.194
    1UNL    H20   57  -0.517   0.095  -0.064
    1UNL    H21   58  -0.437   0.021  -0.192
    1UNL    H22   59  -0.547   0.180  -0.320
    1UNL    H23   60  -0.263   0.367  -0.008
    1UNL    H24   61  -0.508   0.318  -0.082
    1UNL    H25   62  -0.329   0.307   0.226
    1UNL    H26   63  -0.137   0.133   0.162
    1UNL    H27   64  -0.359   0.060   0.259
    1UNL    H28   65  -0.556   0.172   0.140
   0.00000   0.00000   0.00000   0.00000   0.00000   0.00000   0.00000   0.00000   0.00000
Generated with MDTraj, t= 20.0
 65
    1UNL     C1    1  -0.112  -0.314   0.307
    1UNL     C2    2  -0.024  -0.259   0.196
    1UNL     C3    3   0.042  -0.369   0.115
    1UNL     C4    4   0.117  -0.312  -0.007
    1UNL     O1    5   0.172  -0.402  -0.108
    1UNL     O2    6   0.218  -0.235   0.062
    1UNL     C5    7   0.156  -0.126   0.128
    1UNL     O3    8   0.092  -0.184   0.251
    1UNL     C6    9   0.038  -0.085   0.029
    1UNL     C7   10   0.040   0.056  -0.034
    1UNL     O4   11   0.151   0.066  -0.114
    1UNL     C8   12   0.255   0.111  -0.042
    1UNL     O5   13   0.241   0.151   0.068
    1UNL     C9   14   0.392   0.094  -0.090
    1UNL    C10   15   0.415   0.004  -0.194
    1UNL    C11   16   0.548  -0.017  -0.234
    1UNL     O6   17   0.576  -0.107  -0.337
    1UNL    C12   18   0.656   0.057  -0.181
    1UNL     O7   19   0.786   0.053  -0.226
    1UNL    C13   20   0.635   0.137  -0.071
    1UNL     O8   21   0.740   0.222  -0.033
    1UNL    C14   22   0.497   0.157  -0.031
    1UNL    C15   23   0.024  -0.204  -0.076
    1UNL    C16   24  -0.124  -0.207  -0.039
    1UNL    C17   25  -0.090  -0.147   0.099
    1UNL     O9   26  -0.178  -0.051   0.162
    1UNL    C18   27  -0.288   0.007   0.091
    1UNL    O10   28  -0.246   0.060  -0.033
    1UNL    C19   29  -0.314   0.166  -0.104
    1UNL    C20   30  -0.441   0.112  -0.173
    1UNL    O11   31  -0.503   0.211  -0.253
    1UNL    C21   32  -0.330   0.282  -0.008
    1UNL    O12   33  -0.469   0.331  -0.010
    1UNL    C22   34  -0.293   0.242   0.137
    1UNL    O13   35  -0.155   0.250   0.161
    1UNL    C23   36  -0.364   0.110   0.184
    1UNL    O14   37  -0.510   0.105   0.176
    1UNL     H1   38  -0.187  -0.376   0.275
    1UNL     H2   39  -0.155  -0.231   0.363
    1UNL     H3   40  -0.053  -0.354   0.391
    1UNL     H4   41   0.110  -0.420   0.169
    1UNL     H5   42  -0.026  -0.445   0.070
    1UNL     H6   43   0.095  -0.435  -0.162
    1UNL     H7   44   0.229  -0.045   0.154
    1UNL     H8   45  -0.055   0.064  -0.096
    1UNL     H9   46   0.036   0.136   0.035
    1UNL    H10   47   0.338  -0.047  -0.244
    1UNL    H11   48   0.496  -0.161  -0.373
    1UNL    H12   49   0.846   0.076  -0.150
    1UNL    H13   50   0.707   0.312   0.007
    1UNL    H14   51   0.481   0.215   0.054
    1UNL    H15   52   0.048  -0.185  -0.182
    1UNL    H16   53  -0.170  -0.307  -0.017
    1UNL    H17   54  -0.177  -0.144  -0.106
    1UNL    H18   55  -0.354  -0.069   0.057
    1UNL    H19   56  -0.254   0.186  -0.196
    1UNL    H20   57  -0.509   0.079  -0.100
    1UNL    H21   58  -0.424   0.022  -0.235
    1UNL    H22   59  -0.437   0.261  -0.311
    1UNL    H23   60  -0.273   0.374  -0.032
    1UNL    H24   61  -0.494   0.351  -0.105
    1UNL    H25   62  -0.345   0.318   0.198
    1UNL    H26   63  -0.117   0.157   0.149
    1UNL    H27   64  -0.348   0.094   0.285
    1UNL    H28   65  -0.535   0.170   0.117
   0.00000   0.00000   0.00000   0.00000   0.00000   0.00000   0.00000   0.00000   0.00000
Generated with MDTraj, t= 21.0
 65
    1UNL     C1    1  -0.113  -0.284   0.323
    1UNL     C2    2  -0.029  -0.255   0.197
    1UNL     C3    3   0.031  -0.376   0.118
    1UNL     C4    4   0.105  -0.323  -0.015
    1UNL     O1    5   0.138  -0.427  -0.106
    1UNL     O2    6   0.215  -0.248   0.036
    1UNL     C5    7   0.153  -0.141   0.112
    1UNL     O3    8   0.090  -0.174   0.231
    1UNL     C6    9   0.025  -0.095   0.026
    1UNL     C7   10   0.041   0.049  -0.028
    1UNL     O4   11   0.151   0.066  -0.113
    1UNL     C8   12   0.251   0.126  -0.048
    1UNL     O5   13   0.244   0.172   0.061
    1UNL     C9   14   0.392   0.111  -0.106
    1UNL    C10   15   0.422   0.005  -0.198
    1UNL    C11   16   0.553  -0.010  -0.240
    1UNL     O6   17   0.591  -0.097  -0.339
    1UNL    C12   18   0.652   0.064  -0.174
    1UNL     O7   19   0.787   0.042  -0.202
    1UNL    C13   20   0.619   0.165  -0.085
    1UNL     O8   21   0.726   0.212  -0.018
    1UNL    C14   22   0.486   0.191  -0.048
    1UNL    C15   23   0.008  -0.212  -0.073
    1UNL    C16   24  -0.147  -0.208  -0.040
    1UNL    C17   25  -0.104  -0.153   0.101
    1UNL     O9   26  -0.190  -0.070   0.176
    1UNL    C18   27  -0.272   0.007   0.094
    1UNL    O10   28  -0.212   0.061  -0.025
    1UNL    C19   29  -0.294   0.163  -0.092
    1UNL    C20   30  -0.422   0.106  -0.164
    1UNL    O11   31  -0.485   0.188  -0.267
    1UNL    C21   32  -0.323   0.279   0.003
    1UNL    O12   33  -0.460   0.320   0.004
    1UNL    C22   34  -0.293   0.252   0.149
    1UNL    O13   35  -0.155   0.258   0.173
    1UNL    C23   36  -0.351   0.113   0.183
    1UNL    O14   37  -0.489   0.109   0.151
    1UNL     H1   38  -0.209  -0.313   0.288
    1UNL     H2   39  -0.117  -0.207   0.393
    1UNL     H3   40  -0.071  -0.363   0.387
    1UNL     H4   41   0.096  -0.423   0.181
    1UNL     H5   42  -0.032  -0.462   0.092
    1UNL     H6   43   0.062  -0.469  -0.163
    1UNL     H7   44   0.222  -0.054   0.134
    1UNL     H8   45  -0.048   0.082  -0.095
    1UNL     H9   46   0.037   0.118   0.053
    1UNL    H10   47   0.340  -0.041  -0.261
    1UNL    H11   48   0.510  -0.154  -0.355
    1UNL    H12   49   0.847   0.083  -0.136
    1UNL    H13   50   0.699   0.299   0.029
    1UNL    H14   51   0.464   0.251   0.046
    1UNL    H15   52   0.038  -0.174  -0.172
    1UNL    H16   53  -0.193  -0.304  -0.028
    1UNL    H17   54  -0.201  -0.139  -0.109
    1UNL    H18   55  -0.339  -0.064   0.053
    1UNL    H19   56  -0.232   0.190  -0.178
    1UNL    H20   57  -0.498   0.080  -0.095
    1UNL    H21   58  -0.399   0.009  -0.209
    1UNL    H22   59  -0.480   0.134  -0.353
    1UNL    H23   60  -0.256   0.368  -0.017
    1UNL    H24   61  -0.481   0.336  -0.090
    1UNL    H25   62  -0.328   0.336   0.211
    1UNL    H26   63  -0.114   0.178   0.199
    1UNL    H27   64  -0.335   0.089   0.284
    1UNL    H28   65  -0.520   0.204   0.118
   0.00000   0.00000   0.00000   0.00000   0.00000   0.00000   0.00000   0.00000   0.00000
Generated with MDTraj, t= 22.0
 65
    1UNL     C1    1  -0.100  -0.275   0.322
    1UNL     C2    2  -0.019  -0.250   0.199
    1UNL     C3    3   0.018  -0.381   0.129
    1UNL     C4    4   0.084  -0.341  -0.008
    1UNL     O1    5   0.103  -0.451  -0.099
    1UNL     O2    6   0.201  -0.270   0.028
    1UNL     C5    7   0.160  -0.151   0.102
    1UNL     O3    8   0.109  -0.182   0.229
    1UNL     C6    9   0.040  -0.099   0.011
    1UNL     C7   10   0.050   0.037  -0.058
    1UNL     O4   11   0.174   0.042  -0.118
    1UNL     C8   12   0.257   0.119  -0.045
    1UNL     O5   13   0.218   0.176   0.053
    1UNL     C9   14   0.398   0.110  -0.091
    1UNL    C10   15   0.422   0.027  -0.199
    1UNL    C11   16   0.552   0.005  -0.238
    1UNL     O6   17   0.585  -0.093  -0.336
    1UNL    C12   18   0.657   0.075  -0.176
    1UNL     O7   19   0.784   0.052  -0.206
    1UNL    C13   20   0.631   0.162  -0.073
    1UNL     O8   21   0.742   0.235  -0.018
    1UNL    C14   22   0.505   0.184  -0.030
    1UNL    C15   23  -0.004  -0.218  -0.081
    1UNL    C16   24  -0.147  -0.204  -0.032
    1UNL    C17   25  -0.088  -0.147   0.101
    1UNL     O9   26  -0.169  -0.053   0.174
    1UNL    C18   27  -0.275   0.005   0.098
    1UNL    O10   28  -0.218   0.071  -0.010
    1UNL    C19   29  -0.300   0.164  -0.089
    1UNL    C20   30  -0.429   0.106  -0.151
    1UNL    O11   31  -0.489   0.187  -0.254
    1UNL    C21   32  -0.323   0.289  -0.002
    1UNL    O12   33  -0.455   0.341  -0.015
    1UNL    C22   34  -0.301   0.256   0.146
    1UNL    O13   35  -0.166   0.259   0.185
    1UNL    C23   36  -0.358   0.106   0.176
    1UNL    O14   37  -0.500   0.093   0.144
    1UNL     H1   38  -0.187  -0.340   0.300
    1UNL     H2   39  -0.128  -0.189   0.371
    1UNL     H3   40  -0.035  -0.316   0.397
    1UNL     H4   41   0.087  -0.447   0.188
    1UNL     H5   42  -0.062  -0.450   0.118
    1UNL     H6   43   0.011  -0.479  -0.139
    1UNL     H7   44   0.240  -0.071   0.116
    1UNL     H8   45  -0.025   0.048  -0.146
    1UNL     H9   46   0.034   0.121   0.011
    1UNL    H10   47   0.353  -0.033  -0.247
    1UNL    H11   48   0.519  -0.166  -0.334
    1UNL    H12   49   0.849   0.116  -0.168
    1UNL    H13   50   0.710   0.317   0.029
    1UNL    H14   51   0.486   0.254   0.041
    1UNL    H15   52   0.027  -0.204  -0.187
    1UNL    H16   53  -0.192  -0.299  -0.040
    1UNL    H17   54  -0.203  -0.133  -0.097
    1UNL    H18   55  -0.341  -0.067   0.057
    1UNL    H19   56  -0.233   0.178  -0.173
    1UNL    H20   57  -0.507   0.088  -0.079
    1UNL    H21   58  -0.412   0.010  -0.202
    1UNL    H22   59  -0.441   0.219  -0.328
    1UNL    H23   60  -0.250   0.371  -0.030
    1UNL    H24   61  -0.476   0.335  -0.112
    1UNL    H25   62  -0.359   0.324   0.208
    1UNL    H26   63  -0.115   0.175   0.153
    1UNL    H27   64  -0.356   0.080   0.279
    1UNL    H28   65  -0.539   0.178   0.126
   0.00000   0.00000   0.00000   0.00000   0.00000   0.00000   0.00000   0.00000   0.00000
Generated with MDTraj, t= 23.0
 65
    1UNL     C1    1  -0.090  -0.270   0.337
    1UNL     C2    2  -0.019  -0.253   0.207
    1UNL     C3    3   0.001  -0.383   0.134
    1UNL     C4    4   0.075  -0.356  -0.004
    1UNL     O1    5   0.088  -0.471  -0.080
    1UNL     O2    6   0.200  -0.292   0.033
    1UNL     C5    7   0.163  -0.165   0.093
    1UNL     O3    8   0.111  -0.190   0.225
    1UNL     C6    9   0.040  -0.115   0.007
    1UNL     C7   10   0.047   0.031  -0.038
    1UNL     O4   11   0.168   0.049  -0.118
    1UNL     C8   12   0.262   0.111  -0.046
    1UNL     O5   13   0.243   0.174   0.055
    1UNL     C9   14   0.404   0.096  -0.093
    1UNL    C10   15   0.443   0.012  -0.194
    1UNL    C11   16   0.574  -0.002  -0.239
    1UNL     O6   17   0.610  -0.082  -0.342
    1UNL    C12   18   0.669   0.082  -0.178
    1UNL     O7   19   0.794   0.092  -0.223
    1UNL    C13   20   0.633   0.161  -0.068
    1UNL     O8   21   0.726   0.245  -0.016
    1UNL    C14   22   0.503   0.168  -0.024
    1UNL    C15   23  -0.001  -0.235  -0.078
    1UNL    C16   24  -0.151  -0.217  -0.026
    1UNL    C17   25  -0.087  -0.148   0.101
    1UNL     O9   26  -0.156  -0.037   0.163
    1UNL    C18   27  -0.264   0.021   0.083
    1UNL    O10   28  -0.226   0.081  -0.045
    1UNL    C19   29  -0.315   0.180  -0.113
    1UNL    C20   30  -0.445   0.120  -0.163
    1UNL    O11   31  -0.518   0.213  -0.241
    1UNL    C21   32  -0.332   0.292   0.001
    1UNL    O12   33  -0.462   0.347  -0.016
    1UNL    C22   34  -0.308   0.256   0.149
    1UNL    O13   35  -0.172   0.264   0.192
    1UNL    C23   36  -0.355   0.108   0.175
    1UNL    O14   37  -0.492   0.073   0.149
    1UNL     H1   38  -0.195  -0.303   0.321
    1UNL     H2   39  -0.089  -0.174   0.379
    1UNL     H3   40  -0.038  -0.326   0.411
    1UNL     H4   41   0.059  -0.464   0.194
    1UNL     H5   42  -0.086  -0.438   0.119
    1UNL     H6   43  -0.007  -0.501  -0.104
    1UNL     H7   44   0.254  -0.097   0.100
    1UNL     H8   45  -0.038   0.063  -0.107
    1UNL     H9   46   0.058   0.106   0.046
    1UNL    H10   47   0.362  -0.054  -0.236
    1UNL    H11   48   0.532  -0.133  -0.367
    1UNL    H12   49   0.850   0.147  -0.163
    1UNL    H13   50   0.690   0.309   0.046
    1UNL    H14   51   0.451   0.248   0.039
    1UNL    H15   52   0.008  -0.233  -0.190
    1UNL    H16   53  -0.195  -0.307   0.003
    1UNL    H17   54  -0.217  -0.152  -0.088
    1UNL    H18   55  -0.321  -0.065   0.057
    1UNL    H19   56  -0.248   0.222  -0.187
    1UNL    H20   57  -0.504   0.096  -0.076
    1UNL    H21   58  -0.432   0.023  -0.213
    1UNL    H22   59  -0.475   0.211  -0.328
    1UNL    H23   60  -0.277   0.387  -0.012
    1UNL    H24   61  -0.487   0.345  -0.112
    1UNL    H25   62  -0.368   0.326   0.208
    1UNL    H26   63  -0.124   0.184   0.168
    1UNL    H27   64  -0.325   0.090   0.279
    1UNL    H28   65  -0.512   0.140   0.089
   0.00000   0.00000   0.00000   0.00000   0.00000   0.00000   0.00000   0.00000   0.00000
Generated with MDTraj, t= 24.0
 65
    1UNL     C1    1  -0.123  -0.238   0.327
    1UNL     C2    2  -0.037  -0.240   0.202
    1UNL     C3    3  -0.016  -0.385   0.132
    1UNL     C4    4   0.079  -0.361   0.007
    1UNL     O1    5   0.095  -0.475  -0.078
    1UNL     O2    6   0.199  -0.295   0.053
    1UNL     C5    7   0.156  -0.167   0.102
    1UNL     O3    8   0.091  -0.187   0.231
    1UNL     C6    9   0.038  -0.119   0.011
    1UNL     C7   10   0.054   0.008  -0.068
    1UNL     O4   11   0.185   0.017  -0.134
    1UNL     C8   12   0.276   0.083  -0.044
    1UNL     O5   13   0.250   0.110   0.072
    1UNL     C9   14   0.412   0.105  -0.102
    1UNL    C10   15   0.458   0.011  -0.197
    1UNL    C11   16   0.587   0.012  -0.241
    1UNL     O6   17   0.620  -0.063  -0.351
    1UNL    C12   18   0.681   0.096  -0.183
    1UNL     O7   19   0.811   0.102  -0.221
    1UNL    C13   20   0.638   0.184  -0.081
    1UNL     O8   21   0.735   0.257  -0.013
    1UNL    C14   22   0.506   0.185  -0.041
    1UNL    C15   23   0.004  -0.247  -0.072
    1UNL    C16   24  -0.148  -0.221  -0.033
    1UNL    C17   25  -0.102  -0.141   0.093
    1UNL     O9   26  -0.168  -0.031   0.160
    1UNL    C18   27  -0.273   0.014   0.079
    1UNL    O10   28  -0.227   0.080  -0.035
    1UNL    C19   29  -0.318   0.179  -0.096
    1UNL    C20   30  -0.453   0.123  -0.145
    1UNL    O11   31  -0.522   0.214  -0.233
    1UNL    C21   32  -0.343   0.299   0.009
    1UNL    O12   33  -0.481   0.336   0.004
    1UNL    C22   34  -0.302   0.266   0.154
    1UNL    O13   35  -0.160   0.258   0.174
    1UNL    C23   36  -0.351   0.111   0.172
    1UNL    O14   37  -0.486   0.097   0.140
    1UNL     H1   38  -0.222  -0.270   0.293
    1UNL     H2   39  -0.129  -0.150   0.387
    1UNL     H3   40  -0.085  -0.311   0.393
    1UNL     H4   41   0.038  -0.462   0.198
    1UNL     H5   42  -0.102  -0.445   0.105
    1UNL     H6   43   0.005  -0.493  -0.114
    1UNL     H7   44   0.244  -0.097   0.107
    1UNL     H8   45  -0.026   0.021  -0.148
    1UNL     H9   46   0.050   0.102  -0.001
    1UNL    H10   47   0.391  -0.050  -0.249
    1UNL    H11   48   0.543  -0.105  -0.387
    1UNL    H12   49   0.863   0.168  -0.171
    1UNL    H13   50   0.717   0.311   0.062
    1UNL    H14   51   0.476   0.248   0.035
    1UNL    H15   52   0.030  -0.257  -0.181
    1UNL    H16   53  -0.208  -0.305   0.003
    1UNL    H17   54  -0.199  -0.161  -0.106
    1UNL    H18   55  -0.333  -0.069   0.045
    1UNL    H19   56  -0.258   0.216  -0.181
    1UNL    H20   57  -0.522   0.101  -0.060
    1UNL    H21   58  -0.443   0.025  -0.192
    1UNL    H22   59  -0.481   0.219  -0.329
    1UNL    H23   60  -0.291   0.387  -0.022
    1UNL    H24   61  -0.502   0.314  -0.087
    1UNL    H25   62  -0.344   0.329   0.233
    1UNL    H26   63  -0.129   0.176   0.123
    1UNL    H27   64  -0.333   0.068   0.274
    1UNL    H28   65  -0.551   0.157   0.181
   0.00000   0.00000   0.00000   0.00000   0.00000   0.00000   0.00000   0.00000   0.00000
Generated with MDTraj, t= 25.0
 65
    1UNL     C1    1  -0.153  -0.259   0.315
    1UNL     C2    2  -0.048  -0.257   0.204
    1UNL     C3    3  -0.015  -0.383   0.137
    1UNL     C4    4   0.070  -0.358   0.010
    1UNL     O1    5   0.089  -0.471  -0.065
    1UNL     O2    6   0.184  -0.300   0.077
    1UNL     C5    7   0.146  -0.168   0.121
    1UNL     O3    8   0.077  -0.189   0.250
    1UNL     C6    9   0.042  -0.118   0.019
    1UNL     C7   10   0.060   0.022  -0.043
    1UNL     O4   11   0.177   0.022  -0.124
    1UNL     C8   12   0.283   0.063  -0.044
    1UNL     O5   13   0.270   0.098   0.073
    1UNL     C9   14   0.419   0.065  -0.101
    1UNL    C10   15   0.467   0.011  -0.221
    1UNL    C11   16   0.600   0.019  -0.260
    1UNL     O6   17   0.650  -0.045  -0.370
    1UNL    C12   18   0.687   0.105  -0.187
    1UNL     O7   19   0.816   0.130  -0.229
    1UNL    C13   20   0.642   0.175  -0.075
    1UNL     O8   21   0.716   0.279  -0.021
    1UNL    C14   22   0.505   0.149  -0.039
    1UNL    C15   23   0.009  -0.238  -0.077
    1UNL    C16   24  -0.141  -0.217  -0.047
    1UNL    C17   25  -0.096  -0.153   0.093
    1UNL     O9   26  -0.165  -0.037   0.150
    1UNL    C18   27  -0.279   0.018   0.074
    1UNL    O10   28  -0.234   0.087  -0.040
    1UNL    C19   29  -0.316   0.186  -0.102
    1UNL    C20   30  -0.447   0.114  -0.160
    1UNL    O11   31  -0.535   0.205  -0.221
    1UNL    C21   32  -0.342   0.304   0.004
    1UNL    O12   33  -0.480   0.345   0.000
    1UNL    C22   34  -0.298   0.259   0.146
    1UNL    O13   35  -0.153   0.261   0.161
    1UNL    C23   36  -0.347   0.113   0.172
    1UNL    O14   37  -0.487   0.106   0.174
    1UNL     H1   38  -0.238  -0.314   0.294
    1UNL     H2   39  -0.194  -0.160   0.330
    1UNL     H3   40  -0.110  -0.290   0.407
    1UNL     H4   41   0.043  -0.455   0.198
    1UNL     H5   42  -0.120  -0.432   0.115
    1UNL     H6   43   0.007  -0.516  -0.083
    1UNL     H7   44   0.239  -0.105   0.123
    1UNL     H8   45  -0.031   0.039  -0.109
    1UNL     H9   46   0.063   0.111   0.032
    1UNL    H10   47   0.399  -0.035  -0.294
    1UNL    H11   48   0.586  -0.106  -0.399
    1UNL    H12   49   0.859   0.210  -0.192
    1UNL    H13   50   0.660   0.311   0.049
    1UNL    H14   51   0.462   0.191   0.053
    1UNL    H15   52   0.053  -0.241  -0.181
    1UNL    H16   53  -0.206  -0.309  -0.048
    1UNL    H17   54  -0.178  -0.145  -0.112
    1UNL    H18   55  -0.354  -0.056   0.044
    1UNL    H19   56  -0.263   0.229  -0.191
    1UNL    H20   57  -0.502   0.059  -0.078
    1UNL    H21   58  -0.432   0.032  -0.232
    1UNL    H22   59  -0.503   0.254  -0.303
    1UNL    H23   60  -0.286   0.394  -0.010
    1UNL    H24   61  -0.518   0.301  -0.081
    1UNL    H25   62  -0.332   0.337   0.217
    1UNL    H26   63  -0.113   0.192   0.109
    1UNL    H27   64  -0.316   0.100   0.282
    1UNL    H28   65  -0.529   0.190   0.131
   0.00000   0.00000   0.00000   0.00000   0.00000   0.00000   0.00000   0.00000   0.00000
Generated with MDTraj, t= 26.0
 65
    1UNL     C1    1  -0.166  -0.290   0.317
    1UNL     C2    2  -0.057  -0.259   0.208
    1UNL     C3    3  -0.030  -0.395   0.135
    1UNL     C4    4   0.067  -0.362   0.012
    1UNL     O1    5   0.095  -0.467  -0.073
    1UNL     O2    6   0.184  -0.302   0.073
    1UNL     C5    7   0.141  -0.181   0.137
    1UNL     O3    8   0.065  -0.207   0.252
    1UNL     C6    9   0.036  -0.121   0.030
    1UNL     C7   10   0.070   0.012  -0.034
    1UNL     O4   11   0.190   0.007  -0.105
    1UNL     C8   12   0.294   0.054  -0.026
    1UNL     O5   13   0.281   0.072   0.095
    1UNL     C9   14   0.425   0.084  -0.093
    1UNL    C10   15   0.462   0.011  -0.204
    1UNL    C11   16   0.589   0.037  -0.272
    1UNL     O6   17   0.637  -0.035  -0.379
    1UNL    C12   18   0.682   0.123  -0.206
    1UNL     O7   19   0.804   0.154  -0.262
    1UNL    C13   20   0.640   0.181  -0.086
    1UNL     O8   21   0.734   0.259  -0.019
    1UNL    C14   22   0.516   0.161  -0.026
    1UNL    C15   23   0.006  -0.238  -0.065
    1UNL    C16   24  -0.141  -0.200  -0.044
    1UNL    C17   25  -0.098  -0.144   0.098
    1UNL     O9   26  -0.153  -0.025   0.155
    1UNL    C18   27  -0.270   0.027   0.082
    1UNL    O10   28  -0.235   0.072  -0.045
    1UNL    C19   29  -0.323   0.173  -0.102
    1UNL    C20   30  -0.455   0.121  -0.153
    1UNL    O11   31  -0.528   0.199  -0.243
    1UNL    C21   32  -0.349   0.293  -0.008
    1UNL    O12   33  -0.486   0.343  -0.002
    1UNL    C22   34  -0.295   0.274   0.140
    1UNL    O13   35  -0.154   0.278   0.136
    1UNL    C23   36  -0.342   0.130   0.179
    1UNL    O14   37  -0.481   0.122   0.159
    1UNL     H1   38  -0.263  -0.290   0.289
    1UNL     H2   39  -0.164  -0.218   0.400
    1UNL     H3   40  -0.137  -0.383   0.361
    1UNL     H4   41   0.029  -0.462   0.200
    1UNL     H5   42  -0.123  -0.460   0.099
    1UNL     H6   43   0.030  -0.487  -0.137
    1UNL     H7   44   0.218  -0.107   0.163
    1UNL     H8   45  -0.015   0.053  -0.094
    1UNL     H9   46   0.080   0.086   0.056
    1UNL    H10   47   0.394  -0.062  -0.243
    1UNL    H11   48   0.589  -0.112  -0.391
    1UNL    H12   49   0.849   0.226  -0.213
    1UNL    H13   50   0.712   0.279   0.074
    1UNL    H14   51   0.488   0.219   0.065
    1UNL    H15   52   0.045  -0.229  -0.170
    1UNL    H16   53  -0.211  -0.287  -0.040
    1UNL    H17   54  -0.170  -0.119  -0.104
    1UNL    H18   55  -0.321  -0.072   0.069
    1UNL    H19   56  -0.265   0.202  -0.194
    1UNL    H20   57  -0.522   0.103  -0.063
    1UNL    H21   58  -0.436   0.017  -0.183
    1UNL    H22   59  -0.463   0.245  -0.291
    1UNL    H23   60  -0.294   0.379  -0.044
    1UNL    H24   61  -0.527   0.339  -0.091
    1UNL    H25   62  -0.340   0.353   0.204
    1UNL    H26   63  -0.130   0.178   0.117
    1UNL    H27   64  -0.314   0.105   0.289
    1UNL    H28   65  -0.509   0.199   0.119
   0.00000   0.00000   0.00000   0.00000   0.00000   0.00000   0.00000   0.00000   0.00000
Generated with MDTraj, t= 27.0
 65
    1UNL     C1    1  -0.166  -0.265   0.319
    1UNL     C2    2  -0.073  -0.259   0.200
    1UNL     C3    3  -0.044  -0.389   0.128
    1UNL     C4    4   0.060  -0.363   0.008
    1UNL     O1    5   0.068  -0.471  -0.081
    1UNL     O2    6   0.182  -0.319   0.072
    1UNL     C5    7   0.140  -0.200   0.136
    1UNL     O3    8   0.061  -0.212   0.251
    1UNL     C6    9   0.045  -0.118   0.038
    1UNL     C7   10   0.084   0.021  -0.002
    1UNL     O4   11   0.200   0.037  -0.069
    1UNL     C8   12   0.303   0.060   0.007
    1UNL     O5   13   0.291   0.072   0.128
    1UNL     C9   14   0.437   0.072  -0.065
    1UNL    C10   15   0.454   0.020  -0.195
    1UNL    C11   16   0.573   0.036  -0.267
    1UNL     O6   17   0.581   0.002  -0.403
    1UNL    C12   18   0.674   0.123  -0.213
    1UNL     O7   19   0.794   0.148  -0.279
    1UNL    C13   20   0.655   0.182  -0.085
    1UNL     O8   21   0.752   0.268  -0.039
    1UNL    C14   22   0.536   0.159  -0.016
    1UNL    C15   23   0.008  -0.225  -0.073
    1UNL    C16   24  -0.143  -0.189  -0.050
    1UNL    C17   25  -0.102  -0.143   0.093
    1UNL     O9   26  -0.172  -0.036   0.157
    1UNL    C18   27  -0.276   0.013   0.080
    1UNL    O10   28  -0.221   0.068  -0.041
    1UNL    C19   29  -0.307   0.168  -0.111
    1UNL    C20   30  -0.441   0.098  -0.155
    1UNL    O11   31  -0.512   0.182  -0.241
    1UNL    C21   32  -0.335   0.291  -0.027
    1UNL    O12   33  -0.472   0.320  -0.027
    1UNL    C22   34  -0.288   0.264   0.121
    1UNL    O13   35  -0.146   0.269   0.135
    1UNL    C23   36  -0.344   0.129   0.164
    1UNL    O14   37  -0.487   0.134   0.178
    1UNL     H1   38  -0.262  -0.301   0.300
    1UNL     H2   39  -0.190  -0.161   0.343
    1UNL     H3   40  -0.117  -0.317   0.397
    1UNL     H4   41   0.013  -0.467   0.185
    1UNL     H5   42  -0.135  -0.430   0.083
    1UNL     H6   43  -0.001  -0.461  -0.145
    1UNL     H7   44   0.231  -0.151   0.167
    1UNL     H8   45   0.002   0.065  -0.056
    1UNL     H9   46   0.087   0.085   0.095
    1UNL    H10   47   0.380  -0.048  -0.234
    1UNL    H11   48   0.513  -0.050  -0.441
    1UNL    H12   49   0.859   0.189  -0.217
    1UNL    H13   50   0.740   0.294   0.058
    1UNL    H14   51   0.515   0.212   0.068
    1UNL    H15   52   0.066  -0.209  -0.168
    1UNL    H16   53  -0.216  -0.268  -0.046
    1UNL    H17   54  -0.173  -0.098  -0.101
    1UNL    H18   55  -0.354  -0.067   0.064
    1UNL    H19   56  -0.265   0.189  -0.212
    1UNL    H20   57  -0.500   0.067  -0.062
    1UNL    H21   58  -0.424   0.002  -0.206
    1UNL    H22   59  -0.491   0.168  -0.335
    1UNL    H23   60  -0.268   0.374  -0.056
    1UNL    H24   61  -0.496   0.334  -0.123
    1UNL    H25   62  -0.332   0.342   0.188
    1UNL    H26   63  -0.116   0.184   0.107
    1UNL    H27   64  -0.320   0.124   0.279
    1UNL    H28   65  -0.526   0.224   0.140
   0.00000   0.00000   0.00000   0.00000   0.00000   0.00000   0.00000   0.00000   0.00000
Generated with MDTraj, t= 28.0
 65
    1UNL     C1    1  -0.177  -0.289   0.307
    1UNL     C2    2  -0.063  -0.273   0.209
    1UNL     C3    3  -0.050  -0.400   0.122
    1UNL     C4    4   0.053  -0.359   0.001
    1UNL     O1    5   0.070  -0.466  -0.098
    1UNL     O2    6   0.175  -0.317   0.073
    1UNL     C5    7   0.139  -0.203   0.153
    1UNL     O3    8   0.057  -0.243   0.270
    1UNL     C6    9   0.043  -0.115   0.056
    1UNL     C7   10   0.086   0.028   0.022
    1UNL     O4   11   0.199   0.033  -0.057
    1UNL     C8   12   0.309   0.061   0.016
    1UNL     O5   13   0.297   0.069   0.136
    1UNL     C9   14   0.427   0.092  -0.059
    1UNL    C10   15   0.429   0.057  -0.199
    1UNL    C11   16   0.544   0.067  -0.274
    1UNL     O6   17   0.548   0.004  -0.402
    1UNL    C12   18   0.660   0.128  -0.222
    1UNL     O7   19   0.775   0.159  -0.298
    1UNL    C13   20   0.653   0.175  -0.091
    1UNL     O8   21   0.770   0.232  -0.038
    1UNL    C14   22   0.545   0.144  -0.006
    1UNL    C15   23   0.007  -0.215  -0.056
    1UNL    C16   24  -0.142  -0.193  -0.032
    1UNL    C17   25  -0.095  -0.145   0.112
    1UNL     O9   26  -0.157  -0.025   0.167
    1UNL    C18   27  -0.254   0.035   0.090
    1UNL    O10   28  -0.209   0.080  -0.038
    1UNL    C19   29  -0.301   0.162  -0.114
    1UNL    C20   30  -0.417   0.084  -0.164
    1UNL    O11   31  -0.503   0.155  -0.253
    1UNL    C21   32  -0.329   0.293  -0.037
    1UNL    O12   33  -0.465   0.330  -0.039
    1UNL    C22   34  -0.286   0.276   0.119
    1UNL    O13   35  -0.146   0.289   0.120
    1UNL    C23   36  -0.341   0.142   0.167
    1UNL    O14   37  -0.479   0.118   0.137
    1UNL     H1   38  -0.272  -0.291   0.254
    1UNL     H2   39  -0.197  -0.197   0.360
    1UNL     H3   40  -0.164  -0.371   0.370
    1UNL     H4   41   0.001  -0.485   0.180
    1UNL     H5   42  -0.134  -0.436   0.075
    1UNL     H6   43  -0.004  -0.477  -0.162
    1UNL     H7   44   0.230  -0.155   0.180
    1UNL     H8   45   0.013   0.082  -0.031
    1UNL     H9   46   0.101   0.094   0.113
    1UNL    H10   47   0.338   0.021  -0.245
    1UNL    H11   48   0.458  -0.022  -0.415
    1UNL    H12   49   0.823   0.232  -0.254
    1UNL    H13   50   0.750   0.246   0.062
    1UNL    H14   51   0.549   0.173   0.107
    1UNL    H15   52   0.038  -0.203  -0.162
    1UNL    H16   53  -0.201  -0.278  -0.047
    1UNL    H17   54  -0.182  -0.105  -0.089
    1UNL    H18   55  -0.327  -0.051   0.071
    1UNL    H19   56  -0.258   0.180  -0.213
    1UNL    H20   57  -0.492   0.075  -0.076
    1UNL    H21   58  -0.394  -0.019  -0.195
    1UNL    H22   59  -0.494   0.122  -0.350
    1UNL    H23   60  -0.268   0.384  -0.071
    1UNL    H24   61  -0.505   0.295  -0.122
    1UNL    H25   62  -0.318   0.366   0.177
    1UNL    H26   63  -0.108   0.209   0.072
    1UNL    H27   64  -0.318   0.130   0.280
    1UNL    H28   65  -0.528   0.201   0.125
   0.00000   0.00000   0.00000   0.00000   0.00000   0.00000   0.00000   0.00000   0.00000
Generated with MDTraj, t= 29.0
 65
    1UNL     C1    1  -0.189  -0.301   0.302
    1UNL     C2    2  -0.077  -0.278   0.197
    1UNL     C3    3  -0.041  -0.401   0.115
    1UNL     C4    4   0.072  -0.357   0.009
    1UNL     O1    5   0.095  -0.463  -0.075
    1UNL     O2    6   0.189  -0.316   0.088
    1UNL     C5    7   0.140  -0.199   0.162
    1UNL     O3    8   0.046  -0.240   0.265
    1UNL     C6    9   0.044  -0.120   0.061
    1UNL     C7   10   0.075   0.023   0.037
    1UNL     O4   11   0.189   0.030  -0.052
    1UNL     C8   12   0.302   0.060   0.016
    1UNL     O5   13   0.306   0.076   0.137
    1UNL     C9   14   0.426   0.077  -0.066
    1UNL    C10   15   0.425   0.047  -0.205
    1UNL    C11   16   0.532   0.079  -0.287
    1UNL     O6   17   0.525   0.059  -0.424
    1UNL    C12   18   0.651   0.131  -0.230
    1UNL     O7   19   0.768   0.157  -0.303
    1UNL    C13   20   0.653   0.144  -0.087
    1UNL     O8   21   0.768   0.204  -0.031
    1UNL    C14   22   0.541   0.130  -0.010
    1UNL    C15   23   0.019  -0.222  -0.061
    1UNL    C16   24  -0.138  -0.196  -0.041
    1UNL    C17   25  -0.105  -0.152   0.105
    1UNL     O9   26  -0.177  -0.046   0.174
    1UNL    C18   27  -0.264   0.033   0.091
    1UNL    O10   28  -0.193   0.081  -0.031
    1UNL    C19   29  -0.284   0.161  -0.119
    1UNL    C20   30  -0.394   0.077  -0.177
    1UNL    O11   31  -0.480   0.140  -0.274
    1UNL    C21   32  -0.328   0.294  -0.041
    1UNL    O12   33  -0.470   0.334  -0.058
    1UNL    C22   34  -0.296   0.295   0.115
    1UNL    O13   35  -0.168   0.332   0.140
    1UNL    C23   36  -0.329   0.154   0.173
    1UNL    O14   37  -0.471   0.129   0.177
    1UNL     H1   38  -0.287  -0.314   0.252
    1UNL     H2   39  -0.218  -0.218   0.360
    1UNL     H3   40  -0.160  -0.387   0.353
    1UNL     H4   41   0.003  -0.476   0.183
    1UNL     H5   42  -0.123  -0.439   0.060
    1UNL     H6   43   0.010  -0.500  -0.118
    1UNL     H7   44   0.218  -0.136   0.200
    1UNL     H8   45   0.006   0.084  -0.015
    1UNL     H9   46   0.087   0.076   0.131
    1UNL    H10   47   0.334   0.005  -0.242
    1UNL    H11   48   0.431   0.066  -0.448
    1UNL    H12   49   0.831   0.204  -0.242
    1UNL    H13   50   0.759   0.194   0.071
    1UNL    H14   51   0.540   0.143   0.092
    1UNL    H15   52   0.079  -0.213  -0.154
    1UNL    H16   53  -0.211  -0.272  -0.050
    1UNL    H17   54  -0.166  -0.105  -0.097
    1UNL    H18   55  -0.351  -0.036   0.060
    1UNL    H19   56  -0.222   0.193  -0.203
    1UNL    H20   57  -0.462   0.039  -0.091
    1UNL    H21   58  -0.350  -0.009  -0.225
    1UNL    H22   59  -0.426   0.144  -0.361
    1UNL    H23   60  -0.269   0.379  -0.088
    1UNL    H24   61  -0.494   0.277  -0.135
    1UNL    H25   62  -0.371   0.355   0.172
    1UNL    H26   63  -0.107   0.286   0.086
    1UNL    H27   64  -0.288   0.151   0.280
    1UNL    H28   65  -0.509   0.188   0.103
   0.00000   0.00000   0.00000   0.00000   0.00000   0.00000   0.00000   0.00000   0.00000
Generated with MDTraj, t= 30.0
 65
    1UNL     C1    1  -0.195  -0.300   0.309
    1UNL     C2    2  -0.084  -0.274   0.207
    1UNL     C3    3  -0.040  -0.397   0.121
    1UNL     C4    4   0.077  -0.348   0.024
    1UNL     O1    5   0.108  -0.447  -0.070
    1UNL     O2    6   0.179  -0.298   0.107
    1UNL     C5    7   0.128  -0.179   0.174
    1UNL     O3    8   0.040  -0.225   0.276
    1UNL     C6    9   0.034  -0.112   0.070
    1UNL     C7   10   0.064   0.023   0.023
    1UNL     O4   11   0.183   0.031  -0.067
    1UNL     C8   12   0.296   0.049   0.007
    1UNL     O5   13   0.298   0.042   0.131
    1UNL     C9   14   0.419   0.078  -0.075
    1UNL    C10   15   0.413   0.074  -0.212
    1UNL    C11   16   0.524   0.105  -0.291
    1UNL     O6   17   0.518   0.099  -0.428
    1UNL    C12   18   0.650   0.129  -0.231
    1UNL     O7   19   0.760   0.154  -0.305
    1UNL    C13   20   0.654   0.135  -0.090
    1UNL     O8   21   0.781   0.161  -0.030
    1UNL    C14   22   0.541   0.110  -0.017
    1UNL    C15   23   0.022  -0.217  -0.046
    1UNL    C16   24  -0.127  -0.186  -0.049
    1UNL    C17   25  -0.116  -0.150   0.109
    1UNL     O9   26  -0.186  -0.051   0.172
    1UNL    C18   27  -0.266   0.030   0.087
    1UNL    O10   28  -0.191   0.089  -0.022
    1UNL    C19   29  -0.274   0.166  -0.113
    1UNL    C20   30  -0.367   0.083  -0.198
    1UNL    O11   31  -0.424   0.166  -0.292
    1UNL    C21   32  -0.346   0.286  -0.036
    1UNL    O12   33  -0.489   0.262  -0.030
    1UNL    C22   34  -0.293   0.291   0.110
    1UNL    O13   35  -0.158   0.321   0.118
    1UNL    C23   36  -0.323   0.148   0.171
    1UNL    O14   37  -0.463   0.121   0.187
    1UNL     H1   38  -0.292  -0.341   0.273
    1UNL     H2   39  -0.235  -0.211   0.338
    1UNL     H3   40  -0.153  -0.359   0.389
    1UNL     H4   41  -0.004  -0.477   0.172
    1UNL     H5   42  -0.125  -0.427   0.055
    1UNL     H6   43   0.027  -0.481  -0.125
    1UNL     H7   44   0.205  -0.114   0.215
    1UNL     H8   45  -0.019   0.061  -0.033
    1UNL     H9   46   0.078   0.101   0.090
    1UNL    H10   47   0.317   0.058  -0.262
    1UNL    H11   48   0.435   0.067  -0.478
    1UNL    H12   49   0.841   0.140  -0.253
    1UNL    H13   50   0.784   0.130   0.066
    1UNL    H14   51   0.542   0.120   0.091
    1UNL    H15   52   0.075  -0.202  -0.140
    1UNL    H16   53  -0.199  -0.268  -0.066
    1UNL    H17   54  -0.142  -0.098  -0.104
    1UNL    H18   55  -0.358  -0.025   0.044
    1UNL    H19   56  -0.196   0.213  -0.174
    1UNL    H20   57  -0.460   0.055  -0.133
    1UNL    H21   58  -0.326  -0.002  -0.249
    1UNL    H22   59  -0.364   0.184  -0.365
    1UNL    H23   60  -0.328   0.392  -0.070
    1UNL    H24   61  -0.519   0.255  -0.124
    1UNL    H25   62  -0.348   0.361   0.175
    1UNL    H26   63  -0.099   0.274   0.062
    1UNL    H27   64  -0.270   0.145   0.271
    1UNL    H28   65  -0.510   0.183   0.124
   0.00000   0.00000   0.00000   0.00000   0.00000   0.00000   0.00000   0.00000   0.00000
Generated with MDTraj, t= 31.0
 65
    1UNL     C1    1  -0.180  -0.293   0.315
    1UNL     C2    2  -0.070  -0.268   0.220
    1UNL     C3    3  -0.029  -0.395   0.137
    1UNL     C4    4   0.073  -0.349   0.023
    1UNL     O1    5   0.113  -0.452  -0.063
    1UNL     O2    6   0.179  -0.293   0.108
    1UNL     C5    7   0.136  -0.179   0.177
    1UNL     O3    8   0.051  -0.224   0.282
    1UNL     C6    9   0.039  -0.110   0.068
    1UNL     C7   10   0.057   0.035   0.026
    1UNL     O4   11   0.173   0.052  -0.063
    1UNL     C8   12   0.294   0.050   0.005
    1UNL     O5   13   0.311   0.035   0.126
    1UNL     C9   14   0.418   0.065  -0.081
    1UNL    C10   15   0.411   0.095  -0.214
    1UNL    C11   16   0.525   0.115  -0.295
    1UNL     O6   17   0.517   0.138  -0.429
    1UNL    C12   18   0.649   0.131  -0.229
    1UNL     O7   19   0.762   0.157  -0.305
    1UNL    C13   20   0.657   0.107  -0.093
    1UNL     O8   21   0.779   0.115  -0.035
    1UNL    C14   22   0.541   0.061  -0.023
    1UNL    C15   23   0.021  -0.215  -0.045
    1UNL    C16   24  -0.131  -0.199  -0.036
    1UNL    C17   25  -0.107  -0.149   0.113
    1UNL     O9   26  -0.187  -0.044   0.175
    1UNL    C18   27  -0.271   0.035   0.089
    1UNL    O10   28  -0.204   0.078  -0.038
    1UNL    C19   29  -0.263   0.174  -0.122
    1UNL    C20   30  -0.337   0.104  -0.239
    1UNL    O11   31  -0.418   0.196  -0.303
    1UNL    C21   32  -0.360   0.267  -0.044
    1UNL    O12   33  -0.495   0.220  -0.048
    1UNL    C22   34  -0.320   0.288   0.111
    1UNL    O13   35  -0.187   0.337   0.125
    1UNL    C23   36  -0.331   0.148   0.180
    1UNL    O14   37  -0.466   0.130   0.221
    1UNL     H1   38  -0.277  -0.299   0.268
    1UNL     H2   39  -0.201  -0.208   0.370
    1UNL     H3   40  -0.160  -0.379   0.379
    1UNL     H4   41   0.043  -0.444   0.194
    1UNL     H5   42  -0.106  -0.468   0.103
    1UNL     H6   43   0.033  -0.486  -0.119
    1UNL     H7   44   0.224  -0.124   0.213
    1UNL     H8   45  -0.025   0.079  -0.039
    1UNL     H9   46   0.061   0.103   0.102
    1UNL    H10   47   0.314   0.090  -0.257
    1UNL    H11   48   0.430   0.092  -0.464
    1UNL    H12   49   0.837   0.185  -0.249
    1UNL    H13   50   0.777   0.093   0.061
    1UNL    H14   51   0.543   0.038   0.086
    1UNL    H15   52   0.082  -0.195  -0.134
    1UNL    H16   53  -0.191  -0.292  -0.047
    1UNL    H17   54  -0.166  -0.127  -0.103
    1UNL    H18   55  -0.358  -0.025   0.044
    1UNL    H19   56  -0.176   0.224  -0.170
    1UNL    H20   57  -0.409   0.023  -0.200
    1UNL    H21   58  -0.277   0.065  -0.316
    1UNL    H22   59  -0.374   0.265  -0.348
    1UNL    H23   60  -0.362   0.365  -0.094
    1UNL    H24   61  -0.515   0.206  -0.142
    1UNL    H25   62  -0.399   0.356   0.149
    1UNL    H26   63  -0.123   0.275   0.071
    1UNL    H27   64  -0.262   0.147   0.268
    1UNL    H28   65  -0.536   0.137   0.158
   0.00000   0.00000   0.00000   0.00000   0.00000   0.00000   0.00000   0.00000   0.00000
Generated with MDTraj, t= 32.0
 65
    1UNL     C1    1  -0.184  -0.287   0.327
    1UNL     C2    2  -0.070  -0.265   0.218
    1UNL     C3    3  -0.025  -0.392   0.145
    1UNL     C4    4   0.083  -0.352   0.032
    1UNL     O1    5   0.106  -0.453  -0.067
    1UNL     O2    6   0.199  -0.290   0.104
    1UNL     C5    7   0.143  -0.176   0.166
    1UNL     O3    8   0.059  -0.216   0.276
    1UNL     C6    9   0.043  -0.113   0.062
    1UNL     C7   10   0.070   0.027   0.014
    1UNL     O4   11   0.183   0.038  -0.066
    1UNL     C8   12   0.303   0.046   0.009
    1UNL     O5   13   0.314   0.046   0.131
    1UNL     C9   14   0.421   0.064  -0.078
    1UNL    C10   15   0.407   0.099  -0.211
    1UNL    C11   16   0.517   0.132  -0.288
    1UNL     O6   17   0.506   0.181  -0.419
    1UNL    C12   18   0.645   0.125  -0.234
    1UNL     O7   19   0.764   0.144  -0.301
    1UNL    C13   20   0.664   0.081  -0.101
    1UNL     O8   21   0.786   0.057  -0.041
    1UNL    C14   22   0.545   0.061  -0.024
    1UNL    C15   23   0.013  -0.219  -0.041
    1UNL    C16   24  -0.139  -0.194  -0.020
    1UNL    C17   25  -0.104  -0.146   0.118
    1UNL     O9   26  -0.173  -0.029   0.172
    1UNL    C18   27  -0.259   0.043   0.086
    1UNL    O10   28  -0.188   0.110  -0.023
    1UNL    C19   29  -0.269   0.192  -0.110
    1UNL    C20   30  -0.323   0.110  -0.236
    1UNL    O11   31  -0.404   0.198  -0.324
    1UNL    C21   32  -0.393   0.259  -0.040
    1UNL    O12   33  -0.517   0.195  -0.050
    1UNL    C22   34  -0.355   0.285   0.106
    1UNL    O13   35  -0.228   0.355   0.111
    1UNL    C23   36  -0.335   0.147   0.173
    1UNL    O14   37  -0.457   0.102   0.223
    1UNL     H1   38  -0.277  -0.315   0.286
    1UNL     H2   39  -0.223  -0.201   0.379
    1UNL     H3   40  -0.155  -0.366   0.395
    1UNL     H4   41   0.035  -0.456   0.214
    1UNL     H5   42  -0.104  -0.448   0.101
    1UNL     H6   43   0.018  -0.472  -0.115
    1UNL     H7   44   0.226  -0.113   0.202
    1UNL     H8   45  -0.011   0.063  -0.058
    1UNL     H9   46   0.073   0.097   0.088
    1UNL    H10   47   0.312   0.107  -0.267
    1UNL    H11   48   0.404   0.178  -0.443
    1UNL    H12   49   0.842   0.123  -0.243
    1UNL    H13   50   0.780   0.019   0.047
    1UNL    H14   51   0.559   0.054   0.078
    1UNL    H15   52   0.060  -0.205  -0.137
    1UNL    H16   53  -0.190  -0.289  -0.032
    1UNL    H17   54  -0.177  -0.116  -0.085
    1UNL    H18   55  -0.333  -0.027   0.033
    1UNL    H19   56  -0.196   0.263  -0.156
    1UNL    H20   57  -0.387   0.023  -0.199
    1UNL    H21   58  -0.242   0.069  -0.287
    1UNL    H22   59  -0.337   0.273  -0.335
    1UNL    H23   60  -0.404   0.356  -0.084
    1UNL    H24   61  -0.531   0.198  -0.149
    1UNL    H25   62  -0.437   0.334   0.161
    1UNL    H26   63  -0.161   0.293   0.062
    1UNL    H27   64  -0.267   0.168   0.258
    1UNL    H28   65  -0.521   0.097   0.138
   0.00000   0.00000   0.00000   0.00000   0.00000   0.00000   0.00000   0.00000   0.00000
Generated with MDTraj, t= 33.0
 65
    1UNL     C1    1  -0.180  -0.255   0.320
    1UNL     C2    2  -0.066  -0.253   0.213
    1UNL     C3    3  -0.051  -0.380   0.139
    1UNL     C4    4   0.065  -0.348   0.029
    1UNL     O1    5   0.084  -0.455  -0.057
    1UNL     O2    6   0.180  -0.297   0.106
    1UNL     C5    7   0.140  -0.174   0.170
    1UNL     O3    8   0.056  -0.212   0.275
    1UNL     C6    9   0.051  -0.104   0.056
    1UNL     C7   10   0.085   0.037   0.009
    1UNL     O4   11   0.198   0.059  -0.067
    1UNL     C8   12   0.306   0.066   0.009
    1UNL     O5   13   0.314   0.050   0.128
    1UNL     C9   14   0.429   0.085  -0.077
    1UNL    C10   15   0.423   0.128  -0.209
    1UNL    C11   16   0.534   0.156  -0.288
    1UNL     O6   17   0.520   0.204  -0.417
    1UNL    C12   18   0.659   0.112  -0.237
    1UNL     O7   19   0.773   0.123  -0.309
    1UNL    C13   20   0.666   0.054  -0.105
    1UNL     O8   21   0.788   0.023  -0.061
    1UNL    C14   22   0.552   0.038  -0.028
    1UNL    C15   23   0.022  -0.211  -0.048
    1UNL    C16   24  -0.134  -0.181  -0.039
    1UNL    C17   25  -0.101  -0.133   0.107
    1UNL     O9   26  -0.171  -0.029   0.171
    1UNL    C18   27  -0.251   0.047   0.090
    1UNL    O10   28  -0.186   0.130  -0.008
    1UNL    C19   29  -0.268   0.196  -0.102
    1UNL    C20   30  -0.297   0.091  -0.216
    1UNL    O11   31  -0.402   0.145  -0.298
    1UNL    C21   32  -0.398   0.248  -0.043
    1UNL    O12   33  -0.507   0.164  -0.046
    1UNL    C22   34  -0.375   0.281   0.109
    1UNL    O13   35  -0.266   0.375   0.141
    1UNL    C23   36  -0.348   0.138   0.178
    1UNL    O14   37  -0.475   0.070   0.195
    1UNL     H1   38  -0.272  -0.294   0.294
    1UNL     H2   39  -0.213  -0.151   0.349
    1UNL     H3   40  -0.147  -0.309   0.405
    1UNL     H4   41  -0.011  -0.465   0.208
    1UNL     H5   42  -0.137  -0.414   0.092
    1UNL     H6   43   0.010  -0.477  -0.117
    1UNL     H7   44   0.221  -0.109   0.215
    1UNL     H8   45  -0.001   0.077  -0.051
    1UNL     H9   46   0.094   0.095   0.093
    1UNL    H10   47   0.331   0.156  -0.249
    1UNL    H11   48   0.427   0.252  -0.417
    1UNL    H12   49   0.843   0.073  -0.263
    1UNL    H13   50   0.790  -0.015   0.025
    1UNL    H14   51   0.551  -0.006   0.078
    1UNL    H15   52   0.068  -0.191  -0.143
    1UNL    H16   53  -0.188  -0.272  -0.036
    1UNL    H17   54  -0.164  -0.095  -0.105
    1UNL    H18   55  -0.324  -0.026   0.039
    1UNL    H19   56  -0.208   0.274  -0.151
    1UNL    H20   57  -0.342  -0.002  -0.168
    1UNL    H21   58  -0.217   0.061  -0.275
    1UNL    H22   59  -0.384   0.237  -0.344
    1UNL    H23   60  -0.428   0.345  -0.077
    1UNL    H24   61  -0.522   0.133  -0.136
    1UNL    H25   62  -0.470   0.319   0.149
    1UNL    H26   63  -0.183   0.338   0.126
    1UNL    H27   64  -0.307   0.144   0.277
    1UNL    H28   65  -0.524   0.095   0.119
   0.00000   0.00000   0.00000   0.00000   0.00000   0.00000   0.00000   0.00000   0.00000
Generated with MDTraj, t= 34.0
 65
    1UNL     C1    1  -0.173  -0.267   0.329
    1UNL     C2    2  -0.074  -0.244   0.219
    1UNL     C3    3  -0.057  -0.366   0.129
    1UNL     C4    4   0.057  -0.332   0.018
    1UNL     O1    5   0.080  -0.435  -0.074
    1UNL     O2    6   0.175  -0.292   0.096
    1UNL     C5    7   0.145  -0.175   0.175
    1UNL     O3    8   0.058  -0.224   0.281
    1UNL     C6    9   0.058  -0.088   0.074
    1UNL     C7   10   0.091   0.059   0.024
    1UNL     O4   11   0.199   0.062  -0.060
    1UNL     C8   12   0.317   0.061   0.005
    1UNL     O5   13   0.325   0.049   0.124
    1UNL     C9   14   0.436   0.071  -0.084
    1UNL    C10   15   0.432   0.149  -0.202
    1UNL    C11   16   0.543   0.155  -0.287
    1UNL     O6   17   0.555   0.222  -0.414
    1UNL    C12   18   0.668   0.105  -0.242
    1UNL     O7   19   0.785   0.105  -0.311
    1UNL    C13   20   0.671   0.038  -0.119
    1UNL     O8   21   0.796  -0.011  -0.075
    1UNL    C14   22   0.564   0.024  -0.040
    1UNL    C15   23   0.021  -0.185  -0.041
    1UNL    C16   24  -0.129  -0.158  -0.021
    1UNL    C17   25  -0.094  -0.117   0.126
    1UNL     O9   26  -0.157  -0.004   0.180
    1UNL    C18   27  -0.251   0.061   0.097
    1UNL    O10   28  -0.199   0.143  -0.005
    1UNL    C19   29  -0.298   0.190  -0.102
    1UNL    C20   30  -0.312   0.081  -0.213
    1UNL    O11   31  -0.382   0.122  -0.324
    1UNL    C21   32  -0.428   0.245  -0.033
    1UNL    O12   33  -0.537   0.153  -0.058
    1UNL    C22   34  -0.400   0.272   0.123
    1UNL    O13   35  -0.295   0.362   0.131
    1UNL    C23   36  -0.362   0.134   0.183
    1UNL    O14   37  -0.475   0.044   0.200
    1UNL     H1   38  -0.273  -0.265   0.300
    1UNL     H2   39  -0.168  -0.177   0.396
    1UNL     H3   40  -0.150  -0.357   0.376
    1UNL     H4   41  -0.003  -0.459   0.171
    1UNL     H5   42  -0.146  -0.404   0.083
    1UNL     H6   43   0.003  -0.447  -0.127
    1UNL     H7   44   0.235  -0.122   0.216
    1UNL     H8   45   0.004   0.098  -0.026
    1UNL     H9   46   0.116   0.115   0.110
    1UNL    H10   47   0.338   0.200  -0.231
    1UNL    H11   48   0.479   0.287  -0.441
    1UNL    H12   49   0.854   0.063  -0.253
    1UNL    H13   50   0.796  -0.043   0.013
    1UNL    H14   51   0.566  -0.040   0.039
    1UNL    H15   52   0.074  -0.163  -0.133
    1UNL    H16   53  -0.200  -0.238  -0.027
    1UNL    H17   54  -0.161  -0.073  -0.085
    1UNL    H18   55  -0.312  -0.023   0.048
    1UNL    H19   56  -0.238   0.268  -0.148
    1UNL    H20   57  -0.364  -0.016  -0.178
    1UNL    H21   58  -0.216   0.051  -0.244
    1UNL    H22   59  -0.337   0.193  -0.372
    1UNL    H23   60  -0.453   0.342  -0.080
    1UNL    H24   61  -0.537   0.140  -0.158
    1UNL    H25   62  -0.494   0.315   0.157
    1UNL    H26   63  -0.202   0.324   0.107
    1UNL    H27   64  -0.321   0.144   0.281
    1UNL    H28   65  -0.519   0.039   0.109
   0.00000   0.00000   0.00000   0.00000   0.00000   0.00000   0.00000   0.00000   0.00000
Generated with MDTraj, t= 35.0
 65
    1UNL     C1    1  -0.180  -0.247   0.313
    1UNL     C2    2  -0.067  -0.230   0.212
    1UNL     C3    3  -0.031  -0.350   0.125
    1UNL     C4    4   0.084  -0.313   0.015
    1UNL     O1    5   0.090  -0.420  -0.080
    1UNL     O2    6   0.202  -0.274   0.091
    1UNL     C5    7   0.156  -0.161   0.164
    1UNL     O3    8   0.061  -0.205   0.270
    1UNL     C6    9   0.061  -0.078   0.078
    1UNL     C7   10   0.104   0.071   0.042
    1UNL     O4   11   0.212   0.079  -0.047
    1UNL     C8   12   0.330   0.050   0.014
    1UNL     O5   13   0.350   0.020   0.127
    1UNL     C9   14   0.445   0.060  -0.078
    1UNL    C10   15   0.436   0.123  -0.209
    1UNL    C11   16   0.553   0.150  -0.281
    1UNL     O6   17   0.553   0.229  -0.395
    1UNL    C12   18   0.671   0.089  -0.237
    1UNL     O7   19   0.790   0.108  -0.308
    1UNL    C13   20   0.674   0.020  -0.116
    1UNL     O8   21   0.795  -0.045  -0.096
    1UNL    C14   22   0.561  -0.000  -0.040
    1UNL    C15   23   0.028  -0.174  -0.040
    1UNL    C16   24  -0.119  -0.140  -0.024
    1UNL    C17   25  -0.092  -0.107   0.125
    1UNL     O9   26  -0.171  -0.007   0.185
    1UNL    C18   27  -0.274   0.046   0.102
    1UNL    O10   28  -0.211   0.125  -0.004
    1UNL    C19   29  -0.306   0.186  -0.104
    1UNL    C20   30  -0.329   0.093  -0.220
    1UNL    O11   31  -0.420   0.140  -0.311
    1UNL    C21   32  -0.439   0.232  -0.043
    1UNL    O12   33  -0.541   0.125  -0.063
    1UNL    C22   34  -0.414   0.262   0.110
    1UNL    O13   35  -0.327   0.362   0.125
    1UNL    C23   36  -0.371   0.132   0.186
    1UNL    O14   37  -0.488   0.056   0.216
    1UNL     H1   38  -0.274  -0.273   0.267
    1UNL     H2   39  -0.203  -0.153   0.363
    1UNL     H3   40  -0.154  -0.322   0.380
    1UNL     H4   41   0.016  -0.439   0.172
    1UNL     H5   42  -0.110  -0.404   0.058
    1UNL     H6   43   0.008  -0.437  -0.119
    1UNL     H7   44   0.245  -0.102   0.203
    1UNL     H8   45   0.017   0.112  -0.005
    1UNL     H9   46   0.130   0.129   0.131
    1UNL    H10   47   0.338   0.150  -0.233
    1UNL    H11   48   0.461   0.269  -0.411
    1UNL    H12   49   0.861   0.055  -0.266
    1UNL    H13   50   0.777  -0.098  -0.018
    1UNL    H14   51   0.566  -0.051   0.063
    1UNL    H15   52   0.070  -0.149  -0.135
    1UNL    H16   53  -0.193  -0.217  -0.047
    1UNL    H17   54  -0.141  -0.051  -0.079
    1UNL    H18   55  -0.324  -0.042   0.049
    1UNL    H19   56  -0.250   0.274  -0.130
    1UNL    H20   57  -0.370  -0.008  -0.181
    1UNL    H21   58  -0.240   0.064  -0.266
    1UNL    H22   59  -0.378   0.217  -0.343
    1UNL    H23   60  -0.473   0.328  -0.089
    1UNL    H24   61  -0.550   0.121  -0.158
    1UNL    H25   62  -0.507   0.298   0.154
    1UNL    H26   63  -0.245   0.336   0.081
    1UNL    H27   64  -0.335   0.171   0.276
    1UNL    H28   65  -0.537   0.052   0.125
   0.00000   0.00000   0.00000   0.00000   0.00000   0.00000   0.00000   0.00000   0.00000
Generated with MDTraj, t= 36.0
 65
    1UNL     C1    1  -0.190  -0.262   0.285
    1UNL     C2    2  -0.065  -0.239   0.200
    1UNL     C3    3  -0.018  -0.352   0.119
    1UNL     C4    4   0.090  -0.300   0.018
    1UNL     O1    5   0.132  -0.393  -0.076
    1UNL     O2    6   0.195  -0.254   0.113
    1UNL     C5    7   0.142  -0.148   0.189
    1UNL     O3    8   0.051  -0.206   0.285
    1UNL     C6    9   0.057  -0.067   0.082
    1UNL     C7   10   0.100   0.077   0.048
    1UNL     O4   11   0.212   0.081  -0.046
    1UNL     C8   12   0.332   0.049   0.018
    1UNL     O5   13   0.342   0.025   0.136
    1UNL     C9   14   0.447   0.055  -0.074
    1UNL    C10   15   0.442   0.140  -0.184
    1UNL    C11   16   0.551   0.146  -0.270
    1UNL     O6   17   0.547   0.218  -0.388
    1UNL    C12   18   0.674   0.081  -0.236
    1UNL     O7   19   0.790   0.083  -0.315
    1UNL    C13   20   0.675  -0.006  -0.126
    1UNL     O8   21   0.804  -0.062  -0.099
    1UNL    C14   22   0.559  -0.010  -0.044
    1UNL    C15   23   0.049  -0.163  -0.046
    1UNL    C16   24  -0.105  -0.131  -0.047
    1UNL    C17   25  -0.092  -0.108   0.107
    1UNL     O9   26  -0.164  -0.001   0.159
    1UNL    C18   27  -0.270   0.061   0.081
    1UNL    O10   28  -0.217   0.149  -0.026
    1UNL    C19   29  -0.327   0.201  -0.108
    1UNL    C20   30  -0.342   0.109  -0.221
    1UNL    O11   31  -0.460   0.129  -0.301
    1UNL    C21   32  -0.458   0.223  -0.032
    1UNL    O12   33  -0.532   0.098  -0.035
    1UNL    C22   34  -0.419   0.264   0.118
    1UNL    O13   35  -0.321   0.365   0.120
    1UNL    C23   36  -0.364   0.132   0.183
    1UNL    O14   37  -0.468   0.039   0.213
    1UNL     H1   38  -0.267  -0.298   0.215
    1UNL     H2   39  -0.232  -0.179   0.331
    1UNL     H3   40  -0.175  -0.340   0.356
    1UNL     H4   41   0.024  -0.430   0.187
    1UNL     H5   42  -0.098  -0.414   0.058
    1UNL     H6   43   0.068  -0.417  -0.142
    1UNL     H7   44   0.227  -0.089   0.235
    1UNL     H8   45   0.021   0.131  -0.001
    1UNL     H9   46   0.127   0.133   0.143
    1UNL    H10   47   0.345   0.180  -0.218
    1UNL    H11   48   0.455   0.246  -0.415
    1UNL    H12   49   0.844   0.011  -0.275
    1UNL    H13   50   0.786  -0.131  -0.029
    1UNL    H14   51   0.566  -0.060   0.045
    1UNL    H15   52   0.116  -0.133  -0.127
    1UNL    H16   53  -0.179  -0.214  -0.054
    1UNL    H17   54  -0.126  -0.041  -0.102
    1UNL    H18   55  -0.305  -0.031   0.027
    1UNL    H19   56  -0.308   0.299  -0.152
    1UNL    H20   57  -0.358   0.001  -0.182
    1UNL    H21   58  -0.262   0.093  -0.287
    1UNL    H22   59  -0.471   0.214  -0.354
    1UNL    H23   60  -0.524   0.308  -0.066
    1UNL    H24   61  -0.557   0.074  -0.128
    1UNL    H25   62  -0.502   0.302   0.179
    1UNL    H26   63  -0.235   0.323   0.108
    1UNL    H27   64  -0.318   0.152   0.275
    1UNL    H28   65  -0.531   0.022   0.146
   0.00000   0.00000   0.00000   0.00000   0.00000   0.00000   0.00000   0.00000   0.00000
Generated with MDTraj, t= 37.0
 65
    1UNL     C1    1  -0.214  -0.249   0.249
    1UNL     C2    2  -0.078  -0.234   0.174
    1UNL     C3    3  -0.032  -0.349   0.090
    1UNL     C4    4   0.103  -0.307   0.023
    1UNL     O1    5   0.163  -0.403  -0.070
    1UNL     O2    6   0.195  -0.274   0.126
    1UNL     C5    7   0.143  -0.158   0.195
    1UNL     O3    8   0.030  -0.203   0.269
    1UNL     C6    9   0.083  -0.068   0.084
    1UNL     C7   10   0.102   0.082   0.065
    1UNL     O4   11   0.207   0.114  -0.028
    1UNL     C8   12   0.329   0.079   0.021
    1UNL     O5   13   0.349   0.056   0.140
    1UNL     C9   14   0.453   0.078  -0.066
    1UNL    C10   15   0.447   0.142  -0.185
    1UNL    C11   16   0.557   0.145  -0.278
    1UNL     O6   17   0.553   0.216  -0.394
    1UNL    C12   18   0.663   0.060  -0.243
    1UNL     O7   19   0.777   0.044  -0.325
    1UNL    C13   20   0.670  -0.009  -0.114
    1UNL     O8   21   0.782  -0.085  -0.089
    1UNL    C14   22   0.560  -0.005  -0.032
    1UNL    C15   23   0.084  -0.156  -0.050
    1UNL    C16   24  -0.064  -0.116  -0.068
    1UNL    C17   25  -0.074  -0.099   0.091
    1UNL     O9   26  -0.138   0.006   0.148
    1UNL    C18   27  -0.261   0.051   0.083
    1UNL    O10   28  -0.227   0.137  -0.025
    1UNL    C19   29  -0.340   0.181  -0.108
    1UNL    C20   30  -0.362   0.083  -0.219
    1UNL    O11   31  -0.476   0.124  -0.296
    1UNL    C21   32  -0.466   0.221  -0.024
    1UNL    O12   33  -0.561   0.117  -0.030
    1UNL    C22   34  -0.422   0.249   0.125
    1UNL    O13   35  -0.349   0.373   0.130
    1UNL    C23   36  -0.348   0.127   0.181
    1UNL    O14   37  -0.446   0.044   0.235
    1UNL     H1   38  -0.296  -0.255   0.178
    1UNL     H2   39  -0.237  -0.174   0.315
    1UNL     H3   40  -0.216  -0.341   0.309
    1UNL     H4   41  -0.016  -0.440   0.156
    1UNL     H5   42  -0.105  -0.391   0.018
    1UNL     H6   43   0.112  -0.410  -0.153
    1UNL     H7   44   0.215  -0.095   0.255
    1UNL     H8   45   0.011   0.127   0.020
    1UNL     H9   46   0.126   0.147   0.161
    1UNL    H10   47   0.367   0.205  -0.206
    1UNL    H11   48   0.467   0.260  -0.414
    1UNL    H12   49   0.841   0.011  -0.257
    1UNL    H13   50   0.772  -0.142  -0.005
    1UNL    H14   51   0.565  -0.065   0.062
    1UNL    H15   52   0.166  -0.133  -0.119
    1UNL    H16   53  -0.115  -0.209  -0.104
    1UNL    H17   54  -0.086  -0.018  -0.113
    1UNL    H18   55  -0.315  -0.042   0.054
    1UNL    H19   56  -0.297   0.271  -0.159
    1UNL    H20   57  -0.373  -0.028  -0.186
    1UNL    H21   58  -0.270   0.079  -0.272
    1UNL    H22   59  -0.450   0.214  -0.341
    1UNL    H23   60  -0.511   0.315  -0.064
    1UNL    H24   61  -0.587   0.108  -0.124
    1UNL    H25   62  -0.510   0.271   0.188
    1UNL    H26   63  -0.248   0.368   0.106
    1UNL    H27   64  -0.295   0.162   0.264
    1UNL    H28   65  -0.520   0.022   0.162
   0.00000   0.00000   0.00000   0.00000   0.00000   0.00000   0.00000   0.00000   0.00000
Generated with MDTraj, t= 38.0
 65
    1UNL     C1    1  -0.207  -0.266   0.234
    1UNL     C2    2  -0.080  -0.223   0.173
    1UNL     C3    3  -0.024  -0.330   0.074
    1UNL     C4    4   0.115  -0.288   0.005
    1UNL     O1    5   0.157  -0.371  -0.098
    1UNL     O2    6   0.206  -0.262   0.122
    1UNL     C5    7   0.144  -0.154   0.196
    1UNL     O3    8   0.028  -0.202   0.266
    1UNL     C6    9   0.081  -0.067   0.083
    1UNL     C7   10   0.122   0.083   0.078
    1UNL     O4   11   0.226   0.120  -0.008
    1UNL     C8   12   0.349   0.088   0.041
    1UNL     O5   13   0.371   0.056   0.159
    1UNL     C9   14   0.456   0.083  -0.058
    1UNL    C10   15   0.450   0.146  -0.179
    1UNL    C11   16   0.554   0.124  -0.271
    1UNL     O6   17   0.548   0.195  -0.389
    1UNL    C12   18   0.666   0.046  -0.240
    1UNL     O7   19   0.766   0.025  -0.333
    1UNL    C13   20   0.671  -0.017  -0.112
    1UNL     O8   21   0.773  -0.107  -0.088
    1UNL    C14   22   0.574   0.017  -0.016
    1UNL    C15   23   0.081  -0.138  -0.052
    1UNL    C16   24  -0.069  -0.100  -0.069
    1UNL    C17   25  -0.075  -0.084   0.090
    1UNL     O9   26  -0.141   0.025   0.149
    1UNL    C18   27  -0.260   0.066   0.076
    1UNL    O10   28  -0.228   0.143  -0.038
    1UNL    C19   29  -0.351   0.181  -0.106
    1UNL    C20   30  -0.387   0.075  -0.211
    1UNL    O11   31  -0.500   0.095  -0.282
    1UNL    C21   32  -0.473   0.209  -0.019
    1UNL    O12   33  -0.575   0.109  -0.018
    1UNL    C22   34  -0.422   0.250   0.123
    1UNL    O13   35  -0.326   0.359   0.117
    1UNL    C23   36  -0.358   0.124   0.182
    1UNL    O14   37  -0.457   0.027   0.218
    1UNL     H1   38  -0.279  -0.286   0.159
    1UNL     H2   39  -0.240  -0.183   0.292
    1UNL     H3   40  -0.195  -0.346   0.308
    1UNL     H4   41  -0.005  -0.433   0.122
    1UNL     H5   42  -0.087  -0.365  -0.000
    1UNL     H6   43   0.099  -0.373  -0.180
    1UNL     H7   44   0.212  -0.113   0.274
    1UNL     H8   45   0.048   0.159   0.035
    1UNL     H9   46   0.156   0.127   0.184
    1UNL    H10   47   0.368   0.222  -0.195
    1UNL    H11   48   0.472   0.255  -0.391
    1UNL    H12   49   0.840  -0.013  -0.284
    1UNL    H13   50   0.747  -0.165  -0.006
    1UNL    H14   51   0.566  -0.037   0.076
    1UNL    H15   52   0.153  -0.089  -0.118
    1UNL    H16   53  -0.119  -0.188  -0.110
    1UNL    H17   54  -0.110  -0.005  -0.116
    1UNL    H18   55  -0.299  -0.032   0.047
    1UNL    H19   56  -0.313   0.271  -0.161
    1UNL    H20   57  -0.394  -0.023  -0.144
    1UNL    H21   58  -0.304   0.051  -0.275
    1UNL    H22   59  -0.492   0.179  -0.332
    1UNL    H23   60  -0.531   0.289  -0.068
    1UNL    H24   61  -0.592   0.083  -0.113
    1UNL    H25   62  -0.514   0.271   0.181
    1UNL    H26   63  -0.256   0.317   0.060
    1UNL    H27   64  -0.309   0.143   0.272
    1UNL    H28   65  -0.518   0.042   0.150
   0.00000   0.00000   0.00000   0.00000   0.00000   0.00000   0.00000   0.00000   0.00000
Generated with MDTraj, t= 39.0
 65
    1UNL     C1    1  -0.188  -0.246   0.230
    1UNL     C2    2  -0.056  -0.214   0.160
    1UNL     C3    3  -0.014  -0.321   0.057
    1UNL     C4    4   0.111  -0.261  -0.013
    1UNL     O1    5   0.146  -0.336  -0.131
    1UNL     O2    6   0.208  -0.241   0.094
    1UNL     C5    7   0.162  -0.138   0.182
    1UNL     O3    8   0.054  -0.197   0.257
    1UNL     C6    9   0.085  -0.033   0.086
    1UNL     C7   10   0.131   0.112   0.091
    1UNL     O4   11   0.241   0.123   0.007
    1UNL     C8   12   0.358   0.076   0.059
    1UNL     O5   13   0.376   0.037   0.172
    1UNL     C9   14   0.470   0.068  -0.032
    1UNL    C10   15   0.457   0.131  -0.156
    1UNL    C11   16   0.549   0.113  -0.252
    1UNL     O6   17   0.537   0.171  -0.382
    1UNL    C12   18   0.658   0.025  -0.235
    1UNL     O7   19   0.756   0.018  -0.336
    1UNL    C13   20   0.679  -0.038  -0.111
    1UNL     O8   21   0.800  -0.099  -0.085
    1UNL    C14   22   0.576  -0.026  -0.018
    1UNL    C15   23   0.082  -0.103  -0.054
    1UNL    C16   24  -0.061  -0.079  -0.064
    1UNL    C17   25  -0.064  -0.069   0.090
    1UNL     O9   26  -0.145   0.027   0.153
    1UNL    C18   27  -0.271   0.054   0.084
    1UNL    O10   28  -0.251   0.126  -0.038
    1UNL    C19   29  -0.364   0.159  -0.118
    1UNL    C20   30  -0.409   0.035  -0.209
    1UNL    O11   31  -0.521   0.069  -0.277
    1UNL    C21   32  -0.478   0.213  -0.029
    1UNL    O12   33  -0.582   0.123  -0.017
    1UNL    C22   34  -0.434   0.244   0.116
    1UNL    O13   35  -0.336   0.349   0.124
    1UNL    C23   36  -0.369   0.123   0.184
    1UNL    O14   37  -0.478   0.040   0.222
    1UNL     H1   38  -0.263  -0.254   0.160
    1UNL     H2   39  -0.214  -0.165   0.301
    1UNL     H3   40  -0.181  -0.332   0.293
    1UNL     H4   41   0.014  -0.420   0.100
    1UNL     H5   42  -0.086  -0.351  -0.011
    1UNL     H6   43   0.069  -0.318  -0.197
    1UNL     H7   44   0.241  -0.093   0.243
    1UNL     H8   45   0.053   0.188   0.057
    1UNL     H9   46   0.178   0.150   0.193
    1UNL    H10   47   0.369   0.180  -0.169
    1UNL    H11   48   0.465   0.231  -0.381
    1UNL    H12   49   0.822  -0.055  -0.322
    1UNL    H13   50   0.788  -0.152   0.002
    1UNL    H14   51   0.588  -0.086   0.071
    1UNL    H15   52   0.167  -0.063  -0.114
    1UNL    H16   53  -0.120  -0.166  -0.094
    1UNL    H17   54  -0.090   0.017  -0.120
    1UNL    H18   55  -0.311  -0.044   0.063
    1UNL    H19   56  -0.321   0.235  -0.190
    1UNL    H20   57  -0.430  -0.061  -0.142
    1UNL    H21   58  -0.328   0.005  -0.275
    1UNL    H22   59  -0.516   0.129  -0.351
    1UNL    H23   60  -0.521   0.306  -0.063
    1UNL    H24   61  -0.611   0.094  -0.107
    1UNL    H25   62  -0.518   0.289   0.173
    1UNL    H26   63  -0.268   0.329   0.061
    1UNL    H27   64  -0.313   0.149   0.270
    1UNL    H28   65  -0.549   0.038   0.147
   0.00000   0.00000   0.00000   0.00000   0.00000   0.00000   0.00000   0.00000   0.00000
Generated with MDTraj, t= 40.0
 65
    1UNL     C1    1  -0.187  -0.246   0.223
    1UNL     C2    2  -0.056  -0.209   0.145
    1UNL     C3    3  -0.010  -0.298   0.033
    1UNL     C4    4   0.119  -0.239  -0.036
    1UNL     O1    5   0.158  -0.309  -0.142
    1UNL     O2    6   0.218  -0.229   0.074
    1UNL     C5    7   0.166  -0.140   0.172
    1UNL     O3    8   0.055  -0.206   0.241
    1UNL     C6    9   0.093  -0.027   0.088
    1UNL     C7   10   0.145   0.115   0.113
    1UNL     O4   11   0.252   0.149   0.024
    1UNL     C8   12   0.360   0.074   0.063
    1UNL     O5   13   0.377   0.021   0.174
    1UNL     C9   14   0.475   0.057  -0.035
    1UNL    C10   15   0.463   0.117  -0.161
    1UNL    C11   16   0.554   0.093  -0.257
    1UNL     O6   17   0.546   0.146  -0.390
    1UNL    C12   18   0.672   0.019  -0.231
    1UNL     O7   19   0.766   0.007  -0.325
    1UNL    C13   20   0.686  -0.040  -0.100
    1UNL     O8   21   0.797  -0.118  -0.084
    1UNL    C14   22   0.591  -0.015  -0.002
    1UNL    C15   23   0.087  -0.084  -0.067
    1UNL    C16   24  -0.061  -0.046  -0.066
    1UNL    C17   25  -0.063  -0.058   0.090
    1UNL     O9   26  -0.148   0.034   0.161
    1UNL    C18   27  -0.273   0.056   0.091
    1UNL    O10   28  -0.257   0.135  -0.027
    1UNL    C19   29  -0.380   0.145  -0.103
    1UNL    C20   30  -0.426   0.009  -0.171
    1UNL    O11   31  -0.528   0.038  -0.274
    1UNL    C21   32  -0.499   0.211  -0.020
    1UNL    O12   33  -0.620   0.125  -0.005
    1UNL    C22   34  -0.441   0.257   0.114
    1UNL    O13   35  -0.335   0.356   0.098
    1UNL    C23   36  -0.381   0.119   0.183
    1UNL    O14   37  -0.492   0.030   0.219
    1UNL     H1   38  -0.266  -0.243   0.152
    1UNL     H2   39  -0.214  -0.186   0.313
    1UNL     H3   40  -0.180  -0.342   0.260
    1UNL     H4   41   0.017  -0.390   0.073
    1UNL     H5   42  -0.086  -0.318  -0.042
    1UNL     H6   43   0.091  -0.325  -0.221
    1UNL     H7   44   0.251  -0.106   0.232
    1UNL     H8   45   0.063   0.188   0.089
    1UNL     H9   46   0.178   0.139   0.219
    1UNL    H10   47   0.358   0.158  -0.182
    1UNL    H11   48   0.475   0.205  -0.393
    1UNL    H12   49   0.840  -0.039  -0.283
    1UNL    H13   50   0.798  -0.169   0.001
    1UNL    H14   51   0.606  -0.053   0.100
    1UNL    H15   52   0.149  -0.033  -0.144
    1UNL    H16   53  -0.128  -0.116  -0.119
    1UNL    H17   54  -0.068   0.062  -0.104
    1UNL    H18   55  -0.307  -0.039   0.056
    1UNL    H19   56  -0.349   0.209  -0.188
    1UNL    H20   57  -0.466  -0.059  -0.084
    1UNL    H21   58  -0.335  -0.042  -0.210
    1UNL    H22   59  -0.470   0.090  -0.341
    1UNL    H23   60  -0.535   0.296  -0.076
    1UNL    H24   61  -0.644   0.101  -0.096
    1UNL    H25   62  -0.515   0.303   0.182
    1UNL    H26   63  -0.263   0.313   0.038
    1UNL    H27   64  -0.337   0.145   0.276
    1UNL    H28   65  -0.567   0.033   0.158
   0.00000   0.00000   0.00000   0.00000   0.00000   0.00000   0.00000   0.00000   0.00000
Generated with MDTraj, t= 41.0
 65
    1UNL     C1    1  -0.213  -0.252   0.186
    1UNL     C2    2  -0.074  -0.201   0.125
    1UNL     C3    3  -0.017  -0.288   0.008
    1UNL     C4    4   0.121  -0.222  -0.044
    1UNL     O1    5   0.171  -0.289  -0.159
    1UNL     O2    6   0.208  -0.225   0.069
    1UNL     C5    7   0.150  -0.145   0.175
    1UNL     O3    8   0.024  -0.209   0.227
    1UNL     C6    9   0.087  -0.023   0.092
    1UNL     C7   10   0.152   0.118   0.111
    1UNL     O4   11   0.256   0.145   0.013
    1UNL     C8   12   0.367   0.086   0.059
    1UNL     O5   13   0.385   0.058   0.178
    1UNL     C9   14   0.476   0.061  -0.039
    1UNL    C10   15   0.462   0.105  -0.170
    1UNL    C11   16   0.566   0.083  -0.261
    1UNL     O6   17   0.557   0.141  -0.387
    1UNL    C12   18   0.679   0.009  -0.222
    1UNL     O7   19   0.778  -0.028  -0.311
    1UNL    C13   20   0.694  -0.038  -0.090
    1UNL     O8   21   0.808  -0.120  -0.065
    1UNL    C14   22   0.588  -0.012  -0.002
    1UNL    C15   23   0.089  -0.069  -0.060
    1UNL    C16   24  -0.051  -0.015  -0.076
    1UNL    C17   25  -0.070  -0.049   0.081
    1UNL     O9   26  -0.147   0.043   0.156
    1UNL    C18   27  -0.268   0.058   0.088
    1UNL    O10   28  -0.260   0.128  -0.039
    1UNL    C19   29  -0.384   0.134  -0.110
    1UNL    C20   30  -0.426  -0.008  -0.163
    1UNL    O11   31  -0.560  -0.001  -0.224
    1UNL    C21   32  -0.488   0.207  -0.015
    1UNL    O12   33  -0.613   0.136   0.007
    1UNL    C22   34  -0.439   0.242   0.125
    1UNL    O13   35  -0.355   0.350   0.109
    1UNL    C23   36  -0.363   0.120   0.191
    1UNL    O14   37  -0.461   0.027   0.227
    1UNL     H1   38  -0.288  -0.271   0.108
    1UNL     H2   39  -0.257  -0.180   0.253
    1UNL     H3   40  -0.204  -0.335   0.248
    1UNL     H4   41   0.011  -0.381   0.033
    1UNL     H5   42  -0.086  -0.297  -0.079
    1UNL     H6   43   0.099  -0.285  -0.228
    1UNL     H7   44   0.225  -0.115   0.246
    1UNL     H8   45   0.076   0.199   0.106
    1UNL     H9   46   0.194   0.128   0.211
    1UNL    H10   47   0.376   0.159  -0.200
    1UNL    H11   48   0.483   0.196  -0.394
    1UNL    H12   49   0.857  -0.045  -0.254
    1UNL    H13   50   0.813  -0.147   0.028
    1UNL    H14   51   0.579  -0.055   0.092
    1UNL    H15   52   0.171  -0.016  -0.115
    1UNL    H16   53  -0.132  -0.067  -0.136
    1UNL    H17   54  -0.055   0.098  -0.085
    1UNL    H18   55  -0.294  -0.042   0.063
    1UNL    H19   56  -0.372   0.190  -0.203
    1UNL    H20   57  -0.455  -0.071  -0.068
    1UNL    H21   58  -0.359  -0.066  -0.229
    1UNL    H22   59  -0.568   0.031  -0.321
    1UNL    H23   60  -0.532   0.298  -0.060
    1UNL    H24   61  -0.629   0.079  -0.074
    1UNL    H25   62  -0.522   0.268   0.192
    1UNL    H26   63  -0.267   0.321   0.082
    1UNL    H27   64  -0.298   0.148   0.275
    1UNL    H28   65  -0.519   0.025   0.154
   0.00000   0.00000   0.00000   0.00000   0.00000   0.00000   0.00000   0.00000   0.00000
Generated with MDTraj, t= 42.0
 65
    1UNL     C1    1  -0.202  -0.234   0.158
    1UNL     C2    2  -0.068  -0.196   0.103
    1UNL     C3    3  -0.017  -0.298  -0.003
    1UNL     C4    4   0.121  -0.233  -0.060
    1UNL     O1    5   0.173  -0.306  -0.164
    1UNL     O2    6   0.206  -0.232   0.058
    1UNL     C5    7   0.148  -0.140   0.156
    1UNL     O3    8   0.030  -0.199   0.212
    1UNL     C6    9   0.101  -0.016   0.073
    1UNL     C7   10   0.158   0.127   0.095
    1UNL     O4   11   0.266   0.154   0.013
    1UNL     C8   12   0.374   0.090   0.061
    1UNL     O5   13   0.383   0.040   0.173
    1UNL     C9   14   0.489   0.074  -0.021
    1UNL    C10   15   0.483   0.124  -0.152
    1UNL    C11   16   0.574   0.085  -0.254
    1UNL     O6   17   0.554   0.119  -0.385
    1UNL    C12   18   0.675   0.001  -0.212
    1UNL     O7   19   0.790  -0.038  -0.291
    1UNL    C13   20   0.687  -0.042  -0.079
    1UNL     O8   21   0.802  -0.115  -0.041
    1UNL    C14   22   0.592  -0.010   0.016
    1UNL    C15   23   0.108  -0.069  -0.078
    1UNL    C16   24  -0.036  -0.021  -0.101
    1UNL    C17   25  -0.053  -0.034   0.056
    1UNL     O9   26  -0.132   0.058   0.131
    1UNL    C18   27  -0.268   0.062   0.080
    1UNL    O10   28  -0.280   0.131  -0.042
    1UNL    C19   29  -0.426   0.134  -0.095
    1UNL    C20   30  -0.456  -0.007  -0.135
    1UNL    O11   31  -0.570  -0.010  -0.214
    1UNL    C21   32  -0.522   0.201   0.007
    1UNL    O12   33  -0.630   0.110   0.044
    1UNL    C22   34  -0.446   0.256   0.131
    1UNL    O13   35  -0.347   0.358   0.096
    1UNL    C23   36  -0.370   0.128   0.189
    1UNL    O14   37  -0.458   0.030   0.251
    1UNL     H1   38  -0.274  -0.253   0.078
    1UNL     H2   39  -0.241  -0.164   0.223
    1UNL     H3   40  -0.193  -0.326   0.218
    1UNL     H4   41   0.031  -0.386   0.039
    1UNL     H5   42  -0.083  -0.335  -0.081
    1UNL     H6   43   0.114  -0.289  -0.238
    1UNL     H7   44   0.220  -0.123   0.235
    1UNL     H8   45   0.087   0.210   0.086
    1UNL     H9   46   0.194   0.130   0.193
    1UNL    H10   47   0.411   0.191  -0.187
    1UNL    H11   48   0.469   0.155  -0.394
    1UNL    H12   49   0.824  -0.122  -0.247
    1UNL    H13   50   0.793  -0.143   0.048
    1UNL    H14   51   0.584  -0.063   0.115
    1UNL    H15   52   0.188  -0.014  -0.136
    1UNL    H16   53  -0.103  -0.087  -0.168
    1UNL    H17   54  -0.050   0.083  -0.134
    1UNL    H18   55  -0.303  -0.039   0.077
    1UNL    H19   56  -0.406   0.200  -0.179
    1UNL    H20   57  -0.483  -0.073  -0.044
    1UNL    H21   58  -0.371  -0.045  -0.194
    1UNL    H22   59  -0.549  -0.024  -0.306
    1UNL    H23   60  -0.568   0.297  -0.028
    1UNL    H24   61  -0.668   0.075  -0.037
    1UNL    H25   62  -0.511   0.306   0.202
    1UNL    H26   63  -0.265   0.315   0.063
    1UNL    H27   64  -0.307   0.153   0.277
    1UNL    H28   65  -0.551   0.035   0.203
   0.00000   0.00000   0.00000   0.00000   0.00000   0.00000   0.00000   0.00000   0.00000
Generated with MDTraj, t= 43.0
 65
    1UNL     C1    1  -0.194  -0.240   0.175
    1UNL     C2    2  -0.057  -0.193   0.105
    1UNL     C3    3  -0.008  -0.293  -0.002
    1UNL     C4    4   0.129  -0.226  -0.066
    1UNL     O1    5   0.161  -0.285  -0.191
    1UNL     O2    6   0.222  -0.216   0.044
    1UNL     C5    7   0.156  -0.129   0.137
    1UNL     O3    8   0.043  -0.185   0.204
    1UNL     C6    9   0.097  -0.013   0.046
    1UNL     C7   10   0.155   0.126   0.069
    1UNL     O4   11   0.274   0.154   0.009
    1UNL     C8   12   0.373   0.085   0.073
    1UNL     O5   13   0.367   0.044   0.188
    1UNL     C9   14   0.486   0.057  -0.017
    1UNL    C10   15   0.472   0.100  -0.154
    1UNL    C11   16   0.579   0.073  -0.239
    1UNL     O6   17   0.582   0.125  -0.366
    1UNL    C12   18   0.690  -0.005  -0.195
    1UNL     O7   19   0.790  -0.039  -0.278
    1UNL    C13   20   0.698  -0.050  -0.060
    1UNL     O8   21   0.816  -0.118  -0.032
    1UNL    C14   22   0.598  -0.010   0.030
    1UNL    C15   23   0.088  -0.071  -0.098
    1UNL    C16   24  -0.062  -0.035  -0.109
    1UNL    C17   25  -0.060  -0.042   0.049
    1UNL     O9   26  -0.137   0.063   0.109
    1UNL    C18   27  -0.276   0.064   0.074
    1UNL    O10   28  -0.294   0.114  -0.052
    1UNL    C19   29  -0.433   0.125  -0.099
    1UNL    C20   30  -0.482  -0.006  -0.143
    1UNL    O11   31  -0.616   0.007  -0.175
    1UNL    C21   32  -0.521   0.188   0.009
    1UNL    O12   33  -0.615   0.094   0.066
    1UNL    C22   34  -0.444   0.249   0.128
    1UNL    O13   35  -0.371   0.365   0.099
    1UNL    C23   36  -0.352   0.140   0.180
    1UNL    O14   37  -0.415   0.043   0.253
    1UNL     H1   38  -0.279  -0.257   0.112
    1UNL     H2   39  -0.226  -0.164   0.237
    1UNL     H3   40  -0.187  -0.330   0.242
    1UNL     H4   41   0.011  -0.399   0.037
    1UNL     H5   42  -0.086  -0.306  -0.072
    1UNL     H6   43   0.104  -0.255  -0.259
    1UNL     H7   44   0.231  -0.096   0.209
    1UNL     H8   45   0.088   0.198   0.028
    1UNL     H9   46   0.174   0.146   0.167
    1UNL    H10   47   0.371   0.145  -0.191
    1UNL    H11   48   0.501   0.166  -0.389
    1UNL    H12   49   0.854  -0.091  -0.227
    1UNL    H13   50   0.812  -0.143   0.058
    1UNL    H14   51   0.601  -0.043   0.127
    1UNL    H15   52   0.152  -0.026  -0.179
    1UNL    H16   53  -0.123  -0.111  -0.169
    1UNL    H17   54  -0.086   0.069  -0.135
    1UNL    H18   55  -0.301  -0.041   0.072
    1UNL    H19   56  -0.433   0.184  -0.193
    1UNL    H20   57  -0.478  -0.075  -0.053
    1UNL    H21   58  -0.433  -0.048  -0.232
    1UNL    H22   59  -0.624   0.039  -0.263
    1UNL    H23   60  -0.585   0.263  -0.043
    1UNL    H24   61  -0.650   0.047  -0.014
    1UNL    H25   62  -0.516   0.274   0.207
    1UNL    H26   63  -0.298   0.336   0.032
    1UNL    H27   64  -0.275   0.195   0.242
    1UNL    H28   65  -0.503   0.037   0.213
   0.00000   0.00000   0.00000   0.00000   0.00000   0.00000   0.00000   0.00000   0.00000
Generated with MDTraj, t= 44.0
 65
    1UNL     C1    1  -0.187  -0.238   0.180
    1UNL     C2    2  -0.060  -0.194   0.098
    1UNL     C3    3  -0.021  -0.285  -0.020
    1UNL     C4    4   0.116  -0.222  -0.087
    1UNL     O1    5   0.156  -0.289  -0.201
    1UNL     O2    6   0.214  -0.220   0.023
    1UNL     C5    7   0.158  -0.131   0.115
    1UNL     O3    8   0.056  -0.191   0.191
    1UNL     C6    9   0.090  -0.008   0.034
    1UNL     C7   10   0.146   0.134   0.052
    1UNL     O4   11   0.270   0.149  -0.016
    1UNL     C8   12   0.370   0.092   0.055
    1UNL     O5   13   0.362   0.069   0.173
    1UNL     C9   14   0.493   0.066  -0.020
    1UNL    C10   15   0.494   0.099  -0.157
    1UNL    C11   16   0.600   0.072  -0.238
    1UNL     O6   17   0.624   0.106  -0.375
    1UNL    C12   18   0.707  -0.005  -0.178
    1UNL     O7   19   0.817  -0.027  -0.252
    1UNL    C13   20   0.702  -0.048  -0.043
    1UNL     O8   21   0.805  -0.126  -0.006
    1UNL    C14   22   0.588  -0.019   0.028
    1UNL    C15   23   0.085  -0.070  -0.110
    1UNL    C16   24  -0.071  -0.041  -0.110
    1UNL    C17   25  -0.064  -0.037   0.047
    1UNL     O9   26  -0.144   0.057   0.126
    1UNL    C18   27  -0.284   0.065   0.090
    1UNL    O10   28  -0.305   0.109  -0.049
    1UNL    C19   29  -0.443   0.127  -0.086
    1UNL    C20   30  -0.486   0.004  -0.151
    1UNL    O11   31  -0.625   0.005  -0.179
    1UNL    C21   32  -0.532   0.174   0.032
    1UNL    O12   33  -0.614   0.073   0.094
    1UNL    C22   34  -0.445   0.253   0.134
    1UNL    O13   35  -0.362   0.349   0.065
    1UNL    C23   36  -0.355   0.150   0.200
    1UNL    O14   37  -0.423   0.067   0.296
    1UNL     H1   38  -0.270  -0.242   0.117
    1UNL     H2   39  -0.212  -0.183   0.269
    1UNL     H3   40  -0.168  -0.344   0.205
    1UNL     H4   41   0.009  -0.390   0.023
    1UNL     H5   42  -0.100  -0.303  -0.087
    1UNL     H6   43   0.100  -0.265  -0.271
    1UNL     H7   44   0.238  -0.101   0.184
    1UNL     H8   45   0.085   0.211   0.011
    1UNL     H9   46   0.161   0.146   0.151
    1UNL    H10   47   0.404   0.136  -0.185
    1UNL    H11   48   0.550   0.140  -0.426
    1UNL    H12   49   0.893  -0.053  -0.194
    1UNL    H13   50   0.800  -0.152   0.085
    1UNL    H14   51   0.578  -0.062   0.133
    1UNL    H15   52   0.158  -0.023  -0.182
    1UNL    H16   53  -0.132  -0.121  -0.158
    1UNL    H17   54  -0.102   0.059  -0.145
    1UNL    H18   55  -0.325  -0.035   0.095
    1UNL    H19   56  -0.456   0.199  -0.170
    1UNL    H20   57  -0.468  -0.081  -0.079
    1UNL    H21   58  -0.423  -0.011  -0.240
    1UNL    H22   59  -0.651   0.086  -0.232
    1UNL    H23   60  -0.610   0.247   0.000
    1UNL    H24   61  -0.660   0.029   0.022
    1UNL    H25   62  -0.509   0.305   0.206
    1UNL    H26   63  -0.307   0.297   0.008
    1UNL    H27   64  -0.282   0.206   0.269
    1UNL    H28   65  -0.500   0.023   0.263
   0.00000   0.00000   0.00000   0.00000   0.00000   0.00000   0.00000   0.00000   0.00000
Generated with MDTraj, t= 45.0
 65
    1UNL     C1    1  -0.187  -0.251   0.169
    1UNL     C2    2  -0.059  -0.205   0.101
    1UNL     C3    3  -0.033  -0.288  -0.029
    1UNL     C4    4   0.091  -0.216  -0.099
    1UNL     O1    5   0.130  -0.288  -0.215
    1UNL     O2    6   0.192  -0.215   0.003
    1UNL     C5    7   0.150  -0.127   0.105
    1UNL     O3    8   0.057  -0.200   0.183
    1UNL     C6    9   0.079  -0.008   0.033
    1UNL     C7   10   0.139   0.135   0.039
    1UNL     O4   11   0.257   0.145  -0.048
    1UNL     C8   12   0.363   0.087   0.023
    1UNL     O5   13   0.353   0.065   0.144
    1UNL     C9   14   0.486   0.069  -0.050
    1UNL    C10   15   0.518   0.119  -0.174
    1UNL    C11   16   0.630   0.070  -0.240
    1UNL     O6   17   0.667   0.108  -0.367
    1UNL    C12   18   0.720  -0.008  -0.165
    1UNL     O7   19   0.844  -0.045  -0.221
    1UNL    C13   20   0.698  -0.043  -0.033
    1UNL     O8   21   0.800  -0.107   0.037
    1UNL    C14   22   0.582  -0.004   0.026
    1UNL    C15   23   0.059  -0.064  -0.112
    1UNL    C16   24  -0.089  -0.033  -0.102
    1UNL    C17   25  -0.070  -0.046   0.055
    1UNL     O9   26  -0.144   0.045   0.133
    1UNL    C18   27  -0.284   0.054   0.095
    1UNL    O10   28  -0.297   0.119  -0.034
    1UNL    C19   29  -0.433   0.117  -0.075
    1UNL    C20   30  -0.483  -0.019  -0.129
    1UNL    O11   31  -0.619  -0.008  -0.172
    1UNL    C21   32  -0.530   0.178   0.034
    1UNL    O12   33  -0.596   0.072   0.101
    1UNL    C22   34  -0.445   0.252   0.141
    1UNL    O13   35  -0.381   0.364   0.079
    1UNL    C23   36  -0.344   0.153   0.200
    1UNL    O14   37  -0.401   0.082   0.309
    1UNL     H1   38  -0.276  -0.241   0.113
    1UNL     H2   39  -0.193  -0.190   0.263
    1UNL     H3   40  -0.177  -0.353   0.196
    1UNL     H4   41   0.002  -0.395  -0.018
    1UNL     H5   42  -0.125  -0.290  -0.092
    1UNL     H6   43   0.058  -0.284  -0.277
    1UNL     H7   44   0.236  -0.099   0.169
    1UNL     H8   45   0.068   0.207   0.002
    1UNL     H9   46   0.174   0.163   0.132
    1UNL    H10   47   0.441   0.185  -0.224
    1UNL    H11   48   0.592   0.147  -0.418
    1UNL    H12   49   0.898  -0.105  -0.166
    1UNL    H13   50   0.769  -0.128   0.127
    1UNL    H14   51   0.557  -0.033   0.122
    1UNL    H15   52   0.112  -0.022  -0.202
    1UNL    H16   53  -0.155  -0.106  -0.147
    1UNL    H17   54  -0.111   0.072  -0.132
    1UNL    H18   55  -0.328  -0.045   0.099
    1UNL    H19   56  -0.438   0.185  -0.163
    1UNL    H20   57  -0.470  -0.093  -0.046
    1UNL    H21   58  -0.410  -0.053  -0.203
    1UNL    H22   59  -0.621   0.064  -0.248
    1UNL    H23   60  -0.598   0.259   0.003
    1UNL    H24   61  -0.644   0.023   0.028
    1UNL    H25   62  -0.505   0.307   0.218
    1UNL    H26   63  -0.303   0.337   0.024
    1UNL    H27   64  -0.253   0.213   0.236
    1UNL    H28   65  -0.502   0.068   0.283
   0.00000   0.00000   0.00000   0.00000   0.00000   0.00000   0.00000   0.00000   0.00000
Generated with MDTraj, t= 46.0
 65
    1UNL     C1    1  -0.186  -0.236   0.179
    1UNL     C2    2  -0.065  -0.196   0.098
    1UNL     C3    3  -0.039  -0.287  -0.026
    1UNL     C4    4   0.077  -0.228  -0.112
    1UNL     O1    5   0.095  -0.301  -0.226
    1UNL     O2    6   0.195  -0.222  -0.026
    1UNL     C5    7   0.153  -0.131   0.076
    1UNL     O3    8   0.063  -0.192   0.169
    1UNL     C6    9   0.075  -0.023   0.000
    1UNL     C7   10   0.133   0.119   0.005
    1UNL     O4   11   0.256   0.133  -0.065
    1UNL     C8   12   0.361   0.092   0.017
    1UNL     O5   13   0.346   0.068   0.136
    1UNL     C9   14   0.491   0.069  -0.045
    1UNL    C10   15   0.514   0.088  -0.174
    1UNL    C11   16   0.643   0.071  -0.225
    1UNL     O6   17   0.669   0.118  -0.349
    1UNL    C12   18   0.736  -0.000  -0.152
    1UNL     O7   19   0.862  -0.033  -0.196
    1UNL    C13   20   0.707  -0.034  -0.018
    1UNL     O8   21   0.804  -0.104   0.057
    1UNL    C14   22   0.582   0.000   0.037
    1UNL    C15   23   0.041  -0.078  -0.144
    1UNL    C16   24  -0.108  -0.031  -0.114
    1UNL    C17   25  -0.080  -0.049   0.041
    1UNL     O9   26  -0.134   0.051   0.129
    1UNL    C18   27  -0.271   0.075   0.094
    1UNL    O10   28  -0.293   0.135  -0.038
    1UNL    C19   29  -0.431   0.131  -0.075
    1UNL    C20   30  -0.466  -0.015  -0.115
    1UNL    O11   31  -0.598  -0.039  -0.133
    1UNL    C21   32  -0.532   0.180   0.043
    1UNL    O12   33  -0.587   0.066   0.118
    1UNL    C22   34  -0.441   0.259   0.146
    1UNL    O13   35  -0.387   0.372   0.091
    1UNL    C23   36  -0.340   0.158   0.207
    1UNL    O14   37  -0.414   0.081   0.312
    1UNL     H1   38  -0.281  -0.246   0.127
    1UNL     H2   39  -0.199  -0.160   0.259
    1UNL     H3   40  -0.156  -0.323   0.223
    1UNL     H4   41  -0.003  -0.387  -0.011
    1UNL     H5   42  -0.144  -0.291  -0.079
    1UNL     H6   43   0.010  -0.313  -0.277
    1UNL     H7   44   0.245  -0.098   0.129
    1UNL     H8   45   0.063   0.185  -0.051
    1UNL     H9   46   0.152   0.157   0.102
    1UNL    H10   47   0.439   0.118  -0.244
    1UNL    H11   48   0.584   0.164  -0.380
    1UNL    H12   49   0.918  -0.065  -0.122
    1UNL    H13   50   0.763  -0.129   0.145
    1UNL    H14   51   0.540  -0.037   0.134
    1UNL    H15   52   0.098  -0.051  -0.237
    1UNL    H16   53  -0.192  -0.088  -0.147
    1UNL    H17   54  -0.118   0.079  -0.130
    1UNL    H18   55  -0.312  -0.025   0.094
    1UNL    H19   56  -0.441   0.192  -0.169
    1UNL    H20   57  -0.441  -0.082  -0.029
    1UNL    H21   58  -0.405  -0.063  -0.192
    1UNL    H22   59  -0.646   0.026  -0.193
    1UNL    H23   60  -0.616   0.236   0.001
    1UNL    H24   61  -0.657   0.036   0.059
    1UNL    H25   62  -0.509   0.281   0.232
    1UNL    H26   63  -0.333   0.341   0.010
    1UNL    H27   64  -0.258   0.210   0.268
    1UNL    H28   65  -0.487   0.046   0.268
   0.00000   0.00000   0.00000   0.00000   0.00000   0.00000   0.00000   0.00000   0.00000
Generated with MDTraj, t= 47.0
 65
    1UNL     C1    1  -0.181  -0.195   0.202
    1UNL     C2    2  -0.068  -0.183   0.098
    1UNL     C3    3  -0.062  -0.290  -0.016
    1UNL     C4    4   0.046  -0.245  -0.122
    1UNL     O1    5   0.054  -0.323  -0.241
    1UNL     O2    6   0.170  -0.248  -0.048
    1UNL     C5    7   0.152  -0.145   0.051
    1UNL     O3    8   0.058  -0.184   0.157
    1UNL     C6    9   0.081  -0.023  -0.022
    1UNL     C7   10   0.128   0.119  -0.017
    1UNL     O4   11   0.260   0.121  -0.070
    1UNL     C8   12   0.354   0.084   0.021
    1UNL     O5   13   0.337   0.082   0.139
    1UNL     C9   14   0.499   0.059  -0.028
    1UNL    C10   15   0.527   0.103  -0.156
    1UNL    C11   16   0.648   0.074  -0.214
    1UNL     O6   17   0.670   0.101  -0.347
    1UNL    C12   18   0.749   0.012  -0.137
    1UNL     O7   19   0.879   0.001  -0.177
    1UNL    C13   20   0.720  -0.031  -0.004
    1UNL     O8   21   0.822  -0.095   0.066
    1UNL    C14   22   0.594   0.002   0.050
    1UNL    C15   23   0.036  -0.091  -0.149
    1UNL    C16   24  -0.105  -0.032  -0.126
    1UNL    C17   25  -0.070  -0.033   0.024
    1UNL     O9   26  -0.123   0.074   0.095
    1UNL    C18   27  -0.264   0.075   0.081
    1UNL    O10   28  -0.305   0.137  -0.041
    1UNL    C19   29  -0.447   0.124  -0.058
    1UNL    C20   30  -0.483  -0.020  -0.106
    1UNL    O11   31  -0.611  -0.035  -0.150
    1UNL    C21   32  -0.531   0.170   0.066
    1UNL    O12   33  -0.598   0.065   0.137
    1UNL    C22   34  -0.436   0.247   0.163
    1UNL    O13   35  -0.383   0.357   0.090
    1UNL    C23   36  -0.317   0.155   0.206
    1UNL    O14   37  -0.368   0.076   0.312
    1UNL     H1   38  -0.270  -0.238   0.154
    1UNL     H2   39  -0.214  -0.113   0.266
    1UNL     H3   40  -0.144  -0.273   0.261
    1UNL     H4   41  -0.026  -0.383   0.025
    1UNL     H5   42  -0.167  -0.309  -0.061
    1UNL     H6   43  -0.031  -0.330  -0.299
    1UNL     H7   44   0.247  -0.110   0.097
    1UNL     H8   45   0.061   0.195  -0.068
    1UNL     H9   46   0.147   0.145   0.090
    1UNL    H10   47   0.454   0.156  -0.212
    1UNL    H11   48   0.582   0.133  -0.390
    1UNL    H12   49   0.926  -0.054  -0.109
    1UNL    H13   50   0.808  -0.136   0.159
    1UNL    H14   51   0.568  -0.038   0.144
    1UNL    H15   52   0.091  -0.078  -0.246
    1UNL    H16   53  -0.189  -0.094  -0.153
    1UNL    H17   54  -0.119   0.071  -0.158
    1UNL    H18   55  -0.296  -0.030   0.079
    1UNL    H19   56  -0.460   0.200  -0.137
    1UNL    H20   57  -0.457  -0.106  -0.039
    1UNL    H21   58  -0.422  -0.052  -0.192
    1UNL    H22   59  -0.636   0.042  -0.196
    1UNL    H23   60  -0.612   0.243   0.048
    1UNL    H24   61  -0.623  -0.005   0.071
    1UNL    H25   62  -0.499   0.296   0.242
    1UNL    H26   63  -0.335   0.329   0.014
    1UNL    H27   64  -0.233   0.219   0.249
    1UNL    H28   65  -0.460   0.051   0.274
   0.00000   0.00000   0.00000   0.00000   0.00000   0.00000   0.00000   0.00000   0.00000
Generated with MDTraj, t= 48.0
 65
    1UNL     C1    1  -0.179  -0.201   0.196
    1UNL     C2    2  -0.073  -0.186   0.090
    1UNL     C3    3  -0.075  -0.294  -0.014
    1UNL     C4    4   0.032  -0.254  -0.127
    1UNL     O1    5   0.034  -0.345  -0.238
    1UNL     O2    6   0.154  -0.258  -0.047
    1UNL     C5    7   0.140  -0.150   0.047
    1UNL     O3    8   0.057  -0.185   0.158
    1UNL     C6    9   0.074  -0.032  -0.031
    1UNL     C7   10   0.138   0.107  -0.027
    1UNL     O4   11   0.266   0.106  -0.087
    1UNL     C8   12   0.358   0.071   0.011
    1UNL     O5   13   0.334   0.059   0.126
    1UNL     C9   14   0.505   0.066  -0.031
    1UNL    C10   15   0.545   0.102  -0.163
    1UNL    C11   16   0.671   0.076  -0.208
    1UNL     O6   17   0.710   0.113  -0.338
    1UNL    C12   18   0.766   0.020  -0.121
    1UNL     O7   19   0.888  -0.018  -0.175
    1UNL    C13   20   0.737  -0.004   0.011
    1UNL     O8   21   0.840  -0.051   0.087
    1UNL    C14   22   0.603   0.018   0.050
    1UNL    C15   23   0.022  -0.097  -0.164
    1UNL    C16   24  -0.117  -0.039  -0.133
    1UNL    C17   25  -0.078  -0.041   0.016
    1UNL     O9   26  -0.123   0.082   0.078
    1UNL    C18   27  -0.263   0.092   0.079
    1UNL    O10   28  -0.319   0.131  -0.045
    1UNL    C19   29  -0.458   0.125  -0.055
    1UNL    C20   30  -0.500  -0.010  -0.114
    1UNL    O11   31  -0.642  -0.007  -0.117
    1UNL    C21   32  -0.531   0.161   0.076
    1UNL    O12   33  -0.585   0.049   0.142
    1UNL    C22   34  -0.440   0.247   0.166
    1UNL    O13   35  -0.394   0.374   0.104
    1UNL    C23   36  -0.316   0.165   0.205
    1UNL    O14   37  -0.348   0.069   0.307
    1UNL     H1   38  -0.280  -0.211   0.156
    1UNL     H2   39  -0.184  -0.116   0.256
    1UNL     H3   40  -0.157  -0.287   0.263
    1UNL     H4   41  -0.040  -0.391   0.030
    1UNL     H5   42  -0.173  -0.304  -0.050
    1UNL     H6   43  -0.059  -0.358  -0.284
    1UNL     H7   44   0.244  -0.123   0.079
    1UNL     H8   45   0.083   0.183  -0.092
    1UNL     H9   46   0.153   0.151   0.080
    1UNL    H10   47   0.469   0.140  -0.234
    1UNL    H11   48   0.633   0.162  -0.387
    1UNL    H12   49   0.958  -0.038  -0.110
    1UNL    H13   50   0.812  -0.053   0.186
    1UNL    H14   51   0.568  -0.016   0.150
    1UNL    H15   52   0.070  -0.077  -0.263
    1UNL    H16   53  -0.206  -0.100  -0.147
    1UNL    H17   54  -0.135   0.062  -0.160
    1UNL    H18   55  -0.292  -0.016   0.076
    1UNL    H19   56  -0.473   0.206  -0.127
    1UNL    H20   57  -0.461  -0.096  -0.056
    1UNL    H21   58  -0.458  -0.035  -0.214
    1UNL    H22   59  -0.671   0.058  -0.178
    1UNL    H23   60  -0.619   0.226   0.052
    1UNL    H24   61  -0.650   0.010   0.077
    1UNL    H25   62  -0.491   0.270   0.263
    1UNL    H26   63  -0.326   0.356   0.027
    1UNL    H27   64  -0.238   0.227   0.260
    1UNL    H28   65  -0.443   0.028   0.295
   0.00000   0.00000   0.00000   0.00000   0.00000   0.00000   0.00000   0.00000   0.00000
Generated with MDTraj, t= 49.0
 65
    1UNL     C1    1  -0.195  -0.217   0.183
    1UNL     C2    2  -0.086  -0.184   0.084
    1UNL     C3    3  -0.083  -0.297  -0.022
    1UNL     C4    4   0.042  -0.270  -0.122
    1UNL     O1    5   0.041  -0.353  -0.236
    1UNL     O2    6   0.165  -0.266  -0.044
    1UNL     C5    7   0.138  -0.162   0.047
    1UNL     O3    8   0.045  -0.190   0.145
    1UNL     C6    9   0.068  -0.046  -0.033
    1UNL     C7   10   0.142   0.087  -0.043
    1UNL     O4   11   0.272   0.079  -0.109
    1UNL     C8   12   0.368   0.060  -0.009
    1UNL     O5   13   0.338   0.050   0.105
    1UNL     C9   14   0.507   0.062  -0.047
    1UNL    C10   15   0.548   0.077  -0.181
    1UNL    C11   16   0.689   0.075  -0.213
    1UNL     O6   17   0.737   0.098  -0.341
    1UNL    C12   18   0.783   0.038  -0.114
    1UNL     O7   19   0.914   0.031  -0.147
    1UNL    C13   20   0.736   0.015   0.013
    1UNL     O8   21   0.826  -0.033   0.111
    1UNL    C14   22   0.605   0.027   0.046
    1UNL    C15   23   0.022  -0.114  -0.168
    1UNL    C16   24  -0.122  -0.054  -0.144
    1UNL    C17   25  -0.088  -0.043   0.010
    1UNL     O9   26  -0.134   0.075   0.084
    1UNL    C18   27  -0.274   0.092   0.085
    1UNL    O10   28  -0.329   0.146  -0.035
    1UNL    C19   29  -0.470   0.148  -0.042
    1UNL    C20   30  -0.510   0.021  -0.117
    1UNL    O11   31  -0.654  -0.006  -0.104
    1UNL    C21   32  -0.538   0.169   0.089
    1UNL    O12   33  -0.558   0.046   0.157
    1UNL    C22   34  -0.446   0.260   0.177
    1UNL    O13   35  -0.389   0.380   0.116
    1UNL    C23   36  -0.323   0.172   0.210
    1UNL    O14   37  -0.357   0.084   0.314
    1UNL     H1   38  -0.296  -0.218   0.147
    1UNL     H2   39  -0.196  -0.145   0.257
    1UNL     H3   40  -0.172  -0.315   0.239
    1UNL     H4   41  -0.067  -0.399   0.021
    1UNL     H5   42  -0.164  -0.295  -0.083
    1UNL     H6   43  -0.055  -0.354  -0.274
    1UNL     H7   44   0.234  -0.127   0.093
    1UNL     H8   45   0.089   0.173  -0.096
    1UNL     H9   46   0.170   0.124   0.065
    1UNL    H10   47   0.476   0.073  -0.257
    1UNL    H11   48   0.657   0.132  -0.398
    1UNL    H12   49   0.968  -0.008  -0.072
    1UNL    H13   50   0.768  -0.052   0.190
    1UNL    H14   51   0.570   0.025   0.147
    1UNL    H15   52   0.074  -0.075  -0.257
    1UNL    H16   53  -0.205  -0.117  -0.175
    1UNL    H17   54  -0.131   0.041  -0.186
    1UNL    H18   55  -0.315  -0.013   0.081
    1UNL    H19   56  -0.490   0.228  -0.112
    1UNL    H20   57  -0.453  -0.069  -0.090
    1UNL    H21   58  -0.475   0.035  -0.221
    1UNL    H22   59  -0.706   0.027  -0.184
    1UNL    H23   60  -0.644   0.204   0.072
    1UNL    H24   61  -0.601  -0.015   0.096
    1UNL    H25   62  -0.499   0.290   0.270
    1UNL    H26   63  -0.332   0.355   0.047
    1UNL    H27   64  -0.245   0.243   0.250
    1UNL    H28   65  -0.425   0.030   0.282
   0.00000   0.00000   0.00000   0.00000   0.00000   0.00000   0.00000   0.00000   0.00000
Generated with MDTraj, t= 50.0
 65
    1UNL     C1    1  -0.212  -0.208   0.181
    1UNL     C2    2  -0.098  -0.190   0.078
    1UNL     C3    3  -0.094  -0.304  -0.031
    1UNL     C4    4   0.031  -0.272  -0.126
    1UNL     O1    5   0.037  -0.351  -0.239
    1UNL     O2    6   0.147  -0.269  -0.039
    1UNL     C5    7   0.130  -0.157   0.049
    1UNL     O3    8   0.030  -0.191   0.147
    1UNL     C6    9   0.070  -0.042  -0.039
    1UNL     C7   10   0.142   0.091  -0.054
    1UNL     O4   11   0.268   0.071  -0.116
    1UNL     C8   12   0.359   0.051  -0.016
    1UNL     O5   13   0.329   0.048   0.099
    1UNL     C9   14   0.502   0.025  -0.059
    1UNL    C10   15   0.552   0.064  -0.183
    1UNL    C11   16   0.687   0.062  -0.218
    1UNL     O6   17   0.730   0.083  -0.344
    1UNL    C12   18   0.781   0.050  -0.108
    1UNL     O7   19   0.912   0.082  -0.128
    1UNL    C13   20   0.732   0.017   0.022
    1UNL     O8   21   0.822   0.016   0.129
    1UNL    C14   22   0.598   0.006   0.045
    1UNL    C15   23   0.018  -0.117  -0.167
    1UNL    C16   24  -0.123  -0.060  -0.145
    1UNL    C17   25  -0.081  -0.046   0.008
    1UNL     O9   26  -0.123   0.059   0.088
    1UNL    C18   27  -0.260   0.084   0.078
    1UNL    O10   28  -0.305   0.139  -0.043
    1UNL    C19   29  -0.454   0.144  -0.043
    1UNL    C20   30  -0.510   0.018  -0.112
    1UNL    O11   31  -0.650   0.019  -0.105
    1UNL    C21   32  -0.529   0.175   0.089
    1UNL    O12   33  -0.569   0.059   0.162
    1UNL    C22   34  -0.430   0.251   0.182
    1UNL    O13   35  -0.389   0.373   0.131
    1UNL    C23   36  -0.306   0.170   0.204
    1UNL    O14   37  -0.316   0.076   0.313
    1UNL     H1   38  -0.306  -0.199   0.131
    1UNL     H2   39  -0.208  -0.129   0.252
    1UNL     H3   40  -0.205  -0.301   0.243
    1UNL     H4   41  -0.066  -0.394   0.021
    1UNL     H5   42  -0.177  -0.318  -0.099
    1UNL     H6   43  -0.052  -0.342  -0.287
    1UNL     H7   44   0.218  -0.124   0.111
    1UNL     H8   45   0.075   0.168  -0.102
    1UNL     H9   46   0.171   0.140   0.051
    1UNL    H10   47   0.486   0.073  -0.272
    1UNL    H11   48   0.654   0.103  -0.414
    1UNL    H12   49   0.970   0.030  -0.070
    1UNL    H13   50   0.777  -0.005   0.213
    1UNL    H14   51   0.556  -0.019   0.141
    1UNL    H15   52   0.081  -0.081  -0.248
    1UNL    H16   53  -0.205  -0.128  -0.164
    1UNL    H17   54  -0.150   0.033  -0.186
    1UNL    H18   55  -0.319  -0.010   0.095
    1UNL    H19   56  -0.473   0.224  -0.113
    1UNL    H20   57  -0.469  -0.065  -0.057
    1UNL    H21   58  -0.473   0.002  -0.216
    1UNL    H22   59  -0.686   0.063  -0.194
    1UNL    H23   60  -0.622   0.235   0.086
    1UNL    H24   61  -0.638   0.011   0.105
    1UNL    H25   62  -0.480   0.277   0.277
    1UNL    H26   63  -0.330   0.357   0.048
    1UNL    H27   64  -0.224   0.240   0.230
    1UNL    H28   65  -0.416   0.042   0.320
   0.00000   0.00000   0.00000   0.00000   0.00000   0.00000   0.00000   0.00000   0.00000
Generated with MDTraj, t= 51.0
 65
    1UNL     C1    1  -0.193  -0.197   0.184
    1UNL     C2    2  -0.085  -0.201   0.074
    1UNL     C3    3  -0.089  -0.315  -0.028
    1UNL     C4    4   0.021  -0.284  -0.137
    1UNL     O1    5   0.015  -0.374  -0.249
    1UNL     O2    6   0.135  -0.286  -0.055
    1UNL     C5    7   0.138  -0.176   0.042
    1UNL     O3    8   0.047  -0.210   0.144
    1UNL     C6    9   0.067  -0.059  -0.046
    1UNL     C7   10   0.139   0.074  -0.054
    1UNL     O4   11   0.267   0.073  -0.106
    1UNL     C8   12   0.356   0.042  -0.003
    1UNL     O5   13   0.325   0.010   0.108
    1UNL     C9   14   0.502   0.049  -0.037
    1UNL    C10   15   0.540   0.053  -0.169
    1UNL    C11   16   0.671   0.070  -0.209
    1UNL     O6   17   0.707   0.079  -0.340
    1UNL    C12   18   0.772   0.065  -0.111
    1UNL     O7   19   0.906   0.062  -0.135
    1UNL    C13   20   0.732   0.063   0.029
    1UNL     O8   21   0.831   0.050   0.127
    1UNL    C14   22   0.597   0.043   0.061
    1UNL    C15   23   0.009  -0.127  -0.183
    1UNL    C16   24  -0.124  -0.061  -0.149
    1UNL    C17   25  -0.083  -0.063   0.002
    1UNL     O9   26  -0.127   0.055   0.078
    1UNL    C18   27  -0.260   0.091   0.076
    1UNL    O10   28  -0.300   0.169  -0.038
    1UNL    C19   29  -0.449   0.163  -0.047
    1UNL    C20   30  -0.498   0.032  -0.109
    1UNL    O11   31  -0.632   0.022  -0.099
    1UNL    C21   32  -0.521   0.184   0.091
    1UNL    O12   33  -0.568   0.068   0.166
    1UNL    C22   34  -0.409   0.261   0.181
    1UNL    O13   35  -0.374   0.377   0.113
    1UNL    C23   36  -0.294   0.162   0.215
    1UNL    O14   37  -0.340   0.067   0.313
    1UNL     H1   38  -0.289  -0.183   0.138
    1UNL     H2   39  -0.172  -0.106   0.245
    1UNL     H3   40  -0.189  -0.279   0.251
    1UNL     H4   41  -0.058  -0.403   0.014
    1UNL     H5   42  -0.187  -0.323  -0.086
    1UNL     H6   43  -0.063  -0.364  -0.306
    1UNL     H7   44   0.246  -0.160   0.068
    1UNL     H8   45   0.089   0.141  -0.125
    1UNL     H9   46   0.127   0.123   0.051
    1UNL    H10   47   0.461   0.064  -0.237
    1UNL    H11   48   0.624   0.093  -0.402
    1UNL    H12   49   0.955   0.079  -0.050
    1UNL    H13   50   0.801   0.054   0.217
    1UNL    H14   51   0.568   0.011   0.163
    1UNL    H15   52   0.057  -0.099  -0.275
    1UNL    H16   53  -0.209  -0.119  -0.180
    1UNL    H17   54  -0.132   0.042  -0.179
    1UNL    H18   55  -0.319  -0.004   0.061
    1UNL    H19   56  -0.479   0.236  -0.123
    1UNL    H20   57  -0.461  -0.055  -0.059
    1UNL    H21   58  -0.468   0.027  -0.216
    1UNL    H22   59  -0.681   0.072  -0.172
    1UNL    H23   60  -0.609   0.249   0.082
    1UNL    H24   61  -0.611   0.015   0.099
    1UNL    H25   62  -0.440   0.299   0.279
    1UNL    H26   63  -0.318   0.347   0.030
    1UNL    H27   64  -0.198   0.204   0.247
    1UNL    H28   65  -0.417   0.028   0.278
   0.00000   0.00000   0.00000   0.00000   0.00000   0.00000   0.00000   0.00000   0.00000
Generated with MDTraj, t= 52.0
 65
    1UNL     C1    1  -0.203  -0.226   0.197
    1UNL     C2    2  -0.091  -0.209   0.085
    1UNL     C3    3  -0.108  -0.317  -0.025
    1UNL     C4    4  -0.002  -0.288  -0.138
    1UNL     O1    5  -0.018  -0.370  -0.249
    1UNL     O2    6   0.130  -0.300  -0.074
    1UNL     C5    7   0.142  -0.193   0.021
    1UNL     O3    8   0.044  -0.223   0.130
    1UNL     C6    9   0.060  -0.071  -0.046
    1UNL     C7   10   0.131   0.062  -0.044
    1UNL     O4   11   0.263   0.060  -0.089
    1UNL     C8   12   0.360   0.048   0.012
    1UNL     O5   13   0.330   0.046   0.129
    1UNL     C9   14   0.499   0.058  -0.032
    1UNL    C10   15   0.532   0.063  -0.167
    1UNL    C11   16   0.664   0.071  -0.205
    1UNL     O6   17   0.701   0.067  -0.340
    1UNL    C12   18   0.764   0.082  -0.105
    1UNL     O7   19   0.900   0.069  -0.139
    1UNL    C13   20   0.737   0.077   0.029
    1UNL     O8   21   0.844   0.074   0.118
    1UNL    C14   22   0.595   0.082   0.066
    1UNL    C15   23  -0.001  -0.132  -0.177
    1UNL    C16   24  -0.129  -0.053  -0.142
    1UNL    C17   25  -0.089  -0.068   0.009
    1UNL     O9   26  -0.116   0.042   0.088
    1UNL    C18   27  -0.251   0.073   0.073
    1UNL    O10   28  -0.288   0.147  -0.045
    1UNL    C19   29  -0.436   0.152  -0.056
    1UNL    C20   30  -0.499   0.021  -0.117
    1UNL    O11   31  -0.643   0.031  -0.116
    1UNL    C21   32  -0.498   0.204   0.078
    1UNL    O12   33  -0.555   0.092   0.144
    1UNL    C22   34  -0.385   0.259   0.175
    1UNL    O13   35  -0.333   0.382   0.137
    1UNL    C23   36  -0.285   0.148   0.207
    1UNL    O14   37  -0.339   0.068   0.313
    1UNL     H1   38  -0.296  -0.207   0.146
    1UNL     H2   39  -0.195  -0.150   0.280
    1UNL     H3   40  -0.202  -0.318   0.240
    1UNL     H4   41  -0.076  -0.405   0.018
    1UNL     H5   42  -0.208  -0.326  -0.080
    1UNL     H6   43  -0.101  -0.360  -0.294
    1UNL     H7   44   0.247  -0.170   0.054
    1UNL     H8   45   0.070   0.131  -0.095
    1UNL     H9   46   0.130   0.097   0.061
    1UNL    H10   47   0.453   0.064  -0.244
    1UNL    H11   48   0.611   0.053  -0.389
    1UNL    H12   49   0.963   0.060  -0.063
    1UNL    H13   50   0.812   0.074   0.206
    1UNL    H14   51   0.570   0.094   0.164
    1UNL    H15   52   0.046  -0.110  -0.271
    1UNL    H16   53  -0.221  -0.107  -0.156
    1UNL    H17   54  -0.114   0.049  -0.182
    1UNL    H18   55  -0.320  -0.017   0.067
    1UNL    H19   56  -0.454   0.227  -0.137
    1UNL    H20   57  -0.474  -0.060  -0.055
    1UNL    H21   58  -0.468  -0.000  -0.221
    1UNL    H22   59  -0.679   0.080  -0.188
    1UNL    H23   60  -0.577   0.279   0.071
    1UNL    H24   61  -0.634   0.065   0.088
    1UNL    H25   62  -0.431   0.292   0.269
    1UNL    H26   63  -0.291   0.373   0.055
    1UNL    H27   64  -0.201   0.195   0.254
    1UNL    H28   65  -0.440   0.072   0.312
   0.00000   0.00000   0.00000   0.00000   0.00000   0.00000   0.00000   0.00000   0.00000
Generated with MDTraj, t= 53.0
 65
    1UNL     C1    1  -0.201  -0.254   0.184
    1UNL     C2    2  -0.098  -0.229   0.080
    1UNL     C3    3  -0.108  -0.330  -0.039
    1UNL     C4    4  -0.002  -0.292  -0.147
    1UNL     O1    5  -0.004  -0.371  -0.264
    1UNL     O2    6   0.125  -0.311  -0.075
    1UNL     C5    7   0.138  -0.207   0.027
    1UNL     O3    8   0.044  -0.257   0.131
    1UNL     C6    9   0.059  -0.083  -0.037
    1UNL     C7   10   0.130   0.050  -0.036
    1UNL     O4   11   0.257   0.043  -0.089
    1UNL     C8   12   0.350   0.066   0.005
    1UNL     O5   13   0.330   0.093   0.122
    1UNL     C9   14   0.496   0.065  -0.035
    1UNL    C10   15   0.527   0.057  -0.168
    1UNL    C11   16   0.662   0.071  -0.205
    1UNL     O6   17   0.706   0.052  -0.339
    1UNL    C12   18   0.763   0.088  -0.110
    1UNL     O7   19   0.897   0.092  -0.142
    1UNL    C13   20   0.729   0.085   0.026
    1UNL     O8   21   0.835   0.107   0.106
    1UNL    C14   22   0.598   0.061   0.063
    1UNL    C15   23  -0.003  -0.133  -0.173
    1UNL    C16   24  -0.133  -0.064  -0.130
    1UNL    C17   25  -0.087  -0.082   0.018
    1UNL     O9   26  -0.106   0.028   0.110
    1UNL    C18   27  -0.245   0.070   0.099
    1UNL    O10   28  -0.275   0.134  -0.027
    1UNL    C19   29  -0.417   0.161  -0.042
    1UNL    C20   30  -0.486   0.043  -0.104
    1UNL    O11   31  -0.628   0.062  -0.144
    1UNL    C21   32  -0.495   0.215   0.079
    1UNL    O12   33  -0.579   0.119   0.153
    1UNL    C22   34  -0.388   0.272   0.173
    1UNL    O13   35  -0.312   0.368   0.106
    1UNL    C23   36  -0.302   0.154   0.223
    1UNL    O14   37  -0.368   0.077   0.317
    1UNL     H1   38  -0.298  -0.252   0.137
    1UNL     H2   39  -0.202  -0.181   0.268
    1UNL     H3   40  -0.183  -0.348   0.229
    1UNL     H4   41  -0.078  -0.437  -0.019
    1UNL     H5   42  -0.207  -0.324  -0.083
    1UNL     H6   43  -0.083  -0.353  -0.311
    1UNL     H7   44   0.243  -0.196   0.062
    1UNL     H8   45   0.080   0.117  -0.097
    1UNL     H9   46   0.128   0.094   0.061
    1UNL    H10   47   0.458   0.032  -0.244
    1UNL    H11   48   0.628   0.026  -0.397
    1UNL    H12   49   0.956   0.083  -0.065
    1UNL    H13   50   0.813   0.110   0.199
    1UNL    H14   51   0.565   0.076   0.174
    1UNL    H15   52   0.062  -0.107  -0.255
    1UNL    H16   53  -0.226  -0.115  -0.144
    1UNL    H17   54  -0.138   0.043  -0.160
    1UNL    H18   55  -0.305  -0.026   0.088
    1UNL    H19   56  -0.410   0.250  -0.109
    1UNL    H20   57  -0.485  -0.034  -0.035
    1UNL    H21   58  -0.427   0.015  -0.193
    1UNL    H22   59  -0.629   0.137  -0.200
    1UNL    H23   60  -0.567   0.293   0.056
    1UNL    H24   61  -0.632   0.079   0.084
    1UNL    H25   62  -0.440   0.320   0.255
    1UNL    H26   63  -0.250   0.328   0.042
    1UNL    H27   64  -0.217   0.193   0.274
    1UNL    H28   65  -0.456   0.056   0.274
   0.00000   0.00000   0.00000   0.00000   0.00000   0.00000   0.00000   0.00000   0.00000
Generated with MDTraj, t= 54.0
 65
    1UNL     C1    1  -0.204  -0.283   0.179
    1UNL     C2    2  -0.095  -0.258   0.077
    1UNL     C3    3  -0.100  -0.348  -0.053
    1UNL     C4    4   0.016  -0.294  -0.149
    1UNL     O1    5   0.011  -0.363  -0.281
    1UNL     O2    6   0.135  -0.303  -0.065
    1UNL     C5    7   0.127  -0.207   0.047
    1UNL     O3    8   0.032  -0.267   0.135
    1UNL     C6    9   0.049  -0.087  -0.025
    1UNL     C7   10   0.125   0.046  -0.018
    1UNL     O4   11   0.253   0.038  -0.077
    1UNL     C8   12   0.350   0.070   0.007
    1UNL     O5   13   0.332   0.103   0.122
    1UNL     C9   14   0.495   0.066  -0.038
    1UNL    C10   15   0.527   0.052  -0.172
    1UNL    C11   16   0.663   0.059  -0.211
    1UNL     O6   17   0.705   0.039  -0.344
    1UNL    C12   18   0.766   0.090  -0.118
    1UNL     O7   19   0.898   0.095  -0.147
    1UNL    C13   20   0.725   0.115   0.016
    1UNL     O8   21   0.831   0.120   0.105
    1UNL    C14   22   0.595   0.109   0.054
    1UNL    C15   23  -0.009  -0.136  -0.162
    1UNL    C16   24  -0.148  -0.091  -0.117
    1UNL    C17   25  -0.100  -0.102   0.028
    1UNL     O9   26  -0.138  -0.006   0.120
    1UNL    C18   27  -0.270   0.055   0.100
    1UNL    O10   28  -0.283   0.123  -0.023
    1UNL    C19   29  -0.405   0.173  -0.058
    1UNL    C20   30  -0.483   0.057  -0.119
    1UNL    O11   31  -0.620   0.090  -0.125
    1UNL    C21   32  -0.477   0.232   0.063
    1UNL    O12   33  -0.576   0.152   0.125
    1UNL    C22   34  -0.375   0.274   0.172
    1UNL    O13   35  -0.281   0.364   0.125
    1UNL    C23   36  -0.297   0.152   0.225
    1UNL    O14   37  -0.367   0.078   0.317
    1UNL     H1   38  -0.307  -0.291   0.150
    1UNL     H2   39  -0.200  -0.203   0.252
    1UNL     H3   40  -0.171  -0.360   0.251
    1UNL     H4   41  -0.078  -0.461  -0.025
    1UNL     H5   42  -0.191  -0.351  -0.106
    1UNL     H6   43  -0.059  -0.336  -0.340
    1UNL     H7   44   0.223  -0.183   0.093
    1UNL     H8   45   0.080   0.122  -0.070
    1UNL     H9   46   0.134   0.084   0.079
    1UNL    H10   47   0.454   0.027  -0.249
    1UNL    H11   48   0.629   0.023  -0.405
    1UNL    H12   49   0.948   0.109  -0.062
    1UNL    H13   50   0.809   0.133   0.200
    1UNL    H14   51   0.561   0.123   0.148
    1UNL    H15   52   0.029  -0.090  -0.251
    1UNL    H16   53  -0.227  -0.159  -0.146
    1UNL    H17   54  -0.179   0.011  -0.149
    1UNL    H18   55  -0.351  -0.024   0.102
    1UNL    H19   56  -0.389   0.253  -0.133
    1UNL    H20   57  -0.478  -0.031  -0.066
    1UNL    H21   58  -0.451   0.035  -0.221
    1UNL    H22   59  -0.634   0.166  -0.190
    1UNL    H23   60  -0.530   0.322   0.028
    1UNL    H24   61  -0.619   0.106   0.047
    1UNL    H25   62  -0.431   0.314   0.256
    1UNL    H26   63  -0.207   0.325   0.064
    1UNL    H27   64  -0.207   0.178   0.273
    1UNL    H28   65  -0.455   0.077   0.285
   0.00000   0.00000   0.00000   0.00000   0.00000   0.00000   0.00000   0.00000   0.00000
Generated with MDTraj, t= 55.0
 65
    1UNL     C1    1  -0.213  -0.290   0.166
    1UNL     C2    2  -0.102  -0.253   0.068
    1UNL     C3    3  -0.093  -0.349  -0.055
    1UNL     C4    4   0.030  -0.309  -0.146
    1UNL     O1    5   0.027  -0.373  -0.270
    1UNL     O2    6   0.156  -0.324  -0.066
    1UNL     C5    7   0.135  -0.233   0.044
    1UNL     O3    8   0.035  -0.279   0.130
    1UNL     C6    9   0.064  -0.099  -0.018
    1UNL     C7   10   0.123   0.039  -0.004
    1UNL     O4   11   0.249   0.057  -0.068
    1UNL     C8   12   0.346   0.086   0.021
    1UNL     O5   13   0.327   0.100   0.139
    1UNL     C9   14   0.480   0.085  -0.028
    1UNL    C10   15   0.513   0.048  -0.166
    1UNL    C11   16   0.640   0.053  -0.216
    1UNL     O6   17   0.667   0.017  -0.348
    1UNL    C12   18   0.741   0.088  -0.123
    1UNL     O7   19   0.877   0.081  -0.154
    1UNL    C13   20   0.712   0.130   0.009
    1UNL     O8   21   0.821   0.161   0.099
    1UNL    C14   22   0.581   0.124   0.056
    1UNL    C15   23   0.020  -0.148  -0.158
    1UNL    C16   24  -0.127  -0.095  -0.126
    1UNL    C17   25  -0.093  -0.104   0.027
    1UNL     O9   26  -0.134  -0.006   0.114
    1UNL    C18   27  -0.265   0.050   0.093
    1UNL    O10   28  -0.273   0.118  -0.025
    1UNL    C19   29  -0.400   0.179  -0.048
    1UNL    C20   30  -0.497   0.071  -0.109
    1UNL    O11   31  -0.614   0.131  -0.147
    1UNL    C21   32  -0.472   0.246   0.074
    1UNL    O12   33  -0.574   0.160   0.121
    1UNL    C22   34  -0.351   0.278   0.178
    1UNL    O13   35  -0.235   0.359   0.128
    1UNL    C23   36  -0.304   0.138   0.220
    1UNL    O14   37  -0.387   0.069   0.313
    1UNL     H1   38  -0.304  -0.257   0.119
    1UNL     H2   39  -0.211  -0.250   0.262
    1UNL     H3   40  -0.216  -0.401   0.191
    1UNL     H4   41  -0.071  -0.451  -0.008
    1UNL     H5   42  -0.188  -0.358  -0.106
    1UNL     H6   43  -0.045  -0.338  -0.326
    1UNL     H7   44   0.221  -0.227   0.110
    1UNL     H8   45   0.066   0.115  -0.047
    1UNL     H9   46   0.135   0.069   0.096
    1UNL    H10   47   0.437   0.019  -0.236
    1UNL    H11   48   0.585   0.028  -0.397
    1UNL    H12   49   0.927   0.103  -0.073
    1UNL    H13   50   0.775   0.198   0.182
    1UNL    H14   51   0.552   0.128   0.166
    1UNL    H15   52   0.080  -0.109  -0.239
    1UNL    H16   53  -0.204  -0.170  -0.157
    1UNL    H17   54  -0.148   0.006  -0.164
    1UNL    H18   55  -0.345  -0.030   0.089
    1UNL    H19   56  -0.381   0.256  -0.123
    1UNL    H20   57  -0.526  -0.000  -0.043
    1UNL    H21   58  -0.460   0.013  -0.194
    1UNL    H22   59  -0.599   0.187  -0.235
    1UNL    H23   60  -0.516   0.347   0.055
    1UNL    H24   61  -0.644   0.157   0.055
    1UNL    H25   62  -0.390   0.335   0.262
    1UNL    H26   63  -0.201   0.327   0.049
    1UNL    H27   64  -0.214   0.156   0.272
    1UNL    H28   65  -0.479   0.049   0.266
   0.00000   0.00000   0.00000   0.00000   0.00000   0.00000   0.00000   0.00000   0.00000
Generated with MDTraj, t= 56.0
 65
    1UNL     C1    1  -0.223  -0.302   0.150
    1UNL     C2    2  -0.099  -0.271   0.069
    1UNL     C3    3  -0.085  -0.361  -0.049
    1UNL     C4    4   0.036  -0.307  -0.137
    1UNL     O1    5   0.049  -0.381  -0.265
    1UNL     O2    6   0.150  -0.308  -0.057
    1UNL     C5    7   0.129  -0.221   0.052
    1UNL     O3    8   0.030  -0.283   0.140
    1UNL     C6    9   0.058  -0.098  -0.016
    1UNL     C7   10   0.118   0.042  -0.002
    1UNL     O4   11   0.250   0.059  -0.058
    1UNL     C8   12   0.342   0.083   0.041
    1UNL     O5   13   0.317   0.104   0.160
    1UNL     C9   14   0.478   0.091  -0.011
    1UNL    C10   15   0.492   0.048  -0.148
    1UNL    C11   16   0.618   0.050  -0.208
    1UNL     O6   17   0.640  -0.011  -0.328
    1UNL    C12   18   0.727   0.095  -0.134
    1UNL     O7   19   0.857   0.097  -0.182
    1UNL    C13   20   0.712   0.131   0.002
    1UNL     O8   21   0.820   0.186   0.072
    1UNL    C14   22   0.586   0.131   0.062
    1UNL    C15   23   0.015  -0.150  -0.158
    1UNL    C16   24  -0.126  -0.094  -0.138
    1UNL    C17   25  -0.099  -0.116   0.013
    1UNL     O9   26  -0.129  -0.018   0.107
    1UNL    C18   27  -0.261   0.041   0.088
    1UNL    O10   28  -0.266   0.118  -0.035
    1UNL    C19   29  -0.389   0.191  -0.058
    1UNL    C20   30  -0.486   0.083  -0.116
    1UNL    O11   31  -0.610   0.145  -0.142
    1UNL    C21   32  -0.447   0.271   0.069
    1UNL    O12   33  -0.555   0.200   0.117
    1UNL    C22   34  -0.335   0.266   0.190
    1UNL    O13   35  -0.224   0.328   0.141
    1UNL    C23   36  -0.291   0.116   0.224
    1UNL    O14   37  -0.399   0.047   0.282
    1UNL     H1   38  -0.315  -0.290   0.094
    1UNL     H2   39  -0.222  -0.241   0.233
    1UNL     H3   40  -0.207  -0.403   0.199
    1UNL     H4   41  -0.067  -0.462  -0.014
    1UNL     H5   42  -0.175  -0.373  -0.118
    1UNL     H6   43  -0.025  -0.351  -0.328
    1UNL     H7   44   0.222  -0.194   0.099
    1UNL     H8   45   0.062   0.116  -0.053
    1UNL     H9   46   0.123   0.079   0.100
    1UNL    H10   47   0.403   0.021  -0.203
    1UNL    H11   48   0.559  -0.028  -0.374
    1UNL    H12   49   0.919   0.093  -0.107
    1UNL    H13   50   0.786   0.226   0.160
    1UNL    H14   51   0.574   0.170   0.162
    1UNL    H15   52   0.083  -0.117  -0.236
    1UNL    H16   53  -0.202  -0.160  -0.191
    1UNL    H17   54  -0.137   0.013  -0.161
    1UNL    H18   55  -0.328  -0.046   0.070
    1UNL    H19   56  -0.362   0.256  -0.140
    1UNL    H20   57  -0.497   0.003  -0.054
    1UNL    H21   58  -0.442   0.039  -0.206
    1UNL    H22   59  -0.587   0.217  -0.209
    1UNL    H23   60  -0.472   0.378   0.046
    1UNL    H24   61  -0.619   0.194   0.041
    1UNL    H25   62  -0.381   0.310   0.280
    1UNL    H26   63  -0.191   0.258   0.069
    1UNL    H27   64  -0.206   0.110   0.289
    1UNL    H28   65  -0.479   0.080   0.242
   0.00000   0.00000   0.00000   0.00000   0.00000   0.00000   0.00000   0.00000   0.00000
Generated with MDTraj, t= 57.0
 65
    1UNL     C1    1  -0.208  -0.312   0.162
    1UNL     C2    2  -0.097  -0.281   0.065
    1UNL     C3    3  -0.068  -0.368  -0.062
    1UNL     C4    4   0.049  -0.304  -0.148
    1UNL     O1    5   0.070  -0.370  -0.268
    1UNL     O2    6   0.161  -0.313  -0.051
    1UNL     C5    7   0.129  -0.225   0.063
    1UNL     O3    8   0.027  -0.295   0.137
    1UNL     C6    9   0.058  -0.104  -0.009
    1UNL     C7   10   0.111   0.038   0.015
    1UNL     O4   11   0.239   0.046  -0.048
    1UNL     C8   12   0.334   0.074   0.043
    1UNL     O5   13   0.318   0.109   0.162
    1UNL     C9   14   0.471   0.078  -0.018
    1UNL    C10   15   0.495   0.018  -0.137
    1UNL    C11   16   0.620   0.030  -0.204
    1UNL     O6   17   0.645  -0.016  -0.330
    1UNL    C12   18   0.724   0.104  -0.138
    1UNL     O7   19   0.845   0.107  -0.200
    1UNL    C13   20   0.700   0.152  -0.007
    1UNL     O8   21   0.810   0.199   0.056
    1UNL    C14   22   0.572   0.143   0.049
    1UNL    C15   23   0.026  -0.146  -0.154
    1UNL    C16   24  -0.122  -0.092  -0.128
    1UNL    C17   25  -0.093  -0.132   0.021
    1UNL     O9   26  -0.135  -0.039   0.117
    1UNL    C18   27  -0.263   0.023   0.090
    1UNL    O10   28  -0.251   0.113  -0.025
    1UNL    C19   29  -0.376   0.193  -0.054
    1UNL    C20   30  -0.483   0.102  -0.117
    1UNL    O11   31  -0.606   0.168  -0.163
    1UNL    C21   32  -0.435   0.279   0.071
    1UNL    O12   33  -0.570   0.254   0.110
    1UNL    C22   34  -0.332   0.258   0.188
    1UNL    O13   35  -0.216   0.337   0.160
    1UNL    C23   36  -0.313   0.101   0.216
    1UNL    O14   37  -0.437   0.044   0.274
    1UNL     H1   38  -0.296  -0.322   0.100
    1UNL     H2   39  -0.220  -0.235   0.237
    1UNL     H3   40  -0.178  -0.402   0.216
    1UNL     H4   41  -0.031  -0.462  -0.035
    1UNL     H5   42  -0.161  -0.400  -0.125
    1UNL     H6   43  -0.019  -0.377  -0.320
    1UNL     H7   44   0.220  -0.202   0.118
    1UNL     H8   45   0.043   0.115  -0.026
    1UNL     H9   46   0.121   0.070   0.122
    1UNL    H10   47   0.418  -0.041  -0.182
    1UNL    H11   48   0.574  -0.049  -0.379
    1UNL    H12   49   0.907   0.159  -0.143
    1UNL    H13   50   0.790   0.251   0.142
    1UNL    H14   51   0.549   0.189   0.140
    1UNL    H15   52   0.082  -0.102  -0.236
    1UNL    H16   53  -0.217  -0.144  -0.166
    1UNL    H17   54  -0.132   0.016  -0.152
    1UNL    H18   55  -0.334  -0.060   0.066
    1UNL    H19   56  -0.346   0.256  -0.136
    1UNL    H20   57  -0.513   0.038  -0.042
    1UNL    H21   58  -0.445   0.032  -0.195
    1UNL    H22   59  -0.593   0.249  -0.209
    1UNL    H23   60  -0.424   0.387   0.047
    1UNL    H24   61  -0.626   0.234   0.032
    1UNL    H25   62  -0.372   0.309   0.278
    1UNL    H26   63  -0.154   0.297   0.100
    1UNL    H27   64  -0.237   0.106   0.294
    1UNL    H28   65  -0.507   0.084   0.229
   0.00000   0.00000   0.00000   0.00000   0.00000   0.00000   0.00000   0.00000   0.00000
Generated with MDTraj, t= 58.0
 65
    1UNL     C1    1  -0.213  -0.338   0.158
    1UNL     C2    2  -0.099  -0.287   0.068
    1UNL     C3    3  -0.068  -0.371  -0.058
    1UNL     C4    4   0.054  -0.302  -0.139
    1UNL     O1    5   0.067  -0.356  -0.276
    1UNL     O2    6   0.168  -0.306  -0.050
    1UNL     C5    7   0.131  -0.229   0.069
    1UNL     O3    8   0.025  -0.298   0.139
    1UNL     C6    9   0.053  -0.106   0.011
    1UNL     C7   10   0.107   0.036   0.022
    1UNL     O4   11   0.229   0.047  -0.049
    1UNL     C8   12   0.339   0.074   0.034
    1UNL     O5   13   0.328   0.088   0.158
    1UNL     C9   14   0.472   0.082  -0.029
    1UNL    C10   15   0.492   0.034  -0.151
    1UNL    C11   16   0.624   0.030  -0.208
    1UNL     O6   17   0.657  -0.033  -0.331
    1UNL    C12   18   0.729   0.101  -0.143
    1UNL     O7   19   0.854   0.110  -0.197
    1UNL    C13   20   0.705   0.170  -0.023
    1UNL     O8   21   0.809   0.233   0.042
    1UNL    C14   22   0.578   0.147   0.032
    1UNL    C15   23   0.025  -0.145  -0.141
    1UNL    C16   24  -0.123  -0.100  -0.111
    1UNL    C17   25  -0.107  -0.135   0.036
    1UNL     O9   26  -0.160  -0.048   0.135
    1UNL    C18   27  -0.278   0.017   0.094
    1UNL    O10   28  -0.253   0.113  -0.010
    1UNL    C19   29  -0.369   0.193  -0.056
    1UNL    C20   30  -0.479   0.116  -0.114
    1UNL    O11   31  -0.582   0.187  -0.178
    1UNL    C21   32  -0.414   0.278   0.067
    1UNL    O12   33  -0.551   0.267   0.092
    1UNL    C22   34  -0.330   0.248   0.198
    1UNL    O13   35  -0.208   0.304   0.185
    1UNL    C23   36  -0.334   0.091   0.220
    1UNL    O14   37  -0.476   0.062   0.246
    1UNL     H1   38  -0.312  -0.314   0.122
    1UNL     H2   39  -0.209  -0.304   0.265
    1UNL     H3   40  -0.196  -0.441   0.166
    1UNL     H4   41  -0.031  -0.467  -0.032
    1UNL     H5   42  -0.152  -0.397  -0.125
    1UNL     H6   43  -0.030  -0.369  -0.310
    1UNL     H7   44   0.211  -0.203   0.141
    1UNL     H8   45   0.024   0.111  -0.005
    1UNL     H9   46   0.128   0.062   0.132
    1UNL    H10   47   0.410  -0.019  -0.199
    1UNL    H11   48   0.589  -0.087  -0.362
    1UNL    H12   49   0.913   0.164  -0.142
    1UNL    H13   50   0.779   0.296   0.113
    1UNL    H14   51   0.564   0.199   0.133
    1UNL    H15   52   0.084  -0.097  -0.220
    1UNL    H16   53  -0.211  -0.158  -0.150
    1UNL    H17   54  -0.126   0.013  -0.123
    1UNL    H18   55  -0.345  -0.065   0.059
    1UNL    H19   56  -0.326   0.255  -0.136
    1UNL    H20   57  -0.528   0.060  -0.040
    1UNL    H21   58  -0.441   0.040  -0.188
    1UNL    H22   59  -0.552   0.231  -0.258
    1UNL    H23   60  -0.398   0.385   0.051
    1UNL    H24   61  -0.611   0.268   0.013
    1UNL    H25   62  -0.390   0.294   0.280
    1UNL    H26   63  -0.149   0.247   0.138
    1UNL    H27   64  -0.285   0.059   0.315
    1UNL    H28   65  -0.542   0.134   0.207
   0.00000   0.00000   0.00000   0.00000   0.00000   0.00000   0.00000   0.00000   0.00000
Generated with MDTraj, t= 59.0
 65
    1UNL     C1    1  -0.216  -0.338   0.152
    1UNL     C2    2  -0.095  -0.294   0.076
    1UNL     C3    3  -0.071  -0.368  -0.046
    1UNL     C4    4   0.045  -0.298  -0.131
    1UNL     O1    5   0.058  -0.353  -0.259
    1UNL     O2    6   0.159  -0.305  -0.044
    1UNL     C5    7   0.124  -0.224   0.069
    1UNL     O3    8   0.032  -0.302   0.153
    1UNL     C6    9   0.050  -0.105   0.011
    1UNL     C7   10   0.111   0.033   0.027
    1UNL     O4   11   0.222   0.050  -0.046
    1UNL     C8   12   0.338   0.077   0.036
    1UNL     O5   13   0.337   0.081   0.160
    1UNL     C9   14   0.469   0.088  -0.033
    1UNL    C10   15   0.500   0.027  -0.156
    1UNL    C11   16   0.624   0.032  -0.216
    1UNL     O6   17   0.644  -0.042  -0.333
    1UNL    C12   18   0.723   0.102  -0.147
    1UNL     O7   19   0.855   0.117  -0.198
    1UNL    C13   20   0.696   0.168  -0.027
    1UNL     O8   21   0.792   0.252   0.027
    1UNL    C14   22   0.566   0.164   0.028
    1UNL    C15   23   0.022  -0.142  -0.134
    1UNL    C16   24  -0.127  -0.105  -0.122
    1UNL    C17   25  -0.103  -0.135   0.036
    1UNL     O9   26  -0.154  -0.046   0.135
    1UNL    C18   27  -0.272   0.025   0.093
    1UNL    O10   28  -0.240   0.113  -0.016
    1UNL    C19   29  -0.355   0.198  -0.050
    1UNL    C20   30  -0.467   0.124  -0.118
    1UNL    O11   31  -0.559   0.209  -0.178
    1UNL    C21   32  -0.392   0.280   0.075
    1UNL    O12   33  -0.532   0.274   0.078
    1UNL    C22   34  -0.336   0.237   0.208
    1UNL    O13   35  -0.197   0.265   0.214
    1UNL    C23   36  -0.362   0.083   0.213
    1UNL    O14   37  -0.498   0.041   0.214
    1UNL     H1   38  -0.307  -0.340   0.096
    1UNL     H2   39  -0.233  -0.270   0.240
    1UNL     H3   40  -0.198  -0.430   0.196
    1UNL     H4   41  -0.032  -0.467  -0.020
    1UNL     H5   42  -0.155  -0.386  -0.100
    1UNL     H6   43  -0.022  -0.348  -0.321
    1UNL     H7   44   0.214  -0.196   0.129
    1UNL     H8   45   0.032   0.113  -0.007
    1UNL     H9   46   0.122   0.055   0.140
    1UNL    H10   47   0.424  -0.038  -0.194
    1UNL    H11   48   0.571  -0.098  -0.339
    1UNL    H12   49   0.917   0.158  -0.132
    1UNL    H13   50   0.751   0.292   0.103
    1UNL    H14   51   0.550   0.202   0.120
    1UNL    H15   52   0.080  -0.080  -0.205
    1UNL    H16   53  -0.187  -0.181  -0.177
    1UNL    H17   54  -0.153   0.005  -0.142
    1UNL    H18   55  -0.321  -0.061   0.044
    1UNL    H19   56  -0.313   0.270  -0.126
    1UNL    H20   57  -0.516   0.058  -0.052
    1UNL    H21   58  -0.424   0.058  -0.201
    1UNL    H22   59  -0.534   0.215  -0.277
    1UNL    H23   60  -0.359   0.382   0.059
    1UNL    H24   61  -0.566   0.298  -0.013
    1UNL    H25   62  -0.382   0.282   0.299
    1UNL    H26   63  -0.145   0.203   0.147
    1UNL    H27   64  -0.311   0.060   0.313
    1UNL    H28   65  -0.546   0.113   0.170
   0.00000   0.00000   0.00000   0.00000   0.00000   0.00000   0.00000   0.00000   0.00000
Generated with MDTraj, t= 60.0
 65
    1UNL     C1    1  -0.203  -0.326   0.168
    1UNL     C2    2  -0.085  -0.290   0.074
    1UNL     C3    3  -0.068  -0.381  -0.050
    1UNL     C4    4   0.059  -0.327  -0.126
    1UNL     O1    5   0.076  -0.384  -0.258
    1UNL     O2    6   0.175  -0.320  -0.033
    1UNL     C5    7   0.130  -0.236   0.069
    1UNL     O3    8   0.038  -0.297   0.145
    1UNL     C6    9   0.055  -0.114  -0.003
    1UNL     C7   10   0.106   0.032   0.019
    1UNL     O4   11   0.223   0.051  -0.043
    1UNL     C8   12   0.327   0.075   0.040
    1UNL     O5   13   0.316   0.086   0.158
    1UNL     C9   14   0.462   0.086  -0.025
    1UNL    C10   15   0.496   0.007  -0.136
    1UNL    C11   16   0.608   0.026  -0.209
    1UNL     O6   17   0.627  -0.038  -0.328
    1UNL    C12   18   0.713   0.106  -0.155
    1UNL     O7   19   0.831   0.133  -0.214
    1UNL    C13   20   0.687   0.172  -0.032
    1UNL     O8   21   0.789   0.252   0.024
    1UNL    C14   22   0.560   0.168   0.025
    1UNL    C15   23   0.028  -0.165  -0.141
    1UNL    C16   24  -0.122  -0.124  -0.126
    1UNL    C17   25  -0.098  -0.139   0.031
    1UNL     O9   26  -0.146  -0.040   0.122
    1UNL    C18   27  -0.269   0.019   0.086
    1UNL    O10   28  -0.239   0.127   0.006
    1UNL    C19   29  -0.343   0.213  -0.045
    1UNL    C20   30  -0.452   0.146  -0.122
    1UNL    O11   31  -0.538   0.241  -0.184
    1UNL    C21   32  -0.399   0.296   0.078
    1UNL    O12   33  -0.543   0.311   0.083
    1UNL    C22   34  -0.346   0.228   0.208
    1UNL    O13   35  -0.209   0.261   0.244
    1UNL    C23   36  -0.360   0.072   0.204
    1UNL    O14   37  -0.490   0.026   0.188
    1UNL     H1   38  -0.298  -0.330   0.119
    1UNL     H2   39  -0.225  -0.268   0.260
    1UNL     H3   40  -0.188  -0.424   0.209
    1UNL     H4   41  -0.047  -0.485  -0.024
    1UNL     H5   42  -0.152  -0.389  -0.111
    1UNL     H6   43   0.015  -0.338  -0.317
    1UNL     H7   44   0.215  -0.201   0.134
    1UNL     H8   45   0.022   0.106  -0.012
    1UNL     H9   46   0.108   0.044   0.134
    1UNL    H10   47   0.417  -0.056  -0.172
    1UNL    H11   48   0.562  -0.105  -0.343
    1UNL    H12   49   0.863   0.212  -0.166
    1UNL    H13   50   0.762   0.294   0.104
    1UNL    H14   51   0.534   0.211   0.128
    1UNL    H15   52   0.102  -0.117  -0.210
    1UNL    H16   53  -0.200  -0.190  -0.172
    1UNL    H17   54  -0.151  -0.019  -0.154
    1UNL    H18   55  -0.329  -0.057   0.040
    1UNL    H19   56  -0.291   0.282  -0.117
    1UNL    H20   57  -0.513   0.088  -0.054
    1UNL    H21   58  -0.411   0.071  -0.198
    1UNL    H22   59  -0.508   0.282  -0.276
    1UNL    H23   60  -0.362   0.399   0.079
    1UNL    H24   61  -0.574   0.307  -0.008
    1UNL    H25   62  -0.411   0.264   0.288
    1UNL    H26   63  -0.150   0.234   0.170
    1UNL    H27   64  -0.328   0.031   0.307
    1UNL    H28   65  -0.559   0.092   0.174
   0.00000   0.00000   0.00000   0.00000   0.00000   0.00000   0.00000   0.00000   0.00000
Generated with MDTraj, t= 61.0
 65
    1UNL     C1    1  -0.201  -0.345   0.176
    1UNL     C2    2  -0.092  -0.300   0.079
    1UNL     C3    3  -0.055  -0.390  -0.037
    1UNL     C4    4   0.065  -0.325  -0.124
    1UNL     O1    5   0.083  -0.396  -0.244
    1UNL     O2    6   0.178  -0.315  -0.024
    1UNL     C5    7   0.126  -0.222   0.074
    1UNL     O3    8   0.030  -0.286   0.159
    1UNL     C6    9   0.046  -0.116  -0.001
    1UNL     C7   10   0.090   0.030   0.010
    1UNL     O4   11   0.220   0.041  -0.046
    1UNL     C8   12   0.323   0.067   0.045
    1UNL     O5   13   0.302   0.094   0.160
    1UNL     C9   14   0.457   0.084  -0.021
    1UNL    C10   15   0.475   0.027  -0.148
    1UNL    C11   16   0.604   0.026  -0.205
    1UNL     O6   17   0.625  -0.030  -0.327
    1UNL    C12   18   0.707   0.108  -0.155
    1UNL     O7   19   0.818   0.134  -0.223
    1UNL    C13   20   0.679   0.175  -0.031
    1UNL     O8   21   0.783   0.261   0.011
    1UNL    C14   22   0.564   0.159   0.035
    1UNL    C15   23   0.026  -0.173  -0.148
    1UNL    C16   24  -0.126  -0.142  -0.127
    1UNL    C17   25  -0.106  -0.149   0.027
    1UNL     O9   26  -0.165  -0.064   0.127
    1UNL    C18   27  -0.260   0.030   0.074
    1UNL    O10   28  -0.216   0.140  -0.015
    1UNL    C19   29  -0.322   0.233  -0.042
    1UNL    C20   30  -0.422   0.174  -0.143
    1UNL    O11   31  -0.521   0.270  -0.180
    1UNL    C21   32  -0.393   0.296   0.093
    1UNL    O12   33  -0.538   0.281   0.094
    1UNL    C22   34  -0.345   0.225   0.225
    1UNL    O13   35  -0.205   0.253   0.245
    1UNL    C23   36  -0.360   0.070   0.197
    1UNL    O14   37  -0.487   0.027   0.165
    1UNL     H1   38  -0.305  -0.338   0.149
    1UNL     H2   39  -0.188  -0.285   0.262
    1UNL     H3   40  -0.176  -0.447   0.213
    1UNL     H4   41  -0.013  -0.482  -0.008
    1UNL     H5   42  -0.139  -0.416  -0.105
    1UNL     H6   43   0.014  -0.377  -0.304
    1UNL     H7   44   0.212  -0.181   0.135
    1UNL     H8   45   0.013   0.102  -0.037
    1UNL     H9   46   0.091   0.058   0.119
    1UNL    H10   47   0.390  -0.013  -0.206
    1UNL    H11   48   0.563  -0.101  -0.345
    1UNL    H12   49   0.875   0.193  -0.165
    1UNL    H13   50   0.760   0.308   0.090
    1UNL    H14   51   0.552   0.203   0.129
    1UNL    H15   52   0.065  -0.122  -0.240
    1UNL    H16   53  -0.195  -0.222  -0.169
    1UNL    H17   54  -0.156  -0.043  -0.166
    1UNL    H18   55  -0.317  -0.037   0.013
    1UNL    H19   56  -0.280   0.323  -0.092
    1UNL    H20   57  -0.468   0.084  -0.101
    1UNL    H21   58  -0.364   0.142  -0.235
    1UNL    H22   59  -0.487   0.356  -0.210
    1UNL    H23   60  -0.376   0.405   0.106
    1UNL    H24   61  -0.565   0.282  -0.004
    1UNL    H25   62  -0.396   0.262   0.315
    1UNL    H26   63  -0.161   0.229   0.163
    1UNL    H27   64  -0.320   0.015   0.291
    1UNL    H28   65  -0.540   0.102   0.114
   0.00000   0.00000   0.00000   0.00000   0.00000   0.00000   0.00000   0.00000   0.00000
Generated with MDTraj, t= 62.0
 65
    1UNL     C1    1  -0.199  -0.346   0.174
    1UNL     C2    2  -0.081  -0.300   0.089
    1UNL     C3    3  -0.047  -0.398  -0.027
    1UNL     C4    4   0.056  -0.320  -0.117
    1UNL     O1    5   0.078  -0.392  -0.239
    1UNL     O2    6   0.169  -0.313  -0.030
    1UNL     C5    7   0.138  -0.225   0.080
    1UNL     O3    8   0.041  -0.296   0.168
    1UNL     C6    9   0.050  -0.114   0.013
    1UNL     C7   10   0.082   0.035   0.015
    1UNL     O4   11   0.204   0.056  -0.060
    1UNL     C8   12   0.308   0.077   0.024
    1UNL     O5   13   0.295   0.090   0.142
    1UNL     C9   14   0.434   0.103  -0.044
    1UNL    C10   15   0.467   0.032  -0.160
    1UNL    C11   16   0.596   0.034  -0.219
    1UNL     O6   17   0.629  -0.020  -0.341
    1UNL    C12   18   0.691   0.111  -0.150
    1UNL     O7   19   0.816   0.125  -0.211
    1UNL    C13   20   0.666   0.175  -0.032
    1UNL     O8   21   0.762   0.250   0.023
    1UNL    C14   22   0.540   0.164   0.025
    1UNL    C15   23   0.028  -0.171  -0.130
    1UNL    C16   24  -0.118  -0.133  -0.122
    1UNL    C17   25  -0.103  -0.153   0.036
    1UNL     O9   26  -0.172  -0.069   0.134
    1UNL    C18   27  -0.277   0.010   0.081
    1UNL    O10   28  -0.218   0.114  -0.002
    1UNL    C19   29  -0.305   0.224  -0.041
    1UNL    C20   30  -0.404   0.198  -0.161
    1UNL    O11   31  -0.466   0.313  -0.205
    1UNL    C21   32  -0.382   0.289   0.089
    1UNL    O12   33  -0.525   0.271   0.074
    1UNL    C22   34  -0.338   0.215   0.220
    1UNL    O13   35  -0.206   0.241   0.258
    1UNL    C23   36  -0.354   0.061   0.203
    1UNL    O14   37  -0.492   0.026   0.184
    1UNL     H1   38  -0.287  -0.354   0.110
    1UNL     H2   39  -0.223  -0.274   0.243
    1UNL     H3   40  -0.177  -0.444   0.226
    1UNL     H4   41   0.000  -0.488  -0.004
    1UNL     H5   42  -0.143  -0.421  -0.088
    1UNL     H6   43   0.132  -0.468  -0.223
    1UNL     H7   44   0.226  -0.185   0.137
    1UNL     H8   45   0.004   0.088  -0.046
    1UNL     H9   46   0.089   0.083   0.112
    1UNL    H10   47   0.405  -0.040  -0.203
    1UNL    H11   48   0.559  -0.081  -0.373
    1UNL    H12   49   0.868   0.190  -0.159
    1UNL    H13   50   0.712   0.285   0.101
    1UNL    H14   51   0.513   0.219   0.115
    1UNL    H15   52   0.097  -0.128  -0.209
    1UNL    H16   53  -0.195  -0.208  -0.158
    1UNL    H17   54  -0.138  -0.028  -0.140
    1UNL    H18   55  -0.348  -0.044   0.024
    1UNL    H19   56  -0.232   0.300  -0.074
    1UNL    H20   57  -0.485   0.139  -0.114
    1UNL    H21   58  -0.355   0.136  -0.243
    1UNL    H22   59  -0.394   0.370  -0.220
    1UNL    H23   60  -0.362   0.399   0.095
    1UNL    H24   61  -0.551   0.337   0.009
    1UNL    H25   62  -0.404   0.235   0.306
    1UNL    H26   63  -0.148   0.184   0.193
    1UNL    H27   64  -0.316   0.009   0.298
    1UNL    H28   65  -0.536   0.101   0.146
   0.00000   0.00000   0.00000   0.00000   0.00000   0.00000   0.00000   0.00000   0.00000
Generated with MDTraj, t= 63.0
 65
    1UNL     C1    1  -0.197  -0.377   0.183
    1UNL     C2    2  -0.076  -0.318   0.101
    1UNL     C3    3  -0.036  -0.408  -0.026
    1UNL     C4    4   0.055  -0.327  -0.115
    1UNL     O1    5   0.100  -0.391  -0.226
    1UNL     O2    6   0.180  -0.298  -0.033
    1UNL     C5    7   0.134  -0.217   0.074
    1UNL     O3    8   0.050  -0.295   0.167
    1UNL     C6    9   0.028  -0.116   0.004
    1UNL     C7   10   0.068   0.029   0.010
    1UNL     O4   11   0.191   0.065  -0.067
    1UNL     C8   12   0.299   0.084   0.017
    1UNL     O5   13   0.288   0.082   0.137
    1UNL     C9   14   0.431   0.107  -0.051
    1UNL    C10   15   0.453   0.050  -0.177
    1UNL    C11   16   0.587   0.053  -0.226
    1UNL     O6   17   0.615  -0.006  -0.349
    1UNL    C12   18   0.689   0.112  -0.150
    1UNL     O7   19   0.813   0.124  -0.205
    1UNL    C13   20   0.659   0.173  -0.030
    1UNL     O8   21   0.760   0.235   0.038
    1UNL    C14   22   0.525   0.181   0.013
    1UNL    C15   23  -0.004  -0.177  -0.135
    1UNL    C16   24  -0.154  -0.151  -0.103
    1UNL    C17   25  -0.117  -0.170   0.045
    1UNL     O9   26  -0.192  -0.103   0.142
    1UNL    C18   27  -0.275   0.004   0.083
    1UNL    O10   28  -0.199   0.119   0.028
    1UNL    C19   29  -0.279   0.228  -0.030
    1UNL    C20   30  -0.360   0.199  -0.156
    1UNL    O11   31  -0.424   0.312  -0.207
    1UNL    C21   32  -0.369   0.291   0.078
    1UNL    O12   33  -0.507   0.284   0.042
    1UNL    C22   34  -0.336   0.221   0.220
    1UNL    O13   35  -0.201   0.251   0.261
    1UNL    C23   36  -0.359   0.064   0.201
    1UNL    O14   37  -0.502   0.035   0.190
    1UNL     H1   38  -0.277  -0.396   0.110
    1UNL     H2   39  -0.235  -0.313   0.259
    1UNL     H3   40  -0.165  -0.471   0.226
    1UNL     H4   41   0.017  -0.494   0.008
    1UNL     H5   42  -0.119  -0.444  -0.097
    1UNL     H6   43   0.142  -0.323  -0.283
    1UNL     H7   44   0.218  -0.159   0.117
    1UNL     H8   45  -0.005   0.093  -0.039
    1UNL     H9   46   0.077   0.051   0.112
    1UNL    H10   47   0.373  -0.019  -0.219
    1UNL    H11   48   0.538  -0.056  -0.388
    1UNL    H12   49   0.864   0.183  -0.145
    1UNL    H13   50   0.740   0.280   0.128
    1UNL    H14   51   0.509   0.239   0.102
    1UNL    H15   52   0.049  -0.134  -0.225
    1UNL    H16   53  -0.226  -0.221  -0.151
    1UNL    H17   54  -0.177  -0.047  -0.128
    1UNL    H18   55  -0.343  -0.034   0.012
    1UNL    H19   56  -0.209   0.306  -0.060
    1UNL    H20   57  -0.439   0.121  -0.141
    1UNL    H21   58  -0.289   0.168  -0.240
    1UNL    H22   59  -0.369   0.392  -0.226
    1UNL    H23   60  -0.352   0.403   0.085
    1UNL    H24   61  -0.518   0.302  -0.055
    1UNL    H25   62  -0.397   0.262   0.302
    1UNL    H26   63  -0.136   0.199   0.216
    1UNL    H27   64  -0.312   0.003   0.285
    1UNL    H28   65  -0.535   0.094   0.121
   0.00000   0.00000   0.00000   0.00000   0.00000   0.00000   0.00000   0.00000   0.00000
Generated with MDTraj, t= 64.0
 65
    1UNL     C1    1  -0.166  -0.381   0.192
    1UNL     C2    2  -0.071  -0.314   0.095
    1UNL     C3    3  -0.034  -0.403  -0.023
    1UNL     C4    4   0.063  -0.319  -0.116
    1UNL     O1    5   0.107  -0.388  -0.236
    1UNL     O2    6   0.178  -0.286  -0.031
    1UNL     C5    7   0.129  -0.201   0.075
    1UNL     O3    8   0.055  -0.286   0.164
    1UNL     C6    9   0.024  -0.106  -0.005
    1UNL     C7   10   0.059   0.041   0.000
    1UNL     O4   11   0.180   0.058  -0.071
    1UNL     C8   12   0.276   0.081   0.016
    1UNL     O5   13   0.260   0.090   0.136
    1UNL     C9   14   0.416   0.088  -0.042
    1UNL    C10   15   0.435   0.050  -0.173
    1UNL    C11   16   0.561   0.059  -0.232
    1UNL     O6   17   0.584   0.023  -0.362
    1UNL    C12   18   0.667   0.110  -0.156
    1UNL     O7   19   0.793   0.138  -0.204
    1UNL    C13   20   0.643   0.159  -0.022
    1UNL     O8   21   0.738   0.230   0.044
    1UNL    C14   22   0.516   0.136   0.038
    1UNL    C15   23  -0.012  -0.179  -0.143
    1UNL    C16   24  -0.157  -0.165  -0.098
    1UNL    C17   25  -0.117  -0.166   0.047
    1UNL     O9   26  -0.207  -0.104   0.140
    1UNL    C18   27  -0.268   0.016   0.094
    1UNL    O10   28  -0.174   0.112   0.032
    1UNL    C19   29  -0.246   0.228  -0.025
    1UNL    C20   30  -0.314   0.189  -0.157
    1UNL    O11   31  -0.380   0.295  -0.224
    1UNL    C21   32  -0.352   0.277   0.080
    1UNL    O12   33  -0.480   0.277   0.023
    1UNL    C22   34  -0.335   0.220   0.221
    1UNL    O13   35  -0.208   0.252   0.269
    1UNL    C23   36  -0.349   0.074   0.208
    1UNL    O14   37  -0.488   0.046   0.188
    1UNL     H1   38  -0.270  -0.382   0.161
    1UNL     H2   39  -0.157  -0.307   0.275
    1UNL     H3   40  -0.138  -0.472   0.234
    1UNL     H4   41   0.025  -0.494   0.012
    1UNL     H5   42  -0.126  -0.436  -0.072
    1UNL     H6   43   0.152  -0.474  -0.209
    1UNL     H7   44   0.218  -0.158   0.120
    1UNL     H8   45  -0.012   0.094  -0.060
    1UNL     H9   46   0.068   0.085   0.094
    1UNL    H10   47   0.356   0.019  -0.227
    1UNL    H11   48   0.511  -0.039  -0.399
    1UNL    H12   49   0.844   0.188  -0.135
    1UNL    H13   50   0.703   0.274   0.131
    1UNL    H14   51   0.509   0.128   0.148
    1UNL    H15   52   0.029  -0.139  -0.241
    1UNL    H16   53  -0.219  -0.250  -0.124
    1UNL    H17   54  -0.204  -0.069  -0.130
    1UNL    H18   55  -0.347  -0.010   0.029
    1UNL    H19   56  -0.174   0.309  -0.038
    1UNL    H20   57  -0.402   0.122  -0.132
    1UNL    H21   58  -0.247   0.136  -0.231
    1UNL    H22   59  -0.319   0.381  -0.231
    1UNL    H23   60  -0.339   0.387   0.102
    1UNL    H24   61  -0.479   0.333  -0.057
    1UNL    H25   62  -0.413   0.255   0.293
    1UNL    H26   63  -0.145   0.191   0.220
    1UNL    H27   64  -0.316   0.021   0.301
    1UNL    H28   65  -0.531   0.123   0.129
   0.00000   0.00000   0.00000   0.00000   0.00000   0.00000   0.00000   0.00000   0.00000
Generated with MDTraj, t= 65.0
 65
    1UNL     C1    1  -0.158  -0.369   0.206
    1UNL     C2    2  -0.061  -0.313   0.108
    1UNL     C3    3  -0.028  -0.414  -0.017
    1UNL     C4    4   0.070  -0.325  -0.112
    1UNL     O1    5   0.090  -0.398  -0.234
    1UNL     O2    6   0.183  -0.298  -0.031
    1UNL     C5    7   0.136  -0.205   0.066
    1UNL     O3    8   0.063  -0.270   0.170
    1UNL     C6    9   0.022  -0.114  -0.005
    1UNL     C7   10   0.053   0.038  -0.015
    1UNL     O4   11   0.177   0.066  -0.078
    1UNL     C8   12   0.270   0.075   0.019
    1UNL     O5   13   0.245   0.067   0.139
    1UNL     C9   14   0.404   0.092  -0.036
    1UNL    C10   15   0.424   0.060  -0.166
    1UNL    C11   16   0.543   0.074  -0.232
    1UNL     O6   17   0.565   0.045  -0.367
    1UNL    C12   18   0.649   0.128  -0.157
    1UNL     O7   19   0.773   0.162  -0.210
    1UNL    C13   20   0.633   0.150  -0.019
    1UNL     O8   21   0.749   0.183   0.053
    1UNL    C14   22   0.510   0.143   0.046
    1UNL    C15   23  -0.005  -0.185  -0.136
    1UNL    C16   24  -0.153  -0.191  -0.102
    1UNL    C17   25  -0.117  -0.173   0.049
    1UNL     O9   26  -0.199  -0.105   0.142
    1UNL    C18   27  -0.265   0.010   0.089
    1UNL    O10   28  -0.180   0.118   0.035
    1UNL    C19   29  -0.250   0.232  -0.024
    1UNL    C20   30  -0.297   0.196  -0.158
    1UNL    O11   31  -0.333   0.309  -0.238
    1UNL    C21   32  -0.356   0.287   0.068
    1UNL    O12   33  -0.488   0.266   0.021
    1UNL    C22   34  -0.331   0.230   0.216
    1UNL    O13   35  -0.200   0.258   0.275
    1UNL    C23   36  -0.345   0.077   0.202
    1UNL    O14   37  -0.480   0.049   0.192
    1UNL     H1   38  -0.243  -0.413   0.160
    1UNL     H2   39  -0.193  -0.290   0.278
    1UNL     H3   40  -0.115  -0.443   0.264
    1UNL     H4   41   0.037  -0.509   0.008
    1UNL     H5   42  -0.117  -0.440  -0.068
    1UNL     H6   43   0.147  -0.352  -0.307
    1UNL     H7   44   0.216  -0.164   0.127
    1UNL     H8   45  -0.016   0.094  -0.073
    1UNL     H9   46   0.057   0.085   0.075
    1UNL    H10   47   0.339   0.024  -0.230
    1UNL    H11   48   0.484  -0.015  -0.394
    1UNL    H12   49   0.837   0.183  -0.140
    1UNL    H13   50   0.722   0.193   0.150
    1UNL    H14   51   0.500   0.143   0.152
    1UNL    H15   52   0.024  -0.118  -0.223
    1UNL    H16   53  -0.184  -0.287  -0.136
    1UNL    H17   54  -0.208  -0.106  -0.149
    1UNL    H18   55  -0.333  -0.025   0.016
    1UNL    H19   56  -0.169   0.306  -0.036
    1UNL    H20   57  -0.385   0.122  -0.146
    1UNL    H21   58  -0.219   0.135  -0.207
    1UNL    H22   59  -0.259   0.376  -0.227
    1UNL    H23   60  -0.346   0.396   0.065
    1UNL    H24   61  -0.491   0.281  -0.075
    1UNL    H25   62  -0.405   0.267   0.290
    1UNL    H26   63  -0.135   0.249   0.198
    1UNL    H27   64  -0.309   0.034   0.296
    1UNL    H28   65  -0.506   0.072   0.107
   0.00000   0.00000   0.00000   0.00000   0.00000   0.00000   0.00000   0.00000   0.00000
Generated with MDTraj, t= 66.0
 65
    1UNL     C1    1  -0.165  -0.374   0.215
    1UNL     C2    2  -0.061  -0.317   0.117
    1UNL     C3    3  -0.038  -0.415  -0.004
    1UNL     C4    4   0.061  -0.342  -0.104
    1UNL     O1    5   0.083  -0.410  -0.220
    1UNL     O2    6   0.177  -0.298  -0.032
    1UNL     C5    7   0.132  -0.206   0.071
    1UNL     O3    8   0.064  -0.278   0.176
    1UNL     C6    9   0.027  -0.121  -0.007
    1UNL     C7   10   0.058   0.033  -0.012
    1UNL     O4   11   0.175   0.064  -0.073
    1UNL     C8   12   0.276   0.061   0.016
    1UNL     O5   13   0.262   0.063   0.138
    1UNL     C9   14   0.405   0.091  -0.048
    1UNL    C10   15   0.425   0.085  -0.186
    1UNL    C11   16   0.550   0.110  -0.241
    1UNL     O6   17   0.573   0.105  -0.384
    1UNL    C12   18   0.657   0.129  -0.154
    1UNL     O7   19   0.787   0.137  -0.201
    1UNL    C13   20   0.641   0.139  -0.015
    1UNL     O8   21   0.757   0.176   0.057
    1UNL    C14   22   0.517   0.122   0.037
    1UNL    C15   23  -0.008  -0.202  -0.139
    1UNL    C16   24  -0.159  -0.193  -0.101
    1UNL    C17   25  -0.112  -0.175   0.049
    1UNL     O9   26  -0.189  -0.096   0.142
    1UNL    C18   27  -0.266   0.015   0.098
    1UNL    O10   28  -0.185   0.108   0.025
    1UNL    C19   29  -0.244   0.229  -0.024
    1UNL    C20   30  -0.279   0.216  -0.177
    1UNL    O11   31  -0.364   0.320  -0.210
    1UNL    C21   32  -0.362   0.287   0.064
    1UNL    O12   33  -0.488   0.253   0.003
    1UNL    C22   34  -0.340   0.235   0.209
    1UNL    O13   35  -0.214   0.269   0.272
    1UNL    C23   36  -0.352   0.084   0.208
    1UNL    O14   37  -0.480   0.044   0.180
    1UNL     H1   38  -0.257  -0.400   0.172
    1UNL     H2   39  -0.180  -0.302   0.297
    1UNL     H3   40  -0.129  -0.465   0.261
    1UNL     H4   41   0.014  -0.508   0.039
    1UNL     H5   42  -0.132  -0.435  -0.052
    1UNL     H6   43   0.130  -0.496  -0.185
    1UNL     H7   44   0.216  -0.152   0.111
    1UNL     H8   45  -0.009   0.095  -0.063
    1UNL     H9   46   0.054   0.065   0.085
    1UNL    H10   47   0.343   0.055  -0.245
    1UNL    H11   48   0.479   0.087  -0.427
    1UNL    H12   49   0.852   0.167  -0.131
    1UNL    H13   50   0.734   0.209   0.146
    1UNL    H14   51   0.494   0.147   0.141
    1UNL    H15   52   0.046  -0.152  -0.225
    1UNL    H16   53  -0.217  -0.280  -0.129
    1UNL    H17   54  -0.207  -0.108  -0.147
    1UNL    H18   55  -0.334  -0.034   0.033
    1UNL    H19   56  -0.159   0.301  -0.025
    1UNL    H20   57  -0.332   0.116  -0.200
    1UNL    H21   58  -0.191   0.214  -0.240
    1UNL    H22   59  -0.325   0.402  -0.189
    1UNL    H23   60  -0.361   0.395   0.057
    1UNL    H24   61  -0.497   0.296  -0.087
    1UNL    H25   62  -0.419   0.278   0.274
    1UNL    H26   63  -0.148   0.230   0.221
    1UNL    H27   64  -0.329   0.036   0.301
    1UNL    H28   65  -0.527   0.117   0.124
   0.00000   0.00000   0.00000   0.00000   0.00000   0.00000   0.00000   0.00000   0.00000
Generated with MDTraj, t= 67.0
 65
    1UNL     C1    1  -0.180  -0.350   0.225
    1UNL     C2    2  -0.084  -0.308   0.112
    1UNL     C3    3  -0.051  -0.411   0.008
    1UNL     C4    4   0.053  -0.349  -0.090
    1UNL     O1    5   0.074  -0.421  -0.204
    1UNL     O2    6   0.169  -0.329  -0.013
    1UNL     C5    7   0.133  -0.224   0.084
    1UNL     O3    8   0.042  -0.281   0.181
    1UNL     C6    9   0.028  -0.124   0.004
    1UNL     C7   10   0.064   0.025  -0.017
    1UNL     O4   11   0.185   0.040  -0.083
    1UNL     C8   12   0.289   0.060   0.003
    1UNL     O5   13   0.293   0.060   0.124
    1UNL     C9   14   0.420   0.100  -0.054
    1UNL    C10   15   0.437   0.120  -0.195
    1UNL    C11   16   0.564   0.132  -0.247
    1UNL     O6   17   0.597   0.138  -0.386
    1UNL    C12   18   0.677   0.148  -0.160
    1UNL     O7   19   0.805   0.162  -0.201
    1UNL    C13   20   0.660   0.130  -0.022
    1UNL     O8   21   0.769   0.136   0.055
    1UNL    C14   22   0.536   0.099   0.028
    1UNL    C15   23  -0.006  -0.206  -0.126
    1UNL    C16   24  -0.149  -0.171  -0.105
    1UNL    C17   25  -0.118  -0.167   0.051
    1UNL     O9   26  -0.186  -0.081   0.142
    1UNL    C18   27  -0.258   0.022   0.087
    1UNL    O10   28  -0.180   0.130   0.021
    1UNL    C19   29  -0.266   0.234  -0.022
    1UNL    C20   30  -0.316   0.212  -0.172
    1UNL    O11   31  -0.365   0.328  -0.226
    1UNL    C21   32  -0.384   0.285   0.069
    1UNL    O12   33  -0.510   0.246   0.009
    1UNL    C22   34  -0.357   0.221   0.211
    1UNL    O13   35  -0.229   0.263   0.260
    1UNL    C23   36  -0.353   0.066   0.207
    1UNL    O14   37  -0.482   0.020   0.194
    1UNL     H1   38  -0.279  -0.358   0.187
    1UNL     H2   39  -0.172  -0.279   0.303
    1UNL     H3   40  -0.152  -0.452   0.260
    1UNL     H4   41  -0.003  -0.494   0.063
    1UNL     H5   42  -0.146  -0.433  -0.049
    1UNL     H6   43   0.158  -0.382  -0.245
    1UNL     H7   44   0.221  -0.172   0.118
    1UNL     H8   45  -0.019   0.074  -0.060
    1UNL     H9   46   0.077   0.081   0.070
    1UNL    H10   47   0.357   0.094  -0.262
    1UNL    H11   48   0.514   0.145  -0.449
    1UNL    H12   49   0.862   0.148  -0.122
    1UNL    H13   50   0.747   0.141   0.148
    1UNL    H14   51   0.518   0.077   0.135
    1UNL    H15   52   0.035  -0.180  -0.228
    1UNL    H16   53  -0.219  -0.249  -0.132
    1UNL    H17   54  -0.185  -0.080  -0.148
    1UNL    H18   55  -0.317  -0.025   0.012
    1UNL    H19   56  -0.195   0.319  -0.027
    1UNL    H20   57  -0.398   0.130  -0.176
    1UNL    H21   58  -0.240   0.177  -0.235
    1UNL    H22   59  -0.297   0.393  -0.238
    1UNL    H23   60  -0.385   0.393   0.076
    1UNL    H24   61  -0.517   0.279  -0.080
    1UNL    H25   62  -0.422   0.259   0.292
    1UNL    H26   63  -0.153   0.210   0.214
    1UNL    H27   64  -0.326   0.015   0.297
    1UNL    H28   65  -0.518   0.065   0.111
   0.00000   0.00000   0.00000   0.00000   0.00000   0.00000   0.00000   0.00000   0.00000
Generated with MDTraj, t= 68.0
 65
    1UNL     C1    1  -0.198  -0.342   0.219
    1UNL     C2    2  -0.085  -0.308   0.121
    1UNL     C3    3  -0.058  -0.416   0.008
    1UNL     C4    4   0.048  -0.353  -0.092
    1UNL     O1    5   0.064  -0.439  -0.207
    1UNL     O2    6   0.162  -0.328  -0.008
    1UNL     C5    7   0.129  -0.225   0.089
    1UNL     O3    8   0.038  -0.279   0.193
    1UNL     C6    9   0.037  -0.124   0.011
    1UNL     C7   10   0.081   0.033  -0.014
    1UNL     O4   11   0.201   0.054  -0.079
    1UNL     C8   12   0.306   0.050   0.003
    1UNL     O5   13   0.306   0.036   0.125
    1UNL     C9   14   0.439   0.067  -0.060
    1UNL    C10   15   0.454   0.101  -0.195
    1UNL    C11   16   0.578   0.144  -0.248
    1UNL     O6   17   0.593   0.187  -0.375
    1UNL    C12   18   0.694   0.147  -0.162
    1UNL     O7   19   0.812   0.195  -0.202
    1UNL    C13   20   0.677   0.117  -0.026
    1UNL     O8   21   0.802   0.106   0.041
    1UNL    C14   22   0.548   0.081   0.018
    1UNL    C15   23   0.007  -0.206  -0.128
    1UNL    C16   24  -0.142  -0.155  -0.099
    1UNL    C17   25  -0.110  -0.163   0.049
    1UNL     O9   26  -0.178  -0.073   0.141
    1UNL    C18   27  -0.265   0.026   0.091
    1UNL    O10   28  -0.192   0.141   0.033
    1UNL    C19   29  -0.274   0.242  -0.028
    1UNL    C20   30  -0.336   0.200  -0.167
    1UNL    O11   31  -0.417   0.298  -0.230
    1UNL    C21   32  -0.393   0.287   0.060
    1UNL    O12   33  -0.522   0.239   0.006
    1UNL    C22   34  -0.361   0.228   0.204
    1UNL    O13   35  -0.246   0.278   0.272
    1UNL    C23   36  -0.359   0.074   0.203
    1UNL    O14   37  -0.489   0.026   0.180
    1UNL     H1   38  -0.276  -0.377   0.151
    1UNL     H2   39  -0.226  -0.264   0.280
    1UNL     H3   40  -0.165  -0.431   0.277
    1UNL     H4   41  -0.002  -0.499   0.038
    1UNL     H5   42  -0.147  -0.439  -0.061
    1UNL     H6   43   0.124  -0.513  -0.184
    1UNL     H7   44   0.214  -0.168   0.130
    1UNL     H8   45   0.014   0.103  -0.062
    1UNL     H9   46   0.084   0.085   0.080
    1UNL    H10   47   0.363   0.096  -0.263
    1UNL    H11   48   0.501   0.213  -0.416
    1UNL    H12   49   0.883   0.160  -0.142
    1UNL    H13   50   0.791   0.085   0.132
    1UNL    H14   51   0.539   0.050   0.115
    1UNL    H15   52   0.052  -0.159  -0.219
    1UNL    H16   53  -0.223  -0.226  -0.120
    1UNL    H17   54  -0.161  -0.055  -0.125
    1UNL    H18   55  -0.311  -0.013   0.004
    1UNL    H19   56  -0.197   0.321  -0.032
    1UNL    H20   57  -0.408   0.112  -0.148
    1UNL    H21   58  -0.260   0.167  -0.229
    1UNL    H22   59  -0.359   0.373  -0.266
    1UNL    H23   60  -0.404   0.397   0.067
    1UNL    H24   61  -0.550   0.291  -0.075
    1UNL    H25   62  -0.444   0.257   0.268
    1UNL    H26   63  -0.171   0.226   0.234
    1UNL    H27   64  -0.333   0.032   0.295
    1UNL    H28   65  -0.528   0.090   0.125
   0.00000   0.00000   0.00000   0.00000   0.00000   0.00000   0.00000   0.00000   0.00000
Generated with MDTraj, t= 69.0
 65
    1UNL     C1    1  -0.199  -0.327   0.217
    1UNL     C2    2  -0.083  -0.296   0.123
    1UNL     C3    3  -0.059  -0.401   0.009
    1UNL     C4    4   0.045  -0.334  -0.093
    1UNL     O1    5   0.066  -0.409  -0.205
    1UNL     O2    6   0.165  -0.320  -0.009
    1UNL     C5    7   0.130  -0.226   0.092
    1UNL     O3    8   0.042  -0.291   0.190
    1UNL     C6    9   0.048  -0.118   0.015
    1UNL     C7   10   0.094   0.026   0.006
    1UNL     O4   11   0.210   0.049  -0.060
    1UNL     C8   12   0.329   0.019   0.013
    1UNL     O5   13   0.329  -0.034   0.124
    1UNL     C9   14   0.454   0.057  -0.050
    1UNL    C10   15   0.450   0.118  -0.178
    1UNL    C11   16   0.565   0.173  -0.237
    1UNL     O6   17   0.567   0.217  -0.366
    1UNL    C12   18   0.680   0.157  -0.162
    1UNL     O7   19   0.809   0.181  -0.215
    1UNL    C13   20   0.682   0.096  -0.033
    1UNL     O8   21   0.804   0.090   0.034
    1UNL    C14   22   0.565   0.046   0.022
    1UNL    C15   23   0.005  -0.180  -0.125
    1UNL    C16   24  -0.140  -0.145  -0.096
    1UNL    C17   25  -0.098  -0.156   0.062
    1UNL     O9   26  -0.159  -0.062   0.153
    1UNL    C18   27  -0.251   0.033   0.097
    1UNL    O10   28  -0.199   0.145   0.014
    1UNL    C19   29  -0.302   0.233  -0.042
    1UNL    C20   30  -0.356   0.178  -0.180
    1UNL    O11   31  -0.446   0.270  -0.252
    1UNL    C21   32  -0.406   0.285   0.059
    1UNL    O12   33  -0.535   0.250   0.022
    1UNL    C22   34  -0.369   0.234   0.203
    1UNL    O13   35  -0.246   0.287   0.245
    1UNL    C23   36  -0.356   0.083   0.202
    1UNL    O14   37  -0.479   0.023   0.167
    1UNL     H1   38  -0.294  -0.309   0.165
    1UNL     H2   39  -0.189  -0.249   0.289
    1UNL     H3   40  -0.202  -0.421   0.270
    1UNL     H4   41  -0.007  -0.481   0.052
    1UNL     H5   42  -0.155  -0.429  -0.046
    1UNL     H6   43   0.149  -0.377  -0.238
    1UNL     H7   44   0.222  -0.189   0.143
    1UNL     H8   45   0.012   0.095  -0.022
    1UNL     H9   46   0.124   0.060   0.108
    1UNL    H10   47   0.373   0.118  -0.244
    1UNL    H11   48   0.476   0.236  -0.407
    1UNL    H12   49   0.875   0.176  -0.142
    1UNL    H13   50   0.783   0.067   0.124
    1UNL    H14   51   0.568  -0.026   0.112
    1UNL    H15   52   0.057  -0.129  -0.210
    1UNL    H16   53  -0.206  -0.228  -0.117
    1UNL    H17   54  -0.173  -0.048  -0.127
    1UNL    H18   55  -0.307  -0.024   0.024
    1UNL    H19   56  -0.235   0.317  -0.064
    1UNL    H20   57  -0.409   0.080  -0.162
    1UNL    H21   58  -0.278   0.164  -0.245
    1UNL    H22   59  -0.396   0.353  -0.290
    1UNL    H23   60  -0.403   0.396   0.052
    1UNL    H24   61  -0.538   0.261  -0.076
    1UNL    H25   62  -0.442   0.276   0.271
    1UNL    H26   63  -0.175   0.265   0.185
    1UNL    H27   64  -0.333   0.046   0.297
    1UNL    H28   65  -0.525   0.059   0.079
   0.00000   0.00000   0.00000   0.00000   0.00000   0.00000   0.00000   0.00000   0.00000
Generated with MDTraj, t= 70.0
 65
    1UNL     C1    1  -0.211  -0.325   0.206
    1UNL     C2    2  -0.100  -0.296   0.107
    1UNL     C3    3  -0.084  -0.387  -0.009
    1UNL     C4    4   0.050  -0.333  -0.086
    1UNL     O1    5   0.066  -0.392  -0.214
    1UNL     O2    6   0.169  -0.328   0.000
    1UNL     C5    7   0.131  -0.236   0.101
    1UNL     O3    8   0.030  -0.300   0.175
    1UNL     C6    9   0.052  -0.115   0.035
    1UNL     C7   10   0.111   0.030   0.060
    1UNL     O4   11   0.217   0.073  -0.015
    1UNL     C8   12   0.337   0.015   0.024
    1UNL     O5   13   0.340  -0.045   0.131
    1UNL     C9   14   0.460   0.057  -0.049
    1UNL    C10   15   0.449   0.135  -0.163
    1UNL    C11   16   0.562   0.187  -0.232
    1UNL     O6   17   0.563   0.240  -0.357
    1UNL    C12   18   0.684   0.157  -0.168
    1UNL     O7   19   0.806   0.196  -0.221
    1UNL    C13   20   0.699   0.084  -0.050
    1UNL     O8   21   0.820   0.055   0.009
    1UNL    C14   22   0.580   0.035   0.008
    1UNL    C15   23   0.032  -0.167  -0.112
    1UNL    C16   24  -0.112  -0.131  -0.098
    1UNL    C17   25  -0.104  -0.140   0.056
    1UNL     O9   26  -0.178  -0.065   0.153
    1UNL    C18   27  -0.266   0.030   0.094
    1UNL    O10   28  -0.210   0.131   0.007
    1UNL    C19   29  -0.304   0.217  -0.060
    1UNL    C20   30  -0.374   0.152  -0.182
    1UNL    O11   31  -0.471   0.234  -0.251
    1UNL    C21   32  -0.404   0.273   0.042
    1UNL    O12   33  -0.537   0.248   0.018
    1UNL    C22   34  -0.359   0.242   0.189
    1UNL    O13   35  -0.236   0.305   0.219
    1UNL    C23   36  -0.351   0.092   0.203
    1UNL    O14   37  -0.484   0.033   0.193
    1UNL     H1   38  -0.308  -0.319   0.160
    1UNL     H2   39  -0.210  -0.257   0.294
    1UNL     H3   40  -0.202  -0.421   0.244
    1UNL     H4   41  -0.072  -0.487   0.027
    1UNL     H5   42  -0.166  -0.373  -0.077
    1UNL     H6   43   0.103  -0.475  -0.200
    1UNL     H7   44   0.215  -0.190   0.156
    1UNL     H8   45   0.021   0.098   0.044
    1UNL     H9   46   0.141   0.049   0.170
    1UNL    H10   47   0.341   0.156  -0.197
    1UNL    H11   48   0.470   0.240  -0.392
    1UNL    H12   49   0.877   0.143  -0.179
    1UNL    H13   50   0.815   0.002   0.091
    1UNL    H14   51   0.579  -0.013   0.099
    1UNL    H15   52   0.098  -0.108  -0.178
    1UNL    H16   53  -0.177  -0.190  -0.157
    1UNL    H17   54  -0.138  -0.027  -0.120
    1UNL    H18   55  -0.333  -0.025   0.029
    1UNL    H19   56  -0.241   0.298  -0.095
    1UNL    H20   57  -0.435   0.064  -0.152
    1UNL    H21   58  -0.305   0.122  -0.252
    1UNL    H22   59  -0.431   0.318  -0.292
    1UNL    H23   60  -0.400   0.385   0.032
    1UNL    H24   61  -0.562   0.275  -0.073
    1UNL    H25   62  -0.427   0.280   0.263
    1UNL    H26   63  -0.162   0.271   0.153
    1UNL    H27   64  -0.310   0.063   0.296
    1UNL    H28   65  -0.530   0.091   0.131
   0.00000   0.00000   0.00000   0.00000   0.00000   0.00000   0.00000   0.00000   0.00000
Generated with MDTraj, t= 71.0
 65
    1UNL     C1    1  -0.235  -0.342   0.160
    1UNL     C2    2  -0.108  -0.293   0.087
    1UNL     C3    3  -0.073  -0.372  -0.044
    1UNL     C4    4   0.063  -0.311  -0.094
    1UNL     O1    5   0.088  -0.377  -0.218
    1UNL     O2    6   0.157  -0.328   0.021
    1UNL     C5    7   0.108  -0.243   0.125
    1UNL     O3    8  -0.001  -0.312   0.183
    1UNL     C6    9   0.055  -0.118   0.050
    1UNL     C7   10   0.118   0.028   0.065
    1UNL     O4   11   0.226   0.059  -0.018
    1UNL     C8   12   0.344   0.020   0.041
    1UNL     O5   13   0.343  -0.029   0.154
    1UNL     C9   14   0.462   0.066  -0.035
    1UNL    C10   15   0.449   0.134  -0.150
    1UNL    C11   16   0.561   0.181  -0.215
    1UNL     O6   17   0.542   0.272  -0.321
    1UNL    C12   18   0.692   0.157  -0.167
    1UNL     O7   19   0.797   0.185  -0.248
    1UNL    C13   20   0.700   0.071  -0.054
    1UNL     O8   21   0.826   0.027  -0.032
    1UNL    C14   22   0.585   0.028   0.010
    1UNL    C15   23   0.042  -0.150  -0.103
    1UNL    C16   24  -0.104  -0.106  -0.093
    1UNL    C17   25  -0.100  -0.140   0.058
    1UNL     O9   26  -0.165  -0.053   0.152
    1UNL    C18   27  -0.263   0.037   0.098
    1UNL    O10   28  -0.209   0.130   0.005
    1UNL    C19   29  -0.311   0.202  -0.069
    1UNL    C20   30  -0.399   0.119  -0.169
    1UNL    O11   31  -0.486   0.200  -0.245
    1UNL    C21   32  -0.407   0.270   0.032
    1UNL    O12   33  -0.538   0.227   0.015
    1UNL    C22   34  -0.347   0.262   0.178
    1UNL    O13   35  -0.217   0.319   0.185
    1UNL    C23   36  -0.342   0.111   0.207
    1UNL    O14   37  -0.474   0.046   0.217
    1UNL     H1   38  -0.317  -0.341   0.092
    1UNL     H2   39  -0.268  -0.266   0.235
    1UNL     H3   40  -0.236  -0.432   0.212
    1UNL     H4   41  -0.055  -0.476  -0.016
    1UNL     H5   42  -0.149  -0.367  -0.112
    1UNL     H6   43   0.167  -0.424  -0.207
    1UNL     H7   44   0.180  -0.213   0.206
    1UNL     H8   45   0.036   0.108   0.045
    1UNL     H9   46   0.142   0.045   0.178
    1UNL    H10   47   0.355   0.142  -0.193
    1UNL    H11   48   0.449   0.297  -0.335
    1UNL    H12   49   0.880   0.138  -0.219
    1UNL    H13   50   0.835  -0.034   0.047
    1UNL    H14   51   0.585  -0.039   0.099
    1UNL    H15   52   0.117  -0.090  -0.157
    1UNL    H16   53  -0.176  -0.167  -0.139
    1UNL    H17   54  -0.132  -0.000  -0.101
    1UNL    H18   55  -0.330  -0.029   0.043
    1UNL    H19   56  -0.261   0.281  -0.124
    1UNL    H20   57  -0.458   0.046  -0.112
    1UNL    H21   58  -0.343   0.065  -0.236
    1UNL    H22   59  -0.430   0.257  -0.294
    1UNL    H23   60  -0.425   0.379   0.012
    1UNL    H24   61  -0.557   0.210  -0.082
    1UNL    H25   62  -0.414   0.306   0.251
    1UNL    H26   63  -0.159   0.257   0.152
    1UNL    H27   64  -0.293   0.088   0.299
    1UNL    H28   65  -0.538   0.104   0.170
   0.00000   0.00000   0.00000   0.00000   0.00000   0.00000   0.00000   0.00000   0.00000
Generated with MDTraj, t= 72.0
 65
    1UNL     C1    1  -0.245  -0.319   0.134
    1UNL     C2    2  -0.105  -0.286   0.079
    1UNL     C3    3  -0.054  -0.372  -0.042
    1UNL     C4    4   0.076  -0.318  -0.099
    1UNL     O1    5   0.119  -0.379  -0.218
    1UNL     O2    6   0.167  -0.322   0.014
    1UNL     C5    7   0.113  -0.241   0.118
    1UNL     O3    8  -0.001  -0.310   0.177
    1UNL     C6    9   0.060  -0.118   0.045
    1UNL     C7   10   0.107   0.025   0.090
    1UNL     O4   11   0.222   0.074   0.022
    1UNL     C8   12   0.344   0.021   0.063
    1UNL     O5   13   0.357  -0.042   0.165
    1UNL     C9   14   0.458   0.062  -0.016
    1UNL    C10   15   0.441   0.161  -0.108
    1UNL    C11   16   0.542   0.201  -0.193
    1UNL     O6   17   0.533   0.281  -0.309
    1UNL    C12   18   0.670   0.140  -0.176
    1UNL     O7   19   0.781   0.172  -0.253
    1UNL    C13   20   0.691   0.049  -0.071
    1UNL     O8   21   0.814  -0.004  -0.048
    1UNL    C14   22   0.588   0.003   0.002
    1UNL    C15   23   0.057  -0.158  -0.110
    1UNL    C16   24  -0.092  -0.106  -0.110
    1UNL    C17   25  -0.095  -0.132   0.045
    1UNL     O9   26  -0.152  -0.041   0.142
    1UNL    C18   27  -0.259   0.039   0.095
    1UNL    O10   28  -0.221   0.128  -0.016
    1UNL    C19   29  -0.326   0.203  -0.085
    1UNL    C20   30  -0.411   0.107  -0.173
    1UNL    O11   31  -0.511   0.165  -0.250
    1UNL    C21   32  -0.418   0.279   0.021
    1UNL    O12   33  -0.544   0.221   0.022
    1UNL    C22   34  -0.351   0.274   0.168
    1UNL    O13   35  -0.220   0.328   0.175
    1UNL    C23   36  -0.323   0.122   0.214
    1UNL    O14   37  -0.442   0.070   0.259
    1UNL     H1   38  -0.321  -0.292   0.067
    1UNL     H2   39  -0.262  -0.258   0.224
    1UNL     H3   40  -0.259  -0.420   0.169
    1UNL     H4   41  -0.032  -0.471  -0.004
    1UNL     H5   42  -0.122  -0.383  -0.119
    1UNL     H6   43   0.202  -0.339  -0.240
    1UNL     H7   44   0.200  -0.222   0.189
    1UNL     H8   45   0.014   0.094   0.096
    1UNL     H9   46   0.145   0.028   0.199
    1UNL    H10   47   0.342   0.199  -0.123
    1UNL    H11   48   0.454   0.331  -0.300
    1UNL    H12   49   0.861   0.120  -0.231
    1UNL    H13   50   0.805  -0.066   0.033
    1UNL    H14   51   0.605  -0.073   0.074
    1UNL    H15   52   0.118  -0.101  -0.179
    1UNL    H16   53  -0.150  -0.173  -0.170
    1UNL    H17   54  -0.096   0.004  -0.125
    1UNL    H18   55  -0.335  -0.030   0.058
    1UNL    H19   56  -0.278   0.271  -0.157
    1UNL    H20   57  -0.464   0.039  -0.104
    1UNL    H21   58  -0.352   0.043  -0.228
    1UNL    H22   59  -0.474   0.234  -0.301
    1UNL    H23   60  -0.429   0.380  -0.019
    1UNL    H24   61  -0.591   0.246  -0.058
    1UNL    H25   62  -0.402   0.339   0.241
    1UNL    H26   63  -0.157   0.278   0.109
    1UNL    H27   64  -0.253   0.127   0.295
    1UNL    H28   65  -0.511   0.072   0.180
   0.00000   0.00000   0.00000   0.00000   0.00000   0.00000   0.00000   0.00000   0.00000
Generated with MDTraj, t= 73.0
 65
    1UNL     C1    1  -0.238  -0.315   0.142
    1UNL     C2    2  -0.102  -0.283   0.079
    1UNL     C3    3  -0.052  -0.361  -0.046
    1UNL     C4    4   0.084  -0.298  -0.095
    1UNL     O1    5   0.130  -0.335  -0.218
    1UNL     O2    6   0.183  -0.319   0.008
    1UNL     C5    7   0.129  -0.244   0.118
    1UNL     O3    8   0.010  -0.306   0.170
    1UNL     C6    9   0.068  -0.112   0.060
    1UNL     C7   10   0.113   0.028   0.117
    1UNL     O4   11   0.216   0.081   0.046
    1UNL     C8   12   0.336   0.018   0.074
    1UNL     O5   13   0.348  -0.068   0.157
    1UNL     C9   14   0.444   0.062  -0.013
    1UNL    C10   15   0.440   0.169  -0.106
    1UNL    C11   16   0.548   0.203  -0.183
    1UNL     O6   17   0.529   0.299  -0.284
    1UNL    C12   18   0.667   0.129  -0.172
    1UNL     O7   19   0.768   0.160  -0.255
    1UNL    C13   20   0.679   0.025  -0.075
    1UNL     O8   21   0.808  -0.044  -0.072
    1UNL    C14   22   0.569   0.004   0.013
    1UNL    C15   23   0.069  -0.143  -0.093
    1UNL    C16   24  -0.073  -0.086  -0.099
    1UNL    C17   25  -0.090  -0.125   0.046
    1UNL     O9   26  -0.145  -0.033   0.144
    1UNL    C18   27  -0.250   0.039   0.088
    1UNL    O10   28  -0.223   0.115  -0.035
    1UNL    C19   29  -0.337   0.190  -0.092
    1UNL    C20   30  -0.429   0.099  -0.180
    1UNL    O11   31  -0.544   0.165  -0.226
    1UNL    C21   32  -0.427   0.269   0.021
    1UNL    O12   33  -0.552   0.196   0.038
    1UNL    C22   34  -0.337   0.279   0.149
    1UNL    O13   35  -0.216   0.341   0.120
    1UNL    C23   36  -0.313   0.131   0.195
    1UNL    O14   37  -0.425   0.065   0.240
    1UNL     H1   38  -0.312  -0.279   0.075
    1UNL     H2   39  -0.248  -0.269   0.236
    1UNL     H3   40  -0.246  -0.426   0.158
    1UNL     H4   41  -0.032  -0.460  -0.015
    1UNL     H5   42  -0.126  -0.375  -0.126
    1UNL     H6   43   0.137  -0.432  -0.233
    1UNL     H7   44   0.213  -0.218   0.189
    1UNL     H8   45   0.032   0.104   0.097
    1UNL     H9   46   0.118   0.035   0.228
    1UNL    H10   47   0.339   0.217  -0.122
    1UNL    H11   48   0.456   0.352  -0.260
    1UNL    H12   49   0.840   0.093  -0.241
    1UNL    H13   50   0.800  -0.129  -0.016
    1UNL    H14   51   0.567  -0.085   0.077
    1UNL    H15   52   0.152  -0.101  -0.148
    1UNL    H16   53  -0.150  -0.133  -0.162
    1UNL    H17   54  -0.077   0.022  -0.102
    1UNL    H18   55  -0.323  -0.040   0.063
    1UNL    H19   56  -0.290   0.265  -0.159
    1UNL    H20   57  -0.463   0.019  -0.114
    1UNL    H21   58  -0.381   0.050  -0.258
    1UNL    H22   59  -0.529   0.261  -0.255
    1UNL    H23   60  -0.452   0.371  -0.004
    1UNL    H24   61  -0.588   0.173  -0.052
    1UNL    H25   62  -0.392   0.333   0.230
    1UNL    H26   63  -0.172   0.271   0.068
    1UNL    H27   64  -0.246   0.123   0.282
    1UNL    H28   65  -0.499   0.085   0.190
   0.00000   0.00000   0.00000   0.00000   0.00000   0.00000   0.00000   0.00000   0.00000
Generated with MDTraj, t= 74.0
 65
    1UNL     C1    1  -0.229  -0.317   0.122
    1UNL     C2    2  -0.091  -0.275   0.068
    1UNL     C3    3  -0.038  -0.344  -0.060
    1UNL     C4    4   0.094  -0.279  -0.096
    1UNL     O1    5   0.139  -0.333  -0.218
    1UNL     O2    6   0.179  -0.306   0.021
    1UNL     C5    7   0.120  -0.235   0.133
    1UNL     O3    8   0.001  -0.298   0.177
    1UNL     C6    9   0.068  -0.098   0.063
    1UNL     C7   10   0.112   0.036   0.116
    1UNL     O4   11   0.230   0.095   0.059
    1UNL     C8   12   0.343   0.020   0.079
    1UNL     O5   13   0.357  -0.070   0.155
    1UNL     C9   14   0.464   0.050  -0.005
    1UNL    C10   15   0.447   0.155  -0.099
    1UNL    C11   16   0.555   0.195  -0.174
    1UNL     O6   17   0.544   0.306  -0.249
    1UNL    C12   18   0.674   0.124  -0.179
    1UNL     O7   19   0.783   0.152  -0.266
    1UNL    C13   20   0.688   0.011  -0.091
    1UNL     O8   21   0.800  -0.064  -0.101
    1UNL    C14   22   0.580  -0.027  -0.007
    1UNL    C15   23   0.080  -0.115  -0.091
    1UNL    C16   24  -0.060  -0.061  -0.103
    1UNL    C17   25  -0.086  -0.117   0.040
    1UNL     O9   26  -0.161  -0.040   0.137
    1UNL    C18   27  -0.278   0.029   0.097
    1UNL    O10   28  -0.252   0.100  -0.029
    1UNL    C19   29  -0.356   0.170  -0.093
    1UNL    C20   30  -0.441   0.081  -0.183
    1UNL    O11   31  -0.551   0.158  -0.233
    1UNL    C21   32  -0.432   0.253   0.015
    1UNL    O12   33  -0.563   0.187   0.042
    1UNL    C22   34  -0.345   0.278   0.144
    1UNL    O13   35  -0.226   0.350   0.111
    1UNL    C23   36  -0.321   0.132   0.211
    1UNL    O14   37  -0.434   0.085   0.271
    1UNL     H1   38  -0.298  -0.321   0.038
    1UNL     H2   39  -0.264  -0.256   0.197
    1UNL     H3   40  -0.213  -0.418   0.168
    1UNL     H4   41  -0.024  -0.448  -0.057
    1UNL     H5   42  -0.118  -0.326  -0.140
    1UNL     H6   43   0.236  -0.313  -0.239
    1UNL     H7   44   0.190  -0.217   0.218
    1UNL     H8   45   0.031   0.107   0.123
    1UNL     H9   46   0.133   0.020   0.219
    1UNL    H10   47   0.359   0.205  -0.099
    1UNL    H11   48   0.475   0.364  -0.229
    1UNL    H12   49   0.855   0.091  -0.240
    1UNL    H13   50   0.795  -0.146  -0.044
    1UNL    H14   51   0.576  -0.125   0.035
    1UNL    H15   52   0.160  -0.069  -0.144
    1UNL    H16   53  -0.125  -0.105  -0.185
    1UNL    H17   54  -0.068   0.045  -0.114
    1UNL    H18   55  -0.360  -0.043   0.087
    1UNL    H19   56  -0.302   0.243  -0.157
    1UNL    H20   57  -0.481   0.002  -0.117
    1UNL    H21   58  -0.387   0.029  -0.256
    1UNL    H22   59  -0.574   0.137  -0.333
    1UNL    H23   60  -0.450   0.354  -0.024
    1UNL    H24   61  -0.616   0.189  -0.039
    1UNL    H25   62  -0.395   0.350   0.214
    1UNL    H26   63  -0.171   0.297   0.054
    1UNL    H27   64  -0.236   0.136   0.282
    1UNL    H28   65  -0.507   0.111   0.203
   0.00000   0.00000   0.00000   0.00000   0.00000   0.00000   0.00000   0.00000   0.00000
Generated with MDTraj, t= 75.0
 65
    1UNL     C1    1  -0.237  -0.322   0.100
    1UNL     C2    2  -0.097  -0.268   0.060
    1UNL     C3    3  -0.044  -0.330  -0.069
    1UNL     C4    4   0.100  -0.267  -0.097
    1UNL     O1    5   0.153  -0.309  -0.224
    1UNL     O2    6   0.185  -0.297   0.027
    1UNL     C5    7   0.119  -0.226   0.133
    1UNL     O3    8  -0.005  -0.295   0.169
    1UNL     C6    9   0.074  -0.089   0.075
    1UNL     C7   10   0.129   0.040   0.130
    1UNL     O4   11   0.231   0.078   0.043
    1UNL     C8   12   0.350   0.011   0.070
    1UNL     O5   13   0.374  -0.062   0.164
    1UNL     C9   14   0.468   0.050  -0.012
    1UNL    C10   15   0.473   0.174  -0.068
    1UNL    C11   16   0.575   0.203  -0.168
    1UNL     O6   17   0.563   0.314  -0.248
    1UNL    C12   18   0.686   0.110  -0.180
    1UNL     O7   19   0.795   0.142  -0.258
    1UNL    C13   20   0.686  -0.010  -0.106
    1UNL     O8   21   0.799  -0.095  -0.114
    1UNL    C14   22   0.574  -0.036  -0.027
    1UNL    C15   23   0.096  -0.108  -0.079
    1UNL    C16   24  -0.052  -0.053  -0.099
    1UNL    C17   25  -0.079  -0.105   0.050
    1UNL     O9   26  -0.159  -0.026   0.144
    1UNL    C18   27  -0.273   0.041   0.091
    1UNL    O10   28  -0.250   0.116  -0.031
    1UNL    C19   29  -0.373   0.175  -0.089
    1UNL    C20   30  -0.454   0.065  -0.161
    1UNL    O11   31  -0.573   0.108  -0.228
    1UNL    C21   32  -0.448   0.259   0.022
    1UNL    O12   33  -0.578   0.194   0.049
    1UNL    C22   34  -0.366   0.279   0.146
    1UNL    O13   35  -0.250   0.345   0.110
    1UNL    C23   36  -0.335   0.136   0.202
    1UNL    O14   37  -0.449   0.079   0.259
    1UNL     H1   38  -0.321  -0.304   0.031
    1UNL     H2   39  -0.258  -0.285   0.197
    1UNL     H3   40  -0.219  -0.426   0.123
    1UNL     H4   41  -0.039  -0.436  -0.059
    1UNL     H5   42  -0.113  -0.315  -0.160
    1UNL     H6   43   0.195  -0.401  -0.206
    1UNL     H7   44   0.185  -0.228   0.220
    1UNL     H8   45   0.058   0.118   0.126
    1UNL     H9   46   0.157   0.046   0.230
    1UNL    H10   47   0.395   0.255  -0.058
    1UNL    H11   48   0.480   0.355  -0.240
    1UNL    H12   49   0.843   0.057  -0.264
    1UNL    H13   50   0.792  -0.178  -0.062
    1UNL    H14   51   0.584  -0.127   0.032
    1UNL    H15   52   0.174  -0.042  -0.110
    1UNL    H16   53  -0.107  -0.111  -0.181
    1UNL    H17   54  -0.056   0.055  -0.108
    1UNL    H18   55  -0.352  -0.033   0.070
    1UNL    H19   56  -0.336   0.244  -0.165
    1UNL    H20   57  -0.490  -0.009  -0.088
    1UNL    H21   58  -0.390   0.009  -0.226
    1UNL    H22   59  -0.586   0.053  -0.310
    1UNL    H23   60  -0.471   0.355  -0.031
    1UNL    H24   61  -0.602   0.159  -0.041
    1UNL    H25   62  -0.425   0.333   0.224
    1UNL    H26   63  -0.200   0.295   0.033
    1UNL    H27   64  -0.261   0.139   0.288
    1UNL    H28   65  -0.524   0.061   0.199
   0.00000   0.00000   0.00000   0.00000   0.00000   0.00000   0.00000   0.00000   0.00000
Generated with MDTraj, t= 76.0
 65
    1UNL     C1    1  -0.245  -0.269   0.105
    1UNL     C2    2  -0.099  -0.239   0.064
    1UNL     C3    3  -0.051  -0.316  -0.063
    1UNL     C4    4   0.095  -0.260  -0.093
    1UNL     O1    5   0.135  -0.311  -0.225
    1UNL     O2    6   0.181  -0.301   0.017
    1UNL     C5    7   0.126  -0.227   0.121
    1UNL     O3    8   0.002  -0.279   0.164
    1UNL     C6    9   0.085  -0.081   0.064
    1UNL     C7   10   0.137   0.038   0.133
    1UNL     O4   11   0.245   0.096   0.064
    1UNL     C8   12   0.359   0.024   0.081
    1UNL     O5   13   0.379  -0.070   0.158
    1UNL     C9   14   0.473   0.060  -0.007
    1UNL    C10   15   0.479   0.173  -0.082
    1UNL    C11   16   0.596   0.200  -0.167
    1UNL     O6   17   0.610   0.323  -0.231
    1UNL    C12   18   0.692   0.097  -0.175
    1UNL     O7   19   0.797   0.122  -0.264
    1UNL    C13   20   0.682  -0.024  -0.103
    1UNL     O8   21   0.782  -0.115  -0.127
    1UNL    C14   22   0.573  -0.036  -0.015
    1UNL    C15   23   0.091  -0.099  -0.093
    1UNL    C16   24  -0.047  -0.036  -0.109
    1UNL    C17   25  -0.077  -0.086   0.045
    1UNL     O9   26  -0.133   0.004   0.141
    1UNL    C18   27  -0.256   0.046   0.091
    1UNL    O10   28  -0.250   0.113  -0.035
    1UNL    C19   29  -0.380   0.157  -0.093
    1UNL    C20   30  -0.470   0.044  -0.141
    1UNL    O11   31  -0.591   0.079  -0.202
    1UNL    C21   32  -0.457   0.240   0.011
    1UNL    O12   33  -0.593   0.199   0.037
    1UNL    C22   34  -0.385   0.257   0.146
    1UNL    O13   35  -0.275   0.343   0.124
    1UNL    C23   36  -0.340   0.118   0.198
    1UNL    O14   37  -0.450   0.039   0.234
    1UNL     H1   38  -0.314  -0.217   0.039
    1UNL     H2   39  -0.268  -0.234   0.208
    1UNL     H3   40  -0.266  -0.370   0.115
    1UNL     H4   41  -0.041  -0.427  -0.061
    1UNL     H5   42  -0.124  -0.302  -0.146
    1UNL     H6   43   0.220  -0.366  -0.205
    1UNL     H7   44   0.199  -0.233   0.201
    1UNL     H8   45   0.063   0.112   0.134
    1UNL     H9   46   0.151   0.018   0.235
    1UNL    H10   47   0.396   0.238  -0.095
    1UNL    H11   48   0.534   0.374  -0.218
    1UNL    H12   49   0.871   0.060  -0.240
    1UNL    H13   50   0.753  -0.185  -0.072
    1UNL    H14   51   0.568  -0.118   0.057
    1UNL    H15   52   0.177  -0.049  -0.131
    1UNL    H16   53  -0.109  -0.090  -0.186
    1UNL    H17   54  -0.048   0.075  -0.122
    1UNL    H18   55  -0.308  -0.046   0.066
    1UNL    H19   56  -0.364   0.228  -0.175
    1UNL    H20   57  -0.501  -0.009  -0.052
    1UNL    H21   58  -0.417  -0.024  -0.210
    1UNL    H22   59  -0.647   0.004  -0.208
    1UNL    H23   60  -0.468   0.349  -0.021
    1UNL    H24   61  -0.655   0.205  -0.040
    1UNL    H25   62  -0.454   0.302   0.220
    1UNL    H26   63  -0.212   0.301   0.072
    1UNL    H27   64  -0.260   0.127   0.281
    1UNL    H28   65  -0.529   0.083   0.203
   0.00000   0.00000   0.00000   0.00000   0.00000   0.00000   0.00000   0.00000   0.00000
Generated with MDTraj, t= 77.0
 65
    1UNL     C1    1  -0.239  -0.256   0.123
    1UNL     C2    2  -0.096  -0.235   0.071
    1UNL     C3    3  -0.053  -0.305  -0.064
    1UNL     C4    4   0.085  -0.247  -0.104
    1UNL     O1    5   0.128  -0.292  -0.236
    1UNL     O2    6   0.176  -0.277   0.008
    1UNL     C5    7   0.130  -0.210   0.126
    1UNL     O3    8   0.008  -0.271   0.174
    1UNL     C6    9   0.089  -0.067   0.057
    1UNL     C7   10   0.147   0.060   0.113
    1UNL     O4   11   0.264   0.108   0.053
    1UNL     C8   12   0.371   0.025   0.082
    1UNL     O5   13   0.366  -0.069   0.158
    1UNL     C9   14   0.495   0.045   0.002
    1UNL    C10   15   0.504   0.170  -0.061
    1UNL    C11   16   0.609   0.189  -0.148
    1UNL     O6   17   0.633   0.307  -0.218
    1UNL    C12   18   0.703   0.091  -0.179
    1UNL     O7   19   0.811   0.106  -0.268
    1UNL    C13   20   0.697  -0.030  -0.109
    1UNL     O8   21   0.793  -0.127  -0.143
    1UNL    C14   22   0.596  -0.053  -0.016
    1UNL    C15   23   0.089  -0.094  -0.097
    1UNL    C16   24  -0.050  -0.026  -0.104
    1UNL    C17   25  -0.069  -0.070   0.044
    1UNL     O9   26  -0.139   0.020   0.124
    1UNL    C18   27  -0.268   0.048   0.078
    1UNL    O10   28  -0.272   0.131  -0.035
    1UNL    C19   29  -0.410   0.157  -0.086
    1UNL    C20   30  -0.478   0.018  -0.122
    1UNL    O11   31  -0.598   0.035  -0.198
    1UNL    C21   32  -0.480   0.246   0.021
    1UNL    O12   33  -0.608   0.196   0.044
    1UNL    C22   34  -0.397   0.254   0.153
    1UNL    O13   35  -0.276   0.334   0.137
    1UNL    C23   36  -0.360   0.102   0.193
    1UNL    O14   37  -0.476   0.019   0.213
    1UNL     H1   38  -0.316  -0.222   0.058
    1UNL     H2   39  -0.256  -0.204   0.222
    1UNL     H3   40  -0.258  -0.353   0.153
    1UNL     H4   41  -0.031  -0.419  -0.051
    1UNL     H5   42  -0.122  -0.308  -0.147
    1UNL     H6   43   0.205  -0.354  -0.213
    1UNL     H7   44   0.208  -0.200   0.199
    1UNL     H8   45   0.067   0.134   0.110
    1UNL     H9   46   0.155   0.042   0.219
    1UNL    H10   47   0.428   0.243  -0.042
    1UNL    H11   48   0.570   0.377  -0.207
    1UNL    H12   49   0.866   0.025  -0.258
    1UNL    H13   50   0.783  -0.208  -0.095
    1UNL    H14   51   0.592  -0.152   0.021
    1UNL    H15   52   0.166  -0.053  -0.158
    1UNL    H16   53  -0.116  -0.067  -0.181
    1UNL    H17   54  -0.057   0.087  -0.122
    1UNL    H18   55  -0.325  -0.039   0.051
    1UNL    H19   56  -0.403   0.214  -0.179
    1UNL    H20   57  -0.506  -0.036  -0.034
    1UNL    H21   58  -0.403  -0.040  -0.185
    1UNL    H22   59  -0.593   0.014  -0.292
    1UNL    H23   60  -0.486   0.352  -0.016
    1UNL    H24   61  -0.651   0.184  -0.041
    1UNL    H25   62  -0.459   0.295   0.234
    1UNL    H26   63  -0.210   0.278   0.077
    1UNL    H27   64  -0.307   0.104   0.296
    1UNL    H28   65  -0.552   0.086   0.240
   0.00000   0.00000   0.00000   0.00000   0.00000   0.00000   0.00000   0.00000   0.00000
Generated with MDTraj, t= 78.0
 65
    1UNL     C1    1  -0.217  -0.283   0.136
    1UNL     C2    2  -0.086  -0.222   0.072
    1UNL     C3    3  -0.041  -0.300  -0.059
    1UNL     C4    4   0.089  -0.232  -0.112
    1UNL     O1    5   0.126  -0.286  -0.236
    1UNL     O2    6   0.186  -0.268  -0.010
    1UNL     C5    7   0.148  -0.193   0.109
    1UNL     O3    8   0.026  -0.254   0.161
    1UNL     C6    9   0.091  -0.052   0.060
    1UNL     C7   10   0.159   0.083   0.099
    1UNL     O4   11   0.278   0.102   0.027
    1UNL     C8   12   0.376   0.026   0.074
    1UNL     O5   13   0.376  -0.054   0.165
    1UNL     C9   14   0.499   0.038  -0.009
    1UNL    C10   15   0.532   0.163  -0.069
    1UNL    C11   16   0.633   0.183  -0.152
    1UNL     O6   17   0.649   0.312  -0.212
    1UNL    C12   18   0.722   0.073  -0.176
    1UNL     O7   19   0.837   0.092  -0.247
    1UNL    C13   20   0.700  -0.055  -0.113
    1UNL     O8   21   0.807  -0.144  -0.135
    1UNL    C14   22   0.584  -0.070  -0.031
    1UNL    C15   23   0.086  -0.078  -0.096
    1UNL    C16   24  -0.062  -0.023  -0.096
    1UNL    C17   25  -0.072  -0.066   0.050
    1UNL     O9   26  -0.151   0.022   0.138
    1UNL    C18   27  -0.281   0.047   0.092
    1UNL    O10   28  -0.282   0.121  -0.032
    1UNL    C19   29  -0.417   0.148  -0.082
    1UNL    C20   30  -0.493   0.019  -0.124
    1UNL    O11   31  -0.624   0.055  -0.182
    1UNL    C21   32  -0.496   0.234   0.020
    1UNL    O12   33  -0.632   0.193   0.034
    1UNL    C22   34  -0.424   0.243   0.158
    1UNL    O13   35  -0.318   0.336   0.150
    1UNL    C23   36  -0.378   0.102   0.202
    1UNL    O14   37  -0.493   0.020   0.212
    1UNL     H1   38  -0.302  -0.281   0.073
    1UNL     H2   39  -0.247  -0.228   0.229
    1UNL     H3   40  -0.204  -0.379   0.178
    1UNL     H4   41  -0.013  -0.411  -0.030
    1UNL     H5   42  -0.111  -0.325  -0.137
    1UNL     H6   43   0.219  -0.313  -0.227
    1UNL     H7   44   0.225  -0.201   0.183
    1UNL     H8   45   0.084   0.157   0.060
    1UNL     H9   46   0.160   0.100   0.209
    1UNL    H10   47   0.463   0.238  -0.028
    1UNL    H11   48   0.573   0.363  -0.180
    1UNL    H12   49   0.872   0.002  -0.264
    1UNL    H13   50   0.794  -0.226  -0.085
    1UNL    H14   51   0.551  -0.169   0.007
    1UNL    H15   52   0.163  -0.039  -0.162
    1UNL    H16   53  -0.119  -0.075  -0.172
    1UNL    H17   54  -0.067   0.090  -0.114
    1UNL    H18   55  -0.320  -0.048   0.063
    1UNL    H19   56  -0.396   0.203  -0.176
    1UNL    H20   57  -0.508  -0.036  -0.035
    1UNL    H21   58  -0.426  -0.044  -0.195
    1UNL    H22   59  -0.629   0.052  -0.285
    1UNL    H23   60  -0.494   0.334  -0.028
    1UNL    H24   61  -0.653   0.135  -0.045
    1UNL    H25   62  -0.505   0.280   0.223
    1UNL    H26   63  -0.261   0.303   0.081
    1UNL    H27   64  -0.300   0.103   0.289
    1UNL    H28   65  -0.571   0.062   0.180
   0.00000   0.00000   0.00000   0.00000   0.00000   0.00000   0.00000   0.00000   0.00000
Generated with MDTraj, t= 79.0
 65
    1UNL     C1    1  -0.208  -0.298   0.140
    1UNL     C2    2  -0.086  -0.229   0.072
    1UNL     C3    3  -0.039  -0.300  -0.056
    1UNL     C4    4   0.089  -0.228  -0.109
    1UNL     O1    5   0.121  -0.267  -0.246
    1UNL     O2    6   0.190  -0.244  -0.005
    1UNL     C5    7   0.141  -0.173   0.110
    1UNL     O3    8   0.029  -0.244   0.164
    1UNL     C6    9   0.075  -0.043   0.044
    1UNL     C7   10   0.154   0.086   0.092
    1UNL     O4   11   0.272   0.121   0.019
    1UNL     C8   12   0.382   0.040   0.057
    1UNL     O5   13   0.381  -0.037   0.154
    1UNL     C9   14   0.499   0.055  -0.023
    1UNL    C10   15   0.527   0.169  -0.097
    1UNL    C11   16   0.651   0.180  -0.158
    1UNL     O6   17   0.699   0.299  -0.221
    1UNL    C12   18   0.740   0.071  -0.165
    1UNL     O7   19   0.864   0.058  -0.224
    1UNL    C13   20   0.702  -0.051  -0.100
    1UNL     O8   21   0.780  -0.166  -0.114
    1UNL    C14   22   0.588  -0.056  -0.027
    1UNL    C15   23   0.060  -0.072  -0.110
    1UNL    C16   24  -0.088  -0.017  -0.106
    1UNL    C17   25  -0.084  -0.068   0.047
    1UNL     O9   26  -0.154   0.017   0.136
    1UNL    C18   27  -0.284   0.037   0.086
    1UNL    O10   28  -0.291   0.113  -0.037
    1UNL    C19   29  -0.425   0.148  -0.073
    1UNL    C20   30  -0.501   0.026  -0.120
    1UNL    O11   31  -0.614   0.066  -0.199
    1UNL    C21   32  -0.512   0.228   0.032
    1UNL    O12   33  -0.636   0.162   0.064
    1UNL    C22   34  -0.429   0.239   0.159
    1UNL    O13   35  -0.311   0.318   0.145
    1UNL    C23   36  -0.374   0.095   0.200
    1UNL    O14   37  -0.484   0.004   0.233
    1UNL     H1   38  -0.274  -0.336   0.063
    1UNL     H2   39  -0.258  -0.233   0.209
    1UNL     H3   40  -0.172  -0.378   0.205
    1UNL     H4   41  -0.015  -0.410  -0.052
    1UNL     H5   42  -0.121  -0.298  -0.131
    1UNL     H6   43   0.177  -0.342  -0.248
    1UNL     H7   44   0.215  -0.156   0.186
    1UNL     H8   45   0.079   0.173   0.080
    1UNL     H9   46   0.172   0.081   0.205
    1UNL    H10   47   0.457   0.251  -0.106
    1UNL    H11   48   0.633   0.370  -0.201
    1UNL    H12   49   0.911  -0.020  -0.186
    1UNL    H13   50   0.739  -0.230  -0.051
    1UNL    H14   51   0.564  -0.142   0.027
    1UNL    H15   52   0.124  -0.016  -0.178
    1UNL    H16   53  -0.153  -0.066  -0.180
    1UNL    H17   54  -0.072   0.096  -0.110
    1UNL    H18   55  -0.341  -0.051   0.061
    1UNL    H19   56  -0.415   0.220  -0.159
    1UNL    H20   57  -0.539  -0.031  -0.039
    1UNL    H21   58  -0.430  -0.042  -0.185
    1UNL    H22   59  -0.577   0.133  -0.269
    1UNL    H23   60  -0.528   0.332   0.007
    1UNL    H24   61  -0.691   0.149  -0.015
    1UNL    H25   62  -0.494   0.284   0.235
    1UNL    H26   63  -0.264   0.279   0.066
    1UNL    H27   64  -0.311   0.107   0.295
    1UNL    H28   65  -0.570   0.042   0.195
   0.00000   0.00000   0.00000   0.00000   0.00000   0.00000   0.00000   0.00000   0.00000
Generated with MDTraj, t= 80.0
 65
    1UNL     C1    1  -0.204  -0.271   0.134
    1UNL     C2    2  -0.075  -0.225   0.066
    1UNL     C3    3  -0.042  -0.297  -0.066
    1UNL     C4    4   0.089  -0.229  -0.126
    1UNL     O1    5   0.135  -0.280  -0.249
    1UNL     O2    6   0.190  -0.252  -0.019
    1UNL     C5    7   0.145  -0.175   0.097
    1UNL     O3    8   0.035  -0.246   0.156
    1UNL     C6    9   0.085  -0.040   0.032
    1UNL     C7   10   0.141   0.104   0.058
    1UNL     O4   11   0.253   0.124  -0.021
    1UNL     C8   12   0.354   0.065   0.039
    1UNL     O5   13   0.344   0.005   0.147
    1UNL     C9   14   0.487   0.066  -0.026
    1UNL    C10   15   0.538   0.174  -0.094
    1UNL    C11   16   0.662   0.173  -0.159
    1UNL     O6   17   0.713   0.276  -0.224
    1UNL    C12   18   0.735   0.051  -0.144
    1UNL     O7   19   0.861   0.040  -0.212
    1UNL    C13   20   0.686  -0.060  -0.075
    1UNL     O8   21   0.773  -0.163  -0.074
    1UNL    C14   22   0.562  -0.052  -0.017
    1UNL    C15   23   0.070  -0.068  -0.119
    1UNL    C16   24  -0.077  -0.027  -0.115
    1UNL    C17   25  -0.072  -0.063   0.035
    1UNL     O9   26  -0.144   0.013   0.128
    1UNL    C18   27  -0.283   0.033   0.091
    1UNL    O10   28  -0.295   0.118  -0.023
    1UNL    C19   29  -0.425   0.152  -0.072
    1UNL    C20   30  -0.489   0.037  -0.148
    1UNL    O11   31  -0.618   0.066  -0.188
    1UNL    C21   32  -0.514   0.219   0.044
    1UNL    O12   33  -0.628   0.136   0.078
    1UNL    C22   34  -0.424   0.227   0.171
    1UNL    O13   35  -0.319   0.321   0.167
    1UNL    C23   36  -0.363   0.090   0.213
    1UNL    O14   37  -0.463   0.003   0.264
    1UNL     H1   38  -0.283  -0.305   0.063
    1UNL     H2   39  -0.227  -0.204   0.211
    1UNL     H3   40  -0.172  -0.358   0.196
    1UNL     H4   41  -0.028  -0.400  -0.041
    1UNL     H5   42  -0.125  -0.307  -0.146
    1UNL     H6   43   0.203  -0.231  -0.290
    1UNL     H7   44   0.223  -0.168   0.172
    1UNL     H8   45   0.060   0.184   0.041
    1UNL     H9   46   0.162   0.106   0.172
    1UNL    H10   47   0.479   0.260  -0.108
    1UNL    H11   48   0.648   0.353  -0.231
    1UNL    H12   49   0.890  -0.053  -0.205
    1UNL    H13   50   0.740  -0.239  -0.015
    1UNL    H14   51   0.525  -0.133   0.055
    1UNL    H15   52   0.145  -0.007  -0.172
    1UNL    H16   53  -0.159  -0.090  -0.155
    1UNL    H17   54  -0.090   0.081  -0.137
    1UNL    H18   55  -0.324  -0.060   0.056
    1UNL    H19   56  -0.417   0.232  -0.150
    1UNL    H20   57  -0.497  -0.058  -0.098
    1UNL    H21   58  -0.438   0.018  -0.254
    1UNL    H22   59  -0.618   0.157  -0.222
    1UNL    H23   60  -0.546   0.318   0.020
    1UNL    H24   61  -0.671   0.109  -0.007
    1UNL    H25   62  -0.491   0.255   0.254
    1UNL    H26   63  -0.240   0.281   0.114
    1UNL    H27   64  -0.280   0.108   0.288
    1UNL    H28   65  -0.542   0.022   0.199
   0.00000   0.00000   0.00000   0.00000   0.00000   0.00000   0.00000   0.00000   0.00000
Generated with MDTraj, t= 81.0
 65
    1UNL     C1    1  -0.190  -0.282   0.126
    1UNL     C2    2  -0.065  -0.228   0.057
    1UNL     C3    3  -0.023  -0.313  -0.067
    1UNL     C4    4   0.095  -0.240  -0.137
    1UNL     O1    5   0.132  -0.307  -0.261
    1UNL     O2    6   0.206  -0.229  -0.047
    1UNL     C5    7   0.155  -0.154   0.066
    1UNL     O3    8   0.057  -0.227   0.139
    1UNL     C6    9   0.076  -0.036  -0.004
    1UNL     C7   10   0.123   0.104   0.038
    1UNL     O4   11   0.243   0.138  -0.014
    1UNL     C8   12   0.346   0.081   0.054
    1UNL     O5   13   0.325   0.041   0.168
    1UNL     C9   14   0.479   0.061  -0.013
    1UNL    C10   15   0.525   0.167  -0.092
    1UNL    C11   16   0.653   0.156  -0.155
    1UNL     O6   17   0.707   0.252  -0.242
    1UNL    C12   18   0.731   0.042  -0.135
    1UNL     O7   19   0.850   0.032  -0.189
    1UNL    C13   20   0.686  -0.062  -0.053
    1UNL     O8   21   0.774  -0.172  -0.044
    1UNL    C14   22   0.557  -0.052   0.004
    1UNL    C15   23   0.049  -0.079  -0.146
    1UNL    C16   24  -0.101  -0.060  -0.126
    1UNL    C17   25  -0.079  -0.077   0.023
    1UNL     O9   26  -0.148   0.012   0.110
    1UNL    C18   27  -0.275   0.057   0.078
    1UNL    O10   28  -0.285   0.152  -0.027
    1UNL    C19   29  -0.427   0.167  -0.059
    1UNL    C20   30  -0.483   0.055  -0.134
    1UNL    O11   31  -0.611   0.077  -0.188
    1UNL    C21   32  -0.518   0.199   0.073
    1UNL    O12   33  -0.616   0.098   0.100
    1UNL    C22   34  -0.425   0.231   0.197
    1UNL    O13   35  -0.341   0.347   0.168
    1UNL    C23   36  -0.343   0.104   0.219
    1UNL    O14   37  -0.423  -0.006   0.262
    1UNL     H1   38  -0.272  -0.242   0.066
    1UNL     H2   39  -0.195  -0.270   0.228
    1UNL     H3   40  -0.196  -0.393   0.111
    1UNL     H4   41  -0.002  -0.412  -0.043
    1UNL     H5   42  -0.114  -0.322  -0.139
    1UNL     H6   43   0.154  -0.398  -0.245
    1UNL     H7   44   0.239  -0.124   0.130
    1UNL     H8   45   0.045   0.178   0.003
    1UNL     H9   46   0.125   0.113   0.152
    1UNL    H10   47   0.468   0.267  -0.094
    1UNL    H11   48   0.651   0.333  -0.273
    1UNL    H12   49   0.879  -0.062  -0.178
    1UNL    H13   50   0.740  -0.248   0.015
    1UNL    H14   51   0.524  -0.125   0.064
    1UNL    H15   52   0.089  -0.015  -0.227
    1UNL    H16   53  -0.174  -0.132  -0.175
    1UNL    H17   54  -0.139   0.038  -0.151
    1UNL    H18   55  -0.329  -0.031   0.050
    1UNL    H19   56  -0.424   0.256  -0.126
    1UNL    H20   57  -0.494  -0.030  -0.067
    1UNL    H21   58  -0.408   0.021  -0.219
    1UNL    H22   59  -0.599   0.122  -0.268
    1UNL    H23   60  -0.572   0.290   0.047
    1UNL    H24   61  -0.651   0.079   0.009
    1UNL    H25   62  -0.498   0.250   0.278
    1UNL    H26   63  -0.259   0.319   0.135
    1UNL    H27   64  -0.262   0.110   0.294
    1UNL    H28   65  -0.501   0.004   0.214
   0.00000   0.00000   0.00000   0.00000   0.00000   0.00000   0.00000   0.00000   0.00000
Generated with MDTraj, t= 82.0
 65
    1UNL     C1    1  -0.178  -0.264   0.141
    1UNL     C2    2  -0.059  -0.221   0.058
    1UNL     C3    3  -0.040  -0.300  -0.071
    1UNL     C4    4   0.083  -0.237  -0.147
    1UNL     O1    5   0.104  -0.296  -0.278
    1UNL     O2    6   0.196  -0.244  -0.062
    1UNL     C5    7   0.160  -0.158   0.047
    1UNL     O3    8   0.065  -0.228   0.129
    1UNL     C6    9   0.084  -0.041  -0.015
    1UNL     C7   10   0.125   0.104   0.011
    1UNL     O4   11   0.249   0.126  -0.045
    1UNL     C8   12   0.342   0.090   0.046
    1UNL     O5   13   0.315   0.049   0.158
    1UNL     C9   14   0.485   0.081   0.007
    1UNL    C10   15   0.519   0.161  -0.106
    1UNL    C11   16   0.645   0.150  -0.162
    1UNL     O6   17   0.688   0.237  -0.257
    1UNL    C12   18   0.720   0.040  -0.118
    1UNL     O7   19   0.837   0.007  -0.185
    1UNL    C13   20   0.677  -0.052  -0.020
    1UNL     O8   21   0.747  -0.165   0.005
    1UNL    C14   22   0.563  -0.020   0.052
    1UNL    C15   23   0.052  -0.081  -0.165
    1UNL    C16   24  -0.103  -0.042  -0.132
    1UNL    C17   25  -0.073  -0.069   0.013
    1UNL     O9   26  -0.131   0.012   0.117
    1UNL    C18   27  -0.265   0.042   0.085
    1UNL    O10   28  -0.280   0.136  -0.026
    1UNL    C19   29  -0.418   0.171  -0.059
    1UNL    C20   30  -0.474   0.072  -0.155
    1UNL    O11   31  -0.613   0.091  -0.171
    1UNL    C21   32  -0.513   0.189   0.071
    1UNL    O12   33  -0.589   0.070   0.097
    1UNL    C22   34  -0.423   0.215   0.193
    1UNL    O13   35  -0.349   0.337   0.182
    1UNL    C23   36  -0.331   0.096   0.216
    1UNL    O14   37  -0.395  -0.007   0.283
    1UNL     H1   38  -0.251  -0.317   0.082
    1UNL     H2   39  -0.218  -0.177   0.191
    1UNL     H3   40  -0.153  -0.315   0.236
    1UNL     H4   41  -0.004  -0.395  -0.036
    1UNL     H5   42  -0.128  -0.312  -0.134
    1UNL     H6   43   0.189  -0.253  -0.309
    1UNL     H7   44   0.237  -0.121   0.115
    1UNL     H8   45   0.055   0.178  -0.030
    1UNL     H9   46   0.132   0.125   0.119
    1UNL    H10   47   0.452   0.227  -0.141
    1UNL    H11   48   0.614   0.312  -0.260
    1UNL    H12   49   0.890  -0.060  -0.136
    1UNL    H13   50   0.699  -0.211   0.082
    1UNL    H14   51   0.521  -0.104   0.117
    1UNL    H15   52   0.110  -0.023  -0.241
    1UNL    H16   53  -0.179  -0.116  -0.173
    1UNL    H17   54  -0.124   0.062  -0.146
    1UNL    H18   55  -0.312  -0.051   0.059
    1UNL    H19   56  -0.413   0.270  -0.107
    1UNL    H20   57  -0.457  -0.028  -0.117
    1UNL    H21   58  -0.418   0.076  -0.259
    1UNL    H22   59  -0.640   0.157  -0.240
    1UNL    H23   60  -0.577   0.280   0.069
    1UNL    H24   61  -0.659   0.061   0.031
    1UNL    H25   62  -0.489   0.232   0.280
    1UNL    H26   63  -0.251   0.311   0.156
    1UNL    H27   64  -0.259   0.136   0.287
    1UNL    H28   65  -0.488  -0.008   0.239
   0.00000   0.00000   0.00000   0.00000   0.00000   0.00000   0.00000   0.00000   0.00000
Generated with MDTraj, t= 83.0
 65
    1UNL     C1    1  -0.167  -0.284   0.150
    1UNL     C2    2  -0.066  -0.223   0.058
    1UNL     C3    3  -0.046  -0.306  -0.080
    1UNL     C4    4   0.059  -0.238  -0.168
    1UNL     O1    5   0.081  -0.301  -0.295
    1UNL     O2    6   0.175  -0.240  -0.083
    1UNL     C5    7   0.151  -0.150   0.026
    1UNL     O3    8   0.069  -0.226   0.117
    1UNL     C6    9   0.069  -0.031  -0.029
    1UNL     C7   10   0.114   0.111   0.013
    1UNL     O4   11   0.247   0.146  -0.039
    1UNL     C8   12   0.349   0.097   0.047
    1UNL     O5   13   0.328   0.063   0.164
    1UNL     C9   14   0.478   0.081  -0.014
    1UNL    C10   15   0.529   0.160  -0.113
    1UNL    C11   16   0.648   0.128  -0.167
    1UNL     O6   17   0.689   0.197  -0.280
    1UNL    C12   18   0.728   0.021  -0.121
    1UNL     O7   19   0.855  -0.006  -0.172
    1UNL    C13   20   0.686  -0.041  -0.004
    1UNL     O8   21   0.775  -0.124   0.067
    1UNL    C14   22   0.562  -0.008   0.047
    1UNL    C15   23   0.032  -0.079  -0.171
    1UNL    C16   24  -0.110  -0.033  -0.135
    1UNL    C17   25  -0.078  -0.074   0.016
    1UNL     O9   26  -0.131   0.013   0.111
    1UNL    C18   27  -0.267   0.044   0.088
    1UNL    O10   28  -0.286   0.152  -0.008
    1UNL    C19   29  -0.420   0.179  -0.042
    1UNL    C20   30  -0.462   0.089  -0.152
    1UNL    O11   31  -0.599   0.096  -0.181
    1UNL    C21   32  -0.521   0.176   0.080
    1UNL    O12   33  -0.575   0.041   0.096
    1UNL    C22   34  -0.430   0.216   0.204
    1UNL    O13   35  -0.353   0.328   0.176
    1UNL    C23   36  -0.328   0.094   0.222
    1UNL    O14   37  -0.388  -0.012   0.298
    1UNL     H1   38  -0.261  -0.239   0.134
    1UNL     H2   39  -0.135  -0.278   0.258
    1UNL     H3   40  -0.173  -0.389   0.136
    1UNL     H4   41  -0.009  -0.404  -0.051
    1UNL     H5   42  -0.131  -0.309  -0.135
    1UNL     H6   43   0.181  -0.291  -0.316
    1UNL     H7   44   0.245  -0.122   0.078
    1UNL     H8   45   0.044   0.188  -0.007
    1UNL     H9   46   0.125   0.109   0.119
    1UNL    H10   47   0.479   0.252  -0.155
    1UNL    H11   48   0.619   0.273  -0.299
    1UNL    H12   49   0.892  -0.082  -0.123
    1UNL    H13   50   0.740  -0.146   0.157
    1UNL    H14   51   0.529  -0.047   0.144
    1UNL    H15   52   0.077  -0.021  -0.255
    1UNL    H16   53  -0.189  -0.102  -0.170
    1UNL    H17   54  -0.138   0.071  -0.143
    1UNL    H18   55  -0.305  -0.046   0.042
    1UNL    H19   56  -0.428   0.278  -0.086
    1UNL    H20   57  -0.437  -0.013  -0.126
    1UNL    H21   58  -0.398   0.106  -0.249
    1UNL    H22   59  -0.633   0.169  -0.248
    1UNL    H23   60  -0.602   0.252   0.055
    1UNL    H24   61  -0.608   0.003   0.009
    1UNL    H25   62  -0.487   0.230   0.297
    1UNL    H26   63  -0.289   0.301   0.108
    1UNL    H27   64  -0.252   0.129   0.288
    1UNL    H28   65  -0.479  -0.037   0.267
   0.00000   0.00000   0.00000   0.00000   0.00000   0.00000   0.00000   0.00000   0.00000
Generated with MDTraj, t= 84.0
 65
    1UNL     C1    1  -0.170  -0.292   0.136
    1UNL     C2    2  -0.064  -0.233   0.052
    1UNL     C3    3  -0.049  -0.299  -0.084
    1UNL     C4    4   0.050  -0.223  -0.170
    1UNL     O1    5   0.064  -0.260  -0.311
    1UNL     O2    6   0.177  -0.236  -0.099
    1UNL     C5    7   0.151  -0.161   0.020
    1UNL     O3    8   0.063  -0.226   0.109
    1UNL     C6    9   0.064  -0.035  -0.024
    1UNL     C7   10   0.120   0.106  -0.011
    1UNL     O4   11   0.252   0.127  -0.066
    1UNL     C8   12   0.343   0.093   0.032
    1UNL     O5   13   0.316   0.058   0.145
    1UNL     C9   14   0.488   0.074  -0.010
    1UNL    C10   15   0.525   0.113  -0.134
    1UNL    C11   16   0.651   0.092  -0.187
    1UNL     O6   17   0.685   0.142  -0.309
    1UNL    C12   18   0.747   0.036  -0.105
    1UNL     O7   19   0.875   0.026  -0.144
    1UNL    C13   20   0.712  -0.021   0.024
    1UNL     O8   21   0.804  -0.096   0.092
    1UNL    C14   22   0.579  -0.002   0.067
    1UNL    C15   23   0.019  -0.067  -0.171
    1UNL    C16   24  -0.121  -0.032  -0.120
    1UNL    C17   25  -0.084  -0.071   0.021
    1UNL     O9   26  -0.135   0.019   0.122
    1UNL    C18   27  -0.268   0.056   0.102
    1UNL    O10   28  -0.274   0.153  -0.006
    1UNL    C19   29  -0.411   0.181  -0.045
    1UNL    C20   30  -0.454   0.076  -0.149
    1UNL    O11   31  -0.588   0.090  -0.173
    1UNL    C21   32  -0.509   0.170   0.082
    1UNL    O12   33  -0.581   0.045   0.089
    1UNL    C22   34  -0.438   0.205   0.213
    1UNL    O13   35  -0.399   0.341   0.217
    1UNL    C23   36  -0.328   0.102   0.238
    1UNL    O14   37  -0.398  -0.013   0.297
    1UNL     H1   38  -0.245  -0.322   0.066
    1UNL     H2   39  -0.208  -0.225   0.219
    1UNL     H3   40  -0.130  -0.375   0.186
    1UNL     H4   41   0.009  -0.389  -0.061
    1UNL     H5   42  -0.136  -0.310  -0.138
    1UNL     H6   43   0.154  -0.231  -0.353
    1UNL     H7   44   0.247  -0.120   0.062
    1UNL     H8   45   0.050   0.163  -0.065
    1UNL     H9   46   0.118   0.150   0.083
    1UNL    H10   47   0.438   0.142  -0.191
    1UNL    H11   48   0.602   0.187  -0.352
    1UNL    H12   49   0.927  -0.018  -0.073
    1UNL    H13   50   0.778  -0.123   0.182
    1UNL    H14   51   0.536  -0.032   0.154
    1UNL    H15   52   0.083  -0.005  -0.241
    1UNL    H16   53  -0.203  -0.086  -0.165
    1UNL    H17   54  -0.145   0.074  -0.136
    1UNL    H18   55  -0.313  -0.038   0.065
    1UNL    H19   56  -0.405   0.284  -0.081
    1UNL    H20   57  -0.444  -0.022  -0.104
    1UNL    H21   58  -0.382   0.073  -0.241
    1UNL    H22   59  -0.594   0.164  -0.243
    1UNL    H23   60  -0.582   0.254   0.065
    1UNL    H24   61  -0.635   0.032   0.011
    1UNL    H25   62  -0.513   0.197   0.295
    1UNL    H26   63  -0.345   0.370   0.150
    1UNL    H27   64  -0.256   0.146   0.302
    1UNL    H28   65  -0.473  -0.036   0.240
   0.00000   0.00000   0.00000   0.00000   0.00000   0.00000   0.00000   0.00000   0.00000
Generated with MDTraj, t= 85.0
 65
    1UNL     C1    1  -0.182  -0.257   0.135
    1UNL     C2    2  -0.074  -0.211   0.042
    1UNL     C3    3  -0.066  -0.293  -0.094
    1UNL     C4    4   0.040  -0.219  -0.183
    1UNL     O1    5   0.059  -0.256  -0.320
    1UNL     O2    6   0.170  -0.230  -0.109
    1UNL     C5    7   0.149  -0.157   0.011
    1UNL     O3    8   0.059  -0.231   0.100
    1UNL     C6    9   0.069  -0.030  -0.032
    1UNL     C7   10   0.125   0.101   0.013
    1UNL     O4   11   0.249   0.119  -0.055
    1UNL     C8   12   0.352   0.063   0.028
    1UNL     O5   13   0.330   0.023   0.142
    1UNL     C9   14   0.489   0.050  -0.026
    1UNL    C10   15   0.522   0.070  -0.159
    1UNL    C11   16   0.655   0.065  -0.197
    1UNL     O6   17   0.705   0.099  -0.326
    1UNL    C12   18   0.754   0.031  -0.102
    1UNL     O7   19   0.884   0.030  -0.138
    1UNL    C13   20   0.719   0.014   0.033
    1UNL     O8   21   0.820  -0.016   0.129
    1UNL    C14   22   0.589   0.026   0.070
    1UNL    C15   23   0.021  -0.060  -0.179
    1UNL    C16   24  -0.120  -0.020  -0.134
    1UNL    C17   25  -0.078  -0.061   0.015
    1UNL     O9   26  -0.131   0.027   0.118
    1UNL    C18   27  -0.271   0.053   0.101
    1UNL    O10   28  -0.293   0.168   0.017
    1UNL    C19   29  -0.431   0.184  -0.026
    1UNL    C20   30  -0.449   0.088  -0.149
    1UNL    O11   31  -0.581   0.083  -0.190
    1UNL    C21   32  -0.524   0.167   0.095
    1UNL    O12   33  -0.584   0.042   0.098
    1UNL    C22   34  -0.448   0.201   0.227
    1UNL    O13   35  -0.377   0.324   0.215
    1UNL    C23   36  -0.340   0.085   0.242
    1UNL    O14   37  -0.411  -0.028   0.304
    1UNL     H1   38  -0.281  -0.232   0.096
    1UNL     H2   39  -0.160  -0.216   0.236
    1UNL     H3   40  -0.171  -0.361   0.148
    1UNL     H4   41  -0.038  -0.388  -0.060
    1UNL     H5   42  -0.165  -0.286  -0.143
    1UNL     H6   43   0.142  -0.318  -0.323
    1UNL     H7   44   0.246  -0.142   0.065
    1UNL     H8   45   0.063   0.185  -0.002
    1UNL     H9   46   0.143   0.101   0.118
    1UNL    H10   47   0.447   0.088  -0.229
    1UNL    H11   48   0.631   0.114  -0.396
    1UNL    H12   49   0.939   0.006  -0.060
    1UNL    H13   50   0.791  -0.020   0.219
    1UNL    H14   51   0.563   0.020   0.185
    1UNL    H15   52   0.074  -0.001  -0.260
    1UNL    H16   53  -0.197  -0.083  -0.169
    1UNL    H17   54  -0.144   0.088  -0.143
    1UNL    H18   55  -0.314  -0.040   0.058
    1UNL    H19   56  -0.437   0.289  -0.061
    1UNL    H20   57  -0.412  -0.011  -0.122
    1UNL    H21   58  -0.390   0.120  -0.240
    1UNL    H22   59  -0.605   0.157  -0.242
    1UNL    H23   60  -0.609   0.239   0.086
    1UNL    H24   61  -0.607   0.007   0.006
    1UNL    H25   62  -0.518   0.194   0.312
    1UNL    H26   63  -0.306   0.308   0.141
    1UNL    H27   64  -0.271   0.109   0.317
    1UNL    H28   65  -0.501  -0.030   0.256
   0.00000   0.00000   0.00000   0.00000   0.00000   0.00000   0.00000   0.00000   0.00000
Generated with MDTraj, t= 86.0
 65
    1UNL     C1    1  -0.212  -0.258   0.115
    1UNL     C2    2  -0.089  -0.213   0.038
    1UNL     C3    3  -0.087  -0.275  -0.108
    1UNL     C4    4   0.032  -0.210  -0.180
    1UNL     O1    5   0.034  -0.259  -0.317
    1UNL     O2    6   0.146  -0.243  -0.108
    1UNL     C5    7   0.132  -0.171   0.020
    1UNL     O3    8   0.038  -0.240   0.102
    1UNL     C6    9   0.069  -0.033  -0.024
    1UNL     C7   10   0.149   0.093   0.013
    1UNL     O4   11   0.273   0.103  -0.051
    1UNL     C8   12   0.363   0.052   0.032
    1UNL     O5   13   0.335   0.002   0.138
    1UNL     C9   14   0.501   0.066  -0.012
    1UNL    C10   15   0.535   0.069  -0.145
    1UNL    C11   16   0.665   0.053  -0.190
    1UNL     O6   17   0.691   0.031  -0.323
    1UNL    C12   18   0.771   0.044  -0.094
    1UNL     O7   19   0.903   0.033  -0.142
    1UNL    C13   20   0.741   0.044   0.042
    1UNL     O8   21   0.853   0.055   0.121
    1UNL    C14   22   0.606   0.055   0.078
    1UNL    C15   23   0.021  -0.048  -0.170
    1UNL    C16   24  -0.125  -0.003  -0.130
    1UNL    C17   25  -0.085  -0.049   0.010
    1UNL     O9   26  -0.121   0.034   0.115
    1UNL    C18   27  -0.257   0.060   0.095
    1UNL    O10   28  -0.284   0.161   0.005
    1UNL    C19   29  -0.424   0.183  -0.030
    1UNL    C20   30  -0.472   0.089  -0.142
    1UNL    O11   31  -0.616   0.106  -0.163
    1UNL    C21   32  -0.522   0.165   0.088
    1UNL    O12   33  -0.588   0.042   0.097
    1UNL    C22   34  -0.446   0.182   0.221
    1UNL    O13   35  -0.384   0.314   0.226
    1UNL    C23   36  -0.337   0.073   0.228
    1UNL    O14   37  -0.388  -0.051   0.273
    1UNL     H1   38  -0.302  -0.231   0.059
    1UNL     H2   39  -0.202  -0.212   0.210
    1UNL     H3   40  -0.210  -0.366   0.135
    1UNL     H4   41  -0.071  -0.376  -0.113
    1UNL     H5   42  -0.183  -0.238  -0.160
    1UNL     H6   43   0.113  -0.323  -0.320
    1UNL     H7   44   0.225  -0.159   0.083
    1UNL     H8   45   0.103   0.193   0.011
    1UNL     H9   46   0.166   0.090   0.123
    1UNL    H10   47   0.451   0.082  -0.221
    1UNL    H11   48   0.603   0.009  -0.367
    1UNL    H12   49   0.968   0.037  -0.069
    1UNL    H13   50   0.810   0.059   0.207
    1UNL    H14   51   0.578   0.044   0.178
    1UNL    H15   52   0.071   0.024  -0.242
    1UNL    H16   53  -0.199  -0.063  -0.175
    1UNL    H17   54  -0.146   0.106  -0.135
    1UNL    H18   55  -0.291  -0.037   0.050
    1UNL    H19   56  -0.424   0.287  -0.074
    1UNL    H20   57  -0.465  -0.017  -0.113
    1UNL    H21   58  -0.410   0.102  -0.232
    1UNL    H22   59  -0.646   0.189  -0.199
    1UNL    H23   60  -0.596   0.246   0.078
    1UNL    H24   61  -0.662   0.037   0.036
    1UNL    H25   62  -0.518   0.173   0.305
    1UNL    H26   63  -0.307   0.314   0.162
    1UNL    H27   64  -0.266   0.106   0.296
    1UNL    H28   65  -0.467  -0.063   0.226
   0.00000   0.00000   0.00000   0.00000   0.00000   0.00000   0.00000   0.00000   0.00000
Generated with MDTraj, t= 87.0
 65
    1UNL     C1    1  -0.218  -0.257   0.104
    1UNL     C2    2  -0.100  -0.208   0.020
    1UNL     C3    3  -0.093  -0.276  -0.123
    1UNL     C4    4   0.037  -0.224  -0.196
    1UNL     O1    5   0.035  -0.274  -0.332
    1UNL     O2    6   0.156  -0.264  -0.116
    1UNL     C5    7   0.132  -0.191   0.009
    1UNL     O3    8   0.027  -0.246   0.086
    1UNL     C6    9   0.077  -0.045  -0.030
    1UNL     C7   10   0.160   0.073   0.028
    1UNL     O4   11   0.278   0.084  -0.038
    1UNL     C8   12   0.378   0.047   0.048
    1UNL     O5   13   0.355   0.020   0.163
    1UNL     C9   14   0.522   0.045   0.006
    1UNL    C10   15   0.542   0.004  -0.130
    1UNL    C11   16   0.673   0.020  -0.186
    1UNL     O6   17   0.694   0.007  -0.324
    1UNL    C12   18   0.784   0.052  -0.105
    1UNL     O7   19   0.913   0.057  -0.145
    1UNL    C13   20   0.756   0.079   0.031
    1UNL     O8   21   0.866   0.109   0.112
    1UNL    C14   22   0.629   0.079   0.089
    1UNL    C15   23   0.035  -0.066  -0.179
    1UNL    C16   24  -0.097  -0.004  -0.150
    1UNL    C17   25  -0.087  -0.049  -0.003
    1UNL     O9   26  -0.142   0.037   0.101
    1UNL    C18   27  -0.284   0.067   0.083
    1UNL    O10   28  -0.314   0.183   0.008
    1UNL    C19   29  -0.455   0.202  -0.018
    1UNL    C20   30  -0.484   0.108  -0.136
    1UNL    O11   31  -0.623   0.115  -0.172
    1UNL    C21   32  -0.538   0.175   0.115
    1UNL    O12   33  -0.600   0.048   0.116
    1UNL    C22   34  -0.448   0.185   0.239
    1UNL    O13   35  -0.392   0.318   0.244
    1UNL    C23   36  -0.345   0.072   0.234
    1UNL    O14   37  -0.402  -0.050   0.274
    1UNL     H1   38  -0.290  -0.299   0.034
    1UNL     H2   39  -0.257  -0.184   0.167
    1UNL     H3   40  -0.195  -0.340   0.177
    1UNL     H4   41  -0.085  -0.382  -0.106
    1UNL     H5   42  -0.191  -0.249  -0.174
    1UNL     H6   43   0.127  -0.292  -0.360
    1UNL     H7   44   0.230  -0.187   0.066
    1UNL     H8   45   0.106   0.171   0.011
    1UNL     H9   46   0.165   0.073   0.143
    1UNL    H10   47   0.462  -0.005  -0.191
    1UNL    H11   48   0.618  -0.029  -0.375
    1UNL    H12   49   0.963   0.100  -0.072
    1UNL    H13   50   0.842   0.132   0.205
    1UNL    H14   51   0.622   0.103   0.190
    1UNL    H15   52   0.105  -0.012  -0.250
    1UNL    H16   53  -0.178  -0.045  -0.208
    1UNL    H17   54  -0.109   0.104  -0.158
    1UNL    H18   55  -0.327  -0.024   0.033
    1UNL    H19   56  -0.470   0.309  -0.051
    1UNL    H20   57  -0.455   0.005  -0.104
    1UNL    H21   58  -0.425   0.129  -0.223
    1UNL    H22   59  -0.627   0.210  -0.210
    1UNL    H23   60  -0.614   0.252   0.124
    1UNL    H24   61  -0.630   0.035   0.021
    1UNL    H25   62  -0.510   0.175   0.329
    1UNL    H26   63  -0.332   0.321   0.170
    1UNL    H27   64  -0.264   0.086   0.299
    1UNL    H28   65  -0.497  -0.065   0.234
   0.00000   0.00000   0.00000   0.00000   0.00000   0.00000   0.00000   0.00000   0.00000
Generated with MDTraj, t= 88.0
 65
    1UNL     C1    1  -0.241  -0.264   0.086
    1UNL     C2    2  -0.114  -0.208   0.013
    1UNL     C3    3  -0.092  -0.279  -0.129
    1UNL     C4    4   0.037  -0.219  -0.196
    1UNL     O1    5   0.059  -0.260  -0.326
    1UNL     O2    6   0.142  -0.256  -0.105
    1UNL     C5    7   0.119  -0.198   0.016
    1UNL     O3    8   0.003  -0.252   0.087
    1UNL     C6    9   0.072  -0.051  -0.025
    1UNL     C7   10   0.156   0.067   0.014
    1UNL     O4   11   0.286   0.041  -0.041
    1UNL     C8   12   0.379   0.039   0.054
    1UNL     O5   13   0.359   0.044   0.172
    1UNL     C9   14   0.522   0.038   0.002
    1UNL    C10   15   0.547  -0.003  -0.131
    1UNL    C11   16   0.677   0.000  -0.184
    1UNL     O6   17   0.699  -0.040  -0.313
    1UNL    C12   18   0.779   0.062  -0.101
    1UNL     O7   19   0.907   0.087  -0.153
    1UNL    C13   20   0.756   0.104   0.033
    1UNL     O8   21   0.865   0.153   0.106
    1UNL    C14   22   0.625   0.086   0.083
    1UNL    C15   23   0.033  -0.062  -0.181
    1UNL    C16   24  -0.100   0.008  -0.144
    1UNL    C17   25  -0.086  -0.048  -0.002
    1UNL     O9   26  -0.141   0.033   0.099
    1UNL    C18   27  -0.283   0.055   0.081
    1UNL    O10   28  -0.298   0.170  -0.001
    1UNL    C19   29  -0.435   0.196  -0.020
    1UNL    C20   30  -0.492   0.115  -0.135
    1UNL    O11   31  -0.629   0.140  -0.149
    1UNL    C21   32  -0.523   0.181   0.111
    1UNL    O12   33  -0.598   0.057   0.114
    1UNL    C22   34  -0.441   0.188   0.241
    1UNL    O13   35  -0.374   0.311   0.259
    1UNL    C23   36  -0.345   0.060   0.230
    1UNL    O14   37  -0.399  -0.066   0.255
    1UNL     H1   38  -0.335  -0.228   0.052
    1UNL     H2   39  -0.227  -0.245   0.192
    1UNL     H3   40  -0.253  -0.375   0.084
    1UNL     H4   41  -0.085  -0.392  -0.104
    1UNL     H5   42  -0.180  -0.260  -0.191
    1UNL     H6   43   0.141  -0.306  -0.315
    1UNL     H7   44   0.219  -0.202   0.070
    1UNL     H8   45   0.107   0.166  -0.014
    1UNL     H9   46   0.160   0.070   0.130
    1UNL    H10   47   0.464  -0.046  -0.195
    1UNL    H11   48   0.630  -0.096  -0.350
    1UNL    H12   49   0.962   0.097  -0.073
    1UNL    H13   50   0.845   0.168   0.204
    1UNL    H14   51   0.593   0.124   0.190
    1UNL    H15   52   0.099  -0.002  -0.253
    1UNL    H16   53  -0.184  -0.026  -0.202
    1UNL    H17   54  -0.095   0.115  -0.158
    1UNL    H18   55  -0.325  -0.033   0.024
    1UNL    H19   56  -0.448   0.303  -0.047
    1UNL    H20   57  -0.502   0.006  -0.113
    1UNL    H21   58  -0.444   0.127  -0.227
    1UNL    H22   59  -0.646   0.238  -0.179
    1UNL    H23   60  -0.602   0.254   0.121
    1UNL    H24   61  -0.664   0.058   0.042
    1UNL    H25   62  -0.502   0.172   0.329
    1UNL    H26   63  -0.335   0.331   0.162
    1UNL    H27   64  -0.270   0.081   0.299
    1UNL    H28   65  -0.484  -0.060   0.212
   0.00000   0.00000   0.00000   0.00000   0.00000   0.00000   0.00000   0.00000   0.00000
Generated with MDTraj, t= 89.0
 65
    1UNL     C1    1  -0.247  -0.261   0.073
    1UNL     C2    2  -0.111  -0.230   0.003
    1UNL     C3    3  -0.100  -0.296  -0.142
    1UNL     C4    4   0.028  -0.226  -0.202
    1UNL     O1    5   0.051  -0.264  -0.336
    1UNL     O2    6   0.133  -0.279  -0.119
    1UNL     C5    7   0.119  -0.215   0.014
    1UNL     O3    8   0.008  -0.276   0.084
    1UNL     C6    9   0.067  -0.069  -0.020
    1UNL     C7   10   0.146   0.054   0.033
    1UNL     O4   11   0.275   0.068  -0.036
    1UNL     C8   12   0.382   0.064   0.056
    1UNL     O5   13   0.368   0.059   0.176
    1UNL     C9   14   0.513   0.059   0.003
    1UNL    C10   15   0.541   0.010  -0.123
    1UNL    C11   16   0.674   0.005  -0.172
    1UNL     O6   17   0.712  -0.065  -0.288
    1UNL    C12   18   0.777   0.062  -0.102
    1UNL     O7   19   0.910   0.067  -0.148
    1UNL    C13   20   0.747   0.121   0.023
    1UNL     O8   21   0.853   0.188   0.087
    1UNL    C14   22   0.616   0.108   0.076
    1UNL    C15   23   0.038  -0.075  -0.177
    1UNL    C16   24  -0.098   0.000  -0.147
    1UNL    C17   25  -0.090  -0.067  -0.008
    1UNL     O9   26  -0.133   0.018   0.100
    1UNL    C18   27  -0.275   0.047   0.089
    1UNL    O10   28  -0.296   0.166   0.013
    1UNL    C19   29  -0.431   0.210  -0.012
    1UNL    C20   30  -0.480   0.136  -0.133
    1UNL    O11   31  -0.615   0.158  -0.146
    1UNL    C21   32  -0.524   0.199   0.116
    1UNL    O12   33  -0.602   0.077   0.117
    1UNL    C22   34  -0.429   0.184   0.240
    1UNL    O13   35  -0.355   0.298   0.244
    1UNL    C23   36  -0.341   0.052   0.228
    1UNL    O14   37  -0.418  -0.063   0.256
    1UNL     H1   38  -0.324  -0.206   0.025
    1UNL     H2   39  -0.232  -0.226   0.180
    1UNL     H3   40  -0.286  -0.362   0.078
    1UNL     H4   41  -0.067  -0.410  -0.134
    1UNL     H5   42  -0.188  -0.294  -0.204
    1UNL     H6   43   0.141  -0.285  -0.341
    1UNL     H7   44   0.210  -0.209   0.077
    1UNL     H8   45   0.092   0.146  -0.002
    1UNL     H9   46   0.151   0.064   0.149
    1UNL    H10   47   0.475  -0.053  -0.177
    1UNL    H11   48   0.631  -0.096  -0.326
    1UNL    H12   49   0.959   0.133  -0.092
    1UNL    H13   50   0.817   0.228   0.174
    1UNL    H14   51   0.601   0.153   0.166
    1UNL    H15   52   0.112  -0.009  -0.234
    1UNL    H16   53  -0.178  -0.041  -0.211
    1UNL    H17   54  -0.085   0.107  -0.137
    1UNL    H18   55  -0.328  -0.041   0.042
    1UNL    H19   56  -0.416   0.316  -0.032
    1UNL    H20   57  -0.464   0.028  -0.114
    1UNL    H21   58  -0.435   0.165  -0.221
    1UNL    H22   59  -0.636   0.251  -0.167
    1UNL    H23   60  -0.592   0.284   0.124
    1UNL    H24   61  -0.643   0.072   0.028
    1UNL    H25   62  -0.484   0.182   0.334
    1UNL    H26   63  -0.271   0.286   0.200
    1UNL    H27   64  -0.262   0.054   0.299
    1UNL    H28   65  -0.512  -0.058   0.231
   0.00000   0.00000   0.00000   0.00000   0.00000   0.00000   0.00000   0.00000   0.00000
Generated with MDTraj, t= 90.0
 65
    1UNL     C1    1  -0.244  -0.287   0.073
    1UNL     C2    2  -0.112  -0.239   0.005
    1UNL     C3    3  -0.094  -0.305  -0.141
    1UNL     C4    4   0.032  -0.239  -0.210
    1UNL     O1    5   0.044  -0.255  -0.353
    1UNL     O2    6   0.146  -0.290  -0.132
    1UNL     C5    7   0.123  -0.227   0.002
    1UNL     O3    8   0.013  -0.291   0.067
    1UNL     C6    9   0.064  -0.079  -0.028
    1UNL     C7   10   0.139   0.042   0.026
    1UNL     O4   11   0.271   0.041  -0.029
    1UNL     C8   12   0.370   0.077   0.064
    1UNL     O5   13   0.357   0.094   0.183
    1UNL     C9   14   0.507   0.082  -0.002
    1UNL    C10   15   0.533   0.002  -0.112
    1UNL    C11   16   0.661   0.002  -0.164
    1UNL     O6   17   0.694  -0.068  -0.276
    1UNL    C12   18   0.767   0.066  -0.093
    1UNL     O7   19   0.899   0.048  -0.133
    1UNL    C13   20   0.739   0.149   0.018
    1UNL     O8   21   0.847   0.203   0.080
    1UNL    C14   22   0.606   0.165   0.058
    1UNL    C15   23   0.019  -0.085  -0.184
    1UNL    C16   24  -0.110  -0.021  -0.147
    1UNL    C17   25  -0.093  -0.080  -0.001
    1UNL     O9   26  -0.137  -0.003   0.115
    1UNL    C18   27  -0.272   0.037   0.089
    1UNL    O10   28  -0.270   0.166   0.010
    1UNL    C19   29  -0.408   0.212  -0.008
    1UNL    C20   30  -0.470   0.137  -0.126
    1UNL    O11   31  -0.597   0.184  -0.170
    1UNL    C21   32  -0.502   0.208   0.121
    1UNL    O12   33  -0.598   0.105   0.110
    1UNL    C22   34  -0.414   0.188   0.245
    1UNL    O13   35  -0.331   0.299   0.269
    1UNL    C23   36  -0.342   0.049   0.228
    1UNL    O14   37  -0.426  -0.060   0.266
    1UNL     H1   38  -0.320  -0.277  -0.006
    1UNL     H2   39  -0.266  -0.224   0.164
    1UNL     H3   40  -0.244  -0.389   0.099
    1UNL     H4   41  -0.089  -0.417  -0.144
    1UNL     H5   42  -0.181  -0.277  -0.205
    1UNL     H6   43   0.073  -0.343  -0.369
    1UNL     H7   44   0.212  -0.235   0.065
    1UNL     H8   45   0.084   0.134   0.004
    1UNL     H9   46   0.143   0.024   0.136
    1UNL    H10   47   0.451  -0.056  -0.153
    1UNL    H11   48   0.616  -0.085  -0.323
    1UNL    H12   49   0.960   0.090  -0.069
    1UNL    H13   50   0.817   0.240   0.169
    1UNL    H14   51   0.582   0.225   0.143
    1UNL    H15   52   0.087  -0.026  -0.254
    1UNL    H16   53  -0.190  -0.061  -0.215
    1UNL    H17   54  -0.114   0.087  -0.146
    1UNL    H18   55  -0.323  -0.049   0.034
    1UNL    H19   56  -0.391   0.316  -0.029
    1UNL    H20   57  -0.478   0.031  -0.096
    1UNL    H21   58  -0.398   0.143  -0.199
    1UNL    H22   59  -0.591   0.266  -0.212
    1UNL    H23   60  -0.563   0.300   0.131
    1UNL    H24   61  -0.646   0.123   0.024
    1UNL    H25   62  -0.475   0.183   0.336
    1UNL    H26   63  -0.245   0.281   0.241
    1UNL    H27   64  -0.259   0.050   0.294
    1UNL    H28   65  -0.520  -0.062   0.221
   0.00000   0.00000   0.00000   0.00000   0.00000   0.00000   0.00000   0.00000   0.00000
Generated with MDTraj, t= 91.0
 65
    1UNL     C1    1  -0.234  -0.321   0.074
    1UNL     C2    2  -0.114  -0.262  -0.004
    1UNL     C3    3  -0.111  -0.296  -0.160
    1UNL     C4    4   0.019  -0.238  -0.219
    1UNL     O1    5   0.037  -0.268  -0.354
    1UNL     O2    6   0.130  -0.291  -0.133
    1UNL     C5    7   0.120  -0.236  -0.008
    1UNL     O3    8   0.009  -0.306   0.059
    1UNL     C6    9   0.063  -0.086  -0.031
    1UNL     C7   10   0.140   0.040   0.025
    1UNL     O4   11   0.264   0.031  -0.025
    1UNL     C8   12   0.356   0.098   0.048
    1UNL     O5   13   0.324   0.171   0.138
    1UNL     C9   14   0.494   0.080   0.006
    1UNL    C10   15   0.529   0.006  -0.101
    1UNL    C11   16   0.654  -0.004  -0.149
    1UNL     O6   17   0.685  -0.088  -0.261
    1UNL    C12   18   0.758   0.074  -0.089
    1UNL     O7   19   0.882   0.077  -0.140
    1UNL    C13   20   0.727   0.145   0.028
    1UNL     O8   21   0.833   0.221   0.083
    1UNL    C14   22   0.598   0.146   0.076
    1UNL    C15   23   0.018  -0.080  -0.184
    1UNL    C16   24  -0.123  -0.031  -0.123
    1UNL    C17   25  -0.087  -0.099   0.011
    1UNL     O9   26  -0.136  -0.029   0.124
    1UNL    C18   27  -0.266   0.025   0.108
    1UNL    O10   28  -0.254   0.151   0.029
    1UNL    C19   29  -0.376   0.208  -0.009
    1UNL    C20   30  -0.444   0.142  -0.128
    1UNL    O11   31  -0.564   0.209  -0.155
    1UNL    C21   32  -0.474   0.216   0.112
    1UNL    O12   33  -0.575   0.127   0.101
    1UNL    C22   34  -0.398   0.191   0.242
    1UNL    O13   35  -0.296   0.282   0.260
    1UNL    C23   36  -0.340   0.045   0.238
    1UNL    O14   37  -0.443  -0.050   0.252
    1UNL     H1   38  -0.332  -0.305   0.023
    1UNL     H2   39  -0.227  -0.267   0.170
    1UNL     H3   40  -0.224  -0.424   0.091
    1UNL     H4   41  -0.116  -0.401  -0.169
    1UNL     H5   42  -0.201  -0.261  -0.226
    1UNL     H6   43   0.133  -0.270  -0.375
    1UNL     H7   44   0.217  -0.237   0.040
    1UNL     H8   45   0.091   0.121  -0.023
    1UNL     H9   46   0.142   0.046   0.132
    1UNL    H10   47   0.439  -0.031  -0.158
    1UNL    H11   48   0.618  -0.124  -0.316
    1UNL    H12   49   0.939   0.129  -0.077
    1UNL    H13   50   0.815   0.270   0.167
    1UNL    H14   51   0.575   0.196   0.179
    1UNL    H15   52   0.086  -0.009  -0.242
    1UNL    H16   53  -0.216  -0.073  -0.169
    1UNL    H17   54  -0.138   0.077  -0.122
    1UNL    H18   55  -0.326  -0.053   0.051
    1UNL    H19   56  -0.358   0.308  -0.043
    1UNL    H20   57  -0.466   0.040  -0.092
    1UNL    H21   58  -0.386   0.133  -0.212
    1UNL    H22   59  -0.557   0.289  -0.207
    1UNL    H23   60  -0.530   0.313   0.118
    1UNL    H24   61  -0.631   0.144   0.023
    1UNL    H25   62  -0.457   0.191   0.333
    1UNL    H26   63  -0.233   0.262   0.176
    1UNL    H27   64  -0.272   0.039   0.323
    1UNL    H28   65  -0.512  -0.023   0.197
   0.00000   0.00000   0.00000   0.00000   0.00000   0.00000   0.00000   0.00000   0.00000
Generated with MDTraj, t= 92.0
 65
    1UNL     C1    1  -0.224  -0.333   0.066
    1UNL     C2    2  -0.111  -0.277  -0.010
    1UNL     C3    3  -0.114  -0.317  -0.161
    1UNL     C4    4   0.008  -0.247  -0.218
    1UNL     O1    5   0.020  -0.271  -0.361
    1UNL     O2    6   0.124  -0.290  -0.145
    1UNL     C5    7   0.114  -0.244  -0.011
    1UNL     O3    8   0.015  -0.328   0.054
    1UNL     C6    9   0.050  -0.104  -0.023
    1UNL     C7   10   0.131   0.008   0.037
    1UNL     O4   11   0.262   0.004  -0.003
    1UNL     C8   12   0.341   0.112   0.038
    1UNL     O5   13   0.301   0.206   0.103
    1UNL     C9   14   0.484   0.105  -0.002
    1UNL    C10   15   0.520   0.020  -0.108
    1UNL    C11   16   0.654   0.002  -0.148
    1UNL     O6   17   0.692  -0.089  -0.241
    1UNL    C12   18   0.752   0.080  -0.085
    1UNL     O7   19   0.887   0.075  -0.116
    1UNL    C13   20   0.717   0.167   0.022
    1UNL     O8   21   0.818   0.233   0.086
    1UNL    C14   22   0.588   0.175   0.065
    1UNL    C15   23   0.012  -0.091  -0.179
    1UNL    C16   24  -0.125  -0.045  -0.139
    1UNL    C17   25  -0.103  -0.119  -0.000
    1UNL     O9   26  -0.155  -0.058   0.119
    1UNL    C18   27  -0.268   0.023   0.103
    1UNL    O10   28  -0.239   0.144   0.029
    1UNL    C19   29  -0.354   0.224  -0.005
    1UNL    C20   30  -0.419   0.165  -0.129
    1UNL    O11   31  -0.539   0.218  -0.167
    1UNL    C21   32  -0.452   0.233   0.116
    1UNL    O12   33  -0.573   0.159   0.108
    1UNL    C22   34  -0.383   0.195   0.251
    1UNL    O13   35  -0.263   0.275   0.274
    1UNL    C23   36  -0.339   0.046   0.239
    1UNL    O14   37  -0.439  -0.051   0.270
    1UNL     H1   38  -0.318  -0.294   0.025
    1UNL     H2   39  -0.218  -0.303   0.169
    1UNL     H3   40  -0.232  -0.443   0.052
    1UNL     H4   41  -0.108  -0.421  -0.179
    1UNL     H5   42  -0.211  -0.284  -0.208
    1UNL     H6   43   0.112  -0.252  -0.394
    1UNL     H7   44   0.205  -0.257   0.045
    1UNL     H8   45   0.091   0.104   0.024
    1UNL     H9   46   0.141  -0.020   0.138
    1UNL    H10   47   0.441  -0.031  -0.145
    1UNL    H11   48   0.610  -0.124  -0.278
    1UNL    H12   49   0.935   0.146  -0.069
    1UNL    H13   50   0.771   0.277   0.157
    1UNL    H14   51   0.562   0.235   0.141
    1UNL    H15   52   0.066  -0.016  -0.243
    1UNL    H16   53  -0.199  -0.102  -0.197
    1UNL    H17   54  -0.136   0.067  -0.133
    1UNL    H18   55  -0.339  -0.050   0.049
    1UNL    H19   56  -0.309   0.318  -0.035
    1UNL    H20   57  -0.429   0.054  -0.119
    1UNL    H21   58  -0.353   0.174  -0.208
    1UNL    H22   59  -0.519   0.302  -0.224
    1UNL    H23   60  -0.487   0.339   0.117
    1UNL    H24   61  -0.610   0.155   0.014
    1UNL    H25   62  -0.446   0.214   0.339
    1UNL    H26   63  -0.214   0.303   0.197
    1UNL    H27   64  -0.258   0.021   0.310
    1UNL    H28   65  -0.530  -0.027   0.235
   0.00000   0.00000   0.00000   0.00000   0.00000   0.00000   0.00000   0.00000   0.00000
Generated with MDTraj, t= 93.0
 65
    1UNL     C1    1  -0.258  -0.328   0.050
    1UNL     C2    2  -0.123  -0.288  -0.010
    1UNL     C3    3  -0.104  -0.330  -0.156
    1UNL     C4    4   0.022  -0.262  -0.222
    1UNL     O1    5   0.022  -0.268  -0.361
    1UNL     O2    6   0.140  -0.315  -0.154
    1UNL     C5    7   0.112  -0.264  -0.015
    1UNL     O3    8   0.002  -0.333   0.045
    1UNL     C6    9   0.051  -0.121  -0.032
    1UNL     C7   10   0.134  -0.007   0.034
    1UNL     O4   11   0.261  -0.007  -0.018
    1UNL     C8   12   0.328   0.106   0.020
    1UNL     O5   13   0.267   0.197   0.078
    1UNL     C9   14   0.470   0.105  -0.011
    1UNL    C10   15   0.523   0.011  -0.100
    1UNL    C11   16   0.656   0.006  -0.135
    1UNL     O6   17   0.697  -0.076  -0.238
    1UNL    C12   18   0.744   0.091  -0.065
    1UNL     O7   19   0.879   0.070  -0.073
    1UNL    C13   20   0.694   0.192   0.016
    1UNL     O8   21   0.793   0.270   0.078
    1UNL    C14   22   0.555   0.201   0.036
    1UNL    C15   23   0.013  -0.111  -0.184
    1UNL    C16   24  -0.124  -0.055  -0.135
    1UNL    C17   25  -0.104  -0.131  -0.005
    1UNL     O9   26  -0.150  -0.078   0.124
    1UNL    C18   27  -0.255   0.016   0.105
    1UNL    O10   28  -0.221   0.135   0.035
    1UNL    C19   29  -0.339   0.216   0.006
    1UNL    C20   30  -0.410   0.169  -0.124
    1UNL    O11   31  -0.513   0.265  -0.142
    1UNL    C21   32  -0.432   0.239   0.128
    1UNL    O12   33  -0.552   0.166   0.116
    1UNL    C22   34  -0.363   0.198   0.254
    1UNL    O13   35  -0.257   0.288   0.276
    1UNL    C23   36  -0.323   0.049   0.239
    1UNL    O14   37  -0.439  -0.026   0.259
    1UNL     H1   38  -0.343  -0.286  -0.001
    1UNL     H2   39  -0.271  -0.305   0.153
    1UNL     H3   40  -0.275  -0.439   0.027
    1UNL     H4   41  -0.091  -0.438  -0.145
    1UNL     H5   42  -0.188  -0.316  -0.214
    1UNL     H6   43   0.019  -0.369  -0.388
    1UNL     H7   44   0.199  -0.272   0.047
    1UNL     H8   45   0.096   0.088   0.007
    1UNL     H9   46   0.142  -0.021   0.139
    1UNL    H10   47   0.463  -0.077  -0.144
    1UNL    H11   48   0.620  -0.121  -0.278
    1UNL    H12   49   0.915   0.128  -0.003
    1UNL    H13   50   0.748   0.318   0.145
    1UNL    H14   51   0.510   0.296   0.076
    1UNL    H15   52   0.078  -0.036  -0.236
    1UNL    H16   53  -0.217  -0.086  -0.181
    1UNL    H17   54  -0.130   0.055  -0.104
    1UNL    H18   55  -0.332  -0.046   0.045
    1UNL    H19   56  -0.288   0.311  -0.018
    1UNL    H20   57  -0.463   0.070  -0.114
    1UNL    H21   58  -0.351   0.159  -0.209
    1UNL    H22   59  -0.470   0.349  -0.188
    1UNL    H23   60  -0.459   0.346   0.132
    1UNL    H24   61  -0.597   0.191   0.035
    1UNL    H25   62  -0.433   0.203   0.341
    1UNL    H26   63  -0.202   0.288   0.197
    1UNL    H27   64  -0.255   0.015   0.320
    1UNL    H28   65  -0.513   0.009   0.197
   0.00000   0.00000   0.00000   0.00000   0.00000   0.00000   0.00000   0.00000   0.00000
Generated with MDTraj, t= 94.0
 65
    1UNL     C1    1  -0.266  -0.338   0.051
    1UNL     C2    2  -0.140  -0.297  -0.021
    1UNL     C3    3  -0.123  -0.340  -0.171
    1UNL     C4    4   0.007  -0.281  -0.228
    1UNL     O1    5   0.034  -0.300  -0.368
    1UNL     O2    6   0.103  -0.337  -0.144
    1UNL     C5    7   0.085  -0.287  -0.009
    1UNL     O3    8  -0.027  -0.355   0.048
    1UNL     C6    9   0.042  -0.135  -0.029
    1UNL     C7   10   0.124  -0.014   0.028
    1UNL     O4   11   0.255  -0.004  -0.033
    1UNL     C8   12   0.315   0.108   0.001
    1UNL     O5   13   0.261   0.198   0.065
    1UNL     C9   14   0.465   0.116  -0.027
    1UNL    C10   15   0.518   0.017  -0.108
    1UNL    C11   16   0.659   0.011  -0.123
    1UNL     O6   17   0.724  -0.094  -0.177
    1UNL    C12   18   0.737   0.114  -0.072
    1UNL     O7   19   0.875   0.117  -0.080
    1UNL    C13   20   0.679   0.208   0.016
    1UNL     O8   21   0.757   0.296   0.082
    1UNL    C14   22   0.544   0.200   0.040
    1UNL    C15   23   0.014  -0.122  -0.181
    1UNL    C16   24  -0.119  -0.056  -0.144
    1UNL    C17   25  -0.112  -0.141  -0.013
    1UNL     O9   26  -0.144  -0.072   0.106
    1UNL    C18   27  -0.255   0.018   0.091
    1UNL    O10   28  -0.207   0.142   0.026
    1UNL    C19   29  -0.316   0.235   0.015
    1UNL    C20   30  -0.387   0.207  -0.124
    1UNL    O11   31  -0.511   0.283  -0.145
    1UNL    C21   32  -0.409   0.246   0.135
    1UNL    O12   33  -0.535   0.170   0.126
    1UNL    C22   34  -0.332   0.198   0.262
    1UNL    O13   35  -0.206   0.266   0.286
    1UNL    C23   36  -0.310   0.038   0.242
    1UNL    O14   37  -0.432  -0.034   0.265
    1UNL     H1   38  -0.355  -0.320  -0.005
    1UNL     H2   39  -0.272  -0.282   0.143
    1UNL     H3   40  -0.267  -0.451   0.066
    1UNL     H4   41  -0.120  -0.448  -0.170
    1UNL     H5   42  -0.212  -0.313  -0.213
    1UNL     H6   43   0.133  -0.273  -0.382
    1UNL     H7   44   0.179  -0.280   0.048
    1UNL     H8   45   0.062   0.074   0.015
    1UNL     H9   46   0.143  -0.030   0.133
    1UNL    H10   47   0.455  -0.052  -0.148
    1UNL    H11   48   0.664  -0.172  -0.196
    1UNL    H12   49   0.897   0.198  -0.029
    1UNL    H13   50   0.722   0.346   0.157
    1UNL    H14   51   0.505   0.267   0.115
    1UNL    H15   52   0.091  -0.060  -0.231
    1UNL    H16   53  -0.202  -0.061  -0.216
    1UNL    H17   54  -0.104   0.055  -0.126
    1UNL    H18   55  -0.331  -0.033   0.022
    1UNL    H19   56  -0.265   0.335   0.010
    1UNL    H20   57  -0.424   0.099  -0.122
    1UNL    H21   58  -0.322   0.217  -0.207
    1UNL    H22   59  -0.495   0.378  -0.168
    1UNL    H23   60  -0.441   0.349   0.150
    1UNL    H24   61  -0.586   0.198   0.044
    1UNL    H25   62  -0.393   0.217   0.354
    1UNL    H26   63  -0.138   0.213   0.225
    1UNL    H27   64  -0.238   0.000   0.321
    1UNL    H28   65  -0.497   0.030   0.239
   0.00000   0.00000   0.00000   0.00000   0.00000   0.00000   0.00000   0.00000   0.00000
Generated with MDTraj, t= 95.0
 65
    1UNL     C1    1  -0.272  -0.341   0.043
    1UNL     C2    2  -0.149  -0.295  -0.029
    1UNL     C3    3  -0.145  -0.347  -0.179
    1UNL     C4    4  -0.007  -0.296  -0.235
    1UNL     O1    5   0.018  -0.338  -0.368
    1UNL     O2    6   0.097  -0.354  -0.148
    1UNL     C5    7   0.078  -0.301  -0.024
    1UNL     O3    8  -0.038  -0.358   0.039
    1UNL     C6    9   0.047  -0.151  -0.052
    1UNL     C7   10   0.118  -0.034   0.011
    1UNL     O4   11   0.258  -0.031  -0.020
    1UNL     C8   12   0.311   0.091   0.017
    1UNL     O5   13   0.249   0.192   0.057
    1UNL     C9   14   0.460   0.096   0.002
    1UNL    C10   15   0.531  -0.003  -0.070
    1UNL    C11   16   0.668   0.018  -0.098
    1UNL     O6   17   0.738  -0.083  -0.170
    1UNL    C12   18   0.731   0.131  -0.050
    1UNL     O7   19   0.870   0.142  -0.067
    1UNL    C13   20   0.660   0.233   0.012
    1UNL     O8   21   0.724   0.349   0.047
    1UNL    C14   22   0.520   0.215   0.037
    1UNL    C15   23   0.010  -0.143  -0.208
    1UNL    C16   24  -0.123  -0.067  -0.152
    1UNL    C17   25  -0.108  -0.142  -0.027
    1UNL     O9   26  -0.138  -0.084   0.099
    1UNL    C18   27  -0.244   0.018   0.095
    1UNL    O10   28  -0.203   0.137   0.030
    1UNL    C19   29  -0.296   0.246   0.013
    1UNL    C20   30  -0.386   0.214  -0.114
    1UNL    O11   31  -0.484   0.313  -0.119
    1UNL    C21   32  -0.386   0.267   0.143
    1UNL    O12   33  -0.518   0.204   0.129
    1UNL    C22   34  -0.317   0.192   0.264
    1UNL    O13   35  -0.194   0.250   0.290
    1UNL    C23   36  -0.296   0.046   0.238
    1UNL    O14   37  -0.422  -0.019   0.265
    1UNL     H1   38  -0.360  -0.299  -0.003
    1UNL     H2   39  -0.257  -0.299   0.146
    1UNL     H3   40  -0.283  -0.449   0.038
    1UNL     H4   41  -0.152  -0.450  -0.166
    1UNL     H5   42  -0.232  -0.317  -0.237
    1UNL     H6   43   0.120  -0.335  -0.382
    1UNL     H7   44   0.169  -0.316   0.040
    1UNL     H8   45   0.073   0.068  -0.011
    1UNL     H9   46   0.114  -0.047   0.122
    1UNL    H10   47   0.478  -0.078  -0.134
    1UNL    H11   48   0.677  -0.158  -0.203
    1UNL    H12   49   0.897   0.227  -0.028
    1UNL    H13   50   0.661   0.395   0.110
    1UNL    H14   51   0.467   0.294   0.086
    1UNL    H15   52   0.079  -0.083  -0.267
    1UNL    H16   53  -0.224  -0.095  -0.194
    1UNL    H17   54  -0.106   0.041  -0.134
    1UNL    H18   55  -0.329  -0.022   0.031
    1UNL    H19   56  -0.233   0.337  -0.005
    1UNL    H20   57  -0.440   0.114  -0.097
    1UNL    H21   58  -0.325   0.210  -0.205
    1UNL    H22   59  -0.450   0.394  -0.149
    1UNL    H23   60  -0.400   0.372   0.169
    1UNL    H24   61  -0.547   0.223   0.040
    1UNL    H25   62  -0.379   0.211   0.355
    1UNL    H26   63  -0.136   0.241   0.219
    1UNL    H27   64  -0.225  -0.005   0.312
    1UNL    H28   65  -0.508   0.010   0.211
   0.00000   0.00000   0.00000   0.00000   0.00000   0.00000   0.00000   0.00000   0.00000
Generated with MDTraj, t= 96.0
 65
    1UNL     C1    1  -0.285  -0.343   0.039
    1UNL     C2    2  -0.149  -0.309  -0.023
    1UNL     C3    3  -0.150  -0.361  -0.172
    1UNL     C4    4  -0.016  -0.303  -0.235
    1UNL     O1    5  -0.023  -0.327  -0.381
    1UNL     O2    6   0.102  -0.365  -0.169
    1UNL     C5    7   0.086  -0.309  -0.037
    1UNL     O3    8  -0.025  -0.366   0.028
    1UNL     C6    9   0.038  -0.163  -0.052
    1UNL     C7   10   0.123  -0.064   0.026
    1UNL     O4   11   0.265  -0.057  -0.012
    1UNL     C8   12   0.309   0.067   0.020
    1UNL     O5   13   0.238   0.149   0.077
    1UNL     C9   14   0.446   0.096  -0.008
    1UNL    C10   15   0.536  -0.003  -0.040
    1UNL    C11   16   0.670   0.019  -0.074
    1UNL     O6   17   0.760  -0.076  -0.123
    1UNL    C12   18   0.719   0.151  -0.053
    1UNL     O7   19   0.853   0.181  -0.068
    1UNL    C13   20   0.636   0.251  -0.002
    1UNL     O8   21   0.690   0.378   0.031
    1UNL    C14   22   0.502   0.225   0.015
    1UNL    C15   23  -0.002  -0.153  -0.200
    1UNL    C16   24  -0.133  -0.086  -0.157
    1UNL    C17   25  -0.118  -0.156  -0.021
    1UNL     O9   26  -0.148  -0.086   0.100
    1UNL    C18   27  -0.240   0.021   0.081
    1UNL    O10   28  -0.179   0.135   0.021
    1UNL    C19   29  -0.277   0.243   0.012
    1UNL    C20   30  -0.381   0.226  -0.098
    1UNL    O11   31  -0.463   0.335  -0.111
    1UNL    C21   32  -0.364   0.276   0.142
    1UNL    O12   33  -0.501   0.238   0.132
    1UNL    C22   34  -0.296   0.200   0.264
    1UNL    O13   35  -0.158   0.240   0.279
    1UNL    C23   36  -0.293   0.048   0.227
    1UNL    O14   37  -0.420  -0.014   0.249
    1UNL     H1   38  -0.356  -0.281  -0.019
    1UNL     H2   39  -0.280  -0.302   0.144
    1UNL     H3   40  -0.318  -0.441   0.025
    1UNL     H4   41  -0.153  -0.463  -0.171
    1UNL     H5   42  -0.239  -0.322  -0.228
    1UNL     H6   43   0.066  -0.354  -0.420
    1UNL     H7   44   0.185  -0.316   0.017
    1UNL     H8   45   0.085   0.044   0.010
    1UNL     H9   46   0.112  -0.081   0.139
    1UNL    H10   47   0.492  -0.102  -0.045
    1UNL    H11   48   0.704  -0.158  -0.157
    1UNL    H12   49   0.868   0.275  -0.042
    1UNL    H13   50   0.621   0.420   0.092
    1UNL    H14   51   0.437   0.306   0.051
    1UNL    H15   52   0.058  -0.090  -0.264
    1UNL    H16   53  -0.221  -0.121  -0.220
    1UNL    H17   54  -0.127   0.021  -0.133
    1UNL    H18   55  -0.320  -0.010   0.007
    1UNL    H19   56  -0.217   0.336  -0.009
    1UNL    H20   57  -0.445   0.138  -0.064
    1UNL    H21   58  -0.330   0.205  -0.196
    1UNL    H22   59  -0.411   0.406  -0.145
    1UNL    H23   60  -0.366   0.385   0.159
    1UNL    H24   61  -0.552   0.309   0.081
    1UNL    H25   62  -0.343   0.224   0.362
    1UNL    H26   63  -0.105   0.243   0.192
    1UNL    H27   64  -0.223  -0.005   0.302
    1UNL    H28   65  -0.485   0.050   0.238
   0.00000   0.00000   0.00000   0.00000   0.00000   0.00000   0.00000   0.00000   0.00000
Generated with MDTraj, t= 97.0
 65
    1UNL     C1    1  -0.287  -0.346   0.043
    1UNL     C2    2  -0.156  -0.322  -0.030
    1UNL     C3    3  -0.156  -0.354  -0.182
    1UNL     C4    4  -0.025  -0.301  -0.244
    1UNL     O1    5  -0.025  -0.312  -0.390
    1UNL     O2    6   0.073  -0.378  -0.176
    1UNL     C5    7   0.072  -0.333  -0.036
    1UNL     O3    8  -0.040  -0.402   0.021
    1UNL     C6    9   0.039  -0.174  -0.045
    1UNL     C7   10   0.124  -0.068   0.021
    1UNL     O4   11   0.251  -0.050  -0.038
    1UNL     C8   12   0.301   0.062   0.020
    1UNL     O5   13   0.230   0.134   0.092
    1UNL     C9   14   0.445   0.094   0.004
    1UNL    C10   15   0.539   0.001  -0.045
    1UNL    C11   16   0.670   0.034  -0.049
    1UNL     O6   17   0.765  -0.062  -0.071
    1UNL    C12   18   0.714   0.168  -0.044
    1UNL     O7   19   0.838   0.206  -0.076
    1UNL    C13   20   0.612   0.266  -0.006
    1UNL     O8   21   0.660   0.396  -0.010
    1UNL    C14   22   0.488   0.231   0.025
    1UNL    C15   23   0.004  -0.150  -0.195
    1UNL    C16   24  -0.138  -0.090  -0.155
    1UNL    C17   25  -0.116  -0.167  -0.018
    1UNL     O9   26  -0.158  -0.105   0.099
    1UNL    C18   27  -0.246   0.007   0.088
    1UNL    O10   28  -0.182   0.122   0.022
    1UNL    C19   29  -0.262   0.240   0.008
    1UNL    C20   30  -0.354   0.221  -0.112
    1UNL    O11   31  -0.436   0.335  -0.126
    1UNL    C21   32  -0.327   0.280   0.150
    1UNL    O12   33  -0.464   0.276   0.147
    1UNL    C22   34  -0.263   0.193   0.263
    1UNL    O13   35  -0.123   0.218   0.274
    1UNL    C23   36  -0.291   0.048   0.233
    1UNL    O14   37  -0.428   0.016   0.256
    1UNL     H1   38  -0.373  -0.301  -0.011
    1UNL     H2   39  -0.272  -0.298   0.143
    1UNL     H3   40  -0.311  -0.449   0.044
    1UNL     H4   41  -0.156  -0.463  -0.192
    1UNL     H5   42  -0.250  -0.311  -0.219
    1UNL     H6   43   0.065  -0.335  -0.422
    1UNL     H7   44   0.173  -0.345   0.015
    1UNL     H8   45   0.058   0.028   0.027
    1UNL     H9   46   0.140  -0.102   0.129
    1UNL    H10   47   0.503  -0.094  -0.057
    1UNL    H11   48   0.728  -0.155  -0.098
    1UNL    H12   49   0.845   0.303  -0.064
    1UNL    H13   50   0.595   0.464   0.027
    1UNL    H14   51   0.413   0.305   0.040
    1UNL    H15   52   0.079  -0.095  -0.249
    1UNL    H16   53  -0.223  -0.107  -0.229
    1UNL    H17   54  -0.142   0.016  -0.135
    1UNL    H18   55  -0.330  -0.022   0.019
    1UNL    H19   56  -0.195   0.326  -0.013
    1UNL    H20   57  -0.426   0.136  -0.092
    1UNL    H21   58  -0.295   0.196  -0.208
    1UNL    H22   59  -0.383   0.418  -0.147
    1UNL    H23   60  -0.313   0.388   0.180
    1UNL    H24   61  -0.492   0.295   0.055
    1UNL    H25   62  -0.313   0.211   0.361
    1UNL    H26   63  -0.075   0.149   0.217
    1UNL    H27   64  -0.238  -0.018   0.314
    1UNL    H28   65  -0.474   0.090   0.204
   0.00000   0.00000   0.00000   0.00000   0.00000   0.00000   0.00000   0.00000   0.00000
Generated with MDTraj, t= 98.0
 65
    1UNL     C1    1  -0.302  -0.365   0.023
    1UNL     C2    2  -0.169  -0.331  -0.048
    1UNL     C3    3  -0.168  -0.355  -0.208
    1UNL     C4    4  -0.026  -0.306  -0.256
    1UNL     O1    5  -0.005  -0.324  -0.394
    1UNL     O2    6   0.077  -0.378  -0.171
    1UNL     C5    7   0.061  -0.334  -0.039
    1UNL     O3    8  -0.058  -0.396   0.014
    1UNL     C6    9   0.024  -0.180  -0.052
    1UNL     C7   10   0.098  -0.071   0.025
    1UNL     O4   11   0.237  -0.061   0.008
    1UNL     C8   12   0.286   0.067   0.037
    1UNL     O5   13   0.219   0.152   0.095
    1UNL     C9   14   0.424   0.099  -0.005
    1UNL    C10   15   0.530   0.005  -0.019
    1UNL    C11   16   0.659   0.041  -0.039
    1UNL     O6   17   0.761  -0.051  -0.064
    1UNL    C12   18   0.697   0.178  -0.040
    1UNL     O7   19   0.824   0.223  -0.050
    1UNL    C13   20   0.595   0.277  -0.034
    1UNL     O8   21   0.633   0.408  -0.035
    1UNL    C14   22   0.463   0.232  -0.010
    1UNL    C15   23  -0.008  -0.160  -0.209
    1UNL    C16   24  -0.138  -0.081  -0.153
    1UNL    C17   25  -0.128  -0.177  -0.028
    1UNL     O9   26  -0.160  -0.128   0.101
    1UNL    C18   27  -0.228  -0.006   0.093
    1UNL    O10   28  -0.161   0.101   0.028
    1UNL    C19   29  -0.233   0.227   0.011
    1UNL    C20   30  -0.339   0.207  -0.090
    1UNL    O11   31  -0.397   0.329  -0.133
    1UNL    C21   32  -0.287   0.283   0.147
    1UNL    O12   33  -0.428   0.302   0.157
    1UNL    C22   34  -0.234   0.191   0.268
    1UNL    O13   35  -0.097   0.214   0.300
    1UNL    C23   36  -0.277   0.050   0.234
    1UNL    O14   37  -0.420   0.046   0.237
    1UNL     H1   38  -0.395  -0.326  -0.020
    1UNL     H2   39  -0.293  -0.337   0.127
    1UNL     H3   40  -0.323  -0.474   0.010
    1UNL     H4   41  -0.181  -0.471  -0.218
    1UNL     H5   42  -0.249  -0.303  -0.254
    1UNL     H6   43   0.078  -0.371  -0.406
    1UNL     H7   44   0.141  -0.363   0.036
    1UNL     H8   45   0.051   0.027  -0.007
    1UNL     H9   46   0.073  -0.080   0.134
    1UNL    H10   47   0.501  -0.108  -0.011
    1UNL    H11   48   0.717  -0.142  -0.084
    1UNL    H12   49   0.817   0.321  -0.067
    1UNL    H13   50   0.554   0.462  -0.011
    1UNL    H14   51   0.378   0.304   0.005
    1UNL    H15   52   0.063  -0.106  -0.268
    1UNL    H16   53  -0.237  -0.088  -0.203
    1UNL    H17   54  -0.115   0.024  -0.129
    1UNL    H18   55  -0.314  -0.037   0.028
    1UNL    H19   56  -0.156   0.292  -0.031
    1UNL    H20   57  -0.415   0.130  -0.057
    1UNL    H21   58  -0.292   0.157  -0.185
    1UNL    H22   59  -0.324   0.395  -0.170
    1UNL    H23   60  -0.235   0.382   0.159
    1UNL    H24   61  -0.454   0.365   0.085
    1UNL    H25   62  -0.282   0.226   0.362
    1UNL    H26   63  -0.040   0.206   0.228
    1UNL    H27   64  -0.241  -0.033   0.307
    1UNL    H28   65  -0.454   0.139   0.218
   0.00000   0.00000   0.00000   0.00000   0.00000   0.00000   0.00000   0.00000   0.00000
Generated with MDTraj, t= 99.0
 65
    1UNL     C1    1  -0.299  -0.384  -0.002
    1UNL     C2    2  -0.167  -0.336  -0.058
    1UNL     C3    3  -0.144  -0.376  -0.204
    1UNL     C4    4  -0.007  -0.303  -0.244
    1UNL     O1    5   0.010  -0.321  -0.387
    1UNL     O2    6   0.092  -0.377  -0.172
    1UNL     C5    7   0.068  -0.336  -0.034
    1UNL     O3    8  -0.053  -0.394   0.015
    1UNL     C6    9   0.025  -0.188  -0.035
    1UNL     C7   10   0.097  -0.092   0.045
    1UNL     O4   11   0.226  -0.068  -0.003
    1UNL     C8   12   0.257   0.066   0.014
    1UNL     O5   13   0.167   0.144   0.046
    1UNL     C9   14   0.394   0.108   0.004
    1UNL    C10   15   0.496   0.013  -0.001
    1UNL    C11   16   0.631   0.044  -0.022
    1UNL     O6   17   0.727  -0.053  -0.036
    1UNL    C12   18   0.658   0.179  -0.038
    1UNL     O7   19   0.786   0.224  -0.077
    1UNL    C13   20   0.561   0.277  -0.024
    1UNL     O8   21   0.598   0.408  -0.043
    1UNL    C14   22   0.429   0.237  -0.013
    1UNL    C15   23   0.005  -0.159  -0.190
    1UNL    C16   24  -0.123  -0.087  -0.161
    1UNL    C17   25  -0.132  -0.184  -0.034
    1UNL     O9   26  -0.177  -0.127   0.093
    1UNL    C18   27  -0.228   0.003   0.080
    1UNL    O10   28  -0.137   0.096   0.029
    1UNL    C19   29  -0.189   0.231   0.018
    1UNL    C20   30  -0.303   0.232  -0.083
    1UNL    O11   31  -0.365   0.360  -0.107
    1UNL    C21   32  -0.243   0.287   0.154
    1UNL    O12   33  -0.382   0.329   0.154
    1UNL    C22   34  -0.212   0.187   0.265
    1UNL    O13   35  -0.079   0.184   0.294
    1UNL    C23   36  -0.269   0.053   0.227
    1UNL    O14   37  -0.409   0.054   0.250
    1UNL     H1   38  -0.387  -0.350  -0.054
    1UNL     H2   39  -0.311  -0.368   0.102
    1UNL     H3   40  -0.309  -0.495  -0.031
    1UNL     H4   41  -0.115  -0.489  -0.216
    1UNL     H5   42  -0.230  -0.345  -0.263
    1UNL     H6   43   0.046  -0.406  -0.403
    1UNL     H7   44   0.164  -0.372   0.011
    1UNL     H8   45   0.047   0.007   0.036
    1UNL     H9   46   0.102  -0.114   0.151
    1UNL    H10   47   0.468  -0.085  -0.002
    1UNL    H11   48   0.674  -0.139  -0.021
    1UNL    H12   49   0.785   0.322  -0.079
    1UNL    H13   50   0.523   0.464  -0.020
    1UNL    H14   51   0.360   0.310  -0.004
    1UNL    H15   52   0.074  -0.098  -0.245
    1UNL    H16   53  -0.189  -0.107  -0.245
    1UNL    H17   54  -0.105   0.025  -0.150
    1UNL    H18   55  -0.317   0.001   0.014
    1UNL    H19   56  -0.104   0.287  -0.018
    1UNL    H20   57  -0.390   0.171  -0.047
    1UNL    H21   58  -0.282   0.178  -0.187
    1UNL    H22   59  -0.342   0.401  -0.195
    1UNL    H23   60  -0.180   0.377   0.177
    1UNL    H24   61  -0.404   0.365   0.066
    1UNL    H25   62  -0.258   0.235   0.354
    1UNL    H26   63  -0.034   0.145   0.210
    1UNL    H27   64  -0.230  -0.020   0.309
    1UNL    H28   65  -0.440   0.135   0.216
   0.00000   0.00000   0.00000   0.00000   0.00000   0.00000   0.00000   0.00000   0.00000
