1TPCN05307
25
    1res  C1    1    0.836   0.174  -0.291
    1res  C2    2    0.811   0.061   0.009
    1res  C3    3    0.659  -0.097   0.054
    1res  C4    4    0.474  -0.175   0.004
    1res  C5    5    0.205  -0.087  -0.088
    1res  C6    6   -0.036   0.118  -0.007
    1res  C7    7   -0.277  -0.019  -0.158
    1res  C8    8   -0.368   0.214   0.021
    1res  C9    9   -0.629   0.027   0.145
    1res  C10   10   -0.669   0.291  -0.018
    1res  C11   11   -0.712   0.126  -0.258
    1res  C12   12   -0.829   0.028  -0.093
    1res  C13   13   -1.066   0.090  -0.141
    1res  C14   14   -0.399  -0.089   0.179
    1res  C15   15   -0.168   0.038   0.232
    1res  C16   16    0.022   0.032   0.365
    1res  C17   17    0.138   0.043   0.153
    1res  C18   18    0.182  -0.200   0.235
    1res  C19   19    0.557  -0.420   0.077
    1res  C20   20    0.514  -0.488  -0.155
    1res  C21   21    0.768  -0.395   0.086
    1res  C22   22    0.799  -0.234  -0.094
    1res  C23   23    0.754   0.221   0.130
    1res  C24   24    0.558   0.305  -0.029
    1res  C25   25    0.771   0.375  -0.161
  10.00000  10.00000  10.00000
