[ moleculetype ]
; name        nrexcl
res           1

[ atoms ]
;    nr  type  resnr resid  atom  cgnr     charge       mass
      1 TN2a      1 res   C1        1      0.000     36.000
      2 TC5       1 res   C2        2      0.000     36.000
      3 TC5       1 res   C3        3      0.000     36.000
      4 TC5e      1 res   C4        4      0.000     36.000
      5 TC5       1 res   C5        5      0.000     36.000
      6 TC5       1 res   C6        6      0.000     36.000

[ constraints ]
;  ai    aj   funct      b0(nm)
    1     2     1      0.24081
    2     3     1      0.25789
    4     5     1      0.25153
    3     4     1      0.25135
    5     6     1      0.28923
    2     4     1      0.25953
    4     6     1      0.25084

[ bonds ]
;  ai    aj   funct      b0(nm)          k(kJ/mol/nm^2)

[ angles ]
;  ai    aj    ak  funct     th0(deg)        k(kJ/mol/rad^2)
    1     2     3     1    165.80241           158.67
    1     2     4     1    113.06869           422.52
    2     3     4     1     61.26472          6374.52
    2     4     3     1     60.60564          8435.98
    2     4     5     1    169.55587          1562.16
    2     4     6     1    119.07768          2034.11
    3     2     4     1     58.12968          6832.52
    3     4     5     1    109.91050          2088.75
    3     4     6     1    174.54963           637.66
    4     5     6     1     54.73896          7916.71
    4     6     5     1     54.96010          8760.44
    5     4     6     1     70.30094          8543.34

[ dihedrals ]
;  ai    aj    ak    al  funct   phi0(deg)        k(kJ/mol)   mult
    1     2     3     4     1    178.66708       26.880      1
    1     2     4     3     1     -0.16900       21.539      1
    1     2     4     5     1      1.88177       28.001      1
    1     2     4     6     1   -179.00815       20.925      1
    2     3     4     5     1     -0.91147       10.029      1
    2     3     4     6     1    -98.26816        2.561      1
    2     4     5     6     1      0.72362       28.234      1
    2     4     6     5     1     -0.91025       10.020      1
    3     2     4     5     1    176.68462       29.059      1
    3     2     4     6     1     -0.71160       12.864      1
    3     4     5     6     1     -0.61168       12.874      1
    3     4     6     5     1     33.30708        2.092      1
