[ moleculetype ]
; name        nrexcl
res           1

[ atoms ]
;    nr  type  resnr resid  atom  cgnr     charge       mass
      1 TN2a      1 res   C1        1      0.000     36.000
      2 TC5       1 res   C2        2      0.000     36.000
      3 TC5       1 res   C3        3      0.000     36.000
      4 TC5e      1 res   C4        4      0.000     36.000
      5 TC5       1 res   C5        5      0.000     36.000
      6 TC5       1 res   C6        6      0.000     36.000

[ constraints ]
;  ai    aj   funct      b0(nm)
    1     2     1      0.23859
    2     3     1      0.25691
    4     5     1      0.25149
    3     4     1      0.25210
    5     6     1      0.28981
    2     4     1      0.25955
    4     6     1      0.25147

[ bonds ]
;  ai    aj   funct      b0(nm)          k(kJ/mol/nm^2)

[ angles ]
;  ai    aj    ak  funct     th0(deg)        k(kJ/mol/rad^2)
    1     2     3     1    168.08517           364.90
    1     2     4     1    113.50974           893.18
    2     3     4     1     61.31163          6321.64
    2     4     3     1     60.25317          9480.61
    2     4     5     1    169.39135          1157.08
    2     4     6     1    119.41548          1261.65
    3     2     4     1     58.43518          7162.01
    3     4     5     1    109.77046          1273.71
    3     4     6     1    175.22284          1362.70
    4     5     6     1     54.81120         10555.48
    4     6     5     1     54.81749          9403.24
    5     4     6     1     70.37129          6409.17

[ dihedrals ]
;  ai    aj    ak    al  funct   phi0(deg)        k(kJ/mol)   mult
    1     2     3     4     1   -177.47162       30.074      1
    1     2     4     3     1      1.93159       17.785      1
    1     2     4     5     1      0.59762       25.973      1
    1     2     4     6     1    179.98213       19.099      1
    2     3     4     5     1      0.91879        8.549      1
    2     3     4     6     1    -37.59797        1.692      1
    2     4     5     6     1     -0.85421       26.277      1
    2     4     6     5     1     -0.01197        9.290      1
    3     2     4     5     1   -178.34374       26.231      1
    3     2     4     6     1      0.00700        9.343      1
    3     4     5     6     1     -0.00566        9.334      1
    3     4     6     5     1    -85.83308        2.989      1
