[ moleculetype ]
; name        nrexcl
res           1

[ atoms ]
;    nr  type resnr resid  atom  cgnr     charge       mass
      1 TC4       1 res   C1        1      0.000     36.000
      2 TN4a      1 res   C2        2      0.000     36.000
      3 TN6       1 res   C3        3      0.000     36.000
      4 TN6       1 res   C4        4      0.000     36.000
      5 SC3       1 res   C5        5      0.000     54.000
      6 SC4       1 res   C6        6      0.000     54.000
      7 TC3       1 res   C7        7      0.000     36.000
      8 SC4       1 res   C8        8      0.000     54.000
      9 TC3       1 res   C9        9      0.000     36.000
     10 SC4       1 res   C10      10      0.000     54.000
     11 SC5       1 res   C11      11      0.000     54.000
     12 SC4       1 res   C12      12      0.000     54.000
     13 TC3       1 res   C13      13      0.000     36.000
     14 SP2       1 res   C14      14      0.000     54.000
     15 TC3       1 res   C15      15      0.000     36.000
     16 TC4       1 res   C16      16      0.000     36.000
     17 TP1       1 res   C17      17      0.000     36.000
     18 TN4a      1 res   C18      18      0.000     36.000
     19 TN6       1 res   C19      19      0.000     36.000
     20 TN6       1 res   C20      20      0.000     36.000
     21 TN6       1 res   C21      21      0.000     36.000
     22 SN6       1 res   C22      22      0.000     54.000
     23 TN6       1 res   C23      23      0.000     36.000
     24 TN4a      1 res   C24      24      0.000     36.000
     25 TN6       1 res   C25      25      0.000     36.000
     26 TN6       1 res   C26      26      0.000     36.000
     27 TN6       1 res   C27      27      0.000     36.000

[ bonds ]
;  ai    aj   funct      b0(nm)        k
    1     2     1      0.30120    20000
    1    22     1      0.30808    20000
    2     3     1      0.21518    20000
    2    21     1      0.25921    20000
    3     4     1      0.20515    20000
    3    20     1      0.24018    20000
    4     5     1      0.30373    20000
    4    18     1      0.28159    20000
    5     6     1      0.26173    20000
    5    16     1      0.30107    20000
    6     7     1      0.36918    20000
    6     8     1      0.25084    20000
    6    16     1      0.41081    20000
    7     8     1      0.26670    20000
    8     9     1      0.32671    20000
    8    10     1      0.27282    20000
    9    10     1      0.30530    20000
   10    11     1      0.37535    20000
   10    15     1      0.27041    20000
   11    12     1      0.28647    20000
   11    13     1      0.28229    20000
   11    14     1      0.31763    20000
   11    15     1      0.36158    20000
   12    13     1      0.29278    20000
   16    17     1      0.30594    20000
   18    19     1      0.24798    20000
   19    20     1      0.23510    20000
   21    22     1      0.31327    20000
   22    23     1      0.27000    20000
   23    24     1      0.26060    20000
   23    27     1      0.22144    20000
   24    25     1      0.22876    20000
   25    26     1      0.24860    20000
   26    27     1      0.25353    20000
