[ moleculetype ]
; name        nrexcl
res           1

[ atoms ]
;    nr  type resnr resid  atom  cgnr     charge       mass
      1 P1        1 res   C1        1      0.000     72.000
      2 TN4a      1 res   C2        2      0.000     36.000
      3 SC3       1 res   C3        3      0.000     54.000
      4 SC4       1 res   C4        4      0.000     54.000
      5 SC3       1 res   C5        5      0.000     54.000
      6 SN6       1 res   C6        6      0.000     54.000
      7 SC4       1 res   C7        7      0.000     54.000
      8 SC4       1 res   C8        8      0.000     54.000
      9 TC3       1 res   C9        9      0.000     36.000
     10 TN6       1 res   C10      10      0.000     36.000
     11 SC4       1 res   C11      11      0.000     54.000
     12 SN6       1 res   C12      12      0.000     54.000
     13 SN4a      1 res   C13      13      0.000     54.000
     14 TP1       1 res   C14      14      0.000     36.000
     15 TN6       1 res   C15      15      0.000     36.000
     16 TN6       1 res   C16      16      0.000     36.000
     17 TN6       1 res   C17      17      0.000     36.000
     18 SN4a      1 res   C18      18      0.000     54.000
     19 TP1       1 res   C19      19      0.000     36.000
     20 TN6       1 res   C20      20      0.000     36.000
     21 TN6       1 res   C21      21      0.000     36.000
     22 TN6       1 res   C22      22      0.000     36.000
     23 SN4a      1 res   C23      23      0.000     54.000
     24 TN6       1 res   C24      24      0.000     36.000
     25 TN6       1 res   C25      25      0.000     36.000
     26 TN6       1 res   C26      26      0.000     36.000

[ bonds ]
;  ai    aj   funct      b0(nm)        k
    1     2     1      0.25017    20000
    2     3     1      0.22620    20000
    2     4     1      0.29085    20000
    3     4     1      0.32736    20000
    4     5     1      0.33890    20000
    5     6     1      0.36685    20000
    5     7     1      0.30045    20000
    6     7     1      0.31510    20000
    7     8     1      0.38931    20000
    7    12     1      0.28162    20000
    8     9     1      0.30632    20000
    8    11     1      0.40182    20000
    8    12     1      0.30062    20000
    9    10     1      0.27976    20000
   10    11     1      0.26915    20000
   12    13     1      0.31680    20000
   13    14     1      0.29298    20000
   13    15     1      0.29755    20000
   13    17     1      0.25075    20000
   15    16     1      0.27918    20000
   16    17     1      0.22601    20000
   17    18     1      0.29615    20000
   18    19     1      0.32682    20000
   18    20     1      0.28750    20000
   18    22     1      0.22246    20000
   20    21     1      0.27501    20000
   21    22     1      0.21436    20000
   22    23     1      0.30039    20000
   23    24     1      0.28790    20000
   23    26     1      0.30496    20000
   24    25     1      0.24803    20000
   25    26     1      0.24975    20000
