1TPCN04640
36
    1res  C1    1   -0.311  -0.617  -0.002
    1res  C2    2   -0.108  -0.487   0.163
    1res  C3    3   -0.270  -0.342  -0.020
    1res  C4    4    0.057  -0.198   0.020
    1res  C5    5    0.346  -0.147   0.067
    1res  C6    6    0.528   0.019  -0.081
    1res  C7    7    0.815   0.171  -0.166
    1res  C8    8    0.840   0.497  -0.233
    1res  C9    9    1.014   0.619   0.016
    1res  C10   10    0.984   0.871   0.143
    1res  C11   11    1.043   0.093  -0.324
    1res  C12   12    0.902  -0.060  -0.359
    1res  C13   13    0.793  -0.110  -0.150
    1res  C14   14    0.545  -0.248   0.013
    1res  C15   15    0.486  -0.348   0.198
    1res  C16   16    0.636  -0.578   0.239
    1res  C17   17    0.911  -0.585   0.174
    1res  C18   18    0.727  -0.841   0.122
    1res  C19   19    0.510  -0.743   0.030
    1res  C20   20    0.383  -0.698   0.221
    1res  C21   21    0.305  -0.284   0.295
    1res  C22   22   -0.184  -0.121   0.210
    1res  C23   23   -0.199   0.035  -0.055
    1res  C24   24   -0.401  -0.086  -0.248
    1res  C25   25   -0.512  -0.043   0.055
    1res  C26   26   -0.527   0.249  -0.175
    1res  C27   27   -0.765   0.198  -0.254
    1res  C28   28   -0.867   0.349  -0.090
    1res  C29   29   -1.141   0.323  -0.076
    1res  C30   30   -1.365   0.118  -0.115
    1res  C31   31   -1.364   0.390   0.027
    1res  C32   32   -1.229   0.320   0.215
    1res  C33   33   -1.062   0.164   0.162
    1res  C34   34   -0.732   0.447   0.096
    1res  C35   35   -0.619   0.572  -0.165
    1res  C36   36   -0.422   0.251   0.110
  10.00000  10.00000  10.00000
