[ moleculetype ]
; name        nrexcl
res           1

[ atoms ]
;    nr  type resnr resid  atom  cgnr     charge       mass
      1 SC4       1 res   C1        1      0.000     54.000
      2 TC3       1 res   C2        2      0.000     36.000
      3 SC5       1 res   C3        3      0.000     54.000
      4 SN4a      1 res   C4        4      0.000     54.000
      5 SN4a      1 res   C5        5      0.000     54.000
      6 TN3r      1 res   C6        6      0.000     36.000
      7 SN4a      1 res   C7        7      0.000     54.000
      8 TP1       1 res   C8        8      0.000     36.000
      9 TN6       1 res   C9        9      0.000     36.000
     10 TN6       1 res   C10      10      0.000     36.000
     11 TN6       1 res   C11      11      0.000     36.000
     12 SN4a      1 res   C12      12      0.000     54.000
     13 TP1       1 res   C13      13      0.000     36.000
     14 TN6       1 res   C14      14      0.000     36.000
     15 TN6       1 res   C15      15      0.000     36.000
     16 TN6       1 res   C16      16      0.000     36.000
     17 TN6       1 res   C17      17      0.000     36.000
     18 TN6       1 res   C18      18      0.000     36.000
     19 SN4a      1 res   C19      19      0.000     54.000
     20 TP1       1 res   C20      20      0.000     36.000
     21 TN6       1 res   C21      21      0.000     36.000
     22 TN6       1 res   C22      22      0.000     36.000
     23 TN6       1 res   C23      23      0.000     36.000
     24 TN6       1 res   C24      24      0.000     36.000
     25 TC3       1 res   C25      25      0.000     36.000
     26 SC4       1 res   C26      26      0.000     54.000
     27 TC3       1 res   C27      27      0.000     36.000
     28 SC4       1 res   C28      28      0.000     54.000
     29 SC4       1 res   C29      29      0.000     54.000
     30 TC3       1 res   C30      30      0.000     36.000
     31 TN6       1 res   C31      31      0.000     36.000
     32 TC4       1 res   C32      32      0.000     36.000
     33 SP2       1 res   C33      33      0.000     54.000
     34 TC3       1 res   C34      34      0.000     36.000

[ bonds ]
;  ai    aj   funct      b0(nm)        k
    1     2     1      0.29351    20000
    1     3     1      0.30251    20000
    2     3     1      0.30058    20000
    3     4     1      0.27604    20000
    3    25     1      0.37635    20000
    3    26     1      0.35849    20000
    4     5     1      0.27007    20000
    5     6     1      0.29283    20000
    5    17     1      0.25249    20000
    5    24     1      0.27488    20000
    6     7     1      0.32928    20000
    7     8     1      0.27479    20000
    7     9     1      0.30020    20000
    7    11     1      0.25910    20000
    9    10     1      0.23037    20000
   10    11     1      0.21958    20000
   11    12     1      0.31685    20000
   12    13     1      0.25407    20000
   12    14     1      0.26158    20000
   12    16     1      0.30450    20000
   14    15     1      0.24740    20000
   15    16     1      0.25888    20000
   17    18     1      0.24219    20000
   18    19     1      0.27915    20000
   18    24     1      0.21794    20000
   19    20     1      0.32004    20000
   19    21     1      0.28144    20000
   19    23     1      0.26881    20000
   21    22     1      0.23209    20000
   22    23     1      0.21614    20000
   25    26     1      0.26962    20000
   26    27     1      0.35485    20000
   26    28     1      0.31627    20000
   27    28     1      0.28541    20000
   28    29     1      0.36527    20000
   28    34     1      0.25543    20000
   29    30     1      0.30750    20000
   29    32     1      0.39975    20000
   29    34     1      0.36463    20000
   30    31     1      0.26600    20000
   31    32     1      0.29176    20000
   32    33     1      0.29968    20000
