1TPCN02568
17
    1res  C1    1   -0.485  -0.190  -0.001
    1res  C2    2   -0.307  -0.106  -0.197
    1res  C3    3   -0.320   0.153   0.037
    1res  C4    4   -0.013   0.023   0.117
    1res  C5    5    0.009  -0.155  -0.082
    1res  C6    6    0.296  -0.199  -0.135
    1res  C7    7    0.490   0.027  -0.125
    1res  C8    8    0.694   0.192   0.037
    1res  C9    9    0.965   0.177   0.034
    1res  C10   10    0.873   0.391  -0.078
    1res  C11   11    0.874   0.101  -0.154
    1res  C12   12    0.431  -0.112   0.111
    1res  C13   13    0.404  -0.359   0.135
    1res  C14   14    0.234  -0.416  -0.023
    1res  C15   15   -0.247  -0.115   0.221
    1res  C16   16   -0.749   0.031   0.069
    1res  C17   17   -0.736   0.328  -0.155
  10.00000  10.00000  10.00000
