1TPCN00087
17
    1res  C1    1   -0.072   0.317  -0.038
    1res  C2    2    0.017   0.044  -0.004
    1res  C3    3    0.209   0.145   0.095
    1res  C4    4    0.359   0.088  -0.048
    1res  C5    5    0.530   0.054  -0.197
    1res  C6    6    0.565  -0.041  -0.384
    1res  C7    7    0.757  -0.029  -0.110
    1res  C8    8    0.697   0.037   0.078
    1res  C9    9    0.474   0.030   0.151
    1res  C10   10    0.047   0.065   0.287
    1res  C11   11   -0.238   0.037   0.333
    1res  C12   12   -0.214  -0.030   0.006
    1res  C13   13   -0.286  -0.347  -0.083
    1res  C14   14   -0.443  -0.178  -0.005
    1res  C15   15   -0.552  -0.121   0.017
    1res  C16   16   -0.803  -0.100   0.018
    1res  C17   17   -0.644   0.192   0.099
  10.00000  10.00000  10.00000
