1TPCN00547
12
    1res  C1    1    0.627  -0.304   0.309
    1res  C2    2    0.290  -0.198   0.111
    1res  C3    3    0.197  -0.021  -0.182
    1res  C4    4    0.253   0.166  -0.041
    1res  C5    5    0.105   0.279   0.033
    1res  C6    6   -0.181   0.357   0.072
    1res  C7    7   -0.104   0.650   0.214
    1res  C8    8   -0.136   0.111  -0.003
    1res  C9    9   -0.297   0.002  -0.167
    1res  C10   10   -0.222  -0.264  -0.280
    1res  C11   11   -0.163  -0.405  -0.100
    1res  C12   12   -0.469  -0.226  -0.203
  10.00000  10.00000  10.00000
