1TPCN00255
12
    1res  C1    1    0.401   0.102  -0.096
    1res  C2    2    0.248  -0.102  -0.167
    1res  C3    3    0.037  -0.255  -0.129
    1res  C4    4   -0.037   0.008  -0.221
    1res  C5    5   -0.090  -0.104  -0.016
    1res  C6    6   -0.212  -0.232  -0.007
    1res  C7    7   -0.261  -0.065   0.036
    1res  C8    8   -0.503  -0.100   0.090
    1res  C9    9   -0.362   0.157   0.095
    1res  C10   10    0.137  -0.176   0.089
    1res  C11   11   -0.042  -0.074   0.280
    1res  C12   12    0.056   0.305   0.116
  10.00000  10.00000  10.00000
