1TPCN00379
11
    1res  C1    1   -0.390   0.182   0.018
    1res  C2    2   -0.191   0.047   0.101
    1res  C3    3   -0.195  -0.268  -0.076
    1res  C4    4    0.023  -0.111  -0.170
    1res  C5    5    0.104   0.096  -0.040
    1res  C6    6    0.208   0.227   0.103
    1res  C7    7    0.281   0.089  -0.048
    1res  C8    8    0.522   0.134   0.004
    1res  C9    9    0.422  -0.054  -0.198
    1res  C10   10   -0.058   0.268   0.123
    1res  C11   11   -0.056  -0.152   0.167
  10.00000  10.00000  10.00000
