[ moleculetype ]
; name        nrexcl
res           1

[ atoms ]
;    nr  type  resnr resid  atom  cgnr     charge       mass
      1 TC3       1 res   C1        1      0.000     36.000
      2 TC3       1 res   C2        2      0.000     36.000
      3 SN1       1 res   C3        3      0.000     54.000
      4 TC3       1 res   C4        4      0.000     36.000
      5 TC5       1 res   C5        5      0.000     36.000
      6 TN6d      1 res   C6        6      0.000     36.000
      7 TC5       1 res   C7        7      0.000     36.000
      8 TC5       1 res   C8        8      0.000     36.000
      9 TC5       1 res   C9        9      0.000     36.000
     10 SN4a      1 res   C10      10      0.000     54.000
     11 TC3       1 res   C11      11      0.000     36.000

[ constraints ]
;  ai    aj   funct      b0(nm)
    1     2     1      0.24679
    2     3     1      0.36322
    4     5     1      0.26131
    5    10     1      0.26472
    3    11     1      0.30703
    5     7     1      0.18461
    7     9     1      0.25030
    3     4     1      0.28328
    7     8     1      0.24983
    5     6     1      0.21736
    6     7     1      0.21754
    2    11     1      0.24887
    2    10     1      0.24683
    8     9     1      0.29110

[ bonds ]
;  ai    aj   funct      b0(nm)          k(kJ/mol/nm^2)

[ angles ]
;  ai    aj    ak  funct     th0(deg)        k(kJ/mol/rad^2)
    1     2     3     1    105.00875          1013.09
    1     2    10     1     85.89519           286.55
    1     2    11     1    149.99490           353.35
    2     3     4     1     75.55562          1007.44
    2     3    11     1     42.56065          5656.23
    2    10     5     1     82.03519          2375.97
    2    11     3     1     80.87839          2160.90
    3     2    10     1    114.38764           523.50
    3     2    11     1     56.56104          4015.90
    3     4     5     1    116.19394           574.67
    4     3    11     1     73.40699          1689.70
    4     5     6     1    164.62117           495.55
    4     5     7     1    106.04450          1325.51
    4     5    10     1    106.56867          1123.45
    5     6     7     1     50.24057          5136.77
    5     7     6     1     64.83087          3642.66
    5     7     8     1    161.26166          1457.20
    5     7     9     1    126.70901          1927.54
    6     5     7     1     64.92852          4300.06
    6     5    10     1     85.14514           958.34
    6     7     8     1     97.03431          1730.62
    6     7     9     1    167.33132          1779.87
    7     5    10     1    145.01794           618.22
    7     8     9     1     54.48050         13153.58
    7     9     8     1     54.33027         10508.87
    8     7     9     1     71.18923          7816.23
   10     2    11     1    121.97634          1182.92

[ dihedrals ]
;  ai    aj    ak    al  funct   phi0(deg)        k(kJ/mol)   mult
    1     2     3     4     1    -53.62661       12.156      1
    1     2     3    11     1     27.04528       12.860      1
    1     2    10     5     1     17.08980        8.561      1
    1     2    11     3     1   -123.35220       15.672      1
    2     3     4     5     1   -167.95871        9.289      1
    2    10     5     4     1   -117.71754        7.815      1
    2    10     5     6     1     72.04837       12.192      1
    2    10     5     7     1     43.42509       14.307      1
    2    11     3     4     1    -93.96371        7.778      1
    3     2    10     5     1    123.92202        7.820      1
    3     4     5     6     1    -88.46893       21.334      1
    3     4     5     7     1    -41.08902       10.025      1
    3     4     5    10     1    126.77326       10.002      1
    3    11     2    10     1     80.96458        9.989      1
    4     3     2    10     1   -147.97305        9.287      1
    4     3     2    11     1     97.84596        6.288      1
    4     5     6     7     1   -132.56987       20.756      1
    4     5     7     6     1     13.94444        9.325      1
    4     5     7     8     1     15.36656       22.773      1
    4     5     7     9     1   -165.59398       12.218      1
    5     4     3    11     1    148.05660        7.829      1
    5     6     7     8     1      0.51945        9.974      1
    5     6     7     9     1     -2.68379       27.665      1
    5     7     8     9     1     -0.58046       23.497      1
    5     7     9     8     1     -0.33662       12.166      1
    5    10     2    11     1   -172.02749       10.709      1
    6     5     7     8     1   -179.57722       21.482      1
    6     5     7     9     1      0.96090       11.496      1
    6     7     5    10     1   -146.92320       11.483      1
    6     7     8     9     1      0.94382        9.986      1
    6     7     9     8     1    179.63542       27.673      1
    7     6     5    10     1     18.02743        9.251      1
    8     7     5    10     1   -149.29998       25.501      1
    9     7     5    10     1     31.33321       12.887      1
   10     2     3    11     1    -66.96241        8.470      1
