[ moleculetype ]
; name        nrexcl
res           1

[ atoms ]
;    nr  type resnr resid  atom  cgnr     charge       mass
      1 SC4       1 res   C1        1      0.000     54.000
      2 TN6a      1 res   C2        2      0.000     36.000
      3 TN4a      1 res   C3        3      0.000     36.000
      4 SC2       1 res   C4        4      0.000     54.000
      5 C4        1 res   C5        5      0.000     72.000
      6 SN5a      1 res   C6        6      0.000     54.000

[ bonds ]
;  ai    aj   funct      b0(nm)        k
    1     2     1      0.26351    20000
    1     3     1      0.29044    20000
    1     5     1      0.43375    20000
    2     3     1      0.25770    20000
    3     4     1      0.27759    20000
    4     5     1      0.28377    20000
    5     6     1      0.42081    20000
