1TPCN04057
12
    1res  C1    1   -0.693   0.098   0.050
    1res  C2    2   -0.377   0.218   0.051
    1res  C3    3   -0.211   0.038  -0.017
    1res  C4    4   -0.044  -0.124   0.081
    1res  C5    5    0.103  -0.021  -0.135
    1res  C6    6    0.137   0.207   0.145
    1res  C7    7    0.380   0.151  -0.086
    1res  C8    8    0.466  -0.196   0.017
    1res  C9    9    0.709  -0.253   0.022
    1res  C10   10   -0.018   0.235  -0.136
    1res  C11   11   -0.328  -0.018   0.242
    1res  C12   12   -0.503  -0.197  -0.065
  10.00000  10.00000  10.00000
