1TPCN00374
24
    1res  C1    1    0.415   0.232  -0.101
    1res  C2    2    0.245  -0.011  -0.218
    1res  C3    3    0.100   0.018   0.042
    1res  C4    4   -0.158  -0.142   0.208
    1res  C5    5   -0.502  -0.009   0.183
    1res  C6    6   -0.831   0.059   0.328
    1res  C7    7   -1.115   0.037   0.173
    1res  C8    8   -1.230  -0.044  -0.055
    1res  C9    9   -1.400   0.118   0.086
    1res  C10   10   -1.601   0.246   0.165
    1res  C11   11   -1.602   0.031  -0.145
    1res  C12   12   -1.314  -0.178  -0.301
    1res  C13   13   -0.614   0.104  -0.030
    1res  C14   14   -0.333   0.134  -0.016
    1res  C15   15    0.555  -0.055  -0.078
    1res  C16   16    0.786   0.088   0.047
    1res  C17   17    0.985   0.227  -0.233
    1res  C18   18    1.106   0.141  -0.002
    1res  C19   19    1.262  -0.006  -0.172
    1res  C20   20    1.447  -0.149  -0.265
    1res  C21   21    1.372  -0.075   0.147
    1res  C22   22    1.132   0.125   0.288
    1res  C23   23    0.637  -0.327  -0.006
    1res  C24   24    0.524  -0.245  -0.264
  10.00000  10.00000  10.00000
