[ moleculetype ]
; name        nrexcl
res           1

[ atoms ]
;    nr  type resnr resid  atom  cgnr     charge       mass
      1 SC4       1 res   C1        1      0.000     54.000
      2 TC3       1 res   C2        2      0.000     36.000
      3 SC5       1 res   C3        3      0.000     54.000
      4 SN4a      1 res   C4        4      0.000     54.000
      5 SN4a      1 res   C5        5      0.000     54.000
      6 TN3r      1 res   C6        6      0.000     36.000
      7 SN4a      1 res   C7        7      0.000     54.000
      8 TP1       1 res   C8        8      0.000     36.000
      9 TN6       1 res   C9        9      0.000     36.000
     10 TN6       1 res   C10      10      0.000     36.000
     11 TN6       1 res   C11      11      0.000     36.000
     12 SN4a      1 res   C12      12      0.000     54.000
     13 TP1       1 res   C13      13      0.000     36.000
     14 TN6       1 res   C14      14      0.000     36.000
     15 TN6       1 res   C15      15      0.000     36.000
     16 TN6       1 res   C16      16      0.000     36.000
     17 TN6       1 res   C17      17      0.000     36.000
     18 TN6       1 res   C18      18      0.000     36.000
     19 TN6       1 res   C19      19      0.000     36.000
     20 SN6       1 res   C20      20      0.000     54.000
     21 SC4       1 res   C21      21      0.000     54.000
     22 TC3       1 res   C22      22      0.000     36.000
     23 SC4       1 res   C23      23      0.000     54.000
     24 SC4       1 res   C24      24      0.000     54.000
     25 TC3       1 res   C25      25      0.000     36.000
     26 TN6       1 res   C26      26      0.000     36.000
     27 TC4       1 res   C27      27      0.000     36.000
     28 SN4a      1 res   C28      28      0.000     54.000
     29 SN4a      1 res   C29      29      0.000     54.000
     30 TP1       1 res   C30      30      0.000     36.000
     31 TN6       1 res   C31      31      0.000     36.000
     32 TN6       1 res   C32      32      0.000     36.000
     33 TN6       1 res   C33      33      0.000     36.000
     34 TC3       1 res   C34      34      0.000     36.000

[ bonds ]
;  ai    aj   funct      b0(nm)        k
    1     2     1      0.29564    20000
    1     3     1      0.28141    20000
    2     3     1      0.27447    20000
    3     4     1      0.34526    20000
    3    20     1      0.37320    20000
    3    21     1      0.27895    20000
    4     5     1      0.28938    20000
    5     6     1      0.29913    20000
    5    17     1      0.30514    20000
    5    19     1      0.25353    20000
    6     7     1      0.29502    20000
    7     8     1      0.24675    20000
    7     9     1      0.25300    20000
    7    11     1      0.27036    20000
    9    10     1      0.21587    20000
   10    11     1      0.23722    20000
   11    12     1      0.26726    20000
   12    13     1      0.31751    20000
   12    14     1      0.29421    20000
   12    16     1      0.28634    20000
   14    15     1      0.26467    20000
   15    16     1      0.25103    20000
   17    18     1      0.25400    20000
   18    19     1      0.25862    20000
   20    21     1      0.28828    20000
   21    22     1      0.39360    20000
   21    23     1      0.31081    20000
   22    23     1      0.37991    20000
   23    24     1      0.37267    20000
   23    34     1      0.28298    20000
   24    25     1      0.28333    20000
   24    27     1      0.27885    20000
   24    34     1      0.37474    20000
   25    26     1      0.26226    20000
   26    27     1      0.26801    20000
   27    28     1      0.28136    20000
   28    29     1      0.22271    20000
   29    30     1      0.31601    20000
   29    31     1      0.29978    20000
   29    33     1      0.24547    20000
   31    32     1      0.23838    20000
   32    33     1      0.25679    20000
