1TPCN04309
24
    1res  C1    1   -0.974  -0.134  -0.307
    1res  C2    2   -0.851  -0.178   0.049
    1res  C3    3   -0.961   0.068   0.097
    1res  C4    4   -0.711  -0.023   0.178
    1res  C5    5   -0.725   0.103   0.409
    1res  C6    6   -0.630   0.255   0.095
    1res  C7    7   -0.426   0.093   0.256
    1res  C8    8   -0.376  -0.178   0.048
    1res  C9    9   -0.345   0.084  -0.047
    1res  C10   10   -0.078   0.016  -0.100
    1res  C11   11    0.067  -0.138   0.081
    1res  C12   12    0.241  -0.010  -0.052
    1res  C13   13    0.541   0.115  -0.150
    1res  C14   14    0.752   0.031  -0.036
    1res  C15   15    1.004  -0.042   0.053
    1res  C16   16    1.057  -0.355   0.138
    1res  C17   17    1.064  -0.252  -0.138
    1res  C18   18    1.188  -0.022  -0.215
    1res  C19   19    1.127   0.132  -0.064
    1res  C20   20    0.624  -0.141   0.003
    1res  C21   21    0.500  -0.156  -0.204
    1res  C22   22    0.146   0.213  -0.155
    1res  C23   23    0.208   0.284   0.120
    1res  C24   24   -0.183   0.283   0.009
  10.00000  10.00000  10.00000
