1TPCN03360
11
    1res  C1    1   -0.361   0.274  -0.215
    1res  C2    2   -0.120   0.030  -0.229
    1res  C3    3    0.006  -0.121  -0.159
    1res  C4    4    0.087  -0.342  -0.098
    1res  C5    5    0.106  -0.123   0.152
    1res  C6    6    0.318   0.041   0.112
    1res  C7    7    0.530   0.125   0.004
    1res  C8    8   -0.188   0.260   0.065
    1res  C9    9   -0.385  -0.007  -0.065
    1res  C10   10   -0.372  -0.079   0.316
    1res  C11   11   -0.173  -0.168  -0.011
  10.00000  10.00000  10.00000
