[ moleculetype ]
; name        nrexcl
res           1

[ atoms ]
;    nr  type  resnr resid  atom  cgnr     charge       mass
      1 TN6d      1 res   C1        1      0.000     36.000
      2 TC5       1 res   C2        2      0.000     36.000
      3 TC6       1 res   C3        3      0.000     36.000
      4 TC5       1 res   C4        4      0.000     36.000

[ bonds ]
;  ai    aj   funct      b0(nm)          k(kJ/mol/nm^2)
    1     2     1      0.31819          68296.2
    1     4     1      0.31819          60718.5
    2     3     1      0.31077          10253.5
    3     4     1      0.30784          10132.8

[ angles ]
;  ai    aj    ak  funct     th0(deg)        k(kJ/mol/rad^2)
    1     2     3     1    115.02209           385.22
    1     4     3     1    115.88424           379.19
    2     1     4     1     62.95206          6641.36
    2     3     4     1     64.78767          4837.55

[ dihedrals ]
;  ai    aj    ak    al  funct   phi0(deg)        k(kJ/mol)   mult
    1     2     3     4     1    176.75559       14.237      1
    1     2     3     4     1    173.52086       13.457      2
    1     2     3     4     1    170.30596       12.216      3
    1     4     3     2     1   -177.58165       13.528      1
    1     4     3     2     1   -175.19769       12.832      2
    1     4     3     2     1   -172.88614       11.726      3
    2     1     4     3     1    175.93060       13.555      1
    2     1     4     3     1    171.85237       12.862      2
    2     1     4     3     1    167.75443       11.760      3
    3     2     1     4     1   -176.73615       14.239      1
    3     2     1     4     1   -173.48154       13.458      2
    3     2     1     4     1   -170.24587       12.217      3
