[ moleculetype ]
; name        nrexcl
res           1

[ atoms ]
;    nr  type  resnr resid  atom  cgnr     charge       mass
      1 TC4       1 res   C1        1      0.000     36.000
      2 SN6       1 res   C2        2      0.000     54.000
      3 SN5a      1 res   C3        3      0.000     54.000
      4 SC5       1 res   C4        4      0.000     54.000
      5 N4a       1 res   C5        5      0.000     72.000
      6 TC5       1 res   C6        6      0.000     36.000
      7 SN6       1 res   C7        7      0.000     54.000
      8 TC5       1 res   C8        8      0.000     36.000
      9 TN6       1 res   C9        9      0.000     36.000
     10 SN4a      1 res   C10      10      0.000     54.000
     11 TP1       1 res   C11      11      0.000     36.000
     12 TN6       1 res   C12      12      0.000     36.000
     13 TN6       1 res   C13      13      0.000     36.000
     14 TN6       1 res   C14      14      0.000     36.000

[ bonds ]
;  ai    aj   funct      b0(nm)          k(kJ/mol/nm^2)
    1     2     1      0.36331          56417.8
    1     3     1      0.35965          72215.4
    1     9     1      0.26821          46205.9
    2     3     1      0.28486          81916.1
    2     4     1      0.28196          38254.1
    3     4     1      0.31860         192139.8
    4     5     1      0.33733          29053.6
    4     9     1      0.22479         133398.7
    5     6     1      0.35158          72894.8
    6     7     1      0.30179         228628.9
    6     8     1      0.29794         267924.8
    7     8     1      0.28477         184741.2
    9    10     1      0.28609          65140.2
   10    11     1      0.28862          48170.5
   10    12     1      0.29667          56602.1
   10    14     1      0.27044          28826.5
   12    13     1      0.20956          41571.0
   13    14     1      0.23370          35469.9

[ angles ]
;  ai    aj    ak  funct     th0(deg)        k(kJ/mol/rad^2)
    1     2     3     1     66.11360          3438.97
    1     2     4     1     73.99522          2829.40
    1     3     2     1     67.48078          2620.60
    1     3     4     1     70.68479          3435.37
    1     9     4     1    105.69220          1932.39
    1     9    10     1     98.96908           156.73
    2     1     3     1     46.40564          4451.36
    2     1     9     1     75.05868          2182.99
    2     3     4     1     55.36298          2957.18
    2     4     3     1     56.22087          5341.70
    2     4     5     1    108.07785          1338.46
    2     4     9     1    100.76367          1959.73
    3     1     9     1     58.43067          4574.26
    3     2     4     1     68.41615          2947.70
    3     4     5     1     56.16732          1614.18
    3     4     9     1     68.83958          2936.10
    4     5     6     1    131.56027           224.71
    4     9    10     1    130.23582           389.47
    5     4     9     1     75.07964           947.82
    5     6     7     1    139.90197          1034.76
    5     6     8     1     83.53757          1189.35
    6     7     8     1     60.97258         13085.81
    6     8     7     1     62.33443         11258.47
    7     6     8     1     56.69300         10366.73
    9    10    11     1    132.69353           432.77
    9    10    12     1    142.10387           719.72
    9    10    14     1     66.23798           794.28
   10    12    13     1     73.62461          1505.98
   10    14    13     1     75.90827          1022.69
   11    10    12     1     70.54758          1934.35
   11    10    14     1    126.89091           388.14
   12    10    14     1     76.45138          1142.47
   12    13    14     1    104.90322           417.85

[ dihedrals ]
;  ai    aj    ak    al  funct   phi0(deg)        k(kJ/mol)   mult
    1     2     3     4     1     98.01861        4.756      1
    1     2     3     4     1     16.03736        4.732      2
    1     2     3     4     1    -65.94359        4.691      3
    1     2     4     3     1   -109.08570        3.994      1
    1     2     4     3     1    -38.17164        3.979      2
    1     2     4     3     1     32.74195        3.956      3
    1     2     4     5     1    -88.28595        7.768      1
    1     2     4     5     1      3.45814        7.627      2
    1     2     4     5     1     95.26382        7.395      3
    1     2     4     9     1   -166.89132        6.953      1
    1     2     4     9     1   -153.78088        6.871      2
    1     2     4     9     1   -140.66681        6.736      3
    1     3     2     4     1    -98.01861        4.756      1
    1     3     2     4     1    -16.03736        4.732      2
    1     3     2     4     1     65.94359        4.691      3
    1     3     4     2     1    104.97363        5.506      1
    1     3     4     2     1     29.94711        5.468      2
    1     3     4     2     1    -45.07970        5.403      3
    1     3     4     5     1    -49.94199        7.808      1
    1     3     4     5     1     80.11652        7.694      2
    1     3     4     5     1   -149.82397        7.506      3
    1     3     4     9     1   -135.02488        4.032      1
    1     3     4     9     1    -90.04985        4.017      2
    1     3     4     9     1    -45.07497        3.993      3
    1     9     4     2     1    161.26400        8.452      1
    1     9     4     2     1    142.50803        8.277      2
    1     9     4     2     1    123.71049        7.991      3
    1     9     4     3     1    113.88558        6.248      1
    1     9     4     3     1     47.77004        6.190      2
    1     9     4     3     1    -18.34781        6.094      3
    1     9     4     5     1     53.98364        7.767      1
    1     9     4     5     1    -72.03303        7.655      2
    1     9     4     5     1    161.94968        7.469      3
    1     9    10    11     1    -30.23057       21.586      1
    1     9    10    11     1    119.88969       18.468      2
    1     9    10    11     1    -89.09116       13.942      3
    1     9    10    12     1     86.79195       24.927      1
    1     9    10    12     1     -4.80421       19.139      2
    1     9    10    12     1    -91.49860       11.783      3
    1     9    10    14     1     88.94123       19.395      1
    1     9    10    14     1     -1.75634       16.315      2
    1     9    10    14     1    -91.36257       11.873      3
    2     1     3     4     1   -120.94557        5.480      1
    2     1     3     4     1    -61.89076        5.442      2
    2     1     3     4     1     -2.83516        5.378      3
    2     1     9     4     1   -165.88478        7.691      1
    2     1     9     4     1   -151.76744        7.579      2
    2     1     9     4     1   -137.64573        7.395      3
    2     1     9    10     1     58.08535        7.789      1
    2     1     9    10     1    -63.82834        7.675      2
    2     1     9    10     1    174.25994        7.487      3
    2     3     1     9     1     80.00996        6.297      1
    2     3     1     9     1    -19.97992        6.239      2
    2     3     1     9     1   -119.96948        6.142      3
    2     3     4     5     1     25.03066        9.894      1
    2     3     4     5     1   -129.93742        9.651      2
    2     3     4     5     1     75.09716        9.254      3
    2     3     4     9     1    -60.94101        5.571      1
    2     3     4     9     1     58.11840        5.531      2
    2     3     4     9     1    177.17868        5.465      3
    2     4     5     6     1   -144.33154       14.324      1
    2     4     5     6     1   -108.76677       13.423      2
    2     4     5     6     1    -73.43629       12.004      3
    2     4     9    10     1    -87.22891       14.262      1
    2     4     9    10     1      5.64368       13.403      2
    2     4     9    10     1     98.74096       12.050      3
    3     1     2     4     1    106.99770        4.028      1
    3     1     2     4     1     33.99539        4.014      2
    3     1     2     4     1    -39.00695        3.990      3
    3     1     9     4     1   -116.98241        5.519      1
    3     1     9     4     1    -53.96456        5.480      2
    3     1     9     4     1      9.05382        5.415      3
    3     1     9    10     1    106.03581        7.768      1
    3     1     9    10     1     32.07234        7.655      2
    3     1     9    10     1    -41.88966        7.469      3
    3     2     1     9     1   -119.06688        5.520      1
    3     2     1     9     1    -58.13413        5.481      2
    3     2     1     9     1      2.79784        5.417      3
    3     2     4     5     1   -158.73276        8.464      1
    3     2     4     5     1   -137.47556        8.301      2
    3     2     4     5     1   -116.23895        8.034      3
    3     2     4     9     1    124.03002        6.236      1
    3     2     4     9     1     68.06059        6.178      2
    3     2     4     9     1     12.09229        6.083      3
    3     4     5     6     1   -119.15871       16.362      1
    3     4     5     6     1    -58.50084       14.934      2
    3     4     5     6     1      1.71953       12.732      3
    3     4     9    10     1   -134.07157       14.978      1
    3     4     9    10     1    -88.09090       14.050      2
    3     4     9    10     1    -41.99343       12.585      3
    4     2     1     9     1    168.89196        5.496      1
    4     2     1     9     1    157.78299        5.457      2
    4     2     1     9     1    146.67216        5.392      3
    4     3     1     9     1    140.00709        3.251      1
    4     3     1     9     1    100.01418        3.244      2
    4     3     1     9     1     60.02130        3.232      3
    4     5     6     7     1   -113.61128       21.026      1
    4     5     6     7     1    -44.46165       16.751      2
    4     5     6     7     1     30.55389       11.892      3
    4     5     6     8     1   -118.65103       20.601      1
    4     5     6     8     1    -55.91828       16.846      2
    4     5     6     8     1     10.55112       11.922      3
    4     9    10    11     1   -148.16111       17.756      1
    4     9    10    11     1   -116.16761       16.119      2
    4     9    10    11     1    -83.81848       13.615      3
    4     9    10    12     1    -31.62081       22.722      1
    4     9    10    12     1    116.94522       18.611      2
    4     9    10    12     1    -93.92919       12.770      3
    4     9    10    14     1    -29.77587       15.641      1
    4     9    10    14     1    120.64831       14.366      2
    4     9    10    14     1    -88.45364       12.392      3
    5     4     9    10     1    166.31756       14.290      1
    5     4     9    10     1    152.63282       13.373      2
    5     4     9    10     1    138.94536       11.923      3
    5     6     7     8     1    176.05558       13.636      1
    5     6     7     8     1    172.11434       12.941      2
    5     6     7     8     1    168.18015       11.834      3
    5     6     8     7     1     -1.21730       10.006      1
    5     6     8     7     1    177.57845        9.742      2
    5     6     8     7     1     -3.59865        9.311      3
    6     5     4     9     1    -45.76233       15.045      1
    6     5     4     9     1     88.41433       14.082      2
    6     5     4     9     1   -137.54733       12.563      3
    9    10    12    13     1   -144.86439       18.431      1
    9    10    12    13     1   -109.72316       16.621      2
    9    10    12    13     1    -74.56238       13.864      3
    9    10    14    13     1    -30.07808       12.257      1
    9    10    14    13     1    119.86254       11.773      2
    9    10    14    13     1    -90.15725       10.992      3
   10    12    13    14     1    137.01130        7.090      1
   10    12    13    14     1     94.02257        7.006      2
   10    12    13    14     1     51.03378        6.867      3
   10    14    13    12     1   -132.89586       10.028      1
   10    14    13    12     1    -85.79008        9.779      2
   10    14    13    12     1    -38.68089        9.372      3
   11    10    12    13     1     -5.08623       12.941      1
   11    10    12    13     1    169.82563       12.347      2
   11    10    12    13     1    -15.26667       11.395      3
   11    10    14    13     1     96.98358       10.031      1
   11    10    14    13     1     13.96620        9.782      2
   11    10    14    13     1    -69.05318        9.375      3
   12    10    14    13     1    147.83056        6.302      1
   12    10    14    13     1    115.67028        6.233      2
   12    10    14    13     1     83.52861        6.119      3
   13    12    10    14     1   -143.05773        8.572      1
   13    12    10    14     1   -106.11642        8.420      2
   13    12    10    14     1    -69.17708        8.170      3
