1TPCN04647
43
    1res  C1    1    0.737   0.270   0.402
    1res  C2    2    0.639   0.070   0.208
    1res  C3    3    0.550  -0.094   0.264
    1res  C4    4    0.373  -0.189   0.200
    1res  C5    5    0.116  -0.239   0.071
    1res  C6    6   -0.058  -0.092   0.194
    1res  C7    7   -0.135   0.123  -0.089
    1res  C8    8   -0.292  -0.003   0.141
    1res  C9    9   -0.306  -0.235  -0.146
    1res  C10   10   -0.478   0.091  -0.097
    1res  C11   11   -0.603  -0.115  -0.283
    1res  C12   12   -0.710  -0.258  -0.497
    1res  C13   13   -0.862  -0.205  -0.252
    1res  C14   14   -0.808   0.086  -0.176
    1res  C15   15   -1.069   0.166  -0.108
    1res  C16   16   -1.343   0.053  -0.115
    1res  C17   17   -1.558   0.095   0.159
    1res  C18   18   -1.628   0.298   0.276
    1res  C19   19   -1.783   0.003   0.196
    1res  C20   20   -1.794   0.106  -0.044
    1res  C21   21   -1.632  -0.042  -0.107
    1res  C22   22   -1.236   0.234   0.103
    1res  C23   23   -1.094   0.398   0.093
    1res  C24   24   -0.902   0.318   0.049
    1res  C25   25   -0.630  -0.095   0.077
    1res  C26   26    0.221   0.126   0.082
    1res  C27   27    0.231   0.013  -0.158
    1res  C28   28    0.560  -0.398   0.168
    1res  C29   29    0.618  -0.422   0.381
    1res  C30   30    0.644  -0.189   0.440
    1res  C31   31    0.744   0.066  -0.024
    1res  C32   32    0.877   0.283   0.132
    1res  C33   33    1.052   0.073   0.120
    1res  C34   34    1.094  -0.131  -0.047
    1res  C35   35    1.085  -0.010  -0.247
    1res  C36   36    1.317  -0.087  -0.033
    1res  C37   37    1.526  -0.030  -0.183
    1res  C38   38    1.566   0.083  -0.450
    1res  C39   39    1.784   0.013  -0.181
    1res  C40   40    1.689   0.248  -0.116
    1res  C41   41    1.569   0.123   0.044
    1res  C42   42    1.298  -0.208   0.158
    1res  C43   43    1.144  -0.056   0.270
  10.00000  10.00000  10.00000
