1TPCN04486
25
    1res  C1    1    0.223  -0.216   0.376
    1res  C2    2    0.202   0.084   0.320
    1res  C3    3   -0.049   0.018   0.272
    1res  C4    4    0.074   0.114   0.025
    1res  C5    5    0.289   0.114  -0.085
    1res  C6    6    0.552   0.016  -0.149
    1res  C7    7    0.804  -0.165  -0.178
    1res  C8    8    0.930  -0.407  -0.076
    1res  C9    9    1.086  -0.166  -0.102
    1res  C10   10    1.029   0.048  -0.182
    1res  C11   11    0.850   0.062  -0.052
    1res  C12   12    0.500   0.207   0.107
    1res  C13   13    0.478   0.393  -0.008
    1res  C14   14    0.301   0.388  -0.180
    1res  C15   15   -0.152   0.248   0.189
    1res  C16   16   -0.328   0.065   0.291
    1res  C17   17   -0.313  -0.224   0.093
    1res  C18   18   -0.515   0.092   0.101
    1res  C19   19   -0.610  -0.217  -0.081
    1res  C20   20   -0.857  -0.109   0.032
    1res  C21   21   -0.892  -0.144  -0.231
    1res  C22   22   -0.723   0.015  -0.371
    1res  C23   23   -0.815   0.208  -0.180
    1res  C24   24   -0.388   0.071  -0.189
    1res  C25   25    0.061  -0.210   0.152
  10.00000  10.00000  10.00000
