[ moleculetype ]
; name        nrexcl
res           1

[ atoms ]
;    nr  type  resnr resid  atom  cgnr     charge       mass
      1 TP1       1 res   C1        1      0.000     36.000
      2 TN4a      1 res   C2        2      0.000     36.000
      3 SP4       1 res   C3        3      0.000     54.000
      4 SP4       1 res   C4        4      0.000     54.000
      5 SN4a      1 res   C5        5      0.000     54.000
      6 SP4       1 res   C6        6      0.000     54.000
      7 TN6       1 res   C7        7      0.000     36.000
      8 TP1       1 res   C8        8      0.000     36.000

[ constraints ]
;  ai    aj   funct      b0(nm)
    1     2     1      0.23447
    2     3     1      0.25359
    5     7     1      0.24793
    3     4     1      0.27741
    5     6     1      0.26014
    2     4     1      0.28902

[ bonds ]
;  ai    aj   funct      b0(nm)          k(kJ/mol/nm^2)
    4     5     1      0.30420           4776.3
    6     7     1      0.24958          16788.5
    5     8     1      0.22736           8954.8

[ angles ]
;  ai    aj    ak  funct     th0(deg)        k(kJ/mol/rad^2)
    1     2     3     1     84.87138           450.38
    1     2     4     1    110.67685           196.88
    2     3     4     1     65.84254           650.69
    2     4     3     1     53.14954          1062.82
    2     4     5     1    130.47164            35.78
    3     2     4     1     61.00771          1710.92
    3     4     5     1    130.57244            84.89
    4     5     6     1     95.83648           100.20
    4     5     7     1    124.95788            47.40
    4     5     8     1    142.08457            42.58
    5     6     7     1     58.24708           792.67
    5     7     6     1     63.02773          1191.04
    6     5     7     1     58.72365          1340.09
    6     5     8     1    106.46713           470.36
    7     5     8     1     91.95823           449.85

[ dihedrals ]
;  ai    aj    ak    al  funct   phi0(deg)        k(kJ/mol)   mult
    1     2     3     4     1     61.07235       11.503      1
    1     2     4     3     1   -108.94979        8.568      1
    1     2     4     5     1    124.91058       21.509      1
    2     3     4     5     1    -61.47188       25.860      1
    2     4     5     6     1     76.96931       25.676      1
    2     4     5     7     1     19.21880       22.738      1
    2     4     5     8     1   -167.18408       28.279      1
    3     2     4     5     1     52.99529       24.270      1
    3     4     5     6     1     -8.53725       25.080      1
    3     4     5     7     1    -63.44037       25.179      1
    3     4     5     8     1    119.16481       27.652      1
    4     5     6     7     1     51.59453       16.394      1
    4     5     7     6     1   -106.36274       12.201      1
    6     7     5     8     1     69.71200       12.178      1
    7     6     5     8     1   -101.09600       12.883      1
