[ moleculetype ]
; name        nrexcl
res           1

[ atoms ]
;    nr  type resnr resid  atom  cgnr     charge       mass
      1 C4        1 res   C1        1      0.000     72.000
      2 TC3       1 res   C2        2      0.000     36.000
      3 TC4       1 res   C3        3      0.000     36.000
      4 TC4       1 res   C4        4      0.000     36.000
      5 SN6       1 res   C5        5      0.000     54.000
      6 SC4       1 res   C6        6      0.000     54.000
      7 TC5       1 res   C7        7      0.000     36.000
      8 TC3       1 res   C8        8      0.000     36.000
      9 SN4a      1 res   C9        9      0.000     54.000
     10 SC2       1 res   C10      10      0.000     54.000
     11 TN4a      1 res   C11      11      0.000     36.000
     12 TN3r      1 res   C12      12      0.000     36.000
     13 TN3r      1 res   C13      13      0.000     36.000

[ bonds ]
;  ai    aj   funct      b0(nm)        k
    1     2     1      0.34003    20000
    2     3     1      0.28898    20000
    3     4     1      0.28529    20000
    3     6     1      0.28198    20000
    4     5     1      0.29361    20000
    5     6     1      0.28146    20000
    6     7     1      0.26055    20000
    6     8     1      0.24131    20000
    6    11     1      0.28567    20000
    6    13     1      0.35916    20000
    7     8     1      0.26012    20000
    7    11     1      0.25594    20000
    8     9     1      0.23155    20000
    9    10     1      0.25617    20000
   11    12     1      0.25709    20000
