[ moleculetype ]
; name        nrexcl
res           1

[ atoms ]
;    nr  type  resnr resid  atom  cgnr     charge       mass
      1 TN6a      1 res   C1        1      0.000     36.000
      2 TN6d      1 res   C2        2      0.000     36.000
      3 SX2       1 res   C3        3      0.000     54.000
      4 TN6a      1 res   C4        4      0.000     36.000
      5 TN6d      1 res   C5        5      0.000     36.000

[ constraints ]
;  ai    aj   funct      b0(nm)
    1     2     1      0.19357
    2     3     1      0.26935
    1     5     1      0.19527
    4     5     1      0.19538
    3     4     1      0.26674

[ bonds ]
;  ai    aj   funct      b0(nm)          k(kJ/mol/nm^2)

[ angles ]
;  ai    aj    ak  funct     th0(deg)        k(kJ/mol/rad^2)
    1     2     3     1    106.38674          1507.34
    1     5     4     1    127.36615          1297.67
    2     1     5     1    112.34242          1053.09
    2     3     4     1     93.16410          2824.36
    3     4     5     1     99.05567          2106.32

[ dihedrals ]
;  ai    aj    ak    al  funct   phi0(deg)        k(kJ/mol)   mult
    1     2     3     4     1   -179.02192       14.392      1
    1     5     4     3     1   -179.38961       15.001      1
    2     1     5     4     1   -178.78136       18.470      1
    2     3     4     5     1    177.78205       12.198      1
    3     2     1     5     1    179.03922       17.147      1
