[ moleculetype ]
; name        nrexcl
res           1

[ atoms ]
;    nr  type  resnr resid  atom  cgnr     charge       mass
      1 SX3       1 res   C1        1      0.000     54.000
      2 TX3       1 res   C2        2      0.000     36.000
      3 SN2a      1 res   C3        3      0.000     54.000
      4 SX3       1 res   C4        4      0.000     54.000

[ constraints ]
;  ai    aj   funct      b0(nm)
    1     2     1      0.28082
    2     3     1      0.34783
    1     4     1      0.31136
    3     4     1      0.33583

[ bonds ]
;  ai    aj   funct      b0(nm)          k(kJ/mol/nm^2)

[ angles ]
;  ai    aj    ak  funct     th0(deg)        k(kJ/mol/rad^2)
    1     2     3     1    105.18283          2739.56
    1     4     3     1    101.38353          3571.30
    2     1     4     1     83.00578          7026.22
    2     3     4     1     70.16461          6429.21

[ dihedrals ]
;  ai    aj    ak    al  funct   phi0(deg)        k(kJ/mol)   mult
    1     2     3     4     1    179.05227        8.512      1
    1     4     3     2     1   -179.06808        8.480      1
    2     1     4     3     1    179.99744        9.234      1
    3     2     1     4     1   -179.98915        9.223      1
