[ moleculetype ]
; name        nrexcl
res           1

[ atoms ]
;    nr  type resnr resid  atom  cgnr     charge       mass
      1 TC4       1 res   C1        1      0.000     36.000
      2 TN4a      1 res   C2        2      0.000     36.000
      3 TN6       1 res   C3        3      0.000     36.000
      4 TN6       1 res   C4        4      0.000     36.000
      5 SN6       1 res   C5        5      0.000     54.000
      6 TN4a      1 res   C6        6      0.000     36.000
      7 TN6       1 res   C7        7      0.000     36.000
      8 SC3       1 res   C8        8      0.000     54.000
      9 SC4       1 res   C9        9      0.000     54.000
     10 TC3       1 res   C10      10      0.000     36.000
     11 SC4       1 res   C11      11      0.000     54.000
     12 TC3       1 res   C12      12      0.000     36.000
     13 SC4       1 res   C13      13      0.000     54.000
     14 TN2a      1 res   C14      14      0.000     36.000
     15 SC3       1 res   C15      15      0.000     54.000
     16 TC3       1 res   C16      16      0.000     36.000
     17 SN6       1 res   C17      17      0.000     54.000
     18 SN6       1 res   C18      18      0.000     54.000
     19 SC4       1 res   C19      19      0.000     54.000
     20 TN6       1 res   C20      20      0.000     36.000
     21 SN4a      1 res   C21      21      0.000     54.000
     22 TP1       1 res   C22      22      0.000     36.000
     23 TN6       1 res   C23      23      0.000     36.000
     24 TN6       1 res   C24      24      0.000     36.000
     25 TN6       1 res   C25      25      0.000     36.000
     26 TN4a      1 res   C26      26      0.000     36.000
     27 TP1       1 res   C27      27      0.000     36.000
     28 TN6       1 res   C28      28      0.000     36.000
     29 TN6       1 res   C29      29      0.000     36.000
     30 TN6       1 res   C30      30      0.000     36.000
     31 TN6       1 res   C31      31      0.000     36.000
     32 TN6       1 res   C32      32      0.000     36.000

[ bonds ]
;  ai    aj   funct      b0(nm)        k
    1     2     1      0.29606    20000
    1    32     1      0.24253    20000
    2     3     1      0.22511    20000
    2    30     1      0.23156    20000
    3     4     1      0.20639    20000
    3    29     1      0.22206    20000
    4     5     1      0.23220    20000
    4    26     1      0.23150    20000
    5     6     1      0.28509    20000
    5    20     1      0.22496    20000
    6     7     1      0.26399    20000
    7     8     1      0.29472    20000
    7    20     1      0.20834    20000
    8     9     1      0.26083    20000
    8    19     1      0.35258    20000
    9    10     1      0.31906    20000
    9    11     1      0.33515    20000
    9    19     1      0.32378    20000
   10    11     1      0.28571    20000
   11    12     1      0.27547    20000
   11    13     1      0.27283    20000
   12    13     1      0.35024    20000
   13    14     1      0.33968    20000
   13    15     1      0.33712    20000
   13    18     1      0.28043    20000
   14    15     1      0.16834    20000
   15    16     1      0.27196    20000
   15    17     1      0.33328    20000
   15    18     1      0.27220    20000
   16    17     1      0.27674    20000
   20    21     1      0.30353    20000
   21    22     1      0.28293    20000
   21    23     1      0.29192    20000
   21    25     1      0.27775    20000
   23    24     1      0.26504    20000
   24    25     1      0.21145    20000
   26    27     1      0.22160    20000
   26    28     1      0.23568    20000
   28    29     1      0.26334    20000
   30    31     1      0.22041    20000
   31    32     1      0.23762    20000
