[ moleculetype ]
; name        nrexcl
res           1

[ atoms ]
;    nr  type  resnr resid  atom  cgnr     charge       mass
      1 TC5       1 res   C1        1      0.000     36.000
      2 TX3       1 res   C2        2      0.000     36.000
      3 TC5       1 res   C3        3      0.000     36.000
      4 TN6       1 res   C4        4      0.000     36.000

[ constraints ]
;  ai    aj   funct      b0(nm)
    1     2     1      0.27865
    2     3     1      0.27904
    1     4     1      0.28173
    3     4     1      0.31266

[ bonds ]
;  ai    aj   funct      b0(nm)          k(kJ/mol/nm^2)

[ angles ]
;  ai    aj    ak  funct     th0(deg)        k(kJ/mol/rad^2)
    1     2     3     1     73.09205          5628.03
    1     4     3     1     67.69946          6154.75
    2     1     4     1    113.49515          3998.16
    2     3     4     1    104.59983          4238.57

[ dihedrals ]
;  ai    aj    ak    al  funct   phi0(deg)        k(kJ/mol)   mult
    1     2     3     4     1   -179.96545       10.833      1
    1     4     3     2     1    179.98324       10.851      1
    2     1     4     3     1   -179.06825       11.576      1
    3     2     1     4     1    179.96920       12.287      1
