[ moleculetype ]
; name        nrexcl
res           1

[ atoms ]
;    nr  type  resnr resid  atom  cgnr     charge       mass
      1 SC4       1 res   C1        1      0.000     54.000
      2 TN4a      1 res   C2        2      0.000     36.000
      3 TN6a      1 res   C3        3      0.000     36.000
      4 SN6       1 res   C4        4      0.000     54.000
      5 SN3r      1 res   C5        5      0.000     54.000
      6 SN4a      1 res   C6        6      0.000     54.000
      7 N4a       1 res   C7        7      0.000     72.000
      8 TC5       1 res   C8        8      0.000     36.000
      9 TC5       1 res   C9        9      0.000     36.000
     10 SN6       1 res   C10      10      0.000     54.000
     11 SN6       1 res   C11      11      0.000     54.000
     12 SP4       1 res   C12      12      0.000     54.000
     13 TN6       1 res   C13      13      0.000     36.000

[ constraints ]
;  ai    aj   funct      b0(nm)
    1     2     1      0.31316
   10    11     1      0.29638
    2     3     1      0.26981
    6    12     1      0.28968
    4     5     1      0.35491
    9    11     1      0.33433
    7     8     1      0.33333
    5     6     1      0.25226
    9    10     1      0.29729
   12    13     1      0.28235
    6     7     1      0.31445
    6    13     1      0.27247
    8     9     1      0.22668

[ bonds ]
;  ai    aj   funct      b0(nm)          k(kJ/mol/nm^2)
    3     4     1      0.30742          18263.6
    2     4     1      0.22022          15697.4

[ angles ]
;  ai    aj    ak  funct     th0(deg)        k(kJ/mol/rad^2)
    1     2     3     1     99.35331            95.51
    1     2     4     1    112.53929            74.32
    2     3     4     1     44.19835          1638.49
    2     4     3     1     58.87699           710.06
    2     4     5     1    107.51367           614.11
    3     2     4     1     76.92497           846.95
    3     4     5     1     52.75448          1787.03
    4     5     6     1    109.09088           189.82
    5     6     7     1    106.24517           158.47
    5     6    12     1    143.10800           378.68
    5     6    13     1    116.60597           424.65
    6     7     8     1    128.25574           110.26
    6    12    13     1     56.87430          3105.60
    6    13    12     1     62.92460          3299.17
    7     6    12     1     75.26090           924.21
    7     6    13     1    133.42947           535.81
    7     8     9     1    147.63721           264.32
    8     9    10     1    156.90162           594.48
    8     9    11     1    102.56546          1094.39
    9    10    11     1     68.55198          4823.86
    9    11    10     1     55.85360          5836.75
   10     9    11     1     55.59430          5695.18
   12     6    13     1     60.20113          2921.44

[ dihedrals ]
;  ai    aj    ak    al  funct   phi0(deg)        k(kJ/mol)   mult
    1     2     3     4     1    -69.90723       15.119      1
    1     2     4     3     1     81.88247       17.699      1
    1     2     4     5     1    100.88557       25.767      1
    2     3     4     5     1     21.90305       20.446      1
    2     4     5     6     1   -140.50128       21.649      1
    3     2     4     5     1   -162.91785       17.161      1
    3     4     5     6     1   -120.91404       11.530      1
    4     5     6     7     1     78.71195       15.706      1
    4     5     6    12     1    -12.27810       16.099      1
    4     5     6    13     1    -85.24595       14.309      1
    5     6     7     8     1    107.70308       19.634      1
    5     6    12    13     1     87.21125       12.908      1
    5     6    13    12     1    -43.70912       10.741      1
    6     7     8     9     1     38.71853       29.321      1
    7     6    12    13     1    -14.86883       10.085      1
    7     6    13    12     1    161.92992       12.290      1
    7     8     9    10     1      3.23034       29.270      1
    7     8     9    11     1      5.73367       22.185      1
    8     7     6    12     1   -110.94963       18.447      1
    8     7     6    13     1    -92.12812       20.313      1
    8     9    10    11     1   -178.19810       26.500      1
    8     9    11    10     1      0.29914       16.304      1
