1TPCN05149
27
    1res  C1    1    0.213  -0.092   0.578
    1res  C2    2    0.303  -0.057   0.263
    1res  C3    3    0.258   0.088   0.097
    1res  C4    4   -0.029   0.112   0.143
    1res  C5    5   -0.183   0.104  -0.093
    1res  C6    6   -0.276  -0.217   0.069
    1res  C7    7   -0.360   0.007   0.215
    1res  C8    8   -0.489   0.038  -0.142
    1res  C9    9   -0.611  -0.153   0.203
    1res  C10   10   -0.879  -0.156   0.035
    1res  C11   11   -0.913   0.005  -0.296
    1res  C12   12   -1.022   0.071  -0.001
    1res  C13   13   -0.713   0.088   0.233
    1res  C14   14    0.039  -0.035  -0.193
    1res  C15   15    0.067  -0.273  -0.044
    1res  C16   16    0.453   0.081   0.029
    1res  C17   17    0.411  -0.044  -0.239
    1res  C18   18    0.521  -0.237  -0.404
    1res  C19   19    0.702  -0.085  -0.359
    1res  C20   20    0.673   0.020  -0.184
    1res  C21   21    0.849   0.118  -0.108
    1res  C22   22    0.967   0.274   0.113
    1res  C23   23    1.153   0.263  -0.045
    1res  C24   24    1.142   0.135  -0.238
    1res  C25   25    0.930   0.186  -0.303
    1res  C26   26    0.608   0.078   0.167
    1res  C27   27    0.532  -0.113   0.297
  10.00000  10.00000  10.00000
