[ moleculetype ]
; name        nrexcl
res           1

[ atoms ]
;    nr  type resnr resid  atom  cgnr     charge       mass
      1 N4a       1 res   C1        1      0.000     72.000
      2 TN4a      1 res   C2        2      0.000     36.000
      3 TN6       1 res   C3        3      0.000     36.000
      4 SC3       1 res   C4        4      0.000     54.000
      5 SC4       1 res   C5        5      0.000     54.000
      6 TC3       1 res   C6        6      0.000     36.000
      7 SC4       1 res   C7        7      0.000     54.000
      8 TC3       1 res   C8        8      0.000     36.000
      9 SC4       1 res   C9        9      0.000     54.000
     10 SC4       1 res   C10      10      0.000     54.000
     11 SC4       1 res   C11      11      0.000     54.000
     12 SN6       1 res   C12      12      0.000     54.000
     13 TC3       1 res   C13      13      0.000     36.000
     14 TC4       1 res   C14      14      0.000     36.000
     15 TP1       1 res   C15      15      0.000     36.000
     16 TN6       1 res   C16      16      0.000     36.000
     17 SN4a      1 res   C17      17      0.000     54.000
     18 TN6       1 res   C18      18      0.000     36.000
     19 TN6       1 res   C19      19      0.000     36.000
     20 TN6       1 res   C20      20      0.000     36.000
     21 TN4a      1 res   C21      21      0.000     36.000
     22 TC4       1 res   C22      22      0.000     36.000
     23 TN6       1 res   C23      23      0.000     36.000
     24 TN6       1 res   C24      24      0.000     36.000
     25 TN6       1 res   C25      25      0.000     36.000
     26 TN6       1 res   C26      26      0.000     36.000
     27 TN6       1 res   C27      27      0.000     36.000

[ bonds ]
;  ai    aj   funct      b0(nm)        k
    1     2     1      0.32970    20000
    2     3     1      0.22535    20000
    2    27     1      0.23829    20000
    3     4     1      0.29123    20000
    3    16     1      0.20634    20000
    4     5     1      0.28238    20000
    4    14     1      0.37314    20000
    5     6     1      0.37133    20000
    5     7     1      0.36812    20000
    5    14     1      0.28051    20000
    6     7     1      0.28044    20000
    7     8     1      0.38084    20000
    7     9     1      0.29704    20000
    8     9     1      0.41278    20000
    9    10     1      0.31621    20000
    9    13     1      0.26306    20000
   10    11     1      0.36989    20000
   10    12     1      0.27092    20000
   10    13     1      0.35526    20000
   11    12     1      0.32136    20000
   14    15     1      0.28279    20000
   16    17     1      0.29822    20000
   16    26     1      0.20768    20000
   17    18     1      0.27702    20000
   17    20     1      0.27523    20000
   18    19     1      0.24113    20000
   19    20     1      0.20594    20000
   20    21     1      0.21575    20000
   21    22     1      0.29500    20000
   21    25     1      0.22143    20000
   22    23     1      0.24423    20000
   23    24     1      0.23243    20000
   24    25     1      0.22703    20000
   26    27     1      0.24268    20000
