1TPCN00332
12
    1res  C1    1   -0.124   0.146   0.278
    1res  C2    2   -0.129  -0.041   0.048
    1res  C3    3   -0.369   0.129   0.015
    1res  C4    4   -0.351  -0.115  -0.064
    1res  C5    5   -0.110  -0.048  -0.262
    1res  C6    6    0.063  -0.027  -0.059
    1res  C7    7   -0.030   0.207  -0.020
    1res  C8    8    0.355   0.310   0.035
    1res  C9    9    0.283  -0.027   0.016
    1res  C10   10    0.147  -0.195  -0.044
    1res  C11   11    0.318  -0.371   0.004
    1res  C12   12    0.043  -0.420  -0.082
  10.00000  10.00000  10.00000
