1TPCN04059
18
    1res  C1    1    1.201   0.164  -0.072
    1res  C2    2    0.961   0.005  -0.023
    1res  C3    3    0.669  -0.144  -0.055
    1res  C4    4    0.258  -0.174  -0.150
    1res  C5    5    0.234  -0.108   0.157
    1res  C6    6    0.018  -0.164  -0.028
    1res  C7    7   -0.079   0.018  -0.256
    1res  C8    8   -0.225  -0.072  -0.062
    1res  C9    9   -0.229  -0.027   0.223
    1res  C10   10   -0.286   0.224   0.022
    1res  C11   11   -0.578   0.009   0.080
    1res  C12   12   -0.797  -0.162   0.131
    1res  C13   13   -0.823   0.119   0.047
    1res  C14   14   -0.614   0.359   0.197
    1res  C15   15   -0.491   0.204  -0.156
    1res  C16   16    0.291   0.039  -0.297
    1res  C17   17    0.786   0.102   0.202
    1res  C18   18    0.980   0.312   0.214
  10.00000  10.00000  10.00000
