1TPCN04344
27
    1res  C1    1    0.446   0.212   0.143
    1res  C2    2    0.536  -0.082   0.075
    1res  C3    3    0.426  -0.249   0.052
    1res  C4    4    0.228  -0.285   0.007
    1res  C5    5    0.000  -0.105  -0.092
    1res  C6    6   -0.246  -0.223  -0.011
    1res  C7    7   -0.210   0.118   0.145
    1res  C8    8   -0.327   0.132  -0.124
    1res  C9    9   -0.495  -0.046  -0.220
    1res  C10   10   -0.507   0.294  -0.015
    1res  C11   11   -0.804   0.122  -0.088
    1res  C12   12   -1.054   0.019  -0.149
    1res  C13   13   -0.999   0.140   0.117
    1res  C14   14   -0.815   0.411   0.057
    1res  C15   15   -0.592   0.156   0.211
    1res  C16   16   -0.014  -0.203   0.251
    1res  C17   17    0.247  -0.535   0.097
    1res  C18   18    0.333  -0.553   0.293
    1res  C19   19    0.446  -0.601  -0.013
    1res  C20   20    0.576  -0.425   0.002
    1res  C21   21    0.642  -0.091  -0.147
    1res  C22   22    0.729   0.152   0.081
    1res  C23   23    0.875   0.081  -0.147
    1res  C24   24    0.903   0.248  -0.344
    1res  C25   25    1.073   0.419  -0.279
    1res  C26   26    1.076   0.360  -0.075
    1res  C27   27    1.081   0.120  -0.053
  10.00000  10.00000  10.00000
