[ moleculetype ]
; name        nrexcl
res           1

[ atoms ]
;    nr  type  resnr resid  atom  cgnr     charge       mass
      1 TN6       1 res   C1        1      0.000     36.000
      2 TX4e      1 res   C2        2      0.000     36.000
      3 TX4e      1 res   C3        3      0.000     36.000
      4 TX4e      1 res   C4        4      0.000     36.000
      5 TX4e      1 res   C5        5      0.000     36.000
      6 TX4e      1 res   C6        6      0.000     36.000

[ constraints ]
;  ai    aj   funct      b0(nm)
    2     3     1      0.20642
    4     5     1      0.20585
    3     4     1      0.20642
    5     6     1      0.20539
    1     6     1      0.25296

[ bonds ]
;  ai    aj   funct      b0(nm)          k(kJ/mol/nm^2)
    1     2     1      0.20326          19194.9

[ angles ]
;  ai    aj    ak  funct     th0(deg)        k(kJ/mol/rad^2)
    1     2     3     1    132.80973           978.67
    1     6     5     1    123.25835           913.56
    2     1     6     1    102.33508          2220.54
    2     3     4     1    119.66243          1351.66
    3     4     5     1    119.80772          2830.92
    4     5     6     1    120.00511          1384.10

[ dihedrals ]
;  ai    aj    ak    al  funct   phi0(deg)        k(kJ/mol)   mult
    1     2     3     4     1   -179.65239       19.013      1
    1     6     5     4     1    178.19053       16.422      1
    2     1     6     5     1   -179.94302       16.425      1
    2     3     4     5     1    179.98961       13.687      1
    3     2     1     6     1    179.37810       19.797      1
    3     4     5     6     1   -179.04441       12.954      1
