[ moleculetype ]
; name        nrexcl
res           1

[ atoms ]
;    nr  type resnr resid  atom  cgnr     charge       mass
      1 TC4       1 res   C1        1      0.000     36.000
      2 TC3       1 res   C2        2      0.000     36.000
      3 TN6       1 res   C3        3      0.000     36.000
      4 TC5       1 res   C4        4      0.000     36.000
      5 TN2a      1 res   C5        5      0.000     36.000
      6 SC3       1 res   C6        6      0.000     54.000
      7 P1        1 res   C7        7      0.000     72.000
      8 TN6       1 res   C8        8      0.000     36.000
      9 SN4a      1 res   C9        9      0.000     54.000
     10 TN3r      1 res   C10      10      0.000     36.000
     11 SN4a      1 res   C11      11      0.000     54.000
     12 TP1       1 res   C12      12      0.000     36.000
     13 TN6       1 res   C13      13      0.000     36.000
     14 TN6       1 res   C14      14      0.000     36.000
     15 TN6       1 res   C15      15      0.000     36.000
     16 TN6       1 res   C16      16      0.000     36.000
     17 TN6       1 res   C17      17      0.000     36.000
     18 TN6       1 res   C18      18      0.000     36.000

[ bonds ]
;  ai    aj   funct      b0(nm)        k
    1     2     1      0.31301    20000
    1     4     1      0.27548    20000
    2     3     1      0.26519    20000
    3     4     1      0.30845    20000
    4     5     1      0.24761    20000
    4     6     1      0.26283    20000
    4     8     1      0.22961    20000
    6     7     1      0.30622    20000
    6     8     1      0.29485    20000
    8     9     1      0.25409    20000
    9    10     1      0.29057    20000
    9    16     1      0.24947    20000
    9    18     1      0.30675    20000
   10    11     1      0.27334    20000
   11    12     1      0.31389    20000
   11    13     1      0.26460    20000
   11    15     1      0.28794    20000
   13    14     1      0.25043    20000
   14    15     1      0.22048    20000
   16    17     1      0.23861    20000
   17    18     1      0.21991    20000
