Generated with MDTraj, t= 0.0
 53
    1UNL     C1    1  -0.431  -0.113   0.160
    1UNL     C2    2  -0.346  -0.046   0.059
    1UNL     C3    3  -0.234  -0.095   0.008
    1UNL     C4    4  -0.179  -0.229   0.050
    1UNL     N1    5  -0.043  -0.225   0.108
    1UNL     C5    6  -0.040  -0.155   0.240
    1UNL     C6    7  -0.004  -0.009   0.213
    1UNL     C7    8   0.044   0.001   0.065
    1UNL     C8    9   0.190   0.046   0.065
    1UNL     C9   10   0.246   0.172   0.074
    1UNL    C10   11   0.383   0.184   0.078
    1UNL    C11   12   0.465   0.072   0.075
    1UNL    C12   13   0.410  -0.054   0.068
    1UNL    C13   14   0.272  -0.068   0.064
    1UNL     N2   15   0.195  -0.184   0.055
    1UNL    C14   16   0.054  -0.152   0.021
    1UNL    C15   17   0.034  -0.183  -0.132
    1UNL     O1   18   0.024  -0.324  -0.153
    1UNL    C16   19  -0.089  -0.112  -0.195
    1UNL    C17   20  -0.157  -0.016  -0.096
    1UNL    C18   21  -0.053   0.083  -0.032
    1UNL    C19   22  -0.133   0.195   0.039
    1UNL     O2   23  -0.223   0.258  -0.050
    1UNL    C20   24   0.032   0.152  -0.140
    1UNL     O3   25   0.077   0.089  -0.232
    1UNL     O4   26   0.055   0.286  -0.121
    1UNL    C21   27   0.132   0.334  -0.227
    1UNL     H1   28  -0.519  -0.054   0.185
    1UNL     H2   29  -0.375  -0.131   0.252
    1UNL     H3   30  -0.466  -0.210   0.123
    1UNL     H4   31  -0.379   0.050   0.023
    1UNL     H5   32  -0.245  -0.277   0.123
    1UNL     H6   33  -0.176  -0.296  -0.036
    1UNL     H7   34  -0.137  -0.166   0.291
    1UNL     H8   35   0.035  -0.204   0.302
    1UNL     H9   36  -0.090   0.056   0.233
    1UNL    H10   37   0.075   0.025   0.280
    1UNL    H11   38   0.182   0.258   0.075
    1UNL    H12   39   0.428   0.282   0.083
    1UNL    H13   40   0.572   0.084   0.078
    1UNL    H14   41   0.472  -0.142   0.066
    1UNL    H15   42   0.233  -0.268   0.013
    1UNL    H16   43   0.126  -0.150  -0.184
    1UNL    H17   44   0.084  -0.372  -0.092
    1UNL    H18   45  -0.159  -0.189  -0.228
    1UNL    H19   46  -0.059  -0.058  -0.286
    1UNL    H20   47  -0.229   0.046  -0.151
    1UNL    H21   48  -0.192   0.156   0.122
    1UNL    H22   49  -0.063   0.269   0.079
    1UNL    H23   50  -0.253   0.345  -0.015
    1UNL    H24   51   0.078   0.318  -0.320
    1UNL    H25   52   0.227   0.279  -0.230
    1UNL    H26   53   0.151   0.440  -0.212
   0.00000   0.00000   0.00000   0.00000   0.00000   0.00000   0.00000   0.00000   0.00000
Generated with MDTraj, t= 1.0
 53
    1UNL     C1    1  -0.464  -0.133   0.109
    1UNL     C2    2  -0.358  -0.058   0.047
    1UNL     C3    3  -0.233  -0.098   0.017
    1UNL     C4    4  -0.177  -0.231   0.060
    1UNL     N1    5  -0.035  -0.231   0.120
    1UNL     C5    6  -0.032  -0.155   0.250
    1UNL     C6    7  -0.005  -0.012   0.214
    1UNL     C7    8   0.045  -0.003   0.071
    1UNL     C8    9   0.182   0.046   0.072
    1UNL     C9   10   0.238   0.173   0.071
    1UNL    C10   11   0.380   0.193   0.083
    1UNL    C11   12   0.459   0.088   0.048
    1UNL    C12   13   0.405  -0.044   0.033
    1UNL    C13   14   0.268  -0.059   0.054
    1UNL     N2   15   0.198  -0.182   0.049
    1UNL    C14   16   0.061  -0.157   0.022
    1UNL    C15   17   0.028  -0.184  -0.123
    1UNL     O1   18   0.014  -0.331  -0.143
    1UNL    C16   19  -0.094  -0.108  -0.183
    1UNL    C17   20  -0.159  -0.014  -0.085
    1UNL    C18   21  -0.053   0.082  -0.019
    1UNL    C19   22  -0.120   0.201   0.049
    1UNL     O2   23  -0.176   0.289  -0.041
    1UNL    C20   24   0.027   0.150  -0.133
    1UNL     O3   25   0.072   0.087  -0.225
    1UNL     O4   26   0.058   0.282  -0.118
    1UNL    C21   27   0.136   0.318  -0.226
    1UNL     H1   28  -0.558  -0.073   0.111
    1UNL     H2   29  -0.440  -0.149   0.214
    1UNL     H3   30  -0.483  -0.224   0.061
    1UNL     H4   31  -0.391   0.034  -0.000
    1UNL     H5   32  -0.241  -0.284   0.121
    1UNL     H6   33  -0.170  -0.298  -0.027
    1UNL     H7   34  -0.115  -0.168   0.323
    1UNL     H8   35   0.056  -0.190   0.303
    1UNL     H9   36  -0.100   0.059   0.228
    1UNL    H10   37   0.066   0.033   0.280
    1UNL    H11   38   0.173   0.262   0.091
    1UNL    H12   39   0.426   0.293   0.111
    1UNL    H13   40   0.568   0.099   0.048
    1UNL    H14   41   0.469  -0.131   0.043
    1UNL    H15   42   0.235  -0.266   0.005
    1UNL    H16   43   0.125  -0.157  -0.170
    1UNL    H17   44   0.103  -0.370  -0.157
    1UNL    H18   45  -0.167  -0.182  -0.220
    1UNL    H19   46  -0.062  -0.062  -0.271
    1UNL    H20   47  -0.230   0.042  -0.132
    1UNL    H21   48  -0.209   0.182   0.107
    1UNL    H22   49  -0.039   0.257   0.108
    1UNL    H23   50  -0.127   0.327  -0.117
    1UNL    H24   51   0.237   0.281  -0.211
    1UNL    H25   52   0.135   0.426  -0.221
    1UNL    H26   53   0.093   0.288  -0.321
   0.00000   0.00000   0.00000   0.00000   0.00000   0.00000   0.00000   0.00000   0.00000
Generated with MDTraj, t= 2.0
 53
    1UNL     C1    1  -0.473  -0.144   0.131
    1UNL     C2    2  -0.382  -0.068   0.039
    1UNL     C3    3  -0.249  -0.091   0.016
    1UNL     C4    4  -0.191  -0.218   0.071
    1UNL     N1    5  -0.042  -0.212   0.108
    1UNL     C5    6  -0.021  -0.156   0.240
    1UNL     C6    7  -0.001  -0.007   0.211
    1UNL     C7    8   0.042   0.008   0.068
    1UNL     C8    9   0.185   0.054   0.069
    1UNL     C9   10   0.249   0.176   0.062
    1UNL    C10   11   0.387   0.184   0.061
    1UNL    C11   12   0.470   0.068   0.055
    1UNL    C12   13   0.411  -0.063   0.047
    1UNL    C13   14   0.270  -0.064   0.063
    1UNL     N2   15   0.188  -0.181   0.063
    1UNL    C14   16   0.054  -0.145   0.023
    1UNL    C15   17   0.031  -0.168  -0.134
    1UNL     O1   18   0.061  -0.311  -0.166
    1UNL    C16   19  -0.105  -0.118  -0.181
    1UNL    C17   20  -0.165  -0.011  -0.089
    1UNL    C18   21  -0.057   0.080  -0.026
    1UNL    C19   22  -0.117   0.196   0.053
    1UNL     O2   23  -0.201   0.270  -0.026
    1UNL    C20   24   0.033   0.148  -0.129
    1UNL     O3   25   0.078   0.089  -0.226
    1UNL     O4   26   0.059   0.286  -0.115
    1UNL    C21   27   0.153   0.314  -0.219
    1UNL     H1   28  -0.583  -0.135   0.113
    1UNL     H2   29  -0.463  -0.098   0.230
    1UNL     H3   30  -0.454  -0.246   0.137
    1UNL     H4   31  -0.423   0.005  -0.029
    1UNL     H5   32  -0.239  -0.249   0.157
    1UNL     H6   33  -0.203  -0.302   0.002
    1UNL     H7   34  -0.103  -0.166   0.314
    1UNL     H8   35   0.065  -0.199   0.288
    1UNL     H9   36  -0.101   0.043   0.227
    1UNL    H10   37   0.062   0.046   0.281
    1UNL    H11   38   0.195   0.262   0.054
    1UNL    H12   39   0.421   0.279   0.068
    1UNL    H13   40   0.576   0.069   0.042
    1UNL    H14   41   0.469  -0.154   0.052
    1UNL    H15   42   0.221  -0.271   0.025
    1UNL    H16   43   0.116  -0.122  -0.191
    1UNL    H17   44   0.079  -0.368  -0.086
    1UNL    H18   45  -0.168  -0.207  -0.204
    1UNL    H19   46  -0.092  -0.072  -0.271
    1UNL    H20   47  -0.227   0.053  -0.135
    1UNL    H21   48  -0.174   0.160   0.131
    1UNL    H22   49  -0.037   0.278   0.081
    1UNL    H23   50  -0.164   0.304  -0.114
    1UNL    H24   51   0.161   0.419  -0.246
    1UNL    H25   52   0.113   0.263  -0.309
    1UNL    H26   53   0.250   0.265  -0.200
   0.00000   0.00000   0.00000   0.00000   0.00000   0.00000   0.00000   0.00000   0.00000
Generated with MDTraj, t= 3.0
 53
    1UNL     C1    1  -0.449  -0.120   0.144
    1UNL     C2    2  -0.349  -0.043   0.068
    1UNL     C3    3  -0.236  -0.094   0.011
    1UNL     C4    4  -0.179  -0.226   0.049
    1UNL     N1    5  -0.050  -0.214   0.112
    1UNL     C5    6  -0.047  -0.146   0.234
    1UNL     C6    7   0.008   0.004   0.211
    1UNL     C7    8   0.053   0.002   0.063
    1UNL     C8    9   0.196   0.042   0.062
    1UNL     C9   10   0.256   0.165   0.065
    1UNL    C10   11   0.393   0.173   0.068
    1UNL    C11   12   0.472   0.053   0.066
    1UNL    C12   13   0.409  -0.072   0.073
    1UNL    C13   14   0.272  -0.074   0.068
    1UNL     N2   15   0.184  -0.185   0.070
    1UNL    C14   16   0.057  -0.151   0.023
    1UNL    C15   17   0.042  -0.187  -0.131
    1UNL     O1   18   0.041  -0.329  -0.157
    1UNL    C16   19  -0.084  -0.125  -0.188
    1UNL    C17   20  -0.155  -0.017  -0.094
    1UNL    C18   21  -0.047   0.080  -0.028
    1UNL    C19   22  -0.126   0.189   0.047
    1UNL     O2   23  -0.218   0.251  -0.046
    1UNL    C20   24   0.026   0.164  -0.133
    1UNL     O3   25   0.066   0.113  -0.235
    1UNL     O4   26   0.039   0.297  -0.113
    1UNL    C21   27   0.114   0.348  -0.220
    1UNL     H1   28  -0.512  -0.058   0.210
    1UNL     H2   29  -0.390  -0.181   0.212
    1UNL     H3   30  -0.508  -0.176   0.076
    1UNL     H4   31  -0.380   0.050   0.021
    1UNL     H5   32  -0.236  -0.273   0.124
    1UNL     H6   33  -0.167  -0.292  -0.033
    1UNL     H7   34  -0.151  -0.139   0.276
    1UNL     H8   35   0.019  -0.192   0.304
    1UNL     H9   36  -0.073   0.068   0.231
    1UNL    H10   37   0.084   0.046   0.280
    1UNL    H11   38   0.188   0.251   0.049
    1UNL    H12   39   0.446   0.272   0.049
    1UNL    H13   40   0.579   0.071   0.055
    1UNL    H14   41   0.458  -0.166   0.049
    1UNL    H15   42   0.212  -0.280   0.041
    1UNL    H16   43   0.135  -0.143  -0.182
    1UNL    H17   44   0.028  -0.343  -0.255
    1UNL    H18   45  -0.157  -0.204  -0.207
    1UNL    H19   46  -0.054  -0.086  -0.280
    1UNL    H20   47  -0.223   0.041  -0.147
    1UNL    H21   48  -0.190   0.150   0.115
    1UNL    H22   49  -0.047   0.265   0.091
    1UNL    H23   50  -0.157   0.301  -0.103
    1UNL    H24   51   0.032   0.346  -0.295
    1UNL    H25   52   0.186   0.268  -0.249
    1UNL    H26   53   0.171   0.443  -0.216
   0.00000   0.00000   0.00000   0.00000   0.00000   0.00000   0.00000   0.00000   0.00000
Generated with MDTraj, t= 4.0
 53
    1UNL     C1    1  -0.412  -0.073   0.158
    1UNL     C2    2  -0.335  -0.033   0.047
    1UNL     C3    3  -0.232  -0.101  -0.009
    1UNL     C4    4  -0.186  -0.232   0.038
    1UNL     N1    5  -0.051  -0.220   0.108
    1UNL     C5    6  -0.047  -0.141   0.230
    1UNL     C6    7   0.007   0.006   0.204
    1UNL     C7    8   0.052  -0.001   0.052
    1UNL     C8    9   0.198   0.037   0.048
    1UNL     C9   10   0.260   0.164   0.058
    1UNL    C10   11   0.399   0.166   0.065
    1UNL    C11   12   0.472   0.043   0.077
    1UNL    C12   13   0.406  -0.074   0.085
    1UNL    C13   14   0.269  -0.076   0.071
    1UNL     N2   15   0.189  -0.191   0.074
    1UNL    C14   16   0.055  -0.160   0.023
    1UNL    C15   17   0.042  -0.199  -0.129
    1UNL     O1   18   0.038  -0.333  -0.141
    1UNL    C16   19  -0.067  -0.122  -0.200
    1UNL    C17   20  -0.146  -0.024  -0.104
    1UNL    C18   21  -0.049   0.078  -0.025
    1UNL    C19   22  -0.132   0.181   0.050
    1UNL     O2   23  -0.222   0.255  -0.037
    1UNL    C20   24   0.023   0.162  -0.124
    1UNL     O3   25   0.062   0.119  -0.230
    1UNL     O4   26   0.026   0.298  -0.106
    1UNL    C21   27   0.070   0.362  -0.215
    1UNL     H1   28  -0.448   0.009   0.219
    1UNL     H2   29  -0.342  -0.123   0.224
    1UNL     H3   30  -0.490  -0.144   0.126
    1UNL     H4   31  -0.368   0.054  -0.007
    1UNL     H5   32  -0.255  -0.268   0.114
    1UNL     H6   33  -0.174  -0.304  -0.034
    1UNL     H7   34  -0.154  -0.122   0.263
    1UNL     H8   35   0.009  -0.189   0.307
    1UNL     H9   36  -0.055   0.084   0.237
    1UNL    H10   37   0.086   0.030   0.279
    1UNL    H11   38   0.188   0.247   0.056
    1UNL    H12   39   0.458   0.254   0.067
    1UNL    H13   40   0.580   0.041   0.078
    1UNL    H14   41   0.454  -0.169   0.079
    1UNL    H15   42   0.223  -0.272   0.021
    1UNL    H16   43   0.142  -0.161  -0.177
    1UNL    H17   44   0.033  -0.353  -0.236
    1UNL    H18   45  -0.136  -0.202  -0.227
    1UNL    H19   46  -0.037  -0.068  -0.287
    1UNL    H20   47  -0.211   0.037  -0.171
    1UNL    H21   48  -0.184   0.135   0.127
    1UNL    H22   49  -0.058   0.263   0.083
    1UNL    H23   50  -0.154   0.298  -0.098
    1UNL    H24   51   0.163   0.308  -0.239
    1UNL    H25   52   0.094   0.469  -0.206
    1UNL    H26   53  -0.002   0.335  -0.294
   0.00000   0.00000   0.00000   0.00000   0.00000   0.00000   0.00000   0.00000   0.00000
Generated with MDTraj, t= 5.0
 53
    1UNL     C1    1  -0.454  -0.101   0.131
    1UNL     C2    2  -0.356  -0.044   0.040
    1UNL     C3    3  -0.234  -0.093   0.008
    1UNL     C4    4  -0.188  -0.224   0.053
    1UNL     N1    5  -0.049  -0.221   0.111
    1UNL     C5    6  -0.039  -0.143   0.234
    1UNL     C6    7   0.012  -0.006   0.210
    1UNL     C7    8   0.055   0.001   0.060
    1UNL     C8    9   0.202   0.035   0.047
    1UNL     C9   10   0.261   0.160   0.041
    1UNL    C10   11   0.400   0.161   0.047
    1UNL    C11   12   0.478   0.045   0.074
    1UNL    C12   13   0.411  -0.074   0.087
    1UNL    C13   14   0.273  -0.082   0.073
    1UNL     N2   15   0.188  -0.192   0.062
    1UNL    C14   16   0.051  -0.151   0.021
    1UNL    C15   17   0.034  -0.182  -0.131
    1UNL     O1   18   0.045  -0.320  -0.141
    1UNL    C16   19  -0.088  -0.115  -0.189
    1UNL    C17   20  -0.148  -0.015  -0.088
    1UNL    C18   21  -0.051   0.086  -0.026
    1UNL    C19   22  -0.117   0.194   0.052
    1UNL     O2   23  -0.227   0.240  -0.017
    1UNL    C20   24   0.025   0.163  -0.132
    1UNL     O3   25   0.085   0.110  -0.220
    1UNL     O4   26   0.019   0.299  -0.125
    1UNL    C21   27   0.095   0.363  -0.223
    1UNL     H1   28  -0.554  -0.064   0.145
    1UNL     H2   29  -0.416  -0.083   0.231
    1UNL     H3   30  -0.460  -0.214   0.124
    1UNL     H4   31  -0.384   0.052  -0.006
    1UNL     H5   32  -0.245  -0.260   0.139
    1UNL     H6   33  -0.193  -0.296  -0.018
    1UNL     H7   34  -0.139  -0.143   0.291
    1UNL     H8   35   0.042  -0.193   0.286
    1UNL     H9   36  -0.058   0.070   0.249
    1UNL    H10   37   0.101   0.008   0.272
    1UNL    H11   38   0.198   0.243   0.046
    1UNL    H12   39   0.443   0.260   0.056
    1UNL    H13   40   0.586   0.036   0.084
    1UNL    H14   41   0.465  -0.167   0.107
    1UNL    H15   42   0.225  -0.284   0.033
    1UNL    H16   43   0.135  -0.138  -0.181
    1UNL    H17   44   0.073  -0.350  -0.230
    1UNL    H18   45  -0.163  -0.189  -0.213
    1UNL    H19   46  -0.059  -0.061  -0.279
    1UNL    H20   47  -0.223   0.044  -0.158
    1UNL    H21   48  -0.165   0.158   0.151
    1UNL    H22   49  -0.047   0.276   0.080
    1UNL    H23   50  -0.205   0.312  -0.076
    1UNL    H24   51   0.115   0.466  -0.197
    1UNL    H25   52   0.063   0.363  -0.327
    1UNL    H26   53   0.188   0.307  -0.216
   0.00000   0.00000   0.00000   0.00000   0.00000   0.00000   0.00000   0.00000   0.00000
Generated with MDTraj, t= 6.0
 53
    1UNL     C1    1  -0.474  -0.145   0.107
    1UNL     C2    2  -0.373  -0.079   0.022
    1UNL     C3    3  -0.240  -0.102   0.011
    1UNL     C4    4  -0.182  -0.222   0.064
    1UNL     N1    5  -0.042  -0.211   0.117
    1UNL     C5    6  -0.052  -0.139   0.247
    1UNL     C6    7   0.008  -0.007   0.222
    1UNL     C7    8   0.051   0.003   0.078
    1UNL     C8    9   0.205   0.035   0.069
    1UNL     C9   10   0.261   0.158   0.071
    1UNL    C10   11   0.407   0.169   0.056
    1UNL    C11   12   0.478   0.051   0.039
    1UNL    C12   13   0.414  -0.076   0.038
    1UNL    C13   14   0.280  -0.083   0.056
    1UNL     N2   15   0.188  -0.189   0.057
    1UNL    C14   16   0.052  -0.144   0.031
    1UNL    C15   17   0.032  -0.164  -0.121
    1UNL     O1   18   0.037  -0.306  -0.151
    1UNL    C16   19  -0.096  -0.097  -0.180
    1UNL    C17   20  -0.159  -0.003  -0.076
    1UNL    C18   21  -0.053   0.087  -0.014
    1UNL    C19   22  -0.119   0.207   0.063
    1UNL     O2   23  -0.202   0.277  -0.020
    1UNL    C20   24   0.025   0.155  -0.128
    1UNL     O3   25   0.097   0.090  -0.202
    1UNL     O4   26   0.025   0.295  -0.138
    1UNL    C21   27   0.110   0.333  -0.247
    1UNL     H1   28  -0.566  -0.094   0.125
    1UNL     H2   29  -0.433  -0.143   0.208
    1UNL     H3   30  -0.488  -0.254   0.078
    1UNL     H4   31  -0.401   0.013  -0.026
    1UNL     H5   32  -0.242  -0.277   0.136
    1UNL     H6   33  -0.171  -0.284  -0.020
    1UNL     H7   34  -0.165  -0.143   0.275
    1UNL     H8   35   0.011  -0.198   0.312
    1UNL     H9   36  -0.060   0.079   0.256
    1UNL    H10   37   0.100   0.007   0.279
    1UNL    H11   38   0.206   0.249   0.103
    1UNL    H12   39   0.456   0.266   0.054
    1UNL    H13   40   0.586   0.059   0.041
    1UNL    H14   41   0.457  -0.172   0.027
    1UNL    H15   42   0.207  -0.288   0.036
    1UNL    H16   43   0.136  -0.117  -0.166
    1UNL    H17   44   0.126  -0.340  -0.180
    1UNL    H18   45  -0.165  -0.171  -0.211
    1UNL    H19   46  -0.067  -0.034  -0.266
    1UNL    H20   47  -0.240   0.067  -0.134
    1UNL    H21   48  -0.202   0.186   0.152
    1UNL    H22   49  -0.045   0.271   0.105
    1UNL    H23   50  -0.163   0.323  -0.103
    1UNL    H24   51   0.064   0.353  -0.344
    1UNL    H25   52   0.196   0.268  -0.259
    1UNL    H26   53   0.160   0.417  -0.199
   0.00000   0.00000   0.00000   0.00000   0.00000   0.00000   0.00000   0.00000   0.00000
Generated with MDTraj, t= 7.0
 53
    1UNL     C1    1  -0.466  -0.146   0.085
    1UNL     C2    2  -0.359  -0.049   0.048
    1UNL     C3    3  -0.231  -0.082   0.020
    1UNL     C4    4  -0.189  -0.218   0.059
    1UNL     N1    5  -0.048  -0.222   0.106
    1UNL     C5    6  -0.036  -0.162   0.248
    1UNL     C6    7   0.001  -0.014   0.222
    1UNL     C7    8   0.050  -0.003   0.076
    1UNL     C8    9   0.196   0.042   0.075
    1UNL     C9   10   0.243   0.167   0.068
    1UNL    C10   11   0.385   0.180   0.047
    1UNL    C11   12   0.467   0.066   0.033
    1UNL    C12   13   0.415  -0.063   0.039
    1UNL    C13   14   0.277  -0.074   0.058
    1UNL     N2   15   0.200  -0.190   0.055
    1UNL    C14   16   0.058  -0.149   0.028
    1UNL    C15   17   0.032  -0.173  -0.121
    1UNL     O1   18   0.016  -0.317  -0.147
    1UNL    C16   19  -0.094  -0.098  -0.182
    1UNL    C17   20  -0.154  -0.005  -0.078
    1UNL    C18   21  -0.047   0.083  -0.011
    1UNL    C19   22  -0.132   0.194   0.065
    1UNL     O2   23  -0.193   0.291  -0.014
    1UNL    C20   24   0.042   0.156  -0.122
    1UNL     O3   25   0.104   0.080  -0.194
    1UNL     O4   26   0.036   0.291  -0.136
    1UNL    C21   27   0.113   0.323  -0.253
    1UNL     H1   28  -0.567  -0.110   0.083
    1UNL     H2   29  -0.443  -0.164   0.191
    1UNL     H3   30  -0.449  -0.236   0.019
    1UNL     H4   31  -0.384   0.056   0.034
    1UNL     H5   32  -0.253  -0.256   0.135
    1UNL     H6   33  -0.201  -0.279  -0.032
    1UNL     H7   34  -0.139  -0.179   0.299
    1UNL     H8   35   0.040  -0.224   0.295
    1UNL     H9   36  -0.084   0.054   0.229
    1UNL    H10   37   0.076   0.024   0.292
    1UNL    H11   38   0.179   0.253   0.061
    1UNL    H12   39   0.433   0.276   0.049
    1UNL    H13   40   0.573   0.063   0.010
    1UNL    H14   41   0.477  -0.154   0.040
    1UNL    H15   42   0.233  -0.270   0.002
    1UNL    H16   43   0.138  -0.137  -0.170
    1UNL    H17   44  -0.044  -0.346  -0.074
    1UNL    H18   45  -0.164  -0.164  -0.225
    1UNL    H19   46  -0.054  -0.032  -0.262
    1UNL    H20   47  -0.226   0.083  -0.121
    1UNL    H21   48  -0.209   0.131   0.129
    1UNL    H22   49  -0.068   0.244   0.132
    1UNL    H23   50  -0.129   0.315  -0.084
    1UNL    H24   51   0.178   0.244  -0.298
    1UNL    H25   52   0.163   0.417  -0.224
    1UNL    H26   53   0.041   0.360  -0.326
   0.00000   0.00000   0.00000   0.00000   0.00000   0.00000   0.00000   0.00000   0.00000
Generated with MDTraj, t= 8.0
 53
    1UNL     C1    1  -0.459  -0.088   0.143
    1UNL     C2    2  -0.371  -0.039   0.034
    1UNL     C3    3  -0.246  -0.085   0.012
    1UNL     C4    4  -0.191  -0.213   0.070
    1UNL     N1    5  -0.049  -0.229   0.104
    1UNL     C5    6  -0.017  -0.164   0.239
    1UNL     C6    7   0.007  -0.018   0.220
    1UNL     C7    8   0.046  -0.004   0.066
    1UNL     C8    9   0.192   0.038   0.069
    1UNL     C9   10   0.250   0.164   0.072
    1UNL    C10   11   0.388   0.181   0.073
    1UNL    C11   12   0.471   0.068   0.059
    1UNL    C12   13   0.417  -0.056   0.058
    1UNL    C13   14   0.272  -0.076   0.057
    1UNL     N2   15   0.192  -0.191   0.061
    1UNL    C14   16   0.049  -0.152   0.020
    1UNL    C15   17   0.036  -0.172  -0.135
    1UNL     O1   18   0.036  -0.309  -0.165
    1UNL    C16   19  -0.089  -0.115  -0.190
    1UNL    C17   20  -0.158  -0.016  -0.092
    1UNL    C18   21  -0.046   0.081  -0.025
    1UNL    C19   22  -0.123   0.191   0.058
    1UNL     O2   23  -0.216   0.266  -0.017
    1UNL    C20   24   0.033   0.142  -0.141
    1UNL     O3   25   0.096   0.078  -0.222
    1UNL     O4   26   0.029   0.275  -0.135
    1UNL    C21   27   0.120   0.344  -0.228
    1UNL     H1   28  -0.568  -0.071   0.138
    1UNL     H2   29  -0.429  -0.023   0.229
    1UNL     H3   30  -0.435  -0.190   0.164
    1UNL     H4   31  -0.389   0.058  -0.006
    1UNL     H5   32  -0.237  -0.225   0.163
    1UNL     H6   33  -0.219  -0.300   0.002
    1UNL     H7   34  -0.109  -0.185   0.304
    1UNL     H8   35   0.067  -0.224   0.276
    1UNL     H9   36  -0.079   0.035   0.234
    1UNL    H10   37   0.088   0.023   0.286
    1UNL    H11   38   0.188   0.248   0.051
    1UNL    H12   39   0.425   0.285   0.062
    1UNL    H13   40   0.577   0.079   0.050
    1UNL    H14   41   0.470  -0.147   0.054
    1UNL    H15   42   0.235  -0.278   0.035
    1UNL    H16   43   0.129  -0.127  -0.201
    1UNL    H17   44   0.122  -0.351  -0.155
    1UNL    H18   45  -0.153  -0.195  -0.214
    1UNL    H19   46  -0.059  -0.071  -0.288
    1UNL    H20   47  -0.226   0.059  -0.148
    1UNL    H21   48  -0.177   0.131   0.137
    1UNL    H22   49  -0.043   0.235   0.115
    1UNL    H23   50  -0.158   0.334  -0.060
    1UNL    H24   51   0.146   0.448  -0.197
    1UNL    H25   52   0.057   0.352  -0.320
    1UNL    H26   53   0.209   0.282  -0.248
   0.00000   0.00000   0.00000   0.00000   0.00000   0.00000   0.00000   0.00000   0.00000
Generated with MDTraj, t= 9.0
 53
    1UNL     C1    1  -0.412  -0.095   0.192
    1UNL     C2    2  -0.340  -0.045   0.074
    1UNL     C3    3  -0.242  -0.102   0.008
    1UNL     C4    4  -0.188  -0.230   0.046
    1UNL     N1    5  -0.045  -0.227   0.104
    1UNL     C5    6  -0.048  -0.146   0.227
    1UNL     C6    7   0.008  -0.010   0.211
    1UNL     C7    8   0.050   0.004   0.059
    1UNL     C8    9   0.196   0.038   0.052
    1UNL     C9   10   0.259   0.159   0.069
    1UNL    C10   11   0.392   0.163   0.095
    1UNL    C11   12   0.471   0.047   0.095
    1UNL    C12   13   0.413  -0.072   0.076
    1UNL    C13   14   0.274  -0.076   0.055
    1UNL     N2   15   0.190  -0.189   0.058
    1UNL    C14   16   0.053  -0.153   0.020
    1UNL    C15   17   0.034  -0.178  -0.137
    1UNL     O1   18   0.041  -0.315  -0.151
    1UNL    C16   19  -0.087  -0.104  -0.200
    1UNL    C17   20  -0.159  -0.020  -0.092
    1UNL    C18   21  -0.048   0.082  -0.038
    1UNL    C19   22  -0.139   0.197   0.035
    1UNL     O2   23  -0.241   0.262  -0.051
    1UNL    C20   24   0.027   0.155  -0.149
    1UNL     O3   25   0.072   0.095  -0.243
    1UNL     O4   26   0.047   0.288  -0.124
    1UNL    C21   27   0.110   0.362  -0.225
    1UNL     H1   28  -0.443  -0.013   0.262
    1UNL     H2   29  -0.341  -0.150   0.257
    1UNL     H3   30  -0.494  -0.159   0.175
    1UNL     H4   31  -0.367   0.056   0.047
    1UNL     H5   32  -0.246  -0.282   0.116
    1UNL     H6   33  -0.189  -0.299  -0.047
    1UNL     H7   34  -0.156  -0.147   0.260
    1UNL     H8   35   0.010  -0.206   0.300
    1UNL     H9   36  -0.052   0.067   0.250
    1UNL    H10   37   0.105  -0.005   0.267
    1UNL    H11   38   0.198   0.248   0.056
    1UNL    H12   39   0.444   0.254   0.111
    1UNL    H13   40   0.576   0.067   0.117
    1UNL    H14   41   0.457  -0.173   0.075
    1UNL    H15   42   0.223  -0.275   0.017
    1UNL    H16   43   0.130  -0.125  -0.189
    1UNL    H17   44  -0.041  -0.355  -0.112
    1UNL    H18   45  -0.150  -0.183  -0.230
    1UNL    H19   46  -0.062  -0.047  -0.290
    1UNL    H20   47  -0.235   0.043  -0.141
    1UNL    H21   48  -0.162   0.160   0.137
    1UNL    H22   49  -0.064   0.273   0.055
    1UNL    H23   50  -0.195   0.323  -0.115
    1UNL    H24   51   0.030   0.383  -0.298
    1UNL    H25   52   0.178   0.291  -0.274
    1UNL    H26   53   0.158   0.447  -0.174
   0.00000   0.00000   0.00000   0.00000   0.00000   0.00000   0.00000   0.00000   0.00000
Generated with MDTraj, t= 10.0
 53
    1UNL     C1    1  -0.421  -0.076   0.191
    1UNL     C2    2  -0.332  -0.043   0.075
    1UNL     C3    3  -0.232  -0.106   0.016
    1UNL     C4    4  -0.181  -0.240   0.052
    1UNL     N1    5  -0.037  -0.236   0.103
    1UNL     C5    6  -0.041  -0.171   0.232
    1UNL     C6    7  -0.003  -0.024   0.208
    1UNL     C7    8   0.044  -0.002   0.059
    1UNL     C8    9   0.187   0.037   0.058
    1UNL     C9   10   0.250   0.158   0.062
    1UNL    C10   11   0.385   0.168   0.074
    1UNL    C11   12   0.466   0.057   0.099
    1UNL    C12   13   0.412  -0.073   0.094
    1UNL    C13   14   0.269  -0.080   0.079
    1UNL     N2   15   0.191  -0.192   0.050
    1UNL    C14   16   0.058  -0.157   0.015
    1UNL    C15   17   0.039  -0.175  -0.137
    1UNL     O1   18   0.043  -0.307  -0.172
    1UNL    C16   19  -0.091  -0.108  -0.194
    1UNL    C17   20  -0.160  -0.020  -0.092
    1UNL    C18   21  -0.055   0.087  -0.034
    1UNL    C19   22  -0.136   0.204   0.038
    1UNL     O2   23  -0.211   0.291  -0.046
    1UNL    C20   24   0.019   0.158  -0.149
    1UNL     O3   25   0.052   0.096  -0.247
    1UNL     O4   26   0.040   0.289  -0.132
    1UNL    C21   27   0.118   0.352  -0.232
    1UNL     H1   28  -0.381  -0.022   0.281
    1UNL     H2   29  -0.401  -0.182   0.210
    1UNL     H3   30  -0.525  -0.055   0.174
    1UNL     H4   31  -0.357   0.054   0.037
    1UNL     H5   32  -0.246  -0.281   0.132
    1UNL     H6   33  -0.177  -0.314  -0.036
    1UNL     H7   34  -0.141  -0.189   0.277
    1UNL     H8   35   0.035  -0.218   0.298
    1UNL     H9   36  -0.090   0.042   0.246
    1UNL    H10   37   0.078   0.008   0.275
    1UNL    H11   38   0.193   0.248   0.061
    1UNL    H12   39   0.431   0.269   0.087
    1UNL    H13   40   0.570   0.061   0.114
    1UNL    H14   41   0.477  -0.154   0.102
    1UNL    H15   42   0.233  -0.283   0.034
    1UNL    H16   43   0.131  -0.115  -0.188
    1UNL    H17   44   0.092  -0.357  -0.098
    1UNL    H18   45  -0.150  -0.195  -0.219
    1UNL    H19   46  -0.072  -0.050  -0.282
    1UNL    H20   47  -0.235   0.023  -0.153
    1UNL    H21   48  -0.206   0.168   0.114
    1UNL    H22   49  -0.068   0.272   0.092
    1UNL    H23   50  -0.180   0.318  -0.136
    1UNL    H24   51   0.114   0.282  -0.315
    1UNL    H25   52   0.223   0.347  -0.203
    1UNL    H26   53   0.083   0.454  -0.243
   0.00000   0.00000   0.00000   0.00000   0.00000   0.00000   0.00000   0.00000   0.00000
Generated with MDTraj, t= 11.0
 53
    1UNL     C1    1  -0.436  -0.093   0.166
    1UNL     C2    2  -0.347  -0.036   0.063
    1UNL     C3    3  -0.237  -0.088   0.016
    1UNL     C4    4  -0.188  -0.227   0.057
    1UNL     N1    5  -0.047  -0.221   0.102
    1UNL     C5    6  -0.038  -0.171   0.239
    1UNL     C6    7   0.004  -0.018   0.215
    1UNL     C7    8   0.040  -0.003   0.067
    1UNL     C8    9   0.183   0.043   0.065
    1UNL     C9   10   0.238   0.168   0.085
    1UNL    C10   11   0.376   0.190   0.075
    1UNL    C11   12   0.456   0.080   0.070
    1UNL    C12   13   0.408  -0.053   0.061
    1UNL    C13   14   0.272  -0.068   0.060
    1UNL     N2   15   0.192  -0.189   0.039
    1UNL    C14   16   0.055  -0.152   0.014
    1UNL    C15   17   0.030  -0.176  -0.136
    1UNL     O1   18   0.040  -0.315  -0.174
    1UNL    C16   19  -0.105  -0.117  -0.194
    1UNL    C17   20  -0.163  -0.013  -0.095
    1UNL    C18   21  -0.056   0.084  -0.032
    1UNL    C19   22  -0.126   0.192   0.053
    1UNL     O2   23  -0.206   0.279  -0.017
    1UNL    C20   24   0.038   0.141  -0.137
    1UNL     O3   25   0.096   0.076  -0.224
    1UNL     O4   26   0.056   0.278  -0.130
    1UNL    C21   27   0.132   0.322  -0.241
    1UNL     H1   28  -0.369  -0.147   0.235
    1UNL     H2   29  -0.495  -0.169   0.116
    1UNL     H3   30  -0.501  -0.024   0.225
    1UNL     H4   31  -0.391   0.052   0.017
    1UNL     H5   32  -0.251  -0.259   0.148
    1UNL     H6   33  -0.193  -0.296  -0.032
    1UNL     H7   34  -0.131  -0.180   0.299
    1UNL     H8   35   0.046  -0.230   0.283
    1UNL     H9   36  -0.085   0.053   0.237
    1UNL    H10   37   0.076   0.011   0.292
    1UNL    H11   38   0.180   0.253   0.120
    1UNL    H12   39   0.408   0.288   0.073
    1UNL    H13   40   0.564   0.098   0.080
    1UNL    H14   41   0.473  -0.141   0.045
    1UNL    H15   42   0.222  -0.279  -0.001
    1UNL    H16   43   0.121  -0.125  -0.196
    1UNL    H17   44   0.108  -0.372  -0.132
    1UNL    H18   45  -0.176  -0.197  -0.220
    1UNL    H19   46  -0.074  -0.073  -0.284
    1UNL    H20   47  -0.235   0.033  -0.151
    1UNL    H21   48  -0.196   0.147   0.117
    1UNL    H22   49  -0.058   0.260   0.111
    1UNL    H23   50  -0.165   0.309  -0.105
    1UNL    H24   51   0.069   0.289  -0.324
    1UNL    H25   52   0.218   0.259  -0.255
    1UNL    H26   53   0.156   0.427  -0.228
   0.00000   0.00000   0.00000   0.00000   0.00000   0.00000   0.00000   0.00000   0.00000
Generated with MDTraj, t= 12.0
 53
    1UNL     C1    1  -0.441  -0.130   0.147
    1UNL     C2    2  -0.354  -0.044   0.072
    1UNL     C3    3  -0.242  -0.082   0.020
    1UNL     C4    4  -0.193  -0.218   0.054
    1UNL     N1    5  -0.050  -0.224   0.104
    1UNL     C5    6  -0.026  -0.172   0.239
    1UNL     C6    7  -0.009  -0.017   0.217
    1UNL     C7    8   0.044   0.000   0.077
    1UNL     C8    9   0.189   0.046   0.079
    1UNL     C9   10   0.253   0.168   0.102
    1UNL    C10   11   0.388   0.181   0.075
    1UNL    C11   12   0.459   0.072   0.042
    1UNL    C12   13   0.405  -0.056   0.038
    1UNL    C13   14   0.270  -0.066   0.054
    1UNL     N2   15   0.193  -0.184   0.040
    1UNL    C14   16   0.056  -0.153   0.025
    1UNL    C15   17   0.020  -0.177  -0.132
    1UNL     O1   18   0.027  -0.324  -0.155
    1UNL    C16   19  -0.105  -0.111  -0.192
    1UNL    C17   20  -0.159  -0.002  -0.092
    1UNL    C18   21  -0.050   0.087  -0.026
    1UNL    C19   22  -0.125   0.201   0.041
    1UNL     O2   23  -0.212   0.273  -0.046
    1UNL    C20   24   0.046   0.151  -0.134
    1UNL     O3   25   0.118   0.082  -0.206
    1UNL     O4   26   0.039   0.286  -0.140
    1UNL    C21   27   0.134   0.328  -0.226
    1UNL     H1   28  -0.392  -0.180   0.228
    1UNL     H2   29  -0.482  -0.204   0.079
    1UNL     H3   30  -0.534  -0.085   0.196
    1UNL     H4   31  -0.407   0.039   0.028
    1UNL     H5   32  -0.257  -0.282   0.130
    1UNL     H6   33  -0.199  -0.272  -0.043
    1UNL     H7   34  -0.107  -0.191   0.309
    1UNL     H8   35   0.072  -0.213   0.277
    1UNL     H9   36  -0.111   0.021   0.236
    1UNL    H10   37   0.049   0.035   0.297
    1UNL    H11   38   0.191   0.250   0.132
    1UNL    H12   39   0.438   0.283   0.074
    1UNL    H13   40   0.564   0.082   0.012
    1UNL    H14   41   0.466  -0.146   0.018
    1UNL    H15   42   0.233  -0.267  -0.005
    1UNL    H16   43   0.113  -0.127  -0.187
    1UNL    H17   44   0.004  -0.353  -0.065
    1UNL    H18   45  -0.178  -0.188  -0.224
    1UNL    H19   46  -0.080  -0.070  -0.282
    1UNL    H20   47  -0.216   0.069  -0.137
    1UNL    H21   48  -0.186   0.175   0.115
    1UNL    H22   49  -0.043   0.263   0.084
    1UNL    H23   50  -0.151   0.332  -0.093
    1UNL    H24   51   0.075   0.340  -0.318
    1UNL    H25   52   0.213   0.253  -0.246
    1UNL    H26   53   0.177   0.418  -0.184
   0.00000   0.00000   0.00000   0.00000   0.00000   0.00000   0.00000   0.00000   0.00000
Generated with MDTraj, t= 13.0
 53
    1UNL     C1    1  -0.447  -0.101   0.155
    1UNL     C2    2  -0.359  -0.040   0.055
    1UNL     C3    3  -0.243  -0.091   0.013
    1UNL     C4    4  -0.183  -0.226   0.044
    1UNL     N1    5  -0.044  -0.231   0.110
    1UNL     C5    6  -0.033  -0.163   0.241
    1UNL     C6    7   0.005  -0.015   0.219
    1UNL     C7    8   0.043  -0.006   0.073
    1UNL     C8    9   0.194   0.040   0.061
    1UNL     C9   10   0.257   0.166   0.063
    1UNL    C10   11   0.391   0.174   0.065
    1UNL    C11   12   0.475   0.064   0.061
    1UNL    C12   13   0.413  -0.057   0.062
    1UNL    C13   14   0.276  -0.072   0.059
    1UNL     N2   15   0.194  -0.190   0.057
    1UNL    C14   16   0.053  -0.158   0.024
    1UNL    C15   17   0.027  -0.178  -0.132
    1UNL     O1   18   0.037  -0.319  -0.169
    1UNL    C16   19  -0.084  -0.103  -0.191
    1UNL    C17   20  -0.159  -0.011  -0.094
    1UNL    C18   21  -0.056   0.087  -0.020
    1UNL    C19   22  -0.130   0.196   0.055
    1UNL     O2   23  -0.207   0.274  -0.040
    1UNL    C20   24   0.023   0.156  -0.131
    1UNL     O3   25   0.079   0.093  -0.219
    1UNL     O4   26   0.031   0.291  -0.127
    1UNL    C21   27   0.123   0.326  -0.226
    1UNL     H1   28  -0.459  -0.040   0.242
    1UNL     H2   29  -0.393  -0.191   0.178
    1UNL     H3   30  -0.547  -0.138   0.110
    1UNL     H4   31  -0.410   0.042   0.006
    1UNL     H5   32  -0.251  -0.285   0.117
    1UNL     H6   33  -0.178  -0.294  -0.044
    1UNL     H7   34  -0.122  -0.175   0.300
    1UNL     H8   35   0.052  -0.205   0.304
    1UNL     H9   36  -0.073   0.052   0.251
    1UNL    H10   37   0.086   0.009   0.294
    1UNL    H11   38   0.199   0.255   0.043
    1UNL    H12   39   0.436   0.266   0.061
    1UNL    H13   40   0.581   0.064   0.055
    1UNL    H14   41   0.471  -0.142   0.075
    1UNL    H15   42   0.225  -0.279   0.017
    1UNL    H16   43   0.124  -0.133  -0.188
    1UNL    H17   44  -0.016  -0.382  -0.111
    1UNL    H18   45  -0.157  -0.168  -0.241
    1UNL    H19   46  -0.052  -0.050  -0.273
    1UNL    H20   47  -0.220   0.059  -0.141
    1UNL    H21   48  -0.195   0.142   0.113
    1UNL    H22   49  -0.067   0.256   0.121
    1UNL    H23   50  -0.140   0.344  -0.069
    1UNL    H24   51   0.108   0.250  -0.306
    1UNL    H25   52   0.227   0.324  -0.183
    1UNL    H26   53   0.105   0.425  -0.268
   0.00000   0.00000   0.00000   0.00000   0.00000   0.00000   0.00000   0.00000   0.00000
Generated with MDTraj, t= 14.0
 53
    1UNL     C1    1  -0.444  -0.085   0.162
    1UNL     C2    2  -0.349  -0.030   0.058
    1UNL     C3    3  -0.241  -0.086   0.005
    1UNL     C4    4  -0.184  -0.224   0.048
    1UNL     N1    5  -0.052  -0.225   0.118
    1UNL     C5    6  -0.041  -0.157   0.243
    1UNL     C6    7   0.004  -0.011   0.214
    1UNL     C7    8   0.048  -0.006   0.058
    1UNL     C8    9   0.194   0.033   0.054
    1UNL     C9   10   0.254   0.162   0.045
    1UNL    C10   11   0.391   0.163   0.067
    1UNL    C11   12   0.466   0.051   0.082
    1UNL    C12   13   0.410  -0.068   0.075
    1UNL    C13   14   0.273  -0.082   0.060
    1UNL     N2   15   0.188  -0.198   0.066
    1UNL    C14   16   0.048  -0.156   0.023
    1UNL    C15   17   0.035  -0.180  -0.134
    1UNL     O1   18   0.071  -0.318  -0.170
    1UNL    C16   19  -0.084  -0.115  -0.192
    1UNL    C17   20  -0.154  -0.018  -0.098
    1UNL    C18   21  -0.044   0.083  -0.026
    1UNL    C19   22  -0.122   0.190   0.054
    1UNL     O2   23  -0.212   0.262  -0.018
    1UNL    C20   24   0.026   0.160  -0.141
    1UNL     O3   25   0.067   0.107  -0.243
    1UNL     O4   26   0.032   0.296  -0.119
    1UNL    C21   27   0.096   0.349  -0.231
    1UNL     H1   28  -0.551  -0.070   0.147
    1UNL     H2   29  -0.411  -0.042   0.256
    1UNL     H3   30  -0.418  -0.192   0.179
    1UNL     H4   31  -0.386   0.065   0.022
    1UNL     H5   32  -0.258  -0.268   0.118
    1UNL     H6   33  -0.175  -0.292  -0.042
    1UNL     H7   34  -0.136  -0.154   0.291
    1UNL     H8   35   0.027  -0.220   0.309
    1UNL     H9   36  -0.067   0.064   0.255
    1UNL    H10   37   0.095   0.006   0.278
    1UNL    H11   38   0.194   0.247   0.015
    1UNL    H12   39   0.454   0.256   0.062
    1UNL    H13   40   0.571   0.067   0.113
    1UNL    H14   41   0.473  -0.157   0.101
    1UNL    H15   42   0.226  -0.273   0.007
    1UNL    H16   43   0.128  -0.116  -0.177
    1UNL    H17   44   0.030  -0.372  -0.105
    1UNL    H18   45  -0.156  -0.190  -0.221
    1UNL    H19   46  -0.067  -0.065  -0.282
    1UNL    H20   47  -0.225   0.037  -0.160
    1UNL    H21   48  -0.173   0.135   0.143
    1UNL    H22   49  -0.052   0.256   0.099
    1UNL    H23   50  -0.170   0.286  -0.101
    1UNL    H24   51   0.021   0.345  -0.313
    1UNL    H25   52   0.186   0.283  -0.247
    1UNL    H26   53   0.142   0.448  -0.222
   0.00000   0.00000   0.00000   0.00000   0.00000   0.00000   0.00000   0.00000   0.00000
Generated with MDTraj, t= 15.0
 53
    1UNL     C1    1  -0.435  -0.098   0.165
    1UNL     C2    2  -0.356  -0.037   0.059
    1UNL     C3    3  -0.249  -0.091   0.011
    1UNL     C4    4  -0.189  -0.221   0.049
    1UNL     N1    5  -0.052  -0.214   0.107
    1UNL     C5    6  -0.043  -0.155   0.236
    1UNL     C6    7  -0.012  -0.007   0.212
    1UNL     C7    8   0.049   0.003   0.067
    1UNL     C8    9   0.201   0.045   0.069
    1UNL     C9   10   0.273   0.162   0.066
    1UNL    C10   11   0.411   0.158   0.070
    1UNL    C11   12   0.477   0.039   0.077
    1UNL    C12   13   0.415  -0.079   0.065
    1UNL    C13   14   0.276  -0.076   0.066
    1UNL     N2   15   0.191  -0.181   0.052
    1UNL    C14   16   0.047  -0.146   0.017
    1UNL    C15   17   0.039  -0.178  -0.139
    1UNL     O1   18   0.053  -0.319  -0.159
    1UNL    C16   19  -0.093  -0.121  -0.196
    1UNL    C17   20  -0.158  -0.015  -0.093
    1UNL    C18   21  -0.045   0.081  -0.033
    1UNL    C19   22  -0.128   0.192   0.046
    1UNL     O2   23  -0.219   0.252  -0.036
    1UNL    C20   24   0.031   0.158  -0.139
    1UNL     O3   25   0.076   0.103  -0.236
    1UNL     O4   26   0.040   0.290  -0.113
    1UNL    C21   27   0.085   0.355  -0.224
    1UNL     H1   28  -0.420  -0.201   0.202
    1UNL     H2   29  -0.544  -0.084   0.150
    1UNL     H3   30  -0.418  -0.033   0.247
    1UNL     H4   31  -0.370   0.067   0.032
    1UNL     H5   32  -0.253  -0.269   0.118
    1UNL     H6   33  -0.183  -0.285  -0.045
    1UNL     H7   34  -0.130  -0.183   0.288
    1UNL     H8   35   0.045  -0.199   0.292
    1UNL     H9   36  -0.096   0.060   0.233
    1UNL    H10   37   0.068   0.026   0.284
    1UNL    H11   38   0.222   0.252   0.044
    1UNL    H12   39   0.471   0.247   0.073
    1UNL    H13   40   0.583   0.033   0.082
    1UNL    H14   41   0.465  -0.170   0.069
    1UNL    H15   42   0.232  -0.264   0.006
    1UNL    H16   43   0.138  -0.126  -0.182
    1UNL    H17   44   0.029  -0.374  -0.084
    1UNL    H18   45  -0.158  -0.202  -0.221
    1UNL    H19   46  -0.075  -0.067  -0.285
    1UNL    H20   47  -0.231   0.044  -0.158
    1UNL    H21   48  -0.186   0.151   0.145
    1UNL    H22   49  -0.068   0.266   0.087
    1UNL    H23   50  -0.191   0.283  -0.128
    1UNL    H24   51   0.004   0.367  -0.297
    1UNL    H25   52   0.177   0.304  -0.257
    1UNL    H26   53   0.130   0.449  -0.198
   0.00000   0.00000   0.00000   0.00000   0.00000   0.00000   0.00000   0.00000   0.00000
Generated with MDTraj, t= 16.0
 53
    1UNL     C1    1  -0.444  -0.107   0.158
    1UNL     C2    2  -0.351  -0.043   0.053
    1UNL     C3    3  -0.234  -0.088   0.011
    1UNL     C4    4  -0.188  -0.224   0.059
    1UNL     N1    5  -0.043  -0.225   0.107
    1UNL     C5    6  -0.042  -0.155   0.242
    1UNL     C6    7   0.002  -0.013   0.217
    1UNL     C7    8   0.044  -0.002   0.068
    1UNL     C8    9   0.192   0.041   0.059
    1UNL     C9   10   0.250   0.164   0.062
    1UNL    C10   11   0.387   0.179   0.070
    1UNL    C11   12   0.463   0.066   0.067
    1UNL    C12   13   0.407  -0.062   0.050
    1UNL    C13   14   0.268  -0.079   0.052
    1UNL     N2   15   0.193  -0.197   0.049
    1UNL    C14   16   0.051  -0.157   0.025
    1UNL    C15   17   0.032  -0.188  -0.133
    1UNL     O1   18   0.031  -0.324  -0.178
    1UNL    C16   19  -0.089  -0.114  -0.191
    1UNL    C17   20  -0.154  -0.012  -0.086
    1UNL    C18   21  -0.051   0.080  -0.025
    1UNL    C19   22  -0.120   0.197   0.057
    1UNL     O2   23  -0.201   0.267  -0.031
    1UNL    C20   24   0.024   0.163  -0.134
    1UNL     O3   25   0.079   0.094  -0.215
    1UNL     O4   26   0.036   0.297  -0.128
    1UNL    C21   27   0.131   0.336  -0.224
    1UNL     H1   28  -0.466  -0.035   0.236
    1UNL     H2   29  -0.406  -0.204   0.200
    1UNL     H3   30  -0.533  -0.120   0.104
    1UNL     H4   31  -0.375   0.061   0.036
    1UNL     H5   32  -0.242  -0.265   0.137
    1UNL     H6   33  -0.205  -0.306  -0.015
    1UNL     H7   34  -0.131  -0.165   0.296
    1UNL     H8   35   0.033  -0.215   0.302
    1UNL     H9   36  -0.078   0.051   0.244
    1UNL    H10   37   0.086   0.026   0.285
    1UNL    H11   38   0.202   0.261   0.070
    1UNL    H12   39   0.427   0.276   0.078
    1UNL    H13   40   0.571   0.080   0.079
    1UNL    H14   41   0.470  -0.151   0.040
    1UNL    H15   42   0.229  -0.280  -0.000
    1UNL    H16   43   0.132  -0.128  -0.166
    1UNL    H17   44  -0.007  -0.384  -0.105
    1UNL    H18   45  -0.157  -0.185  -0.226
    1UNL    H19   46  -0.051  -0.053  -0.271
    1UNL    H20   47  -0.228   0.058  -0.149
    1UNL    H21   48  -0.185   0.167   0.145
    1UNL    H22   49  -0.052   0.268   0.098
    1UNL    H23   50  -0.160   0.331  -0.090
    1UNL    H24   51   0.128   0.277  -0.316
    1UNL    H25   52   0.226   0.326  -0.171
    1UNL    H26   53   0.131   0.440  -0.246
   0.00000   0.00000   0.00000   0.00000   0.00000   0.00000   0.00000   0.00000   0.00000
Generated with MDTraj, t= 17.0
 53
    1UNL     C1    1  -0.450  -0.110   0.154
    1UNL     C2    2  -0.357  -0.042   0.052
    1UNL     C3    3  -0.236  -0.084   0.019
    1UNL     C4    4  -0.194  -0.218   0.057
    1UNL     N1    5  -0.051  -0.232   0.098
    1UNL     C5    6  -0.027  -0.172   0.234
    1UNL     C6    7  -0.001  -0.024   0.216
    1UNL     C7    8   0.043  -0.004   0.066
    1UNL     C8    9   0.181   0.050   0.064
    1UNL     C9   10   0.241   0.174   0.071
    1UNL    C10   11   0.384   0.180   0.065
    1UNL    C11   12   0.462   0.069   0.051
    1UNL    C12   13   0.407  -0.054   0.045
    1UNL    C13   14   0.265  -0.064   0.059
    1UNL     N2   15   0.195  -0.190   0.050
    1UNL    C14   16   0.055  -0.153   0.015
    1UNL    C15   17   0.033  -0.177  -0.134
    1UNL     O1   18   0.039  -0.321  -0.171
    1UNL    C16   19  -0.099  -0.110  -0.191
    1UNL    C17   20  -0.155  -0.013  -0.085
    1UNL    C18   21  -0.057   0.086  -0.015
    1UNL    C19   22  -0.117   0.201   0.061
    1UNL     O2   23  -0.192   0.284  -0.027
    1UNL    C20   24   0.026   0.150  -0.124
    1UNL     O3   25   0.083   0.077  -0.204
    1UNL     O4   26   0.048   0.291  -0.126
    1UNL    C21   27   0.140   0.317  -0.230
    1UNL     H1   28  -0.539  -0.148   0.105
    1UNL     H2   29  -0.475  -0.047   0.244
    1UNL     H3   30  -0.409  -0.201   0.190
    1UNL     H4   31  -0.384   0.053   0.011
    1UNL     H5   32  -0.254  -0.256   0.134
    1UNL     H6   33  -0.219  -0.290  -0.021
    1UNL     H7   34  -0.106  -0.198   0.298
    1UNL     H8   35   0.067  -0.220   0.271
    1UNL     H9   36  -0.094   0.026   0.224
    1UNL    H10   37   0.060   0.019   0.303
    1UNL    H11   38   0.186   0.265   0.089
    1UNL    H12   39   0.433   0.284   0.075
    1UNL    H13   40   0.567   0.087   0.045
    1UNL    H14   41   0.466  -0.142   0.021
    1UNL    H15   42   0.225  -0.264  -0.014
    1UNL    H16   43   0.127  -0.129  -0.192
    1UNL    H17   44  -0.014  -0.379  -0.115
    1UNL    H18   45  -0.162  -0.189  -0.215
    1UNL    H19   46  -0.071  -0.053  -0.279
    1UNL    H20   47  -0.224   0.071  -0.141
    1UNL    H21   48  -0.184   0.171   0.131
    1UNL    H22   49  -0.037   0.256   0.111
    1UNL    H23   50  -0.125   0.317  -0.096
    1UNL    H24   51   0.106   0.308  -0.334
    1UNL    H25   52   0.223   0.249  -0.213
    1UNL    H26   53   0.174   0.418  -0.218
   0.00000   0.00000   0.00000   0.00000   0.00000   0.00000   0.00000   0.00000   0.00000
Generated with MDTraj, t= 18.0
 53
    1UNL     C1    1  -0.440  -0.115   0.161
    1UNL     C2    2  -0.358  -0.038   0.071
    1UNL     C3    3  -0.244  -0.079   0.017
    1UNL     C4    4  -0.191  -0.214   0.057
    1UNL     N1    5  -0.047  -0.224   0.098
    1UNL     C5    6  -0.033  -0.163   0.232
    1UNL     C6    7  -0.004  -0.015   0.213
    1UNL     C7    8   0.045  -0.001   0.063
    1UNL     C8    9   0.191   0.048   0.071
    1UNL     C9   10   0.253   0.164   0.092
    1UNL    C10   11   0.390   0.172   0.079
    1UNL    C11   12   0.463   0.058   0.054
    1UNL    C12   13   0.406  -0.063   0.046
    1UNL    C13   14   0.266  -0.071   0.064
    1UNL     N2   15   0.185  -0.182   0.051
    1UNL    C14   16   0.055  -0.151   0.011
    1UNL    C15   17   0.031  -0.173  -0.142
    1UNL     O1   18   0.053  -0.315  -0.174
    1UNL    C16   19  -0.104  -0.116  -0.188
    1UNL    C17   20  -0.161  -0.009  -0.084
    1UNL    C18   21  -0.048   0.085  -0.023
    1UNL    C19   22  -0.112   0.200   0.055
    1UNL     O2   23  -0.199   0.269  -0.040
    1UNL    C20   24   0.033   0.146  -0.136
    1UNL     O3   25   0.070   0.081  -0.232
    1UNL     O4   26   0.060   0.278  -0.116
    1UNL    C21   27   0.119   0.339  -0.224
    1UNL     H1   28  -0.404  -0.216   0.177
    1UNL     H2   29  -0.544  -0.126   0.129
    1UNL     H3   30  -0.442  -0.078   0.264
    1UNL     H4   31  -0.395   0.056   0.031
    1UNL     H5   32  -0.258  -0.266   0.124
    1UNL     H6   33  -0.208  -0.278  -0.026
    1UNL     H7   34  -0.121  -0.178   0.289
    1UNL     H8   35   0.052  -0.219   0.276
    1UNL     H9   36  -0.105   0.034   0.225
    1UNL    H10   37   0.065   0.032   0.288
    1UNL    H11   38   0.191   0.249   0.113
    1UNL    H12   39   0.436   0.261   0.093
    1UNL    H13   40   0.569   0.059   0.031
    1UNL    H14   41   0.456  -0.151   0.019
    1UNL    H15   42   0.218  -0.261  -0.004
    1UNL    H16   43   0.115  -0.112  -0.202
    1UNL    H17   44   0.005  -0.369  -0.112
    1UNL    H18   45  -0.176  -0.191  -0.199
    1UNL    H19   46  -0.077  -0.082  -0.288
    1UNL    H20   47  -0.237   0.076  -0.122
    1UNL    H21   48  -0.170   0.170   0.130
    1UNL    H22   49  -0.033   0.263   0.101
    1UNL    H23   50  -0.144   0.270  -0.118
    1UNL    H24   51   0.064   0.346  -0.322
    1UNL    H25   52   0.212   0.285  -0.244
    1UNL    H26   53   0.128   0.445  -0.195
   0.00000   0.00000   0.00000   0.00000   0.00000   0.00000   0.00000   0.00000   0.00000
Generated with MDTraj, t= 19.0
 53
    1UNL     C1    1  -0.432  -0.090   0.174
    1UNL     C2    2  -0.351  -0.035   0.061
    1UNL     C3    3  -0.235  -0.090   0.014
    1UNL     C4    4  -0.175  -0.222   0.052
    1UNL     N1    5  -0.035  -0.223   0.102
    1UNL     C5    6  -0.026  -0.152   0.230
    1UNL     C6    7   0.010  -0.005   0.211
    1UNL     C7    8   0.045   0.001   0.055
    1UNL     C8    9   0.196   0.036   0.058
    1UNL     C9   10   0.251   0.161   0.069
    1UNL    C10   11   0.387   0.166   0.078
    1UNL    C11   12   0.465   0.049   0.081
    1UNL    C12   13   0.404  -0.074   0.076
    1UNL    C13   14   0.269  -0.081   0.059
    1UNL     N2   15   0.183  -0.190   0.049
    1UNL    C14   16   0.052  -0.153   0.016
    1UNL    C15   17   0.031  -0.185  -0.143
    1UNL     O1   18   0.046  -0.319  -0.179
    1UNL    C16   19  -0.094  -0.119  -0.196
    1UNL    C17   20  -0.157  -0.012  -0.093
    1UNL    C18   21  -0.054   0.085  -0.030
    1UNL    C19   22  -0.132   0.187   0.053
    1UNL     O2   23  -0.211   0.268  -0.029
    1UNL    C20   24   0.025   0.159  -0.135
    1UNL     O3   25   0.044   0.099  -0.238
    1UNL     O4   26   0.042   0.292  -0.118
    1UNL    C21   27   0.131   0.346  -0.214
    1UNL     H1   28  -0.379  -0.182   0.208
    1UNL     H2   29  -0.529  -0.113   0.139
    1UNL     H3   30  -0.433  -0.020   0.261
    1UNL     H4   31  -0.391   0.046   0.002
    1UNL     H5   32  -0.229  -0.265   0.139
    1UNL     H6   33  -0.196  -0.300  -0.013
    1UNL     H7   34  -0.120  -0.168   0.278
    1UNL     H8   35   0.053  -0.202   0.289
    1UNL     H9   36  -0.078   0.068   0.242
    1UNL    H10   37   0.100   0.019   0.268
    1UNL    H11   38   0.198   0.255   0.076
    1UNL    H12   39   0.443   0.263   0.076
    1UNL    H13   40   0.570   0.064   0.097
    1UNL    H14   41   0.459  -0.172   0.077
    1UNL    H15   42   0.207  -0.280   0.007
    1UNL    H16   43   0.124  -0.139  -0.201
    1UNL    H17   44   0.006  -0.371  -0.103
    1UNL    H18   45  -0.152  -0.205  -0.223
    1UNL    H19   46  -0.082  -0.067  -0.289
    1UNL    H20   47  -0.225   0.063  -0.151
    1UNL    H21   48  -0.191   0.142   0.128
    1UNL    H22   49  -0.059   0.248   0.110
    1UNL    H23   50  -0.149   0.334  -0.074
    1UNL    H24   51   0.096   0.333  -0.321
    1UNL    H25   52   0.222   0.282  -0.214
    1UNL    H26   53   0.139   0.457  -0.208
   0.00000   0.00000   0.00000   0.00000   0.00000   0.00000   0.00000   0.00000   0.00000
Generated with MDTraj, t= 20.0
 53
    1UNL     C1    1  -0.431  -0.080   0.178
    1UNL     C2    2  -0.340  -0.030   0.072
    1UNL     C3    3  -0.235  -0.094   0.014
    1UNL     C4    4  -0.183  -0.230   0.038
    1UNL     N1    5  -0.045  -0.227   0.098
    1UNL     C5    6  -0.048  -0.160   0.223
    1UNL     C6    7   0.011  -0.019   0.209
    1UNL     C7    8   0.053  -0.005   0.059
    1UNL     C8    9   0.190   0.040   0.051
    1UNL     C9   10   0.248   0.166   0.055
    1UNL    C10   11   0.386   0.164   0.068
    1UNL    C11   12   0.466   0.049   0.081
    1UNL    C12   13   0.409  -0.073   0.079
    1UNL    C13   14   0.272  -0.074   0.060
    1UNL     N2   15   0.194  -0.193   0.049
    1UNL    C14   16   0.056  -0.157   0.010
    1UNL    C15   17   0.037  -0.180  -0.140
    1UNL     O1   18   0.038  -0.318  -0.166
    1UNL    C16   19  -0.089  -0.109  -0.195
    1UNL    C17   20  -0.157  -0.010  -0.085
    1UNL    C18   21  -0.051   0.086  -0.023
    1UNL    C19   22  -0.134   0.191   0.053
    1UNL     O2   23  -0.219   0.258  -0.033
    1UNL    C20   24   0.028   0.158  -0.128
    1UNL     O3   25   0.057   0.099  -0.229
    1UNL     O4   26   0.048   0.292  -0.112
    1UNL    C21   27   0.124   0.351  -0.220
    1UNL     H1   28  -0.376  -0.074   0.275
    1UNL     H2   29  -0.456  -0.181   0.158
    1UNL     H3   30  -0.527  -0.022   0.190
    1UNL     H4   31  -0.363   0.065   0.023
    1UNL     H5   32  -0.248  -0.292   0.105
    1UNL     H6   33  -0.185  -0.286  -0.049
    1UNL     H7   34  -0.146  -0.164   0.268
    1UNL     H8   35   0.016  -0.220   0.289
    1UNL     H9   36  -0.053   0.065   0.243
    1UNL    H10   37   0.109  -0.009   0.263
    1UNL    H11   38   0.188   0.253   0.041
    1UNL    H12   39   0.445   0.256   0.074
    1UNL    H13   40   0.574   0.052   0.091
    1UNL    H14   41   0.459  -0.159   0.104
    1UNL    H15   42   0.227  -0.271  -0.008
    1UNL    H16   43   0.136  -0.142  -0.194
    1UNL    H17   44   0.023  -0.369  -0.082
    1UNL    H18   45  -0.167  -0.178  -0.225
    1UNL    H19   46  -0.066  -0.061  -0.283
    1UNL    H20   47  -0.240   0.033  -0.149
    1UNL    H21   48  -0.194   0.142   0.128
    1UNL    H22   49  -0.077   0.267   0.109
    1UNL    H23   50  -0.181   0.330  -0.083
    1UNL    H24   51   0.054   0.353  -0.306
    1UNL    H25   52   0.202   0.286  -0.261
    1UNL    H26   53   0.146   0.457  -0.207
   0.00000   0.00000   0.00000   0.00000   0.00000   0.00000   0.00000   0.00000   0.00000
Generated with MDTraj, t= 21.0
 53
    1UNL     C1    1  -0.440  -0.093   0.170
    1UNL     C2    2  -0.346  -0.044   0.067
    1UNL     C3    3  -0.235  -0.095   0.013
    1UNL     C4    4  -0.189  -0.231   0.044
    1UNL     N1    5  -0.046  -0.225   0.099
    1UNL     C5    6  -0.040  -0.163   0.231
    1UNL     C6    7  -0.008  -0.017   0.207
    1UNL     C7    8   0.043   0.001   0.064
    1UNL     C8    9   0.189   0.035   0.070
    1UNL     C9   10   0.259   0.160   0.082
    1UNL    C10   11   0.396   0.165   0.075
    1UNL    C11   12   0.468   0.050   0.048
    1UNL    C12   13   0.402  -0.072   0.042
    1UNL    C13   14   0.266  -0.081   0.053
    1UNL     N2   15   0.187  -0.195   0.054
    1UNL    C14   16   0.050  -0.154   0.018
    1UNL    C15   17   0.040  -0.172  -0.130
    1UNL     O1   18   0.050  -0.311  -0.153
    1UNL    C16   19  -0.088  -0.105  -0.194
    1UNL    C17   20  -0.161  -0.014  -0.089
    1UNL    C18   21  -0.051   0.086  -0.023
    1UNL    C19   22  -0.132   0.192   0.057
    1UNL     O2   23  -0.206   0.277  -0.025
    1UNL    C20   24   0.033   0.155  -0.141
    1UNL     O3   25   0.095   0.089  -0.222
    1UNL     O4   26   0.040   0.289  -0.130
    1UNL    C21   27   0.110   0.363  -0.222
    1UNL     H1   28  -0.492  -0.010   0.221
    1UNL     H2   29  -0.390  -0.146   0.251
    1UNL     H3   30  -0.520  -0.164   0.138
    1UNL     H4   31  -0.369   0.049   0.017
    1UNL     H5   32  -0.271  -0.276   0.104
    1UNL     H6   33  -0.185  -0.277  -0.050
    1UNL     H7   34  -0.131  -0.180   0.289
    1UNL     H8   35   0.035  -0.219   0.288
    1UNL     H9   36  -0.089   0.041   0.222
    1UNL    H10   37   0.067   0.025   0.281
    1UNL    H11   38   0.201   0.251   0.082
    1UNL    H12   39   0.444   0.256   0.078
    1UNL    H13   40   0.574   0.043   0.034
    1UNL    H14   41   0.460  -0.167   0.037
    1UNL    H15   42   0.221  -0.265  -0.012
    1UNL    H16   43   0.131  -0.119  -0.181
    1UNL    H17   44  -0.010  -0.363  -0.099
    1UNL    H18   45  -0.156  -0.184  -0.225
    1UNL    H19   46  -0.069  -0.045  -0.274
    1UNL    H20   47  -0.231   0.046  -0.145
    1UNL    H21   48  -0.209   0.150   0.127
    1UNL    H22   49  -0.070   0.267   0.108
    1UNL    H23   50  -0.153   0.319  -0.101
    1UNL    H24   51   0.053   0.333  -0.309
    1UNL    H25   52   0.213   0.345  -0.243
    1UNL    H26   53   0.091   0.466  -0.199
   0.00000   0.00000   0.00000   0.00000   0.00000   0.00000   0.00000   0.00000   0.00000
Generated with MDTraj, t= 22.0
 53
    1UNL     C1    1  -0.465  -0.096   0.152
    1UNL     C2    2  -0.361  -0.042   0.051
    1UNL     C3    3  -0.237  -0.089   0.017
    1UNL     C4    4  -0.189  -0.224   0.059
    1UNL     N1    5  -0.046  -0.222   0.099
    1UNL     C5    6  -0.024  -0.168   0.242
    1UNL     C6    7   0.007  -0.023   0.223
    1UNL     C7    8   0.049  -0.004   0.077
    1UNL     C8    9   0.192   0.033   0.075
    1UNL     C9   10   0.246   0.157   0.070
    1UNL    C10   11   0.382   0.173   0.061
    1UNL    C11   12   0.466   0.064   0.049
    1UNL    C12   13   0.411  -0.069   0.051
    1UNL    C13   14   0.274  -0.076   0.061
    1UNL     N2   15   0.191  -0.195   0.048
    1UNL    C14   16   0.049  -0.149   0.020
    1UNL    C15   17   0.029  -0.162  -0.136
    1UNL     O1   18   0.038  -0.296  -0.184
    1UNL    C16   19  -0.091  -0.087  -0.195
    1UNL    C17   20  -0.162  -0.008  -0.081
    1UNL    C18   21  -0.049   0.085  -0.021
    1UNL    C19   22  -0.126   0.187   0.067
    1UNL     O2   23  -0.214   0.268  -0.012
    1UNL    C20   24   0.036   0.142  -0.137
    1UNL     O3   25   0.110   0.071  -0.204
    1UNL     O4   26   0.037   0.283  -0.144
    1UNL    C21   27   0.127   0.341  -0.237
    1UNL     H1   28  -0.560  -0.042   0.147
    1UNL     H2   29  -0.420  -0.081   0.254
    1UNL     H3   30  -0.478  -0.205   0.143
    1UNL     H4   31  -0.392   0.056   0.011
    1UNL     H5   32  -0.239  -0.257   0.152
    1UNL     H6   33  -0.213  -0.297  -0.019
    1UNL     H7   34  -0.114  -0.193   0.300
    1UNL     H8   35   0.063  -0.210   0.291
    1UNL     H9   36  -0.084   0.033   0.239
    1UNL    H10   37   0.085   0.026   0.287
    1UNL    H11   38   0.181   0.244   0.060
    1UNL    H12   39   0.425   0.279   0.055
    1UNL    H13   40   0.573   0.086   0.040
    1UNL    H14   41   0.475  -0.155   0.046
    1UNL    H15   42   0.232  -0.285   0.023
    1UNL    H16   43   0.122  -0.106  -0.178
    1UNL    H17   44  -0.047  -0.342  -0.161
    1UNL    H18   45  -0.162  -0.154  -0.243
    1UNL    H19   46  -0.068  -0.012  -0.261
    1UNL    H20   47  -0.230   0.062  -0.118
    1UNL    H21   48  -0.201   0.138   0.142
    1UNL    H22   49  -0.049   0.247   0.117
    1UNL    H23   50  -0.165   0.293  -0.090
    1UNL    H24   51   0.105   0.293  -0.332
    1UNL    H25   52   0.231   0.324  -0.213
    1UNL    H26   53   0.115   0.449  -0.243
   0.00000   0.00000   0.00000   0.00000   0.00000   0.00000   0.00000   0.00000   0.00000
Generated with MDTraj, t= 23.0
 53
    1UNL     C1    1  -0.456  -0.124   0.138
    1UNL     C2    2  -0.355  -0.032   0.070
    1UNL     C3    3  -0.242  -0.082   0.016
    1UNL     C4    4  -0.193  -0.215   0.050
    1UNL     N1    5  -0.049  -0.227   0.098
    1UNL     C5    6  -0.023  -0.175   0.237
    1UNL     C6    7   0.007  -0.024   0.218
    1UNL     C7    8   0.051  -0.003   0.067
    1UNL     C8    9   0.196   0.036   0.064
    1UNL     C9   10   0.254   0.158   0.077
    1UNL    C10   11   0.390   0.166   0.077
    1UNL    C11   12   0.473   0.056   0.066
    1UNL    C12   13   0.415  -0.072   0.047
    1UNL    C13   14   0.277  -0.083   0.052
    1UNL     N2   15   0.193  -0.200   0.040
    1UNL    C14   16   0.054  -0.151   0.014
    1UNL    C15   17   0.029  -0.171  -0.136
    1UNL     O1   18   0.028  -0.315  -0.149
    1UNL    C16   19  -0.092  -0.104  -0.190
    1UNL    C17   20  -0.159  -0.003  -0.086
    1UNL    C18   21  -0.046   0.093  -0.021
    1UNL    C19   22  -0.125   0.200   0.060
    1UNL     O2   23  -0.209   0.290  -0.019
    1UNL    C20   24   0.037   0.157  -0.134
    1UNL     O3   25   0.101   0.080  -0.203
    1UNL     O4   26   0.027   0.293  -0.142
    1UNL    C21   27   0.103   0.352  -0.250
    1UNL     H1   28  -0.548  -0.073   0.162
    1UNL     H2   29  -0.415  -0.168   0.237
    1UNL     H3   30  -0.481  -0.214   0.080
    1UNL     H4   31  -0.374   0.073   0.065
    1UNL     H5   32  -0.253  -0.268   0.124
    1UNL     H6   33  -0.194  -0.284  -0.041
    1UNL     H7   34  -0.116  -0.183   0.299
    1UNL     H8   35   0.057  -0.235   0.281
    1UNL     H9   36  -0.088   0.041   0.232
    1UNL    H10   37   0.079   0.013   0.292
    1UNL    H11   38   0.186   0.240   0.084
    1UNL    H12   39   0.432   0.257   0.098
    1UNL    H13   40   0.579   0.061   0.070
    1UNL    H14   41   0.473  -0.162   0.036
    1UNL    H15   42   0.225  -0.282  -0.011
    1UNL    H16   43   0.127  -0.132  -0.192
    1UNL    H17   44  -0.003  -0.353  -0.060
    1UNL    H18   45  -0.172  -0.169  -0.222
    1UNL    H19   46  -0.060  -0.052  -0.275
    1UNL    H20   47  -0.211   0.073  -0.132
    1UNL    H21   48  -0.205   0.136   0.124
    1UNL    H22   49  -0.055   0.256   0.122
    1UNL    H23   50  -0.146   0.347  -0.073
    1UNL    H24   51   0.085   0.317  -0.354
    1UNL    H25   52   0.206   0.335  -0.214
    1UNL    H26   53   0.084   0.461  -0.253
   0.00000   0.00000   0.00000   0.00000   0.00000   0.00000   0.00000   0.00000   0.00000
Generated with MDTraj, t= 24.0
 53
    1UNL     C1    1  -0.428  -0.110   0.158
    1UNL     C2    2  -0.358  -0.039   0.059
    1UNL     C3    3  -0.243  -0.082   0.009
    1UNL     C4    4  -0.186  -0.219   0.043
    1UNL     N1    5  -0.052  -0.222   0.104
    1UNL     C5    6  -0.038  -0.154   0.233
    1UNL     C6    7   0.011  -0.010   0.220
    1UNL     C7    8   0.049   0.003   0.064
    1UNL     C8    9   0.201   0.027   0.060
    1UNL     C9   10   0.264   0.149   0.082
    1UNL    C10   11   0.405   0.159   0.089
    1UNL    C11   12   0.482   0.045   0.081
    1UNL    C12   13   0.420  -0.075   0.064
    1UNL    C13   14   0.280  -0.087   0.060
    1UNL     N2   15   0.194  -0.193   0.041
    1UNL    C14   16   0.056  -0.154   0.017
    1UNL    C15   17   0.026  -0.171  -0.133
    1UNL     O1   18   0.029  -0.311  -0.170
    1UNL    C16   19  -0.094  -0.102  -0.196
    1UNL    C17   20  -0.165  -0.006  -0.089
    1UNL    C18   21  -0.051   0.089  -0.022
    1UNL    C19   22  -0.135   0.198   0.056
    1UNL     O2   23  -0.220   0.278  -0.022
    1UNL    C20   24   0.032   0.157  -0.136
    1UNL     O3   25   0.075   0.082  -0.221
    1UNL     O4   26   0.039   0.295  -0.130
    1UNL    C21   27   0.088   0.350  -0.251
    1UNL     H1   28  -0.524  -0.065   0.188
    1UNL     H2   29  -0.366  -0.119   0.253
    1UNL     H3   30  -0.451  -0.216   0.136
    1UNL     H4   31  -0.387   0.062   0.030
    1UNL     H5   32  -0.253  -0.273   0.108
    1UNL     H6   33  -0.171  -0.286  -0.051
    1UNL     H7   34  -0.137  -0.157   0.288
    1UNL     H8   35   0.032  -0.219   0.287
    1UNL     H9   36  -0.062   0.063   0.255
    1UNL    H10   37   0.103  -0.006   0.281
    1UNL    H11   38   0.202   0.232   0.112
    1UNL    H12   39   0.454   0.259   0.101
    1UNL    H13   40   0.589   0.046   0.096
    1UNL    H14   41   0.481  -0.163   0.043
    1UNL    H15   42   0.226  -0.258  -0.032
    1UNL    H16   43   0.128  -0.139  -0.188
    1UNL    H17   44   0.052  -0.372  -0.099
    1UNL    H18   45  -0.155  -0.184  -0.225
    1UNL    H19   46  -0.070  -0.056  -0.293
    1UNL    H20   47  -0.223   0.061  -0.141
    1UNL    H21   48  -0.196   0.142   0.135
    1UNL    H22   49  -0.059   0.266   0.101
    1UNL    H23   50  -0.164   0.322  -0.086
    1UNL    H24   51   0.036   0.332  -0.351
    1UNL    H25   52   0.194   0.320  -0.243
    1UNL    H26   53   0.090   0.458  -0.235
   0.00000   0.00000   0.00000   0.00000   0.00000   0.00000   0.00000   0.00000   0.00000
Generated with MDTraj, t= 25.0
 53
    1UNL     C1    1  -0.426  -0.090   0.173
    1UNL     C2    2  -0.347  -0.028   0.065
    1UNL     C3    3  -0.237  -0.081   0.008
    1UNL     C4    4  -0.191  -0.223   0.055
    1UNL     N1    5  -0.052  -0.227   0.108
    1UNL     C5    6  -0.029  -0.165   0.239
    1UNL     C6    7   0.005  -0.020   0.216
    1UNL     C7    8   0.050  -0.012   0.061
    1UNL     C8    9   0.198   0.031   0.054
    1UNL     C9   10   0.255   0.156   0.059
    1UNL    C10   11   0.393   0.171   0.073
    1UNL    C11   12   0.470   0.052   0.090
    1UNL    C12   13   0.413  -0.071   0.087
    1UNL    C13   14   0.274  -0.083   0.070
    1UNL     N2   15   0.197  -0.202   0.046
    1UNL    C14   16   0.053  -0.164   0.017
    1UNL    C15   17   0.020  -0.185  -0.141
    1UNL     O1   18   0.040  -0.312  -0.191
    1UNL    C16   19  -0.101  -0.114  -0.197
    1UNL    C17   20  -0.157  -0.007  -0.092
    1UNL    C18   21  -0.049   0.086  -0.034
    1UNL    C19   22  -0.129   0.199   0.052
    1UNL     O2   23  -0.226   0.272  -0.014
    1UNL    C20   24   0.029   0.156  -0.144
    1UNL     O3   25   0.084   0.093  -0.231
    1UNL     O4   26   0.026   0.296  -0.136
    1UNL    C21   27   0.117   0.366  -0.222
    1UNL     H1   28  -0.509  -0.020   0.201
    1UNL     H2   29  -0.356  -0.100   0.256
    1UNL     H3   30  -0.462  -0.192   0.143
    1UNL     H4   31  -0.369   0.073   0.037
    1UNL     H5   32  -0.252  -0.253   0.139
    1UNL     H6   33  -0.200  -0.307  -0.026
    1UNL     H7   34  -0.119  -0.190   0.306
    1UNL     H8   35   0.056  -0.215   0.285
    1UNL     H9   36  -0.071   0.038   0.254
    1UNL    H10   37   0.103   0.001   0.264
    1UNL    H11   38   0.195   0.244   0.052
    1UNL    H12   39   0.445   0.268   0.068
    1UNL    H13   40   0.578   0.062   0.084
    1UNL    H14   41   0.465  -0.162   0.088
    1UNL    H15   42   0.223  -0.286  -0.007
    1UNL    H16   43   0.121  -0.130  -0.180
    1UNL    H17   44  -0.028  -0.380  -0.162
    1UNL    H18   45  -0.168  -0.188  -0.228
    1UNL    H19   46  -0.073  -0.064  -0.294
    1UNL    H20   47  -0.227   0.042  -0.148
    1UNL    H21   48  -0.179   0.152   0.132
    1UNL    H22   49  -0.054   0.278   0.092
    1UNL    H23   50  -0.187   0.296  -0.105
    1UNL    H24   51   0.080   0.364  -0.326
    1UNL    H25   52   0.216   0.321  -0.211
    1UNL    H26   53   0.138   0.463  -0.175
   0.00000   0.00000   0.00000   0.00000   0.00000   0.00000   0.00000   0.00000   0.00000
Generated with MDTraj, t= 26.0
 53
    1UNL     C1    1  -0.422  -0.089   0.182
    1UNL     C2    2  -0.343  -0.030   0.066
    1UNL     C3    3  -0.243  -0.098   0.009
    1UNL     C4    4  -0.198  -0.231   0.037
    1UNL     N1    5  -0.057  -0.231   0.096
    1UNL     C5    6  -0.044  -0.183   0.233
    1UNL     C6    7  -0.007  -0.030   0.221
    1UNL     C7    8   0.035   0.000   0.071
    1UNL     C8    9   0.191   0.046   0.070
    1UNL     C9   10   0.259   0.166   0.077
    1UNL    C10   11   0.399   0.173   0.071
    1UNL    C11   12   0.476   0.056   0.061
    1UNL    C12   13   0.409  -0.063   0.044
    1UNL    C13   14   0.268  -0.075   0.051
    1UNL     N2   15   0.189  -0.187   0.047
    1UNL    C14   16   0.047  -0.148   0.021
    1UNL    C15   17   0.032  -0.177  -0.139
    1UNL     O1   18   0.060  -0.315  -0.163
    1UNL    C16   19  -0.099  -0.115  -0.197
    1UNL    C17   20  -0.161  -0.014  -0.096
    1UNL    C18   21  -0.062   0.087  -0.025
    1UNL    C19   22  -0.134   0.205   0.047
    1UNL     O2   23  -0.219   0.281  -0.031
    1UNL    C20   24   0.028   0.156  -0.135
    1UNL     O3   25   0.082   0.084  -0.215
    1UNL     O4   26   0.060   0.286  -0.114
    1UNL    C21   27   0.124   0.346  -0.226
    1UNL     H1   28  -0.486  -0.006   0.225
    1UNL     H2   29  -0.353  -0.118   0.258
    1UNL     H3   30  -0.486  -0.177   0.153
    1UNL     H4   31  -0.357   0.070   0.022
    1UNL     H5   32  -0.264  -0.283   0.106
    1UNL     H6   33  -0.201  -0.291  -0.061
    1UNL     H7   34  -0.138  -0.208   0.295
    1UNL     H8   35   0.028  -0.251   0.281
    1UNL     H9   36  -0.092   0.031   0.249
    1UNL    H10   37   0.073  -0.013   0.294
    1UNL    H11   38   0.204   0.258   0.076
    1UNL    H12   39   0.447   0.264   0.069
    1UNL    H13   40   0.583   0.060   0.060
    1UNL    H14   41   0.460  -0.163   0.031
    1UNL    H15   42   0.225  -0.276   0.012
    1UNL    H16   43   0.119  -0.109  -0.187
    1UNL    H17   44  -0.000  -0.367  -0.103
    1UNL    H18   45  -0.164  -0.191  -0.228
    1UNL    H19   46  -0.075  -0.059  -0.291
    1UNL    H20   47  -0.223   0.044  -0.155
    1UNL    H21   48  -0.197   0.171   0.121
    1UNL    H22   49  -0.063   0.285   0.096
    1UNL    H23   50  -0.170   0.338  -0.089
    1UNL    H24   51   0.095   0.277  -0.304
    1UNL    H25   52   0.230   0.352  -0.211
    1UNL    H26   53   0.098   0.453  -0.227
   0.00000   0.00000   0.00000   0.00000   0.00000   0.00000   0.00000   0.00000   0.00000
Generated with MDTraj, t= 27.0
 53
    1UNL     C1    1  -0.437  -0.115   0.158
    1UNL     C2    2  -0.345  -0.043   0.072
    1UNL     C3    3  -0.232  -0.092   0.017
    1UNL     C4    4  -0.188  -0.234   0.053
    1UNL     N1    5  -0.048  -0.235   0.109
    1UNL     C5    6  -0.035  -0.176   0.247
    1UNL     C6    7  -0.007  -0.026   0.225
    1UNL     C7    8   0.040  -0.002   0.079
    1UNL     C8    9   0.185   0.040   0.077
    1UNL     C9   10   0.240   0.164   0.084
    1UNL    C10   11   0.384   0.178   0.071
    1UNL    C11   12   0.458   0.067   0.045
    1UNL    C12   13   0.405  -0.057   0.035
    1UNL    C13   14   0.265  -0.068   0.049
    1UNL     N2   15   0.189  -0.189   0.042
    1UNL    C14   16   0.044  -0.155   0.023
    1UNL    C15   17   0.022  -0.175  -0.130
    1UNL     O1   18   0.029  -0.312  -0.177
    1UNL    C16   19  -0.105  -0.106  -0.188
    1UNL    C17   20  -0.159  -0.006  -0.091
    1UNL    C18   21  -0.049   0.087  -0.027
    1UNL    C19   22  -0.117   0.204   0.048
    1UNL     O2   23  -0.203   0.275  -0.039
    1UNL    C20   24   0.038   0.160  -0.144
    1UNL     O3   25   0.091   0.084  -0.224
    1UNL     O4   26   0.058   0.298  -0.128
    1UNL    C21   27   0.150   0.338  -0.218
    1UNL     H1   28  -0.536  -0.061   0.178
    1UNL     H2   29  -0.401  -0.125   0.257
    1UNL     H3   30  -0.474  -0.214   0.123
    1UNL     H4   31  -0.373   0.058   0.056
    1UNL     H5   32  -0.259  -0.289   0.122
    1UNL     H6   33  -0.189  -0.295  -0.042
    1UNL     H7   34  -0.126  -0.204   0.314
    1UNL     H8   35   0.047  -0.228   0.297
    1UNL     H9   36  -0.111   0.030   0.230
    1UNL    H10   37   0.061   0.009   0.300
    1UNL    H11   38   0.173   0.249   0.086
    1UNL    H12   39   0.431   0.281   0.084
    1UNL    H13   40   0.565   0.071   0.061
    1UNL    H14   41   0.466  -0.140   0.040
    1UNL    H15   42   0.228  -0.263  -0.015
    1UNL    H16   43   0.113  -0.112  -0.182
    1UNL    H17   44  -0.008  -0.376  -0.115
    1UNL    H18   45  -0.180  -0.181  -0.210
    1UNL    H19   46  -0.076  -0.053  -0.281
    1UNL    H20   47  -0.241   0.049  -0.123
    1UNL    H21   48  -0.176   0.172   0.129
    1UNL    H22   49  -0.039   0.277   0.098
    1UNL    H23   50  -0.148   0.315  -0.115
    1UNL    H24   51   0.092   0.355  -0.309
    1UNL    H25   52   0.220   0.257  -0.236
    1UNL    H26   53   0.206   0.418  -0.165
   0.00000   0.00000   0.00000   0.00000   0.00000   0.00000   0.00000   0.00000   0.00000
Generated with MDTraj, t= 28.0
 53
    1UNL     C1    1  -0.445  -0.113   0.152
    1UNL     C2    2  -0.366  -0.044   0.055
    1UNL     C3    3  -0.245  -0.091   0.017
    1UNL     C4    4  -0.185  -0.227   0.060
    1UNL     N1    5  -0.040  -0.225   0.110
    1UNL     C5    6  -0.019  -0.161   0.246
    1UNL     C6    7   0.003  -0.013   0.218
    1UNL     C7    8   0.044  -0.000   0.066
    1UNL     C8    9   0.190   0.045   0.064
    1UNL     C9   10   0.251   0.171   0.075
    1UNL    C10   11   0.389   0.180   0.074
    1UNL    C11   12   0.468   0.069   0.065
    1UNL    C12   13   0.409  -0.059   0.054
    1UNL    C13   14   0.270  -0.070   0.051
    1UNL     N2   15   0.195  -0.187   0.035
    1UNL    C14   16   0.049  -0.150   0.011
    1UNL    C15   17   0.021  -0.173  -0.140
    1UNL     O1   18   0.025  -0.311  -0.176
    1UNL    C16   19  -0.112  -0.110  -0.195
    1UNL    C17   20  -0.168  -0.014  -0.092
    1UNL    C18   21  -0.054   0.083  -0.025
    1UNL    C19   22  -0.126   0.187   0.058
    1UNL     O2   23  -0.190   0.284  -0.021
    1UNL    C20   24   0.032   0.147  -0.136
    1UNL     O3   25   0.078   0.079  -0.229
    1UNL     O4   26   0.050   0.286  -0.122
    1UNL    C21   27   0.147   0.323  -0.216
    1UNL     H1   28  -0.538  -0.054   0.180
    1UNL     H2   29  -0.385  -0.119   0.244
    1UNL     H3   30  -0.477  -0.212   0.115
    1UNL     H4   31  -0.407   0.052   0.020
    1UNL     H5   32  -0.250  -0.273   0.144
    1UNL     H6   33  -0.190  -0.305  -0.020
    1UNL     H7   34  -0.109  -0.183   0.314
    1UNL     H8   35   0.067  -0.198   0.302
    1UNL     H9   36  -0.097   0.043   0.239
    1UNL    H10   37   0.082   0.030   0.277
    1UNL    H11   38   0.207   0.268   0.066
    1UNL    H12   39   0.433   0.273   0.086
    1UNL    H13   40   0.575   0.072   0.072
    1UNL    H14   41   0.460  -0.158   0.074
    1UNL    H15   42   0.235  -0.259  -0.024
    1UNL    H16   43   0.114  -0.124  -0.202
    1UNL    H17   44  -0.009  -0.366  -0.098
    1UNL    H18   45  -0.181  -0.196  -0.220
    1UNL    H19   46  -0.093  -0.054  -0.287
    1UNL    H20   47  -0.236   0.051  -0.139
    1UNL    H21   48  -0.199   0.140   0.120
    1UNL    H22   49  -0.049   0.226   0.138
    1UNL    H23   50  -0.125   0.318  -0.082
    1UNL    H24   51   0.104   0.393  -0.287
    1UNL    H25   52   0.186   0.239  -0.277
    1UNL    H26   53   0.233   0.370  -0.161
   0.00000   0.00000   0.00000   0.00000   0.00000   0.00000   0.00000   0.00000   0.00000
Generated with MDTraj, t= 29.0
 53
    1UNL     C1    1  -0.441  -0.116   0.162
    1UNL     C2    2  -0.351  -0.031   0.077
    1UNL     C3    3  -0.243  -0.081   0.017
    1UNL     C4    4  -0.194  -0.220   0.043
    1UNL     N1    5  -0.054  -0.226   0.098
    1UNL     C5    6  -0.042  -0.158   0.226
    1UNL     C6    7   0.007  -0.009   0.217
    1UNL     C7    8   0.048   0.005   0.061
    1UNL     C8    9   0.196   0.038   0.059
    1UNL     C9   10   0.259   0.158   0.074
    1UNL    C10   11   0.395   0.165   0.082
    1UNL    C11   12   0.478   0.053   0.075
    1UNL    C12   13   0.415  -0.070   0.062
    1UNL    C13   14   0.278  -0.079   0.054
    1UNL     N2   15   0.192  -0.192   0.049
    1UNL    C14   16   0.050  -0.155   0.018
    1UNL    C15   17   0.031  -0.177  -0.137
    1UNL     O1   18   0.054  -0.318  -0.152
    1UNL    C16   19  -0.097  -0.113  -0.193
    1UNL    C17   20  -0.161  -0.010  -0.090
    1UNL    C18   21  -0.049   0.089  -0.026
    1UNL    C19   22  -0.125   0.196   0.055
    1UNL     O2   23  -0.214   0.261  -0.032
    1UNL    C20   24   0.026   0.162  -0.140
    1UNL     O3   25   0.031   0.112  -0.251
    1UNL     O4   26   0.073   0.284  -0.108
    1UNL    C21   27   0.120   0.337  -0.229
    1UNL     H1   28  -0.534  -0.060   0.178
    1UNL     H2   29  -0.390  -0.134   0.262
    1UNL     H3   30  -0.461  -0.210   0.108
    1UNL     H4   31  -0.380   0.068   0.049
    1UNL     H5   32  -0.252  -0.277   0.126
    1UNL     H6   33  -0.209  -0.281  -0.048
    1UNL     H7   34  -0.140  -0.160   0.284
    1UNL     H8   35   0.027  -0.219   0.286
    1UNL     H9   36  -0.063   0.055   0.258
    1UNL    H10   37   0.101   0.004   0.275
    1UNL    H11   38   0.203   0.249   0.076
    1UNL    H12   39   0.448   0.261   0.072
    1UNL    H13   40   0.586   0.059   0.071
    1UNL    H14   41   0.471  -0.159   0.051
    1UNL    H15   42   0.224  -0.273  -0.004
    1UNL    H16   43   0.126  -0.127  -0.193
    1UNL    H17   44   0.014  -0.353  -0.069
    1UNL    H18   45  -0.179  -0.192  -0.214
    1UNL    H19   46  -0.070  -0.074  -0.290
    1UNL    H20   47  -0.206   0.057  -0.158
    1UNL    H21   48  -0.176   0.139   0.130
    1UNL    H22   49  -0.066   0.277   0.115
    1UNL    H23   50  -0.165   0.297  -0.109
    1UNL    H24   51   0.037   0.358  -0.300
    1UNL    H25   52   0.182   0.267  -0.288
    1UNL    H26   53   0.174   0.436  -0.225
   0.00000   0.00000   0.00000   0.00000   0.00000   0.00000   0.00000   0.00000   0.00000
Generated with MDTraj, t= 30.0
 53
    1UNL     C1    1  -0.427  -0.087   0.178
    1UNL     C2    2  -0.355  -0.036   0.062
    1UNL     C3    3  -0.244  -0.088   0.008
    1UNL     C4    4  -0.186  -0.224   0.064
    1UNL     N1    5  -0.049  -0.220   0.113
    1UNL     C5    6  -0.023  -0.149   0.236
    1UNL     C6    7  -0.001   0.001   0.208
    1UNL     C7    8   0.052  -0.002   0.059
    1UNL     C8    9   0.199   0.028   0.050
    1UNL     C9   10   0.260   0.155   0.058
    1UNL    C10   11   0.396   0.158   0.065
    1UNL    C11   12   0.468   0.038   0.075
    1UNL    C12   13   0.410  -0.083   0.077
    1UNL    C13   14   0.273  -0.085   0.069
    1UNL     N2   15   0.187  -0.203   0.062
    1UNL    C14   16   0.057  -0.160   0.020
    1UNL    C15   17   0.038  -0.181  -0.136
    1UNL     O1   18   0.070  -0.313  -0.175
    1UNL    C16   19  -0.091  -0.114  -0.199
    1UNL    C17   20  -0.158  -0.018  -0.093
    1UNL    C18   21  -0.051   0.083  -0.042
    1UNL    C19   22  -0.140   0.189   0.043
    1UNL     O2   23  -0.218   0.264  -0.049
    1UNL    C20   24   0.015   0.166  -0.141
    1UNL     O3   25   0.028   0.126  -0.253
    1UNL     O4   26   0.057   0.289  -0.094
    1UNL    C21   27   0.117   0.353  -0.197
    1UNL     H1   28  -0.482  -0.011   0.235
    1UNL     H2   29  -0.355  -0.127   0.259
    1UNL     H3   30  -0.501  -0.163   0.155
    1UNL     H4   31  -0.395   0.046   0.001
    1UNL     H5   32  -0.255  -0.261   0.149
    1UNL     H6   33  -0.190  -0.302  -0.014
    1UNL     H7   34  -0.107  -0.167   0.306
    1UNL     H8   35   0.066  -0.193   0.285
    1UNL     H9   36  -0.083   0.064   0.216
    1UNL    H10   37   0.074   0.045   0.274
    1UNL    H11   38   0.188   0.236   0.060
    1UNL    H12   39   0.453   0.249   0.051
    1UNL    H13   40   0.574   0.048   0.063
    1UNL    H14   41   0.475  -0.169   0.067
    1UNL    H15   42   0.219  -0.293   0.026
    1UNL    H16   43   0.133  -0.127  -0.186
    1UNL    H17   44  -0.003  -0.372  -0.154
    1UNL    H18   45  -0.170  -0.194  -0.223
    1UNL    H19   46  -0.075  -0.068  -0.296
    1UNL    H20   47  -0.223   0.042  -0.150
    1UNL    H21   48  -0.214   0.162   0.120
    1UNL    H22   49  -0.063   0.253   0.100
    1UNL    H23   50  -0.153   0.311  -0.111
    1UNL    H24   51   0.083   0.322  -0.295
    1UNL    H25   52   0.226   0.340  -0.199
    1UNL    H26   53   0.073   0.456  -0.194
   0.00000   0.00000   0.00000   0.00000   0.00000   0.00000   0.00000   0.00000   0.00000
Generated with MDTraj, t= 31.0
 53
    1UNL     C1    1  -0.439  -0.090   0.170
    1UNL     C2    2  -0.354  -0.035   0.059
    1UNL     C3    3  -0.241  -0.087   0.010
    1UNL     C4    4  -0.189  -0.228   0.042
    1UNL     N1    5  -0.049  -0.222   0.100
    1UNL     C5    6  -0.047  -0.151   0.233
    1UNL     C6    7   0.009  -0.013   0.209
    1UNL     C7    8   0.045  -0.003   0.056
    1UNL     C8    9   0.195   0.039   0.053
    1UNL     C9   10   0.258   0.167   0.062
    1UNL    C10   11   0.392   0.173   0.059
    1UNL    C11   12   0.470   0.059   0.060
    1UNL    C12   13   0.415  -0.071   0.062
    1UNL    C13   14   0.274  -0.080   0.065
    1UNL     N2   15   0.192  -0.191   0.054
    1UNL    C14   16   0.059  -0.150   0.018
    1UNL    C15   17   0.046  -0.181  -0.134
    1UNL     O1   18   0.036  -0.319  -0.165
    1UNL    C16   19  -0.085  -0.109  -0.194
    1UNL    C17   20  -0.167  -0.015  -0.094
    1UNL    C18   21  -0.055   0.084  -0.028
    1UNL    C19   22  -0.122   0.192   0.057
    1UNL     O2   23  -0.220   0.262  -0.012
    1UNL    C20   24   0.024   0.153  -0.139
    1UNL     O3   25   0.080   0.090  -0.226
    1UNL     O4   26   0.037   0.286  -0.115
    1UNL    C21   27   0.125   0.337  -0.210
    1UNL     H1   28  -0.541  -0.055   0.167
    1UNL     H2   29  -0.398  -0.053   0.269
    1UNL     H3   30  -0.445  -0.201   0.164
    1UNL     H4   31  -0.384   0.057   0.015
    1UNL     H5   32  -0.261  -0.280   0.111
    1UNL     H6   33  -0.191  -0.299  -0.044
    1UNL     H7   34  -0.147  -0.140   0.278
    1UNL     H8   35   0.012  -0.212   0.305
    1UNL     H9   36  -0.058   0.073   0.244
    1UNL    H10   37   0.095   0.009   0.271
    1UNL    H11   38   0.198   0.256   0.078
    1UNL    H12   39   0.440   0.268   0.071
    1UNL    H13   40   0.578   0.065   0.059
    1UNL    H14   41   0.477  -0.162   0.052
    1UNL    H15   42   0.218  -0.279   0.008
    1UNL    H16   43   0.140  -0.140  -0.193
    1UNL    H17   44  -0.014  -0.361  -0.088
    1UNL    H18   45  -0.156  -0.183  -0.239
    1UNL    H19   46  -0.070  -0.041  -0.279
    1UNL    H20   47  -0.229   0.054  -0.147
    1UNL    H21   48  -0.193   0.144   0.134
    1UNL    H22   49  -0.057   0.272   0.107
    1UNL    H23   50  -0.176   0.317  -0.076
    1UNL    H24   51   0.066   0.364  -0.295
    1UNL    H25   52   0.194   0.260  -0.241
    1UNL    H26   53   0.160   0.440  -0.184
   0.00000   0.00000   0.00000   0.00000   0.00000   0.00000   0.00000   0.00000   0.00000
Generated with MDTraj, t= 32.0
 53
    1UNL     C1    1  -0.460  -0.124   0.137
    1UNL     C2    2  -0.352  -0.047   0.055
    1UNL     C3    3  -0.233  -0.086   0.013
    1UNL     C4    4  -0.186  -0.222   0.048
    1UNL     N1    5  -0.045  -0.232   0.096
    1UNL     C5    6  -0.038  -0.173   0.235
    1UNL     C6    7   0.002  -0.024   0.222
    1UNL     C7    8   0.048  -0.001   0.078
    1UNL     C8    9   0.188   0.040   0.077
    1UNL     C9   10   0.247   0.164   0.084
    1UNL    C10   11   0.385   0.174   0.064
    1UNL    C11   12   0.457   0.059   0.039
    1UNL    C12   13   0.407  -0.070   0.033
    1UNL    C13   14   0.272  -0.076   0.054
    1UNL     N2   15   0.195  -0.195   0.045
    1UNL    C14   16   0.053  -0.152   0.019
    1UNL    C15   17   0.034  -0.177  -0.129
    1UNL     O1   18   0.008  -0.319  -0.145
    1UNL    C16   19  -0.084  -0.092  -0.189
    1UNL    C17   20  -0.156   0.002  -0.086
    1UNL    C18   21  -0.046   0.091  -0.014
    1UNL    C19   22  -0.109   0.213   0.061
    1UNL     O2   23  -0.200   0.282  -0.014
    1UNL    C20   24   0.048   0.156  -0.126
    1UNL     O3   25   0.132   0.091  -0.185
    1UNL     O4   26   0.019   0.290  -0.148
    1UNL    C21   27   0.100   0.330  -0.255
    1UNL     H1   28  -0.536  -0.052   0.169
    1UNL     H2   29  -0.419  -0.160   0.233
    1UNL     H3   30  -0.512  -0.198   0.070
    1UNL     H4   31  -0.387   0.048   0.012
    1UNL     H5   32  -0.247  -0.280   0.119
    1UNL     H6   33  -0.208  -0.287  -0.041
    1UNL     H7   34  -0.129  -0.186   0.293
    1UNL     H8   35   0.049  -0.219   0.289
    1UNL     H9   36  -0.100   0.029   0.247
    1UNL    H10   37   0.076   0.018   0.289
    1UNL    H11   38   0.194   0.250   0.111
    1UNL    H12   39   0.435   0.269   0.087
    1UNL    H13   40   0.563   0.067   0.047
    1UNL    H14   41   0.471  -0.150   0.013
    1UNL    H15   42   0.221  -0.284   0.001
    1UNL    H16   43   0.126  -0.153  -0.196
    1UNL    H17   44   0.047  -0.376  -0.079
    1UNL    H18   45  -0.172  -0.146  -0.229
    1UNL    H19   46  -0.043  -0.032  -0.272
    1UNL    H20   47  -0.217   0.073  -0.135
    1UNL    H21   48  -0.167   0.181   0.158
    1UNL    H22   49  -0.034   0.293   0.089
    1UNL    H23   50  -0.154   0.307  -0.102
    1UNL    H24   51   0.051   0.305  -0.346
    1UNL    H25   52   0.192   0.274  -0.252
    1UNL    H26   53   0.100   0.441  -0.262
   0.00000   0.00000   0.00000   0.00000   0.00000   0.00000   0.00000   0.00000   0.00000
Generated with MDTraj, t= 33.0
 53
    1UNL     C1    1  -0.455  -0.117   0.132
    1UNL     C2    2  -0.357  -0.043   0.056
    1UNL     C3    3  -0.237  -0.086   0.025
    1UNL     C4    4  -0.183  -0.223   0.057
    1UNL     N1    5  -0.043  -0.226   0.094
    1UNL     C5    6  -0.030  -0.173   0.236
    1UNL     C6    7   0.006  -0.023   0.229
    1UNL     C7    8   0.049   0.001   0.082
    1UNL     C8    9   0.197   0.037   0.082
    1UNL     C9   10   0.256   0.161   0.096
    1UNL    C10   11   0.397   0.166   0.087
    1UNL    C11   12   0.468   0.052   0.062
    1UNL    C12   13   0.408  -0.071   0.047
    1UNL    C13   14   0.271  -0.080   0.054
    1UNL     N2   15   0.191  -0.188   0.032
    1UNL    C14   16   0.050  -0.151   0.010
    1UNL    C15   17   0.027  -0.164  -0.143
    1UNL     O1   18   0.019  -0.304  -0.172
    1UNL    C16   19  -0.095  -0.081  -0.189
    1UNL    C17   20  -0.155   0.003  -0.072
    1UNL    C18   21  -0.044   0.092  -0.015
    1UNL    C19   22  -0.109   0.211   0.071
    1UNL     O2   23  -0.205   0.281  -0.006
    1UNL    C20   24   0.035   0.149  -0.131
    1UNL     O3   25   0.128   0.089  -0.180
    1UNL     O4   26   0.002   0.275  -0.180
    1UNL    C21   27   0.091   0.312  -0.281
    1UNL     H1   28  -0.548  -0.060   0.157
    1UNL     H2   29  -0.420  -0.142   0.230
    1UNL     H3   30  -0.494  -0.204   0.071
    1UNL     H4   31  -0.385   0.051   0.014
    1UNL     H5   32  -0.248  -0.272   0.122
    1UNL     H6   33  -0.192  -0.283  -0.039
    1UNL     H7   34  -0.116  -0.184   0.297
    1UNL     H8   35   0.061  -0.221   0.285
    1UNL     H9   36  -0.073   0.046   0.251
    1UNL    H10   37   0.091  -0.010   0.299
    1UNL    H11   38   0.209   0.261   0.106
    1UNL    H12   39   0.450   0.257   0.102
    1UNL    H13   40   0.576   0.068   0.051
    1UNL    H14   41   0.473  -0.160   0.032
    1UNL    H15   42   0.228  -0.269  -0.017
    1UNL    H16   43   0.123  -0.135  -0.194
    1UNL    H17   44   0.014  -0.340  -0.078
    1UNL    H18   45  -0.166  -0.159  -0.212
    1UNL    H19   46  -0.074  -0.014  -0.277
    1UNL    H20   47  -0.227   0.069  -0.112
    1UNL    H21   48  -0.165   0.170   0.164
    1UNL    H22   49  -0.022   0.272   0.108
    1UNL    H23   50  -0.163   0.319  -0.084
    1UNL    H24   51   0.167   0.240  -0.307
    1UNL    H25   52   0.135   0.406  -0.249
    1UNL    H26   53   0.023   0.326  -0.370
   0.00000   0.00000   0.00000   0.00000   0.00000   0.00000   0.00000   0.00000   0.00000
Generated with MDTraj, t= 34.0
 53
    1UNL     C1    1  -0.437  -0.087   0.171
    1UNL     C2    2  -0.339  -0.030   0.074
    1UNL     C3    3  -0.231  -0.084   0.020
    1UNL     C4    4  -0.183  -0.227   0.051
    1UNL     N1    5  -0.043  -0.233   0.100
    1UNL     C5    6  -0.032  -0.168   0.232
    1UNL     C6    7  -0.000  -0.017   0.210
    1UNL     C7    8   0.053  -0.001   0.063
    1UNL     C8    9   0.205   0.039   0.078
    1UNL     C9   10   0.265   0.156   0.099
    1UNL    C10   11   0.399   0.153   0.110
    1UNL    C11   12   0.473   0.038   0.103
    1UNL    C12   13   0.412  -0.082   0.089
    1UNL    C13   14   0.271  -0.083   0.065
    1UNL     N2   15   0.193  -0.190   0.036
    1UNL    C14   16   0.047  -0.153   0.006
    1UNL    C15   17   0.033  -0.161  -0.153
    1UNL     O1   18   0.044  -0.294  -0.201
    1UNL    C16   19  -0.103  -0.094  -0.193
    1UNL    C17   20  -0.158  -0.001  -0.082
    1UNL    C18   21  -0.043   0.091  -0.019
    1UNL    C19   22  -0.114   0.194   0.068
    1UNL     O2   23  -0.203   0.277  -0.006
    1UNL    C20   24   0.029   0.158  -0.145
    1UNL     O3   25   0.114   0.095  -0.203
    1UNL     O4   26  -0.011   0.277  -0.181
    1UNL    C21   27   0.055   0.323  -0.297
    1UNL     H1   28  -0.540  -0.039   0.167
    1UNL     H2   29  -0.403  -0.070   0.270
    1UNL     H3   30  -0.456  -0.193   0.140
    1UNL     H4   31  -0.359   0.075   0.052
    1UNL     H5   32  -0.242  -0.260   0.130
    1UNL     H6   33  -0.210  -0.294  -0.035
    1UNL     H7   34  -0.124  -0.165   0.282
    1UNL     H8   35   0.046  -0.221   0.294
    1UNL     H9   36  -0.069   0.044   0.252
    1UNL    H10   37   0.094  -0.008   0.271
    1UNL    H11   38   0.207   0.245   0.091
    1UNL    H12   39   0.449   0.252   0.106
    1UNL    H13   40   0.579   0.041   0.093
    1UNL    H14   41   0.467  -0.169   0.084
    1UNL    H15   42   0.225  -0.273  -0.013
    1UNL    H16   43   0.121  -0.119  -0.198
    1UNL    H17   44  -0.010  -0.354  -0.144
    1UNL    H18   45  -0.169  -0.175  -0.207
    1UNL    H19   46  -0.081  -0.036  -0.288
    1UNL    H20   47  -0.231   0.052  -0.139
    1UNL    H21   48  -0.175   0.136   0.145
    1UNL    H22   49  -0.034   0.250   0.123
    1UNL    H23   50  -0.162   0.319  -0.085
    1UNL    H24   51   0.137   0.388  -0.268
    1UNL    H25   52  -0.025   0.376  -0.355
    1UNL    H26   53   0.098   0.242  -0.363
   0.00000   0.00000   0.00000   0.00000   0.00000   0.00000   0.00000   0.00000   0.00000
Generated with MDTraj, t= 35.0
 53
    1UNL     C1    1  -0.388  -0.078   0.209
    1UNL     C2    2  -0.321  -0.012   0.087
    1UNL     C3    3  -0.231  -0.075   0.014
    1UNL     C4    4  -0.191  -0.216   0.031
    1UNL     N1    5  -0.058  -0.229   0.081
    1UNL     C5    6  -0.032  -0.176   0.216
    1UNL     C6    7  -0.010  -0.024   0.202
    1UNL     C7    8   0.048  -0.002   0.061
    1UNL     C8    9   0.200   0.036   0.069
    1UNL     C9   10   0.262   0.157   0.097
    1UNL    C10   11   0.400   0.154   0.124
    1UNL    C11   12   0.466   0.029   0.118
    1UNL    C12   13   0.407  -0.089   0.099
    1UNL    C13   14   0.271  -0.086   0.065
    1UNL     N2   15   0.185  -0.194   0.045
    1UNL    C14   16   0.050  -0.155   0.006
    1UNL    C15   17   0.042  -0.170  -0.151
    1UNL     O1   18   0.044  -0.311  -0.176
    1UNL    C16   19  -0.093  -0.097  -0.198
    1UNL    C17   20  -0.157   0.002  -0.098
    1UNL    C18   21  -0.041   0.087  -0.033
    1UNL    C19   22  -0.107   0.196   0.049
    1UNL     O2   23  -0.222   0.256  -0.005
    1UNL    C20   24   0.032   0.160  -0.146
    1UNL     O3   25   0.124   0.107  -0.207
    1UNL     O4   26  -0.024   0.285  -0.183
    1UNL    C21   27   0.039   0.340  -0.298
    1UNL     H1   28  -0.430  -0.003   0.279
    1UNL     H2   29  -0.314  -0.129   0.269
    1UNL     H3   30  -0.470  -0.141   0.171
    1UNL     H4   31  -0.335   0.094   0.080
    1UNL     H5   32  -0.252  -0.266   0.100
    1UNL     H6   33  -0.199  -0.276  -0.060
    1UNL     H7   34  -0.121  -0.201   0.265
    1UNL     H8   35   0.052  -0.220   0.277
    1UNL     H9   36  -0.109   0.024   0.231
    1UNL    H10   37   0.060   0.013   0.278
    1UNL    H11   38   0.201   0.246   0.101
    1UNL    H12   39   0.451   0.242   0.147
    1UNL    H13   40   0.573   0.048   0.134
    1UNL    H14   41   0.468  -0.184   0.100
    1UNL    H15   42   0.213  -0.261  -0.027
    1UNL    H16   43   0.123  -0.124  -0.194
    1UNL    H17   44  -0.019  -0.365  -0.125
    1UNL    H18   45  -0.163  -0.170  -0.224
    1UNL    H19   46  -0.055  -0.044  -0.291
    1UNL    H20   47  -0.230   0.053  -0.155
    1UNL    H21   48  -0.124   0.160   0.155
    1UNL    H22   49  -0.040   0.284   0.065
    1UNL    H23   50  -0.200   0.292  -0.096
    1UNL    H24   51   0.025   0.447  -0.287
    1UNL    H25   52  -0.012   0.296  -0.386
    1UNL    H26   53   0.149   0.323  -0.293
   0.00000   0.00000   0.00000   0.00000   0.00000   0.00000   0.00000   0.00000   0.00000
Generated with MDTraj, t= 36.0
 53
    1UNL     C1    1  -0.396  -0.084   0.210
    1UNL     C2    2  -0.332  -0.020   0.093
    1UNL     C3    3  -0.241  -0.073   0.014
    1UNL     C4    4  -0.189  -0.213   0.039
    1UNL     N1    5  -0.047  -0.237   0.078
    1UNL     C5    6  -0.016  -0.187   0.222
    1UNL     C6    7  -0.004  -0.034   0.211
    1UNL     C7    8   0.046  -0.008   0.071
    1UNL     C8    9   0.191   0.034   0.075
    1UNL     C9   10   0.249   0.156   0.100
    1UNL    C10   11   0.386   0.162   0.120
    1UNL    C11   12   0.468   0.047   0.114
    1UNL    C12   13   0.410  -0.072   0.072
    1UNL    C13   14   0.272  -0.080   0.056
    1UNL     N2   15   0.193  -0.190   0.024
    1UNL    C14   16   0.053  -0.152   0.005
    1UNL    C15   17   0.032  -0.165  -0.154
    1UNL     O1   18   0.025  -0.298  -0.188
    1UNL    C16   19  -0.098  -0.079  -0.198
    1UNL    C17   20  -0.164   0.011  -0.091
    1UNL    C18   21  -0.050   0.090  -0.022
    1UNL    C19   22  -0.120   0.208   0.051
    1UNL     O2   23  -0.212   0.269  -0.027
    1UNL    C20   24   0.033   0.149  -0.137
    1UNL     O3   25   0.133   0.092  -0.172
    1UNL     O4   26  -0.014   0.259  -0.196
    1UNL    C21   27   0.077   0.316  -0.292
    1UNL     H1   28  -0.486  -0.029   0.245
    1UNL     H2   29  -0.334  -0.080   0.305
    1UNL     H3   30  -0.438  -0.181   0.190
    1UNL     H4   31  -0.361   0.084   0.082
    1UNL     H5   32  -0.252  -0.268   0.107
    1UNL     H6   33  -0.201  -0.263  -0.052
    1UNL     H7   34  -0.070  -0.217   0.308
    1UNL     H8   35   0.081  -0.239   0.246
    1UNL     H9   36  -0.109   0.015   0.231
    1UNL    H10   37   0.056   0.024   0.283
    1UNL    H11   38   0.192   0.246   0.121
    1UNL    H12   39   0.426   0.256   0.167
    1UNL    H13   40   0.570   0.056   0.138
    1UNL    H14   41   0.468  -0.158   0.048
    1UNL    H15   42   0.214  -0.269  -0.038
    1UNL    H16   43   0.114  -0.122  -0.192
    1UNL    H17   44  -0.027  -0.347  -0.118
    1UNL    H18   45  -0.154  -0.160  -0.232
    1UNL    H19   46  -0.078  -0.011  -0.285
    1UNL    H20   47  -0.236   0.080  -0.128
    1UNL    H21   48  -0.169   0.186   0.151
    1UNL    H22   49  -0.040   0.275   0.084
    1UNL    H23   50  -0.163   0.299  -0.104
    1UNL    H24   51   0.019   0.354  -0.372
    1UNL    H25   52   0.136   0.230  -0.323
    1UNL    H26   53   0.136   0.396  -0.248
   0.00000   0.00000   0.00000   0.00000   0.00000   0.00000   0.00000   0.00000   0.00000
Generated with MDTraj, t= 37.0
 53
    1UNL     C1    1  -0.438  -0.124   0.175
    1UNL     C2    2  -0.349  -0.042   0.086
    1UNL     C3    3  -0.238  -0.081   0.027
    1UNL     C4    4  -0.187  -0.220   0.046
    1UNL     N1    5  -0.046  -0.235   0.096
    1UNL     C5    6  -0.027  -0.174   0.239
    1UNL     C6    7  -0.021  -0.027   0.219
    1UNL     C7    8   0.041  -0.011   0.076
    1UNL     C8    9   0.187   0.028   0.088
    1UNL     C9   10   0.243   0.152   0.119
    1UNL    C10   11   0.381   0.173   0.120
    1UNL    C11   12   0.465   0.071   0.081
    1UNL    C12   13   0.417  -0.057   0.034
    1UNL    C13   14   0.274  -0.078   0.046
    1UNL     N2   15   0.191  -0.189   0.023
    1UNL    C14   16   0.049  -0.153   0.010
    1UNL    C15   17   0.021  -0.161  -0.148
    1UNL     O1   18   0.033  -0.294  -0.198
    1UNL    C16   19  -0.110  -0.079  -0.191
    1UNL    C17   20  -0.164   0.005  -0.076
    1UNL    C18   21  -0.049   0.090  -0.017
    1UNL    C19   22  -0.087   0.219   0.060
    1UNL     O2   23  -0.167   0.307  -0.011
    1UNL    C20   24   0.032   0.141  -0.140
    1UNL     O3   25   0.138   0.089  -0.167
    1UNL     O4   26  -0.006   0.252  -0.205
    1UNL    C21   27   0.090   0.297  -0.302
    1UNL     H1   28  -0.519  -0.060   0.210
    1UNL     H2   29  -0.388  -0.159   0.273
    1UNL     H3   30  -0.487  -0.203   0.121
    1UNL     H4   31  -0.395   0.050   0.055
    1UNL     H5   32  -0.250  -0.270   0.119
    1UNL     H6   33  -0.197  -0.268  -0.044
    1UNL     H7   34  -0.099  -0.202   0.310
    1UNL     H8   35   0.066  -0.215   0.285
    1UNL     H9   36  -0.119   0.023   0.230
    1UNL    H10   37   0.031   0.016   0.308
    1UNL    H11   38   0.182   0.220   0.171
    1UNL    H12   39   0.416   0.260   0.165
    1UNL    H13   40   0.574   0.080   0.079
    1UNL    H14   41   0.481  -0.122  -0.019
    1UNL    H15   42   0.212  -0.269  -0.037
    1UNL    H16   43   0.092  -0.119  -0.206
    1UNL    H17   44   0.012  -0.366  -0.139
    1UNL    H18   45  -0.187  -0.143  -0.228
    1UNL    H19   46  -0.079  -0.023  -0.281
    1UNL    H20   47  -0.234   0.082  -0.102
    1UNL    H21   48  -0.131   0.192   0.154
    1UNL    H22   49  -0.006   0.286   0.099
    1UNL    H23   50  -0.131   0.325  -0.105
    1UNL    H24   51   0.051   0.385  -0.347
    1UNL    H25   52   0.090   0.217  -0.374
    1UNL    H26   53   0.189   0.316  -0.263
   0.00000   0.00000   0.00000   0.00000   0.00000   0.00000   0.00000   0.00000   0.00000
Generated with MDTraj, t= 38.0
 53
    1UNL     C1    1  -0.450  -0.118   0.147
    1UNL     C2    2  -0.350  -0.032   0.071
    1UNL     C3    3  -0.240  -0.077   0.016
    1UNL     C4    4  -0.188  -0.218   0.037
    1UNL     N1    5  -0.052  -0.233   0.093
    1UNL     C5    6  -0.035  -0.186   0.229
    1UNL     C6    7  -0.007  -0.037   0.222
    1UNL     C7    8   0.052   0.001   0.079
    1UNL     C8    9   0.202   0.038   0.089
    1UNL     C9   10   0.265   0.162   0.107
    1UNL    C10   11   0.406   0.172   0.095
    1UNL    C11   12   0.477   0.054   0.071
    1UNL    C12   13   0.418  -0.072   0.055
    1UNL    C13   14   0.282  -0.074   0.064
    1UNL     N2   15   0.194  -0.187   0.033
    1UNL    C14   16   0.056  -0.151   0.013
    1UNL    C15   17   0.024  -0.161  -0.141
    1UNL     O1   18   0.016  -0.299  -0.183
    1UNL    C16   19  -0.099  -0.073  -0.188
    1UNL    C17   20  -0.160   0.012  -0.077
    1UNL    C18   21  -0.043   0.089  -0.008
    1UNL    C19   22  -0.105   0.208   0.075
    1UNL     O2   23  -0.200   0.286  -0.004
    1UNL    C20   24   0.037   0.157  -0.122
    1UNL     O3   25   0.140   0.101  -0.155
    1UNL     O4   26  -0.007   0.269  -0.197
    1UNL    C21   27   0.057   0.275  -0.323
    1UNL     H1   28  -0.540  -0.058   0.155
    1UNL     H2   29  -0.409  -0.140   0.250
    1UNL     H3   30  -0.467  -0.208   0.089
    1UNL     H4   31  -0.378   0.070   0.048
    1UNL     H5   32  -0.256  -0.254   0.115
    1UNL     H6   33  -0.195  -0.280  -0.046
    1UNL     H7   34  -0.116  -0.213   0.290
    1UNL     H8   35   0.060  -0.234   0.263
    1UNL     H9   36  -0.101   0.006   0.234
    1UNL    H10   37   0.057   0.003   0.306
    1UNL    H11   38   0.200   0.246   0.135
    1UNL    H12   39   0.455   0.271   0.104
    1UNL    H13   40   0.582   0.068   0.045
    1UNL    H14   41   0.479  -0.158   0.013
    1UNL    H15   42   0.220  -0.249  -0.044
    1UNL    H16   43   0.107  -0.126  -0.186
    1UNL    H17   44   0.049  -0.351  -0.102
    1UNL    H18   45  -0.177  -0.142  -0.229
    1UNL    H19   46  -0.072  -0.028  -0.286
    1UNL    H20   47  -0.221   0.088  -0.124
    1UNL    H21   48  -0.157   0.195   0.166
    1UNL    H22   49  -0.019   0.266   0.116
    1UNL    H23   50  -0.156   0.312  -0.087
    1UNL    H24   51   0.057   0.377  -0.361
    1UNL    H25   52  -0.002   0.211  -0.388
    1UNL    H26   53   0.161   0.239  -0.325
   0.00000   0.00000   0.00000   0.00000   0.00000   0.00000   0.00000   0.00000   0.00000
Generated with MDTraj, t= 39.0
 53
    1UNL     C1    1  -0.423  -0.088   0.153
    1UNL     C2    2  -0.339  -0.022   0.058
    1UNL     C3    3  -0.235  -0.075   0.004
    1UNL     C4    4  -0.193  -0.220   0.042
    1UNL     N1    5  -0.053  -0.227   0.104
    1UNL     C5    6  -0.038  -0.176   0.235
    1UNL     C6    7   0.014  -0.022   0.222
    1UNL     C7    8   0.054  -0.004   0.067
    1UNL     C8    9   0.203   0.036   0.073
    1UNL     C9   10   0.274   0.156   0.087
    1UNL    C10   11   0.407   0.155   0.094
    1UNL    C11   12   0.487   0.036   0.093
    1UNL    C12   13   0.414  -0.089   0.089
    1UNL    C13   14   0.276  -0.084   0.067
    1UNL     N2   15   0.187  -0.193   0.053
    1UNL    C14   16   0.049  -0.154   0.017
    1UNL    C15   17   0.041  -0.173  -0.141
    1UNL     O1   18   0.022  -0.306  -0.183
    1UNL    C16   19  -0.083  -0.090  -0.191
    1UNL    C17   20  -0.152   0.002  -0.089
    1UNL    C18   21  -0.046   0.088  -0.023
    1UNL    C19   22  -0.103   0.196   0.067
    1UNL     O2   23  -0.213   0.268  -0.001
    1UNL    C20   24   0.028   0.162  -0.134
    1UNL     O3   25   0.133   0.123  -0.182
    1UNL     O4   26  -0.043   0.265  -0.194
    1UNL    C21   27   0.027   0.336  -0.294
    1UNL     H1   28  -0.517  -0.034   0.166
    1UNL     H2   29  -0.377  -0.101   0.250
    1UNL     H3   30  -0.452  -0.191   0.119
    1UNL     H4   31  -0.370   0.077   0.028
    1UNL     H5   32  -0.261  -0.273   0.110
    1UNL     H6   33  -0.189  -0.277  -0.045
    1UNL     H7   34  -0.136  -0.171   0.275
    1UNL     H8   35   0.038  -0.244   0.283
    1UNL     H9   36  -0.057   0.050   0.259
    1UNL    H10   37   0.108  -0.007   0.280
    1UNL    H11   38   0.216   0.245   0.086
    1UNL    H12   39   0.457   0.248   0.085
    1UNL    H13   40   0.594   0.039   0.083
    1UNL    H14   41   0.459  -0.181   0.086
    1UNL    H15   42   0.223  -0.275   0.005
    1UNL    H16   43   0.130  -0.150  -0.185
    1UNL    H17   44   0.092  -0.363  -0.140
    1UNL    H18   45  -0.158  -0.170  -0.233
    1UNL    H19   46  -0.078  -0.039  -0.290
    1UNL    H20   47  -0.212   0.065  -0.153
    1UNL    H21   48  -0.130   0.157   0.157
    1UNL    H22   49  -0.021   0.265   0.096
    1UNL    H23   50  -0.176   0.296  -0.086
    1UNL    H24   51  -0.046   0.388  -0.359
    1UNL    H25   52   0.089   0.268  -0.355
    1UNL    H26   53   0.094   0.418  -0.259
   0.00000   0.00000   0.00000   0.00000   0.00000   0.00000   0.00000   0.00000   0.00000
Generated with MDTraj, t= 40.0
 53
    1UNL     C1    1  -0.406  -0.089   0.170
    1UNL     C2    2  -0.332  -0.027   0.060
    1UNL     C3    3  -0.232  -0.087  -0.001
    1UNL     C4    4  -0.187  -0.227   0.042
    1UNL     N1    5  -0.049  -0.218   0.106
    1UNL     C5    6  -0.048  -0.144   0.239
    1UNL     C6    7   0.027  -0.009   0.215
    1UNL     C7    8   0.055   0.003   0.063
    1UNL     C8    9   0.204   0.032   0.057
    1UNL     C9   10   0.276   0.153   0.070
    1UNL    C10   11   0.413   0.149   0.095
    1UNL    C11   12   0.479   0.024   0.106
    1UNL    C12   13   0.408  -0.093   0.085
    1UNL    C13   14   0.273  -0.089   0.052
    1UNL     N2   15   0.183  -0.197   0.053
    1UNL    C14   16   0.047  -0.154   0.016
    1UNL    C15   17   0.042  -0.176  -0.142
    1UNL     O1   18   0.036  -0.319  -0.167
    1UNL    C16   19  -0.081  -0.102  -0.204
    1UNL    C17   20  -0.150  -0.005  -0.104
    1UNL    C18   21  -0.047   0.089  -0.026
    1UNL    C19   22  -0.121   0.193   0.055
    1UNL     O2   23  -0.232   0.252  -0.010
    1UNL    C20   24   0.023   0.171  -0.134
    1UNL     O3   25   0.125   0.130  -0.181
    1UNL     O4   26  -0.036   0.281  -0.178
    1UNL    C21   27   0.040   0.353  -0.270
    1UNL     H1   28  -0.422  -0.018   0.251
    1UNL     H2   29  -0.368  -0.176   0.215
    1UNL     H3   30  -0.510  -0.124   0.141
    1UNL     H4   31  -0.364   0.072   0.033
    1UNL     H5   32  -0.244  -0.254   0.127
    1UNL     H6   33  -0.195  -0.309  -0.027
    1UNL     H7   34  -0.151  -0.138   0.268
    1UNL     H8   35   0.016  -0.200   0.311
    1UNL     H9   36  -0.030   0.090   0.250
    1UNL    H10   37   0.123  -0.007   0.271
    1UNL    H11   38   0.218   0.244   0.057
    1UNL    H12   39   0.470   0.237   0.121
    1UNL    H13   40   0.580   0.013   0.141
    1UNL    H14   41   0.448  -0.193   0.118
    1UNL    H15   42   0.201  -0.286   0.006
    1UNL    H16   43   0.131  -0.142  -0.179
    1UNL    H17   44  -0.042  -0.363  -0.133
    1UNL    H18   45  -0.176  -0.166  -0.238
    1UNL    H19   46  -0.061  -0.063  -0.307
    1UNL    H20   47  -0.213   0.059  -0.166
    1UNL    H21   48  -0.164   0.144   0.138
    1UNL    H22   49  -0.056   0.267   0.099
    1UNL    H23   50  -0.208   0.298  -0.098
    1UNL    H24   51  -0.022   0.379  -0.359
    1UNL    H25   52   0.126   0.293  -0.304
    1UNL    H26   53   0.080   0.449  -0.234
   0.00000   0.00000   0.00000   0.00000   0.00000   0.00000   0.00000   0.00000   0.00000
Generated with MDTraj, t= 41.0
 53
    1UNL     C1    1  -0.437  -0.081   0.157
    1UNL     C2    2  -0.345  -0.017   0.062
    1UNL     C3    3  -0.240  -0.083   0.012
    1UNL     C4    4  -0.200  -0.222   0.050
    1UNL     N1    5  -0.054  -0.227   0.095
    1UNL     C5    6  -0.046  -0.165   0.228
    1UNL     C6    7   0.012  -0.031   0.221
    1UNL     C7    8   0.050  -0.004   0.076
    1UNL     C8    9   0.201   0.035   0.071
    1UNL     C9   10   0.264   0.161   0.070
    1UNL    C10   11   0.410   0.160   0.075
    1UNL    C11   12   0.480   0.038   0.072
    1UNL    C12   13   0.417  -0.083   0.068
    1UNL    C13   14   0.279  -0.082   0.067
    1UNL     N2   15   0.192  -0.187   0.054
    1UNL    C14   16   0.055  -0.153   0.018
    1UNL    C15   17   0.044  -0.164  -0.137
    1UNL     O1   18   0.067  -0.307  -0.173
    1UNL    C16   19  -0.091  -0.109  -0.186
    1UNL    C17   20  -0.154  -0.007  -0.093
    1UNL    C18   21  -0.049   0.085  -0.020
    1UNL    C19   22  -0.128   0.194   0.056
    1UNL     O2   23  -0.222   0.257  -0.023
    1UNL    C20   24   0.022   0.156  -0.131
    1UNL     O3   25   0.099   0.098  -0.205
    1UNL     O4   26  -0.001   0.294  -0.150
    1UNL    C21   27   0.067   0.339  -0.261
    1UNL     H1   28  -0.488  -0.002   0.213
    1UNL     H2   29  -0.387  -0.151   0.221
    1UNL     H3   30  -0.514  -0.138   0.102
    1UNL     H4   31  -0.377   0.081   0.027
    1UNL     H5   32  -0.262  -0.272   0.122
    1UNL     H6   33  -0.206  -0.279  -0.045
    1UNL     H7   34  -0.142  -0.161   0.277
    1UNL     H8   35   0.020  -0.238   0.283
    1UNL     H9   36  -0.051   0.047   0.272
    1UNL    H10   37   0.102  -0.012   0.285
    1UNL    H11   38   0.211   0.252   0.057
    1UNL    H12   39   0.463   0.254   0.093
    1UNL    H13   40   0.588   0.043   0.087
    1UNL    H14   41   0.471  -0.175   0.077
    1UNL    H15   42   0.230  -0.280   0.042
    1UNL    H16   43   0.121  -0.109  -0.176
    1UNL    H17   44   0.031  -0.352  -0.093
    1UNL    H18   45  -0.169  -0.195  -0.205
    1UNL    H19   46  -0.093  -0.058  -0.287
    1UNL    H20   47  -0.220   0.059  -0.146
    1UNL    H21   48  -0.176   0.163   0.142
    1UNL    H22   49  -0.055   0.268   0.086
    1UNL    H23   50  -0.182   0.300  -0.098
    1UNL    H24   51   0.018   0.430  -0.297
    1UNL    H25   52   0.065   0.256  -0.332
    1UNL    H26   53   0.170   0.361  -0.239
   0.00000   0.00000   0.00000   0.00000   0.00000   0.00000   0.00000   0.00000   0.00000
Generated with MDTraj, t= 42.0
 53
    1UNL     C1    1  -0.448  -0.112   0.148
    1UNL     C2    2  -0.360  -0.053   0.045
    1UNL     C3    3  -0.236  -0.087   0.015
    1UNL     C4    4  -0.184  -0.218   0.066
    1UNL     N1    5  -0.047  -0.234   0.111
    1UNL     C5    6  -0.035  -0.166   0.248
    1UNL     C6    7  -0.009  -0.020   0.216
    1UNL     C7    8   0.045  -0.010   0.071
    1UNL     C8    9   0.193   0.042   0.070
    1UNL     C9   10   0.242   0.167   0.070
    1UNL    C10   11   0.378   0.183   0.054
    1UNL    C11   12   0.457   0.070   0.040
    1UNL    C12   13   0.405  -0.059   0.049
    1UNL    C13   14   0.269  -0.079   0.072
    1UNL     N2   15   0.193  -0.198   0.058
    1UNL    C14   16   0.049  -0.158   0.022
    1UNL    C15   17   0.032  -0.173  -0.131
    1UNL     O1   18   0.043  -0.312  -0.182
    1UNL    C16   19  -0.098  -0.110  -0.186
    1UNL    C17   20  -0.157  -0.010  -0.090
    1UNL    C18   21  -0.053   0.086  -0.025
    1UNL    C19   22  -0.127   0.195   0.065
    1UNL     O2   23  -0.190   0.289  -0.015
    1UNL    C20   24   0.037   0.155  -0.134
    1UNL     O3   25   0.091   0.088  -0.219
    1UNL     O4   26   0.055   0.290  -0.127
    1UNL    C21   27   0.128   0.334  -0.239
    1UNL     H1   28  -0.552  -0.094   0.123
    1UNL     H2   29  -0.427  -0.072   0.249
    1UNL     H3   30  -0.439  -0.219   0.159
    1UNL     H4   31  -0.404   0.030  -0.005
    1UNL     H5   32  -0.247  -0.254   0.142
    1UNL     H6   33  -0.198  -0.284  -0.023
    1UNL     H7   34  -0.126  -0.179   0.304
    1UNL     H8   35   0.049  -0.210   0.309
    1UNL     H9   36  -0.090   0.041   0.231
    1UNL    H10   37   0.053   0.033   0.295
    1UNL    H11   38   0.174   0.251   0.078
    1UNL    H12   39   0.418   0.280   0.040
    1UNL    H13   40   0.563   0.073   0.024
    1UNL    H14   41   0.459  -0.147   0.021
    1UNL    H15   42   0.221  -0.286   0.018
    1UNL    H16   43   0.116  -0.132  -0.174
    1UNL    H17   44  -0.014  -0.370  -0.123
    1UNL    H18   45  -0.172  -0.190  -0.214
    1UNL    H19   46  -0.086  -0.053  -0.289
    1UNL    H20   47  -0.228   0.059  -0.129
    1UNL    H21   48  -0.195   0.144   0.121
    1UNL    H22   49  -0.059   0.249   0.131
    1UNL    H23   50  -0.121   0.334  -0.075
    1UNL    H24   51   0.213   0.393  -0.205
    1UNL    H25   52   0.064   0.389  -0.305
    1UNL    H26   53   0.162   0.250  -0.296
   0.00000   0.00000   0.00000   0.00000   0.00000   0.00000   0.00000   0.00000   0.00000
Generated with MDTraj, t= 43.0
 53
    1UNL     C1    1  -0.457  -0.140   0.135
    1UNL     C2    2  -0.364  -0.051   0.063
    1UNL     C3    3  -0.239  -0.085   0.029
    1UNL     C4    4  -0.180  -0.225   0.055
    1UNL     N1    5  -0.042  -0.225   0.102
    1UNL     C5    6  -0.029  -0.159   0.241
    1UNL     C6    7  -0.007  -0.005   0.218
    1UNL     C7    8   0.042   0.009   0.061
    1UNL     C8    9   0.192   0.050   0.055
    1UNL     C9   10   0.245   0.173   0.083
    1UNL    C10   11   0.386   0.183   0.068
    1UNL    C11   12   0.465   0.072   0.039
    1UNL    C12   13   0.410  -0.049   0.024
    1UNL    C13   14   0.273  -0.063   0.044
    1UNL     N2   15   0.200  -0.179   0.047
    1UNL    C14   16   0.053  -0.150   0.022
    1UNL    C15   17   0.023  -0.181  -0.130
    1UNL     O1   18   0.014  -0.326  -0.147
    1UNL    C16   19  -0.106  -0.113  -0.183
    1UNL    C17   20  -0.168  -0.010  -0.083
    1UNL    C18   21  -0.055   0.084  -0.027
    1UNL    C19   22  -0.134   0.200   0.046
    1UNL     O2   23  -0.204   0.284  -0.044
    1UNL    C20   24   0.030   0.150  -0.136
    1UNL     O3   25   0.069   0.090  -0.234
    1UNL     O4   26   0.073   0.273  -0.099
    1UNL    C21   27   0.175   0.311  -0.189
    1UNL     H1   28  -0.540  -0.088   0.180
    1UNL     H2   29  -0.403  -0.199   0.214
    1UNL     H3   30  -0.499  -0.213   0.071
    1UNL     H4   31  -0.405   0.042   0.023
    1UNL     H5   32  -0.236  -0.260   0.140
    1UNL     H6   33  -0.184  -0.291  -0.035
    1UNL     H7   34  -0.123  -0.173   0.294
    1UNL     H8   35   0.055  -0.203   0.302
    1UNL     H9   36  -0.097   0.040   0.244
    1UNL    H10   37   0.056   0.039   0.299
    1UNL    H11   38   0.186   0.260   0.117
    1UNL    H12   39   0.433   0.284   0.077
    1UNL    H13   40   0.570   0.093   0.018
    1UNL    H14   41   0.470  -0.135  -0.014
    1UNL    H15   42   0.238  -0.259  -0.003
    1UNL    H16   43   0.111  -0.154  -0.177
    1UNL    H17   44   0.048  -0.366  -0.066
    1UNL    H18   45  -0.183  -0.179  -0.223
    1UNL    H19   46  -0.059  -0.061  -0.283
    1UNL    H20   47  -0.245   0.046  -0.131
    1UNL    H21   48  -0.214   0.168   0.104
    1UNL    H22   49  -0.061   0.248   0.112
    1UNL    H23   50  -0.139   0.325  -0.103
    1UNL    H24   51   0.260   0.245  -0.166
    1UNL    H25   52   0.213   0.412  -0.173
    1UNL    H26   53   0.139   0.294  -0.290
   0.00000   0.00000   0.00000   0.00000   0.00000   0.00000   0.00000   0.00000   0.00000
Generated with MDTraj, t= 44.0
 53
    1UNL     C1    1  -0.443  -0.119   0.166
    1UNL     C2    2  -0.360  -0.053   0.059
    1UNL     C3    3  -0.239  -0.092   0.019
    1UNL     C4    4  -0.184  -0.224   0.055
    1UNL     N1    5  -0.039  -0.228   0.109
    1UNL     C5    6  -0.023  -0.158   0.232
    1UNL     C6    7  -0.001  -0.004   0.212
    1UNL     C7    8   0.047   0.006   0.063
    1UNL     C8    9   0.194   0.048   0.054
    1UNL     C9   10   0.250   0.168   0.085
    1UNL    C10   11   0.388   0.179   0.090
    1UNL    C11   12   0.467   0.067   0.073
    1UNL    C12   13   0.411  -0.053   0.047
    1UNL    C13   14   0.272  -0.067   0.045
    1UNL     N2   15   0.202  -0.182   0.046
    1UNL    C14   16   0.056  -0.150   0.011
    1UNL    C15   17   0.031  -0.179  -0.134
    1UNL     O1   18   0.012  -0.316  -0.150
    1UNL    C16   19  -0.103  -0.110  -0.189
    1UNL    C17   20  -0.159  -0.007  -0.085
    1UNL    C18   21  -0.053   0.084  -0.034
    1UNL    C19   22  -0.133   0.199   0.041
    1UNL     O2   23  -0.226   0.267  -0.046
    1UNL    C20   24   0.026   0.148  -0.145
    1UNL     O3   25   0.036   0.105  -0.260
    1UNL     O4   26   0.091   0.266  -0.099
    1UNL    C21   27   0.160   0.322  -0.207
    1UNL     H1   28  -0.534  -0.062   0.181
    1UNL     H2   29  -0.389  -0.128   0.264
    1UNL     H3   30  -0.468  -0.217   0.137
    1UNL     H4   31  -0.396   0.040   0.022
    1UNL     H5   32  -0.235  -0.278   0.133
    1UNL     H6   33  -0.184  -0.291  -0.033
    1UNL     H7   34  -0.121  -0.161   0.282
    1UNL     H8   35   0.059  -0.207   0.291
    1UNL     H9   36  -0.093   0.051   0.254
    1UNL    H10   37   0.073   0.029   0.285
    1UNL    H11   38   0.189   0.247   0.113
    1UNL    H12   39   0.425   0.273   0.110
    1UNL    H13   40   0.573   0.078   0.083
    1UNL    H14   41   0.467  -0.138   0.031
    1UNL    H15   42   0.237  -0.272   0.015
    1UNL    H16   43   0.118  -0.155  -0.182
    1UNL    H17   44   0.065  -0.368  -0.089
    1UNL    H18   45  -0.161  -0.202  -0.207
    1UNL    H19   46  -0.099  -0.059  -0.292
    1UNL    H20   47  -0.227   0.055  -0.135
    1UNL    H21   48  -0.181   0.148   0.121
    1UNL    H22   49  -0.066   0.278   0.079
    1UNL    H23   50  -0.173   0.298  -0.120
    1UNL    H24   51   0.131   0.266  -0.299
    1UNL    H25   52   0.267   0.296  -0.188
    1UNL    H26   53   0.131   0.428  -0.210
   0.00000   0.00000   0.00000   0.00000   0.00000   0.00000   0.00000   0.00000   0.00000
Generated with MDTraj, t= 45.0
 53
    1UNL     C1    1  -0.413  -0.076   0.192
    1UNL     C2    2  -0.343  -0.033   0.069
    1UNL     C3    3  -0.234  -0.094   0.018
    1UNL     C4    4  -0.180  -0.232   0.063
    1UNL     N1    5  -0.034  -0.236   0.104
    1UNL     C5    6  -0.027  -0.163   0.236
    1UNL     C6    7  -0.002  -0.016   0.206
    1UNL     C7    8   0.049  -0.008   0.052
    1UNL     C8    9   0.191   0.036   0.058
    1UNL     C9   10   0.248   0.159   0.071
    1UNL    C10   11   0.381   0.170   0.098
    1UNL    C11   12   0.463   0.059   0.108
    1UNL    C12   13   0.408  -0.069   0.092
    1UNL    C13   14   0.268  -0.083   0.072
    1UNL     N2   15   0.193  -0.196   0.054
    1UNL    C14   16   0.054  -0.159   0.013
    1UNL    C15   17   0.042  -0.176  -0.147
    1UNL     O1   18   0.052  -0.311  -0.181
    1UNL    C16   19  -0.093  -0.112  -0.197
    1UNL    C17   20  -0.164  -0.019  -0.091
    1UNL    C18   21  -0.056   0.082  -0.035
    1UNL    C19   22  -0.128   0.195   0.042
    1UNL     O2   23  -0.206   0.270  -0.041
    1UNL    C20   24   0.015   0.162  -0.157
    1UNL     O3   25   0.018   0.111  -0.268
    1UNL     O4   26   0.062   0.283  -0.128
    1UNL    C21   27   0.117   0.347  -0.235
    1UNL     H1   28  -0.487  -0.005   0.229
    1UNL     H2   29  -0.346  -0.097   0.275
    1UNL     H3   30  -0.467  -0.168   0.176
    1UNL     H4   31  -0.367   0.065   0.028
    1UNL     H5   32  -0.240  -0.279   0.142
    1UNL     H6   33  -0.170  -0.312  -0.013
    1UNL     H7   34  -0.116  -0.182   0.301
    1UNL     H8   35   0.068  -0.192   0.288
    1UNL     H9   36  -0.099   0.043   0.237
    1UNL    H10   37   0.072   0.017   0.278
    1UNL    H11   38   0.180   0.247   0.064
    1UNL    H12   39   0.428   0.271   0.111
    1UNL    H13   40   0.566   0.074   0.140
    1UNL    H14   41   0.477  -0.155   0.110
    1UNL    H15   42   0.226  -0.284   0.014
    1UNL    H16   43   0.118  -0.124  -0.189
    1UNL    H17   44   0.007  -0.369  -0.112
    1UNL    H18   45  -0.170  -0.192  -0.216
    1UNL    H19   46  -0.070  -0.066  -0.286
    1UNL    H20   47  -0.243   0.028  -0.142
    1UNL    H21   48  -0.203   0.153   0.110
    1UNL    H22   49  -0.054   0.253   0.100
    1UNL    H23   50  -0.155   0.322  -0.113
    1UNL    H24   51   0.063   0.443  -0.257
    1UNL    H25   52   0.103   0.275  -0.319
    1UNL    H26   53   0.219   0.372  -0.203
   0.00000   0.00000   0.00000   0.00000   0.00000   0.00000   0.00000   0.00000   0.00000
Generated with MDTraj, t= 46.0
 53
    1UNL     C1    1  -0.411  -0.077   0.207
    1UNL     C2    2  -0.334  -0.026   0.085
    1UNL     C3    3  -0.239  -0.094   0.018
    1UNL     C4    4  -0.196  -0.230   0.053
    1UNL     N1    5  -0.047  -0.228   0.091
    1UNL     C5    6  -0.042  -0.163   0.230
    1UNL     C6    7  -0.002  -0.015   0.203
    1UNL     C7    8   0.037   0.003   0.059
    1UNL     C8    9   0.193   0.040   0.060
    1UNL     C9   10   0.252   0.169   0.078
    1UNL    C10   11   0.389   0.168   0.102
    1UNL    C11   12   0.463   0.049   0.105
    1UNL    C12   13   0.408  -0.078   0.092
    1UNL    C13   14   0.274  -0.076   0.068
    1UNL     N2   15   0.189  -0.187   0.044
    1UNL    C14   16   0.051  -0.150   0.009
    1UNL    C15   17   0.041  -0.168  -0.142
    1UNL     O1   18   0.080  -0.295  -0.182
    1UNL    C16   19  -0.099  -0.116  -0.203
    1UNL    C17   20  -0.162  -0.023  -0.097
    1UNL    C18   21  -0.057   0.081  -0.038
    1UNL    C19   22  -0.125   0.194   0.042
    1UNL     O2   23  -0.207   0.272  -0.028
    1UNL    C20   24   0.024   0.144  -0.149
    1UNL     O3   25   0.065   0.075  -0.244
    1UNL     O4   26   0.041   0.285  -0.136
    1UNL    C21   27   0.088   0.341  -0.250
    1UNL     H1   28  -0.475   0.004   0.243
    1UNL     H2   29  -0.354  -0.116   0.286
    1UNL     H3   30  -0.480  -0.159   0.177
    1UNL     H4   31  -0.349   0.067   0.037
    1UNL     H5   32  -0.252  -0.275   0.136
    1UNL     H6   33  -0.209  -0.289  -0.038
    1UNL     H7   34  -0.133  -0.176   0.295
    1UNL     H8   35   0.043  -0.212   0.279
    1UNL     H9   36  -0.078   0.056   0.229
    1UNL    H10   37   0.083   0.007   0.271
    1UNL    H11   38   0.201   0.258   0.052
    1UNL    H12   39   0.435   0.262   0.115
    1UNL    H13   40   0.568   0.069   0.121
    1UNL    H14   41   0.468  -0.161   0.113
    1UNL    H15   42   0.215  -0.265  -0.017
    1UNL    H16   43   0.109  -0.105  -0.181
    1UNL    H17   44   0.031  -0.372  -0.138
    1UNL    H18   45  -0.159  -0.205  -0.229
    1UNL    H19   46  -0.080  -0.064  -0.288
    1UNL    H20   47  -0.232   0.041  -0.139
    1UNL    H21   48  -0.186   0.150   0.124
    1UNL    H22   49  -0.048   0.256   0.090
    1UNL    H23   50  -0.167   0.304  -0.109
    1UNL    H24   51   0.162   0.421  -0.234
    1UNL    H25   52  -0.008   0.371  -0.299
    1UNL    H26   53   0.144   0.263  -0.299
   0.00000   0.00000   0.00000   0.00000   0.00000   0.00000   0.00000   0.00000   0.00000
Generated with MDTraj, t= 47.0
 53
    1UNL     C1    1  -0.433  -0.117   0.167
    1UNL     C2    2  -0.342  -0.036   0.073
    1UNL     C3    3  -0.233  -0.087   0.009
    1UNL     C4    4  -0.186  -0.226   0.056
    1UNL     N1    5  -0.040  -0.226   0.098
    1UNL     C5    6  -0.023  -0.168   0.231
    1UNL     C6    7  -0.005  -0.019   0.213
    1UNL     C7    8   0.046  -0.000   0.072
    1UNL     C8    9   0.188   0.040   0.079
    1UNL     C9   10   0.253   0.163   0.094
    1UNL    C10   11   0.388   0.176   0.084
    1UNL    C11   12   0.461   0.063   0.069
    1UNL    C12   13   0.402  -0.063   0.059
    1UNL    C13   14   0.266  -0.075   0.059
    1UNL     N2   15   0.194  -0.191   0.037
    1UNL    C14   16   0.055  -0.151   0.015
    1UNL    C15   17   0.035  -0.180  -0.137
    1UNL     O1   18   0.012  -0.318  -0.152
    1UNL    C16   19  -0.090  -0.099  -0.198
    1UNL    C17   20  -0.160  -0.007  -0.093
    1UNL    C18   21  -0.053   0.094  -0.026
    1UNL    C19   22  -0.124   0.208   0.050
    1UNL     O2   23  -0.217   0.262  -0.035
    1UNL    C20   24   0.038   0.154  -0.138
    1UNL     O3   25   0.128   0.085  -0.188
    1UNL     O4   26   0.017   0.288  -0.164
    1UNL    C21   27   0.109   0.339  -0.253
    1UNL     H1   28  -0.525  -0.059   0.170
    1UNL     H2   29  -0.391  -0.137   0.260
    1UNL     H3   30  -0.452  -0.215   0.117
    1UNL     H4   31  -0.359   0.068   0.044
    1UNL     H5   32  -0.243  -0.270   0.140
    1UNL     H6   33  -0.206  -0.295  -0.024
    1UNL     H7   34  -0.104  -0.200   0.304
    1UNL     H8   35   0.065  -0.225   0.264
    1UNL     H9   36  -0.098   0.018   0.236
    1UNL    H10   37   0.063   0.036   0.282
    1UNL    H11   38   0.184   0.246   0.086
    1UNL    H12   39   0.434   0.272   0.069
    1UNL    H13   40   0.568   0.061   0.066
    1UNL    H14   41   0.475  -0.145   0.046
    1UNL    H15   42   0.232  -0.260  -0.029
    1UNL    H16   43   0.118  -0.156  -0.189
    1UNL    H17   44  -0.051  -0.338  -0.081
    1UNL    H18   45  -0.161  -0.161  -0.247
    1UNL    H19   46  -0.051  -0.039  -0.274
    1UNL    H20   47  -0.230   0.061  -0.132
    1UNL    H21   48  -0.181   0.164   0.135
    1UNL    H22   49  -0.051   0.278   0.097
    1UNL    H23   50  -0.169   0.310  -0.111
    1UNL    H24   51   0.209   0.296  -0.242
    1UNL    H25   52   0.089   0.447  -0.254
    1UNL    H26   53   0.079   0.301  -0.348
   0.00000   0.00000   0.00000   0.00000   0.00000   0.00000   0.00000   0.00000   0.00000
Generated with MDTraj, t= 48.0
 53
    1UNL     C1    1  -0.454  -0.120   0.131
    1UNL     C2    2  -0.361  -0.046   0.045
    1UNL     C3    3  -0.237  -0.089   0.019
    1UNL     C4    4  -0.194  -0.226   0.058
    1UNL     N1    5  -0.051  -0.217   0.109
    1UNL     C5    6  -0.033  -0.164   0.249
    1UNL     C6    7   0.010  -0.016   0.231
    1UNL     C7    8   0.046  -0.002   0.080
    1UNL     C8    9   0.192   0.036   0.079
    1UNL     C9   10   0.245   0.164   0.098
    1UNL    C10   11   0.380   0.176   0.078
    1UNL    C11   12   0.465   0.076   0.042
    1UNL    C12   13   0.410  -0.051   0.040
    1UNL    C13   14   0.278  -0.075   0.058
    1UNL     N2   15   0.200  -0.193   0.046
    1UNL    C14   16   0.051  -0.153   0.022
    1UNL    C15   17   0.035  -0.174  -0.133
    1UNL     O1   18   0.017  -0.316  -0.164
    1UNL    C16   19  -0.084  -0.093  -0.190
    1UNL    C17   20  -0.157  -0.009  -0.081
    1UNL    C18   21  -0.046   0.091  -0.014
    1UNL    C19   22  -0.112   0.200   0.065
    1UNL     O2   23  -0.196   0.281  -0.017
    1UNL    C20   24   0.037   0.150  -0.138
    1UNL     O3   25   0.125   0.080  -0.187
    1UNL     O4   26   0.004   0.274  -0.178
    1UNL    C21   27   0.107   0.324  -0.263
    1UNL     H1   28  -0.534  -0.052   0.154
    1UNL     H2   29  -0.418  -0.160   0.224
    1UNL     H3   30  -0.500  -0.203   0.078
    1UNL     H4   31  -0.379   0.047  -0.004
    1UNL     H5   32  -0.263  -0.276   0.132
    1UNL     H6   33  -0.192  -0.303  -0.018
    1UNL     H7   34  -0.136  -0.190   0.291
    1UNL     H8   35   0.031  -0.219   0.317
    1UNL     H9   36  -0.068   0.052   0.262
    1UNL    H10   37   0.091   0.006   0.303
    1UNL    H11   38   0.186   0.254   0.119
    1UNL    H12   39   0.425   0.276   0.085
    1UNL    H13   40   0.570   0.098   0.021
    1UNL    H14   41   0.476  -0.137   0.029
    1UNL    H15   42   0.216  -0.263  -0.028
    1UNL    H16   43   0.119  -0.151  -0.185
    1UNL    H17   44   0.100  -0.356  -0.192
    1UNL    H18   45  -0.157  -0.155  -0.224
    1UNL    H19   46  -0.058  -0.040  -0.282
    1UNL    H20   47  -0.222   0.057  -0.131
    1UNL    H21   48  -0.180   0.163   0.151
    1UNL    H22   49  -0.031   0.253   0.119
    1UNL    H23   50  -0.149   0.311  -0.095
    1UNL    H24   51   0.102   0.278  -0.362
    1UNL    H25   52   0.205   0.313  -0.216
    1UNL    H26   53   0.095   0.429  -0.273
   0.00000   0.00000   0.00000   0.00000   0.00000   0.00000   0.00000   0.00000   0.00000
Generated with MDTraj, t= 49.0
 53
    1UNL     C1    1  -0.455  -0.126   0.138
    1UNL     C2    2  -0.362  -0.049   0.052
    1UNL     C3    3  -0.239  -0.087   0.009
    1UNL     C4    4  -0.188  -0.228   0.046
    1UNL     N1    5  -0.050  -0.227   0.103
    1UNL     C5    6  -0.042  -0.165   0.235
    1UNL     C6    7   0.005  -0.019   0.220
    1UNL     C7    8   0.056   0.004   0.075
    1UNL     C8    9   0.202   0.043   0.078
    1UNL     C9   10   0.263   0.168   0.065
    1UNL    C10   11   0.401   0.169   0.053
    1UNL    C11   12   0.472   0.052   0.066
    1UNL    C12   13   0.409  -0.068   0.069
    1UNL    C13   14   0.272  -0.075   0.075
    1UNL     N2   15   0.194  -0.188   0.051
    1UNL    C14   16   0.052  -0.152   0.022
    1UNL    C15   17   0.035  -0.172  -0.128
    1UNL     O1   18   0.052  -0.310  -0.153
    1UNL    C16   19  -0.082  -0.100  -0.189
    1UNL    C17   20  -0.154  -0.002  -0.085
    1UNL    C18   21  -0.044   0.093  -0.019
    1UNL    C19   22  -0.124   0.203   0.063
    1UNL     O2   23  -0.204   0.286  -0.022
    1UNL    C20   24   0.035   0.157  -0.128
    1UNL     O3   25   0.093   0.079  -0.201
    1UNL     O4   26   0.029   0.297  -0.141
    1UNL    C21   27   0.068   0.325  -0.275
    1UNL     H1   28  -0.550  -0.076   0.133
    1UNL     H2   29  -0.434  -0.136   0.247
    1UNL     H3   30  -0.470  -0.226   0.105
    1UNL     H4   31  -0.382   0.056   0.028
    1UNL     H5   32  -0.245  -0.277   0.130
    1UNL     H6   33  -0.208  -0.301  -0.031
    1UNL     H7   34  -0.135  -0.171   0.300
    1UNL     H8   35   0.024  -0.233   0.285
    1UNL     H9   36  -0.087   0.044   0.250
    1UNL    H10   37   0.078   0.007   0.297
    1UNL    H11   38   0.204   0.254   0.065
    1UNL    H12   39   0.449   0.262   0.045
    1UNL    H13   40   0.577   0.063   0.067
    1UNL    H14   41   0.475  -0.149   0.071
    1UNL    H15   42   0.239  -0.254  -0.015
    1UNL    H16   43   0.118  -0.139  -0.179
    1UNL    H17   44  -0.036  -0.355  -0.129
    1UNL    H18   45  -0.148  -0.172  -0.218
    1UNL    H19   46  -0.064  -0.047  -0.283
    1UNL    H20   47  -0.219   0.057  -0.143
    1UNL    H21   48  -0.184   0.148   0.148
    1UNL    H22   49  -0.057   0.269   0.123
    1UNL    H23   50  -0.146   0.317  -0.097
    1UNL    H24   51  -0.020   0.365  -0.328
    1UNL    H25   52   0.095   0.236  -0.337
    1UNL    H26   53   0.152   0.393  -0.271
   0.00000   0.00000   0.00000   0.00000   0.00000   0.00000   0.00000   0.00000   0.00000
Generated with MDTraj, t= 50.0
 53
    1UNL     C1    1  -0.434  -0.092   0.157
    1UNL     C2    2  -0.349  -0.024   0.062
    1UNL     C3    3  -0.240  -0.090   0.014
    1UNL     C4    4  -0.181  -0.223   0.058
    1UNL     N1    5  -0.046  -0.221   0.117
    1UNL     C5    6  -0.034  -0.147   0.242
    1UNL     C6    7   0.006  -0.001   0.214
    1UNL     C7    8   0.044   0.004   0.060
    1UNL     C8    9   0.196   0.038   0.046
    1UNL     C9   10   0.267   0.154   0.049
    1UNL    C10   11   0.402   0.160   0.069
    1UNL    C11   12   0.471   0.041   0.083
    1UNL    C12   13   0.410  -0.082   0.084
    1UNL    C13   14   0.270  -0.083   0.066
    1UNL     N2   15   0.190  -0.192   0.058
    1UNL    C14   16   0.052  -0.152   0.017
    1UNL    C15   17   0.044  -0.183  -0.130
    1UNL     O1   18   0.074  -0.324  -0.167
    1UNL    C16   19  -0.084  -0.123  -0.194
    1UNL    C17   20  -0.161  -0.022  -0.091
    1UNL    C18   21  -0.056   0.084  -0.035
    1UNL    C19   22  -0.133   0.192   0.049
    1UNL     O2   23  -0.236   0.245  -0.024
    1UNL    C20   24   0.021   0.165  -0.146
    1UNL     O3   25   0.091   0.107  -0.225
    1UNL     O4   26   0.005   0.299  -0.139
    1UNL    C21   27   0.095   0.363  -0.230
    1UNL     H1   28  -0.510  -0.020   0.174
    1UNL     H2   29  -0.389  -0.119   0.257
    1UNL     H3   30  -0.474  -0.177   0.110
    1UNL     H4   31  -0.372   0.071   0.017
    1UNL     H5   32  -0.256  -0.274   0.121
    1UNL     H6   33  -0.173  -0.289  -0.029
    1UNL     H7   34  -0.138  -0.143   0.286
    1UNL     H8   35   0.030  -0.185   0.317
    1UNL     H9   36  -0.075   0.068   0.249
    1UNL    H10   37   0.098   0.017   0.272
    1UNL    H11   38   0.203   0.245   0.048
    1UNL    H12   39   0.456   0.258   0.068
    1UNL    H13   40   0.581   0.042   0.097
    1UNL    H14   41   0.471  -0.177   0.090
    1UNL    H15   42   0.209  -0.282   0.011
    1UNL    H16   43   0.120  -0.132  -0.175
    1UNL    H17   44   0.024  -0.380  -0.102
    1UNL    H18   45  -0.149  -0.198  -0.235
    1UNL    H19   46  -0.055  -0.055  -0.273
    1UNL    H20   47  -0.227   0.026  -0.158
    1UNL    H21   48  -0.188   0.149   0.143
    1UNL    H22   49  -0.066   0.271   0.093
    1UNL    H23   50  -0.200   0.303  -0.097
    1UNL    H24   51   0.063   0.469  -0.239
    1UNL    H25   52   0.083   0.331  -0.338
    1UNL    H26   53   0.195   0.348  -0.188
   0.00000   0.00000   0.00000   0.00000   0.00000   0.00000   0.00000   0.00000   0.00000
Generated with MDTraj, t= 51.0
 53
    1UNL     C1    1  -0.424  -0.076   0.181
    1UNL     C2    2  -0.354  -0.046   0.045
    1UNL     C3    3  -0.237  -0.093  -0.009
    1UNL     C4    4  -0.184  -0.226   0.046
    1UNL     N1    5  -0.051  -0.218   0.113
    1UNL     C5    6  -0.053  -0.141   0.243
    1UNL     C6    7   0.008   0.002   0.213
    1UNL     C7    8   0.053  -0.001   0.063
    1UNL     C8    9   0.195   0.049   0.055
    1UNL     C9   10   0.257   0.173   0.063
    1UNL    C10   11   0.400   0.177   0.068
    1UNL    C11   12   0.476   0.057   0.075
    1UNL    C12   13   0.415  -0.067   0.064
    1UNL    C13   14   0.273  -0.071   0.060
    1UNL     N2   15   0.197  -0.189   0.061
    1UNL    C14   16   0.053  -0.155   0.031
    1UNL    C15   17   0.037  -0.183  -0.129
    1UNL     O1   18   0.034  -0.330  -0.165
    1UNL    C16   19  -0.082  -0.119  -0.205
    1UNL    C17   20  -0.151  -0.018  -0.107
    1UNL    C18   21  -0.046   0.074  -0.029
    1UNL    C19   22  -0.137   0.178   0.048
    1UNL     O2   23  -0.227   0.243  -0.033
    1UNL    C20   24   0.029   0.153  -0.138
    1UNL     O3   25   0.076   0.093  -0.233
    1UNL     O4   26   0.032   0.288  -0.110
    1UNL    C21   27   0.105   0.346  -0.212
    1UNL     H1   28  -0.516  -0.021   0.175
    1UNL     H2   29  -0.378  -0.037   0.275
    1UNL     H3   30  -0.453  -0.177   0.191
    1UNL     H4   31  -0.402   0.038  -0.007
    1UNL     H5   32  -0.256  -0.271   0.116
    1UNL     H6   33  -0.178  -0.297  -0.041
    1UNL     H7   34  -0.153  -0.132   0.296
    1UNL     H8   35   0.009  -0.188   0.314
    1UNL     H9   36  -0.057   0.085   0.233
    1UNL    H10   37   0.093   0.003   0.283
    1UNL    H11   38   0.211   0.267   0.061
    1UNL    H12   39   0.442   0.272   0.068
    1UNL    H13   40   0.579   0.081   0.076
    1UNL    H14   41   0.467  -0.157   0.051
    1UNL    H15   42   0.214  -0.285   0.029
    1UNL    H16   43   0.117  -0.144  -0.179
    1UNL    H17   44   0.051  -0.397  -0.099
    1UNL    H18   45  -0.162  -0.197  -0.238
    1UNL    H19   46  -0.049  -0.062  -0.291
    1UNL    H20   47  -0.213   0.044  -0.170
    1UNL    H21   48  -0.204   0.125   0.123
    1UNL    H22   49  -0.090   0.264   0.105
    1UNL    H23   50  -0.179   0.289  -0.106
    1UNL    H24   51   0.140   0.445  -0.176
    1UNL    H25   52   0.035   0.382  -0.292
    1UNL    H26   53   0.189   0.283  -0.241
   0.00000   0.00000   0.00000   0.00000   0.00000   0.00000   0.00000   0.00000   0.00000
Generated with MDTraj, t= 52.0
 53
    1UNL     C1    1  -0.440  -0.135   0.139
    1UNL     C2    2  -0.358  -0.044   0.054
    1UNL     C3    3  -0.238  -0.095   0.019
    1UNL     C4    4  -0.182  -0.234   0.048
    1UNL     N1    5  -0.046  -0.228   0.110
    1UNL     C5    6  -0.030  -0.171   0.241
    1UNL     C6    7  -0.021  -0.017   0.221
    1UNL     C7    8   0.042  -0.004   0.078
    1UNL     C8    9   0.184   0.046   0.070
    1UNL     C9   10   0.242   0.169   0.061
    1UNL    C10   11   0.383   0.187   0.049
    1UNL    C11   12   0.466   0.075   0.050
    1UNL    C12   13   0.408  -0.051   0.052
    1UNL    C13   14   0.268  -0.066   0.063
    1UNL     N2   15   0.197  -0.182   0.069
    1UNL    C14   16   0.059  -0.159   0.024
    1UNL    C15   17   0.035  -0.197  -0.123
    1UNL     O1   18   0.009  -0.341  -0.141
    1UNL    C16   19  -0.079  -0.111  -0.184
    1UNL    C17   20  -0.157  -0.014  -0.087
    1UNL    C18   21  -0.050   0.082  -0.027
    1UNL    C19   22  -0.119   0.200   0.046
    1UNL     O2   23  -0.183   0.287  -0.042
    1UNL    C20   24   0.031   0.162  -0.139
    1UNL     O3   25   0.061   0.108  -0.242
    1UNL     O4   26   0.062   0.291  -0.117
    1UNL    C21   27   0.133   0.344  -0.224
    1UNL     H1   28  -0.533  -0.091   0.169
    1UNL     H2   29  -0.404  -0.163   0.239
    1UNL     H3   30  -0.469  -0.222   0.082
    1UNL     H4   31  -0.402   0.042   0.009
    1UNL     H5   32  -0.246  -0.301   0.108
    1UNL     H6   33  -0.173  -0.289  -0.050
    1UNL     H7   34  -0.115  -0.192   0.312
    1UNL     H8   35   0.054  -0.216   0.285
    1UNL     H9   36  -0.118   0.018   0.228
    1UNL    H10   37   0.042   0.043   0.290
    1UNL    H11   38   0.181   0.259   0.062
    1UNL    H12   39   0.419   0.293   0.040
    1UNL    H13   40   0.575   0.088   0.045
    1UNL    H14   41   0.474  -0.139   0.036
    1UNL    H15   42   0.235  -0.273   0.037
    1UNL    H16   43   0.122  -0.170  -0.169
    1UNL    H17   44   0.028  -0.384  -0.055
    1UNL    H18   45  -0.154  -0.189  -0.230
    1UNL    H19   46  -0.036  -0.044  -0.263
    1UNL    H20   47  -0.223   0.053  -0.141
    1UNL    H21   48  -0.204   0.171   0.113
    1UNL    H22   49  -0.046   0.263   0.107
    1UNL    H23   50  -0.112   0.338  -0.089
    1UNL    H24   51   0.138   0.452  -0.211
    1UNL    H25   52   0.070   0.333  -0.314
    1UNL    H26   53   0.232   0.305  -0.235
   0.00000   0.00000   0.00000   0.00000   0.00000   0.00000   0.00000   0.00000   0.00000
Generated with MDTraj, t= 53.0
 53
    1UNL     C1    1  -0.472  -0.144   0.129
    1UNL     C2    2  -0.374  -0.062   0.050
    1UNL     C3    3  -0.245  -0.091   0.019
    1UNL     C4    4  -0.187  -0.221   0.067
    1UNL     N1    5  -0.046  -0.219   0.121
    1UNL     C5    6  -0.024  -0.150   0.246
    1UNL     C6    7   0.005  -0.003   0.214
    1UNL     C7    8   0.046   0.008   0.066
    1UNL     C8    9   0.192   0.052   0.052
    1UNL     C9   10   0.255   0.174   0.067
    1UNL    C10   11   0.395   0.188   0.080
    1UNL    C11   12   0.470   0.075   0.060
    1UNL    C12   13   0.408  -0.048   0.035
    1UNL    C13   14   0.269  -0.063   0.034
    1UNL     N2   15   0.196  -0.177   0.044
    1UNL    C14   16   0.050  -0.150   0.025
    1UNL    C15   17   0.026  -0.177  -0.129
    1UNL     O1   18   0.057  -0.310  -0.170
    1UNL    C16   19  -0.103  -0.115  -0.177
    1UNL    C17   20  -0.167  -0.008  -0.082
    1UNL    C18   21  -0.056   0.091  -0.020
    1UNL    C19   22  -0.132   0.197   0.055
    1UNL     O2   23  -0.203   0.280  -0.033
    1UNL    C20   24   0.028   0.144  -0.131
    1UNL     O3   25   0.068   0.072  -0.221
    1UNL     O4   26   0.059   0.278  -0.122
    1UNL    C21   27   0.159   0.299  -0.216
    1UNL     H1   28  -0.561  -0.085   0.140
    1UNL     H2   29  -0.454  -0.165   0.232
    1UNL     H3   30  -0.508  -0.227   0.064
    1UNL     H4   31  -0.423   0.026   0.007
    1UNL     H5   32  -0.255  -0.252   0.148
    1UNL     H6   33  -0.181  -0.306  -0.008
    1UNL     H7   34  -0.119  -0.162   0.304
    1UNL     H8   35   0.047  -0.196   0.308
    1UNL     H9   36  -0.074   0.068   0.232
    1UNL    H10   37   0.086   0.040   0.274
    1UNL    H11   38   0.185   0.256   0.081
    1UNL    H12   39   0.440   0.281   0.108
    1UNL    H13   40   0.577   0.077   0.066
    1UNL    H14   41   0.468  -0.135   0.024
    1UNL    H15   42   0.218  -0.265  -0.008
    1UNL    H16   43   0.103  -0.126  -0.177
    1UNL    H17   44   0.027  -0.371  -0.095
    1UNL    H18   45  -0.178  -0.205  -0.183
    1UNL    H19   46  -0.083  -0.076  -0.287
    1UNL    H20   47  -0.243   0.050  -0.136
    1UNL    H21   48  -0.205   0.148   0.122
    1UNL    H22   49  -0.061   0.265   0.115
    1UNL    H23   50  -0.139   0.308  -0.100
    1UNL    H24   51   0.205   0.397  -0.205
    1UNL    H25   52   0.113   0.286  -0.314
    1UNL    H26   53   0.243   0.235  -0.205
   0.00000   0.00000   0.00000   0.00000   0.00000   0.00000   0.00000   0.00000   0.00000
Generated with MDTraj, t= 54.0
 53
    1UNL     C1    1  -0.450  -0.112   0.151
    1UNL     C2    2  -0.360  -0.046   0.053
    1UNL     C3    3  -0.241  -0.091   0.023
    1UNL     C4    4  -0.179  -0.225   0.068
    1UNL     N1    5  -0.037  -0.222   0.117
    1UNL     C5    6  -0.022  -0.154   0.247
    1UNL     C6    7  -0.014  -0.012   0.214
    1UNL     C7    8   0.048  -0.000   0.063
    1UNL     C8    9   0.197   0.044   0.080
    1UNL     C9   10   0.248   0.172   0.083
    1UNL    C10   11   0.387   0.172   0.075
    1UNL    C11   12   0.473   0.060   0.062
    1UNL    C12   13   0.413  -0.063   0.057
    1UNL    C13   14   0.277  -0.067   0.066
    1UNL     N2   15   0.194  -0.184   0.052
    1UNL    C14   16   0.051  -0.153   0.021
    1UNL    C15   17   0.029  -0.175  -0.135
    1UNL     O1   18   0.052  -0.306  -0.170
    1UNL    C16   19  -0.101  -0.112  -0.189
    1UNL    C17   20  -0.165  -0.019  -0.087
    1UNL    C18   21  -0.053   0.081  -0.026
    1UNL    C19   22  -0.122   0.194   0.041
    1UNL     O2   23  -0.213   0.262  -0.044
    1UNL    C20   24   0.026   0.153  -0.143
    1UNL     O3   25   0.055   0.091  -0.245
    1UNL     O4   26   0.056   0.283  -0.119
    1UNL    C21   27   0.128   0.336  -0.229
    1UNL     H1   28  -0.551  -0.097   0.118
    1UNL     H2   29  -0.447  -0.066   0.244
    1UNL     H3   30  -0.430  -0.222   0.141
    1UNL     H4   31  -0.394   0.044   0.005
    1UNL     H5   32  -0.235  -0.273   0.151
    1UNL     H6   33  -0.195  -0.292  -0.022
    1UNL     H7   34  -0.099  -0.187   0.322
    1UNL     H8   35   0.068  -0.191   0.287
    1UNL     H9   36  -0.113   0.042   0.213
    1UNL    H10   37   0.046   0.048   0.279
    1UNL    H11   38   0.183   0.255   0.086
    1UNL    H12   39   0.430   0.271   0.084
    1UNL    H13   40   0.580   0.081   0.055
    1UNL    H14   41   0.472  -0.151   0.055
    1UNL    H15   42   0.233  -0.265   0.000
    1UNL    H16   43   0.108  -0.137  -0.194
    1UNL    H17   44   0.034  -0.375  -0.101
    1UNL    H18   45  -0.162  -0.204  -0.224
    1UNL    H19   46  -0.078  -0.057  -0.295
    1UNL    H20   47  -0.243   0.038  -0.144
    1UNL    H21   48  -0.179   0.158   0.126
    1UNL    H22   49  -0.038   0.263   0.079
    1UNL    H23   50  -0.165   0.305  -0.119
    1UNL    H24   51   0.152   0.443  -0.217
    1UNL    H25   52   0.076   0.304  -0.322
    1UNL    H26   53   0.230   0.301  -0.231
   0.00000   0.00000   0.00000   0.00000   0.00000   0.00000   0.00000   0.00000   0.00000
Generated with MDTraj, t= 55.0
 53
    1UNL     C1    1  -0.404  -0.091   0.189
    1UNL     C2    2  -0.335  -0.032   0.061
    1UNL     C3    3  -0.237  -0.091  -0.002
    1UNL     C4    4  -0.187  -0.223   0.041
    1UNL     N1    5  -0.050  -0.226   0.101
    1UNL     C5    6  -0.043  -0.161   0.233
    1UNL     C6    7   0.010  -0.022   0.213
    1UNL     C7    8   0.046  -0.003   0.065
    1UNL     C8    9   0.190   0.035   0.059
    1UNL     C9   10   0.246   0.165   0.058
    1UNL    C10   11   0.379   0.182   0.074
    1UNL    C11   12   0.464   0.070   0.085
    1UNL    C12   13   0.405  -0.060   0.093
    1UNL    C13   14   0.271  -0.081   0.070
    1UNL     N2   15   0.188  -0.192   0.063
    1UNL    C14   16   0.053  -0.158   0.014
    1UNL    C15   17   0.041  -0.196  -0.138
    1UNL     O1   18   0.038  -0.333  -0.146
    1UNL    C16   19  -0.084  -0.126  -0.200
    1UNL    C17   20  -0.151  -0.021  -0.103
    1UNL    C18   21  -0.055   0.078  -0.038
    1UNL    C19   22  -0.127   0.192   0.046
    1UNL     O2   23  -0.206   0.272  -0.041
    1UNL    C20   24   0.027   0.157  -0.143
    1UNL     O3   25   0.072   0.105  -0.245
    1UNL     O4   26   0.034   0.292  -0.122
    1UNL    C21   27   0.087   0.362  -0.226
    1UNL     H1   28  -0.444  -0.012   0.249
    1UNL     H2   29  -0.339  -0.142   0.253
    1UNL     H3   30  -0.486  -0.155   0.153
    1UNL     H4   31  -0.351   0.072   0.028
    1UNL     H5   32  -0.267  -0.261   0.109
    1UNL     H6   33  -0.183  -0.297  -0.044
    1UNL     H7   34  -0.141  -0.168   0.288
    1UNL     H8   35   0.023  -0.214   0.294
    1UNL     H9   36  -0.069   0.059   0.235
    1UNL    H10   37   0.100   0.004   0.262
    1UNL    H11   38   0.176   0.251   0.037
    1UNL    H12   39   0.427   0.280   0.074
    1UNL    H13   40   0.572   0.070   0.094
    1UNL    H14   41   0.473  -0.148   0.105
    1UNL    H15   42   0.229  -0.283   0.034
    1UNL    H16   43   0.126  -0.145  -0.181
    1UNL    H17   44   0.055  -0.374  -0.058
    1UNL    H18   45  -0.162  -0.206  -0.224
    1UNL    H19   46  -0.053  -0.100  -0.310
    1UNL    H20   47  -0.224   0.038  -0.162
    1UNL    H21   48  -0.186   0.144   0.122
    1UNL    H22   49  -0.052   0.261   0.098
    1UNL    H23   50  -0.145   0.321  -0.101
    1UNL    H24   51   0.130   0.456  -0.184
    1UNL    H25   52   0.015   0.370  -0.312
    1UNL    H26   53   0.178   0.312  -0.258
   0.00000   0.00000   0.00000   0.00000   0.00000   0.00000   0.00000   0.00000   0.00000
Generated with MDTraj, t= 56.0
 53
    1UNL     C1    1  -0.416  -0.092   0.173
    1UNL     C2    2  -0.344  -0.040   0.045
    1UNL     C3    3  -0.235  -0.093  -0.000
    1UNL     C4    4  -0.188  -0.228   0.049
    1UNL     N1    5  -0.043  -0.220   0.100
    1UNL     C5    6  -0.040  -0.148   0.229
    1UNL     C6    7   0.025  -0.011   0.212
    1UNL     C7    8   0.053   0.003   0.057
    1UNL     C8    9   0.194   0.039   0.054
    1UNL     C9   10   0.258   0.165   0.065
    1UNL    C10   11   0.397   0.174   0.075
    1UNL    C11   12   0.472   0.058   0.095
    1UNL    C12   13   0.412  -0.069   0.087
    1UNL    C13   14   0.279  -0.072   0.060
    1UNL     N2   15   0.197  -0.186   0.058
    1UNL    C14   16   0.056  -0.149   0.021
    1UNL    C15   17   0.040  -0.182  -0.130
    1UNL     O1   18   0.024  -0.320  -0.156
    1UNL    C16   19  -0.095  -0.110  -0.193
    1UNL    C17   20  -0.156  -0.014  -0.095
    1UNL    C18   21  -0.056   0.083  -0.024
    1UNL    C19   22  -0.138   0.189   0.045
    1UNL     O2   23  -0.244   0.247  -0.033
    1UNL    C20   24   0.018   0.159  -0.135
    1UNL     O3   25   0.089   0.094  -0.213
    1UNL     O4   26   0.016   0.295  -0.140
    1UNL    C21   27   0.104   0.336  -0.237
    1UNL     H1   28  -0.362  -0.065   0.263
    1UNL     H2   29  -0.430  -0.199   0.182
    1UNL     H3   30  -0.514  -0.051   0.180
    1UNL     H4   31  -0.361   0.063   0.025
    1UNL     H5   32  -0.254  -0.275   0.130
    1UNL     H6   33  -0.192  -0.301  -0.034
    1UNL     H7   34  -0.145  -0.130   0.265
    1UNL     H8   35   0.009  -0.211   0.297
    1UNL     H9   36  -0.034   0.079   0.236
    1UNL    H10   37   0.125  -0.017   0.252
    1UNL    H11   38   0.198   0.250   0.055
    1UNL    H12   39   0.448   0.266   0.080
    1UNL    H13   40   0.578   0.058   0.105
    1UNL    H14   41   0.466  -0.158   0.090
    1UNL    H15   42   0.233  -0.277   0.026
    1UNL    H16   43   0.132  -0.147  -0.177
    1UNL    H17   44   0.101  -0.373  -0.120
    1UNL    H18   45  -0.158  -0.195  -0.242
    1UNL    H19   46  -0.067  -0.057  -0.286
    1UNL    H20   47  -0.222   0.055  -0.151
    1UNL    H21   48  -0.191   0.148   0.128
    1UNL    H22   49  -0.068   0.269   0.084
    1UNL    H23   50  -0.205   0.287  -0.115
    1UNL    H24   51   0.123   0.446  -0.227
    1UNL    H25   52   0.074   0.306  -0.341
    1UNL    H26   53   0.202   0.291  -0.218
   0.00000   0.00000   0.00000   0.00000   0.00000   0.00000   0.00000   0.00000   0.00000
Generated with MDTraj, t= 57.0
 53
    1UNL     C1    1  -0.459  -0.130   0.120
    1UNL     C2    2  -0.347  -0.050   0.054
    1UNL     C3    3  -0.229  -0.097   0.024
    1UNL     C4    4  -0.179  -0.231   0.070
    1UNL     N1    5  -0.041  -0.228   0.112
    1UNL     C5    6  -0.027  -0.161   0.246
    1UNL     C6    7  -0.001  -0.011   0.218
    1UNL     C7    8   0.047  -0.001   0.068
    1UNL     C8    9   0.194   0.042   0.067
    1UNL     C9   10   0.255   0.167   0.086
    1UNL    C10   11   0.393   0.171   0.075
    1UNL    C11   12   0.471   0.059   0.046
    1UNL    C12   13   0.409  -0.065   0.057
    1UNL    C13   14   0.273  -0.073   0.067
    1UNL     N2   15   0.189  -0.193   0.056
    1UNL    C14   16   0.051  -0.151   0.024
    1UNL    C15   17   0.036  -0.171  -0.124
    1UNL     O1   18   0.038  -0.311  -0.151
    1UNL    C16   19  -0.096  -0.106  -0.185
    1UNL    C17   20  -0.154  -0.016  -0.077
    1UNL    C18   21  -0.049   0.087  -0.024
    1UNL    C19   22  -0.123   0.202   0.046
    1UNL     O2   23  -0.210   0.285  -0.038
    1UNL    C20   24   0.030   0.155  -0.136
    1UNL     O3   25   0.109   0.093  -0.205
    1UNL     O4   26   0.015   0.292  -0.155
    1UNL    C21   27   0.094   0.343  -0.259
    1UNL     H1   28  -0.433  -0.233   0.146
    1UNL     H2   29  -0.551  -0.139   0.062
    1UNL     H3   30  -0.489  -0.084   0.208
    1UNL     H4   31  -0.390   0.046   0.024
    1UNL     H5   32  -0.237  -0.264   0.163
    1UNL     H6   33  -0.190  -0.310  -0.007
    1UNL     H7   34  -0.119  -0.182   0.304
    1UNL     H8   35   0.055  -0.206   0.297
    1UNL     H9   36  -0.089   0.047   0.223
    1UNL    H10   37   0.078   0.029   0.282
    1UNL    H11   38   0.199   0.257   0.118
    1UNL    H12   39   0.444   0.267   0.099
    1UNL    H13   40   0.579   0.067   0.022
    1UNL    H14   41   0.464  -0.162   0.044
    1UNL    H15   42   0.228  -0.272   0.004
    1UNL    H16   43   0.128  -0.144  -0.181
    1UNL    H17   44  -0.031  -0.357  -0.101
    1UNL    H18   45  -0.164  -0.193  -0.219
    1UNL    H19   46  -0.070  -0.066  -0.283
    1UNL    H20   47  -0.226   0.053  -0.124
    1UNL    H21   48  -0.187   0.173   0.123
    1UNL    H22   49  -0.051   0.281   0.076
    1UNL    H23   50  -0.155   0.316  -0.112
    1UNL    H24   51   0.033   0.420  -0.311
    1UNL    H25   52   0.127   0.266  -0.331
    1UNL    H26   53   0.183   0.388  -0.222
   0.00000   0.00000   0.00000   0.00000   0.00000   0.00000   0.00000   0.00000   0.00000
Generated with MDTraj, t= 58.0
 53
    1UNL     C1    1  -0.475  -0.125   0.104
    1UNL     C2    2  -0.360  -0.052   0.036
    1UNL     C3    3  -0.240  -0.095   0.012
    1UNL     C4    4  -0.185  -0.219   0.064
    1UNL     N1    5  -0.047  -0.224   0.107
    1UNL     C5    6  -0.032  -0.161   0.243
    1UNL     C6    7   0.013  -0.021   0.226
    1UNL     C7    8   0.049   0.004   0.076
    1UNL     C8    9   0.197   0.051   0.080
    1UNL     C9   10   0.249   0.174   0.077
    1UNL    C10   11   0.385   0.189   0.053
    1UNL    C11   12   0.469   0.079   0.041
    1UNL    C12   13   0.414  -0.047   0.046
    1UNL    C13   14   0.276  -0.064   0.066
    1UNL     N2   15   0.191  -0.177   0.060
    1UNL    C14   16   0.051  -0.148   0.021
    1UNL    C15   17   0.030  -0.167  -0.133
    1UNL     O1   18   0.039  -0.303  -0.151
    1UNL    C16   19  -0.095  -0.103  -0.189
    1UNL    C17   20  -0.160  -0.013  -0.084
    1UNL    C18   21  -0.049   0.083  -0.019
    1UNL    C19   22  -0.118   0.189   0.072
    1UNL     O2   23  -0.202   0.279   0.005
    1UNL    C20   24   0.043   0.141  -0.126
    1UNL     O3   25   0.118   0.075  -0.192
    1UNL     O4   26   0.023   0.269  -0.155
    1UNL    C21   27   0.104   0.301  -0.271
    1UNL     H1   28  -0.541  -0.179   0.036
    1UNL     H2   29  -0.537  -0.052   0.157
    1UNL     H3   30  -0.442  -0.193   0.174
    1UNL     H4   31  -0.397   0.035  -0.014
    1UNL     H5   32  -0.247  -0.244   0.158
    1UNL     H6   33  -0.201  -0.293  -0.017
    1UNL     H7   34  -0.129  -0.167   0.296
    1UNL     H8   35   0.035  -0.223   0.300
    1UNL     H9   36  -0.068   0.039   0.264
    1UNL    H10   37   0.104   0.005   0.278
    1UNL    H11   38   0.184   0.254   0.104
    1UNL    H12   39   0.431   0.282   0.040
    1UNL    H13   40   0.573   0.079   0.029
    1UNL    H14   41   0.468  -0.134   0.024
    1UNL    H15   42   0.231  -0.259   0.017
    1UNL    H16   43   0.121  -0.116  -0.176
    1UNL    H17   44  -0.042  -0.333  -0.105
    1UNL    H18   45  -0.167  -0.184  -0.218
    1UNL    H19   46  -0.069  -0.057  -0.282
    1UNL    H20   47  -0.226   0.062  -0.130
    1UNL    H21   48  -0.184   0.148   0.143
    1UNL    H22   49  -0.048   0.257   0.118
    1UNL    H23   50  -0.141   0.322  -0.063
    1UNL    H24   51   0.076   0.400  -0.306
    1UNL    H25   52   0.073   0.229  -0.348
    1UNL    H26   53   0.207   0.277  -0.264
   0.00000   0.00000   0.00000   0.00000   0.00000   0.00000   0.00000   0.00000   0.00000
Generated with MDTraj, t= 59.0
 53
    1UNL     C1    1  -0.449  -0.116   0.134
    1UNL     C2    2  -0.345  -0.044   0.053
    1UNL     C3    3  -0.235  -0.095   0.006
    1UNL     C4    4  -0.181  -0.228   0.048
    1UNL     N1    5  -0.044  -0.220   0.107
    1UNL     C5    6  -0.041  -0.155   0.242
    1UNL     C6    7  -0.004  -0.014   0.224
    1UNL     C7    8   0.054  -0.001   0.071
    1UNL     C8    9   0.200   0.037   0.070
    1UNL     C9   10   0.248   0.163   0.071
    1UNL    C10   11   0.386   0.176   0.061
    1UNL    C11   12   0.464   0.062   0.053
    1UNL    C12   13   0.414  -0.062   0.056
    1UNL    C13   14   0.277  -0.075   0.067
    1UNL     N2   15   0.195  -0.186   0.066
    1UNL    C14   16   0.057  -0.149   0.032
    1UNL    C15   17   0.035  -0.179  -0.122
    1UNL     O1   18   0.022  -0.314  -0.137
    1UNL    C16   19  -0.083  -0.107  -0.189
    1UNL    C17   20  -0.156  -0.014  -0.094
    1UNL    C18   21  -0.043   0.081  -0.025
    1UNL    C19   22  -0.117   0.192   0.049
    1UNL     O2   23  -0.224   0.266  -0.018
    1UNL    C20   24   0.039   0.150  -0.136
    1UNL     O3   25   0.118   0.100  -0.211
    1UNL     O4   26   0.008   0.286  -0.151
    1UNL    C21   27   0.093   0.345  -0.253
    1UNL     H1   28  -0.543  -0.119   0.081
    1UNL     H2   29  -0.463  -0.056   0.224
    1UNL     H3   30  -0.417  -0.215   0.159
    1UNL     H4   31  -0.378   0.051   0.012
    1UNL     H5   32  -0.248  -0.263   0.134
    1UNL     H6   33  -0.183  -0.290  -0.044
    1UNL     H7   34  -0.140  -0.165   0.286
    1UNL     H8   35   0.025  -0.213   0.308
    1UNL     H9   36  -0.079   0.063   0.244
    1UNL    H10   37   0.072  -0.003   0.299
    1UNL    H11   38   0.191   0.252   0.074
    1UNL    H12   39   0.429   0.277   0.070
    1UNL    H13   40   0.572   0.082   0.036
    1UNL    H14   41   0.467  -0.156   0.053
    1UNL    H15   42   0.233  -0.277   0.043
    1UNL    H16   43   0.124  -0.138  -0.182
    1UNL    H17   44   0.109  -0.366  -0.125
    1UNL    H18   45  -0.141  -0.191  -0.218
    1UNL    H19   46  -0.061  -0.055  -0.280
    1UNL    H20   47  -0.216   0.053  -0.158
    1UNL    H21   48  -0.174   0.149   0.127
    1UNL    H22   49  -0.047   0.266   0.078
    1UNL    H23   50  -0.189   0.309  -0.095
    1UNL    H24   51   0.095   0.453  -0.247
    1UNL    H25   52   0.038   0.321  -0.347
    1UNL    H26   53   0.185   0.292  -0.268
   0.00000   0.00000   0.00000   0.00000   0.00000   0.00000   0.00000   0.00000   0.00000
Generated with MDTraj, t= 60.0
 53
    1UNL     C1    1  -0.411  -0.083   0.182
    1UNL     C2    2  -0.338  -0.041   0.058
    1UNL     C3    3  -0.234  -0.097  -0.003
    1UNL     C4    4  -0.180  -0.230   0.049
    1UNL     N1    5  -0.046  -0.222   0.109
    1UNL     C5    6  -0.044  -0.148   0.235
    1UNL     C6    7   0.006  -0.005   0.205
    1UNL     C7    8   0.052  -0.004   0.062
    1UNL     C8    9   0.200   0.033   0.048
    1UNL     C9   10   0.265   0.154   0.050
    1UNL    C10   11   0.401   0.164   0.076
    1UNL    C11   12   0.481   0.052   0.093
    1UNL    C12   13   0.425  -0.072   0.086
    1UNL    C13   14   0.279  -0.083   0.064
    1UNL     N2   15   0.195  -0.199   0.067
    1UNL    C14   16   0.059  -0.156   0.025
    1UNL    C15   17   0.046  -0.177  -0.129
    1UNL     O1   18   0.041  -0.318  -0.143
    1UNL    C16   19  -0.079  -0.115  -0.198
    1UNL    C17   20  -0.152  -0.020  -0.102
    1UNL    C18   21  -0.058   0.083  -0.033
    1UNL    C19   22  -0.156   0.187   0.030
    1UNL     O2   23  -0.243   0.253  -0.063
    1UNL    C20   24   0.019   0.167  -0.133
    1UNL     O3   25   0.076   0.115  -0.222
    1UNL     O4   26   0.014   0.299  -0.125
    1UNL    C21   27   0.086   0.356  -0.226
    1UNL     H1   28  -0.474  -0.011   0.231
    1UNL     H2   29  -0.339  -0.105   0.258
    1UNL     H3   30  -0.478  -0.170   0.167
    1UNL     H4   31  -0.389   0.047   0.022
    1UNL     H5   32  -0.251  -0.267   0.128
    1UNL     H6   33  -0.176  -0.309  -0.029
    1UNL     H7   34  -0.142  -0.148   0.278
    1UNL     H8   35   0.017  -0.208   0.305
    1UNL     H9   36  -0.076   0.073   0.214
    1UNL    H10   37   0.094   0.018   0.262
    1UNL    H11   38   0.209   0.248   0.028
    1UNL    H12   39   0.445   0.261   0.075
    1UNL    H13   40   0.584   0.059   0.117
    1UNL    H14   41   0.479  -0.169   0.099
    1UNL    H15   42   0.218  -0.283   0.015
    1UNL    H16   43   0.146  -0.131  -0.170
    1UNL    H17   44  -0.011  -0.368  -0.077
    1UNL    H18   45  -0.151  -0.182  -0.224
    1UNL    H19   46  -0.041  -0.073  -0.287
    1UNL    H20   47  -0.228   0.029  -0.167
    1UNL    H21   48  -0.222   0.140   0.105
    1UNL    H22   49  -0.090   0.258   0.067
    1UNL    H23   50  -0.189   0.305  -0.132
    1UNL    H24   51   0.035   0.452  -0.247
    1UNL    H25   52   0.069   0.289  -0.315
    1UNL    H26   53   0.194   0.353  -0.211
   0.00000   0.00000   0.00000   0.00000   0.00000   0.00000   0.00000   0.00000   0.00000
Generated with MDTraj, t= 61.0
 53
    1UNL     C1    1  -0.432  -0.076   0.163
    1UNL     C2    2  -0.346  -0.030   0.053
    1UNL     C3    3  -0.239  -0.097   0.015
    1UNL     C4    4  -0.188  -0.228   0.059
    1UNL     N1    5  -0.047  -0.226   0.111
    1UNL     C5    6  -0.042  -0.152   0.238
    1UNL     C6    7   0.016  -0.005   0.200
    1UNL     C7    8   0.046  -0.003   0.055
    1UNL     C8    9   0.193   0.034   0.052
    1UNL     C9   10   0.247   0.158   0.051
    1UNL    C10   11   0.384   0.178   0.077
    1UNL    C11   12   0.472   0.073   0.096
    1UNL    C12   13   0.423  -0.055   0.092
    1UNL    C13   14   0.279  -0.079   0.074
    1UNL     N2   15   0.195  -0.190   0.061
    1UNL    C14   16   0.059  -0.162   0.026
    1UNL    C15   17   0.040  -0.180  -0.130
    1UNL     O1   18   0.070  -0.314  -0.166
    1UNL    C16   19  -0.098  -0.127  -0.190
    1UNL    C17   20  -0.161  -0.027  -0.097
    1UNL    C18   21  -0.055   0.073  -0.036
    1UNL    C19   22  -0.133   0.179   0.044
    1UNL     O2   23  -0.231   0.258  -0.022
    1UNL    C20   24   0.014   0.152  -0.150
    1UNL     O3   25   0.068   0.105  -0.248
    1UNL     O4   26   0.031   0.289  -0.130
    1UNL    C21   27   0.115   0.344  -0.227
    1UNL     H1   28  -0.398  -0.041   0.256
    1UNL     H2   29  -0.424  -0.182   0.174
    1UNL     H3   30  -0.538  -0.043   0.150
    1UNL     H4   31  -0.364   0.072   0.021
    1UNL     H5   32  -0.247  -0.281   0.135
    1UNL     H6   33  -0.192  -0.302  -0.028
    1UNL     H7   34  -0.132  -0.159   0.291
    1UNL     H8   35   0.031  -0.206   0.303
    1UNL     H9   36  -0.069   0.066   0.216
    1UNL    H10   37   0.106   0.022   0.252
    1UNL    H11   38   0.189   0.236   0.018
    1UNL    H12   39   0.428   0.277   0.072
    1UNL    H13   40   0.578   0.094   0.117
    1UNL    H14   41   0.485  -0.137   0.106
    1UNL    H15   42   0.233  -0.273   0.018
    1UNL    H16   43   0.131  -0.118  -0.170
    1UNL    H17   44  -0.011  -0.360  -0.142
    1UNL    H18   45  -0.142  -0.218  -0.207
    1UNL    H19   46  -0.083  -0.079  -0.279
    1UNL    H20   47  -0.217   0.041  -0.166
    1UNL    H21   48  -0.188   0.121   0.121
    1UNL    H22   49  -0.065   0.245   0.084
    1UNL    H23   50  -0.194   0.324  -0.080
    1UNL    H24   51   0.150   0.445  -0.199
    1UNL    H25   52   0.048   0.349  -0.318
    1UNL    H26   53   0.193   0.273  -0.252
   0.00000   0.00000   0.00000   0.00000   0.00000   0.00000   0.00000   0.00000   0.00000
Generated with MDTraj, t= 62.0
 53
    1UNL     C1    1  -0.462  -0.129   0.138
    1UNL     C2    2  -0.354  -0.057   0.065
    1UNL     C3    3  -0.237  -0.097   0.011
    1UNL     C4    4  -0.184  -0.230   0.057
    1UNL     N1    5  -0.043  -0.223   0.110
    1UNL     C5    6  -0.031  -0.163   0.241
    1UNL     C6    7  -0.013  -0.014   0.217
    1UNL     C7    8   0.043   0.004   0.073
    1UNL     C8    9   0.194   0.050   0.074
    1UNL     C9   10   0.253   0.173   0.084
    1UNL    C10   11   0.387   0.192   0.075
    1UNL    C11   12   0.464   0.079   0.050
    1UNL    C12   13   0.412  -0.050   0.051
    1UNL    C13   14   0.275  -0.062   0.068
    1UNL     N2   15   0.188  -0.179   0.061
    1UNL    C14   16   0.050  -0.145   0.026
    1UNL    C15   17   0.025  -0.172  -0.129
    1UNL     O1   18   0.060  -0.307  -0.148
    1UNL    C16   19  -0.108  -0.120  -0.189
    1UNL    C17   20  -0.160  -0.017  -0.091
    1UNL    C18   21  -0.049   0.079  -0.031
    1UNL    C19   22  -0.128   0.192   0.046
    1UNL     O2   23  -0.197   0.292  -0.034
    1UNL    C20   24   0.035   0.140  -0.144
    1UNL     O3   25   0.066   0.082  -0.247
    1UNL     O4   26   0.070   0.269  -0.121
    1UNL    C21   27   0.120   0.326  -0.240
    1UNL     H1   28  -0.431  -0.223   0.178
    1UNL     H2   29  -0.541  -0.155   0.069
    1UNL     H3   30  -0.501  -0.063   0.217
    1UNL     H4   31  -0.380   0.045   0.050
    1UNL     H5   32  -0.251  -0.270   0.133
    1UNL     H6   33  -0.194  -0.304  -0.032
    1UNL     H7   34  -0.110  -0.191   0.302
    1UNL     H8   35   0.058  -0.209   0.295
    1UNL     H9   36  -0.115   0.027   0.222
    1UNL    H10   37   0.055   0.028   0.290
    1UNL    H11   38   0.189   0.265   0.085
    1UNL    H12   39   0.425   0.293   0.091
    1UNL    H13   40   0.568   0.099   0.040
    1UNL    H14   41   0.477  -0.140   0.062
    1UNL    H15   42   0.223  -0.267   0.021
    1UNL    H16   43   0.120  -0.124  -0.179
    1UNL    H17   44  -0.002  -0.366  -0.091
    1UNL    H18   45  -0.183  -0.192  -0.206
    1UNL    H19   46  -0.077  -0.089  -0.279
    1UNL    H20   47  -0.236   0.044  -0.146
    1UNL    H21   48  -0.207   0.144   0.107
    1UNL    H22   49  -0.056   0.240   0.102
    1UNL    H23   50  -0.136   0.327  -0.108
    1UNL    H24   51   0.149   0.432  -0.229
    1UNL    H25   52   0.041   0.313  -0.317
    1UNL    H26   53   0.205   0.266  -0.267
   0.00000   0.00000   0.00000   0.00000   0.00000   0.00000   0.00000   0.00000   0.00000
Generated with MDTraj, t= 63.0
 53
    1UNL     C1    1  -0.449  -0.145   0.133
    1UNL     C2    2  -0.369  -0.067   0.047
    1UNL     C3    3  -0.240  -0.098   0.022
    1UNL     C4    4  -0.174  -0.227   0.062
    1UNL     N1    5  -0.038  -0.227   0.121
    1UNL     C5    6  -0.015  -0.163   0.252
    1UNL     C6    7   0.004  -0.017   0.226
    1UNL     C7    8   0.039   0.000   0.071
    1UNL     C8    9   0.181   0.050   0.073
    1UNL     C9   10   0.239   0.176   0.085
    1UNL    C10   11   0.374   0.192   0.069
    1UNL    C11   12   0.460   0.088   0.053
    1UNL    C12   13   0.408  -0.042   0.036
    1UNL    C13   14   0.269  -0.058   0.051
    1UNL     N2   15   0.193  -0.175   0.043
    1UNL    C14   16   0.050  -0.146   0.026
    1UNL    C15   17   0.021  -0.174  -0.128
    1UNL     O1   18   0.020  -0.312  -0.149
    1UNL    C16   19  -0.104  -0.112  -0.184
    1UNL    C17   20  -0.171  -0.021  -0.088
    1UNL    C18   21  -0.063   0.084  -0.030
    1UNL    C19   22  -0.131   0.202   0.041
    1UNL     O2   23  -0.196   0.283  -0.059
    1UNL    C20   24   0.034   0.150  -0.135
    1UNL     O3   25   0.081   0.082  -0.224
    1UNL     O4   26   0.071   0.278  -0.125
    1UNL    C21   27   0.165   0.315  -0.221
    1UNL     H1   28  -0.415  -0.251   0.137
    1UNL     H2   29  -0.550  -0.157   0.095
    1UNL     H3   30  -0.454  -0.097   0.229
    1UNL     H4   31  -0.404   0.026   0.006
    1UNL     H5   32  -0.238  -0.261   0.143
    1UNL     H6   33  -0.187  -0.297  -0.030
    1UNL     H7   34  -0.087  -0.187   0.324
    1UNL     H8   35   0.076  -0.210   0.301
    1UNL     H9   36  -0.084   0.038   0.249
    1UNL    H10   37   0.080   0.020   0.296
    1UNL    H11   38   0.175   0.259   0.104
    1UNL    H12   39   0.419   0.288   0.055
    1UNL    H13   40   0.568   0.091   0.062
    1UNL    H14   41   0.473  -0.125   0.023
    1UNL    H15   42   0.235  -0.264   0.020
    1UNL    H16   43   0.116  -0.132  -0.183
    1UNL    H17   44  -0.001  -0.363  -0.070
    1UNL    H18   45  -0.167  -0.190  -0.215
    1UNL    H19   46  -0.086  -0.063  -0.273
    1UNL    H20   47  -0.257   0.039  -0.133
    1UNL    H21   48  -0.213   0.167   0.108
    1UNL    H22   49  -0.058   0.250   0.094
    1UNL    H23   50  -0.128   0.317  -0.118
    1UNL    H24   51   0.181   0.422  -0.219
    1UNL    H25   52   0.137   0.273  -0.320
    1UNL    H26   53   0.259   0.278  -0.189
   0.00000   0.00000   0.00000   0.00000   0.00000   0.00000   0.00000   0.00000   0.00000
Generated with MDTraj, t= 64.0
 53
    1UNL     C1    1  -0.456  -0.109   0.144
    1UNL     C2    2  -0.353  -0.050   0.056
    1UNL     C3    3  -0.234  -0.097   0.010
    1UNL     C4    4  -0.179  -0.222   0.060
    1UNL     N1    5  -0.037  -0.222   0.112
    1UNL     C5    6  -0.026  -0.159   0.247
    1UNL     C6    7  -0.001  -0.006   0.221
    1UNL     C7    8   0.045   0.003   0.064
    1UNL     C8    9   0.190   0.047   0.052
    1UNL     C9   10   0.241   0.179   0.077
    1UNL    C10   11   0.379   0.192   0.080
    1UNL    C11   12   0.463   0.084   0.068
    1UNL    C12   13   0.411  -0.041   0.058
    1UNL    C13   14   0.278  -0.062   0.050
    1UNL     N2   15   0.201  -0.186   0.043
    1UNL    C14   16   0.061  -0.155   0.024
    1UNL    C15   17   0.025  -0.189  -0.131
    1UNL     O1   18   0.034  -0.326  -0.153
    1UNL    C16   19  -0.105  -0.130  -0.184
    1UNL    C17   20  -0.156  -0.017  -0.095
    1UNL    C18   21  -0.049   0.077  -0.030
    1UNL    C19   22  -0.129   0.194   0.044
    1UNL     O2   23  -0.221   0.267  -0.040
    1UNL    C20   24   0.026   0.148  -0.142
    1UNL     O3   25   0.075   0.077  -0.231
    1UNL     O4   26   0.039   0.286  -0.136
    1UNL    C21   27   0.157   0.330  -0.207
    1UNL     H1   28  -0.541  -0.144   0.077
    1UNL     H2   29  -0.500  -0.035   0.207
    1UNL     H3   30  -0.417  -0.184   0.209
    1UNL     H4   31  -0.382   0.050   0.021
    1UNL     H5   32  -0.244  -0.267   0.138
    1UNL     H6   33  -0.183  -0.297  -0.027
    1UNL     H7   34  -0.107  -0.182   0.310
    1UNL     H8   35   0.054  -0.214   0.307
    1UNL     H9   36  -0.088   0.043   0.250
    1UNL    H10   37   0.074   0.034   0.290
    1UNL    H11   38   0.172   0.258   0.095
    1UNL    H12   39   0.429   0.287   0.095
    1UNL    H13   40   0.571   0.091   0.070
    1UNL    H14   41   0.478  -0.128   0.069
    1UNL    H15   42   0.239  -0.264  -0.010
    1UNL    H16   43   0.106  -0.135  -0.191
    1UNL    H17   44  -0.002  -0.383  -0.077
    1UNL    H18   45  -0.168  -0.212  -0.205
    1UNL    H19   46  -0.099  -0.086  -0.285
    1UNL    H20   47  -0.220   0.063  -0.147
    1UNL    H21   48  -0.183   0.149   0.129
    1UNL    H22   49  -0.073   0.268   0.088
    1UNL    H23   50  -0.161   0.309  -0.111
    1UNL    H24   51   0.200   0.422  -0.167
    1UNL    H25   52   0.135   0.332  -0.315
    1UNL    H26   53   0.239   0.265  -0.192
   0.00000   0.00000   0.00000   0.00000   0.00000   0.00000   0.00000   0.00000   0.00000
Generated with MDTraj, t= 65.0
 53
    1UNL     C1    1  -0.407  -0.077   0.178
    1UNL     C2    2  -0.345  -0.028   0.057
    1UNL     C3    3  -0.234  -0.095   0.007
    1UNL     C4    4  -0.188  -0.232   0.049
    1UNL     N1    5  -0.056  -0.231   0.107
    1UNL     C5    6  -0.041  -0.157   0.231
    1UNL     C6    7  -0.020  -0.006   0.207
    1UNL     C7    8   0.042  -0.005   0.065
    1UNL     C8    9   0.192   0.040   0.075
    1UNL     C9   10   0.257   0.163   0.074
    1UNL    C10   11   0.393   0.174   0.071
    1UNL    C11   12   0.471   0.061   0.089
    1UNL    C12   13   0.411  -0.063   0.082
    1UNL    C13   14   0.276  -0.070   0.083
    1UNL     N2   15   0.193  -0.187   0.057
    1UNL    C14   16   0.050  -0.152   0.022
    1UNL    C15   17   0.042  -0.182  -0.132
    1UNL     O1   18   0.079  -0.320  -0.168
    1UNL    C16   19  -0.093  -0.131  -0.196
    1UNL    C17   20  -0.153  -0.022  -0.094
    1UNL    C18   21  -0.052   0.080  -0.034
    1UNL    C19   22  -0.139   0.192   0.038
    1UNL     O2   23  -0.218   0.260  -0.048
    1UNL    C20   24   0.030   0.155  -0.139
    1UNL     O3   25   0.075   0.091  -0.232
    1UNL     O4   26   0.046   0.290  -0.124
    1UNL    C21   27   0.071   0.353  -0.246
    1UNL     H1   28  -0.492  -0.147   0.155
    1UNL     H2   29  -0.449  -0.005   0.248
    1UNL     H3   30  -0.336  -0.127   0.240
    1UNL     H4   31  -0.388   0.063   0.017
    1UNL     H5   32  -0.256  -0.278   0.128
    1UNL     H6   33  -0.179  -0.303  -0.036
    1UNL     H7   34  -0.125  -0.175   0.293
    1UNL     H8   35   0.046  -0.199   0.290
    1UNL     H9   36  -0.119   0.036   0.216
    1UNL    H10   37   0.045   0.044   0.278
    1UNL    H11   38   0.196   0.257   0.052
    1UNL    H12   39   0.438   0.267   0.047
    1UNL    H13   40   0.577   0.067   0.096
    1UNL    H14   41   0.469  -0.153   0.067
    1UNL    H15   42   0.234  -0.276   0.029
    1UNL    H16   43   0.128  -0.123  -0.176
    1UNL    H17   44   0.028  -0.392  -0.122
    1UNL    H18   45  -0.166  -0.208  -0.216
    1UNL    H19   46  -0.047  -0.082  -0.290
    1UNL    H20   47  -0.232   0.034  -0.156
    1UNL    H21   48  -0.211   0.163   0.119
    1UNL    H22   49  -0.076   0.255   0.089
    1UNL    H23   50  -0.158   0.298  -0.112
    1UNL    H24   51   0.065   0.462  -0.230
    1UNL    H25   52  -0.010   0.312  -0.312
    1UNL    H26   53   0.169   0.339  -0.288
   0.00000   0.00000   0.00000   0.00000   0.00000   0.00000   0.00000   0.00000   0.00000
Generated with MDTraj, t= 66.0
 53
    1UNL     C1    1  -0.412  -0.088   0.185
    1UNL     C2    2  -0.335  -0.025   0.075
    1UNL     C3    3  -0.237  -0.088   0.003
    1UNL     C4    4  -0.193  -0.225   0.042
    1UNL     N1    5  -0.052  -0.228   0.100
    1UNL     C5    6  -0.050  -0.161   0.234
    1UNL     C6    7  -0.007  -0.014   0.210
    1UNL     C7    8   0.046  -0.003   0.061
    1UNL     C8    9   0.196   0.034   0.052
    1UNL     C9   10   0.261   0.159   0.052
    1UNL    C10   11   0.395   0.170   0.081
    1UNL    C11   12   0.469   0.057   0.100
    1UNL    C12   13   0.411  -0.068   0.095
    1UNL    C13   14   0.273  -0.083   0.079
    1UNL     N2   15   0.187  -0.195   0.072
    1UNL    C14   16   0.052  -0.154   0.025
    1UNL    C15   17   0.044  -0.184  -0.129
    1UNL     O1   18   0.078  -0.319  -0.171
    1UNL    C16   19  -0.083  -0.117  -0.199
    1UNL    C17   20  -0.152  -0.012  -0.098
    1UNL    C18   21  -0.049   0.089  -0.028
    1UNL    C19   22  -0.127   0.196   0.048
    1UNL     O2   23  -0.227   0.246  -0.032
    1UNL    C20   24   0.026   0.165  -0.142
    1UNL     O3   25   0.093   0.094  -0.214
    1UNL     O4   26   0.003   0.301  -0.161
    1UNL    C21   27   0.076   0.355  -0.267
    1UNL     H1   28  -0.368  -0.177   0.228
    1UNL     H2   29  -0.513  -0.122   0.162
    1UNL     H3   30  -0.422  -0.019   0.270
    1UNL     H4   31  -0.357   0.078   0.047
    1UNL     H5   32  -0.262  -0.273   0.121
    1UNL     H6   33  -0.195  -0.286  -0.048
    1UNL     H7   34  -0.148  -0.154   0.277
    1UNL     H8   35   0.023  -0.213   0.304
    1UNL     H9   36  -0.090   0.056   0.229
    1UNL    H10   37   0.065  -0.003   0.288
    1UNL    H11   38   0.205   0.243   0.034
    1UNL    H12   39   0.455   0.263   0.084
    1UNL    H13   40   0.573   0.053   0.133
    1UNL    H14   41   0.463  -0.159   0.106
    1UNL    H15   42   0.220  -0.289   0.045
    1UNL    H16   43   0.133  -0.126  -0.160
    1UNL    H17   44   0.036  -0.370  -0.104
    1UNL    H18   45  -0.139  -0.210  -0.233
    1UNL    H19   46  -0.051  -0.056  -0.291
    1UNL    H20   47  -0.209   0.055  -0.173
    1UNL    H21   48  -0.179   0.151   0.136
    1UNL    H22   49  -0.077   0.278   0.089
    1UNL    H23   50  -0.188   0.296  -0.112
    1UNL    H24   51   0.075   0.466  -0.255
    1UNL    H25   52   0.019   0.327  -0.360
    1UNL    H26   53   0.180   0.327  -0.275
   0.00000   0.00000   0.00000   0.00000   0.00000   0.00000   0.00000   0.00000   0.00000
Generated with MDTraj, t= 67.0
 53
    1UNL     C1    1  -0.442  -0.109   0.154
    1UNL     C2    2  -0.363  -0.042   0.043
    1UNL     C3    3  -0.240  -0.088   0.006
    1UNL     C4    4  -0.186  -0.220   0.052
    1UNL     N1    5  -0.043  -0.217   0.108
    1UNL     C5    6  -0.033  -0.156   0.245
    1UNL     C6    7   0.009  -0.010   0.221
    1UNL     C7    8   0.050   0.003   0.072
    1UNL     C8    9   0.199   0.045   0.065
    1UNL     C9   10   0.256   0.171   0.077
    1UNL    C10   11   0.398   0.172   0.091
    1UNL    C11   12   0.475   0.056   0.088
    1UNL    C12   13   0.416  -0.060   0.063
    1UNL    C13   14   0.277  -0.068   0.060
    1UNL     N2   15   0.196  -0.184   0.049
    1UNL    C14   16   0.057  -0.152   0.018
    1UNL    C15   17   0.036  -0.173  -0.136
    1UNL     O1   18   0.023  -0.309  -0.168
    1UNL    C16   19  -0.087  -0.105  -0.192
    1UNL    C17   20  -0.157  -0.012  -0.091
    1UNL    C18   21  -0.047   0.081  -0.025
    1UNL    C19   22  -0.117   0.191   0.054
    1UNL     O2   23  -0.211   0.258  -0.026
    1UNL    C20   24   0.032   0.151  -0.136
    1UNL     O3   25   0.117   0.077  -0.178
    1UNL     O4   26  -0.010   0.276  -0.178
    1UNL    C21   27   0.083   0.335  -0.263
    1UNL     H1   28  -0.442  -0.045   0.238
    1UNL     H2   29  -0.397  -0.200   0.187
    1UNL     H3   30  -0.548  -0.124   0.121
    1UNL     H4   31  -0.397   0.052   0.004
    1UNL     H5   32  -0.253  -0.285   0.120
    1UNL     H6   33  -0.175  -0.277  -0.039
    1UNL     H7   34  -0.125  -0.166   0.304
    1UNL     H8   35   0.054  -0.209   0.294
    1UNL     H9   36  -0.076   0.051   0.255
    1UNL    H10   37   0.091   0.016   0.282
    1UNL    H11   38   0.197   0.265   0.066
    1UNL    H12   39   0.443   0.265   0.108
    1UNL    H13   40   0.579   0.063   0.104
    1UNL    H14   41   0.469  -0.156   0.069
    1UNL    H15   42   0.248  -0.264   0.009
    1UNL    H16   43   0.126  -0.137  -0.184
    1UNL    H17   44   0.031  -0.371  -0.091
    1UNL    H18   45  -0.165  -0.184  -0.232
    1UNL    H19   46  -0.054  -0.055  -0.291
    1UNL    H20   47  -0.227   0.055  -0.154
    1UNL    H21   48  -0.183   0.159   0.137
    1UNL    H22   49  -0.049   0.260   0.098
    1UNL    H23   50  -0.177   0.286  -0.110
    1UNL    H24   51   0.044   0.423  -0.318
    1UNL    H25   52   0.114   0.259  -0.340
    1UNL    H26   53   0.168   0.367  -0.206
   0.00000   0.00000   0.00000   0.00000   0.00000   0.00000   0.00000   0.00000   0.00000
Generated with MDTraj, t= 68.0
 53
    1UNL     C1    1  -0.447  -0.136   0.111
    1UNL     C2    2  -0.349  -0.039   0.059
    1UNL     C3    3  -0.230  -0.083   0.013
    1UNL     C4    4  -0.173  -0.219   0.052
    1UNL     N1    5  -0.039  -0.224   0.109
    1UNL     C5    6  -0.020  -0.167   0.242
    1UNL     C6    7  -0.006  -0.017   0.224
    1UNL     C7    8   0.044   0.000   0.079
    1UNL     C8    9   0.190   0.045   0.090
    1UNL     C9   10   0.249   0.163   0.104
    1UNL    C10   11   0.387   0.179   0.093
    1UNL    C11   12   0.466   0.071   0.059
    1UNL    C12   13   0.406  -0.049   0.034
    1UNL    C13   14   0.267  -0.066   0.056
    1UNL     N2   15   0.197  -0.187   0.050
    1UNL    C14   16   0.053  -0.151   0.023
    1UNL    C15   17   0.026  -0.186  -0.134
    1UNL     O1   18   0.002  -0.325  -0.152
    1UNL    C16   19  -0.091  -0.097  -0.188
    1UNL    C17   20  -0.152  -0.003  -0.084
    1UNL    C18   21  -0.046   0.097  -0.016
    1UNL    C19   22  -0.107   0.207   0.065
    1UNL     O2   23  -0.196   0.273  -0.024
    1UNL    C20   24   0.038   0.151  -0.133
    1UNL     O3   25   0.125   0.079  -0.177
    1UNL     O4   26   0.009   0.284  -0.177
    1UNL    C21   27   0.080   0.318  -0.290
    1UNL     H1   28  -0.548  -0.111   0.090
    1UNL     H2   29  -0.436  -0.145   0.216
    1UNL     H3   30  -0.437  -0.236   0.061
    1UNL     H4   31  -0.373   0.064   0.032
    1UNL     H5   32  -0.238  -0.264   0.133
    1UNL     H6   33  -0.175  -0.292  -0.028
    1UNL     H7   34  -0.105  -0.203   0.300
    1UNL     H8   35   0.075  -0.203   0.288
    1UNL     H9   36  -0.100   0.029   0.246
    1UNL    H10   37   0.053   0.031   0.297
    1UNL    H11   38   0.195   0.254   0.118
    1UNL    H12   39   0.430   0.282   0.085
    1UNL    H13   40   0.575   0.080   0.057
    1UNL    H14   41   0.456  -0.140   0.016
    1UNL    H15   42   0.244  -0.251  -0.016
    1UNL    H16   43   0.118  -0.163  -0.179
    1UNL    H17   44   0.035  -0.382  -0.073
    1UNL    H18   45  -0.178  -0.169  -0.228
    1UNL    H19   46  -0.073  -0.047  -0.293
    1UNL    H20   47  -0.231   0.067  -0.132
    1UNL    H21   48  -0.168   0.166   0.144
    1UNL    H22   49  -0.032   0.277   0.104
    1UNL    H23   50  -0.143   0.311  -0.101
    1UNL    H24   51   0.071   0.426  -0.309
    1UNL    H25   52   0.051   0.261  -0.380
    1UNL    H26   53   0.182   0.306  -0.264
   0.00000   0.00000   0.00000   0.00000   0.00000   0.00000   0.00000   0.00000   0.00000
Generated with MDTraj, t= 69.0
 53
    1UNL     C1    1  -0.461  -0.125   0.139
    1UNL     C2    2  -0.366  -0.055   0.049
    1UNL     C3    3  -0.239  -0.089   0.021
    1UNL     C4    4  -0.186  -0.229   0.050
    1UNL     N1    5  -0.043  -0.219   0.103
    1UNL     C5    6  -0.021  -0.169   0.241
    1UNL     C6    7   0.001  -0.018   0.223
    1UNL     C7    8   0.049   0.006   0.073
    1UNL     C8    9   0.199   0.050   0.081
    1UNL     C9   10   0.252   0.172   0.084
    1UNL    C10   11   0.390   0.187   0.086
    1UNL    C11   12   0.467   0.074   0.063
    1UNL    C12   13   0.414  -0.053   0.063
    1UNL    C13   14   0.274  -0.070   0.072
    1UNL     N2   15   0.193  -0.181   0.041
    1UNL    C14   16   0.050  -0.147   0.018
    1UNL    C15   17   0.023  -0.179  -0.135
    1UNL     O1   18   0.034  -0.314  -0.178
    1UNL    C16   19  -0.103  -0.103  -0.185
    1UNL    C17   20  -0.159  -0.005  -0.080
    1UNL    C18   21  -0.047   0.092  -0.010
    1UNL    C19   22  -0.112   0.205   0.069
    1UNL     O2   23  -0.193   0.276  -0.024
    1UNL    C20   24   0.033   0.149  -0.133
    1UNL     O3   25   0.114   0.073  -0.177
    1UNL     O4   26   0.017   0.279  -0.173
    1UNL    C21   27   0.096   0.311  -0.286
    1UNL     H1   28  -0.550  -0.069   0.156
    1UNL     H2   29  -0.416  -0.135   0.237
    1UNL     H3   30  -0.500  -0.219   0.096
    1UNL     H4   31  -0.397   0.028  -0.008
    1UNL     H5   32  -0.253  -0.287   0.116
    1UNL     H6   33  -0.187  -0.298  -0.036
    1UNL     H7   34  -0.107  -0.192   0.306
    1UNL     H8   35   0.064  -0.228   0.282
    1UNL     H9   36  -0.077   0.047   0.253
    1UNL    H10   37   0.072   0.014   0.294
    1UNL    H11   38   0.192   0.260   0.073
    1UNL    H12   39   0.436   0.281   0.085
    1UNL    H13   40   0.570   0.083   0.037
    1UNL    H14   41   0.467  -0.151   0.055
    1UNL    H15   42   0.228  -0.274   0.014
    1UNL    H16   43   0.116  -0.142  -0.168
    1UNL    H17   44   0.036  -0.371  -0.102
    1UNL    H18   45  -0.177  -0.172  -0.244
    1UNL    H19   46  -0.071  -0.040  -0.281
    1UNL    H20   47  -0.227   0.078  -0.120
    1UNL    H21   48  -0.172   0.163   0.143
    1UNL    H22   49  -0.028   0.267   0.108
    1UNL    H23   50  -0.138   0.306  -0.099
    1UNL    H24   51   0.124   0.415  -0.280
    1UNL    H25   52   0.049   0.285  -0.383
    1UNL    H26   53   0.187   0.260  -0.271
   0.00000   0.00000   0.00000   0.00000   0.00000   0.00000   0.00000   0.00000   0.00000
Generated with MDTraj, t= 70.0
 53
    1UNL     C1    1  -0.430  -0.099   0.177
    1UNL     C2    2  -0.348  -0.042   0.065
    1UNL     C3    3  -0.240  -0.096   0.010
    1UNL     C4    4  -0.183  -0.229   0.043
    1UNL     N1    5  -0.050  -0.222   0.104
    1UNL     C5    6  -0.034  -0.155   0.238
    1UNL     C6    7   0.003  -0.011   0.210
    1UNL     C7    8   0.050   0.002   0.061
    1UNL     C8    9   0.193   0.043   0.066
    1UNL     C9   10   0.251   0.170   0.077
    1UNL    C10   11   0.393   0.173   0.080
    1UNL    C11   12   0.463   0.053   0.088
    1UNL    C12   13   0.407  -0.068   0.075
    1UNL    C13   14   0.268  -0.073   0.068
    1UNL     N2   15   0.192  -0.193   0.057
    1UNL    C14   16   0.058  -0.158   0.020
    1UNL    C15   17   0.035  -0.182  -0.132
    1UNL     O1   18   0.065  -0.326  -0.167
    1UNL    C16   19  -0.097  -0.111  -0.191
    1UNL    C17   20  -0.162  -0.015  -0.089
    1UNL    C18   21  -0.048   0.089  -0.030
    1UNL    C19   22  -0.119   0.209   0.053
    1UNL     O2   23  -0.215   0.260  -0.031
    1UNL    C20   24   0.030   0.158  -0.142
    1UNL     O3   25   0.088   0.088  -0.220
    1UNL     O4   26   0.012   0.293  -0.158
    1UNL    C21   27   0.097   0.347  -0.254
    1UNL     H1   28  -0.506  -0.026   0.204
    1UNL     H2   29  -0.360  -0.115   0.259
    1UNL     H3   30  -0.484  -0.184   0.141
    1UNL     H4   31  -0.376   0.055   0.025
    1UNL     H5   32  -0.246  -0.292   0.104
    1UNL     H6   33  -0.175  -0.292  -0.047
    1UNL     H7   34  -0.126  -0.167   0.301
    1UNL     H8   35   0.049  -0.205   0.288
    1UNL     H9   36  -0.083   0.051   0.223
    1UNL    H10   37   0.074   0.028   0.276
    1UNL    H11   38   0.192   0.263   0.073
    1UNL    H12   39   0.443   0.270   0.099
    1UNL    H13   40   0.569   0.060   0.108
    1UNL    H14   41   0.459  -0.160   0.075
    1UNL    H15   42   0.240  -0.263  -0.003
    1UNL    H16   43   0.120  -0.139  -0.179
    1UNL    H17   44   0.008  -0.397  -0.124
    1UNL    H18   45  -0.172  -0.182  -0.233
    1UNL    H19   46  -0.057  -0.070  -0.295
    1UNL    H20   47  -0.245   0.049  -0.135
    1UNL    H21   48  -0.171   0.173   0.137
    1UNL    H22   49  -0.040   0.286   0.084
    1UNL    H23   50  -0.169   0.285  -0.113
    1UNL    H24   51   0.055   0.440  -0.295
    1UNL    H25   52   0.124   0.271  -0.331
    1UNL    H26   53   0.178   0.378  -0.193
   0.00000   0.00000   0.00000   0.00000   0.00000   0.00000   0.00000   0.00000   0.00000
Generated with MDTraj, t= 71.0
 53
    1UNL     C1    1  -0.409  -0.068   0.194
    1UNL     C2    2  -0.340  -0.034   0.060
    1UNL     C3    3  -0.232  -0.090   0.005
    1UNL     C4    4  -0.177  -0.227   0.042
    1UNL     N1    5  -0.045  -0.226   0.101
    1UNL     C5    6  -0.028  -0.155   0.233
    1UNL     C6    7  -0.004  -0.008   0.213
    1UNL     C7    8   0.040   0.001   0.058
    1UNL     C8    9   0.186   0.041   0.052
    1UNL     C9   10   0.253   0.160   0.062
    1UNL    C10   11   0.387   0.169   0.078
    1UNL    C11   12   0.470   0.056   0.091
    1UNL    C12   13   0.405  -0.068   0.089
    1UNL    C13   14   0.269  -0.073   0.062
    1UNL     N2   15   0.189  -0.189   0.051
    1UNL    C14   16   0.052  -0.148   0.017
    1UNL    C15   17   0.044  -0.192  -0.135
    1UNL     O1   18   0.050  -0.330  -0.155
    1UNL    C16   19  -0.077  -0.123  -0.195
    1UNL    C17   20  -0.149  -0.019  -0.103
    1UNL    C18   21  -0.054   0.085  -0.034
    1UNL    C19   22  -0.133   0.200   0.034
    1UNL     O2   23  -0.229   0.241  -0.051
    1UNL    C20   24   0.028   0.157  -0.136
    1UNL     O3   25   0.073   0.090  -0.227
    1UNL     O4   26   0.031   0.295  -0.112
    1UNL    C21   27   0.087   0.357  -0.229
    1UNL     H1   28  -0.501  -0.007   0.211
    1UNL     H2   29  -0.335  -0.048   0.273
    1UNL     H3   30  -0.445  -0.165   0.197
    1UNL     H4   31  -0.368   0.058   0.014
    1UNL     H5   32  -0.244  -0.283   0.101
    1UNL     H6   33  -0.170  -0.278  -0.055
    1UNL     H7   34  -0.120  -0.168   0.299
    1UNL     H8   35   0.060  -0.197   0.280
    1UNL     H9   36  -0.097   0.046   0.242
    1UNL    H10   37   0.074   0.028   0.270
    1UNL    H11   38   0.196   0.247   0.066
    1UNL    H12   39   0.434   0.263   0.091
    1UNL    H13   40   0.572   0.053   0.122
    1UNL    H14   41   0.452  -0.166   0.091
    1UNL    H15   42   0.202  -0.277  -0.005
    1UNL    H16   43   0.132  -0.147  -0.179
    1UNL    H17   44  -0.011  -0.370  -0.086
    1UNL    H18   45  -0.135  -0.207  -0.234
    1UNL    H19   46  -0.049  -0.069  -0.294
    1UNL    H20   47  -0.215   0.037  -0.176
    1UNL    H21   48  -0.175   0.173   0.130
    1UNL    H22   49  -0.067   0.292   0.055
    1UNL    H23   50  -0.186   0.269  -0.137
    1UNL    H24   51   0.026   0.442  -0.268
    1UNL    H25   52   0.100   0.276  -0.306
    1UNL    H26   53   0.181   0.398  -0.198
   0.00000   0.00000   0.00000   0.00000   0.00000   0.00000   0.00000   0.00000   0.00000
Generated with MDTraj, t= 72.0
 53
    1UNL     C1    1  -0.446  -0.103   0.159
    1UNL     C2    2  -0.359  -0.041   0.055
    1UNL     C3    3  -0.249  -0.096   0.007
    1UNL     C4    4  -0.180  -0.226   0.053
    1UNL     N1    5  -0.038  -0.223   0.104
    1UNL     C5    6  -0.030  -0.151   0.237
    1UNL     C6    7  -0.002  -0.007   0.210
    1UNL     C7    8   0.050  -0.002   0.063
    1UNL     C8    9   0.188   0.045   0.063
    1UNL     C9   10   0.243   0.173   0.070
    1UNL    C10   11   0.381   0.181   0.069
    1UNL    C11   12   0.462   0.069   0.078
    1UNL    C12   13   0.403  -0.059   0.074
    1UNL    C13   14   0.270  -0.069   0.059
    1UNL     N2   15   0.199  -0.187   0.055
    1UNL    C14   16   0.063  -0.153   0.022
    1UNL    C15   17   0.038  -0.187  -0.131
    1UNL     O1   18   0.055  -0.326  -0.157
    1UNL    C16   19  -0.088  -0.114  -0.191
    1UNL    C17   20  -0.159  -0.015  -0.083
    1UNL    C18   21  -0.048   0.078  -0.029
    1UNL    C19   22  -0.114   0.193   0.050
    1UNL     O2   23  -0.203   0.271  -0.030
    1UNL    C20   24   0.021   0.152  -0.146
    1UNL     O3   25   0.063   0.084  -0.237
    1UNL     O4   26   0.031   0.285  -0.135
    1UNL    C21   27   0.127   0.332  -0.222
    1UNL     H1   28  -0.525  -0.040   0.207
    1UNL     H2   29  -0.387  -0.143   0.241
    1UNL     H3   30  -0.507  -0.180   0.123
    1UNL     H4   31  -0.397   0.058   0.026
    1UNL     H5   32  -0.237  -0.255   0.136
    1UNL     H6   33  -0.182  -0.304  -0.023
    1UNL     H7   34  -0.130  -0.159   0.293
    1UNL     H8   35   0.049  -0.198   0.293
    1UNL     H9   36  -0.088   0.058   0.234
    1UNL    H10   37   0.077   0.024   0.274
    1UNL    H11   38   0.174   0.261   0.068
    1UNL    H12   39   0.432   0.278   0.071
    1UNL    H13   40   0.570   0.077   0.069
    1UNL    H14   41   0.468  -0.144   0.073
    1UNL    H15   42   0.241  -0.277   0.022
    1UNL    H16   43   0.119  -0.144  -0.195
    1UNL    H17   44  -0.015  -0.382  -0.125
    1UNL    H18   45  -0.150  -0.193  -0.224
    1UNL    H19   46  -0.054  -0.055  -0.280
    1UNL    H20   47  -0.228   0.049  -0.143
    1UNL    H21   48  -0.182   0.160   0.130
    1UNL    H22   49  -0.043   0.268   0.100
    1UNL    H23   50  -0.162   0.300  -0.114
    1UNL    H24   51   0.150   0.439  -0.200
    1UNL    H25   52   0.085   0.317  -0.325
    1UNL    H26   53   0.219   0.276  -0.209
   0.00000   0.00000   0.00000   0.00000   0.00000   0.00000   0.00000   0.00000   0.00000
Generated with MDTraj, t= 73.0
 53
    1UNL     C1    1  -0.473  -0.154   0.131
    1UNL     C2    2  -0.372  -0.068   0.051
    1UNL     C3    3  -0.244  -0.095   0.031
    1UNL     C4    4  -0.190  -0.222   0.073
    1UNL     N1    5  -0.050  -0.216   0.115
    1UNL     C5    6  -0.020  -0.153   0.242
    1UNL     C6    7  -0.008  -0.002   0.213
    1UNL     C7    8   0.044   0.006   0.072
    1UNL     C8    9   0.187   0.045   0.071
    1UNL     C9   10   0.243   0.175   0.078
    1UNL    C10   11   0.385   0.187   0.065
    1UNL    C11   12   0.463   0.075   0.049
    1UNL    C12   13   0.407  -0.052   0.049
    1UNL    C13   14   0.271  -0.063   0.056
    1UNL     N2   15   0.189  -0.183   0.053
    1UNL    C14   16   0.048  -0.147   0.018
    1UNL    C15   17   0.037  -0.170  -0.134
    1UNL     O1   18   0.047  -0.309  -0.163
    1UNL    C16   19  -0.092  -0.106  -0.190
    1UNL    C17   20  -0.160  -0.013  -0.074
    1UNL    C18   21  -0.048   0.086  -0.020
    1UNL    C19   22  -0.126   0.198   0.060
    1UNL     O2   23  -0.187   0.281  -0.041
    1UNL    C20   24   0.033   0.148  -0.132
    1UNL     O3   25   0.077   0.075  -0.221
    1UNL     O4   26   0.069   0.278  -0.131
    1UNL    C21   27   0.144   0.313  -0.239
    1UNL     H1   28  -0.579  -0.124   0.111
    1UNL     H2   29  -0.455  -0.148   0.236
    1UNL     H3   30  -0.476  -0.258   0.106
    1UNL     H4   31  -0.433   0.006   0.005
    1UNL     H5   32  -0.243  -0.277   0.146
    1UNL     H6   33  -0.192  -0.281  -0.019
    1UNL     H7   34  -0.112  -0.178   0.306
    1UNL     H8   35   0.067  -0.203   0.280
    1UNL     H9   36  -0.100   0.051   0.223
    1UNL    H10   37   0.062   0.048   0.282
    1UNL    H11   38   0.176   0.255   0.094
    1UNL    H12   39   0.426   0.287   0.063
    1UNL    H13   40   0.568   0.084   0.019
    1UNL    H14   41   0.473  -0.136   0.035
    1UNL    H15   42   0.216  -0.257  -0.013
    1UNL    H16   43   0.122  -0.125  -0.192
    1UNL    H17   44   0.002  -0.366  -0.093
    1UNL    H18   45  -0.158  -0.183  -0.217
    1UNL    H19   46  -0.057  -0.044  -0.269
    1UNL    H20   47  -0.236   0.051  -0.121
    1UNL    H21   48  -0.208   0.171   0.131
    1UNL    H22   49  -0.060   0.270   0.120
    1UNL    H23   50  -0.112   0.314  -0.098
    1UNL    H24   51   0.202   0.401  -0.210
    1UNL    H25   52   0.067   0.340  -0.316
    1UNL    H26   53   0.211   0.237  -0.273
   0.00000   0.00000   0.00000   0.00000   0.00000   0.00000   0.00000   0.00000   0.00000
Generated with MDTraj, t= 74.0
 53
    1UNL     C1    1  -0.475  -0.142   0.114
    1UNL     C2    2  -0.367  -0.054   0.048
    1UNL     C3    3  -0.243  -0.095   0.024
    1UNL     C4    4  -0.186  -0.222   0.078
    1UNL     N1    5  -0.041  -0.217   0.112
    1UNL     C5    6  -0.017  -0.149   0.241
    1UNL     C6    7   0.002  -0.000   0.211
    1UNL     C7    8   0.050   0.003   0.066
    1UNL     C8    9   0.189   0.049   0.070
    1UNL     C9   10   0.245   0.173   0.073
    1UNL    C10   11   0.379   0.182   0.068
    1UNL    C11   12   0.464   0.072   0.044
    1UNL    C12   13   0.406  -0.058   0.041
    1UNL    C13   14   0.269  -0.067   0.052
    1UNL     N2   15   0.199  -0.186   0.048
    1UNL    C14   16   0.053  -0.146   0.025
    1UNL    C15   17   0.032  -0.184  -0.122
    1UNL     O1   18   0.033  -0.329  -0.147
    1UNL    C16   19  -0.089  -0.111  -0.182
    1UNL    C17   20  -0.162  -0.013  -0.086
    1UNL    C18   21  -0.053   0.085  -0.017
    1UNL    C19   22  -0.134   0.194   0.055
    1UNL     O2   23  -0.196   0.274  -0.042
    1UNL    C20   24   0.032   0.149  -0.132
    1UNL     O3   25   0.073   0.086  -0.229
    1UNL     O4   26   0.061   0.283  -0.119
    1UNL    C21   27   0.148   0.335  -0.225
    1UNL     H1   28  -0.574  -0.096   0.109
    1UNL     H2   29  -0.445  -0.167   0.213
    1UNL     H3   30  -0.490  -0.237   0.060
    1UNL     H4   31  -0.408   0.045   0.025
    1UNL     H5   32  -0.244  -0.246   0.165
    1UNL     H6   33  -0.201  -0.306   0.010
    1UNL     H7   34  -0.098  -0.178   0.318
    1UNL     H8   35   0.072  -0.194   0.280
    1UNL     H9   36  -0.090   0.047   0.225
    1UNL    H10   37   0.076   0.060   0.273
    1UNL    H11   38   0.184   0.259   0.091
    1UNL    H12   39   0.423   0.277   0.078
    1UNL    H13   40   0.570   0.079   0.031
    1UNL    H14   41   0.465  -0.145   0.020
    1UNL    H15   42   0.228  -0.258  -0.020
    1UNL    H16   43   0.124  -0.152  -0.181
    1UNL    H17   44   0.037  -0.359  -0.050
    1UNL    H18   45  -0.153  -0.187  -0.216
    1UNL    H19   46  -0.064  -0.055  -0.260
    1UNL    H20   47  -0.223   0.051  -0.150
    1UNL    H21   48  -0.216   0.150   0.117
    1UNL    H22   49  -0.078   0.262   0.128
    1UNL    H23   50  -0.126   0.327  -0.084
    1UNL    H24   51   0.129   0.439  -0.251
    1UNL    H25   52   0.133   0.268  -0.310
    1UNL    H26   53   0.251   0.333  -0.200
   0.00000   0.00000   0.00000   0.00000   0.00000   0.00000   0.00000   0.00000   0.00000
Generated with MDTraj, t= 75.0
 53
    1UNL     C1    1  -0.449  -0.100   0.150
    1UNL     C2    2  -0.357  -0.050   0.044
    1UNL     C3    3  -0.241  -0.094   0.004
    1UNL     C4    4  -0.184  -0.224   0.058
    1UNL     N1    5  -0.039  -0.209   0.111
    1UNL     C5    6  -0.045  -0.136   0.239
    1UNL     C6    7   0.018  -0.008   0.212
    1UNL     C7    8   0.055   0.002   0.064
    1UNL     C8    9   0.198   0.043   0.061
    1UNL     C9   10   0.252   0.170   0.054
    1UNL    C10   11   0.390   0.181   0.055
    1UNL    C11   12   0.470   0.064   0.069
    1UNL    C12   13   0.412  -0.062   0.072
    1UNL    C13   14   0.273  -0.076   0.065
    1UNL     N2   15   0.195  -0.192   0.058
    1UNL    C14   16   0.059  -0.156   0.019
    1UNL    C15   17   0.040  -0.185  -0.132
    1UNL     O1   18   0.019  -0.327  -0.142
    1UNL    C16   19  -0.075  -0.111  -0.198
    1UNL    C17   20  -0.155  -0.023  -0.097
    1UNL    C18   21  -0.052   0.075  -0.034
    1UNL    C19   22  -0.122   0.182   0.045
    1UNL     O2   23  -0.222   0.254  -0.022
    1UNL    C20   24   0.026   0.156  -0.138
    1UNL     O3   25   0.073   0.092  -0.227
    1UNL     O4   26   0.025   0.290  -0.132
    1UNL    C21   27   0.121   0.347  -0.209
    1UNL     H1   28  -0.500  -0.022   0.203
    1UNL     H2   29  -0.396  -0.167   0.215
    1UNL     H3   30  -0.534  -0.162   0.113
    1UNL     H4   31  -0.392   0.039  -0.001
    1UNL     H5   32  -0.240  -0.270   0.138
    1UNL     H6   33  -0.175  -0.290  -0.028
    1UNL     H7   34  -0.154  -0.127   0.271
    1UNL     H8   35   0.003  -0.185   0.321
    1UNL     H9   36  -0.049   0.072   0.235
    1UNL    H10   37   0.112   0.003   0.274
    1UNL    H11   38   0.190   0.257   0.034
    1UNL    H12   39   0.435   0.282   0.077
    1UNL    H13   40   0.575   0.090   0.065
    1UNL    H14   41   0.474  -0.148   0.075
    1UNL    H15   42   0.196  -0.258   0.136
    1UNL    H16   43   0.142  -0.166  -0.185
    1UNL    H17   44   0.094  -0.380  -0.117
    1UNL    H18   45  -0.143  -0.175  -0.244
    1UNL    H19   46  -0.046  -0.062  -0.283
    1UNL    H20   47  -0.226   0.037  -0.152
    1UNL    H21   48  -0.174   0.132   0.133
    1UNL    H22   49  -0.048   0.252   0.089
    1UNL    H23   50  -0.179   0.287  -0.106
    1UNL    H24   51   0.112   0.455  -0.194
    1UNL    H25   52   0.115   0.316  -0.314
    1UNL    H26   53   0.219   0.325  -0.173
   0.00000   0.00000   0.00000   0.00000   0.00000   0.00000   0.00000   0.00000   0.00000
Generated with MDTraj, t= 76.0
 53
    1UNL     C1    1  -0.417  -0.097   0.171
    1UNL     C2    2  -0.335  -0.040   0.060
    1UNL     C3    3  -0.235  -0.093  -0.007
    1UNL     C4    4  -0.181  -0.223   0.040
    1UNL     N1    5  -0.045  -0.216   0.106
    1UNL     C5    6  -0.051  -0.139   0.236
    1UNL     C6    7   0.010  -0.004   0.211
    1UNL     C7    8   0.049   0.002   0.059
    1UNL     C8    9   0.199   0.031   0.052
    1UNL     C9   10   0.265   0.147   0.036
    1UNL    C10   11   0.404   0.152   0.061
    1UNL    C11   12   0.478   0.035   0.090
    1UNL    C12   13   0.410  -0.080   0.101
    1UNL    C13   14   0.271  -0.084   0.072
    1UNL     N2   15   0.186  -0.188   0.062
    1UNL    C14   16   0.052  -0.153   0.021
    1UNL    C15   17   0.053  -0.187  -0.133
    1UNL     O1   18   0.039  -0.326  -0.139
    1UNL    C16   19  -0.068  -0.112  -0.197
    1UNL    C17   20  -0.145  -0.016  -0.103
    1UNL    C18   21  -0.052   0.087  -0.029
    1UNL    C19   22  -0.132   0.199   0.043
    1UNL     O2   23  -0.238   0.250  -0.036
    1UNL    C20   24   0.023   0.161  -0.139
    1UNL     O3   25   0.094   0.107  -0.220
    1UNL     O4   26   0.010   0.303  -0.127
    1UNL    C21   27   0.052   0.372  -0.240
    1UNL     H1   28  -0.509  -0.044   0.179
    1UNL     H2   29  -0.357  -0.105   0.262
    1UNL     H3   30  -0.450  -0.202   0.150
    1UNL     H4   31  -0.364   0.056   0.014
    1UNL     H5   32  -0.247  -0.264   0.114
    1UNL     H6   33  -0.171  -0.294  -0.040
    1UNL     H7   34  -0.149  -0.128   0.290
    1UNL     H8   35   0.012  -0.197   0.300
    1UNL     H9   36  -0.056   0.083   0.241
    1UNL    H10   37   0.106   0.000   0.268
    1UNL    H11   38   0.203   0.229   0.012
    1UNL    H12   39   0.444   0.248   0.057
    1UNL    H13   40   0.584   0.043   0.108
    1UNL    H14   41   0.466  -0.174   0.104
    1UNL    H15   42   0.172  -0.260   0.135
    1UNL    H16   43   0.161  -0.156  -0.166
    1UNL    H17   44   0.064  -0.369  -0.049
    1UNL    H18   45  -0.132  -0.174  -0.248
    1UNL    H19   46  -0.042  -0.053  -0.285
    1UNL    H20   47  -0.208   0.044  -0.168
    1UNL    H21   48  -0.181   0.167   0.143
    1UNL    H22   49  -0.058   0.279   0.060
    1UNL    H23   50  -0.201   0.284  -0.121
    1UNL    H24   51   0.083   0.472  -0.207
    1UNL    H25   52  -0.023   0.377  -0.323
    1UNL    H26   53   0.143   0.326  -0.276
   0.00000   0.00000   0.00000   0.00000   0.00000   0.00000   0.00000   0.00000   0.00000
Generated with MDTraj, t= 77.0
 53
    1UNL     C1    1  -0.453  -0.097   0.133
    1UNL     C2    2  -0.357  -0.039   0.036
    1UNL     C3    3  -0.236  -0.089   0.006
    1UNL     C4    4  -0.188  -0.219   0.057
    1UNL     N1    5  -0.052  -0.219   0.110
    1UNL     C5    6  -0.030  -0.143   0.234
    1UNL     C6    7   0.025   0.001   0.214
    1UNL     C7    8   0.058  -0.004   0.059
    1UNL     C8    9   0.209   0.038   0.058
    1UNL     C9   10   0.273   0.159   0.060
    1UNL    C10   11   0.412   0.161   0.076
    1UNL    C11   12   0.482   0.041   0.093
    1UNL    C12   13   0.416  -0.081   0.089
    1UNL    C13   14   0.276  -0.088   0.065
    1UNL     N2   15   0.197  -0.196   0.055
    1UNL    C14   16   0.055  -0.158   0.023
    1UNL    C15   17   0.037  -0.184  -0.126
    1UNL     O1   18   0.052  -0.322  -0.161
    1UNL    C16   19  -0.085  -0.107  -0.187
    1UNL    C17   20  -0.146  -0.013  -0.086
    1UNL    C18   21  -0.048   0.090  -0.021
    1UNL    C19   22  -0.125   0.198   0.058
    1UNL     O2   23  -0.236   0.258  -0.007
    1UNL    C20   24   0.024   0.160  -0.137
    1UNL     O3   25   0.081   0.098  -0.223
    1UNL     O4   26   0.008   0.297  -0.142
    1UNL    C21   27   0.050   0.352  -0.272
    1UNL     H1   28  -0.550  -0.055   0.123
    1UNL     H2   29  -0.403  -0.092   0.231
    1UNL     H3   30  -0.462  -0.204   0.111
    1UNL     H4   31  -0.380   0.052  -0.012
    1UNL     H5   32  -0.250  -0.252   0.140
    1UNL     H6   33  -0.187  -0.303  -0.009
    1UNL     H7   34  -0.129  -0.141   0.285
    1UNL     H8   35   0.033  -0.198   0.302
    1UNL     H9   36  -0.051   0.080   0.246
    1UNL    H10   37   0.119   0.027   0.270
    1UNL    H11   38   0.214   0.252   0.066
    1UNL    H12   39   0.465   0.260   0.080
    1UNL    H13   40   0.589   0.046   0.100
    1UNL    H14   41   0.474  -0.173   0.088
    1UNL    H15   42   0.199  -0.284   0.111
    1UNL    H16   43   0.135  -0.135  -0.168
    1UNL    H17   44   0.084  -0.379  -0.085
    1UNL    H18   45  -0.159  -0.171  -0.224
    1UNL    H19   46  -0.059  -0.054  -0.282
    1UNL    H20   47  -0.208   0.057  -0.142
    1UNL    H21   48  -0.174   0.146   0.150
    1UNL    H22   49  -0.052   0.276   0.079
    1UNL    H23   50  -0.206   0.297  -0.094
    1UNL    H24   51   0.013   0.455  -0.286
    1UNL    H25   52   0.024   0.288  -0.359
    1UNL    H26   53   0.160   0.358  -0.270
   0.00000   0.00000   0.00000   0.00000   0.00000   0.00000   0.00000   0.00000   0.00000
Generated with MDTraj, t= 78.0
 53
    1UNL     C1    1  -0.467  -0.129   0.115
    1UNL     C2    2  -0.367  -0.056   0.039
    1UNL     C3    3  -0.237  -0.087   0.022
    1UNL     C4    4  -0.188  -0.224   0.065
    1UNL     N1    5  -0.050  -0.215   0.118
    1UNL     C5    6  -0.048  -0.140   0.245
    1UNL     C6    7   0.021  -0.005   0.215
    1UNL     C7    8   0.060   0.004   0.062
    1UNL     C8    9   0.208   0.043   0.053
    1UNL     C9   10   0.261   0.165   0.073
    1UNL    C10   11   0.406   0.173   0.081
    1UNL    C11   12   0.483   0.059   0.073
    1UNL    C12   13   0.419  -0.061   0.068
    1UNL    C13   14   0.284  -0.074   0.054
    1UNL     N2   15   0.198  -0.186   0.044
    1UNL    C14   16   0.054  -0.153   0.024
    1UNL    C15   17   0.026  -0.183  -0.127
    1UNL     O1   18   0.020  -0.323  -0.170
    1UNL    C16   19  -0.097  -0.108  -0.181
    1UNL    C17   20  -0.158  -0.011  -0.080
    1UNL    C18   21  -0.047   0.086  -0.025
    1UNL    C19   22  -0.115   0.197   0.069
    1UNL     O2   23  -0.212   0.279   0.000
    1UNL    C20   24   0.032   0.153  -0.134
    1UNL     O3   25   0.110   0.093  -0.200
    1UNL     O4   26  -0.001   0.277  -0.173
    1UNL    C21   27   0.098   0.333  -0.261
    1UNL     H1   28  -0.538  -0.068   0.168
    1UNL     H2   29  -0.416  -0.200   0.185
    1UNL     H3   30  -0.533  -0.190   0.055
    1UNL     H4   31  -0.398   0.041  -0.000
    1UNL     H5   32  -0.244  -0.280   0.139
    1UNL     H6   33  -0.183  -0.291  -0.019
    1UNL     H7   34  -0.149  -0.121   0.283
    1UNL     H8   35  -0.002  -0.204   0.321
    1UNL     H9   36  -0.041   0.078   0.251
    1UNL    H10   37   0.117   0.007   0.277
    1UNL    H11   38   0.201   0.249   0.102
    1UNL    H12   39   0.448   0.265   0.109
    1UNL    H13   40   0.588   0.077   0.053
    1UNL    H14   41   0.484  -0.146   0.067
    1UNL    H15   42   0.200  -0.290   0.052
    1UNL    H16   43   0.111  -0.140  -0.190
    1UNL    H17   44   0.087  -0.380  -0.133
    1UNL    H18   45  -0.175  -0.180  -0.212
    1UNL    H19   46  -0.059  -0.054  -0.274
    1UNL    H20   47  -0.229   0.063  -0.113
    1UNL    H21   48  -0.178   0.142   0.149
    1UNL    H22   49  -0.039   0.257   0.111
    1UNL    H23   50  -0.174   0.320  -0.078
    1UNL    H24   51   0.085   0.442  -0.257
    1UNL    H25   52   0.086   0.292  -0.363
    1UNL    H26   53   0.197   0.305  -0.225
   0.00000   0.00000   0.00000   0.00000   0.00000   0.00000   0.00000   0.00000   0.00000
Generated with MDTraj, t= 79.0
 53
    1UNL     C1    1  -0.432  -0.145   0.136
    1UNL     C2    2  -0.353  -0.049   0.065
    1UNL     C3    3  -0.232  -0.084   0.013
    1UNL     C4    4  -0.177  -0.219   0.045
    1UNL     N1    5  -0.043  -0.229   0.107
    1UNL     C5    6  -0.034  -0.174   0.243
    1UNL     C6    7  -0.020  -0.028   0.222
    1UNL     C7    8   0.042  -0.001   0.078
    1UNL     C8    9   0.189   0.046   0.082
    1UNL     C9   10   0.258   0.171   0.076
    1UNL    C10   11   0.397   0.174   0.053
    1UNL    C11   12   0.471   0.058   0.049
    1UNL    C12   13   0.407  -0.065   0.045
    1UNL    C13   14   0.267  -0.069   0.059
    1UNL     N2   15   0.190  -0.178   0.065
    1UNL    C14   16   0.052  -0.147   0.030
    1UNL    C15   17   0.029  -0.172  -0.123
    1UNL     O1   18   0.001  -0.313  -0.152
    1UNL    C16   19  -0.087  -0.092  -0.191
    1UNL    C17   20  -0.155   0.005  -0.091
    1UNL    C18   21  -0.049   0.089  -0.016
    1UNL    C19   22  -0.134   0.203   0.057
    1UNL     O2   23  -0.208   0.278  -0.040
    1UNL    C20   24   0.042   0.154  -0.123
    1UNL     O3   25   0.120   0.090  -0.189
    1UNL     O4   26   0.034   0.289  -0.152
    1UNL    C21   27   0.103   0.321  -0.269
    1UNL     H1   28  -0.538  -0.117   0.130
    1UNL     H2   29  -0.393  -0.158   0.239
    1UNL     H3   30  -0.431  -0.242   0.092
    1UNL     H4   31  -0.377   0.054   0.055
    1UNL     H5   32  -0.248  -0.272   0.108
    1UNL     H6   33  -0.166  -0.283  -0.040
    1UNL     H7   34  -0.123  -0.191   0.302
    1UNL     H8   35   0.051  -0.220   0.298
    1UNL     H9   36  -0.115   0.016   0.234
    1UNL    H10   37   0.052   0.010   0.305
    1UNL    H11   38   0.207   0.261   0.101
    1UNL    H12   39   0.443   0.273   0.036
    1UNL    H13   40   0.579   0.058   0.052
    1UNL    H14   41   0.470  -0.152   0.025
    1UNL    H15   42   0.218  -0.264   0.015
    1UNL    H16   43   0.121  -0.154  -0.184
    1UNL    H17   44   0.054  -0.358  -0.077
    1UNL    H18   45  -0.157  -0.177  -0.232
    1UNL    H19   46  -0.043  -0.034  -0.278
    1UNL    H20   47  -0.216   0.076  -0.144
    1UNL    H21   48  -0.211   0.158   0.126
    1UNL    H22   49  -0.068   0.263   0.112
    1UNL    H23   50  -0.148   0.327  -0.107
    1UNL    H24   51   0.065   0.416  -0.303
    1UNL    H25   52   0.082   0.238  -0.336
    1UNL    H26   53   0.209   0.321  -0.248
   0.00000   0.00000   0.00000   0.00000   0.00000   0.00000   0.00000   0.00000   0.00000
Generated with MDTraj, t= 80.0
 53
    1UNL     C1    1  -0.423  -0.080   0.174
    1UNL     C2    2  -0.350  -0.028   0.061
    1UNL     C3    3  -0.236  -0.079   0.009
    1UNL     C4    4  -0.188  -0.216   0.048
    1UNL     N1    5  -0.055  -0.233   0.110
    1UNL     C5    6  -0.045  -0.178   0.245
    1UNL     C6    7  -0.008  -0.029   0.225
    1UNL     C7    8   0.039  -0.007   0.078
    1UNL     C8    9   0.182   0.043   0.071
    1UNL     C9   10   0.243   0.169   0.075
    1UNL    C10   11   0.376   0.187   0.078
    1UNL    C11   12   0.461   0.079   0.059
    1UNL    C12   13   0.408  -0.049   0.043
    1UNL    C13   14   0.271  -0.063   0.048
    1UNL     N2   15   0.198  -0.182   0.059
    1UNL    C14   16   0.047  -0.153   0.022
    1UNL    C15   17   0.031  -0.174  -0.131
    1UNL     O1   18   0.041  -0.310  -0.167
    1UNL    C16   19  -0.094  -0.113  -0.194
    1UNL    C17   20  -0.153  -0.016  -0.094
    1UNL    C18   21  -0.048   0.068  -0.033
    1UNL    C19   22  -0.118   0.180   0.039
    1UNL     O2   23  -0.203   0.265  -0.028
    1UNL    C20   24   0.035   0.143  -0.144
    1UNL     O3   25   0.116   0.079  -0.207
    1UNL     O4   26   0.017   0.276  -0.155
    1UNL    C21   27   0.121   0.332  -0.226
    1UNL     H1   28  -0.493  -0.003   0.215
    1UNL     H2   29  -0.351  -0.119   0.247
    1UNL     H3   30  -0.479  -0.165   0.141
    1UNL     H4   31  -0.381   0.067   0.016
    1UNL     H5   32  -0.249  -0.265   0.123
    1UNL     H6   33  -0.209  -0.276  -0.039
    1UNL     H7   34  -0.133  -0.198   0.301
    1UNL     H8   35   0.039  -0.233   0.297
    1UNL     H9   36  -0.094   0.031   0.247
    1UNL    H10   37   0.073  -0.000   0.301
    1UNL    H11   38   0.173   0.251   0.073
    1UNL    H12   39   0.420   0.283   0.096
    1UNL    H13   40   0.569   0.098   0.065
    1UNL    H14   41   0.470  -0.134   0.035
    1UNL    H15   42   0.221  -0.273   0.020
    1UNL    H16   43   0.116  -0.124  -0.181
    1UNL    H17   44   0.107  -0.350  -0.109
    1UNL    H18   45  -0.173  -0.199  -0.218
    1UNL    H19   46  -0.066  -0.059  -0.293
    1UNL    H20   47  -0.226   0.031  -0.157
    1UNL    H21   48  -0.176   0.135   0.123
    1UNL    H22   49  -0.045   0.246   0.078
    1UNL    H23   50  -0.157   0.304  -0.101
    1UNL    H24   51   0.129   0.438  -0.206
    1UNL    H25   52   0.094   0.305  -0.328
    1UNL    H26   53   0.213   0.276  -0.205
   0.00000   0.00000   0.00000   0.00000   0.00000   0.00000   0.00000   0.00000   0.00000
Generated with MDTraj, t= 81.0
 53
    1UNL     C1    1  -0.402  -0.076   0.193
    1UNL     C2    2  -0.336  -0.037   0.072
    1UNL     C3    3  -0.234  -0.099   0.010
    1UNL     C4    4  -0.178  -0.230   0.054
    1UNL     N1    5  -0.034  -0.233   0.107
    1UNL     C5    6  -0.032  -0.168   0.243
    1UNL     C6    7  -0.012  -0.015   0.208
    1UNL     C7    8   0.041  -0.005   0.063
    1UNL     C8    9   0.182   0.043   0.064
    1UNL     C9   10   0.245   0.170   0.066
    1UNL    C10   11   0.381   0.177   0.089
    1UNL    C11   12   0.467   0.067   0.099
    1UNL    C12   13   0.408  -0.057   0.080
    1UNL    C13   14   0.267  -0.069   0.068
    1UNL     N2   15   0.191  -0.187   0.042
    1UNL    C14   16   0.052  -0.163   0.016
    1UNL    C15   17   0.030  -0.179  -0.139
    1UNL     O1   18   0.026  -0.316  -0.169
    1UNL    C16   19  -0.099  -0.107  -0.192
    1UNL    C17   20  -0.162  -0.011  -0.099
    1UNL    C18   21  -0.051   0.081  -0.030
    1UNL    C19   22  -0.135   0.199   0.042
    1UNL     O2   23  -0.229   0.257  -0.043
    1UNL    C20   24   0.027   0.150  -0.149
    1UNL     O3   25   0.083   0.094  -0.243
    1UNL     O4   26   0.045   0.284  -0.136
    1UNL    C21   27   0.129   0.330  -0.236
    1UNL     H1   28  -0.482  -0.002   0.220
    1UNL     H2   29  -0.332  -0.093   0.274
    1UNL     H3   30  -0.450  -0.173   0.183
    1UNL     H4   31  -0.341   0.061   0.031
    1UNL     H5   32  -0.254  -0.269   0.121
    1UNL     H6   33  -0.171  -0.308  -0.019
    1UNL     H7   34  -0.117  -0.197   0.297
    1UNL     H8   35   0.054  -0.213   0.302
    1UNL     H9   36  -0.111   0.036   0.225
    1UNL    H10   37   0.058   0.037   0.279
    1UNL    H11   38   0.189   0.252   0.020
    1UNL    H12   39   0.422   0.277   0.105
    1UNL    H13   40   0.570   0.090   0.112
    1UNL    H14   41   0.480  -0.139   0.090
    1UNL    H15   42   0.241  -0.268   0.006
    1UNL    H16   43   0.105  -0.139  -0.202
    1UNL    H17   44   0.104  -0.352  -0.129
    1UNL    H18   45  -0.176  -0.182  -0.232
    1UNL    H19   46  -0.075  -0.037  -0.287
    1UNL    H20   47  -0.230   0.048  -0.158
    1UNL    H21   48  -0.196   0.155   0.124
    1UNL    H22   49  -0.078   0.269   0.097
    1UNL    H23   50  -0.171   0.306  -0.113
    1UNL    H24   51   0.132   0.439  -0.239
    1UNL    H25   52   0.081   0.285  -0.324
    1UNL    H26   53   0.227   0.280  -0.228
   0.00000   0.00000   0.00000   0.00000   0.00000   0.00000   0.00000   0.00000   0.00000
Generated with MDTraj, t= 82.0
 53
    1UNL     C1    1  -0.414  -0.133   0.185
    1UNL     C2    2  -0.338  -0.055   0.091
    1UNL     C3    3  -0.224  -0.095   0.030
    1UNL     C4    4  -0.179  -0.240   0.050
    1UNL     N1    5  -0.037  -0.225   0.105
    1UNL     C5    6  -0.039  -0.151   0.228
    1UNL     C6    7  -0.004  -0.005   0.194
    1UNL     C7    8   0.048   0.007   0.057
    1UNL     C8    9   0.196   0.043   0.060
    1UNL     C9   10   0.258   0.165   0.079
    1UNL    C10   11   0.389   0.175   0.107
    1UNL    C11   12   0.467   0.065   0.114
    1UNL    C12   13   0.412  -0.065   0.089
    1UNL    C13   14   0.275  -0.074   0.058
    1UNL     N2   15   0.191  -0.187   0.032
    1UNL    C14   16   0.051  -0.151   0.010
    1UNL    C15   17   0.027  -0.185  -0.136
    1UNL     O1   18   0.014  -0.329  -0.142
    1UNL    C16   19  -0.106  -0.116  -0.191
    1UNL    C17   20  -0.162  -0.021  -0.088
    1UNL    C18   21  -0.054   0.087  -0.041
    1UNL    C19   22  -0.134   0.206   0.026
    1UNL     O2   23  -0.202   0.300  -0.061
    1UNL    C20   24   0.027   0.155  -0.151
    1UNL     O3   25   0.053   0.102  -0.258
    1UNL     O4   26   0.061   0.286  -0.130
    1UNL    C21   27   0.110   0.343  -0.244
    1UNL     H1   28  -0.498  -0.080   0.234
    1UNL     H2   29  -0.350  -0.181   0.256
    1UNL     H3   30  -0.456  -0.223   0.135
    1UNL     H4   31  -0.374   0.045   0.064
    1UNL     H5   32  -0.221  -0.308   0.127
    1UNL     H6   33  -0.197  -0.299  -0.039
    1UNL     H7   34  -0.138  -0.159   0.262
    1UNL     H8   35   0.031  -0.201   0.303
    1UNL     H9   36  -0.094   0.066   0.206
    1UNL    H10   37   0.067   0.033   0.269
    1UNL    H11   38   0.203   0.256   0.068
    1UNL    H12   39   0.429   0.275   0.107
    1UNL    H13   40   0.569   0.066   0.158
    1UNL    H14   41   0.478  -0.150   0.084
    1UNL    H15   42   0.194  -0.274   0.085
    1UNL    H16   43   0.104  -0.150  -0.197
    1UNL    H17   44   0.093  -0.364  -0.097
    1UNL    H18   45  -0.190  -0.188  -0.213
    1UNL    H19   46  -0.095  -0.058  -0.294
    1UNL    H20   47  -0.248   0.033  -0.123
    1UNL    H21   48  -0.196   0.175   0.112
    1UNL    H22   49  -0.059   0.259   0.078
    1UNL    H23   50  -0.136   0.328  -0.122
    1UNL    H24   51   0.127   0.451  -0.228
    1UNL    H25   52   0.035   0.322  -0.322
    1UNL    H26   53   0.203   0.288  -0.276
   0.00000   0.00000   0.00000   0.00000   0.00000   0.00000   0.00000   0.00000   0.00000
Generated with MDTraj, t= 83.0
 53
    1UNL     C1    1  -0.443  -0.114   0.155
    1UNL     C2    2  -0.366  -0.054   0.050
    1UNL     C3    3  -0.241  -0.095   0.017
    1UNL     C4    4  -0.182  -0.215   0.080
    1UNL     N1    5  -0.035  -0.217   0.105
    1UNL     C5    6  -0.016  -0.154   0.238
    1UNL     C6    7   0.008  -0.011   0.211
    1UNL     C7    8   0.052   0.002   0.058
    1UNL     C8    9   0.196   0.046   0.056
    1UNL     C9   10   0.242   0.168   0.091
    1UNL    C10   11   0.380   0.184   0.094
    1UNL    C11   12   0.460   0.074   0.086
    1UNL    C12   13   0.419  -0.058   0.075
    1UNL    C13   14   0.283  -0.065   0.063
    1UNL     N2   15   0.207  -0.181   0.036
    1UNL    C14   16   0.058  -0.148   0.012
    1UNL    C15   17   0.023  -0.181  -0.136
    1UNL     O1   18   0.032  -0.320  -0.162
    1UNL    C16   19  -0.110  -0.125  -0.188
    1UNL    C17   20  -0.166  -0.018  -0.097
    1UNL    C18   21  -0.060   0.088  -0.032
    1UNL    C19   22  -0.126   0.196   0.047
    1UNL     O2   23  -0.208   0.290  -0.023
    1UNL    C20   24   0.019   0.148  -0.147
    1UNL     O3   25   0.045   0.082  -0.247
    1UNL     O4   26   0.063   0.272  -0.132
    1UNL    C21   27   0.140   0.314  -0.243
    1UNL     H1   28  -0.541  -0.064   0.160
    1UNL     H2   29  -0.386  -0.119   0.247
    1UNL     H3   30  -0.458  -0.221   0.127
    1UNL     H4   31  -0.393   0.033  -0.003
    1UNL     H5   32  -0.232  -0.223   0.178
    1UNL     H6   33  -0.201  -0.307   0.027
    1UNL     H7   34  -0.104  -0.166   0.295
    1UNL     H8   35   0.075  -0.203   0.285
    1UNL     H9   36  -0.084   0.045   0.236
    1UNL    H10   37   0.082   0.032   0.283
    1UNL    H11   38   0.179   0.254   0.115
    1UNL    H12   39   0.424   0.281   0.112
    1UNL    H13   40   0.563   0.097   0.089
    1UNL    H14   41   0.485  -0.144   0.083
    1UNL    H15   42   0.246  -0.255  -0.022
    1UNL    H16   43   0.097  -0.146  -0.200
    1UNL    H17   44   0.040  -0.358  -0.067
    1UNL    H18   45  -0.194  -0.200  -0.197
    1UNL    H19   46  -0.096  -0.086  -0.289
    1UNL    H20   47  -0.228   0.048  -0.158
    1UNL    H21   48  -0.188   0.150   0.127
    1UNL    H22   49  -0.057   0.245   0.111
    1UNL    H23   50  -0.154   0.342  -0.093
    1UNL    H24   51   0.208   0.396  -0.217
    1UNL    H25   52   0.072   0.343  -0.323
    1UNL    H26   53   0.200   0.230  -0.288
   0.00000   0.00000   0.00000   0.00000   0.00000   0.00000   0.00000   0.00000   0.00000
Generated with MDTraj, t= 84.0
 53
    1UNL     C1    1  -0.460  -0.100   0.133
    1UNL     C2    2  -0.349  -0.040   0.069
    1UNL     C3    3  -0.233  -0.089   0.025
    1UNL     C4    4  -0.184  -0.221   0.071
    1UNL     N1    5  -0.043  -0.232   0.114
    1UNL     C5    6  -0.030  -0.165   0.251
    1UNL     C6    7   0.006  -0.017   0.217
    1UNL     C7    8   0.041  -0.002   0.069
    1UNL     C8    9   0.189   0.041   0.063
    1UNL     C9   10   0.239   0.170   0.087
    1UNL    C10   11   0.373   0.192   0.057
    1UNL    C11   12   0.455   0.080   0.038
    1UNL    C12   13   0.406  -0.042   0.044
    1UNL    C13   14   0.271  -0.077   0.067
    1UNL     N2   15   0.197  -0.192   0.050
    1UNL    C14   16   0.057  -0.159   0.022
    1UNL    C15   17   0.037  -0.168  -0.130
    1UNL     O1   18   0.048  -0.303  -0.167
    1UNL    C16   19  -0.097  -0.116  -0.187
    1UNL    C17   20  -0.161  -0.022  -0.085
    1UNL    C18   21  -0.058   0.080  -0.027
    1UNL    C19   22  -0.126   0.201   0.043
    1UNL     O2   23  -0.208   0.270  -0.051
    1UNL    C20   24   0.025   0.143  -0.135
    1UNL     O3   25   0.061   0.079  -0.232
    1UNL     O4   26   0.062   0.274  -0.114
    1UNL    C21   27   0.151   0.322  -0.215
    1UNL     H1   28  -0.534  -0.121   0.058
    1UNL     H2   29  -0.500  -0.039   0.215
    1UNL     H3   30  -0.428  -0.195   0.182
    1UNL     H4   31  -0.372   0.051   0.011
    1UNL     H5   32  -0.243  -0.262   0.155
    1UNL     H6   33  -0.191  -0.286  -0.015
    1UNL     H7   34  -0.120  -0.175   0.307
    1UNL     H8   35   0.063  -0.214   0.292
    1UNL     H9   36  -0.064   0.052   0.258
    1UNL    H10   37   0.099   0.016   0.271
    1UNL    H11   38   0.177   0.252   0.118
    1UNL    H12   39   0.414   0.293   0.046
    1UNL    H13   40   0.557   0.096   0.000
    1UNL    H14   41   0.473  -0.122   0.028
    1UNL    H15   42   0.231  -0.279   0.012
    1UNL    H16   43   0.117  -0.126  -0.182
    1UNL    H17   44   0.032  -0.357  -0.089
    1UNL    H18   45  -0.165  -0.203  -0.198
    1UNL    H19   46  -0.087  -0.072  -0.279
    1UNL    H20   47  -0.235   0.039  -0.136
    1UNL    H21   48  -0.184   0.183   0.136
    1UNL    H22   49  -0.056   0.270   0.088
    1UNL    H23   50  -0.165   0.298  -0.131
    1UNL    H24   51   0.160   0.429  -0.219
    1UNL    H25   52   0.125   0.280  -0.310
    1UNL    H26   53   0.253   0.283  -0.197
   0.00000   0.00000   0.00000   0.00000   0.00000   0.00000   0.00000   0.00000   0.00000
Generated with MDTraj, t= 85.0
 53
    1UNL     C1    1  -0.425  -0.114   0.170
    1UNL     C2    2  -0.347  -0.055   0.057
    1UNL     C3    3  -0.241  -0.106  -0.001
    1UNL     C4    4  -0.189  -0.241   0.042
    1UNL     N1    5  -0.057  -0.226   0.104
    1UNL     C5    6  -0.051  -0.148   0.235
    1UNL     C6    7  -0.009  -0.002   0.221
    1UNL     C7    8   0.037   0.001   0.072
    1UNL     C8    9   0.186   0.049   0.062
    1UNL     C9   10   0.251   0.171   0.058
    1UNL    C10   11   0.389   0.171   0.044
    1UNL    C11   12   0.459   0.051   0.015
    1UNL    C12   13   0.401  -0.067   0.032
    1UNL    C13   14   0.263  -0.069   0.063
    1UNL     N2   15   0.183  -0.178   0.073
    1UNL    C14   16   0.047  -0.150   0.028
    1UNL    C15   17   0.043  -0.176  -0.124
    1UNL     O1   18   0.059  -0.316  -0.142
    1UNL    C16   19  -0.084  -0.108  -0.193
    1UNL    C17   20  -0.157  -0.019  -0.093
    1UNL    C18   21  -0.058   0.083  -0.029
    1UNL    C19   22  -0.142   0.192   0.045
    1UNL     O2   23  -0.208   0.289  -0.037
    1UNL    C20   24   0.040   0.152  -0.127
    1UNL     O3   25   0.104   0.088  -0.207
    1UNL     O4   26   0.043   0.290  -0.117
    1UNL    C21   27   0.127   0.339  -0.210
    1UNL     H1   28  -0.400  -0.216   0.186
    1UNL     H2   29  -0.536  -0.116   0.164
    1UNL     H3   30  -0.399  -0.057   0.262
    1UNL     H4   31  -0.379   0.038   0.018
    1UNL     H5   32  -0.243  -0.295   0.122
    1UNL     H6   33  -0.182  -0.316  -0.035
    1UNL     H7   34  -0.149  -0.148   0.276
    1UNL     H8   35   0.028  -0.209   0.289
    1UNL     H9   36  -0.077   0.073   0.252
    1UNL    H10   37   0.073   0.024   0.292
    1UNL    H11   38   0.195   0.260   0.075
    1UNL    H12   39   0.442   0.261   0.026
    1UNL    H13   40   0.567   0.055   0.011
    1UNL    H14   41   0.452  -0.164   0.019
    1UNL    H15   42   0.202  -0.275   0.096
    1UNL    H16   43   0.133  -0.134  -0.162
    1UNL    H17   44   0.007  -0.359  -0.075
    1UNL    H18   45  -0.149  -0.180  -0.234
    1UNL    H19   46  -0.053  -0.046  -0.269
    1UNL    H20   47  -0.227   0.042  -0.149
    1UNL    H21   48  -0.223   0.158   0.112
    1UNL    H22   49  -0.082   0.247   0.118
    1UNL    H23   50  -0.145   0.334  -0.104
    1UNL    H24   51   0.144   0.443  -0.185
    1UNL    H25   52   0.095   0.321  -0.310
    1UNL    H26   53   0.225   0.291  -0.198
   0.00000   0.00000   0.00000   0.00000   0.00000   0.00000   0.00000   0.00000   0.00000
Generated with MDTraj, t= 86.0
 53
    1UNL     C1    1  -0.450  -0.095   0.161
    1UNL     C2    2  -0.348  -0.032   0.066
    1UNL     C3    3  -0.241  -0.091   0.012
    1UNL     C4    4  -0.189  -0.231   0.040
    1UNL     N1    5  -0.053  -0.227   0.107
    1UNL     C5    6  -0.040  -0.155   0.240
    1UNL     C6    7   0.013  -0.014   0.218
    1UNL     C7    8   0.055  -0.004   0.066
    1UNL     C8    9   0.199   0.040   0.058
    1UNL     C9   10   0.260   0.159   0.035
    1UNL    C10   11   0.399   0.172   0.042
    1UNL    C11   12   0.471   0.059   0.072
    1UNL    C12   13   0.408  -0.068   0.080
    1UNL    C13   14   0.268  -0.077   0.080
    1UNL     N2   15   0.186  -0.190   0.069
    1UNL    C14   16   0.051  -0.154   0.027
    1UNL    C15   17   0.046  -0.183  -0.129
    1UNL     O1   18   0.027  -0.320  -0.172
    1UNL    C16   19  -0.086  -0.108  -0.190
    1UNL    C17   20  -0.149  -0.010  -0.088
    1UNL    C18   21  -0.041   0.083  -0.024
    1UNL    C19   22  -0.121   0.189   0.052
    1UNL     O2   23  -0.231   0.239  -0.020
    1UNL    C20   24   0.037   0.161  -0.140
    1UNL     O3   25   0.094   0.102  -0.228
    1UNL     O4   26   0.029   0.300  -0.131
    1UNL    C21   27   0.093   0.355  -0.240
    1UNL     H1   28  -0.393  -0.152   0.231
    1UNL     H2   29  -0.521  -0.168   0.116
    1UNL     H3   30  -0.501  -0.012   0.214
    1UNL     H4   31  -0.359   0.074   0.036
    1UNL     H5   32  -0.253  -0.285   0.110
    1UNL     H6   33  -0.180  -0.295  -0.046
    1UNL     H7   34  -0.142  -0.151   0.274
    1UNL     H8   35   0.034  -0.210   0.306
    1UNL     H9   36  -0.059   0.061   0.250
    1UNL    H10   37   0.092   0.010   0.291
    1UNL    H11   38   0.206   0.239  -0.015
    1UNL    H12   39   0.447   0.271   0.032
    1UNL    H13   40   0.577   0.078   0.086
    1UNL    H14   41   0.467  -0.154   0.102
    1UNL    H15   42   0.203  -0.287   0.096
    1UNL    H16   43   0.140  -0.142  -0.169
    1UNL    H17   44   0.078  -0.383  -0.108
    1UNL    H18   45  -0.154  -0.175  -0.222
    1UNL    H19   46  -0.054  -0.056  -0.273
    1UNL    H20   47  -0.206   0.060  -0.150
    1UNL    H21   48  -0.170   0.134   0.132
    1UNL    H22   49  -0.067   0.271   0.106
    1UNL    H23   50  -0.202   0.307  -0.078
    1UNL    H24   51   0.105   0.462  -0.223
    1UNL    H25   52   0.045   0.329  -0.332
    1UNL    H26   53   0.197   0.315  -0.245
   0.00000   0.00000   0.00000   0.00000   0.00000   0.00000   0.00000   0.00000   0.00000
Generated with MDTraj, t= 87.0
 53
    1UNL     C1    1  -0.451  -0.084   0.153
    1UNL     C2    2  -0.363  -0.039   0.043
    1UNL     C3    3  -0.244  -0.084   0.007
    1UNL     C4    4  -0.183  -0.216   0.066
    1UNL     N1    5  -0.033  -0.207   0.115
    1UNL     C5    6  -0.026  -0.142   0.250
    1UNL     C6    7   0.031  -0.002   0.213
    1UNL     C7    8   0.058   0.010   0.057
    1UNL     C8    9   0.211   0.040   0.046
    1UNL     C9   10   0.271   0.159   0.075
    1UNL    C10   11   0.406   0.149   0.110
    1UNL    C11   12   0.482   0.033   0.115
    1UNL    C12   13   0.426  -0.085   0.068
    1UNL    C13   14   0.288  -0.082   0.043
    1UNL     N2   15   0.198  -0.187   0.053
    1UNL    C14   16   0.059  -0.148   0.012
    1UNL    C15   17   0.036  -0.188  -0.137
    1UNL     O1   18   0.038  -0.329  -0.161
    1UNL    C16   19  -0.093  -0.118  -0.201
    1UNL    C17   20  -0.153  -0.019  -0.095
    1UNL    C18   21  -0.049   0.077  -0.031
    1UNL    C19   22  -0.131   0.181   0.058
    1UNL     O2   23  -0.209   0.259  -0.016
    1UNL    C20   24   0.007   0.162  -0.147
    1UNL     O3   25   0.062   0.108  -0.237
    1UNL     O4   26  -0.000   0.300  -0.142
    1UNL    C21   27   0.061   0.351  -0.257
    1UNL     H1   28  -0.410  -0.050   0.248
    1UNL     H2   29  -0.460  -0.194   0.168
    1UNL     H3   30  -0.551  -0.041   0.147
    1UNL     H4   31  -0.405   0.039  -0.015
    1UNL     H5   32  -0.235  -0.276   0.140
    1UNL     H6   33  -0.172  -0.276  -0.024
    1UNL     H7   34  -0.126  -0.137   0.289
    1UNL     H8   35   0.043  -0.203   0.314
    1UNL     H9   36  -0.045   0.075   0.249
    1UNL    H10   37   0.119   0.019   0.270
    1UNL    H11   38   0.225   0.253   0.051
    1UNL    H12   39   0.446   0.246   0.123
    1UNL    H13   40   0.583   0.029   0.153
    1UNL    H14   41   0.480  -0.176   0.077
    1UNL    H15   42   0.226  -0.279   0.019
    1UNL    H16   43   0.127  -0.154  -0.194
    1UNL    H17   44   0.005  -0.385  -0.088
    1UNL    H18   45  -0.163  -0.192  -0.220
    1UNL    H19   46  -0.070  -0.071  -0.288
    1UNL    H20   47  -0.227   0.042  -0.149
    1UNL    H21   48  -0.195   0.136   0.134
    1UNL    H22   49  -0.059   0.242   0.120
    1UNL    H23   50  -0.146   0.311  -0.073
    1UNL    H24   51   0.054   0.461  -0.254
    1UNL    H25   52   0.022   0.299  -0.344
    1UNL    H26   53   0.171   0.330  -0.247
   0.00000   0.00000   0.00000   0.00000   0.00000   0.00000   0.00000   0.00000   0.00000
Generated with MDTraj, t= 88.0
 53
    1UNL     C1    1  -0.441  -0.122   0.145
    1UNL     C2    2  -0.349  -0.030   0.072
    1UNL     C3    3  -0.234  -0.073   0.021
    1UNL     C4    4  -0.178  -0.206   0.050
    1UNL     N1    5  -0.042  -0.222   0.107
    1UNL     C5    6  -0.026  -0.159   0.239
    1UNL     C6    7   0.003  -0.012   0.215
    1UNL     C7    8   0.055   0.001   0.064
    1UNL     C8    9   0.200   0.043   0.063
    1UNL     C9   10   0.271   0.165   0.080
    1UNL    C10   11   0.409   0.162   0.100
    1UNL    C11   12   0.476   0.042   0.086
    1UNL    C12   13   0.409  -0.080   0.069
    1UNL    C13   14   0.274  -0.079   0.058
    1UNL     N2   15   0.200  -0.194   0.033
    1UNL    C14   16   0.053  -0.152   0.023
    1UNL    C15   17   0.026  -0.178  -0.126
    1UNL     O1   18   0.037  -0.314  -0.153
    1UNL    C16   19  -0.101  -0.107  -0.190
    1UNL    C17   20  -0.158   0.002  -0.093
    1UNL    C18   21  -0.046   0.089  -0.026
    1UNL    C19   22  -0.115   0.207   0.051
    1UNL     O2   23  -0.219   0.251  -0.031
    1UNL    C20   24   0.024   0.158  -0.141
    1UNL     O3   25   0.080   0.090  -0.222
    1UNL     O4   26   0.018   0.294  -0.145
    1UNL    C21   27   0.067   0.333  -0.267
    1UNL     H1   28  -0.391  -0.154   0.241
    1UNL     H2   29  -0.471  -0.213   0.091
    1UNL     H3   30  -0.527  -0.066   0.175
    1UNL     H4   31  -0.392   0.064   0.034
    1UNL     H5   32  -0.242  -0.245   0.127
    1UNL     H6   33  -0.169  -0.275  -0.033
    1UNL     H7   34  -0.106  -0.184   0.309
    1UNL     H8   35   0.069  -0.203   0.278
    1UNL     H9   36  -0.090   0.048   0.237
    1UNL    H10   37   0.068   0.020   0.291
    1UNL    H11   38   0.210   0.254   0.073
    1UNL    H12   39   0.473   0.252   0.096
    1UNL    H13   40   0.584   0.039   0.102
    1UNL    H14   41   0.468  -0.173   0.074
    1UNL    H15   42   0.242  -0.251  -0.042
    1UNL    H16   43   0.119  -0.132  -0.178
    1UNL    H17   44  -0.023  -0.363  -0.096
    1UNL    H18   45  -0.180  -0.179  -0.211
    1UNL    H19   46  -0.076  -0.062  -0.279
    1UNL    H20   47  -0.234   0.065  -0.144
    1UNL    H21   48  -0.160   0.167   0.139
    1UNL    H22   49  -0.045   0.293   0.077
    1UNL    H23   50  -0.178   0.282  -0.114
    1UNL    H24   51   0.093   0.442  -0.264
    1UNL    H25   52  -0.005   0.298  -0.340
    1UNL    H26   53   0.165   0.278  -0.282
   0.00000   0.00000   0.00000   0.00000   0.00000   0.00000   0.00000   0.00000   0.00000
Generated with MDTraj, t= 89.0
 53
    1UNL     C1    1  -0.419  -0.111   0.177
    1UNL     C2    2  -0.345  -0.037   0.070
    1UNL     C3    3  -0.237  -0.088   0.018
    1UNL     C4    4  -0.188  -0.225   0.041
    1UNL     N1    5  -0.052  -0.231   0.106
    1UNL     C5    6  -0.034  -0.168   0.236
    1UNL     C6    7  -0.022  -0.019   0.215
    1UNL     C7    8   0.033  -0.007   0.071
    1UNL     C8    9   0.183   0.036   0.074
    1UNL     C9   10   0.240   0.168   0.073
    1UNL    C10   11   0.373   0.187   0.048
    1UNL    C11   12   0.458   0.074   0.053
    1UNL    C12   13   0.402  -0.054   0.063
    1UNL    C13   14   0.268  -0.073   0.073
    1UNL     N2   15   0.198  -0.193   0.039
    1UNL    C14   16   0.047  -0.153   0.017
    1UNL    C15   17   0.028  -0.177  -0.139
    1UNL     O1   18   0.037  -0.311  -0.183
    1UNL    C16   19  -0.102  -0.100  -0.187
    1UNL    C17   20  -0.164  -0.004  -0.086
    1UNL    C18   21  -0.054   0.087  -0.017
    1UNL    C19   22  -0.113   0.200   0.067
    1UNL     O2   23  -0.189   0.287  -0.025
    1UNL    C20   24   0.040   0.148  -0.127
    1UNL     O3   25   0.121   0.078  -0.183
    1UNL     O4   26   0.021   0.278  -0.164
    1UNL    C21   27   0.122   0.310  -0.254
    1UNL     H1   28  -0.346  -0.128   0.263
    1UNL     H2   29  -0.468  -0.205   0.151
    1UNL     H3   30  -0.495  -0.045   0.215
    1UNL     H4   31  -0.388   0.055   0.036
    1UNL     H5   32  -0.244  -0.289   0.108
    1UNL     H6   33  -0.181  -0.271  -0.059
    1UNL     H7   34  -0.119  -0.195   0.299
    1UNL     H8   35   0.053  -0.214   0.286
    1UNL     H9   36  -0.111   0.035   0.247
    1UNL    H10   37   0.053   0.018   0.281
    1UNL    H11   38   0.173   0.252   0.076
    1UNL    H12   39   0.415   0.282   0.035
    1UNL    H13   40   0.564   0.087   0.035
    1UNL    H14   41   0.467  -0.134   0.082
    1UNL    H15   42   0.231  -0.252  -0.037
    1UNL    H16   43   0.125  -0.126  -0.179
    1UNL    H17   44   0.094  -0.355  -0.109
    1UNL    H18   45  -0.175  -0.169  -0.235
    1UNL    H19   46  -0.070  -0.029  -0.266
    1UNL    H20   47  -0.249   0.059  -0.123
    1UNL    H21   48  -0.179   0.169   0.144
    1UNL    H22   49  -0.023   0.257   0.109
    1UNL    H23   50  -0.132   0.336  -0.089
    1UNL    H24   51   0.135   0.416  -0.279
    1UNL    H25   52   0.101   0.243  -0.336
    1UNL    H26   53   0.217   0.278  -0.204
   0.00000   0.00000   0.00000   0.00000   0.00000   0.00000   0.00000   0.00000   0.00000
Generated with MDTraj, t= 90.0
 53
    1UNL     C1    1  -0.409  -0.091   0.196
    1UNL     C2    2  -0.335  -0.041   0.075
    1UNL     C3    3  -0.236  -0.098   0.008
    1UNL     C4    4  -0.193  -0.240   0.042
    1UNL     N1    5  -0.054  -0.232   0.094
    1UNL     C5    6  -0.049  -0.179   0.235
    1UNL     C6    7  -0.016  -0.028   0.219
    1UNL     C7    8   0.040  -0.005   0.075
    1UNL     C8    9   0.186   0.041   0.085
    1UNL     C9   10   0.233   0.172   0.107
    1UNL    C10   11   0.367   0.189   0.074
    1UNL    C11   12   0.454   0.083   0.040
    1UNL    C12   13   0.403  -0.044   0.030
    1UNL    C13   14   0.268  -0.068   0.054
    1UNL     N2   15   0.193  -0.181   0.040
    1UNL    C14   16   0.050  -0.159   0.015
    1UNL    C15   17   0.030  -0.183  -0.139
    1UNL     O1   18   0.006  -0.326  -0.161
    1UNL    C16   19  -0.086  -0.102  -0.198
    1UNL    C17   20  -0.148  -0.013  -0.092
    1UNL    C18   21  -0.044   0.087  -0.021
    1UNL    C19   22  -0.118   0.203   0.057
    1UNL     O2   23  -0.190   0.281  -0.046
    1UNL    C20   24   0.039   0.152  -0.129
    1UNL     O3   25   0.111   0.080  -0.192
    1UNL     O4   26   0.031   0.285  -0.158
    1UNL    C21   27   0.132   0.323  -0.242
    1UNL     H1   28  -0.334  -0.109   0.278
    1UNL     H2   29  -0.472  -0.179   0.185
    1UNL     H3   30  -0.478  -0.018   0.238
    1UNL     H4   31  -0.352   0.065   0.053
    1UNL     H5   32  -0.256  -0.276   0.123
    1UNL     H6   33  -0.182  -0.310  -0.043
    1UNL     H7   34  -0.136  -0.204   0.300
    1UNL     H8   35   0.031  -0.230   0.287
    1UNL     H9   36  -0.106   0.020   0.241
    1UNL    H10   37   0.053   0.012   0.289
    1UNL    H11   38   0.161   0.244   0.147
    1UNL    H12   39   0.402   0.294   0.065
    1UNL    H13   40   0.561   0.097   0.027
    1UNL    H14   41   0.471  -0.126   0.003
    1UNL    H15   42   0.236  -0.267   0.015
    1UNL    H16   43   0.126  -0.172  -0.203
    1UNL    H17   44   0.064  -0.380  -0.101
    1UNL    H18   45  -0.157  -0.179  -0.240
    1UNL    H19   46  -0.049  -0.042  -0.292
    1UNL    H20   47  -0.229   0.056  -0.136
    1UNL    H21   48  -0.192   0.165   0.119
    1UNL    H22   49  -0.048   0.271   0.116
    1UNL    H23   50  -0.130   0.324  -0.112
    1UNL    H24   51   0.102   0.405  -0.305
    1UNL    H25   52   0.150   0.238  -0.302
    1UNL    H26   53   0.217   0.354  -0.179
   0.00000   0.00000   0.00000   0.00000   0.00000   0.00000   0.00000   0.00000   0.00000
Generated with MDTraj, t= 91.0
 53
    1UNL     C1    1  -0.433  -0.106   0.173
    1UNL     C2    2  -0.343  -0.033   0.078
    1UNL     C3    3  -0.242  -0.093   0.020
    1UNL     C4    4  -0.185  -0.230   0.070
    1UNL     N1    5  -0.037  -0.230   0.099
    1UNL     C5    6  -0.007  -0.166   0.230
    1UNL     C6    7   0.001  -0.008   0.212
    1UNL     C7    8   0.048   0.011   0.061
    1UNL     C8    9   0.189   0.052   0.062
    1UNL     C9   10   0.250   0.168   0.092
    1UNL    C10   11   0.392   0.176   0.102
    1UNL    C11   12   0.470   0.060   0.088
    1UNL    C12   13   0.407  -0.062   0.060
    1UNL    C13   14   0.269  -0.064   0.049
    1UNL     N2   15   0.190  -0.181   0.027
    1UNL    C14   16   0.051  -0.144   0.008
    1UNL    C15   17   0.021  -0.185  -0.139
    1UNL     O1   18  -0.005  -0.326  -0.158
    1UNL    C16   19  -0.093  -0.102  -0.198
    1UNL    C17   20  -0.157  -0.021  -0.088
    1UNL    C18   21  -0.051   0.087  -0.035
    1UNL    C19   22  -0.122   0.200   0.031
    1UNL     O2   23  -0.228   0.248  -0.037
    1UNL    C20   24   0.034   0.154  -0.145
    1UNL     O3   25   0.089   0.083  -0.228
    1UNL     O4   26   0.054   0.288  -0.132
    1UNL    C21   27   0.122   0.342  -0.239
    1UNL     H1   28  -0.375  -0.117   0.266
    1UNL     H2   29  -0.463  -0.202   0.131
    1UNL     H3   30  -0.527  -0.050   0.191
    1UNL     H4   31  -0.357   0.072   0.058
    1UNL     H5   32  -0.234  -0.272   0.157
    1UNL     H6   33  -0.192  -0.304  -0.013
    1UNL     H7   34  -0.085  -0.192   0.306
    1UNL     H8   35   0.083  -0.205   0.272
    1UNL     H9   36  -0.098   0.028   0.234
    1UNL    H10   37   0.069   0.031   0.282
    1UNL    H11   38   0.187   0.253   0.104
    1UNL    H12   39   0.439   0.269   0.113
    1UNL    H13   40   0.577   0.063   0.107
    1UNL    H14   41   0.457  -0.153   0.038
    1UNL    H15   42   0.182  -0.256   0.092
    1UNL    H16   43   0.122  -0.165  -0.187
    1UNL    H17   44   0.039  -0.380  -0.095
    1UNL    H18   45  -0.171  -0.174  -0.243
    1UNL    H19   46  -0.064  -0.043  -0.298
    1UNL    H20   47  -0.230   0.046  -0.146
    1UNL    H21   48  -0.158   0.173   0.127
    1UNL    H22   49  -0.051   0.289   0.040
    1UNL    H23   50  -0.202   0.260  -0.128
    1UNL    H24   51   0.153   0.445  -0.223
    1UNL    H25   52   0.052   0.337  -0.317
    1UNL    H26   53   0.213   0.282  -0.251
   0.00000   0.00000   0.00000   0.00000   0.00000   0.00000   0.00000   0.00000   0.00000
Generated with MDTraj, t= 92.0
 53
    1UNL     C1    1  -0.440  -0.125   0.168
    1UNL     C2    2  -0.354  -0.051   0.070
    1UNL     C3    3  -0.245  -0.097   0.012
    1UNL     C4    4  -0.183  -0.225   0.068
    1UNL     N1    5  -0.040  -0.216   0.115
    1UNL     C5    6  -0.019  -0.132   0.236
    1UNL     C6    7   0.031   0.006   0.204
    1UNL     C7    8   0.054   0.005   0.047
    1UNL     C8    9   0.203   0.047   0.031
    1UNL     C9   10   0.266   0.163   0.062
    1UNL    C10   11   0.404   0.171   0.100
    1UNL    C11   12   0.475   0.049   0.121
    1UNL    C12   13   0.405  -0.074   0.103
    1UNL    C13   14   0.270  -0.072   0.059
    1UNL     N2   15   0.189  -0.183   0.047
    1UNL    C14   16   0.056  -0.150   0.010
    1UNL    C15   17   0.030  -0.187  -0.143
    1UNL     O1   18   0.027  -0.322  -0.165
    1UNL    C16   19  -0.095  -0.120  -0.208
    1UNL    C17   20  -0.163  -0.024  -0.095
    1UNL    C18   21  -0.057   0.081  -0.037
    1UNL    C19   22  -0.125   0.193   0.051
    1UNL     O2   23  -0.193   0.286  -0.019
    1UNL    C20   24   0.004   0.153  -0.153
    1UNL     O3   25   0.017   0.100  -0.263
    1UNL     O4   26   0.044   0.283  -0.126
    1UNL    C21   27   0.118   0.338  -0.232
    1UNL     H1   28  -0.390  -0.126   0.262
    1UNL     H2   29  -0.467  -0.225   0.132
    1UNL     H3   30  -0.537  -0.069   0.185
    1UNL     H4   31  -0.382   0.049   0.042
    1UNL     H5   32  -0.232  -0.268   0.155
    1UNL     H6   33  -0.189  -0.311  -0.003
    1UNL     H7   34  -0.116  -0.114   0.290
    1UNL     H8   35   0.042  -0.185   0.304
    1UNL     H9   36  -0.046   0.084   0.230
    1UNL    H10   37   0.122   0.011   0.257
    1UNL    H11   38   0.225   0.263   0.046
    1UNL    H12   39   0.439   0.273   0.126
    1UNL    H13   40   0.578   0.057   0.145
    1UNL    H14   41   0.448  -0.169   0.132
    1UNL    H15   42   0.229  -0.271   0.023
    1UNL    H16   43   0.120  -0.143  -0.188
    1UNL    H17   44   0.093  -0.371  -0.117
    1UNL    H18   45  -0.172  -0.190  -0.261
    1UNL    H19   46  -0.063  -0.062  -0.307
    1UNL    H20   47  -0.231   0.044  -0.158
    1UNL    H21   48  -0.197   0.150   0.118
    1UNL    H22   49  -0.050   0.245   0.115
    1UNL    H23   50  -0.130   0.325  -0.088
    1UNL    H24   51   0.229   0.350  -0.223
    1UNL    H25   52   0.073   0.433  -0.249
    1UNL    H26   53   0.098   0.270  -0.317
   0.00000   0.00000   0.00000   0.00000   0.00000   0.00000   0.00000   0.00000   0.00000
Generated with MDTraj, t= 93.0
 53
    1UNL     C1    1  -0.440  -0.121   0.153
    1UNL     C2    2  -0.353  -0.044   0.064
    1UNL     C3    3  -0.240  -0.091   0.013
    1UNL     C4    4  -0.189  -0.227   0.052
    1UNL     N1    5  -0.053  -0.217   0.115
    1UNL     C5    6  -0.034  -0.146   0.247
    1UNL     C6    7   0.017  -0.008   0.212
    1UNL     C7    8   0.051  -0.003   0.059
    1UNL     C8    9   0.197   0.040   0.059
    1UNL     C9   10   0.254   0.160   0.060
    1UNL    C10   11   0.395   0.168   0.067
    1UNL    C11   12   0.474   0.051   0.076
    1UNL    C12   13   0.414  -0.072   0.085
    1UNL    C13   14   0.272  -0.076   0.068
    1UNL     N2   15   0.196  -0.194   0.062
    1UNL    C14   16   0.055  -0.164   0.030
    1UNL    C15   17   0.040  -0.185  -0.127
    1UNL     O1   18   0.043  -0.321  -0.157
    1UNL    C16   19  -0.081  -0.113  -0.192
    1UNL    C17   20  -0.157  -0.021  -0.091
    1UNL    C18   21  -0.052   0.080  -0.034
    1UNL    C19   22  -0.125   0.199   0.049
    1UNL     O2   23  -0.199   0.275  -0.045
    1UNL    C20   24   0.016   0.160  -0.147
    1UNL     O3   25   0.014   0.119  -0.263
    1UNL     O4   26   0.062   0.288  -0.115
    1UNL    C21   27   0.106   0.353  -0.229
    1UNL     H1   28  -0.399  -0.129   0.251
    1UNL     H2   29  -0.472  -0.218   0.111
    1UNL     H3   30  -0.539  -0.070   0.176
    1UNL     H4   31  -0.381   0.056   0.034
    1UNL     H5   32  -0.258  -0.268   0.125
    1UNL     H6   33  -0.183  -0.300  -0.031
    1UNL     H7   34  -0.129  -0.151   0.310
    1UNL     H8   35   0.032  -0.200   0.311
    1UNL     H9   36  -0.063   0.067   0.237
    1UNL    H10   37   0.108   0.009   0.261
    1UNL    H11   38   0.178   0.238   0.049
    1UNL    H12   39   0.435   0.266   0.051
    1UNL    H13   40   0.583   0.055   0.093
    1UNL    H14   41   0.460  -0.168   0.093
    1UNL    H15   42   0.223  -0.289   0.070
    1UNL    H16   43   0.123  -0.142  -0.177
    1UNL    H17   44   0.133  -0.366  -0.138
    1UNL    H18   45  -0.154  -0.199  -0.228
    1UNL    H19   46  -0.049  -0.046  -0.278
    1UNL    H20   47  -0.225   0.050  -0.149
    1UNL    H21   48  -0.200   0.175   0.124
    1UNL    H22   49  -0.051   0.257   0.103
    1UNL    H23   50  -0.140   0.324  -0.104
    1UNL    H24   51   0.077   0.304  -0.327
    1UNL    H25   52   0.211   0.376  -0.223
    1UNL    H26   53   0.041   0.445  -0.227
   0.00000   0.00000   0.00000   0.00000   0.00000   0.00000   0.00000   0.00000   0.00000
Generated with MDTraj, t= 94.0
 53
    1UNL     C1    1  -0.444  -0.096   0.151
    1UNL     C2    2  -0.359  -0.044   0.039
    1UNL     C3    3  -0.242  -0.092  -0.001
    1UNL     C4    4  -0.191  -0.218   0.058
    1UNL     N1    5  -0.057  -0.209   0.109
    1UNL     C5    6  -0.033  -0.158   0.240
    1UNL     C6    7   0.003  -0.006   0.223
    1UNL     C7    8   0.046   0.007   0.071
    1UNL     C8    9   0.193   0.038   0.062
    1UNL     C9   10   0.251   0.164   0.061
    1UNL    C10   11   0.390   0.176   0.039
    1UNL    C11   12   0.472   0.060   0.035
    1UNL    C12   13   0.413  -0.064   0.041
    1UNL    C13   14   0.273  -0.079   0.053
    1UNL     N2   15   0.193  -0.190   0.062
    1UNL    C14   16   0.056  -0.143   0.028
    1UNL    C15   17   0.037  -0.184  -0.116
    1UNL     O1   18   0.053  -0.326  -0.134
    1UNL    C16   19  -0.077  -0.115  -0.186
    1UNL    C17   20  -0.154  -0.020  -0.100
    1UNL    C18   21  -0.055   0.084  -0.031
    1UNL    C19   22  -0.139   0.185   0.048
    1UNL     O2   23  -0.248   0.246  -0.036
    1UNL    C20   24   0.035   0.159  -0.132
    1UNL     O3   25   0.092   0.097  -0.223
    1UNL     O4   26   0.051   0.292  -0.105
    1UNL    C21   27   0.128   0.344  -0.208
    1UNL     H1   28  -0.388  -0.096   0.243
    1UNL     H2   29  -0.496  -0.189   0.119
    1UNL     H3   30  -0.525  -0.023   0.172
    1UNL     H4   31  -0.395   0.043  -0.011
    1UNL     H5   32  -0.256  -0.263   0.134
    1UNL     H6   33  -0.188  -0.280  -0.033
    1UNL     H7   34  -0.121  -0.186   0.307
    1UNL     H8   35   0.038  -0.223   0.285
    1UNL     H9   36  -0.080   0.060   0.249
    1UNL    H10   37   0.082   0.021   0.287
    1UNL    H11   38   0.188   0.247   0.073
    1UNL    H12   39   0.436   0.274   0.040
    1UNL    H13   40   0.576   0.076   0.028
    1UNL    H14   41   0.463  -0.158   0.056
    1UNL    H15   42   0.221  -0.268   0.009
    1UNL    H16   43   0.123  -0.145  -0.163
    1UNL    H17   44  -0.024  -0.373  -0.093
    1UNL    H18   45  -0.160  -0.194  -0.208
    1UNL    H19   46  -0.029  -0.058  -0.270
    1UNL    H20   47  -0.216   0.049  -0.166
    1UNL    H21   48  -0.195   0.134   0.128
    1UNL    H22   49  -0.085   0.264   0.093
    1UNL    H23   50  -0.212   0.292  -0.114
    1UNL    H24   51   0.145   0.455  -0.198
    1UNL    H25   52   0.085   0.314  -0.302
    1UNL    H26   53   0.231   0.305  -0.195
   0.00000   0.00000   0.00000   0.00000   0.00000   0.00000   0.00000   0.00000   0.00000
Generated with MDTraj, t= 95.0
 53
    1UNL     C1    1  -0.466  -0.093   0.138
    1UNL     C2    2  -0.363  -0.041   0.047
    1UNL     C3    3  -0.242  -0.094   0.014
    1UNL     C4    4  -0.179  -0.228   0.058
    1UNL     N1    5  -0.049  -0.223   0.125
    1UNL     C5    6  -0.058  -0.144   0.250
    1UNL     C6    7  -0.001  -0.009   0.216
    1UNL     C7    8   0.050  -0.005   0.073
    1UNL     C8    9   0.196   0.035   0.075
    1UNL     C9   10   0.252   0.160   0.067
    1UNL    C10   11   0.387   0.182   0.039
    1UNL    C11   12   0.473   0.067   0.028
    1UNL    C12   13   0.415  -0.057   0.039
    1UNL    C13   14   0.281  -0.076   0.061
    1UNL     N2   15   0.201  -0.195   0.053
    1UNL    C14   16   0.053  -0.152   0.031
    1UNL    C15   17   0.041  -0.181  -0.125
    1UNL     O1   18   0.060  -0.317  -0.150
    1UNL    C16   19  -0.085  -0.118  -0.186
    1UNL    C17   20  -0.155  -0.018  -0.089
    1UNL    C18   21  -0.048   0.085  -0.024
    1UNL    C19   22  -0.128   0.191   0.052
    1UNL     O2   23  -0.218   0.270  -0.034
    1UNL    C20   24   0.029   0.146  -0.137
    1UNL     O3   25   0.102   0.089  -0.215
    1UNL     O4   26   0.013   0.281  -0.145
    1UNL    C21   27   0.125   0.343  -0.193
    1UNL     H1   28  -0.434  -0.072   0.241
    1UNL     H2   29  -0.491  -0.196   0.101
    1UNL     H3   30  -0.561  -0.041   0.127
    1UNL     H4   31  -0.385   0.061   0.012
    1UNL     H5   32  -0.246  -0.277   0.131
    1UNL     H6   33  -0.168  -0.297  -0.025
    1UNL     H7   34  -0.161  -0.144   0.299
    1UNL     H8   35  -0.001  -0.198   0.320
    1UNL     H9   36  -0.077   0.062   0.230
    1UNL    H10   37   0.077   0.013   0.285
    1UNL    H11   38   0.192   0.253   0.081
    1UNL    H12   39   0.434   0.281   0.031
    1UNL    H13   40   0.582   0.070   0.006
    1UNL    H14   41   0.479  -0.143   0.028
    1UNL    H15   42   0.224  -0.280   0.008
    1UNL    H16   43   0.127  -0.141  -0.171
    1UNL    H17   44  -0.010  -0.367  -0.109
    1UNL    H18   45  -0.159  -0.198  -0.203
    1UNL    H19   46  -0.057  -0.056  -0.273
    1UNL    H20   47  -0.222   0.051  -0.151
    1UNL    H21   48  -0.201   0.148   0.123
    1UNL    H22   49  -0.064   0.257   0.100
    1UNL    H23   50  -0.161   0.317  -0.103
    1UNL    H24   51   0.215   0.278  -0.183
    1UNL    H25   52   0.131   0.440  -0.148
    1UNL    H26   53   0.111   0.354  -0.300
   0.00000   0.00000   0.00000   0.00000   0.00000   0.00000   0.00000   0.00000   0.00000
Generated with MDTraj, t= 96.0
 53
    1UNL     C1    1  -0.442  -0.125   0.141
    1UNL     C2    2  -0.359  -0.047   0.054
    1UNL     C3    3  -0.237  -0.084   0.019
    1UNL     C4    4  -0.179  -0.223   0.046
    1UNL     N1    5  -0.040  -0.225   0.113
    1UNL     C5    6  -0.034  -0.153   0.247
    1UNL     C6    7  -0.005  -0.007   0.220
    1UNL     C7    8   0.044  -0.001   0.076
    1UNL     C8    9   0.192   0.038   0.072
    1UNL     C9   10   0.252   0.164   0.059
    1UNL    C10   11   0.393   0.165   0.063
    1UNL    C11   12   0.471   0.051   0.065
    1UNL    C12   13   0.414  -0.075   0.077
    1UNL    C13   14   0.276  -0.077   0.073
    1UNL     N2   15   0.194  -0.190   0.053
    1UNL    C14   16   0.053  -0.152   0.032
    1UNL    C15   17   0.033  -0.169  -0.129
    1UNL     O1   18   0.050  -0.305  -0.158
    1UNL    C16   19  -0.090  -0.103  -0.192
    1UNL    C17   20  -0.156  -0.009  -0.086
    1UNL    C18   21  -0.046   0.085  -0.022
    1UNL    C19   22  -0.135   0.192   0.054
    1UNL     O2   23  -0.214   0.281  -0.026
    1UNL    C20   24   0.040   0.161  -0.130
    1UNL     O3   25   0.087   0.092  -0.215
    1UNL     O4   26   0.045   0.297  -0.143
    1UNL    C21   27   0.080   0.324  -0.278
    1UNL     H1   28  -0.395  -0.158   0.237
    1UNL     H2   29  -0.490  -0.205   0.080
    1UNL     H3   30  -0.529  -0.074   0.177
    1UNL     H4   31  -0.394   0.044   0.013
    1UNL     H5   32  -0.244  -0.282   0.113
    1UNL     H6   33  -0.176  -0.287  -0.042
    1UNL     H7   34  -0.138  -0.169   0.290
    1UNL     H8   35   0.031  -0.191   0.320
    1UNL     H9   36  -0.086   0.055   0.241
    1UNL    H10   37   0.086   0.015   0.275
    1UNL    H11   38   0.188   0.246   0.057
    1UNL    H12   39   0.447   0.256   0.061
    1UNL    H13   40   0.574   0.052   0.060
    1UNL    H14   41   0.467  -0.167   0.061
    1UNL    H15   42   0.230  -0.258  -0.008
    1UNL    H16   43   0.122  -0.131  -0.175
    1UNL    H17   44   0.023  -0.359  -0.079
    1UNL    H18   45  -0.157  -0.170  -0.232
    1UNL    H19   46  -0.057  -0.038  -0.274
    1UNL    H20   47  -0.226   0.060  -0.143
    1UNL    H21   48  -0.210   0.142   0.120
    1UNL    H22   49  -0.074   0.249   0.116
    1UNL    H23   50  -0.148   0.323  -0.082
    1UNL    H24   51  -0.010   0.292  -0.335
    1UNL    H25   52   0.166   0.265  -0.303
    1UNL    H26   53   0.102   0.427  -0.301
   0.00000   0.00000   0.00000   0.00000   0.00000   0.00000   0.00000   0.00000   0.00000
Generated with MDTraj, t= 97.0
 53
    1UNL     C1    1  -0.443  -0.107   0.168
    1UNL     C2    2  -0.351  -0.036   0.072
    1UNL     C3    3  -0.240  -0.079   0.014
    1UNL     C4    4  -0.185  -0.212   0.058
    1UNL     N1    5  -0.044  -0.229   0.100
    1UNL     C5    6  -0.023  -0.170   0.227
    1UNL     C6    7   0.019  -0.018   0.217
    1UNL     C7    8   0.051   0.003   0.063
    1UNL     C8    9   0.201   0.043   0.056
    1UNL     C9   10   0.260   0.167   0.073
    1UNL    C10   11   0.395   0.171   0.096
    1UNL    C11   12   0.469   0.058   0.112
    1UNL    C12   13   0.406  -0.064   0.089
    1UNL    C13   14   0.273  -0.074   0.062
    1UNL     N2   15   0.187  -0.187   0.048
    1UNL    C14   16   0.053  -0.152   0.013
    1UNL    C15   17   0.031  -0.174  -0.137
    1UNL     O1   18   0.046  -0.313  -0.161
    1UNL    C16   19  -0.101  -0.112  -0.189
    1UNL    C17   20  -0.161  -0.010  -0.093
    1UNL    C18   21  -0.045   0.082  -0.033
    1UNL    C19   22  -0.117   0.200   0.051
    1UNL     O2   23  -0.219   0.261  -0.011
    1UNL    C20   24   0.030   0.153  -0.155
    1UNL     O3   25   0.112   0.094  -0.220
    1UNL     O4   26  -0.006   0.283  -0.180
    1UNL    C21   27   0.092   0.334  -0.269
    1UNL     H1   28  -0.400  -0.139   0.268
    1UNL     H2   29  -0.479  -0.195   0.111
    1UNL     H3   30  -0.530  -0.049   0.187
    1UNL     H4   31  -0.375   0.064   0.032
    1UNL     H5   32  -0.238  -0.259   0.144
    1UNL     H6   33  -0.207  -0.284  -0.019
    1UNL     H7   34  -0.114  -0.184   0.293
    1UNL     H8   35   0.056  -0.229   0.265
    1UNL     H9   36  -0.065   0.046   0.242
    1UNL    H10   37   0.108  -0.004   0.276
    1UNL    H11   38   0.200   0.258   0.059
    1UNL    H12   39   0.437   0.269   0.120
    1UNL    H13   40   0.582   0.065   0.119
    1UNL    H14   41   0.464  -0.156   0.082
    1UNL    H15   42   0.220  -0.277   0.075
    1UNL    H16   43   0.120  -0.126  -0.182
    1UNL    H17   44  -0.008  -0.365  -0.091
    1UNL    H18   45  -0.173  -0.181  -0.213
    1UNL    H19   46  -0.081  -0.065  -0.280
    1UNL    H20   47  -0.233   0.049  -0.157
    1UNL    H21   48  -0.166   0.149   0.138
    1UNL    H22   49  -0.059   0.279   0.087
    1UNL    H23   50  -0.181   0.296  -0.100
    1UNL    H24   51   0.094   0.443  -0.247
    1UNL    H25   52   0.061   0.313  -0.371
    1UNL    H26   53   0.189   0.290  -0.256
   0.00000   0.00000   0.00000   0.00000   0.00000   0.00000   0.00000   0.00000   0.00000
Generated with MDTraj, t= 98.0
 53
    1UNL     C1    1  -0.404  -0.069   0.198
    1UNL     C2    2  -0.336  -0.034   0.069
    1UNL     C3    3  -0.232  -0.096   0.017
    1UNL     C4    4  -0.186  -0.231   0.058
    1UNL     N1    5  -0.042  -0.218   0.096
    1UNL     C5    6  -0.018  -0.172   0.237
    1UNL     C6    7   0.002  -0.020   0.213
    1UNL     C7    8   0.048  -0.001   0.062
    1UNL     C8    9   0.192   0.051   0.072
    1UNL     C9   10   0.255   0.166   0.104
    1UNL    C10   11   0.388   0.171   0.125
    1UNL    C11   12   0.469   0.058   0.114
    1UNL    C12   13   0.415  -0.064   0.079
    1UNL    C13   14   0.276  -0.062   0.056
    1UNL     N2   15   0.194  -0.180   0.038
    1UNL    C14   16   0.052  -0.147   0.007
    1UNL    C15   17   0.033  -0.177  -0.148
    1UNL     O1   18   0.022  -0.316  -0.188
    1UNL    C16   19  -0.096  -0.103  -0.198
    1UNL    C17   20  -0.155  -0.019  -0.091
    1UNL    C18   21  -0.055   0.079  -0.030
    1UNL    C19   22  -0.128   0.200   0.031
    1UNL     O2   23  -0.220   0.259  -0.052
    1UNL    C20   24   0.030   0.139  -0.145
    1UNL     O3   25   0.118   0.086  -0.209
    1UNL     O4   26   0.003   0.277  -0.161
    1UNL    C21   27   0.067   0.324  -0.275
    1UNL     H1   28  -0.339  -0.043   0.287
    1UNL     H2   29  -0.417  -0.177   0.185
    1UNL     H3   30  -0.497  -0.015   0.196
    1UNL     H4   31  -0.352   0.059   0.020
    1UNL     H5   32  -0.254  -0.272   0.135
    1UNL     H6   33  -0.182  -0.307  -0.019
    1UNL     H7   34  -0.115  -0.189   0.292
    1UNL     H8   35   0.063  -0.219   0.288
    1UNL     H9   36  -0.090   0.043   0.226
    1UNL    H10   37   0.078   0.012   0.280
    1UNL    H11   38   0.199   0.255   0.128
    1UNL    H12   39   0.437   0.262   0.149
    1UNL    H13   40   0.573   0.060   0.128
    1UNL    H14   41   0.478  -0.148   0.055
    1UNL    H15   42   0.215  -0.266   0.085
    1UNL    H16   43   0.126  -0.131  -0.193
    1UNL    H17   44  -0.013  -0.365  -0.113
    1UNL    H18   45  -0.166  -0.177  -0.224
    1UNL    H19   46  -0.089  -0.045  -0.280
    1UNL    H20   47  -0.233   0.040  -0.145
    1UNL    H21   48  -0.195   0.171   0.121
    1UNL    H22   49  -0.060   0.271   0.062
    1UNL    H23   50  -0.176   0.312  -0.118
    1UNL    H24   51   0.167   0.358  -0.238
    1UNL    H25   52   0.009   0.413  -0.306
    1UNL    H26   53   0.070   0.250  -0.355
   0.00000   0.00000   0.00000   0.00000   0.00000   0.00000   0.00000   0.00000   0.00000
Generated with MDTraj, t= 99.0
 53
    1UNL     C1    1  -0.387  -0.107   0.199
    1UNL     C2    2  -0.311  -0.039   0.093
    1UNL     C3    3  -0.222  -0.090   0.012
    1UNL     C4    4  -0.187  -0.235   0.048
    1UNL     N1    5  -0.048  -0.232   0.097
    1UNL     C5    6  -0.032  -0.168   0.234
    1UNL     C6    7  -0.015  -0.024   0.200
    1UNL     C7    8   0.042   0.003   0.061
    1UNL     C8    9   0.182   0.048   0.077
    1UNL     C9   10   0.240   0.172   0.100
    1UNL    C10   11   0.374   0.178   0.118
    1UNL    C11   12   0.448   0.067   0.106
    1UNL    C12   13   0.395  -0.055   0.083
    1UNL    C13   14   0.259  -0.069   0.070
    1UNL     N2   15   0.189  -0.189   0.044
    1UNL    C14   16   0.055  -0.155   0.014
    1UNL    C15   17   0.038  -0.176  -0.135
    1UNL     O1   18   0.038  -0.314  -0.179
    1UNL    C16   19  -0.090  -0.111  -0.194
    1UNL    C17   20  -0.158  -0.008  -0.098
    1UNL    C18   21  -0.052   0.089  -0.037
    1UNL    C19   22  -0.108   0.211   0.041
    1UNL     O2   23  -0.225   0.279  -0.019
    1UNL    C20   24   0.029   0.153  -0.155
    1UNL     O3   25   0.092   0.077  -0.223
    1UNL     O4   26   0.033   0.285  -0.178
    1UNL    C21   27   0.097   0.319  -0.297
    1UNL     H1   28  -0.330  -0.174   0.269
    1UNL     H2   29  -0.458  -0.170   0.147
    1UNL     H3   30  -0.442  -0.033   0.256
    1UNL     H4   31  -0.322   0.070   0.080
    1UNL     H5   32  -0.240  -0.276   0.135
    1UNL     H6   33  -0.208  -0.303  -0.034
    1UNL     H7   34  -0.112  -0.192   0.307
    1UNL     H8   35   0.057  -0.211   0.277
    1UNL     H9   36  -0.109   0.030   0.212
    1UNL    H10   37   0.049   0.026   0.270
    1UNL    H11   38   0.185   0.262   0.117
    1UNL    H12   39   0.427   0.266   0.156
    1UNL    H13   40   0.556   0.079   0.116
    1UNL    H14   41   0.447  -0.150   0.084
    1UNL    H15   42   0.233  -0.261  -0.014
    1UNL    H16   43   0.128  -0.124  -0.187
    1UNL    H17   44   0.017  -0.382  -0.108
    1UNL    H18   45  -0.163  -0.181  -0.224
    1UNL    H19   46  -0.059  -0.062  -0.278
    1UNL    H20   47  -0.243   0.054  -0.132
    1UNL    H21   48  -0.142   0.193   0.147
    1UNL    H22   49  -0.034   0.283   0.053
    1UNL    H23   50  -0.211   0.299  -0.116
    1UNL    H24   51   0.107   0.224  -0.355
    1UNL    H25   52   0.197   0.356  -0.264
    1UNL    H26   53   0.041   0.392  -0.355
   0.00000   0.00000   0.00000   0.00000   0.00000   0.00000   0.00000   0.00000   0.00000
