1TPCN03118
20
    1res  C1    1   -0.365  -0.157  -0.320
    1res  C2    2   -0.327  -0.115   0.013
    1res  C3    3   -0.264  -0.368   0.043
    1res  C4    4   -0.198  -0.192   0.194
    1res  C5    5   -0.129  -0.246   0.428
    1res  C6    6    0.127  -0.017   0.087
    1res  C7    7    0.250  -0.158   0.228
    1res  C8    8    0.141   0.180   0.272
    1res  C9    9    0.321   0.199   0.460
    1res  C10   10   -0.102   0.119   0.012
    1res  C11   11    0.029   0.333   0.002
    1res  C12   12    0.144   0.356  -0.215
    1res  C13   13    0.204   0.506  -0.416
    1res  C14   14    0.044   0.641  -0.214
    1res  C15   15    0.318  -0.053  -0.121
    1res  C16   16    0.381  -0.288  -0.163
    1res  C17   17    0.466  -0.465  -0.331
    1res  C18   18    0.443  -0.198  -0.445
    1res  C19   19   -0.267   0.212  -0.190
    1res  C20   20   -0.345   0.044   0.260
  10.00000  10.00000  10.00000
