[ moleculetype ]
; name        nrexcl
res           1

[ atoms ]
;    nr  type resnr resid  atom  cgnr     charge       mass
      1 TC4       1 res   C1        1      0.000     36.000
      2 SC5       1 res   C2        2      0.000     54.000
      3 SN6       1 res   C3        3      0.000     54.000
      4 SN4a      1 res   C4        4      0.000     54.000
      5 TP1       1 res   C5        5      0.000     36.000
      6 TN6       1 res   C6        6      0.000     36.000
      7 TN6       1 res   C7        7      0.000     36.000
      8 TN6       1 res   C8        8      0.000     36.000
      9 SC4       1 res   C9        9      0.000     54.000
     10 TN6a      1 res   C10      10      0.000     36.000
     11 TC5       1 res   C11      11      0.000     36.000
     12 TC3       1 res   C12      12      0.000     36.000
     13 TC3       1 res   C13      13      0.000     36.000
     14 SC4       1 res   C14      14      0.000     54.000
     15 TN6       1 res   C15      15      0.000     36.000
     16 TN4a      1 res   C16      16      0.000     36.000
     17 TP1       1 res   C17      17      0.000     36.000
     18 TN6       1 res   C18      18      0.000     36.000
     19 TN6       1 res   C19      19      0.000     36.000
     20 TN6       1 res   C20      20      0.000     36.000

[ bonds ]
;  ai    aj   funct      b0(nm)        k
    1     2     1      0.35122    20000
    1    11     1      0.29685    20000
    2     3     1      0.34435    20000
    2    10     1      0.25547    20000
    2    11     1      0.27270    20000
    3     4     1      0.31595    20000
    3     9     1      0.29117    20000
    4     5     1      0.31625    20000
    4     6     1      0.30632    20000
    4     8     1      0.27668    20000
    6     7     1      0.25805    20000
    7     8     1      0.22911    20000
    9    10     1      0.23679    20000
   11    12     1      0.28237    20000
   11    13     1      0.25251    20000
   11    14     1      0.27754    20000
   12    13     1      0.27371    20000
   12    14     1      0.31080    20000
   14    15     1      0.26489    20000
   15    16     1      0.25644    20000
   15    20     1      0.20782    20000
   16    17     1      0.21360    20000
   16    18     1      0.25886    20000
   18    19     1      0.23381    20000
   19    20     1      0.24350    20000
