1TPCN05114
20
    1res  C1    1   -0.301  -0.345  -0.035
    1res  C2    2   -0.385  -0.517   0.156
    1res  C3    3   -0.375  -0.181   0.202
    1res  C4    4   -0.160  -0.142   0.047
    1res  C5    5   -0.261   0.077   0.072
    1res  C6    6   -0.424   0.255  -0.088
    1res  C7    7   -0.521   0.422   0.067
    1res  C8    8   -0.648   0.315  -0.229
    1res  C9    9   -0.549   0.175  -0.352
    1res  C10   10   -0.362   0.071  -0.269
    1res  C11   11    0.005  -0.023   0.265
    1res  C12   12    0.084  -0.272   0.200
    1res  C13   13    0.146  -0.193  -0.174
    1res  C14   14    0.338  -0.260   0.051
    1res  C15   15    0.286   0.105  -0.037
    1res  C16   16    0.487   0.099  -0.273
    1res  C17   17    0.477   0.341  -0.169
    1res  C18   18    0.432   0.337   0.104
    1res  C19   19    0.678   0.236   0.124
    1res  C20   20    0.384  -0.017   0.226
  10.00000  10.00000  10.00000
