[ moleculetype ]
; name        nrexcl
res           1

[ atoms ]
;    nr  type  resnr resid  atom  cgnr     charge       mass
      1 TC4       1 res   C1        1      0.000     36.000
      2 SN6       1 res   C2        2      0.000     54.000
      3 SN5a      1 res   C3        3      0.000     54.000
      4 SC5       1 res   C4        4      0.000     54.000
      5 N4a       1 res   C5        5      0.000     72.000
      6 TC5       1 res   C6        6      0.000     36.000
      7 TC5       1 res   C7        7      0.000     36.000
      8 TC5       1 res   C8        8      0.000     36.000
      9 TN6       1 res   C9        9      0.000     36.000
     10 SN4a      1 res   C10      10      0.000     54.000
     11 N4a       1 res   C11      11      0.000     72.000
     12 TC5       1 res   C12      12      0.000     36.000
     13 TC5       1 res   C13      13      0.000     36.000
     14 TC5       1 res   C14      14      0.000     36.000
     15 SP4       1 res   C15      15      0.000     54.000
     16 TN6       1 res   C16      16      0.000     36.000

[ constraints ]
;  ai    aj   funct      b0(nm)
   13    14     1      0.28799
    6     8     1      0.29795
    1     3     1      0.35933
   10    15     1      0.27041
    1     9     1      0.25754
    2     4     1      0.28236
    6     7     1      0.25615
   15    16     1      0.23340
    1     2     1      0.36290
    2     3     1      0.28554
   12    14     1      0.29804
    7     8     1      0.28793
    4     9     1      0.22771
   10    16     1      0.24539
    3     4     1      0.31868
   12    13     1      0.25606

[ bonds ]
;  ai    aj   funct      b0(nm)          k(kJ/mol/nm^2)
    4     5     1      0.31493           3058.6
    9    10     1      0.21172          18456.5
    5     6     1      0.33364           7709.8
   10    11     1      0.31756           3125.8
   11    12     1      0.32381          15935.3

[ angles ]
;  ai    aj    ak  funct     th0(deg)        k(kJ/mol/rad^2)
    1     2     3     1     66.04749          4214.51
    1     2     4     1     73.76375          3178.94
    1     3     2     1     67.38714          2243.47
    1     3     4     1     70.49212          3432.94
    1     9     4     1    107.90990          1276.23
    1     9    10     1    111.62932           109.30
    2     1     3     1     46.56540          5880.94
    2     1     9     1     75.86134          2305.59
    2     3     4     1     55.38680          3342.96
    2     4     3     1     56.32641          5540.90
    2     4     5     1    120.91722           110.32
    2     4     9     1     99.33709          2001.73
    3     1     9     1     60.32267          3659.52
    3     2     4     1     68.28682          3063.01
    3     4     5     1     70.80496           104.18
    3     4     9     1     70.03139          2722.15
    4     5     6     1     99.73323            44.12
    4     9    10     1    126.32866           510.58
    5     4     9     1     83.73079           233.53
    5     6     7     1    151.42165           138.38
    5     6     8     1     90.84197           138.01
    6     7     8     1     66.11304          6781.05
    6     8     7     1     51.81648          9678.31
    7     6     8     1     62.07045          9612.07
    9    10    11     1    129.12410           167.61
    9    10    15     1    129.79460           193.81
    9    10    16     1    105.77366           197.88
   10    11    12     1    114.80592            22.36
   10    15    16     1     57.75204          1499.67
   10    16    15     1     68.73830          1492.13
   11    10    15     1     87.00525           335.77
   11    10    16     1    124.18376           293.58
   11    12    13     1    156.31326           184.32
   11    12    14     1     95.44006           182.04
   12    13    14     1     66.13568          6867.32
   12    14    13     1     51.78051         11340.95
   13    12    14     1     62.08382          9574.19
   15    10    16     1     53.50945          2524.01

[ dihedrals ]
;  ai    aj    ak    al  funct   phi0(deg)        k(kJ/mol)   mult
    1     2     3     4     1     98.04477        4.736      1
    1     2     4     3     1   -109.99591        3.263      1
    1     2     4     5     1    -79.05205       12.963      1
    1     2     4     9     1   -168.92283        5.544      1
    1     3     2     4     1    -98.04477        4.736      1
    1     3     4     2     1    104.05493        6.222      1
    1     3     4     5     1    -48.12936       12.160      1
    1     3     4     9     1   -139.00275        5.497      1
    1     9     4     2     1    162.99890        7.088      1
    1     9     4     3     1    114.93290        5.539      1
    1     9     4     5     1     44.94111       12.954      1
    1     9    10    11     1   -115.14941       14.217      1
    1     9    10    15     1    120.28710       17.707      1
    1     9    10    16     1     67.33125       16.179      1
    2     1     3     4     1   -120.94775        4.009      1
    2     1     9     4     1   -166.94027        5.550      1
    2     1     9    10     1     29.19991       14.516      1
    2     3     1     9     1     82.88603        5.538      1
    2     3     4     5     1     28.60767       11.440      1
    2     3     4     9     1    -63.00693        5.552      1
    2     4     5     6     1    -58.71520       27.073      1
    2     4     9    10     1    -48.18687       19.079      1
    3     1     2     4     1    106.08345        4.761      1
    3     1     9     4     1   -119.90816        4.765      1
    3     1     9    10     1     79.70641       14.071      1
    3     2     1     9     1   -116.09309        6.212      1
    3     2     4     5     1   -149.96008       12.281      1
    3     2     4     9     1    122.92978        5.553      1
    3     4     5     6     1    -37.11941       26.724      1
    3     4     9    10     1    -94.28919       20.599      1
    4     2     1     9     1    169.92495        4.776      1
    4     3     1     9     1    141.00277        4.003      1
    4     5     6     7     1    -61.10638       17.672      1
    4     5     6     8     1    -58.11572       17.384      1
    4     9    10    11     1     95.85719       20.055      1
    4     9    10    15     1    -29.11075       20.593      1
    4     9    10    16     1    -83.58413       20.064      1
    5     4     9    10     1   -161.65811       23.328      1
    5     6     7     8     1    179.82084       26.110      1
    5     6     8     7     1     -1.52053       16.355      1
    6     5     4     9     1     35.55890       24.967      1
    9    10    11    12     1    -48.66562       27.178      1
    9    10    15    16     1    102.13850       17.718      1
    9    10    16    15     1    -53.66581       13.632      1
   10    11    12    13     1    116.19664       19.698      1
   10    11    12    14     1    129.07776       22.042      1
   11    10    15    16     1    -43.02515       14.270      1
   11    10    16    15     1    128.97880       14.265      1
   11    12    13    14     1    173.62975       26.762      1
   11    12    14    13     1     -1.92457       13.655      1
   12    11    10    15     1     89.96721       19.638      1
   12    11    10    16     1    128.54695       21.627      1
