1TPCN06205
32
    1res  C1    1   -0.841   0.238  -0.362
    1res  C2    2   -0.692   0.039  -0.288
    1res  C3    3   -0.609  -0.029  -0.102
    1res  C4    4   -0.492  -0.145   0.025
    1res  C5    5   -0.210  -0.117   0.084
    1res  C6    6   -0.072  -0.359   0.132
    1res  C7    7    0.046  -0.163  -0.169
    1res  C8    8    0.233  -0.307  -0.021
    1res  C9    9    0.229  -0.187   0.288
    1res  C10   10    0.277   0.023   0.071
    1res  C11   11    0.609  -0.167   0.188
    1res  C12   12    0.635  -0.052   0.467
    1res  C13   13    0.680   0.119   0.234
    1res  C14   14    0.792  -0.051  -0.006
    1res  C15   15    1.004   0.122  -0.148
    1res  C16   16    1.080   0.367  -0.320
    1res  C17   17    1.288   0.190  -0.186
    1res  C18   18    1.258   0.071  -0.002
    1res  C19   19    1.066  -0.002   0.060
    1res  C20   20    0.476   0.002  -0.105
    1res  C21   21   -0.278  -0.404  -0.128
    1res  C22   22   -0.706  -0.245   0.142
    1res  C23   23   -0.892  -0.124   0.030
    1res  C24   24   -0.747   0.049   0.044
    1res  C25   25   -0.770   0.298   0.242
    1res  C26   26   -0.981   0.414   0.330
    1res  C27   27   -0.791   0.535   0.154
    1res  C28   28   -0.565   0.483   0.110
    1res  C29   29   -0.608   0.291   0.018
    1res  C30   30   -0.532  -0.110  -0.423
    1res  C31   31   -0.708  -0.059  -0.572
    1res  C32   32   -0.738   0.157  -0.582
  10.00000  10.00000  10.00000
