1TPCN01034
16
    1res  C1    1   -0.112  -0.343  -0.080
    1res  C2    2   -0.104   0.010   0.052
    1res  C3    3   -0.123  -0.101   0.275
    1res  C4    4    0.222  -0.318   0.182
    1res  C5    5   -0.396  -0.015   0.119
    1res  C6    6   -0.174   0.353   0.088
    1res  C7    7   -0.167   0.159  -0.130
    1res  C8    8    0.062   0.162  -0.063
    1res  C9    9    0.410   0.064  -0.011
    1res  C10   10    0.767   0.023   0.038
    1res  C11   11    0.976  -0.108  -0.039
    1res  C12   12    0.743  -0.153  -0.207
    1res  C13   13   -0.364   0.124  -0.231
    1res  C14   14   -0.588   0.168  -0.358
    1res  C15   15   -0.703   0.251  -0.138
    1res  C16   16   -0.744   0.223  -0.334
  10.00000  10.00000  10.00000
