[ moleculetype ]
; name        nrexcl
res           1

[ atoms ]
;    nr  type resnr resid  atom  cgnr     charge       mass
      1 SC4       1 res   C1        1      0.000     54.000
      2 SC4       1 res   C2        2      0.000     54.000
      3 SC4       1 res   C3        3      0.000     54.000
      4 TC3       1 res   C4        4      0.000     36.000
      5 SC4       1 res   C5        5      0.000     54.000
      6 SC4       1 res   C6        6      0.000     54.000
      7 TC3       1 res   C7        7      0.000     36.000
      8 TN6       1 res   C8        8      0.000     36.000
      9 SN4a      1 res   C9        9      0.000     54.000
     10 SP2       1 res   C10      10      0.000     54.000
     11 TN6       1 res   C11      11      0.000     36.000
     12 TN6       1 res   C12      12      0.000     36.000
     13 TN6       1 res   C13      13      0.000     36.000
     14 SN4a      1 res   C14      14      0.000     54.000
     15 TP1       1 res   C15      15      0.000     36.000
     16 TN6       1 res   C16      16      0.000     36.000
     17 TN6       1 res   C17      17      0.000     36.000
     18 TN6       1 res   C18      18      0.000     36.000
     19 TC4       1 res   C19      19      0.000     36.000
     20 TP1       1 res   C20      20      0.000     36.000
     21 TC3       1 res   C21      21      0.000     36.000
     22 TC3       1 res   C22      22      0.000     36.000
     23 TN6       1 res   C23      23      0.000     36.000
     24 SN4a      1 res   C24      24      0.000     54.000
     25 TN6       1 res   C25      25      0.000     36.000
     26 TN6       1 res   C26      26      0.000     36.000
     27 TN6       1 res   C27      27      0.000     36.000
     28 TN6       1 res   C28      28      0.000     36.000

[ bonds ]
;  ai    aj   funct      b0(nm)        k
    1     2     1      0.41852    20000
    1    28     1      0.27796    20000
    2     3     1      0.39024    20000
    2    22     1      0.27783    20000
    2    23     1      0.24911    20000
    3     4     1      0.36908    20000
    3     5     1      0.26360    20000
    3    22     1      0.25989    20000
    4     5     1      0.36913    20000
    5     6     1      0.26775    20000
    5    21     1      0.27508    20000
    6     7     1      0.25467    20000
    6    19     1      0.33079    20000
    6    21     1      0.30571    20000
    7     8     1      0.25535    20000
    8     9     1      0.30213    20000
    8    19     1      0.22840    20000
    9    10     1      0.27705    20000
    9    11     1      0.23522    20000
    9    13     1      0.26942    20000
   11    12     1      0.24109    20000
   12    13     1      0.23701    20000
   13    14     1      0.25706    20000
   14    15     1      0.32256    20000
   14    16     1      0.29005    20000
   14    18     1      0.23979    20000
   16    17     1      0.22545    20000
   17    18     1      0.26321    20000
   19    20     1      0.30049    20000
   23    24     1      0.30407    20000
   23    28     1      0.21765    20000
   24    25     1      0.26116    20000
   24    27     1      0.28601    20000
   25    26     1      0.23477    20000
   26    27     1      0.28730    20000
