1Stigmasterol
11
    1res  C1    1   -0.583   0.056   0.258
    1res  C2    2   -0.315  -0.003  -0.154
    1res  C3    3   -0.133   0.137  -0.046
    1res  C4    4    0.061   0.103  -0.143
    1res  C5    5    0.138  -0.186  -0.031
    1res  C6    6    0.293   0.025  -0.126
    1res  C7    7    0.403   0.210   0.036
    1res  C8    8    0.533  -0.135  -0.107
    1res  C9    9    0.544  -0.161   0.166
    1res  C10   10    0.753   0.036   0.103
    1res  C11   11   -0.729  -0.065   0.031
  10.00000  10.00000  10.00000
