Generated with MDTraj, t= 0.0
 68
    1UNL     C1    1   0.248  -0.119  -0.336
    1UNL     C2    2   0.302  -0.180  -0.232
    1UNL     C3    3   0.235  -0.300  -0.173
    1UNL     O1    4   0.096  -0.306  -0.202
    1UNL     C4    5   0.021  -0.209  -0.129
    1UNL     O2    6  -0.099  -0.169  -0.200
    1UNL     C5    7  -0.198  -0.101  -0.122
    1UNL     C6    8  -0.154   0.039  -0.075
    1UNL     O3    9  -0.242   0.090   0.023
    1UNL     C7   10  -0.368   0.127  -0.033
    1UNL     O4   11  -0.372   0.259  -0.089
    1UNL     C8   12  -0.460   0.339  -0.011
    1UNL     C9   13  -0.561   0.245   0.059
    1UNL     O5   14  -0.674   0.222  -0.026
    1UNL    C10   15  -0.606   0.299   0.196
    1UNL     O6   16  -0.496   0.323   0.280
    1UNL    C11   17  -0.480   0.114   0.074
    1UNL     O7   18  -0.560  -0.001   0.052
    1UNL    C12   19  -0.249  -0.187  -0.001
    1UNL     O8   20  -0.383  -0.227  -0.021
    1UNL    C13   21  -0.159  -0.311   0.019
    1UNL     O9   22  -0.185  -0.405  -0.083
    1UNL    C14   23  -0.010  -0.268   0.014
    1UNL    O10   24   0.072  -0.378   0.041
    1UNL    C15   25   0.432  -0.133  -0.173
    1UNL    O11   26   0.537  -0.129  -0.269
    1UNL    C16   27   0.418   0.001  -0.100
    1UNL    C17   28   0.550   0.045  -0.036
    1UNL    C18   29   0.540   0.176   0.034
    1UNL    C19   30   0.512   0.192   0.163
    1UNL    C20   31   0.492   0.075   0.253
    1UNL    C21   32   0.502   0.329   0.220
    1UNL     H1   33   0.156  -0.155  -0.378
    1UNL     H2   34   0.294  -0.034  -0.381
    1UNL     H3   35   0.248  -0.303  -0.064
    1UNL     H4   36   0.280  -0.391  -0.214
    1UNL     H5   37   0.083  -0.119  -0.121
    1UNL     H6   38  -0.283  -0.091  -0.190
    1UNL     H7   39  -0.056   0.033  -0.028
    1UNL     H8   40  -0.147   0.110  -0.158
    1UNL     H9   41  -0.392   0.059  -0.115
    1UNL    H10   42  -0.511   0.409  -0.078
    1UNL    H11   43  -0.400   0.395   0.062
    1UNL    H12   44  -0.702   0.129  -0.015
    1UNL    H13   45  -0.662   0.392   0.182
    1UNL    H14   46  -0.673   0.226   0.243
    1UNL    H15   47  -0.525   0.355   0.369
    1UNL    H16   48  -0.436   0.108   0.174
    1UNL    H17   49  -0.503  -0.079   0.032
    1UNL    H18   50  -0.249  -0.125   0.090
    1UNL    H19   51  -0.382  -0.308  -0.078
    1UNL    H20   52  -0.181  -0.362   0.114
    1UNL    H21   53  -0.152  -0.367  -0.168
    1UNL    H22   54   0.010  -0.193   0.092
    1UNL    H23   55   0.058  -0.443  -0.032
    1UNL    H24   56   0.465  -0.208  -0.100
    1UNL    H25   57   0.513  -0.068  -0.342
    1UNL    H26   58   0.339  -0.005  -0.025
    1UNL    H27   59   0.385   0.077  -0.172
    1UNL    H28   60   0.584  -0.032   0.034
    1UNL    H29   61   0.628   0.049  -0.113
    1UNL    H30   62   0.550   0.265  -0.026
    1UNL    H31   63   0.420   0.005   0.211
    1UNL    H32   64   0.586   0.021   0.269
    1UNL    H33   65   0.455   0.106   0.351
    1UNL    H34   66   0.414   0.381   0.181
    1UNL    H35   67   0.590   0.388   0.194
    1UNL    H36   68   0.494   0.327   0.329
   0.00000   0.00000   0.00000   0.00000   0.00000   0.00000   0.00000   0.00000   0.00000
Generated with MDTraj, t= 1.0
 68
    1UNL     C1    1   0.266  -0.133  -0.355
    1UNL     C2    2   0.322  -0.187  -0.245
    1UNL     C3    3   0.244  -0.297  -0.181
    1UNL     O1    4   0.104  -0.297  -0.208
    1UNL     C4    5   0.024  -0.208  -0.126
    1UNL     O2    6  -0.098  -0.168  -0.185
    1UNL     C5    7  -0.190  -0.101  -0.102
    1UNL     C6    8  -0.154   0.046  -0.070
    1UNL     O3    9  -0.246   0.099   0.016
    1UNL     C7   10  -0.372   0.142  -0.041
    1UNL     O4   11  -0.368   0.276  -0.091
    1UNL     C8   12  -0.469   0.346  -0.020
    1UNL     C9   13  -0.565   0.258   0.057
    1UNL     O5   14  -0.683   0.234  -0.025
    1UNL    C10   15  -0.618   0.318   0.191
    1UNL     O6   16  -0.519   0.317   0.285
    1UNL    C11   17  -0.481   0.122   0.081
    1UNL     O7   18  -0.558   0.008   0.056
    1UNL    C12   19  -0.235  -0.195   0.013
    1UNL     O8   20  -0.374  -0.232   0.008
    1UNL    C13   21  -0.150  -0.324   0.023
    1UNL     O9   22  -0.193  -0.413  -0.081
    1UNL    C14   23  -0.003  -0.286   0.014
    1UNL    O10   24   0.076  -0.403   0.031
    1UNL    C15   25   0.445  -0.138  -0.177
    1UNL    O11   26   0.545  -0.123  -0.276
    1UNL    C16   27   0.419  -0.007  -0.100
    1UNL    C17   28   0.558   0.052  -0.042
    1UNL    C18   29   0.533   0.180   0.031
    1UNL    C19   30   0.496   0.190   0.163
    1UNL    C20   31   0.477   0.062   0.247
    1UNL    C21   32   0.478   0.321   0.231
    1UNL     H1   33   0.161  -0.141  -0.380
    1UNL     H2   34   0.302  -0.056  -0.421
    1UNL     H3   35   0.252  -0.298  -0.074
    1UNL     H4   36   0.274  -0.385  -0.236
    1UNL     H5   37   0.070  -0.111  -0.102
    1UNL     H6   38  -0.269  -0.105  -0.178
    1UNL     H7   39  -0.053   0.046  -0.027
    1UNL     H8   40  -0.154   0.106  -0.160
    1UNL     H9   41  -0.395   0.073  -0.121
    1UNL    H10   42  -0.533   0.394  -0.099
    1UNL    H11   43  -0.422   0.422   0.039
    1UNL    H12   44  -0.685   0.131  -0.047
    1UNL    H13   45  -0.647   0.419   0.178
    1UNL    H14   46  -0.706   0.265   0.217
    1UNL    H15   47  -0.527   0.231   0.331
    1UNL    H16   48  -0.438   0.116   0.183
    1UNL    H17   49  -0.498  -0.076   0.065
    1UNL    H18   50  -0.222  -0.140   0.106
    1UNL    H19   51  -0.391  -0.315  -0.041
    1UNL    H20   52  -0.154  -0.385   0.118
    1UNL    H21   53  -0.128  -0.400  -0.158
    1UNL    H22   54  -0.000  -0.216   0.102
    1UNL    H23   55   0.062  -0.455  -0.045
    1UNL    H24   56   0.475  -0.207  -0.099
    1UNL    H25   57   0.513  -0.053  -0.344
    1UNL    H26   58   0.348  -0.016  -0.022
    1UNL    H27   59   0.378   0.062  -0.181
    1UNL    H28   60   0.601  -0.024   0.020
    1UNL    H29   61   0.639   0.070  -0.118
    1UNL    H30   62   0.527   0.269  -0.033
    1UNL    H31   63   0.482   0.070   0.357
    1UNL    H32   64   0.392   0.002   0.233
    1UNL    H33   65   0.560  -0.001   0.208
    1UNL    H34   66   0.481   0.406   0.162
    1UNL    H35   67   0.551   0.344   0.306
    1UNL    H36   68   0.367   0.326   0.244
   0.00000   0.00000   0.00000   0.00000   0.00000   0.00000   0.00000   0.00000   0.00000
Generated with MDTraj, t= 2.0
 68
    1UNL     C1    1   0.274  -0.147  -0.365
    1UNL     C2    2   0.319  -0.187  -0.246
    1UNL     C3    3   0.239  -0.292  -0.179
    1UNL     O1    4   0.105  -0.294  -0.219
    1UNL     C4    5   0.024  -0.209  -0.129
    1UNL     O2    6  -0.099  -0.170  -0.188
    1UNL     C5    7  -0.194  -0.103  -0.108
    1UNL     C6    8  -0.152   0.042  -0.071
    1UNL     O3    9  -0.235   0.089   0.032
    1UNL     C7   10  -0.365   0.133  -0.025
    1UNL     O4   11  -0.362   0.266  -0.075
    1UNL     C8   12  -0.453   0.342  -0.003
    1UNL     C9   13  -0.566   0.252   0.047
    1UNL     O5   14  -0.671   0.231  -0.051
    1UNL    C10   15  -0.625   0.298   0.185
    1UNL     O6   16  -0.526   0.340   0.278
    1UNL    C11   17  -0.489   0.116   0.076
    1UNL     O7   18  -0.564  -0.000   0.061
    1UNL    C12   19  -0.220  -0.184   0.025
    1UNL     O8   20  -0.359  -0.215   0.038
    1UNL    C13   21  -0.143  -0.316   0.030
    1UNL     O9   22  -0.193  -0.405  -0.073
    1UNL    C14   23   0.000  -0.279   0.012
    1UNL    O10   24   0.073  -0.397   0.020
    1UNL    C15   25   0.448  -0.128  -0.187
    1UNL    O11   26   0.550  -0.112  -0.282
    1UNL    C16   27   0.421   0.002  -0.105
    1UNL    C17   28   0.551   0.047  -0.037
    1UNL    C18   29   0.531   0.171   0.035
    1UNL    C19   30   0.478   0.177   0.161
    1UNL    C20   31   0.461   0.048   0.242
    1UNL    C21   32   0.450   0.313   0.226
    1UNL     H1   33   0.187  -0.189  -0.414
    1UNL     H2   34   0.296  -0.054  -0.419
    1UNL     H3   35   0.240  -0.277  -0.074
    1UNL     H4   36   0.269  -0.382  -0.225
    1UNL     H5   37   0.071  -0.108  -0.119
    1UNL     H6   38  -0.282  -0.099  -0.171
    1UNL     H7   39  -0.053   0.039  -0.025
    1UNL     H8   40  -0.150   0.106  -0.157
    1UNL     H9   41  -0.377   0.070  -0.110
    1UNL    H10   42  -0.485   0.431  -0.067
    1UNL    H11   43  -0.403   0.375   0.083
    1UNL    H12   44  -0.625   0.201  -0.132
    1UNL    H13   45  -0.672   0.388   0.156
    1UNL    H14   46  -0.695   0.228   0.217
    1UNL    H15   47  -0.550   0.426   0.324
    1UNL    H16   48  -0.460   0.122   0.183
    1UNL    H17   49  -0.512  -0.075   0.038
    1UNL    H18   50  -0.200  -0.116   0.107
    1UNL    H19   51  -0.394  -0.286  -0.031
    1UNL    H20   52  -0.141  -0.387   0.121
    1UNL    H21   53  -0.160  -0.368  -0.157
    1UNL    H22   54   0.022  -0.210   0.101
    1UNL    H23   55   0.055  -0.467  -0.054
    1UNL    H24   56   0.492  -0.194  -0.113
    1UNL    H25   57   0.531  -0.051  -0.367
    1UNL    H26   58   0.357  -0.027  -0.029
    1UNL    H27   59   0.380   0.088  -0.173
    1UNL    H28   60   0.594  -0.023   0.032
    1UNL    H29   61   0.623   0.053  -0.124
    1UNL    H30   62   0.516   0.259  -0.022
    1UNL    H31   63   0.540  -0.029   0.232
    1UNL    H32   64   0.460   0.059   0.346
    1UNL    H33   65   0.363   0.011   0.199
    1UNL    H34   66   0.529   0.385   0.244
    1UNL    H35   67   0.409   0.303   0.320
    1UNL    H36   68   0.385   0.368   0.151
   0.00000   0.00000   0.00000   0.00000   0.00000   0.00000   0.00000   0.00000   0.00000
Generated with MDTraj, t= 3.0
 68
    1UNL     C1    1   0.265  -0.127  -0.369
    1UNL     C2    2   0.313  -0.179  -0.257
    1UNL     C3    3   0.242  -0.291  -0.193
    1UNL     O1    4   0.103  -0.285  -0.215
    1UNL     C4    5   0.023  -0.201  -0.128
    1UNL     O2    6  -0.104  -0.169  -0.187
    1UNL     C5    7  -0.196  -0.107  -0.093
    1UNL     C6    8  -0.142   0.032  -0.054
    1UNL     O3    9  -0.231   0.097   0.040
    1UNL     C7   10  -0.353   0.137  -0.026
    1UNL     O4   11  -0.349   0.269  -0.070
    1UNL     C8   12  -0.453   0.347  -0.011
    1UNL     C9   13  -0.561   0.255   0.044
    1UNL     O5   14  -0.659   0.214  -0.053
    1UNL    C10   15  -0.629   0.311   0.169
    1UNL     O6   16  -0.538   0.361   0.271
    1UNL    C11   17  -0.474   0.128   0.077
    1UNL     O7   18  -0.553   0.014   0.063
    1UNL    C12   19  -0.226  -0.196   0.031
    1UNL     O8   20  -0.363  -0.238   0.024
    1UNL    C13   21  -0.133  -0.320   0.040
    1UNL     O9   22  -0.168  -0.411  -0.062
    1UNL    C14   23   0.015  -0.273   0.014
    1UNL    O10   24   0.086  -0.393   0.024
    1UNL    C15   25   0.447  -0.137  -0.199
    1UNL    O11   26   0.553  -0.112  -0.290
    1UNL    C16   27   0.422  -0.012  -0.115
    1UNL    C17   28   0.534   0.048  -0.039
    1UNL    C18   29   0.508   0.168   0.036
    1UNL    C19   30   0.459   0.169   0.161
    1UNL    C20   31   0.425   0.041   0.248
    1UNL    C21   32   0.439   0.301   0.232
    1UNL     H1   33   0.187  -0.164  -0.432
    1UNL     H2   34   0.316  -0.051  -0.425
    1UNL     H3   35   0.253  -0.293  -0.089
    1UNL     H4   36   0.263  -0.376  -0.253
    1UNL     H5   37   0.079  -0.104  -0.131
    1UNL     H6   38  -0.287  -0.090  -0.150
    1UNL     H7   39  -0.050   0.012   0.002
    1UNL     H8   40  -0.122   0.098  -0.134
    1UNL     H9   41  -0.364   0.070  -0.108
    1UNL    H10   42  -0.498   0.406  -0.098
    1UNL    H11   43  -0.415   0.408   0.066
    1UNL    H12   44  -0.703   0.154   0.001
    1UNL    H13   45  -0.695   0.387   0.140
    1UNL    H14   46  -0.678   0.226   0.208
    1UNL    H15   47  -0.566   0.346   0.366
    1UNL    H16   48  -0.428   0.135   0.179
    1UNL    H17   49  -0.500  -0.073   0.038
    1UNL    H18   50  -0.221  -0.135   0.120
    1UNL    H19   51  -0.352  -0.298  -0.045
    1UNL    H20   52  -0.144  -0.371   0.143
    1UNL    H21   53  -0.162  -0.356  -0.147
    1UNL    H22   54   0.051  -0.198   0.094
    1UNL    H23   55   0.045  -0.468  -0.021
    1UNL    H24   56   0.468  -0.225  -0.137
    1UNL    H25   57   0.511  -0.078  -0.381
    1UNL    H26   58   0.343  -0.033  -0.050
    1UNL    H27   59   0.389   0.066  -0.194
    1UNL    H28   60   0.566  -0.036   0.018
    1UNL    H29   61   0.623   0.072  -0.106
    1UNL    H30   62   0.517   0.270  -0.006
    1UNL    H31   63   0.377  -0.042   0.194
    1UNL    H32   64   0.511  -0.010   0.284
    1UNL    H33   65   0.348   0.071   0.323
    1UNL    H34   66   0.466   0.310   0.335
    1UNL    H35   67   0.341   0.327   0.212
    1UNL    H36   68   0.499   0.378   0.174
   0.00000   0.00000   0.00000   0.00000   0.00000   0.00000   0.00000   0.00000   0.00000
Generated with MDTraj, t= 4.0
 68
    1UNL     C1    1   0.242  -0.118  -0.371
    1UNL     C2    2   0.287  -0.181  -0.261
    1UNL     C3    3   0.237  -0.315  -0.213
    1UNL     O1    4   0.093  -0.311  -0.215
    1UNL     C4    5   0.036  -0.208  -0.133
    1UNL     O2    6  -0.089  -0.166  -0.187
    1UNL     C5    7  -0.183  -0.103  -0.093
    1UNL     C6    8  -0.130   0.034  -0.045
    1UNL     O3    9  -0.231   0.090   0.049
    1UNL     C7   10  -0.350   0.146  -0.019
    1UNL     O4   11  -0.336   0.282  -0.055
    1UNL     C8   12  -0.460   0.356  -0.032
    1UNL     C9   13  -0.556   0.258   0.044
    1UNL     O5   14  -0.644   0.203  -0.048
    1UNL    C10   15  -0.630   0.322   0.158
    1UNL     O6   16  -0.528   0.349   0.253
    1UNL    C11   17  -0.466   0.136   0.089
    1UNL     O7   18  -0.541   0.013   0.073
    1UNL    C12   19  -0.217  -0.199   0.026
    1UNL     O8   20  -0.352  -0.247   0.024
    1UNL    C13   21  -0.129  -0.317   0.029
    1UNL     O9   22  -0.160  -0.407  -0.070
    1UNL    C14   23   0.023  -0.265   0.015
    1UNL    O10   24   0.118  -0.363   0.037
    1UNL    C15   25   0.413  -0.120  -0.198
    1UNL    O11   26   0.528  -0.118  -0.284
    1UNL    C16   27   0.406   0.005  -0.111
    1UNL    C17   28   0.536   0.045  -0.046
    1UNL    C18   29   0.507   0.156   0.048
    1UNL    C19   30   0.445   0.158   0.169
    1UNL    C20   31   0.391   0.040   0.247
    1UNL    C21   32   0.422   0.289   0.229
    1UNL     H1   33   0.154  -0.160  -0.422
    1UNL     H2   34   0.275  -0.035  -0.433
    1UNL     H3   35   0.256  -0.313  -0.111
    1UNL     H4   36   0.282  -0.400  -0.261
    1UNL     H5   37   0.116  -0.130  -0.131
    1UNL     H6   38  -0.279  -0.087  -0.143
    1UNL     H7   39  -0.045   0.022   0.022
    1UNL     H8   40  -0.113   0.099  -0.123
    1UNL     H9   41  -0.369   0.082  -0.101
    1UNL    H10   42  -0.506   0.387  -0.133
    1UNL    H11   43  -0.440   0.435   0.032
    1UNL    H12   44  -0.655   0.103  -0.023
    1UNL    H13   45  -0.673   0.416   0.126
    1UNL    H14   46  -0.708   0.258   0.196
    1UNL    H15   47  -0.570   0.404   0.322
    1UNL    H16   48  -0.421   0.142   0.191
    1UNL    H17   49  -0.487  -0.070   0.055
    1UNL    H18   50  -0.221  -0.144   0.117
    1UNL    H19   51  -0.343  -0.326  -0.045
    1UNL    H20   52  -0.151  -0.378   0.125
    1UNL    H21   53  -0.110  -0.383  -0.148
    1UNL    H22   54   0.049  -0.182   0.091
    1UNL    H23   55   0.092  -0.447  -0.004
    1UNL    H24   56   0.444  -0.196  -0.121
    1UNL    H25   57   0.524  -0.046  -0.357
    1UNL    H26   58   0.329  -0.000  -0.036
    1UNL    H27   59   0.367   0.083  -0.183
    1UNL    H28   60   0.582  -0.026   0.020
    1UNL    H29   61   0.607   0.063  -0.132
    1UNL    H30   62   0.522   0.255   0.016
    1UNL    H31   63   0.290   0.012   0.221
    1UNL    H32   64   0.440  -0.052   0.215
    1UNL    H33   65   0.383   0.046   0.357
    1UNL    H34   66   0.344   0.283   0.300
    1UNL    H35   67   0.397   0.356   0.148
    1UNL    H36   68   0.509   0.330   0.285
   0.00000   0.00000   0.00000   0.00000   0.00000   0.00000   0.00000   0.00000   0.00000
Generated with MDTraj, t= 5.0
 68
    1UNL     C1    1   0.219  -0.109  -0.353
    1UNL     C2    2   0.289  -0.178  -0.261
    1UNL     C3    3   0.236  -0.312  -0.214
    1UNL     O1    4   0.093  -0.313  -0.211
    1UNL     C4    5   0.038  -0.212  -0.136
    1UNL     O2    6  -0.083  -0.157  -0.192
    1UNL     C5    7  -0.179  -0.094  -0.098
    1UNL     C6    8  -0.125   0.036  -0.050
    1UNL     O3    9  -0.221   0.084   0.053
    1UNL     C7   10  -0.339   0.142  -0.010
    1UNL     O4   11  -0.324   0.278  -0.050
    1UNL     C8   12  -0.446   0.343  -0.026
    1UNL     C9   13  -0.546   0.240   0.041
    1UNL     O5   14  -0.640   0.182  -0.057
    1UNL    C10   15  -0.615   0.316   0.155
    1UNL     O6   16  -0.519   0.367   0.249
    1UNL    C11   17  -0.456   0.128   0.092
    1UNL     O7   18  -0.532   0.009   0.074
    1UNL    C12   19  -0.215  -0.183   0.026
    1UNL     O8   20  -0.350  -0.235   0.020
    1UNL    C13   21  -0.123  -0.301   0.039
    1UNL     O9   22  -0.158  -0.398  -0.058
    1UNL    C14   23   0.033  -0.257   0.014
    1UNL    O10   24   0.122  -0.356   0.039
    1UNL    C15   25   0.416  -0.134  -0.200
    1UNL    O11   26   0.521  -0.105  -0.294
    1UNL    C16   27   0.390  -0.014  -0.114
    1UNL    C17   28   0.518   0.044  -0.044
    1UNL    C18   29   0.480   0.149   0.048
    1UNL    C19   30   0.412   0.154   0.161
    1UNL    C20   31   0.352   0.038   0.226
    1UNL    C21   32   0.422   0.280   0.242
    1UNL     H1   33   0.125  -0.136  -0.393
    1UNL     H2   34   0.257  -0.024  -0.403
    1UNL     H3   35   0.279  -0.336  -0.120
    1UNL     H4   36   0.265  -0.400  -0.274
    1UNL     H5   37   0.112  -0.128  -0.142
    1UNL     H6   38  -0.269  -0.072  -0.155
    1UNL     H7   39  -0.033   0.020   0.009
    1UNL     H8   40  -0.118   0.107  -0.121
    1UNL     H9   41  -0.356   0.086  -0.099
    1UNL    H10   42  -0.497   0.377  -0.124
    1UNL    H11   43  -0.428   0.419   0.041
    1UNL    H12   44  -0.613   0.088  -0.077
    1UNL    H13   45  -0.673   0.397   0.104
    1UNL    H14   46  -0.691   0.254   0.206
    1UNL    H15   47  -0.566   0.439   0.294
    1UNL    H16   48  -0.427   0.138   0.200
    1UNL    H17   49  -0.474  -0.065   0.078
    1UNL    H18   50  -0.222  -0.116   0.107
    1UNL    H19   51  -0.347  -0.319  -0.036
    1UNL    H20   52  -0.128  -0.361   0.137
    1UNL    H21   53  -0.101  -0.378  -0.137
    1UNL    H22   54   0.063  -0.165   0.077
    1UNL    H23   55   0.100  -0.417  -0.041
    1UNL    H24   56   0.445  -0.223  -0.138
    1UNL    H25   57   0.505  -0.027  -0.348
    1UNL    H26   58   0.304  -0.048  -0.048
    1UNL    H27   59   0.337   0.064  -0.169
    1UNL    H28   60   0.565  -0.040   0.006
    1UNL    H29   61   0.588   0.098  -0.114
    1UNL    H30   62   0.526   0.250   0.035
    1UNL    H31   63   0.258   0.011   0.183
    1UNL    H32   64   0.419  -0.053   0.232
    1UNL    H33   65   0.326   0.051   0.332
    1UNL    H34   66   0.323   0.305   0.274
    1UNL    H35   67   0.466   0.366   0.187
    1UNL    H36   68   0.466   0.277   0.337
   0.00000   0.00000   0.00000   0.00000   0.00000   0.00000   0.00000   0.00000   0.00000
Generated with MDTraj, t= 6.0
 68
    1UNL     C1    1   0.247  -0.146  -0.394
    1UNL     C2    2   0.295  -0.184  -0.277
    1UNL     C3    3   0.235  -0.300  -0.211
    1UNL     O1    4   0.093  -0.312  -0.206
    1UNL     C4    5   0.038  -0.212  -0.127
    1UNL     O2    6  -0.085  -0.162  -0.188
    1UNL     C5    7  -0.174  -0.101  -0.086
    1UNL     C6    8  -0.118   0.032  -0.045
    1UNL     O3    9  -0.204   0.103   0.041
    1UNL     C7   10  -0.329   0.144  -0.019
    1UNL     O4   11  -0.327   0.273  -0.074
    1UNL     C8   12  -0.438   0.349  -0.028
    1UNL     C9   13  -0.544   0.253   0.038
    1UNL     O5   14  -0.638   0.191  -0.050
    1UNL    C10   15  -0.615   0.314   0.167
    1UNL     O6   16  -0.532   0.383   0.259
    1UNL    C11   17  -0.450   0.139   0.082
    1UNL     O7   18  -0.516   0.013   0.092
    1UNL    C12   19  -0.215  -0.192   0.032
    1UNL     O8   20  -0.351  -0.239   0.011
    1UNL    C13   21  -0.117  -0.307   0.044
    1UNL     O9   22  -0.153  -0.405  -0.048
    1UNL    C14   23   0.033  -0.264   0.022
    1UNL    O10   24   0.123  -0.369   0.039
    1UNL    C15   25   0.419  -0.116  -0.218
    1UNL    O11   26   0.512  -0.069  -0.316
    1UNL    C16   27   0.385  -0.007  -0.109
    1UNL    C17   28   0.508   0.026  -0.014
    1UNL    C18   29   0.483   0.144   0.064
    1UNL    C19   30   0.393   0.152   0.159
    1UNL    C20   31   0.326   0.034   0.214
    1UNL    C21   32   0.389   0.272   0.242
    1UNL     H1   33   0.156  -0.193  -0.432
    1UNL     H2   34   0.278  -0.054  -0.445
    1UNL     H3   35   0.281  -0.315  -0.116
    1UNL     H4   36   0.285  -0.389  -0.260
    1UNL     H5   37   0.104  -0.122  -0.138
    1UNL     H6   38  -0.258  -0.080  -0.153
    1UNL     H7   39  -0.035   0.008   0.026
    1UNL     H8   40  -0.097   0.095  -0.119
    1UNL     H9   41  -0.336   0.080  -0.105
    1UNL    H10   42  -0.492   0.396  -0.118
    1UNL    H11   43  -0.400   0.413   0.042
    1UNL    H12   44  -0.640   0.099  -0.034
    1UNL    H13   45  -0.707   0.373   0.134
    1UNL    H14   46  -0.653   0.220   0.217
    1UNL    H15   47  -0.565   0.401   0.352
    1UNL    H16   48  -0.419   0.162   0.185
    1UNL    H17   49  -0.448  -0.065   0.083
    1UNL    H18   50  -0.215  -0.130   0.115
    1UNL    H19   51  -0.343  -0.317  -0.039
    1UNL    H20   52  -0.120  -0.365   0.142
    1UNL    H21   53  -0.083  -0.397  -0.122
    1UNL    H22   54   0.055  -0.180   0.096
    1UNL    H23   55   0.085  -0.452   0.003
    1UNL    H24   56   0.475  -0.194  -0.161
    1UNL    H25   57   0.479   0.011  -0.349
    1UNL    H26   58   0.297  -0.036  -0.036
    1UNL    H27   59   0.336   0.074  -0.157
    1UNL    H28   60   0.527  -0.053   0.055
    1UNL    H29   61   0.586   0.039  -0.091
    1UNL    H30   62   0.544   0.229   0.055
    1UNL    H31   63   0.222   0.047   0.193
    1UNL    H32   64   0.377  -0.069   0.196
    1UNL    H33   65   0.330   0.033   0.324
    1UNL    H34   66   0.291   0.317   0.236
    1UNL    H35   67   0.467   0.347   0.215
    1UNL    H36   68   0.388   0.255   0.344
   0.00000   0.00000   0.00000   0.00000   0.00000   0.00000   0.00000   0.00000   0.00000
Generated with MDTraj, t= 7.0
 68
    1UNL     C1    1   0.254  -0.169  -0.400
    1UNL     C2    2   0.315  -0.193  -0.284
    1UNL     C3    3   0.251  -0.304  -0.197
    1UNL     O1    4   0.108  -0.310  -0.211
    1UNL     C4    5   0.048  -0.209  -0.127
    1UNL     O2    6  -0.082  -0.177  -0.182
    1UNL     C5    7  -0.177  -0.101  -0.101
    1UNL     C6    8  -0.132   0.039  -0.071
    1UNL     O3    9  -0.206   0.091   0.033
    1UNL     C7   10  -0.334   0.134  -0.022
    1UNL     O4   11  -0.325   0.271  -0.070
    1UNL     C8   12  -0.439   0.350  -0.022
    1UNL     C9   13  -0.537   0.251   0.049
    1UNL     O5   14  -0.641   0.219  -0.041
    1UNL    C10   15  -0.605   0.323   0.163
    1UNL     O6   16  -0.516   0.373   0.255
    1UNL    C11   17  -0.448   0.134   0.091
    1UNL     O7   18  -0.524   0.016   0.099
    1UNL    C12   19  -0.202  -0.176   0.031
    1UNL     O8   20  -0.338  -0.221   0.053
    1UNL    C13   21  -0.109  -0.306   0.040
    1UNL     O9   22  -0.147  -0.398  -0.062
    1UNL    C14   23   0.035  -0.259   0.024
    1UNL    O10   24   0.125  -0.371   0.042
    1UNL    C15   25   0.434  -0.116  -0.228
    1UNL    O11   26   0.509  -0.050  -0.322
    1UNL    C16   27   0.388  -0.017  -0.117
    1UNL    C17   28   0.494   0.011  -0.014
    1UNL    C18   29   0.450   0.141   0.065
    1UNL    C19   30   0.358   0.153   0.162
    1UNL    C20   31   0.314   0.025   0.215
    1UNL    C21   32   0.350   0.273   0.253
    1UNL     H1   33   0.176  -0.231  -0.435
    1UNL     H2   34   0.281  -0.082  -0.451
    1UNL     H3   35   0.294  -0.305  -0.096
    1UNL     H4   36   0.293  -0.410  -0.218
    1UNL     H5   37   0.109  -0.117  -0.139
    1UNL     H6   38  -0.261  -0.109  -0.172
    1UNL     H7   39  -0.026   0.046  -0.035
    1UNL     H8   40  -0.162   0.097  -0.148
    1UNL     H9   41  -0.361   0.067  -0.102
    1UNL    H10   42  -0.495   0.406  -0.106
    1UNL    H11   43  -0.400   0.409   0.051
    1UNL    H12   44  -0.626   0.132  -0.081
    1UNL    H13   45  -0.663   0.408   0.110
    1UNL    H14   46  -0.680   0.251   0.212
    1UNL    H15   47  -0.545   0.390   0.348
    1UNL    H16   48  -0.413   0.153   0.193
    1UNL    H17   49  -0.472  -0.065   0.091
    1UNL    H18   50  -0.195  -0.112   0.112
    1UNL    H19   51  -0.349  -0.300  -0.016
    1UNL    H20   52  -0.120  -0.365   0.135
    1UNL    H21   53  -0.101  -0.371  -0.141
    1UNL    H22   54   0.052  -0.186   0.107
    1UNL    H23   55   0.095  -0.463   0.044
    1UNL    H24   56   0.498  -0.196  -0.186
    1UNL    H25   57   0.460   0.013  -0.367
    1UNL    H26   58   0.285  -0.052  -0.077
    1UNL    H27   59   0.358   0.079  -0.151
    1UNL    H28   60   0.501  -0.083   0.040
    1UNL    H29   61   0.584   0.044  -0.067
    1UNL    H30   62   0.502   0.235   0.041
    1UNL    H31   63   0.209   0.031   0.241
    1UNL    H32   64   0.333  -0.054   0.135
    1UNL    H33   65   0.377  -0.019   0.292
    1UNL    H34   66   0.301   0.355   0.202
    1UNL    H35   67   0.454   0.303   0.269
    1UNL    H36   68   0.292   0.256   0.339
   0.00000   0.00000   0.00000   0.00000   0.00000   0.00000   0.00000   0.00000   0.00000
Generated with MDTraj, t= 8.0
 68
    1UNL     C1    1   0.266  -0.172  -0.405
    1UNL     C2    2   0.316  -0.200  -0.286
    1UNL     C3    3   0.250  -0.313  -0.218
    1UNL     O1    4   0.112  -0.309  -0.219
    1UNL     C4    5   0.045  -0.209  -0.139
    1UNL     O2    6  -0.090  -0.177  -0.184
    1UNL     C5    7  -0.166  -0.103  -0.091
    1UNL     C6    8  -0.121   0.044  -0.074
    1UNL     O3    9  -0.210   0.111   0.018
    1UNL     C7   10  -0.338   0.141  -0.024
    1UNL     O4   11  -0.343   0.262  -0.089
    1UNL     C8   12  -0.427   0.354  -0.024
    1UNL     C9   13  -0.536   0.263   0.054
    1UNL     O5   14  -0.654   0.232  -0.024
    1UNL    C10   15  -0.590   0.340   0.176
    1UNL     O6   16  -0.482   0.360   0.260
    1UNL    C11   17  -0.450   0.136   0.087
    1UNL     O7   18  -0.520   0.008   0.083
    1UNL    C12   19  -0.199  -0.179   0.039
    1UNL     O8   20  -0.336  -0.223   0.043
    1UNL    C13   21  -0.102  -0.304   0.053
    1UNL     O9   22  -0.144  -0.412  -0.028
    1UNL    C14   23   0.044  -0.263   0.013
    1UNL    O10   24   0.138  -0.369   0.041
    1UNL    C15   25   0.429  -0.118  -0.215
    1UNL    O11   26   0.524  -0.059  -0.300
    1UNL    C16   27   0.373  -0.010  -0.118
    1UNL    C17   28   0.483   0.049  -0.025
    1UNL    C18   29   0.431   0.166   0.064
    1UNL    C19   30   0.351   0.134   0.165
    1UNL    C20   31   0.317   0.003   0.225
    1UNL    C21   32   0.296   0.247   0.241
    1UNL     H1   33   0.180  -0.230  -0.445
    1UNL     H2   34   0.318  -0.101  -0.468
    1UNL     H3   35   0.284  -0.316  -0.113
    1UNL     H4   36   0.302  -0.412  -0.251
    1UNL     H5   37   0.106  -0.118  -0.153
    1UNL     H6   38  -0.258  -0.098  -0.151
    1UNL     H7   39  -0.027   0.046  -0.010
    1UNL     H8   40  -0.121   0.098  -0.159
    1UNL     H9   41  -0.356   0.067  -0.102
    1UNL    H10   42  -0.485   0.407  -0.106
    1UNL    H11   43  -0.374   0.417   0.038
    1UNL    H12   44  -0.658   0.131  -0.048
    1UNL    H13   45  -0.648   0.438   0.149
    1UNL    H14   46  -0.661   0.270   0.231
    1UNL    H15   47  -0.519   0.402   0.339
    1UNL    H16   48  -0.404   0.145   0.185
    1UNL    H17   49  -0.466  -0.070   0.063
    1UNL    H18   50  -0.187  -0.115   0.119
    1UNL    H19   51  -0.333  -0.307  -0.002
    1UNL    H20   52  -0.094  -0.341   0.156
    1UNL    H21   53  -0.148  -0.379  -0.125
    1UNL    H22   54   0.068  -0.179   0.080
    1UNL    H23   55   0.099  -0.456   0.007
    1UNL    H24   56   0.495  -0.179  -0.151
    1UNL    H25   57   0.476  -0.009  -0.364
    1UNL    H26   58   0.289  -0.037  -0.058
    1UNL    H27   59   0.332   0.073  -0.171
    1UNL    H28   60   0.516  -0.025   0.045
    1UNL    H29   61   0.556   0.084  -0.099
    1UNL    H30   62   0.459   0.264   0.040
    1UNL    H31   63   0.271   0.018   0.325
    1UNL    H32   64   0.238  -0.043   0.166
    1UNL    H33   65   0.393  -0.074   0.221
    1UNL    H34   66   0.345   0.337   0.208
    1UNL    H35   67   0.331   0.232   0.340
    1UNL    H36   68   0.188   0.259   0.220
   0.00000   0.00000   0.00000   0.00000   0.00000   0.00000   0.00000   0.00000   0.00000
Generated with MDTraj, t= 9.0
 68
    1UNL     C1    1   0.264  -0.154  -0.390
    1UNL     C2    2   0.317  -0.195  -0.273
    1UNL     C3    3   0.242  -0.314  -0.210
    1UNL     O1    4   0.111  -0.296  -0.228
    1UNL     C4    5   0.043  -0.205  -0.139
    1UNL     O2    6  -0.094  -0.177  -0.185
    1UNL     C5    7  -0.183  -0.110  -0.097
    1UNL     C6    8  -0.125   0.039  -0.087
    1UNL     O3    9  -0.204   0.112   0.012
    1UNL     C7   10  -0.333   0.142  -0.048
    1UNL     O4   11  -0.338   0.273  -0.112
    1UNL     C8   12  -0.429   0.346  -0.029
    1UNL     C9   13  -0.529   0.249   0.055
    1UNL     O5   14  -0.657   0.224  -0.008
    1UNL    C10   15  -0.550   0.322   0.192
    1UNL     O6   16  -0.429   0.360   0.263
    1UNL    C11   17  -0.433   0.129   0.069
    1UNL     O7   18  -0.506   0.008   0.068
    1UNL    C12   19  -0.197  -0.176   0.048
    1UNL     O8   20  -0.330  -0.222   0.053
    1UNL    C13   21  -0.101  -0.296   0.062
    1UNL     O9   22  -0.140  -0.404  -0.021
    1UNL    C14   23   0.040  -0.252   0.013
    1UNL    O10   24   0.129  -0.357   0.036
    1UNL    C15   25   0.426  -0.123  -0.196
    1UNL    O11   26   0.532  -0.067  -0.274
    1UNL    C16   27   0.360  -0.024  -0.108
    1UNL    C17   28   0.463   0.083  -0.058
    1UNL    C18   29   0.383   0.162   0.051
    1UNL    C19   30   0.334   0.125   0.167
    1UNL    C20   31   0.336  -0.011   0.226
    1UNL    C21   32   0.251   0.230   0.241
    1UNL     H1   33   0.197  -0.215  -0.441
    1UNL     H2   34   0.295  -0.065  -0.439
    1UNL     H3   35   0.285  -0.337  -0.108
    1UNL     H4   36   0.254  -0.419  -0.263
    1UNL     H5   37   0.107  -0.114  -0.147
    1UNL     H6   38  -0.282  -0.105  -0.143
    1UNL     H7   39  -0.020   0.038  -0.046
    1UNL     H8   40  -0.138   0.089  -0.175
    1UNL     H9   41  -0.361   0.067  -0.122
    1UNL    H10   42  -0.488   0.418  -0.092
    1UNL    H11   43  -0.373   0.391   0.047
    1UNL    H12   44  -0.669   0.134  -0.028
    1UNL    H13   45  -0.607   0.416   0.168
    1UNL    H14   46  -0.610   0.263   0.266
    1UNL    H15   47  -0.460   0.406   0.345
    1UNL    H16   48  -0.387   0.137   0.167
    1UNL    H17   49  -0.438  -0.071   0.072
    1UNL    H18   50  -0.190  -0.099   0.119
    1UNL    H19   51  -0.328  -0.319   0.023
    1UNL    H20   52  -0.090  -0.334   0.163
    1UNL    H21   53  -0.130  -0.382  -0.113
    1UNL    H22   54   0.067  -0.164   0.070
    1UNL    H23   55   0.102  -0.413  -0.038
    1UNL    H24   56   0.484  -0.195  -0.137
    1UNL    H25   57   0.489  -0.009  -0.343
    1UNL    H26   58   0.310  -0.069  -0.031
    1UNL    H27   59   0.282   0.030  -0.161
    1UNL    H28   60   0.546   0.035  -0.009
    1UNL    H29   61   0.497   0.153  -0.133
    1UNL    H30   62   0.352   0.263   0.018
    1UNL    H31   63   0.375   0.001   0.331
    1UNL    H32   64   0.234  -0.039   0.242
    1UNL    H33   65   0.385  -0.092   0.172
    1UNL    H34   66   0.308   0.301   0.294
    1UNL    H35   67   0.193   0.192   0.319
    1UNL    H36   68   0.197   0.295   0.166
   0.00000   0.00000   0.00000   0.00000   0.00000   0.00000   0.00000   0.00000   0.00000
Generated with MDTraj, t= 10.0
 68
    1UNL     C1    1   0.273  -0.169  -0.394
    1UNL     C2    2   0.306  -0.197  -0.269
    1UNL     C3    3   0.248  -0.330  -0.222
    1UNL     O1    4   0.105  -0.333  -0.216
    1UNL     C4    5   0.045  -0.225  -0.146
    1UNL     O2    6  -0.085  -0.201  -0.191
    1UNL     C5    7  -0.160  -0.114  -0.116
    1UNL     C6    8  -0.120   0.039  -0.119
    1UNL     O3    9  -0.201   0.101  -0.015
    1UNL     C7   10  -0.332   0.139  -0.053
    1UNL     O4   11  -0.348   0.264  -0.121
    1UNL     C8   12  -0.424   0.349  -0.036
    1UNL     C9   13  -0.510   0.261   0.065
    1UNL     O5   14  -0.641   0.232   0.020
    1UNL    C10   15  -0.526   0.320   0.207
    1UNL     O6   16  -0.406   0.351   0.274
    1UNL    C11   17  -0.427   0.131   0.069
    1UNL     O7   18  -0.503   0.010   0.064
    1UNL    C12   19  -0.187  -0.165   0.026
    1UNL     O8   20  -0.322  -0.201   0.055
    1UNL    C13   21  -0.099  -0.284   0.054
    1UNL     O9   22  -0.144  -0.398  -0.012
    1UNL    C14   23   0.044  -0.249   0.002
    1UNL    O10   24   0.138  -0.352   0.039
    1UNL    C15   25   0.400  -0.108  -0.196
    1UNL    O11   26   0.513  -0.074  -0.274
    1UNL    C16   27   0.336   0.012  -0.127
    1UNL    C17   28   0.433   0.105  -0.040
    1UNL    C18   29   0.355   0.177   0.071
    1UNL    C19   30   0.314   0.128   0.184
    1UNL    C20   31   0.338  -0.009   0.252
    1UNL    C21   32   0.219   0.222   0.251
    1UNL     H1   33   0.205  -0.241  -0.443
    1UNL     H2   34   0.296  -0.073  -0.445
    1UNL     H3   35   0.268  -0.355  -0.114
    1UNL     H4   36   0.300  -0.420  -0.276
    1UNL     H5   37   0.110  -0.139  -0.175
    1UNL     H6   38  -0.260  -0.121  -0.159
    1UNL     H7   39  -0.019   0.044  -0.067
    1UNL     H8   40  -0.131   0.087  -0.211
    1UNL     H9   41  -0.357   0.060  -0.125
    1UNL    H10   42  -0.487   0.415  -0.104
    1UNL    H11   43  -0.358   0.403   0.026
    1UNL    H12   44  -0.637   0.144  -0.031
    1UNL    H13   45  -0.588   0.411   0.208
    1UNL    H14   46  -0.567   0.240   0.266
    1UNL    H15   47  -0.409   0.393   0.365
    1UNL    H16   48  -0.363   0.129   0.155
    1UNL    H17   49  -0.443  -0.063   0.055
    1UNL    H18   50  -0.166  -0.084   0.093
    1UNL    H19   51  -0.333  -0.298   0.038
    1UNL    H20   52  -0.095  -0.302   0.158
    1UNL    H21   53  -0.122  -0.393  -0.112
    1UNL    H22   54   0.086  -0.161   0.047
    1UNL    H23   55   0.096  -0.435   0.006
    1UNL    H24   56   0.456  -0.164  -0.118
    1UNL    H25   57   0.489  -0.001  -0.344
    1UNL    H26   58   0.258  -0.025  -0.070
    1UNL    H27   59   0.296   0.073  -0.207
    1UNL    H28   60   0.514   0.050   0.008
    1UNL    H29   61   0.500   0.170  -0.095
    1UNL    H30   62   0.312   0.270   0.042
    1UNL    H31   63   0.422   0.003   0.326
    1UNL    H32   64   0.259  -0.043   0.313
    1UNL    H33   65   0.368  -0.091   0.185
    1UNL    H34   66   0.235   0.245   0.351
    1UNL    H35   67   0.123   0.180   0.259
    1UNL    H36   68   0.217   0.322   0.198
   0.00000   0.00000   0.00000   0.00000   0.00000   0.00000   0.00000   0.00000   0.00000
Generated with MDTraj, t= 11.0
 68
    1UNL     C1    1   0.271  -0.161  -0.394
    1UNL     C2    2   0.314  -0.196  -0.271
    1UNL     C3    3   0.259  -0.315  -0.203
    1UNL     O1    4   0.115  -0.335  -0.207
    1UNL     C4    5   0.041  -0.227  -0.150
    1UNL     O2    6  -0.097  -0.217  -0.199
    1UNL     C5    7  -0.183  -0.123  -0.124
    1UNL     C6    8  -0.129   0.023  -0.134
    1UNL     O3    9  -0.192   0.100  -0.037
    1UNL     C7   10  -0.337   0.132  -0.068
    1UNL     O4   11  -0.350   0.263  -0.126
    1UNL     C8   12  -0.409   0.351  -0.032
    1UNL     C9   13  -0.486   0.268   0.070
    1UNL     O5   14  -0.620   0.247   0.023
    1UNL    C10   15  -0.499   0.322   0.210
    1UNL     O6   16  -0.371   0.339   0.264
    1UNL    C11   17  -0.405   0.134   0.067
    1UNL     O7   18  -0.488   0.024   0.085
    1UNL    C12   19  -0.193  -0.170   0.022
    1UNL     O8   20  -0.323  -0.221   0.039
    1UNL    C13   21  -0.089  -0.284   0.061
    1UNL     O9   22  -0.128  -0.402  -0.001
    1UNL    C14   23   0.049  -0.242   0.002
    1UNL    O10   24   0.137  -0.351   0.037
    1UNL    C15   25   0.407  -0.102  -0.193
    1UNL    O11   26   0.508  -0.048  -0.278
    1UNL    C16   27   0.316   0.012  -0.129
    1UNL    C17   28   0.395   0.095  -0.034
    1UNL    C18   29   0.310   0.156   0.069
    1UNL    C19   30   0.271   0.126   0.190
    1UNL    C20   31   0.318  -0.009   0.255
    1UNL    C21   32   0.206   0.238   0.270
    1UNL     H1   33   0.185  -0.201  -0.440
    1UNL     H2   34   0.317  -0.075  -0.432
    1UNL     H3   35   0.308  -0.333  -0.105
    1UNL     H4   36   0.277  -0.417  -0.255
    1UNL     H5   37   0.098  -0.137  -0.180
    1UNL     H6   38  -0.280  -0.135  -0.174
    1UNL     H7   39  -0.018   0.030  -0.112
    1UNL     H8   40  -0.163   0.064  -0.224
    1UNL     H9   41  -0.391   0.056  -0.129
    1UNL    H10   42  -0.492   0.406  -0.085
    1UNL    H11   43  -0.336   0.416   0.010
    1UNL    H12   44  -0.643   0.150   0.039
    1UNL    H13   45  -0.546   0.418   0.208
    1UNL    H14   46  -0.557   0.258   0.270
    1UNL    H15   47  -0.372   0.380   0.353
    1UNL    H16   48  -0.332   0.140   0.148
    1UNL    H17   49  -0.437  -0.062   0.079
    1UNL    H18   50  -0.177  -0.088   0.090
    1UNL    H19   51  -0.325  -0.319   0.019
    1UNL    H20   52  -0.098  -0.294   0.165
    1UNL    H21   53  -0.135  -0.383  -0.094
    1UNL    H22   54   0.084  -0.157   0.055
    1UNL    H23   55   0.092  -0.436   0.016
    1UNL    H24   56   0.472  -0.150  -0.118
    1UNL    H25   57   0.461   0.041  -0.314
    1UNL    H26   58   0.235  -0.035  -0.070
    1UNL    H27   59   0.276   0.075  -0.205
    1UNL    H28   60   0.477   0.036   0.011
    1UNL    H29   61   0.467   0.158  -0.085
    1UNL    H30   62   0.267   0.251   0.036
    1UNL    H31   63   0.425  -0.030   0.230
    1UNL    H32   64   0.320  -0.009   0.362
    1UNL    H33   65   0.266  -0.099   0.217
    1UNL    H34   66   0.167   0.204   0.363
    1UNL    H35   67   0.120   0.276   0.217
    1UNL    H36   68   0.282   0.313   0.282
   0.00000   0.00000   0.00000   0.00000   0.00000   0.00000   0.00000   0.00000   0.00000
Generated with MDTraj, t= 12.0
 68
    1UNL     C1    1   0.281  -0.172  -0.401
    1UNL     C2    2   0.303  -0.188  -0.272
    1UNL     C3    3   0.252  -0.310  -0.206
    1UNL     O1    4   0.105  -0.347  -0.209
    1UNL     C4    5   0.033  -0.235  -0.157
    1UNL     O2    6  -0.102  -0.230  -0.215
    1UNL     C5    7  -0.187  -0.137  -0.134
    1UNL     C6    8  -0.144   0.004  -0.144
    1UNL     O3    9  -0.172   0.087  -0.037
    1UNL     C7   10  -0.310   0.126  -0.048
    1UNL     O4   11  -0.335   0.246  -0.122
    1UNL     C8   12  -0.395   0.345  -0.039
    1UNL     C9   13  -0.471   0.270   0.071
    1UNL     O5   14  -0.608   0.239   0.033
    1UNL    C10   15  -0.463   0.343   0.210
    1UNL     O6   16  -0.324   0.353   0.246
    1UNL    C11   17  -0.395   0.128   0.075
    1UNL     O7   18  -0.481   0.017   0.086
    1UNL    C12   19  -0.198  -0.179   0.013
    1UNL     O8   20  -0.329  -0.226   0.039
    1UNL    C13   21  -0.093  -0.288   0.053
    1UNL     O9   22  -0.134  -0.408  -0.003
    1UNL    C14   23   0.040  -0.239  -0.001
    1UNL    O10   24   0.149  -0.318   0.046
    1UNL    C15   25   0.385  -0.086  -0.197
    1UNL    O11   26   0.465  -0.003  -0.273
    1UNL    C16   27   0.307  -0.002  -0.091
    1UNL    C17   28   0.395   0.095  -0.016
    1UNL    C18   29   0.316   0.178   0.075
    1UNL    C19   30   0.264   0.136   0.190
    1UNL    C20   31   0.292   0.002   0.253
    1UNL    C21   32   0.165   0.226   0.269
    1UNL     H1   33   0.219  -0.242  -0.459
    1UNL     H2   34   0.327  -0.081  -0.442
    1UNL     H3   35   0.266  -0.319  -0.100
    1UNL     H4   36   0.325  -0.387  -0.242
    1UNL     H5   37   0.082  -0.152  -0.211
    1UNL     H6   38  -0.286  -0.152  -0.179
    1UNL     H7   39  -0.034   0.002  -0.134
    1UNL     H8   40  -0.174   0.059  -0.229
    1UNL     H9   41  -0.354   0.045  -0.111
    1UNL    H10   42  -0.463   0.419  -0.087
    1UNL    H11   43  -0.314   0.393   0.013
    1UNL    H12   44  -0.608   0.157  -0.012
    1UNL    H13   45  -0.503   0.441   0.197
    1UNL    H14   46  -0.528   0.304   0.279
    1UNL    H15   47  -0.324   0.418   0.320
    1UNL    H16   48  -0.329   0.132   0.162
    1UNL    H17   49  -0.423  -0.065   0.070
    1UNL    H18   50  -0.167  -0.093   0.074
    1UNL    H19   51  -0.344  -0.321   0.010
    1UNL    H20   52  -0.091  -0.312   0.155
    1UNL    H21   53  -0.127  -0.404  -0.105
    1UNL    H22   54   0.057  -0.144   0.040
    1UNL    H23   55   0.135  -0.410   0.024
    1UNL    H24   56   0.474  -0.137  -0.149
    1UNL    H25   57   0.410   0.079  -0.307
    1UNL    H26   58   0.262  -0.084  -0.020
    1UNL    H27   59   0.230   0.050  -0.139
    1UNL    H28   60   0.476   0.039   0.037
    1UNL    H29   61   0.453   0.158  -0.081
    1UNL    H30   62   0.278   0.275   0.049
    1UNL    H31   63   0.389  -0.040   0.222
    1UNL    H32   64   0.284   0.011   0.362
    1UNL    H33   65   0.217  -0.066   0.209
    1UNL    H34   66   0.073   0.171   0.290
    1UNL    H35   67   0.136   0.315   0.214
    1UNL    H36   68   0.220   0.248   0.353
   0.00000   0.00000   0.00000   0.00000   0.00000   0.00000   0.00000   0.00000   0.00000
Generated with MDTraj, t= 13.0
 68
    1UNL     C1    1   0.255  -0.178  -0.401
    1UNL     C2    2   0.294  -0.181  -0.277
    1UNL     C3    3   0.263  -0.309  -0.196
    1UNL     O1    4   0.124  -0.343  -0.203
    1UNL     C4    5   0.050  -0.233  -0.149
    1UNL     O2    6  -0.081  -0.228  -0.209
    1UNL     C5    7  -0.171  -0.132  -0.148
    1UNL     C6    8  -0.124   0.010  -0.148
    1UNL     O3    9  -0.184   0.083  -0.042
    1UNL     C7   10  -0.323   0.111  -0.059
    1UNL     O4   11  -0.349   0.231  -0.133
    1UNL     C8   12  -0.373   0.335  -0.037
    1UNL     C9   13  -0.451   0.271   0.078
    1UNL     O5   14  -0.589   0.255   0.040
    1UNL    C10   15  -0.430   0.347   0.211
    1UNL     O6   16  -0.295   0.383   0.234
    1UNL    C11   17  -0.387   0.124   0.082
    1UNL     O7   18  -0.477   0.026   0.102
    1UNL    C12   19  -0.207  -0.183   0.001
    1UNL     O8   20  -0.336  -0.245   0.014
    1UNL    C13   21  -0.092  -0.286   0.054
    1UNL     O9   22  -0.122  -0.420  -0.003
    1UNL    C14   23   0.047  -0.240   0.006
    1UNL    O10   24   0.145  -0.326   0.056
    1UNL    C15   25   0.392  -0.079  -0.211
    1UNL    O11   26   0.420   0.035  -0.292
    1UNL    C16   27   0.319  -0.031  -0.080
    1UNL    C17   28   0.388   0.081   0.001
    1UNL    C18   29   0.289   0.170   0.073
    1UNL    C19   30   0.231   0.140   0.193
    1UNL    C20   31   0.251   0.010   0.252
    1UNL    C21   32   0.138   0.222   0.273
    1UNL     H1   33   0.200  -0.263  -0.429
    1UNL     H2   34   0.273  -0.089  -0.456
    1UNL     H3   35   0.311  -0.298  -0.100
    1UNL     H4   36   0.302  -0.402  -0.237
    1UNL     H5   37   0.098  -0.142  -0.187
    1UNL     H6   38  -0.266  -0.138  -0.204
    1UNL     H7   39  -0.024   0.029  -0.130
    1UNL     H8   40  -0.157   0.064  -0.234
    1UNL     H9   41  -0.372   0.021  -0.103
    1UNL    H10   42  -0.445   0.407  -0.080
    1UNL    H11   43  -0.279   0.381  -0.005
    1UNL    H12   44  -0.627   0.177   0.099
    1UNL    H13   45  -0.500   0.425   0.226
    1UNL    H14   46  -0.445   0.271   0.280
    1UNL    H15   47  -0.282   0.442   0.314
    1UNL    H16   48  -0.309   0.115   0.161
    1UNL    H17   49  -0.442  -0.060   0.082
    1UNL    H18   50  -0.202  -0.094   0.068
    1UNL    H19   51  -0.341  -0.328  -0.030
    1UNL    H20   52  -0.096  -0.304   0.156
    1UNL    H21   53  -0.088  -0.426  -0.091
    1UNL    H22   54   0.059  -0.147   0.053
    1UNL    H23   55   0.129  -0.412   0.009
    1UNL    H24   56   0.493  -0.123  -0.184
    1UNL    H25   57   0.334   0.082  -0.310
    1UNL    H26   58   0.287  -0.124  -0.018
    1UNL    H27   59   0.233   0.017  -0.121
    1UNL    H28   60   0.435   0.032   0.091
    1UNL    H29   61   0.468   0.125  -0.054
    1UNL    H30   62   0.276   0.269   0.030
    1UNL    H31   63   0.350  -0.028   0.268
    1UNL    H32   64   0.191   0.002   0.347
    1UNL    H33   65   0.203  -0.064   0.186
    1UNL    H34   66   0.037   0.235   0.230
    1UNL    H35   67   0.180   0.321   0.280
    1UNL    H36   68   0.139   0.189   0.370
   0.00000   0.00000   0.00000   0.00000   0.00000   0.00000   0.00000   0.00000   0.00000
Generated with MDTraj, t= 14.0
 68
    1UNL     C1    1   0.264  -0.184  -0.405
    1UNL     C2    2   0.305  -0.187  -0.283
    1UNL     C3    3   0.279  -0.315  -0.201
    1UNL     O1    4   0.142  -0.342  -0.197
    1UNL     C4    5   0.054  -0.239  -0.149
    1UNL     O2    6  -0.077  -0.227  -0.216
    1UNL     C5    7  -0.169  -0.138  -0.147
    1UNL     C6    8  -0.119   0.010  -0.150
    1UNL     O3    9  -0.170   0.082  -0.036
    1UNL     C7   10  -0.304   0.116  -0.049
    1UNL     O4   11  -0.344   0.222  -0.139
    1UNL     C8   12  -0.402   0.328  -0.061
    1UNL     C9   13  -0.442   0.266   0.084
    1UNL     O5   14  -0.579   0.251   0.081
    1UNL    C10   15  -0.401   0.359   0.202
    1UNL     O6   16  -0.265   0.368   0.210
    1UNL    C11   17  -0.374   0.127   0.088
    1UNL     O7   18  -0.465   0.031   0.108
    1UNL    C12   19  -0.202  -0.187  -0.002
    1UNL     O8   20  -0.329  -0.228   0.022
    1UNL    C13   21  -0.103  -0.291   0.041
    1UNL     O9   22  -0.132  -0.410  -0.027
    1UNL    C14   23   0.040  -0.243   0.011
    1UNL    O10   24   0.140  -0.325   0.074
    1UNL    C15   25   0.362  -0.063  -0.209
    1UNL    O11   26   0.386   0.054  -0.283
    1UNL    C16   27   0.292  -0.024  -0.079
    1UNL    C17   28   0.379   0.072   0.018
    1UNL    C18   29   0.283   0.168   0.082
    1UNL    C19   30   0.216   0.137   0.197
    1UNL    C20   31   0.241   0.005   0.259
    1UNL    C21   32   0.103   0.216   0.249
    1UNL     H1   33   0.232  -0.282  -0.443
    1UNL     H2   34   0.264  -0.086  -0.454
    1UNL     H3   35   0.296  -0.309  -0.097
    1UNL     H4   36   0.333  -0.395  -0.244
    1UNL     H5   37   0.104  -0.145  -0.177
    1UNL     H6   38  -0.268  -0.144  -0.196
    1UNL     H7   39  -0.019   0.014  -0.129
    1UNL     H8   40  -0.141   0.068  -0.241
    1UNL     H9   41  -0.348   0.021  -0.088
    1UNL    H10   42  -0.486   0.365  -0.119
    1UNL    H11   43  -0.325   0.406  -0.045
    1UNL    H12   44  -0.600   0.165   0.047
    1UNL    H13   45  -0.440   0.456   0.168
    1UNL    H14   46  -0.446   0.324   0.291
    1UNL    H15   47  -0.226   0.423   0.282
    1UNL    H16   48  -0.300   0.122   0.173
    1UNL    H17   49  -0.425  -0.057   0.078
    1UNL    H18   50  -0.176  -0.105   0.071
    1UNL    H19   51  -0.345  -0.325  -0.016
    1UNL    H20   52  -0.120  -0.304   0.142
    1UNL    H21   53  -0.084  -0.400  -0.117
    1UNL    H22   54   0.044  -0.151   0.063
    1UNL    H23   55   0.105  -0.415   0.051
    1UNL    H24   56   0.468  -0.092  -0.185
    1UNL    H25   57   0.309   0.090  -0.323
    1UNL    H26   58   0.251  -0.110  -0.023
    1UNL    H27   59   0.207   0.036  -0.116
    1UNL    H28   60   0.445   0.001   0.076
    1UNL    H29   61   0.441   0.134  -0.040
    1UNL    H30   62   0.271   0.266   0.035
    1UNL    H31   63   0.344  -0.019   0.275
    1UNL    H32   64   0.185  -0.001   0.357
    1UNL    H33   65   0.209  -0.079   0.197
    1UNL    H34   66   0.048   0.278   0.179
    1UNL    H35   67   0.131   0.280   0.328
    1UNL    H36   68   0.030   0.153   0.299
   0.00000   0.00000   0.00000   0.00000   0.00000   0.00000   0.00000   0.00000   0.00000
Generated with MDTraj, t= 15.0
 68
    1UNL     C1    1   0.284  -0.187  -0.398
    1UNL     C2    2   0.321  -0.186  -0.274
    1UNL     C3    3   0.274  -0.309  -0.200
    1UNL     O1    4   0.133  -0.328  -0.214
    1UNL     C4    5   0.047  -0.232  -0.154
    1UNL     O2    6  -0.084  -0.222  -0.211
    1UNL     C5    7  -0.176  -0.135  -0.143
    1UNL     C6    8  -0.116   0.013  -0.149
    1UNL     O3    9  -0.176   0.095  -0.051
    1UNL     C7   10  -0.319   0.106  -0.054
    1UNL     O4   11  -0.368   0.203  -0.145
    1UNL     C8   12  -0.384   0.318  -0.062
    1UNL     C9   13  -0.429   0.268   0.082
    1UNL     O5   14  -0.571   0.252   0.083
    1UNL    C10   15  -0.369   0.355   0.196
    1UNL     O6   16  -0.229   0.361   0.190
    1UNL    C11   17  -0.367   0.128   0.093
    1UNL     O7   18  -0.459   0.027   0.133
    1UNL    C12   19  -0.202  -0.178   0.006
    1UNL     O8   20  -0.328  -0.228   0.018
    1UNL    C13   21  -0.095  -0.280   0.047
    1UNL     O9   22  -0.139  -0.408  -0.012
    1UNL    C14   23   0.047  -0.245   0.001
    1UNL    O10   24   0.126  -0.352   0.053
    1UNL    C15   25   0.386  -0.061  -0.195
    1UNL    O11   26   0.392   0.052  -0.277
    1UNL    C16   27   0.308  -0.028  -0.063
    1UNL    C17   28   0.349   0.110  -0.005
    1UNL    C18   29   0.250   0.177   0.086
    1UNL    C19   30   0.190   0.126   0.200
    1UNL    C20   31   0.236   0.001   0.260
    1UNL    C21   32   0.077   0.208   0.253
    1UNL     H1   33   0.205  -0.254  -0.426
    1UNL     H2   34   0.340  -0.126  -0.464
    1UNL     H3   35   0.293  -0.307  -0.096
    1UNL     H4   36   0.315  -0.397  -0.241
    1UNL     H5   37   0.095  -0.134  -0.184
    1UNL     H6   38  -0.276  -0.137  -0.191
    1UNL     H7   39  -0.013   0.017  -0.146
    1UNL     H8   40  -0.149   0.054  -0.247
    1UNL     H9   41  -0.359   0.010  -0.093
    1UNL    H10   42  -0.465   0.377  -0.100
    1UNL    H11   43  -0.287   0.377  -0.057
    1UNL    H12   44  -0.602   0.165   0.121
    1UNL    H13   45  -0.425   0.453   0.203
    1UNL    H14   46  -0.394   0.298   0.285
    1UNL    H15   47  -0.200   0.409   0.270
    1UNL    H16   48  -0.280   0.139   0.164
    1UNL    H17   49  -0.416  -0.062   0.108
    1UNL    H18   50  -0.194  -0.090   0.079
    1UNL    H19   51  -0.338  -0.316  -0.008
    1UNL    H20   52  -0.095  -0.298   0.150
    1UNL    H21   53  -0.133  -0.397  -0.105
    1UNL    H22   54   0.087  -0.153   0.038
    1UNL    H23   55   0.092  -0.428   0.004
    1UNL    H24   56   0.489  -0.094  -0.175
    1UNL    H25   57   0.307   0.067  -0.307
    1UNL    H26   58   0.328  -0.109   0.004
    1UNL    H27   59   0.193  -0.028  -0.082
    1UNL    H28   60   0.440   0.101   0.059
    1UNL    H29   61   0.366   0.160  -0.096
    1UNL    H30   62   0.224   0.279   0.060
    1UNL    H31   63   0.315   0.039   0.324
    1UNL    H32   64   0.151  -0.037   0.322
    1UNL    H33   65   0.282  -0.071   0.194
    1UNL    H34   66   0.073   0.304   0.210
    1UNL    H35   67   0.069   0.210   0.358
    1UNL    H36   68  -0.016   0.156   0.218
   0.00000   0.00000   0.00000   0.00000   0.00000   0.00000   0.00000   0.00000   0.00000
Generated with MDTraj, t= 16.0
 68
    1UNL     C1    1   0.323  -0.180  -0.398
    1UNL     C2    2   0.339  -0.184  -0.271
    1UNL     C3    3   0.284  -0.301  -0.196
    1UNL     O1    4   0.141  -0.326  -0.234
    1UNL     C4    5   0.045  -0.244  -0.157
    1UNL     O2    6  -0.083  -0.249  -0.209
    1UNL     C5    7  -0.173  -0.155  -0.147
    1UNL     C6    8  -0.155   0.004  -0.181
    1UNL     O3    9  -0.178   0.078  -0.068
    1UNL     C7   10  -0.313   0.108  -0.051
    1UNL     O4   11  -0.371   0.203  -0.131
    1UNL     C8   12  -0.400   0.322  -0.054
    1UNL     C9   13  -0.427   0.276   0.091
    1UNL     O5   14  -0.569   0.268   0.113
    1UNL    C10   15  -0.356   0.371   0.195
    1UNL     O6   16  -0.211   0.373   0.184
    1UNL    C11   17  -0.359   0.136   0.097
    1UNL     O7   18  -0.464   0.041   0.131
    1UNL    C12   19  -0.190  -0.179   0.008
    1UNL     O8   20  -0.322  -0.204   0.043
    1UNL    C13   21  -0.099  -0.296   0.049
    1UNL     O9   22  -0.151  -0.419  -0.007
    1UNL    C14   23   0.044  -0.262   0.002
    1UNL    O10   24   0.135  -0.364   0.030
    1UNL    C15   25   0.383  -0.058  -0.187
    1UNL    O11   26   0.417   0.057  -0.264
    1UNL    C16   27   0.285  -0.016  -0.071
    1UNL    C17   28   0.337   0.110  -0.006
    1UNL    C18   29   0.227   0.169   0.079
    1UNL    C19   30   0.173   0.122   0.198
    1UNL    C20   31   0.243   0.019   0.278
    1UNL    C21   32   0.042   0.191   0.235
    1UNL     H1   33   0.299  -0.277  -0.443
    1UNL     H2   34   0.358  -0.090  -0.446
    1UNL     H3   35   0.294  -0.291  -0.091
    1UNL     H4   36   0.337  -0.389  -0.230
    1UNL     H5   37   0.084  -0.139  -0.177
    1UNL     H6   38  -0.272  -0.178  -0.190
    1UNL     H7   39  -0.059   0.023  -0.217
    1UNL     H8   40  -0.220   0.022  -0.274
    1UNL     H9   41  -0.365   0.016  -0.087
    1UNL    H10   42  -0.477   0.384  -0.091
    1UNL    H11   43  -0.300   0.377  -0.048
    1UNL    H12   44  -0.614   0.179   0.095
    1UNL    H13   45  -0.399   0.475   0.173
    1UNL    H14   46  -0.389   0.342   0.299
    1UNL    H15   47  -0.180   0.431   0.258
    1UNL    H16   48  -0.271   0.141   0.166
    1UNL    H17   49  -0.438  -0.047   0.109
    1UNL    H18   50  -0.155  -0.087   0.066
    1UNL    H19   51  -0.343  -0.298   0.016
    1UNL    H20   52  -0.117  -0.311   0.153
    1UNL    H21   53  -0.123  -0.419  -0.106
    1UNL    H22   54   0.086  -0.171   0.042
    1UNL    H23   55   0.110  -0.443  -0.023
    1UNL    H24   56   0.482  -0.083  -0.149
    1UNL    H25   57   0.351   0.076  -0.328
    1UNL    H26   58   0.259  -0.096  -0.008
    1UNL    H27   59   0.182   0.003  -0.125
    1UNL    H28   60   0.431   0.073   0.043
    1UNL    H29   61   0.358   0.182  -0.080
    1UNL    H30   62   0.176   0.254   0.032
    1UNL    H31   63   0.260   0.062   0.378
    1UNL    H32   64   0.188  -0.074   0.288
    1UNL    H33   65   0.346  -0.002   0.247
    1UNL    H34   66   0.060   0.272   0.296
    1UNL    H35   67  -0.034   0.125   0.269
    1UNL    H36   68   0.006   0.239   0.141
   0.00000   0.00000   0.00000   0.00000   0.00000   0.00000   0.00000   0.00000   0.00000
Generated with MDTraj, t= 17.0
 68
    1UNL     C1    1   0.339  -0.181  -0.394
    1UNL     C2    2   0.331  -0.168  -0.264
    1UNL     C3    3   0.277  -0.289  -0.192
    1UNL     O1    4   0.136  -0.315  -0.229
    1UNL     C4    5   0.043  -0.233  -0.156
    1UNL     O2    6  -0.092  -0.249  -0.207
    1UNL     C5    7  -0.186  -0.162  -0.135
    1UNL     C6    8  -0.161  -0.010  -0.176
    1UNL     O3    9  -0.189   0.085  -0.076
    1UNL     C7   10  -0.331   0.105  -0.060
    1UNL     O4   11  -0.384   0.212  -0.135
    1UNL     C8   12  -0.383   0.331  -0.057
    1UNL     C9   13  -0.410   0.284   0.088
    1UNL     O5   14  -0.550   0.272   0.110
    1UNL    C10   15  -0.344   0.370   0.198
    1UNL     O6   16  -0.206   0.383   0.164
    1UNL    C11   17  -0.350   0.141   0.094
    1UNL     O7   18  -0.431   0.040   0.163
    1UNL    C12   19  -0.184  -0.186   0.021
    1UNL     O8   20  -0.323  -0.212   0.057
    1UNL    C13   21  -0.090  -0.317   0.041
    1UNL     O9   22  -0.141  -0.432  -0.020
    1UNL    C14   23   0.052  -0.277  -0.002
    1UNL    O10   24   0.133  -0.390   0.017
    1UNL    C15   25   0.387  -0.053  -0.182
    1UNL    O11   26   0.455   0.039  -0.255
    1UNL    C16   27   0.273   0.019  -0.108
    1UNL    C17   28   0.314   0.116   0.006
    1UNL    C18   29   0.195   0.169   0.070
    1UNL    C19   30   0.153   0.124   0.190
    1UNL    C20   31   0.226   0.026   0.283
    1UNL    C21   32   0.025   0.180   0.235
    1UNL     H1   33   0.309  -0.273  -0.441
    1UNL     H2   34   0.356  -0.090  -0.450
    1UNL     H3   35   0.275  -0.279  -0.085
    1UNL     H4   36   0.339  -0.373  -0.229
    1UNL     H5   37   0.087  -0.130  -0.162
    1UNL     H6   38  -0.288  -0.187  -0.167
    1UNL     H7   39  -0.067  -0.008  -0.223
    1UNL     H8   40  -0.221   0.018  -0.271
    1UNL     H9   41  -0.388   0.014  -0.083
    1UNL    H10   42  -0.471   0.383  -0.084
    1UNL    H11   43  -0.288   0.394  -0.071
    1UNL    H12   44  -0.578   0.205   0.170
    1UNL    H13   45  -0.387   0.478   0.185
    1UNL    H14   46  -0.355   0.327   0.302
    1UNL    H15   47  -0.156   0.446   0.222
    1UNL    H16   48  -0.253   0.151   0.147
    1UNL    H17   49  -0.393  -0.052   0.135
    1UNL    H18   50  -0.141  -0.098   0.083
    1UNL    H19   51  -0.342  -0.309   0.026
    1UNL    H20   52  -0.084  -0.332   0.146
    1UNL    H21   53  -0.122  -0.419  -0.111
    1UNL    H22   54   0.100  -0.205   0.066
    1UNL    H23   55   0.113  -0.457  -0.055
    1UNL    H24   56   0.457  -0.093  -0.110
    1UNL    H25   57   0.392   0.066  -0.327
    1UNL    H26   58   0.204  -0.050  -0.064
    1UNL    H27   59   0.197   0.069  -0.175
    1UNL    H28   60   0.384   0.068   0.078
    1UNL    H29   61   0.373   0.191  -0.044
    1UNL    H30   62   0.123   0.220   0.010
    1UNL    H31   63   0.158  -0.019   0.359
    1UNL    H32   64   0.274  -0.052   0.231
    1UNL    H33   65   0.299   0.081   0.347
    1UNL    H34   66   0.031   0.197   0.339
    1UNL    H35   67  -0.056   0.110   0.233
    1UNL    H36   68  -0.003   0.279   0.196
   0.00000   0.00000   0.00000   0.00000   0.00000   0.00000   0.00000   0.00000   0.00000
Generated with MDTraj, t= 18.0
 68
    1UNL     C1    1   0.335  -0.141  -0.386
    1UNL     C2    2   0.324  -0.162  -0.257
    1UNL     C3    3   0.278  -0.291  -0.206
    1UNL     O1    4   0.143  -0.330  -0.242
    1UNL     C4    5   0.043  -0.259  -0.169
    1UNL     O2    6  -0.093  -0.256  -0.217
    1UNL     C5    7  -0.177  -0.165  -0.149
    1UNL     C6    8  -0.165  -0.020  -0.176
    1UNL     O3    9  -0.173   0.064  -0.062
    1UNL     C7   10  -0.310   0.091  -0.040
    1UNL     O4   11  -0.367   0.194  -0.127
    1UNL     C8   12  -0.391   0.309  -0.058
    1UNL     C9   13  -0.407   0.282   0.090
    1UNL     O5   14  -0.541   0.270   0.123
    1UNL    C10   15  -0.347   0.395   0.172
    1UNL     O6   16  -0.207   0.412   0.164
    1UNL    C11   17  -0.333   0.140   0.109
    1UNL     O7   18  -0.413   0.045   0.175
    1UNL    C12   19  -0.185  -0.185   0.005
    1UNL     O8   20  -0.321  -0.199   0.056
    1UNL    C13   21  -0.098  -0.303   0.051
    1UNL     O9   22  -0.159  -0.420  -0.005
    1UNL    C14   23   0.050  -0.291  -0.008
    1UNL    O10   24   0.120  -0.414   0.012
    1UNL    C15   25   0.383  -0.057  -0.161
    1UNL    O11   26   0.480   0.026  -0.226
    1UNL    C16   27   0.263   0.029  -0.104
    1UNL    C17   28   0.303   0.155  -0.015
    1UNL    C18   29   0.173   0.181   0.060
    1UNL    C19   30   0.136   0.130   0.178
    1UNL    C20   31   0.220   0.018   0.241
    1UNL    C21   32   0.016   0.172   0.257
    1UNL     H1   33   0.279  -0.204  -0.454
    1UNL     H2   34   0.377  -0.053  -0.427
    1UNL     H3   35   0.297  -0.291  -0.097
    1UNL     H4   36   0.326  -0.375  -0.264
    1UNL     H5   37   0.087  -0.154  -0.177
    1UNL     H6   38  -0.278  -0.194  -0.182
    1UNL     H7   39  -0.075   0.005  -0.228
    1UNL     H8   40  -0.230   0.009  -0.269
    1UNL     H9   41  -0.367  -0.001  -0.057
    1UNL    H10   42  -0.480   0.346  -0.099
    1UNL    H11   43  -0.304   0.384  -0.073
    1UNL    H12   44  -0.577   0.172   0.118
    1UNL    H13   45  -0.395   0.494   0.135
    1UNL    H14   46  -0.365   0.372   0.282
    1UNL    H15   47  -0.172   0.492   0.206
    1UNL    H16   48  -0.238   0.161   0.162
    1UNL    H17   49  -0.381  -0.043   0.146
    1UNL    H18   50  -0.151  -0.088   0.054
    1UNL    H19   51  -0.356  -0.282   0.033
    1UNL    H20   52  -0.099  -0.312   0.160
    1UNL    H21   53  -0.170  -0.410  -0.108
    1UNL    H22   54   0.108  -0.214   0.047
    1UNL    H23   55   0.071  -0.483  -0.039
    1UNL    H24   56   0.440  -0.100  -0.078
    1UNL    H25   57   0.438   0.095  -0.291
    1UNL    H26   58   0.195  -0.035  -0.046
    1UNL    H27   59   0.195   0.068  -0.174
    1UNL    H28   60   0.383   0.118   0.051
    1UNL    H29   61   0.348   0.238  -0.067
    1UNL    H30   62   0.095   0.232   0.002
    1UNL    H31   63   0.224  -0.074   0.181
    1UNL    H32   64   0.320   0.054   0.250
    1UNL    H33   65   0.177  -0.013   0.340
    1UNL    H34   66   0.046   0.186   0.362
    1UNL    H35   67  -0.053   0.091   0.278
    1UNL    H36   68  -0.032   0.262   0.232
   0.00000   0.00000   0.00000   0.00000   0.00000   0.00000   0.00000   0.00000   0.00000
Generated with MDTraj, t= 19.0
 68
    1UNL     C1    1   0.293  -0.121  -0.370
    1UNL     C2    2   0.307  -0.155  -0.243
    1UNL     C3    3   0.266  -0.301  -0.205
    1UNL     O1    4   0.133  -0.332  -0.240
    1UNL     C4    5   0.047  -0.259  -0.157
    1UNL     O2    6  -0.089  -0.237  -0.207
    1UNL     C5    7  -0.177  -0.148  -0.133
    1UNL     C6    8  -0.143  -0.009  -0.171
    1UNL     O3    9  -0.164   0.076  -0.061
    1UNL     C7   10  -0.304   0.086  -0.040
    1UNL     O4   11  -0.369   0.179  -0.137
    1UNL     C8   12  -0.391   0.299  -0.072
    1UNL     C9   13  -0.410   0.280   0.081
    1UNL     O5   14  -0.546   0.254   0.114
    1UNL    C10   15  -0.343   0.392   0.165
    1UNL     O6   16  -0.205   0.417   0.140
    1UNL    C11   17  -0.325   0.147   0.104
    1UNL     O7   18  -0.377   0.048   0.187
    1UNL    C12   19  -0.175  -0.185   0.022
    1UNL     O8   20  -0.303  -0.206   0.076
    1UNL    C13   21  -0.092  -0.317   0.037
    1UNL     O9   22  -0.159  -0.420  -0.030
    1UNL    C14   23   0.051  -0.313  -0.014
    1UNL    O10   24   0.114  -0.434  -0.013
    1UNL    C15   25   0.349  -0.050  -0.147
    1UNL    O11   26   0.470   0.012  -0.182
    1UNL    C16   27   0.236   0.042  -0.109
    1UNL    C17   28   0.289   0.161  -0.026
    1UNL    C18   29   0.185   0.206   0.072
    1UNL    C19   30   0.146   0.131   0.174
    1UNL    C20   31   0.214   0.004   0.219
    1UNL    C21   32   0.030   0.184   0.259
    1UNL     H1   33   0.256  -0.193  -0.440
    1UNL     H2   34   0.332  -0.029  -0.413
    1UNL     H3   35   0.249  -0.313  -0.095
    1UNL     H4   36   0.341  -0.380  -0.243
    1UNL     H5   37   0.106  -0.164  -0.164
    1UNL     H6   38  -0.277  -0.172  -0.175
    1UNL     H7   39  -0.045   0.006  -0.206
    1UNL     H8   40  -0.189   0.024  -0.270
    1UNL     H9   41  -0.353  -0.011  -0.050
    1UNL    H10   42  -0.473   0.346  -0.119
    1UNL    H11   43  -0.305   0.376  -0.088
    1UNL    H12   44  -0.559   0.166   0.140
    1UNL    H13   45  -0.397   0.489   0.138
    1UNL    H14   46  -0.360   0.371   0.273
    1UNL    H15   47  -0.177   0.501   0.185
    1UNL    H16   48  -0.228   0.189   0.141
    1UNL    H17   49  -0.364  -0.044   0.157
    1UNL    H18   50  -0.125  -0.100   0.077
    1UNL    H19   51  -0.337  -0.286   0.041
    1UNL    H20   52  -0.085  -0.349   0.142
    1UNL    H21   53  -0.139  -0.429  -0.122
    1UNL    H22   54   0.104  -0.239   0.050
    1UNL    H23   55   0.093  -0.483  -0.094
    1UNL    H24   56   0.377  -0.104  -0.055
    1UNL    H25   57   0.458   0.064  -0.274
    1UNL    H26   58   0.159  -0.015  -0.053
    1UNL    H27   59   0.197   0.067  -0.198
    1UNL    H28   60   0.375   0.133   0.034
    1UNL    H29   61   0.324   0.243  -0.093
    1UNL    H30   62   0.130   0.290   0.040
    1UNL    H31   63   0.322   0.009   0.236
    1UNL    H32   64   0.182  -0.018   0.323
    1UNL    H33   65   0.196  -0.083   0.157
    1UNL    H34   66   0.073   0.246   0.340
    1UNL    H35   67  -0.017   0.104   0.315
    1UNL    H36   68  -0.029   0.247   0.203
   0.00000   0.00000   0.00000   0.00000   0.00000   0.00000   0.00000   0.00000   0.00000
Generated with MDTraj, t= 20.0
 68
    1UNL     C1    1   0.257  -0.093  -0.380
    1UNL     C2    2   0.288  -0.142  -0.262
    1UNL     C3    3   0.270  -0.284  -0.224
    1UNL     O1    4   0.144  -0.335  -0.244
    1UNL     C4    5   0.043  -0.274  -0.165
    1UNL     O2    6  -0.089  -0.257  -0.225
    1UNL     C5    7  -0.168  -0.162  -0.144
    1UNL     C6    8  -0.138  -0.012  -0.166
    1UNL     O3    9  -0.157   0.074  -0.053
    1UNL     C7   10  -0.290   0.094  -0.033
    1UNL     O4   11  -0.360   0.168  -0.132
    1UNL     C8   12  -0.397   0.290  -0.076
    1UNL     C9   13  -0.411   0.281   0.077
    1UNL     O5   14  -0.550   0.265   0.120
    1UNL    C10   15  -0.352   0.399   0.158
    1UNL     O6   16  -0.218   0.427   0.122
    1UNL    C11   17  -0.324   0.149   0.109
    1UNL     O7   18  -0.391   0.056   0.200
    1UNL    C12   19  -0.164  -0.196   0.009
    1UNL     O8   20  -0.288  -0.182   0.071
    1UNL    C13   21  -0.093  -0.335   0.038
    1UNL     O9   22  -0.161  -0.440  -0.016
    1UNL    C14   23   0.054  -0.335  -0.022
    1UNL    O10   24   0.110  -0.465  -0.016
    1UNL    C15   25   0.341  -0.055  -0.150
    1UNL    O11   26   0.483  -0.015  -0.167
    1UNL    C16   27   0.250   0.067  -0.127
    1UNL    C17   28   0.299   0.159  -0.014
    1UNL    C18   29   0.195   0.208   0.089
    1UNL    C19   30   0.144   0.144   0.190
    1UNL    C20   31   0.183   0.009   0.238
    1UNL    C21   32   0.047   0.226   0.277
    1UNL     H1   33   0.244  -0.157  -0.463
    1UNL     H2   34   0.267   0.011  -0.409
    1UNL     H3   35   0.304  -0.299  -0.118
    1UNL     H4   36   0.328  -0.358  -0.293
    1UNL     H5   37   0.086  -0.171  -0.164
    1UNL     H6   38  -0.274  -0.183  -0.169
    1UNL     H7   39  -0.040  -0.011  -0.199
    1UNL     H8   40  -0.191   0.033  -0.251
    1UNL     H9   41  -0.328  -0.009  -0.037
    1UNL    H10   42  -0.497   0.307  -0.103
    1UNL    H11   43  -0.337   0.380  -0.118
    1UNL    H12   44  -0.563   0.173   0.165
    1UNL    H13   45  -0.420   0.486   0.139
    1UNL    H14   46  -0.366   0.381   0.265
    1UNL    H15   47  -0.194   0.515   0.161
    1UNL    H16   48  -0.228   0.184   0.153
    1UNL    H17   49  -0.370  -0.039   0.170
    1UNL    H18   50  -0.104  -0.121   0.064
    1UNL    H19   51  -0.348  -0.266   0.052
    1UNL    H20   52  -0.084  -0.348   0.147
    1UNL    H21   53  -0.163  -0.423  -0.118
    1UNL    H22   54   0.110  -0.264   0.046
    1UNL    H23   55   0.089  -0.520  -0.094
    1UNL    H24   56   0.344  -0.112  -0.054
    1UNL    H25   57   0.497   0.003  -0.269
    1UNL    H26   58   0.151   0.024  -0.105
    1UNL    H27   59   0.259   0.122  -0.215
    1UNL    H28   60   0.362   0.096   0.045
    1UNL    H29   61   0.366   0.243  -0.053
    1UNL    H30   62   0.169   0.316   0.079
    1UNL    H31   63   0.176   0.004   0.348
    1UNL    H32   64   0.104  -0.065   0.208
    1UNL    H33   65   0.278  -0.012   0.199
    1UNL    H34   66   0.099   0.246   0.372
    1UNL    H35   67  -0.040   0.170   0.305
    1UNL    H36   68   0.038   0.320   0.229
   0.00000   0.00000   0.00000   0.00000   0.00000   0.00000   0.00000   0.00000   0.00000
Generated with MDTraj, t= 21.0
 68
    1UNL     C1    1   0.248  -0.068  -0.372
    1UNL     C2    2   0.284  -0.132  -0.262
    1UNL     C3    3   0.269  -0.279  -0.246
    1UNL     O1    4   0.128  -0.322  -0.264
    1UNL     C4    5   0.033  -0.263  -0.166
    1UNL     O2    6  -0.106  -0.263  -0.203
    1UNL     C5    7  -0.183  -0.167  -0.128
    1UNL     C6    8  -0.151  -0.014  -0.175
    1UNL     O3    9  -0.166   0.070  -0.061
    1UNL     C7   10  -0.299   0.082  -0.033
    1UNL     O4   11  -0.364   0.158  -0.133
    1UNL     C8   12  -0.393   0.288  -0.082
    1UNL     C9   13  -0.400   0.274   0.069
    1UNL     O5   14  -0.537   0.256   0.103
    1UNL    C10   15  -0.350   0.396   0.149
    1UNL     O6   16  -0.221   0.439   0.111
    1UNL    C11   17  -0.311   0.149   0.108
    1UNL     O7   18  -0.375   0.059   0.201
    1UNL    C12   19  -0.158  -0.199   0.029
    1UNL     O8   20  -0.279  -0.211   0.099
    1UNL    C13   21  -0.088  -0.339   0.041
    1UNL     O9   22  -0.163  -0.447  -0.019
    1UNL    C14   23   0.056  -0.336  -0.029
    1UNL    O10   24   0.097  -0.473  -0.045
    1UNL    C15   25   0.349  -0.050  -0.152
    1UNL    O11   26   0.488  -0.016  -0.178
    1UNL    C16   27   0.266   0.060  -0.084
    1UNL    C17   28   0.331   0.131   0.031
    1UNL    C18   29   0.229   0.216   0.105
    1UNL    C19   30   0.144   0.172   0.191
    1UNL    C20   31   0.149   0.025   0.231
    1UNL    C21   32   0.038   0.254   0.258
    1UNL     H1   33   0.188  -0.110  -0.452
    1UNL     H2   34   0.253   0.040  -0.374
    1UNL     H3   35   0.307  -0.309  -0.145
    1UNL     H4   36   0.326  -0.348  -0.317
    1UNL     H5   37   0.066  -0.156  -0.156
    1UNL     H6   38  -0.291  -0.184  -0.141
    1UNL     H7   39  -0.063   0.001  -0.225
    1UNL     H8   40  -0.233  -0.000  -0.245
    1UNL     H9   41  -0.337  -0.021  -0.021
    1UNL    H10   42  -0.471   0.340  -0.128
    1UNL    H11   43  -0.294   0.345  -0.107
    1UNL    H12   44  -0.559   0.165   0.132
    1UNL    H13   45  -0.421   0.474   0.128
    1UNL    H14   46  -0.367   0.375   0.254
    1UNL    H15   47  -0.204   0.531   0.143
    1UNL    H16   48  -0.212   0.179   0.148
    1UNL    H17   49  -0.346  -0.029   0.179
    1UNL    H18   50  -0.093  -0.120   0.069
    1UNL    H19   51  -0.315  -0.301   0.095
    1UNL    H20   52  -0.079  -0.378   0.145
    1UNL    H21   53  -0.173  -0.435  -0.112
    1UNL    H22   54   0.128  -0.282   0.041
    1UNL    H23   55   0.037  -0.527  -0.103
    1UNL    H24   56   0.371  -0.119  -0.065
    1UNL    H25   57   0.506   0.019  -0.268
    1UNL    H26   58   0.185   0.001  -0.038
    1UNL    H27   59   0.229   0.135  -0.157
    1UNL    H28   60   0.383   0.065   0.097
    1UNL    H29   61   0.407   0.200  -0.023
    1UNL    H30   62   0.232   0.318   0.082
    1UNL    H31   63   0.050  -0.017   0.252
    1UNL    H32   64   0.185  -0.040   0.150
    1UNL    H33   65   0.220   0.017   0.311
    1UNL    H34   66   0.081   0.324   0.326
    1UNL    H35   67  -0.025   0.194   0.319
    1UNL    H36   68  -0.014   0.320   0.187
   0.00000   0.00000   0.00000   0.00000   0.00000   0.00000   0.00000   0.00000   0.00000
Generated with MDTraj, t= 22.0
 68
    1UNL     C1    1   0.231  -0.067  -0.361
    1UNL     C2    2   0.286  -0.131  -0.254
    1UNL     C3    3   0.264  -0.279  -0.248
    1UNL     O1    4   0.127  -0.323  -0.279
    1UNL     C4    5   0.033  -0.270  -0.183
    1UNL     O2    6  -0.104  -0.264  -0.219
    1UNL     C5    7  -0.187  -0.181  -0.129
    1UNL     C6    8  -0.170  -0.028  -0.176
    1UNL     O3    9  -0.175   0.050  -0.058
    1UNL     C7   10  -0.305   0.083  -0.031
    1UNL     O4   11  -0.357   0.161  -0.134
    1UNL     C8   12  -0.397   0.286  -0.080
    1UNL     C9   13  -0.411   0.280   0.072
    1UNL     O5   14  -0.543   0.247   0.120
    1UNL    C10   15  -0.352   0.408   0.138
    1UNL     O6   16  -0.215   0.429   0.114
    1UNL    C11   17  -0.322   0.155   0.108
    1UNL     O7   18  -0.365   0.067   0.209
    1UNL    C12   19  -0.143  -0.199   0.020
    1UNL     O8   20  -0.256  -0.202   0.102
    1UNL    C13   21  -0.072  -0.337   0.037
    1UNL     O9   22  -0.158  -0.432  -0.003
    1UNL    C14   23   0.061  -0.340  -0.045
    1UNL    O10   24   0.105  -0.468  -0.068
    1UNL    C15   25   0.365  -0.071  -0.142
    1UNL    O11   26   0.482   0.006  -0.188
    1UNL    C16   27   0.277   0.027  -0.061
    1UNL    C17   28   0.331   0.088   0.072
    1UNL    C18   29   0.249   0.206   0.118
    1UNL    C19   30   0.145   0.187   0.194
    1UNL    C20   31   0.095   0.052   0.231
    1UNL    C21   32   0.048   0.292   0.224
    1UNL     H1   33   0.151  -0.104  -0.422
    1UNL     H2   34   0.251   0.030  -0.396
    1UNL     H3   35   0.290  -0.345  -0.164
    1UNL     H4   36   0.337  -0.318  -0.321
    1UNL     H5   37   0.061  -0.163  -0.174
    1UNL     H6   38  -0.291  -0.212  -0.138
    1UNL     H7   39  -0.079  -0.021  -0.222
    1UNL     H8   40  -0.252  -0.009  -0.245
    1UNL     H9   41  -0.358  -0.014  -0.033
    1UNL    H10   42  -0.493   0.296  -0.120
    1UNL    H11   43  -0.335   0.370  -0.131
    1UNL    H12   44  -0.536   0.188   0.195
    1UNL    H13   45  -0.413   0.489   0.108
    1UNL    H14   46  -0.359   0.398   0.243
    1UNL    H15   47  -0.188   0.522   0.118
    1UNL    H16   48  -0.228   0.201   0.144
    1UNL    H17   49  -0.317  -0.024   0.197
    1UNL    H18   50  -0.070  -0.124   0.044
    1UNL    H19   51  -0.297  -0.286   0.106
    1UNL    H20   52  -0.057  -0.357   0.147
    1UNL    H21   53  -0.176  -0.421  -0.104
    1UNL    H22   54   0.136  -0.277   0.016
    1UNL    H23   55   0.052  -0.511  -0.139
    1UNL    H24   56   0.394  -0.151  -0.068
    1UNL    H25   57   0.446   0.078  -0.236
    1UNL    H26   58   0.181  -0.019  -0.039
    1UNL    H27   59   0.263   0.121  -0.129
    1UNL    H28   60   0.350   0.015   0.148
    1UNL    H29   61   0.438   0.124   0.042
    1UNL    H30   62   0.293   0.308   0.107
    1UNL    H31   63   0.008   0.020   0.175
    1UNL    H32   64   0.162  -0.030   0.211
    1UNL    H33   65   0.084   0.043   0.341
    1UNL    H34   66   0.091   0.387   0.234
    1UNL    H35   67  -0.001   0.274   0.316
    1UNL    H36   68  -0.022   0.314   0.138
   0.00000   0.00000   0.00000   0.00000   0.00000   0.00000   0.00000   0.00000   0.00000
Generated with MDTraj, t= 23.0
 68
    1UNL     C1    1   0.245  -0.060  -0.361
    1UNL     C2    2   0.291  -0.138  -0.264
    1UNL     C3    3   0.255  -0.287  -0.264
    1UNL     O1    4   0.122  -0.330  -0.283
    1UNL     C4    5   0.038  -0.274  -0.182
    1UNL     O2    6  -0.092  -0.265  -0.221
    1UNL     C5    7  -0.172  -0.178  -0.131
    1UNL     C6    8  -0.153  -0.029  -0.178
    1UNL     O3    9  -0.173   0.071  -0.083
    1UNL     C7   10  -0.309   0.083  -0.042
    1UNL     O4   11  -0.400   0.163  -0.127
    1UNL     C8   12  -0.423   0.290  -0.066
    1UNL     C9   13  -0.407   0.273   0.085
    1UNL     O5   14  -0.534   0.242   0.135
    1UNL    C10   15  -0.353   0.403   0.153
    1UNL     O6   16  -0.225   0.445   0.114
    1UNL    C11   17  -0.313   0.151   0.102
    1UNL     O7   18  -0.353   0.074   0.208
    1UNL    C12   19  -0.137  -0.202   0.018
    1UNL     O8   20  -0.254  -0.193   0.098
    1UNL    C13   21  -0.065  -0.343   0.036
    1UNL     O9   22  -0.147  -0.443  -0.007
    1UNL    C14   23   0.069  -0.346  -0.046
    1UNL    O10   24   0.126  -0.469  -0.059
    1UNL    C15   25   0.354  -0.078  -0.139
    1UNL    O11   26   0.471   0.017  -0.165
    1UNL    C16   27   0.253  -0.003  -0.049
    1UNL    C17   28   0.314   0.045   0.086
    1UNL    C18   29   0.253   0.178   0.115
    1UNL    C19   30   0.141   0.197   0.185
    1UNL    C20   31   0.049   0.088   0.206
    1UNL    C21   32   0.092   0.336   0.216
    1UNL     H1   33   0.212  -0.102  -0.456
    1UNL     H2   34   0.246   0.050  -0.366
    1UNL     H3   35   0.294  -0.328  -0.173
    1UNL     H4   36   0.312  -0.352  -0.328
    1UNL     H5   37   0.071  -0.168  -0.178
    1UNL     H6   38  -0.277  -0.205  -0.134
    1UNL     H7   39  -0.056  -0.021  -0.213
    1UNL     H8   40  -0.226  -0.009  -0.261
    1UNL     H9   41  -0.345  -0.021  -0.046
    1UNL    H10   42  -0.511   0.326  -0.109
    1UNL    H11   43  -0.342   0.364  -0.105
    1UNL    H12   44  -0.527   0.172   0.212
    1UNL    H13   45  -0.415   0.479   0.117
    1UNL    H14   46  -0.354   0.394   0.259
    1UNL    H15   47  -0.201   0.532   0.155
    1UNL    H16   48  -0.217   0.199   0.124
    1UNL    H17   49  -0.308  -0.014   0.200
    1UNL    H18   50  -0.065  -0.128   0.049
    1UNL    H19   51  -0.322  -0.267   0.082
    1UNL    H20   52  -0.042  -0.357   0.145
    1UNL    H21   53  -0.157  -0.436  -0.100
    1UNL    H22   54   0.146  -0.278   0.000
    1UNL    H23   55   0.065  -0.536  -0.096
    1UNL    H24   56   0.395  -0.157  -0.070
    1UNL    H25   57   0.443   0.103  -0.182
    1UNL    H26   58   0.174  -0.073  -0.024
    1UNL    H27   59   0.203   0.077  -0.120
    1UNL    H28   60   0.287  -0.029   0.163
    1UNL    H29   61   0.429   0.046   0.087
    1UNL    H30   62   0.310   0.262   0.089
    1UNL    H31   63  -0.019   0.082   0.122
    1UNL    H32   64   0.096  -0.007   0.210
    1UNL    H33   65   0.005   0.104   0.310
    1UNL    H34   66   0.165   0.388   0.268
    1UNL    H35   67   0.008   0.324   0.282
    1UNL    H36   68   0.082   0.397   0.121
   0.00000   0.00000   0.00000   0.00000   0.00000   0.00000   0.00000   0.00000   0.00000
Generated with MDTraj, t= 24.0
 68
    1UNL     C1    1   0.260  -0.079  -0.362
    1UNL     C2    2   0.284  -0.147  -0.253
    1UNL     C3    3   0.249  -0.297  -0.263
    1UNL     O1    4   0.114  -0.325  -0.287
    1UNL     C4    5   0.040  -0.251  -0.194
    1UNL     O2    6  -0.096  -0.257  -0.224
    1UNL     C5    7  -0.171  -0.168  -0.135
    1UNL     C6    8  -0.168  -0.027  -0.185
    1UNL     O3    9  -0.169   0.057  -0.074
    1UNL     C7   10  -0.300   0.079  -0.026
    1UNL     O4   11  -0.366   0.162  -0.124
    1UNL     C8   12  -0.423   0.275  -0.061
    1UNL     C9   13  -0.412   0.261   0.090
    1UNL     O5   14  -0.534   0.213   0.141
    1UNL    C10   15  -0.366   0.395   0.155
    1UNL     O6   16  -0.241   0.428   0.091
    1UNL    C11   17  -0.298   0.154   0.113
    1UNL     O7   18  -0.335   0.064   0.219
    1UNL    C12   19  -0.136  -0.186   0.019
    1UNL     O8   20  -0.255  -0.189   0.098
    1UNL    C13   21  -0.064  -0.326   0.036
    1UNL     O9   22  -0.141  -0.436  -0.014
    1UNL    C14   23   0.069  -0.324  -0.052
    1UNL    O10   24   0.119  -0.455  -0.073
    1UNL    C15   25   0.338  -0.090  -0.129
    1UNL    O11   26   0.462  -0.019  -0.143
    1UNL    C16   27   0.247   0.007  -0.049
    1UNL    C17   28   0.305   0.043   0.088
    1UNL    C18   29   0.266   0.174   0.143
    1UNL    C19   30   0.143   0.216   0.177
    1UNL    C20   31   0.027   0.118   0.172
    1UNL    C21   32   0.117   0.361   0.210
    1UNL     H1   33   0.233  -0.138  -0.445
    1UNL     H2   34   0.283   0.022  -0.380
    1UNL     H3   35   0.287  -0.347  -0.177
    1UNL     H4   36   0.309  -0.344  -0.336
    1UNL     H5   37   0.075  -0.145  -0.202
    1UNL     H6   38  -0.276  -0.197  -0.135
    1UNL     H7   39  -0.082   0.001  -0.239
    1UNL     H8   40  -0.258  -0.013  -0.254
    1UNL     H9   41  -0.359  -0.015  -0.017
    1UNL    H10   42  -0.521   0.278  -0.097
    1UNL    H11   43  -0.375   0.371  -0.107
    1UNL    H12   44  -0.523   0.127   0.175
    1UNL    H13   45  -0.437   0.472   0.147
    1UNL    H14   46  -0.338   0.378   0.256
    1UNL    H15   47  -0.194   0.498   0.145
    1UNL    H16   48  -0.206   0.210   0.139
    1UNL    H17   49  -0.297  -0.026   0.204
    1UNL    H18   50  -0.067  -0.106   0.039
    1UNL    H19   51  -0.317  -0.268   0.072
    1UNL    H20   52  -0.046  -0.347   0.146
    1UNL    H21   53  -0.170  -0.418  -0.110
    1UNL    H22   54   0.147  -0.270   0.006
    1UNL    H23   55   0.056  -0.517  -0.111
    1UNL    H24   56   0.359  -0.173  -0.059
    1UNL    H25   57   0.452   0.055  -0.200
    1UNL    H26   58   0.148  -0.045  -0.048
    1UNL    H27   59   0.227   0.101  -0.114
    1UNL    H28   60   0.289  -0.043   0.160
    1UNL    H29   61   0.416   0.053   0.061
    1UNL    H30   62   0.346   0.253   0.136
    1UNL    H31   63  -0.020   0.119   0.075
    1UNL    H32   64   0.055   0.016   0.191
    1UNL    H33   65  -0.038   0.148   0.260
    1UNL    H34   66   0.150   0.378   0.310
    1UNL    H35   67   0.009   0.369   0.215
    1UNL    H36   68   0.181   0.428   0.147
   0.00000   0.00000   0.00000   0.00000   0.00000   0.00000   0.00000   0.00000   0.00000
Generated with MDTraj, t= 25.0
 68
    1UNL     C1    1   0.275  -0.049  -0.344
    1UNL     C2    2   0.292  -0.143  -0.252
    1UNL     C3    3   0.255  -0.291  -0.284
    1UNL     O1    4   0.115  -0.310  -0.298
    1UNL     C4    5   0.036  -0.260  -0.194
    1UNL     O2    6  -0.110  -0.263  -0.220
    1UNL     C5    7  -0.181  -0.169  -0.133
    1UNL     C6    8  -0.159  -0.027  -0.179
    1UNL     O3    9  -0.169   0.073  -0.074
    1UNL     C7   10  -0.302   0.083  -0.028
    1UNL     O4   11  -0.395   0.141  -0.120
    1UNL     C8   12  -0.437   0.264  -0.065
    1UNL     C9   13  -0.418   0.254   0.087
    1UNL     O5   14  -0.537   0.203   0.153
    1UNL    C10   15  -0.394   0.398   0.148
    1UNL     O6   16  -0.268   0.459   0.121
    1UNL    C11   17  -0.306   0.159   0.107
    1UNL     O7   18  -0.331   0.076   0.224
    1UNL    C12   19  -0.146  -0.199   0.016
    1UNL     O8   20  -0.271  -0.211   0.080
    1UNL    C13   21  -0.074  -0.338   0.036
    1UNL     O9   22  -0.164  -0.437  -0.011
    1UNL    C14   23   0.059  -0.328  -0.048
    1UNL    O10   24   0.122  -0.450  -0.063
    1UNL    C15   25   0.354  -0.107  -0.118
    1UNL    O11   26   0.501  -0.093  -0.130
    1UNL    C16   27   0.293   0.031  -0.065
    1UNL    C17   28   0.334   0.071   0.073
    1UNL    C18   29   0.284   0.198   0.130
    1UNL    C19   30   0.153   0.220   0.164
    1UNL    C20   31   0.037   0.126   0.162
    1UNL    C21   32   0.133   0.361   0.213
    1UNL     H1   33   0.209  -0.061  -0.433
    1UNL     H2   34   0.318   0.051  -0.338
    1UNL     H3   35   0.280  -0.359  -0.205
    1UNL     H4   36   0.323  -0.321  -0.361
    1UNL     H5   37   0.073  -0.155  -0.182
    1UNL     H6   38  -0.287  -0.197  -0.138
    1UNL     H7   39  -0.064  -0.020  -0.221
    1UNL     H8   40  -0.228   0.014  -0.262
    1UNL     H9   41  -0.339  -0.019  -0.007
    1UNL    H10   42  -0.539   0.270  -0.086
    1UNL    H11   43  -0.389   0.353  -0.120
    1UNL    H12   44  -0.515   0.139   0.232
    1UNL    H13   45  -0.467   0.460   0.102
    1UNL    H14   46  -0.419   0.398   0.254
    1UNL    H15   47  -0.270   0.551   0.155
    1UNL    H16   48  -0.211   0.213   0.120
    1UNL    H17   49  -0.296  -0.016   0.197
    1UNL    H18   50  -0.089  -0.117   0.056
    1UNL    H19   51  -0.305  -0.299   0.066
    1UNL    H20   52  -0.055  -0.348   0.148
    1UNL    H21   53  -0.178  -0.420  -0.103
    1UNL    H22   54   0.119  -0.260   0.015
    1UNL    H23   55   0.061  -0.522  -0.087
    1UNL    H24   56   0.324  -0.185  -0.049
    1UNL    H25   57   0.524  -0.096  -0.225
    1UNL    H26   58   0.178   0.040  -0.068
    1UNL    H27   59   0.319   0.109  -0.141
    1UNL    H28   60   0.289  -0.022   0.128
    1UNL    H29   61   0.448   0.063   0.067
    1UNL    H30   62   0.345   0.281   0.111
    1UNL    H31   63   0.002   0.096   0.063
    1UNL    H32   64   0.063   0.025   0.204
    1UNL    H33   65  -0.042   0.155   0.234
    1UNL    H34   66   0.116   0.362   0.322
    1UNL    H35   67   0.045   0.410   0.176
    1UNL    H36   68   0.219   0.423   0.206
   0.00000   0.00000   0.00000   0.00000   0.00000   0.00000   0.00000   0.00000   0.00000
Generated with MDTraj, t= 26.0
 68
    1UNL     C1    1   0.285  -0.078  -0.349
    1UNL     C2    2   0.293  -0.150  -0.243
    1UNL     C3    3   0.260  -0.289  -0.245
    1UNL     O1    4   0.122  -0.301  -0.281
    1UNL     C4    5   0.033  -0.246  -0.189
    1UNL     O2    6  -0.103  -0.245  -0.225
    1UNL     C5    7  -0.185  -0.164  -0.139
    1UNL     C6    8  -0.177  -0.013  -0.176
    1UNL     O3    9  -0.184   0.067  -0.057
    1UNL     C7   10  -0.321   0.078  -0.020
    1UNL     O4   11  -0.395   0.149  -0.125
    1UNL     C8   12  -0.454   0.264  -0.059
    1UNL     C9   13  -0.451   0.249   0.093
    1UNL     O5   14  -0.559   0.177   0.144
    1UNL    C10   15  -0.417   0.388   0.168
    1UNL     O6   16  -0.302   0.446   0.109
    1UNL    C11   17  -0.329   0.157   0.108
    1UNL     O7   18  -0.330   0.086   0.234
    1UNL    C12   19  -0.154  -0.194   0.014
    1UNL     O8   20  -0.262  -0.189   0.097
    1UNL    C13   21  -0.084  -0.329   0.021
    1UNL     O9   22  -0.170  -0.424  -0.041
    1UNL    C14   23   0.048  -0.312  -0.049
    1UNL    O10   24   0.113  -0.437  -0.067
    1UNL    C15   25   0.359  -0.094  -0.123
    1UNL    O11   26   0.495  -0.136  -0.100
    1UNL    C16   27   0.347   0.052  -0.094
    1UNL    C17   28   0.376   0.075   0.060
    1UNL    C18   29   0.315   0.196   0.117
    1UNL    C19   30   0.185   0.211   0.156
    1UNL    C20   31   0.087   0.096   0.161
    1UNL    C21   32   0.140   0.348   0.187
    1UNL     H1   33   0.264  -0.123  -0.442
    1UNL     H2   34   0.294   0.027  -0.348
    1UNL     H3   35   0.306  -0.332  -0.154
    1UNL     H4   36   0.310  -0.346  -0.324
    1UNL     H5   37   0.075  -0.144  -0.189
    1UNL     H6   38  -0.289  -0.200  -0.147
    1UNL     H7   39  -0.089   0.017  -0.223
    1UNL     H8   40  -0.266   0.018  -0.245
    1UNL     H9   41  -0.370  -0.021  -0.005
    1UNL    H10   42  -0.547   0.293  -0.098
    1UNL    H11   43  -0.385   0.350  -0.092
    1UNL    H12   44  -0.532   0.134   0.227
    1UNL    H13   45  -0.502   0.454   0.157
    1UNL    H14   46  -0.403   0.371   0.277
    1UNL    H15   47  -0.297   0.542   0.125
    1UNL    H16   48  -0.239   0.218   0.118
    1UNL    H17   49  -0.291   0.001   0.218
    1UNL    H18   50  -0.084  -0.123   0.047
    1UNL    H19   51  -0.314  -0.265   0.090
    1UNL    H20   52  -0.056  -0.363   0.126
    1UNL    H21   53  -0.180  -0.405  -0.142
    1UNL    H22   54   0.118  -0.247   0.001
    1UNL    H23   55   0.049  -0.503  -0.105
    1UNL    H24   56   0.302  -0.142  -0.044
    1UNL    H25   57   0.562  -0.089  -0.164
    1UNL    H26   58   0.242   0.094  -0.122
    1UNL    H27   59   0.408   0.114  -0.157
    1UNL    H28   60   0.341  -0.024   0.114
    1UNL    H29   61   0.489   0.080   0.063
    1UNL    H30   62   0.361   0.289   0.077
    1UNL    H31   63   0.086   0.034   0.069
    1UNL    H32   64   0.113   0.022   0.241
    1UNL    H33   65  -0.009   0.132   0.194
    1UNL    H34   66   0.093   0.354   0.289
    1UNL    H35   67   0.068   0.393   0.121
    1UNL    H36   68   0.215   0.418   0.199
   0.00000   0.00000   0.00000   0.00000   0.00000   0.00000   0.00000   0.00000   0.00000
Generated with MDTraj, t= 27.0
 68
    1UNL     C1    1   0.330  -0.084  -0.348
    1UNL     C2    2   0.313  -0.159  -0.239
    1UNL     C3    3   0.260  -0.298  -0.252
    1UNL     O1    4   0.122  -0.301  -0.276
    1UNL     C4    5   0.042  -0.240  -0.182
    1UNL     O2    6  -0.094  -0.231  -0.222
    1UNL     C5    7  -0.177  -0.147  -0.136
    1UNL     C6    8  -0.152   0.003  -0.173
    1UNL     O3    9  -0.185   0.091  -0.067
    1UNL     C7   10  -0.318   0.094  -0.019
    1UNL     O4   11  -0.410   0.157  -0.115
    1UNL     C8   12  -0.479   0.260  -0.047
    1UNL     C9   13  -0.466   0.248   0.101
    1UNL     O5   14  -0.579   0.184   0.166
    1UNL    C10   15  -0.454   0.386   0.167
    1UNL     O6   16  -0.348   0.463   0.127
    1UNL    C11   17  -0.338   0.161   0.120
    1UNL     O7   18  -0.361   0.064   0.219
    1UNL    C12   19  -0.164  -0.188   0.017
    1UNL     O8   20  -0.284  -0.192   0.081
    1UNL    C13   21  -0.084  -0.321   0.021
    1UNL     O9   22  -0.166  -0.424  -0.032
    1UNL    C14   23   0.048  -0.321  -0.046
    1UNL    O10   24   0.089  -0.455  -0.074
    1UNL    C15   25   0.374  -0.121  -0.106
    1UNL    O11   26   0.512  -0.156  -0.104
    1UNL    C16   27   0.364   0.032  -0.091
    1UNL    C17   28   0.406   0.095   0.046
    1UNL    C18   29   0.333   0.221   0.083
    1UNL    C19   30   0.210   0.213   0.135
    1UNL    C20   31   0.141   0.084   0.157
    1UNL    C21   32   0.132   0.332   0.171
    1UNL     H1   33   0.297  -0.115  -0.447
    1UNL     H2   34   0.395   0.005  -0.346
    1UNL     H3   35   0.285  -0.378  -0.178
    1UNL     H4   36   0.312  -0.343  -0.341
    1UNL     H5   37   0.098  -0.147  -0.169
    1UNL     H6   38  -0.281  -0.169  -0.170
    1UNL     H7   39  -0.049   0.020  -0.193
    1UNL     H8   40  -0.219   0.037  -0.261
    1UNL     H9   41  -0.351  -0.012  -0.019
    1UNL    H10   42  -0.581   0.248  -0.073
    1UNL    H11   43  -0.451   0.362  -0.090
    1UNL    H12   44  -0.551   0.136   0.246
    1UNL    H13   45  -0.551   0.437   0.158
    1UNL    H14   46  -0.440   0.357   0.278
    1UNL    H15   47  -0.359   0.560   0.147
    1UNL    H16   48  -0.247   0.214   0.142
    1UNL    H17   49  -0.327  -0.028   0.194
    1UNL    H18   50  -0.111  -0.106   0.058
    1UNL    H19   51  -0.338  -0.270   0.059
    1UNL    H20   52  -0.071  -0.334   0.136
    1UNL    H21   53  -0.190  -0.400  -0.120
    1UNL    H22   54   0.113  -0.267   0.020
    1UNL    H23   55   0.008  -0.511  -0.090
    1UNL    H24   56   0.323  -0.172  -0.025
    1UNL    H25   57   0.573  -0.111  -0.178
    1UNL    H26   58   0.253   0.049  -0.108
    1UNL    H27   59   0.403   0.087  -0.174
    1UNL    H28   60   0.387   0.017   0.131
    1UNL    H29   61   0.515   0.122   0.049
    1UNL    H30   62   0.371   0.314   0.051
    1UNL    H31   63   0.137   0.027   0.061
    1UNL    H32   64   0.199   0.020   0.226
    1UNL    H33   65   0.050   0.108   0.208
    1UNL    H34   66   0.053   0.300   0.244
    1UNL    H35   67   0.098   0.383   0.081
    1UNL    H36   68   0.192   0.403   0.217
   0.00000   0.00000   0.00000   0.00000   0.00000   0.00000   0.00000   0.00000   0.00000
Generated with MDTraj, t= 28.0
 68
    1UNL     C1    1   0.359  -0.131  -0.371
    1UNL     C2    2   0.344  -0.187  -0.252
    1UNL     C3    3   0.263  -0.313  -0.238
    1UNL     O1    4   0.123  -0.297  -0.272
    1UNL     C4    5   0.044  -0.225  -0.166
    1UNL     O2    6  -0.090  -0.201  -0.224
    1UNL     C5    7  -0.180  -0.133  -0.134
    1UNL     C6    8  -0.144   0.016  -0.150
    1UNL     O3    9  -0.183   0.091  -0.040
    1UNL     C7   10  -0.321   0.098  -0.013
    1UNL     O4   11  -0.402   0.169  -0.115
    1UNL     C8   12  -0.483   0.266  -0.049
    1UNL     C9   13  -0.486   0.237   0.103
    1UNL     O5   14  -0.603   0.168   0.135
    1UNL    C10   15  -0.480   0.367   0.187
    1UNL     O6   16  -0.379   0.449   0.135
    1UNL    C11   17  -0.351   0.154   0.127
    1UNL     O7   18  -0.367   0.063   0.232
    1UNL    C12   19  -0.166  -0.172   0.017
    1UNL     O8   20  -0.285  -0.169   0.093
    1UNL    C13   21  -0.100  -0.314   0.026
    1UNL     O9   22  -0.183  -0.407  -0.048
    1UNL    C14   23   0.039  -0.312  -0.033
    1UNL    O10   24   0.090  -0.440  -0.071
    1UNL    C15   25   0.401  -0.120  -0.127
    1UNL    O11   26   0.545  -0.142  -0.114
    1UNL    C16   27   0.368   0.032  -0.107
    1UNL    C17   28   0.401   0.072   0.039
    1UNL    C18   29   0.337   0.200   0.068
    1UNL    C19   30   0.219   0.205   0.128
    1UNL    C20   31   0.148   0.081   0.165
    1UNL    C21   32   0.139   0.331   0.144
    1UNL     H1   33   0.305  -0.162  -0.455
    1UNL     H2   34   0.437  -0.062  -0.391
    1UNL     H3   35   0.266  -0.345  -0.130
    1UNL     H4   36   0.302  -0.410  -0.282
    1UNL     H5   37   0.108  -0.142  -0.142
    1UNL     H6   38  -0.286  -0.158  -0.160
    1UNL     H7   39  -0.039   0.029  -0.145
    1UNL     H8   40  -0.189   0.059  -0.248
    1UNL     H9   41  -0.363  -0.004  -0.013
    1UNL    H10   42  -0.577   0.264  -0.099
    1UNL    H11   43  -0.441   0.369  -0.075
    1UNL    H12   44  -0.582   0.103   0.212
    1UNL    H13   45  -0.578   0.412   0.156
    1UNL    H14   46  -0.481   0.354   0.303
    1UNL    H15   47  -0.362   0.528   0.192
    1UNL    H16   48  -0.276   0.222   0.161
    1UNL    H17   49  -0.314  -0.016   0.206
    1UNL    H18   50  -0.103  -0.098   0.061
    1UNL    H19   51  -0.352  -0.247   0.081
    1UNL    H20   52  -0.088  -0.349   0.137
    1UNL    H21   53  -0.180  -0.366  -0.142
    1UNL    H22   54   0.108  -0.282   0.044
    1UNL    H23   55   0.021  -0.493  -0.114
    1UNL    H24   56   0.350  -0.170  -0.046
    1UNL    H25   57   0.587  -0.075  -0.179
    1UNL    H26   58   0.268   0.061  -0.132
    1UNL    H27   59   0.433   0.082  -0.175
    1UNL    H28   60   0.373  -0.005   0.118
    1UNL    H29   61   0.512   0.082   0.053
    1UNL    H30   62   0.395   0.295   0.057
    1UNL    H31   63   0.146   0.013   0.077
    1UNL    H32   64   0.202   0.022   0.241
    1UNL    H33   65   0.055   0.102   0.214
    1UNL    H34   66   0.044   0.302   0.191
    1UNL    H35   67   0.139   0.380   0.048
    1UNL    H36   68   0.192   0.404   0.202
   0.00000   0.00000   0.00000   0.00000   0.00000   0.00000   0.00000   0.00000   0.00000
Generated with MDTraj, t= 29.0
 68
    1UNL     C1    1   0.367  -0.169  -0.376
    1UNL     C2    2   0.361  -0.219  -0.253
    1UNL     C3    3   0.260  -0.327  -0.231
    1UNL     O1    4   0.128  -0.295  -0.275
    1UNL     C4    5   0.056  -0.216  -0.172
    1UNL     O2    6  -0.082  -0.184  -0.216
    1UNL     C5    7  -0.157  -0.111  -0.119
    1UNL     C6    8  -0.117   0.038  -0.113
    1UNL     O3    9  -0.170   0.104  -0.002
    1UNL     C7   10  -0.313   0.108  -0.006
    1UNL     O4   11  -0.379   0.183  -0.112
    1UNL     C8   12  -0.478   0.269  -0.051
    1UNL     C9   13  -0.507   0.240   0.094
    1UNL     O5   14  -0.619   0.150   0.113
    1UNL    C10   15  -0.532   0.379   0.171
    1UNL     O6   16  -0.409   0.448   0.185
    1UNL    C11   17  -0.370   0.167   0.132
    1UNL     O7   18  -0.373   0.070   0.234
    1UNL    C12   19  -0.164  -0.171   0.021
    1UNL     O8   20  -0.290  -0.183   0.087
    1UNL    C13   21  -0.097  -0.313   0.021
    1UNL     O9   22  -0.185  -0.402  -0.063
    1UNL    C14   23   0.048  -0.305  -0.037
    1UNL    O10   24   0.100  -0.436  -0.054
    1UNL    C15   25   0.421  -0.142  -0.133
    1UNL    O11   26   0.564  -0.123  -0.139
    1UNL    C16   27   0.352  -0.012  -0.107
    1UNL    C17   28   0.397   0.060   0.015
    1UNL    C18   29   0.322   0.184   0.048
    1UNL    C19   30   0.207   0.206   0.109
    1UNL    C20   31   0.137   0.086   0.155
    1UNL    C21   32   0.148   0.341   0.136
    1UNL     H1   33   0.315  -0.222  -0.458
    1UNL     H2   34   0.420  -0.079  -0.409
    1UNL     H3   35   0.263  -0.384  -0.133
    1UNL     H4   36   0.295  -0.411  -0.297
    1UNL     H5   37   0.111  -0.126  -0.158
    1UNL     H6   38  -0.266  -0.115  -0.145
    1UNL     H7   39  -0.014   0.056  -0.104
    1UNL     H8   40  -0.154   0.096  -0.204
    1UNL     H9   41  -0.352   0.005  -0.019
    1UNL    H10   42  -0.564   0.258  -0.115
    1UNL    H11   43  -0.449   0.376  -0.065
    1UNL    H12   44  -0.609   0.102   0.191
    1UNL    H13   45  -0.612   0.449   0.129
    1UNL    H14   46  -0.565   0.353   0.281
    1UNL    H15   47  -0.414   0.515   0.255
    1UNL    H16   48  -0.298   0.240   0.162
    1UNL    H17   49  -0.337  -0.015   0.202
    1UNL    H18   50  -0.105  -0.102   0.076
    1UNL    H19   51  -0.334  -0.266   0.072
    1UNL    H20   52  -0.098  -0.354   0.131
    1UNL    H21   53  -0.182  -0.364  -0.150
    1UNL    H22   54   0.101  -0.258   0.045
    1UNL    H23   55   0.030  -0.492  -0.091
    1UNL    H24   56   0.421  -0.203  -0.040
    1UNL    H25   57   0.592  -0.062  -0.212
    1UNL    H26   58   0.252  -0.030  -0.101
    1UNL    H27   59   0.376   0.054  -0.187
    1UNL    H28   60   0.401  -0.012   0.100
    1UNL    H29   61   0.510   0.075   0.010
    1UNL    H30   62   0.381   0.272   0.050
    1UNL    H31   63   0.172  -0.003   0.101
    1UNL    H32   64   0.154   0.059   0.258
    1UNL    H33   65   0.028   0.093   0.158
    1UNL    H34   66   0.051   0.334   0.177
    1UNL    H35   67   0.156   0.407   0.051
    1UNL    H36   68   0.204   0.406   0.207
   0.00000   0.00000   0.00000   0.00000   0.00000   0.00000   0.00000   0.00000   0.00000
Generated with MDTraj, t= 30.0
 68
    1UNL     C1    1   0.369  -0.183  -0.394
    1UNL     C2    2   0.354  -0.214  -0.266
    1UNL     C3    3   0.255  -0.328  -0.250
    1UNL     O1    4   0.119  -0.299  -0.259
    1UNL     C4    5   0.057  -0.227  -0.150
    1UNL     O2    6  -0.070  -0.182  -0.201
    1UNL     C5    7  -0.144  -0.102  -0.105
    1UNL     C6    8  -0.108   0.052  -0.103
    1UNL     O3    9  -0.157   0.113   0.019
    1UNL     C7   10  -0.300   0.126   0.007
    1UNL     O4   11  -0.338   0.224  -0.092
    1UNL     C8   12  -0.456   0.289  -0.049
    1UNL     C9   13  -0.496   0.229   0.083
    1UNL     O5   14  -0.600   0.130   0.074
    1UNL    C10   15  -0.544   0.342   0.173
    1UNL     O6   16  -0.452   0.450   0.194
    1UNL    C11   17  -0.371   0.166   0.140
    1UNL     O7   18  -0.394   0.052   0.217
    1UNL    C12   19  -0.161  -0.174   0.033
    1UNL     O8   20  -0.296  -0.183   0.076
    1UNL    C13   21  -0.097  -0.315   0.027
    1UNL     O9   22  -0.180  -0.392  -0.059
    1UNL    C14   23   0.041  -0.312  -0.024
    1UNL    O10   24   0.085  -0.445  -0.031
    1UNL    C15   25   0.411  -0.134  -0.152
    1UNL    O11   26   0.551  -0.132  -0.166
    1UNL    C16   27   0.356   0.003  -0.115
    1UNL    C17   28   0.391   0.061   0.020
    1UNL    C18   29   0.334   0.190   0.057
    1UNL    C19   30   0.212   0.201   0.106
    1UNL    C20   31   0.125   0.090   0.157
    1UNL    C21   32   0.151   0.334   0.103
    1UNL     H1   33   0.331  -0.226  -0.482
    1UNL     H2   34   0.411  -0.088  -0.410
    1UNL     H3   35   0.275  -0.386  -0.155
    1UNL     H4   36   0.271  -0.407  -0.327
    1UNL     H5   37   0.119  -0.132  -0.123
    1UNL     H6   38  -0.250  -0.104  -0.135
    1UNL     H7   39  -0.004   0.057  -0.095
    1UNL     H8   40  -0.133   0.119  -0.190
    1UNL     H9   41  -0.348   0.030  -0.021
    1UNL    H10   42  -0.532   0.275  -0.127
    1UNL    H11   43  -0.436   0.398  -0.049
    1UNL    H12   44  -0.603   0.078   0.161
    1UNL    H13   45  -0.632   0.391   0.124
    1UNL    H14   46  -0.579   0.311   0.281
    1UNL    H15   47  -0.480   0.502   0.272
    1UNL    H16   48  -0.315   0.241   0.192
    1UNL    H17   49  -0.359  -0.036   0.178
    1UNL    H18   50  -0.105  -0.113   0.105
    1UNL    H19   51  -0.332  -0.270   0.041
    1UNL    H20   52  -0.102  -0.369   0.132
    1UNL    H21   53  -0.164  -0.363  -0.156
    1UNL    H22   54   0.094  -0.261   0.060
    1UNL    H23   55   0.011  -0.499  -0.073
    1UNL    H24   56   0.396  -0.201  -0.063
    1UNL    H25   57   0.574  -0.074  -0.237
    1UNL    H26   58   0.247  -0.015  -0.109
    1UNL    H27   59   0.393   0.066  -0.193
    1UNL    H28   60   0.357  -0.006   0.100
    1UNL    H29   61   0.503   0.054   0.039
    1UNL    H30   62   0.397   0.279   0.045
    1UNL    H31   63   0.134   0.005   0.090
    1UNL    H32   64   0.150   0.050   0.253
    1UNL    H33   65   0.019   0.121   0.176
    1UNL    H34   66   0.050   0.332   0.126
    1UNL    H35   67   0.176   0.390   0.014
    1UNL    H36   68   0.191   0.402   0.183
   0.00000   0.00000   0.00000   0.00000   0.00000   0.00000   0.00000   0.00000   0.00000
Generated with MDTraj, t= 31.0
 68
    1UNL     C1    1   0.317  -0.150  -0.366
    1UNL     C2    2   0.335  -0.211  -0.251
    1UNL     C3    3   0.255  -0.333  -0.224
    1UNL     O1    4   0.119  -0.310  -0.257
    1UNL     C4    5   0.049  -0.233  -0.159
    1UNL     O2    6  -0.080  -0.183  -0.194
    1UNL     C5    7  -0.158  -0.101  -0.098
    1UNL     C6    8  -0.096   0.035  -0.081
    1UNL     O3    9  -0.146   0.102   0.033
    1UNL     C7   10  -0.285   0.141   0.012
    1UNL     O4   11  -0.301   0.248  -0.081
    1UNL     C8   12  -0.429   0.302  -0.050
    1UNL     C9   13  -0.484   0.234   0.076
    1UNL     O5   14  -0.574   0.133   0.034
    1UNL    C10   15  -0.561   0.321   0.180
    1UNL     O6   16  -0.487   0.440   0.198
    1UNL    C11   17  -0.363   0.166   0.140
    1UNL     O7   18  -0.405   0.049   0.219
    1UNL    C12   19  -0.168  -0.179   0.030
    1UNL     O8   20  -0.298  -0.188   0.070
    1UNL    C13   21  -0.102  -0.321   0.028
    1UNL     O9   22  -0.178  -0.401  -0.061
    1UNL    C14   23   0.040  -0.305  -0.024
    1UNL    O10   24   0.096  -0.440  -0.037
    1UNL    C15   25   0.408  -0.136  -0.142
    1UNL    O11   26   0.549  -0.154  -0.170
    1UNL    C16   27   0.382   0.010  -0.139
    1UNL    C17   28   0.399   0.068   0.001
    1UNL    C18   29   0.314   0.188   0.021
    1UNL    C19   30   0.201   0.205   0.092
    1UNL    C20   31   0.140   0.088   0.169
    1UNL    C21   32   0.140   0.348   0.110
    1UNL     H1   33   0.251  -0.196  -0.440
    1UNL     H2   34   0.357  -0.051  -0.395
    1UNL     H3   35   0.285  -0.374  -0.123
    1UNL     H4   36   0.288  -0.407  -0.298
    1UNL     H5   37   0.117  -0.134  -0.150
    1UNL     H6   38  -0.259  -0.099  -0.139
    1UNL     H7   39   0.007   0.027  -0.059
    1UNL     H8   40  -0.102   0.089  -0.176
    1UNL     H9   41  -0.341   0.055  -0.032
    1UNL    H10   42  -0.495   0.291  -0.138
    1UNL    H11   43  -0.416   0.409  -0.037
    1UNL    H12   44  -0.604   0.077   0.114
    1UNL    H13   45  -0.662   0.352   0.147
    1UNL    H14   46  -0.574   0.270   0.281
    1UNL    H15   47  -0.515   0.492   0.277
    1UNL    H16   48  -0.316   0.240   0.204
    1UNL    H17   49  -0.365  -0.023   0.171
    1UNL    H18   50  -0.125  -0.125   0.118
    1UNL    H19   51  -0.344  -0.250   0.007
    1UNL    H20   52  -0.102  -0.375   0.133
    1UNL    H21   53  -0.173  -0.358  -0.146
    1UNL    H22   54   0.110  -0.257   0.051
    1UNL    H23   55   0.060  -0.484  -0.116
    1UNL    H24   56   0.392  -0.172  -0.036
    1UNL    H25   57   0.561  -0.128  -0.258
    1UNL    H26   58   0.273   0.024  -0.170
    1UNL    H27   59   0.458   0.053  -0.199
    1UNL    H28   60   0.370  -0.004   0.075
    1UNL    H29   61   0.507   0.096   0.031
    1UNL    H30   62   0.335   0.261  -0.055
    1UNL    H31   63   0.166  -0.001   0.115
    1UNL    H32   64   0.179   0.076   0.268
    1UNL    H33   65   0.030   0.109   0.186
    1UNL    H34   66   0.036   0.343   0.122
    1UNL    H35   67   0.178   0.415   0.034
    1UNL    H36   68   0.172   0.396   0.205
   0.00000   0.00000   0.00000   0.00000   0.00000   0.00000   0.00000   0.00000   0.00000
Generated with MDTraj, t= 32.0
 68
    1UNL     C1    1   0.313  -0.140  -0.380
    1UNL     C2    2   0.315  -0.189  -0.259
    1UNL     C3    3   0.255  -0.329  -0.245
    1UNL     O1    4   0.112  -0.328  -0.245
    1UNL     C4    5   0.057  -0.237  -0.148
    1UNL     O2    6  -0.070  -0.196  -0.193
    1UNL     C5    7  -0.146  -0.108  -0.090
    1UNL     C6    8  -0.077   0.029  -0.063
    1UNL     O3    9  -0.141   0.097   0.045
    1UNL     C7   10  -0.274   0.133   0.012
    1UNL     O4   11  -0.291   0.239  -0.085
    1UNL     C8   12  -0.413   0.310  -0.050
    1UNL     C9   13  -0.479   0.243   0.069
    1UNL     O5   14  -0.565   0.142   0.018
    1UNL    C10   15  -0.561   0.332   0.164
    1UNL     O6   16  -0.477   0.427   0.226
    1UNL    C11   17  -0.357   0.167   0.135
    1UNL     O7   18  -0.412   0.053   0.208
    1UNL    C12   19  -0.178  -0.191   0.036
    1UNL     O8   20  -0.316  -0.203   0.049
    1UNL    C13   21  -0.110  -0.331   0.028
    1UNL     O9   22  -0.182  -0.397  -0.068
    1UNL    C14   23   0.036  -0.314  -0.008
    1UNL    O10   24   0.109  -0.440  -0.011
    1UNL    C15   25   0.380  -0.122  -0.144
    1UNL    O11   26   0.524  -0.142  -0.165
    1UNL    C16   27   0.352   0.023  -0.141
    1UNL    C17   28   0.399   0.088  -0.007
    1UNL    C18   29   0.325   0.209   0.022
    1UNL    C19   30   0.212   0.202   0.096
    1UNL    C20   31   0.166   0.091   0.190
    1UNL    C21   32   0.127   0.325   0.089
    1UNL     H1   33   0.260  -0.180  -0.463
    1UNL     H2   34   0.369  -0.053  -0.399
    1UNL     H3   35   0.271  -0.360  -0.140
    1UNL     H4   36   0.308  -0.403  -0.305
    1UNL     H5   37   0.126  -0.142  -0.144
    1UNL     H6   38  -0.231  -0.084  -0.152
    1UNL     H7   39   0.026   0.010  -0.051
    1UNL     H8   40  -0.084   0.100  -0.145
    1UNL     H9   41  -0.322   0.043  -0.030
    1UNL    H10   42  -0.481   0.308  -0.139
    1UNL    H11   43  -0.390   0.414  -0.035
    1UNL    H12   44  -0.602   0.096   0.090
    1UNL    H13   45  -0.648   0.373   0.116
    1UNL    H14   46  -0.591   0.268   0.250
    1UNL    H15   47  -0.529   0.499   0.272
    1UNL    H16   48  -0.294   0.237   0.192
    1UNL    H17   49  -0.386  -0.029   0.160
    1UNL    H18   50  -0.148  -0.130   0.127
    1UNL    H19   51  -0.353  -0.251  -0.021
    1UNL    H20   52  -0.131  -0.383   0.131
    1UNL    H21   53  -0.155  -0.358  -0.159
    1UNL    H22   54   0.084  -0.250   0.074
    1UNL    H23   55   0.087  -0.478  -0.099
    1UNL    H24   56   0.349  -0.174  -0.049
    1UNL    H25   57   0.559  -0.117  -0.248
    1UNL    H26   58   0.242   0.041  -0.152
    1UNL    H27   59   0.417   0.065  -0.212
    1UNL    H28   60   0.372   0.028   0.076
    1UNL    H29   61   0.515   0.098  -0.002
    1UNL    H30   62   0.318   0.275  -0.065
    1UNL    H31   63   0.176  -0.004   0.141
    1UNL    H32   64   0.227   0.080   0.279
    1UNL    H33   65   0.064   0.109   0.229
    1UNL    H34   66   0.026   0.293   0.069
    1UNL    H35   67   0.172   0.395   0.021
    1UNL    H36   68   0.120   0.373   0.186
   0.00000   0.00000   0.00000   0.00000   0.00000   0.00000   0.00000   0.00000   0.00000
Generated with MDTraj, t= 33.0
 68
    1UNL     C1    1   0.319  -0.157  -0.379
    1UNL     C2    2   0.313  -0.200  -0.255
    1UNL     C3    3   0.251  -0.333  -0.224
    1UNL     O1    4   0.110  -0.323  -0.243
    1UNL     C4    5   0.060  -0.235  -0.149
    1UNL     O2    6  -0.065  -0.181  -0.193
    1UNL     C5    7  -0.151  -0.106  -0.098
    1UNL     C6    8  -0.078   0.028  -0.067
    1UNL     O3    9  -0.143   0.077   0.048
    1UNL     C7   10  -0.276   0.125   0.017
    1UNL     O4   11  -0.276   0.240  -0.067
    1UNL     C8   12  -0.401   0.314  -0.053
    1UNL     C9   13  -0.481   0.236   0.064
    1UNL     O5   14  -0.584   0.154   0.011
    1UNL    C10   15  -0.523   0.340   0.166
    1UNL     O6   16  -0.414   0.415   0.220
    1UNL    C11   17  -0.370   0.150   0.128
    1UNL     O7   18  -0.421   0.030   0.182
    1UNL    C12   19  -0.183  -0.190   0.037
    1UNL     O8   20  -0.325  -0.208   0.046
    1UNL    C13   21  -0.117  -0.327   0.031
    1UNL     O9   22  -0.174  -0.402  -0.074
    1UNL    C14   23   0.036  -0.309  -0.005
    1UNL    O10   24   0.102  -0.436  -0.000
    1UNL    C15   25   0.382  -0.117  -0.144
    1UNL    O11   26   0.524  -0.122  -0.170
    1UNL    C16   27   0.322   0.021  -0.136
    1UNL    C17   28   0.389   0.108  -0.031
    1UNL    C18   29   0.302   0.221   0.014
    1UNL    C19   30   0.199   0.213   0.100
    1UNL    C20   31   0.186   0.096   0.187
    1UNL    C21   32   0.107   0.329   0.124
    1UNL     H1   33   0.285  -0.224  -0.459
    1UNL     H2   34   0.364  -0.063  -0.409
    1UNL     H3   35   0.293  -0.376  -0.130
    1UNL     H4   36   0.276  -0.411  -0.293
    1UNL     H5   37   0.122  -0.147  -0.150
    1UNL     H6   38  -0.246  -0.088  -0.149
    1UNL     H7   39   0.022   0.009  -0.031
    1UNL     H8   40  -0.077   0.092  -0.154
    1UNL     H9   41  -0.328   0.044  -0.037
    1UNL    H10   42  -0.452   0.322  -0.153
    1UNL    H11   43  -0.376   0.414  -0.028
    1UNL    H12   44  -0.634   0.097   0.081
    1UNL    H13   45  -0.580   0.404   0.105
    1UNL    H14   46  -0.589   0.300   0.240
    1UNL    H15   47  -0.446   0.500   0.257
    1UNL    H16   48  -0.317   0.212   0.204
    1UNL    H17   49  -0.397  -0.060   0.143
    1UNL    H18   50  -0.152  -0.131   0.131
    1UNL    H19   51  -0.362  -0.259  -0.031
    1UNL    H20   52  -0.116  -0.387   0.130
    1UNL    H21   53  -0.139  -0.370  -0.157
    1UNL    H22   54   0.092  -0.246   0.070
    1UNL    H23   55   0.038  -0.490  -0.055
    1UNL    H24   56   0.362  -0.166  -0.047
    1UNL    H25   57   0.538  -0.091  -0.262
    1UNL    H26   58   0.214   0.018  -0.105
    1UNL    H27   59   0.331   0.065  -0.229
    1UNL    H28   60   0.412   0.044   0.052
    1UNL    H29   61   0.490   0.154  -0.064
    1UNL    H30   62   0.289   0.288  -0.069
    1UNL    H31   63   0.204   0.002   0.133
    1UNL    H32   64   0.268   0.091   0.258
    1UNL    H33   65   0.094   0.089   0.244
    1UNL    H34   66   0.007   0.301   0.086
    1UNL    H35   67   0.145   0.420   0.082
    1UNL    H36   68   0.084   0.346   0.225
   0.00000   0.00000   0.00000   0.00000   0.00000   0.00000   0.00000   0.00000   0.00000
Generated with MDTraj, t= 34.0
 68
    1UNL     C1    1   0.329  -0.185  -0.382
    1UNL     C2    2   0.339  -0.214  -0.256
    1UNL     C3    3   0.271  -0.325  -0.196
    1UNL     O1    4   0.135  -0.327  -0.229
    1UNL     C4    5   0.062  -0.247  -0.144
    1UNL     O2    6  -0.058  -0.192  -0.199
    1UNL     C5    7  -0.153  -0.124  -0.111
    1UNL     C6    8  -0.087   0.002  -0.060
    1UNL     O3    9  -0.156   0.070   0.041
    1UNL     C7   10  -0.283   0.124   0.002
    1UNL     O4   11  -0.278   0.241  -0.081
    1UNL     C8   12  -0.397   0.315  -0.046
    1UNL     C9   13  -0.472   0.257   0.081
    1UNL     O5   14  -0.598   0.205   0.044
    1UNL    C10   15  -0.497   0.375   0.183
    1UNL     O6   16  -0.380   0.436   0.226
    1UNL    C11   17  -0.377   0.142   0.124
    1UNL     O7   18  -0.446   0.024   0.162
    1UNL    C12   19  -0.192  -0.209   0.015
    1UNL     O8   20  -0.338  -0.221   0.022
    1UNL    C13   21  -0.119  -0.343   0.026
    1UNL     O9   22  -0.169  -0.435  -0.067
    1UNL    C14   23   0.031  -0.318  -0.006
    1UNL    O10   24   0.098  -0.440   0.005
    1UNL    C15   25   0.395  -0.108  -0.162
    1UNL    O11   26   0.536  -0.082  -0.177
    1UNL    C16   27   0.324   0.032  -0.162
    1UNL    C17   28   0.361   0.126  -0.043
    1UNL    C18   29   0.271   0.229   0.006
    1UNL    C19   30   0.183   0.206   0.105
    1UNL    C20   31   0.187   0.094   0.206
    1UNL    C21   32   0.098   0.323   0.145
    1UNL     H1   33   0.278  -0.250  -0.448
    1UNL     H2   34   0.361  -0.089  -0.413
    1UNL     H3   35   0.275  -0.319  -0.086
    1UNL     H4   36   0.325  -0.414  -0.217
    1UNL     H5   37   0.117  -0.167  -0.123
    1UNL     H6   38  -0.248  -0.105  -0.163
    1UNL     H7   39   0.008  -0.030  -0.019
    1UNL     H8   40  -0.069   0.077  -0.136
    1UNL     H9   41  -0.325   0.043  -0.057
    1UNL    H10   42  -0.466   0.315  -0.136
    1UNL    H11   43  -0.372   0.415  -0.029
    1UNL    H12   44  -0.629   0.133   0.101
    1UNL    H13   45  -0.579   0.429   0.146
    1UNL    H14   46  -0.540   0.328   0.268
    1UNL    H15   47  -0.397   0.481   0.311
    1UNL    H16   48  -0.308   0.170   0.208
    1UNL    H17   49  -0.409  -0.051   0.114
    1UNL    H18   50  -0.171  -0.149   0.113
    1UNL    H19   51  -0.373  -0.269  -0.062
    1UNL    H20   52  -0.133  -0.388   0.129
    1UNL    H21   53  -0.168  -0.395  -0.160
    1UNL    H22   54   0.074  -0.261   0.082
    1UNL    H23   55   0.031  -0.505  -0.022
    1UNL    H24   56   0.385  -0.145  -0.059
    1UNL    H25   57   0.552  -0.053  -0.275
    1UNL    H26   58   0.216   0.012  -0.166
    1UNL    H27   59   0.339   0.079  -0.254
    1UNL    H28   60   0.398   0.073   0.043
    1UNL    H29   61   0.458   0.182  -0.075
    1UNL    H30   62   0.263   0.317  -0.059
    1UNL    H31   63   0.235   0.003   0.166
    1UNL    H32   64   0.249   0.127   0.290
    1UNL    H33   65   0.087   0.078   0.238
    1UNL    H34   66  -0.002   0.323   0.094
    1UNL    H35   67   0.140   0.420   0.133
    1UNL    H36   68   0.068   0.315   0.245
   0.00000   0.00000   0.00000   0.00000   0.00000   0.00000   0.00000   0.00000   0.00000
Generated with MDTraj, t= 35.0
 68
    1UNL     C1    1   0.342  -0.185  -0.385
    1UNL     C2    2   0.346  -0.192  -0.253
    1UNL     C3    3   0.298  -0.325  -0.183
    1UNL     O1    4   0.154  -0.331  -0.210
    1UNL     C4    5   0.068  -0.254  -0.122
    1UNL     O2    6  -0.052  -0.206  -0.188
    1UNL     C5    7  -0.149  -0.136  -0.109
    1UNL     C6    8  -0.106   0.005  -0.083
    1UNL     O3    9  -0.168   0.062   0.027
    1UNL     C7   10  -0.297   0.116  -0.011
    1UNL     O4   11  -0.282   0.241  -0.078
    1UNL     C8   12  -0.385   0.332  -0.035
    1UNL     C9   13  -0.460   0.268   0.089
    1UNL     O5   14  -0.593   0.246   0.057
    1UNL    C10   15  -0.459   0.376   0.202
    1UNL     O6   16  -0.329   0.419   0.219
    1UNL    C11   17  -0.380   0.135   0.115
    1UNL     O7   18  -0.460   0.030   0.152
    1UNL    C12   19  -0.199  -0.219   0.009
    1UNL     O8   20  -0.346  -0.232   0.029
    1UNL    C13   21  -0.129  -0.353   0.016
    1UNL     O9   22  -0.173  -0.431  -0.088
    1UNL    C14   23   0.024  -0.333   0.009
    1UNL    O10   24   0.091  -0.455   0.029
    1UNL    C15   25   0.399  -0.088  -0.165
    1UNL    O11   26   0.539  -0.050  -0.194
    1UNL    C16   27   0.312   0.040  -0.150
    1UNL    C17   28   0.362   0.132  -0.043
    1UNL    C18   29   0.258   0.230   0.005
    1UNL    C19   30   0.166   0.208   0.101
    1UNL    C20   31   0.179   0.089   0.189
    1UNL    C21   32   0.042   0.295   0.127
    1UNL     H1   33   0.287  -0.263  -0.436
    1UNL     H2   34   0.386  -0.098  -0.436
    1UNL     H3   35   0.319  -0.334  -0.073
    1UNL     H4   36   0.333  -0.412  -0.232
    1UNL     H5   37   0.121  -0.168  -0.095
    1UNL     H6   38  -0.236  -0.121  -0.177
    1UNL     H7   39   0.003   0.014  -0.061
    1UNL     H8   40  -0.130   0.067  -0.169
    1UNL     H9   41  -0.353   0.046  -0.072
    1UNL    H10   42  -0.464   0.348  -0.116
    1UNL    H11   43  -0.342   0.425  -0.019
    1UNL    H12   44  -0.622   0.155   0.075
    1UNL    H13   45  -0.528   0.452   0.177
    1UNL    H14   46  -0.500   0.329   0.289
    1UNL    H15   47  -0.318   0.459   0.309
    1UNL    H16   48  -0.314   0.153   0.206
    1UNL    H17   49  -0.419  -0.049   0.112
    1UNL    H18   50  -0.153  -0.159   0.098
    1UNL    H19   51  -0.368  -0.279  -0.050
    1UNL    H20   52  -0.168  -0.402   0.108
    1UNL    H21   53  -0.144  -0.397  -0.176
    1UNL    H22   54   0.048  -0.277   0.101
    1UNL    H23   55   0.031  -0.530   0.010
    1UNL    H24   56   0.409  -0.138  -0.069
    1UNL    H25   57   0.547   0.038  -0.253
    1UNL    H26   58   0.206   0.017  -0.125
    1UNL    H27   59   0.293   0.088  -0.244
    1UNL    H28   60   0.406   0.068   0.034
    1UNL    H29   61   0.459   0.180  -0.077
    1UNL    H30   62   0.273   0.331  -0.034
    1UNL    H31   63   0.138   0.005   0.133
    1UNL    H32   64   0.284   0.067   0.216
    1UNL    H33   65   0.118   0.107   0.273
    1UNL    H34   66  -0.045   0.267   0.063
    1UNL    H35   67   0.066   0.395   0.101
    1UNL    H36   68   0.009   0.287   0.227
   0.00000   0.00000   0.00000   0.00000   0.00000   0.00000   0.00000   0.00000   0.00000
Generated with MDTraj, t= 36.0
 68
    1UNL     C1    1   0.306  -0.173  -0.342
    1UNL     C2    2   0.347  -0.193  -0.218
    1UNL     C3    3   0.301  -0.311  -0.147
    1UNL     O1    4   0.166  -0.331  -0.199
    1UNL     C4    5   0.064  -0.260  -0.118
    1UNL     O2    6  -0.058  -0.221  -0.192
    1UNL     C5    7  -0.149  -0.136  -0.116
    1UNL     C6    8  -0.097   0.005  -0.099
    1UNL     O3    9  -0.157   0.059   0.010
    1UNL     C7   10  -0.289   0.116  -0.015
    1UNL     O4   11  -0.263   0.239  -0.076
    1UNL     C8   12  -0.372   0.331  -0.046
    1UNL     C9   13  -0.443   0.275   0.085
    1UNL     O5   14  -0.591   0.265   0.073
    1UNL    C10   15  -0.417   0.368   0.208
    1UNL     O6   16  -0.280   0.376   0.243
    1UNL    C11   17  -0.381   0.137   0.109
    1UNL     O7   18  -0.467   0.032   0.126
    1UNL    C12   19  -0.185  -0.207   0.016
    1UNL     O8   20  -0.331  -0.216   0.031
    1UNL    C13   21  -0.126  -0.355   0.021
    1UNL     O9   22  -0.185  -0.429  -0.087
    1UNL    C14   23   0.031  -0.339   0.007
    1UNL    O10   24   0.097  -0.463  -0.001
    1UNL    C15   25   0.407  -0.077  -0.149
    1UNL    O11   26   0.522  -0.039  -0.222
    1UNL    C16   27   0.310   0.041  -0.125
    1UNL    C17   28   0.345   0.160  -0.035
    1UNL    C18   29   0.215   0.237  -0.014
    1UNL    C19   30   0.129   0.202   0.085
    1UNL    C20   31   0.147   0.084   0.166
    1UNL    C21   32   0.001   0.272   0.104
    1UNL     H1   33   0.247  -0.257  -0.372
    1UNL     H2   34   0.338  -0.096  -0.408
    1UNL     H3   35   0.289  -0.294  -0.035
    1UNL     H4   36   0.361  -0.397  -0.172
    1UNL     H5   37   0.110  -0.158  -0.102
    1UNL     H6   38  -0.243  -0.141  -0.176
    1UNL     H7   39   0.015   0.006  -0.074
    1UNL     H8   40  -0.118   0.073  -0.181
    1UNL     H9   41  -0.344   0.055  -0.085
    1UNL    H10   42  -0.446   0.341  -0.134
    1UNL    H11   43  -0.338   0.428  -0.030
    1UNL    H12   44  -0.620   0.170   0.102
    1UNL    H13   45  -0.444   0.463   0.167
    1UNL    H14   46  -0.475   0.345   0.299
    1UNL    H15   47  -0.260   0.461   0.292
    1UNL    H16   48  -0.314   0.144   0.201
    1UNL    H17   49  -0.427  -0.061   0.111
    1UNL    H18   50  -0.157  -0.145   0.108
    1UNL    H19   51  -0.376  -0.276  -0.034
    1UNL    H20   52  -0.146  -0.410   0.113
    1UNL    H21   53  -0.137  -0.404  -0.169
    1UNL    H22   54   0.079  -0.287   0.089
    1UNL    H23   55   0.056  -0.523  -0.069
    1UNL    H24   56   0.446  -0.107  -0.053
    1UNL    H25   57   0.596  -0.113  -0.220
    1UNL    H26   58   0.224  -0.007  -0.070
    1UNL    H27   59   0.255   0.082  -0.210
    1UNL    H28   60   0.398   0.129   0.058
    1UNL    H29   61   0.426   0.216  -0.089
    1UNL    H30   62   0.220   0.341  -0.042
    1UNL    H31   63   0.086   0.007   0.120
    1UNL    H32   64   0.246   0.038   0.172
    1UNL    H33   65   0.107   0.093   0.266
    1UNL    H34   66  -0.080   0.226   0.055
    1UNL    H35   67   0.013   0.368   0.058
    1UNL    H36   68  -0.025   0.276   0.211
   0.00000   0.00000   0.00000   0.00000   0.00000   0.00000   0.00000   0.00000   0.00000
Generated with MDTraj, t= 37.0
 68
    1UNL     C1    1   0.349  -0.164  -0.364
    1UNL     C2    2   0.343  -0.172  -0.233
    1UNL     C3    3   0.302  -0.297  -0.164
    1UNL     O1    4   0.168  -0.336  -0.186
    1UNL     C4    5   0.061  -0.275  -0.114
    1UNL     O2    6  -0.059  -0.260  -0.194
    1UNL     C5    7  -0.156  -0.166  -0.121
    1UNL     C6    8  -0.104  -0.016  -0.120
    1UNL     O3    9  -0.147   0.058  -0.008
    1UNL     C7   10  -0.271   0.128  -0.037
    1UNL     O4   11  -0.255   0.257  -0.093
    1UNL     C8   12  -0.360   0.340  -0.033
    1UNL     C9   13  -0.422   0.275   0.091
    1UNL     O5   14  -0.567   0.271   0.091
    1UNL    C10   15  -0.383   0.354   0.217
    1UNL     O6   16  -0.244   0.353   0.249
    1UNL    C11   17  -0.363   0.128   0.091
    1UNL     O7   18  -0.465   0.028   0.111
    1UNL    C12   19  -0.198  -0.219   0.017
    1UNL     O8   20  -0.338  -0.215   0.018
    1UNL    C13   21  -0.138  -0.363   0.034
    1UNL     O9   22  -0.200  -0.451  -0.058
    1UNL    C14   23   0.027  -0.353   0.023
    1UNL    O10   24   0.079  -0.489   0.015
    1UNL    C15   25   0.384  -0.060  -0.140
    1UNL    O11   26   0.494   0.013  -0.196
    1UNL    C16   27   0.275   0.044  -0.119
    1UNL    C17   28   0.325   0.149  -0.026
    1UNL    C18   29   0.213   0.251  -0.006
    1UNL    C19   30   0.120   0.223   0.088
    1UNL    C20   31   0.111   0.093   0.158
    1UNL    C21   32   0.010   0.320   0.094
    1UNL     H1   33   0.322  -0.246  -0.433
    1UNL     H2   34   0.378  -0.067  -0.398
    1UNL     H3   35   0.301  -0.292  -0.049
    1UNL     H4   36   0.354  -0.383  -0.207
    1UNL     H5   37   0.094  -0.170  -0.077
    1UNL     H6   38  -0.240  -0.168  -0.196
    1UNL     H7   39   0.010  -0.013  -0.106
    1UNL     H8   40  -0.135   0.049  -0.204
    1UNL     H9   41  -0.327   0.075  -0.113
    1UNL    H10   42  -0.445   0.362  -0.109
    1UNL    H11   43  -0.320   0.433  -0.011
    1UNL    H12   44  -0.595   0.184   0.106
    1UNL    H13   45  -0.411   0.460   0.220
    1UNL    H14   46  -0.425   0.292   0.302
    1UNL    H15   47  -0.226   0.428   0.310
    1UNL    H16   48  -0.290   0.121   0.178
    1UNL    H17   49  -0.429  -0.061   0.089
    1UNL    H18   50  -0.154  -0.150   0.096
    1UNL    H19   51  -0.377  -0.290  -0.040
    1UNL    H20   52  -0.156  -0.405   0.131
    1UNL    H21   53  -0.186  -0.411  -0.147
    1UNL    H22   54   0.067  -0.303   0.109
    1UNL    H23   55   0.070  -0.511  -0.080
    1UNL    H24   56   0.421  -0.108  -0.048
    1UNL    H25   57   0.547  -0.054  -0.246
    1UNL    H26   58   0.195  -0.011  -0.073
    1UNL    H27   59   0.230   0.079  -0.217
    1UNL    H28   60   0.371   0.106   0.069
    1UNL    H29   61   0.403   0.206  -0.080
    1UNL    H30   62   0.241   0.353  -0.028
    1UNL    H31   63   0.028   0.041   0.115
    1UNL    H32   64   0.196   0.030   0.145
    1UNL    H33   65   0.089   0.108   0.266
    1UNL    H34   66  -0.025   0.352   0.002
    1UNL    H35   67   0.040   0.411   0.142
    1UNL    H36   68  -0.079   0.273   0.142
   0.00000   0.00000   0.00000   0.00000   0.00000   0.00000   0.00000   0.00000   0.00000
Generated with MDTraj, t= 38.0
 68
    1UNL     C1    1   0.322  -0.175  -0.335
    1UNL     C2    2   0.331  -0.183  -0.204
    1UNL     C3    3   0.287  -0.306  -0.135
    1UNL     O1    4   0.161  -0.345  -0.200
    1UNL     C4    5   0.052  -0.281  -0.138
    1UNL     O2    6  -0.068  -0.267  -0.211
    1UNL     C5    7  -0.165  -0.188  -0.145
    1UNL     C6    8  -0.124  -0.036  -0.161
    1UNL     O3    9  -0.158   0.041  -0.037
    1UNL     C7   10  -0.275   0.124  -0.046
    1UNL     O4   11  -0.242   0.257  -0.081
    1UNL     C8   12  -0.332   0.348  -0.017
    1UNL     C9   13  -0.399   0.272   0.101
    1UNL     O5   14  -0.538   0.269   0.082
    1UNL    C10   15  -0.373   0.334   0.238
    1UNL     O6   16  -0.232   0.358   0.257
    1UNL    C11   17  -0.344   0.125   0.089
    1UNL     O7   18  -0.442   0.025   0.108
    1UNL    C12   19  -0.189  -0.221   0.008
    1UNL     O8   20  -0.328  -0.227   0.029
    1UNL    C13   21  -0.123  -0.356   0.029
    1UNL     O9   22  -0.176  -0.458  -0.054
    1UNL    C14   23   0.032  -0.344   0.006
    1UNL    O10   24   0.078  -0.478   0.001
    1UNL    C15   25   0.387  -0.058  -0.127
    1UNL    O11   26   0.493   0.002  -0.214
    1UNL    C16   27   0.268   0.038  -0.092
    1UNL    C17   28   0.313   0.155  -0.009
    1UNL    C18   29   0.197   0.259   0.000
    1UNL    C19   30   0.099   0.261   0.092
    1UNL    C20   31   0.070   0.136   0.171
    1UNL    C21   32   0.004   0.375   0.085
    1UNL     H1   33   0.282  -0.259  -0.388
    1UNL     H2   34   0.322  -0.078  -0.381
    1UNL     H3   35   0.258  -0.288  -0.026
    1UNL     H4   36   0.356  -0.390  -0.154
    1UNL     H5   37   0.088  -0.172  -0.123
    1UNL     H6   38  -0.265  -0.195  -0.193
    1UNL     H7   39  -0.012  -0.013  -0.157
    1UNL     H8   40  -0.173   0.019  -0.245
    1UNL     H9   41  -0.346   0.089  -0.121
    1UNL    H10   42  -0.405   0.374  -0.102
    1UNL    H11   43  -0.290   0.437   0.016
    1UNL    H12   44  -0.568   0.171   0.068
    1UNL    H13   45  -0.424   0.434   0.244
    1UNL    H14   46  -0.404   0.266   0.325
    1UNL    H15   47  -0.214   0.357   0.352
    1UNL    H16   48  -0.266   0.110   0.169
    1UNL    H17   49  -0.397  -0.056   0.081
    1UNL    H18   50  -0.152  -0.137   0.074
    1UNL    H19   51  -0.360  -0.312   0.008
    1UNL    H20   52  -0.148  -0.387   0.127
    1UNL    H21   53  -0.143  -0.446  -0.146
    1UNL    H22   54   0.082  -0.286   0.080
    1UNL    H23   55   0.004  -0.533  -0.029
    1UNL    H24   56   0.432  -0.072  -0.026
    1UNL    H25   57   0.537  -0.059  -0.267
    1UNL    H26   58   0.190  -0.008  -0.044
    1UNL    H27   59   0.227   0.080  -0.191
    1UNL    H28   60   0.346   0.121   0.096
    1UNL    H29   61   0.396   0.198  -0.064
    1UNL    H30   62   0.219   0.345  -0.061
    1UNL    H31   63  -0.017   0.090   0.131
    1UNL    H32   64   0.152   0.067   0.167
    1UNL    H33   65   0.047   0.174   0.274
    1UNL    H34   66   0.046   0.462   0.044
    1UNL    H35   67  -0.029   0.409   0.182
    1UNL    H36   68  -0.079   0.343   0.021
   0.00000   0.00000   0.00000   0.00000   0.00000   0.00000   0.00000   0.00000   0.00000
Generated with MDTraj, t= 39.0
 68
    1UNL     C1    1   0.304  -0.137  -0.344
    1UNL     C2    2   0.319  -0.164  -0.218
    1UNL     C3    3   0.290  -0.306  -0.175
    1UNL     O1    4   0.154  -0.362  -0.208
    1UNL     C4    5   0.049  -0.293  -0.136
    1UNL     O2    6  -0.069  -0.268  -0.212
    1UNL     C5    7  -0.171  -0.193  -0.148
    1UNL     C6    8  -0.147  -0.044  -0.182
    1UNL     O3    9  -0.158   0.032  -0.057
    1UNL     C7   10  -0.261   0.125  -0.047
    1UNL     O4   11  -0.232   0.263  -0.079
    1UNL     C8   12  -0.325   0.347  -0.011
    1UNL     C9   13  -0.391   0.266   0.103
    1UNL     O5   14  -0.526   0.245   0.070
    1UNL    C10   15  -0.374   0.339   0.241
    1UNL     O6   16  -0.236   0.338   0.288
    1UNL    C11   17  -0.317   0.132   0.100
    1UNL     O7   18  -0.408   0.031   0.113
    1UNL    C12   19  -0.201  -0.228  -0.001
    1UNL     O8   20  -0.342  -0.242   0.027
    1UNL    C13   21  -0.130  -0.362   0.028
    1UNL     O9   22  -0.176  -0.468  -0.049
    1UNL    C14   23   0.020  -0.342   0.011
    1UNL    O10   24   0.082  -0.466   0.027
    1UNL    C15   25   0.366  -0.070  -0.117
    1UNL    O11   26   0.474   0.003  -0.162
    1UNL    C16   27   0.254   0.027  -0.074
    1UNL    C17   28   0.310   0.149   0.009
    1UNL    C18   29   0.221   0.273   0.007
    1UNL    C19   30   0.107   0.279   0.072
    1UNL    C20   31   0.062   0.175   0.162
    1UNL    C21   32   0.023   0.399   0.036
    1UNL     H1   33   0.263  -0.210  -0.408
    1UNL     H2   34   0.354  -0.046  -0.378
    1UNL     H3   35   0.298  -0.319  -0.061
    1UNL     H4   36   0.350  -0.377  -0.233
    1UNL     H5   37   0.098  -0.189  -0.129
    1UNL     H6   38  -0.253  -0.235  -0.208
    1UNL     H7   39  -0.039  -0.035  -0.221
    1UNL     H8   40  -0.228  -0.000  -0.246
    1UNL     H9   41  -0.342   0.091  -0.113
    1UNL    H10   42  -0.406   0.372  -0.089
    1UNL    H11   43  -0.283   0.438   0.021
    1UNL    H12   44  -0.558   0.156   0.096
    1UNL    H13   45  -0.396   0.450   0.232
    1UNL    H14   46  -0.444   0.291   0.320
    1UNL    H15   47  -0.232   0.330   0.387
    1UNL    H16   48  -0.231   0.129   0.171
    1UNL    H17   49  -0.378  -0.064   0.091
    1UNL    H18   50  -0.158  -0.155   0.073
    1UNL    H19   51  -0.362  -0.332   0.006
    1UNL    H20   52  -0.145  -0.393   0.127
    1UNL    H21   53  -0.122  -0.476  -0.134
    1UNL    H22   54   0.067  -0.277   0.083
    1UNL    H23   55   0.167  -0.471  -0.026
    1UNL    H24   56   0.394  -0.124  -0.022
    1UNL    H25   57   0.518  -0.048  -0.224
    1UNL    H26   58   0.181  -0.030  -0.020
    1UNL    H27   59   0.204   0.073  -0.166
    1UNL    H28   60   0.327   0.101   0.113
    1UNL    H29   61   0.411   0.164  -0.024
    1UNL    H30   62   0.241   0.344  -0.072
    1UNL    H31   63   0.031   0.080   0.120
    1UNL    H32   64   0.136   0.154   0.236
    1UNL    H33   65  -0.025   0.219   0.214
    1UNL    H34   66   0.052   0.484   0.099
    1UNL    H35   67  -0.079   0.385   0.060
    1UNL    H36   68   0.036   0.416  -0.068
   0.00000   0.00000   0.00000   0.00000   0.00000   0.00000   0.00000   0.00000   0.00000
Generated with MDTraj, t= 40.0
 68
    1UNL     C1    1   0.266  -0.120  -0.326
    1UNL     C2    2   0.306  -0.168  -0.212
    1UNL     C3    3   0.272  -0.309  -0.171
    1UNL     O1    4   0.146  -0.345  -0.224
    1UNL     C4    5   0.046  -0.286  -0.151
    1UNL     O2    6  -0.082  -0.274  -0.227
    1UNL     C5    7  -0.172  -0.180  -0.158
    1UNL     C6    8  -0.125  -0.038  -0.161
    1UNL     O3    9  -0.138   0.036  -0.042
    1UNL     C7   10  -0.259   0.111  -0.042
    1UNL     O4   11  -0.246   0.251  -0.095
    1UNL     C8   12  -0.317   0.336  -0.007
    1UNL     C9   13  -0.386   0.255   0.102
    1UNL     O5   14  -0.525   0.233   0.070
    1UNL    C10   15  -0.362   0.329   0.240
    1UNL     O6   16  -0.227   0.327   0.272
    1UNL    C11   17  -0.319   0.116   0.106
    1UNL     O7   18  -0.417   0.011   0.131
    1UNL    C12   19  -0.201  -0.224  -0.011
    1UNL     O8   20  -0.342  -0.249   0.019
    1UNL    C13   21  -0.116  -0.353   0.030
    1UNL     O9   22  -0.174  -0.468  -0.027
    1UNL    C14   23   0.033  -0.343  -0.003
    1UNL    O10   24   0.089  -0.468   0.023
    1UNL    C15   25   0.355  -0.076  -0.106
    1UNL    O11   26   0.481  -0.019  -0.131
    1UNL    C16   27   0.255   0.047  -0.081
    1UNL    C17   28   0.311   0.143   0.020
    1UNL    C18   29   0.237   0.275   0.012
    1UNL    C19   30   0.115   0.300   0.059
    1UNL    C20   31   0.033   0.206   0.140
    1UNL    C21   32   0.051   0.430   0.020
    1UNL     H1   33   0.216  -0.191  -0.393
    1UNL     H2   34   0.285  -0.017  -0.350
    1UNL     H3   35   0.256  -0.334  -0.060
    1UNL     H4   36   0.338  -0.378  -0.223
    1UNL     H5   37   0.078  -0.176  -0.140
    1UNL     H6   38  -0.259  -0.197  -0.222
    1UNL     H7   39  -0.012  -0.031  -0.178
    1UNL     H8   40  -0.186   0.014  -0.237
    1UNL     H9   41  -0.337   0.059  -0.103
    1UNL    H10   42  -0.398   0.390  -0.067
    1UNL    H11   43  -0.249   0.406   0.035
    1UNL    H12   44  -0.547   0.148   0.112
    1UNL    H13   45  -0.408   0.433   0.235
    1UNL    H14   46  -0.409   0.264   0.323
    1UNL    H15   47  -0.207   0.383   0.351
    1UNL    H16   48  -0.245   0.119   0.188
    1UNL    H17   49  -0.404  -0.076   0.090
    1UNL    H18   50  -0.177  -0.140   0.059
    1UNL    H19   51  -0.362  -0.342  -0.019
    1UNL    H20   52  -0.138  -0.368   0.132
    1UNL    H21   53  -0.168  -0.469  -0.122
    1UNL    H22   54   0.081  -0.275   0.068
    1UNL    H23   55   0.039  -0.535  -0.025
    1UNL    H24   56   0.368  -0.122  -0.004
    1UNL    H25   57   0.535  -0.094  -0.167
    1UNL    H26   58   0.156   0.001  -0.043
    1UNL    H27   59   0.232   0.087  -0.182
    1UNL    H28   60   0.310   0.087   0.123
    1UNL    H29   61   0.418   0.150   0.009
    1UNL    H30   62   0.259   0.323  -0.083
    1UNL    H31   63  -0.036   0.134   0.096
    1UNL    H32   64   0.092   0.151   0.212
    1UNL    H33   65  -0.029   0.272   0.199
    1UNL    H34   66   0.017   0.484   0.111
    1UNL    H35   67  -0.042   0.418  -0.030
    1UNL    H36   68   0.109   0.488  -0.044
   0.00000   0.00000   0.00000   0.00000   0.00000   0.00000   0.00000   0.00000   0.00000
Generated with MDTraj, t= 41.0
 68
    1UNL     C1    1   0.291  -0.125  -0.329
    1UNL     C2    2   0.291  -0.170  -0.204
    1UNL     C3    3   0.275  -0.311  -0.184
    1UNL     O1    4   0.145  -0.344  -0.231
    1UNL     C4    5   0.040  -0.285  -0.149
    1UNL     O2    6  -0.086  -0.275  -0.220
    1UNL     C5    7  -0.174  -0.178  -0.158
    1UNL     C6    8  -0.126  -0.035  -0.164
    1UNL     O3    9  -0.144   0.037  -0.043
    1UNL     C7   10  -0.274   0.089  -0.039
    1UNL     O4   11  -0.290   0.220  -0.101
    1UNL     C8   12  -0.322   0.320  -0.012
    1UNL     C9   13  -0.389   0.244   0.110
    1UNL     O5   14  -0.531   0.235   0.090
    1UNL    C10   15  -0.354   0.310   0.250
    1UNL     O6   16  -0.223   0.350   0.264
    1UNL    C11   17  -0.333   0.104   0.104
    1UNL     O7   18  -0.438   0.009   0.131
    1UNL    C12   19  -0.197  -0.221  -0.006
    1UNL     O8   20  -0.331  -0.239   0.032
    1UNL    C13   21  -0.123  -0.356   0.027
    1UNL     O9   22  -0.177  -0.463  -0.050
    1UNL    C14   23   0.034  -0.342  -0.001
    1UNL    O10   24   0.102  -0.463   0.016
    1UNL    C15   25   0.341  -0.085  -0.092
    1UNL    O11   26   0.483  -0.051  -0.110
    1UNL    C16   27   0.257   0.049  -0.079
    1UNL    C17   28   0.321   0.149   0.022
    1UNL    C18   29   0.261   0.291   0.018
    1UNL    C19   30   0.136   0.323   0.048
    1UNL    C20   31   0.024   0.232   0.109
    1UNL    C21   32   0.089   0.465   0.028
    1UNL     H1   33   0.287  -0.192  -0.413
    1UNL     H2   34   0.285  -0.022  -0.351
    1UNL     H3   35   0.268  -0.337  -0.075
    1UNL     H4   36   0.335  -0.383  -0.238
    1UNL     H5   37   0.077  -0.182  -0.141
    1UNL     H6   38  -0.270  -0.175  -0.210
    1UNL     H7   39  -0.016  -0.023  -0.164
    1UNL     H8   40  -0.163   0.027  -0.245
    1UNL     H9   41  -0.337   0.015  -0.095
    1UNL    H10   42  -0.397   0.387  -0.063
    1UNL    H11   43  -0.228   0.371   0.009
    1UNL    H12   44  -0.562   0.140   0.117
    1UNL    H13   45  -0.416   0.402   0.247
    1UNL    H14   46  -0.395   0.243   0.330
    1UNL    H15   47  -0.216   0.419   0.332
    1UNL    H16   48  -0.255   0.099   0.180
    1UNL    H17   49  -0.396  -0.076   0.098
    1UNL    H18   50  -0.156  -0.138   0.057
    1UNL    H19   51  -0.352  -0.326   0.000
    1UNL    H20   52  -0.136  -0.385   0.129
    1UNL    H21   53  -0.153  -0.448  -0.148
    1UNL    H22   54   0.089  -0.286   0.080
    1UNL    H23   55   0.082  -0.526  -0.054
    1UNL    H24   56   0.342  -0.139   0.005
    1UNL    H25   57   0.546  -0.128  -0.141
    1UNL    H26   58   0.143   0.019  -0.066
    1UNL    H27   59   0.272   0.097  -0.179
    1UNL    H28   60   0.318   0.102   0.126
    1UNL    H29   61   0.426   0.145  -0.006
    1UNL    H30   62   0.322   0.355  -0.045
    1UNL    H31   63  -0.044   0.181   0.038
    1UNL    H32   64   0.069   0.153   0.170
    1UNL    H33   65  -0.032   0.299   0.169
    1UNL    H34   66  -0.020   0.458   0.043
    1UNL    H35   67   0.098   0.511  -0.068
    1UNL    H36   68   0.136   0.531   0.094
   0.00000   0.00000   0.00000   0.00000   0.00000   0.00000   0.00000   0.00000   0.00000
Generated with MDTraj, t= 42.0
 68
    1UNL     C1    1   0.328  -0.127  -0.336
    1UNL     C2    2   0.313  -0.171  -0.209
    1UNL     C3    3   0.290  -0.313  -0.181
    1UNL     O1    4   0.150  -0.340  -0.219
    1UNL     C4    5   0.049  -0.270  -0.139
    1UNL     O2    6  -0.074  -0.267  -0.215
    1UNL     C5    7  -0.182  -0.191  -0.153
    1UNL     C6    8  -0.153  -0.035  -0.174
    1UNL     O3    9  -0.181   0.032  -0.043
    1UNL     C7   10  -0.311   0.081  -0.035
    1UNL     O4   11  -0.335   0.204  -0.108
    1UNL     C8   12  -0.360   0.311  -0.017
    1UNL     C9   13  -0.410   0.255   0.116
    1UNL     O5   14  -0.554   0.247   0.115
    1UNL    C10   15  -0.352   0.331   0.246
    1UNL     O6   16  -0.211   0.333   0.250
    1UNL    C11   17  -0.344   0.117   0.113
    1UNL     O7   18  -0.436   0.023   0.162
    1UNL    C12   19  -0.202  -0.230  -0.001
    1UNL     O8   20  -0.340  -0.253   0.027
    1UNL    C13   21  -0.123  -0.363   0.020
    1UNL     O9   22  -0.175  -0.462  -0.063
    1UNL    C14   23   0.038  -0.348  -0.003
    1UNL    O10   24   0.104  -0.468  -0.006
    1UNL    C15   25   0.346  -0.080  -0.091
    1UNL    O11   26   0.487  -0.059  -0.084
    1UNL    C16   27   0.276   0.055  -0.101
    1UNL    C17   28   0.321   0.142   0.023
    1UNL    C18   29   0.285   0.289   0.023
    1UNL    C19   30   0.162   0.328   0.041
    1UNL    C20   31   0.043   0.243   0.070
    1UNL    C21   32   0.136   0.479   0.042
    1UNL     H1   33   0.314  -0.191  -0.422
    1UNL     H2   34   0.383  -0.036  -0.364
    1UNL     H3   35   0.301  -0.358  -0.079
    1UNL     H4   36   0.347  -0.375  -0.244
    1UNL     H5   37   0.077  -0.169  -0.127
    1UNL     H6   38  -0.271  -0.222  -0.211
    1UNL     H7   39  -0.052  -0.018  -0.213
    1UNL     H8   40  -0.225   0.017  -0.233
    1UNL     H9   41  -0.379  -0.004  -0.066
    1UNL    H10   42  -0.443   0.367  -0.063
    1UNL    H11   43  -0.265   0.367  -0.013
    1UNL    H12   44  -0.572   0.159   0.093
    1UNL    H13   45  -0.407   0.425   0.244
    1UNL    H14   46  -0.389   0.279   0.333
    1UNL    H15   47  -0.181   0.400   0.315
    1UNL    H16   48  -0.254   0.117   0.173
    1UNL    H17   49  -0.404  -0.069   0.135
    1UNL    H18   50  -0.174  -0.147   0.069
    1UNL    H19   51  -0.360  -0.345   0.014
    1UNL    H20   52  -0.143  -0.390   0.124
    1UNL    H21   53  -0.141  -0.443  -0.149
    1UNL    H22   54   0.074  -0.291   0.089
    1UNL    H23   55   0.126  -0.484  -0.103
    1UNL    H24   56   0.323  -0.137   0.001
    1UNL    H25   57   0.530  -0.155  -0.092
    1UNL    H26   58   0.161   0.041  -0.100
    1UNL    H27   59   0.302   0.096  -0.201
    1UNL    H28   60   0.257   0.094   0.099
    1UNL    H29   61   0.427   0.121   0.043
    1UNL    H30   62   0.369   0.357   0.004
    1UNL    H31   63  -0.010   0.210  -0.020
    1UNL    H32   64   0.077   0.150   0.117
    1UNL    H33   65  -0.022   0.300   0.134
    1UNL    H34   66   0.061   0.499  -0.032
    1UNL    H35   67   0.218   0.548   0.032
    1UNL    H36   68   0.101   0.500   0.141
   0.00000   0.00000   0.00000   0.00000   0.00000   0.00000   0.00000   0.00000   0.00000
Generated with MDTraj, t= 43.0
 68
    1UNL     C1    1   0.358  -0.131  -0.316
    1UNL     C2    2   0.337  -0.179  -0.195
    1UNL     C3    3   0.268  -0.306  -0.175
    1UNL     O1    4   0.135  -0.317  -0.241
    1UNL     C4    5   0.030  -0.266  -0.160
    1UNL     O2    6  -0.097  -0.257  -0.224
    1UNL     C5    7  -0.192  -0.180  -0.148
    1UNL     C6    8  -0.150  -0.028  -0.162
    1UNL     O3    9  -0.179   0.045  -0.041
    1UNL     C7   10  -0.315   0.070  -0.024
    1UNL     O4   11  -0.381   0.171  -0.109
    1UNL     C8   12  -0.393   0.291  -0.028
    1UNL     C9   13  -0.414   0.245   0.117
    1UNL     O5   14  -0.553   0.241   0.140
    1UNL    C10   15  -0.350   0.337   0.225
    1UNL     O6   16  -0.206   0.331   0.219
    1UNL    C11   17  -0.353   0.104   0.125
    1UNL     O7   18  -0.446   0.005   0.180
    1UNL    C12   19  -0.202  -0.227  -0.001
    1UNL     O8   20  -0.333  -0.235   0.043
    1UNL    C13   21  -0.125  -0.352   0.020
    1UNL     O9   22  -0.175  -0.455  -0.059
    1UNL    C14   23   0.027  -0.341  -0.018
    1UNL    O10   24   0.092  -0.464  -0.020
    1UNL    C15   25   0.384  -0.082  -0.091
    1UNL    O11   26   0.522  -0.077  -0.073
    1UNL    C16   27   0.330   0.065  -0.095
    1UNL    C17   28   0.322   0.134   0.043
    1UNL    C18   29   0.283   0.281   0.029
    1UNL    C19   30   0.165   0.339   0.032
    1UNL    C20   31   0.054   0.239   0.034
    1UNL    C21   32   0.152   0.488   0.036
    1UNL     H1   33   0.324  -0.164  -0.411
    1UNL     H2   34   0.423  -0.047  -0.325
    1UNL     H3   35   0.261  -0.327  -0.067
    1UNL     H4   36   0.322  -0.389  -0.215
    1UNL     H5   37   0.056  -0.168  -0.144
    1UNL     H6   38  -0.288  -0.203  -0.199
    1UNL     H7   39  -0.041  -0.012  -0.165
    1UNL     H8   40  -0.198   0.002  -0.253
    1UNL     H9   41  -0.365  -0.027  -0.046
    1UNL    H10   42  -0.478   0.347  -0.067
    1UNL    H11   43  -0.297   0.346  -0.040
    1UNL    H12   44  -0.572   0.154   0.196
    1UNL    H13   45  -0.389   0.437   0.220
    1UNL    H14   46  -0.385   0.292   0.314
    1UNL    H15   47  -0.173   0.390   0.293
    1UNL    H16   48  -0.261   0.106   0.179
    1UNL    H17   49  -0.438  -0.081   0.140
    1UNL    H18   50  -0.147  -0.151   0.059
    1UNL    H19   51  -0.363  -0.332   0.047
    1UNL    H20   52  -0.132  -0.398   0.122
    1UNL    H21   53  -0.181  -0.438  -0.159
    1UNL    H22   54   0.088  -0.277   0.052
    1UNL    H23   55   0.043  -0.514  -0.086
    1UNL    H24   56   0.343  -0.122   0.001
    1UNL    H25   57   0.549  -0.172  -0.054
    1UNL    H26   58   0.237   0.061  -0.156
    1UNL    H27   59   0.395   0.128  -0.164
    1UNL    H28   60   0.251   0.086   0.101
    1UNL    H29   61   0.421   0.126   0.090
    1UNL    H30   62   0.371   0.342   0.040
    1UNL    H31   63   0.044   0.188  -0.060
    1UNL    H32   64   0.055   0.160   0.111
    1UNL    H33   65  -0.041   0.291   0.044
    1UNL    H34   66   0.164   0.534  -0.057
    1UNL    H35   67   0.208   0.532   0.119
    1UNL    H36   68   0.053   0.505   0.078
   0.00000   0.00000   0.00000   0.00000   0.00000   0.00000   0.00000   0.00000   0.00000
Generated with MDTraj, t= 44.0
 68
    1UNL     C1    1   0.374  -0.128  -0.329
    1UNL     C2    2   0.339  -0.166  -0.203
    1UNL     C3    3   0.269  -0.304  -0.190
    1UNL     O1    4   0.141  -0.298  -0.238
    1UNL     C4    5   0.046  -0.244  -0.148
    1UNL     O2    6  -0.080  -0.228  -0.218
    1UNL     C5    7  -0.185  -0.159  -0.147
    1UNL     C6    8  -0.168  -0.004  -0.159
    1UNL     O3    9  -0.195   0.055  -0.035
    1UNL     C7   10  -0.329   0.061  -0.011
    1UNL     O4   11  -0.397   0.151  -0.096
    1UNL     C8   12  -0.409   0.269  -0.022
    1UNL     C9   13  -0.421   0.232   0.128
    1UNL     O5   14  -0.561   0.226   0.163
    1UNL    C10   15  -0.343   0.339   0.211
    1UNL     O6   16  -0.212   0.347   0.159
    1UNL    C11   17  -0.352   0.094   0.137
    1UNL     O7   18  -0.435  -0.006   0.193
    1UNL    C12   19  -0.190  -0.205   0.002
    1UNL     O8   20  -0.329  -0.226   0.039
    1UNL    C13   21  -0.119  -0.346   0.020
    1UNL     O9   22  -0.182  -0.438  -0.061
    1UNL    C14   23   0.029  -0.333  -0.019
    1UNL    O10   24   0.076  -0.457  -0.037
    1UNL    C15   25   0.380  -0.090  -0.075
    1UNL    O11   26   0.522  -0.097  -0.045
    1UNL    C16   27   0.329   0.058  -0.085
    1UNL    C17   28   0.325   0.120   0.049
    1UNL    C18   29   0.294   0.267   0.046
    1UNL    C19   30   0.172   0.313   0.028
    1UNL    C20   31   0.054   0.224   0.021
    1UNL    C21   32   0.157   0.457   0.002
    1UNL     H1   33   0.350  -0.180  -0.424
    1UNL     H2   34   0.404  -0.027  -0.352
    1UNL     H3   35   0.274  -0.339  -0.087
    1UNL     H4   36   0.321  -0.374  -0.252
    1UNL     H5   37   0.074  -0.151  -0.118
    1UNL     H6   38  -0.282  -0.189  -0.194
    1UNL     H7   39  -0.062   0.010  -0.193
    1UNL     H8   40  -0.241   0.046  -0.223
    1UNL     H9   41  -0.376  -0.036  -0.036
    1UNL    H10   42  -0.499   0.314  -0.057
    1UNL    H11   43  -0.319   0.333  -0.044
    1UNL    H12   44  -0.589   0.142   0.131
    1UNL    H13   45  -0.389   0.430   0.181
    1UNL    H14   46  -0.342   0.320   0.315
    1UNL    H15   47  -0.153   0.397   0.218
    1UNL    H16   48  -0.257   0.101   0.185
    1UNL    H17   49  -0.419  -0.090   0.135
    1UNL    H18   50  -0.166  -0.126   0.074
    1UNL    H19   51  -0.335  -0.323   0.051
    1UNL    H20   52  -0.137  -0.384   0.128
    1UNL    H21   53  -0.168  -0.415  -0.153
    1UNL    H22   54   0.087  -0.289   0.064
    1UNL    H23   55   0.027  -0.502  -0.106
    1UNL    H24   56   0.332  -0.127   0.014
    1UNL    H25   57   0.554  -0.184  -0.022
    1UNL    H26   58   0.243   0.077  -0.147
    1UNL    H27   59   0.410   0.104  -0.152
    1UNL    H28   60   0.261   0.063   0.105
    1UNL    H29   61   0.427   0.103   0.091
    1UNL    H30   62   0.361   0.337   0.095
    1UNL    H31   63   0.084   0.135  -0.026
    1UNL    H32   64   0.011   0.202   0.119
    1UNL    H33   65  -0.015   0.272  -0.052
    1UNL    H34   66   0.238   0.498  -0.049
    1UNL    H35   67   0.130   0.510   0.094
    1UNL    H36   68   0.067   0.472  -0.059
   0.00000   0.00000   0.00000   0.00000   0.00000   0.00000   0.00000   0.00000   0.00000
Generated with MDTraj, t= 45.0
 68
    1UNL     C1    1   0.390  -0.127  -0.306
    1UNL     C2    2   0.349  -0.181  -0.195
    1UNL     C3    3   0.272  -0.313  -0.207
    1UNL     O1    4   0.140  -0.314  -0.255
    1UNL     C4    5   0.053  -0.242  -0.173
    1UNL     O2    6  -0.080  -0.227  -0.233
    1UNL     C5    7  -0.169  -0.154  -0.148
    1UNL     C6    8  -0.154   0.000  -0.152
    1UNL     O3    9  -0.187   0.061  -0.033
    1UNL     C7   10  -0.331   0.069  -0.010
    1UNL     O4   11  -0.422   0.150  -0.094
    1UNL     C8   12  -0.457   0.268  -0.019
    1UNL     C9   13  -0.434   0.246   0.135
    1UNL     O5   14  -0.559   0.236   0.209
    1UNL    C10   15  -0.353   0.370   0.191
    1UNL     O6   16  -0.223   0.384   0.144
    1UNL    C11   17  -0.357   0.108   0.141
    1UNL     O7   18  -0.428  -0.000   0.202
    1UNL    C12   19  -0.178  -0.214  -0.002
    1UNL     O8   20  -0.316  -0.226   0.041
    1UNL    C13   21  -0.111  -0.355  -0.000
    1UNL     O9   22  -0.173  -0.449  -0.078
    1UNL    C14   23   0.038  -0.322  -0.035
    1UNL    O10   24   0.111  -0.445  -0.039
    1UNL    C15   25   0.374  -0.115  -0.064
    1UNL    O11   26   0.506  -0.119  -0.025
    1UNL    C16   27   0.315   0.026  -0.067
    1UNL    C17   28   0.338   0.120   0.058
    1UNL    C18   29   0.291   0.263   0.025
    1UNL    C19   30   0.162   0.307   0.036
    1UNL    C20   31   0.045   0.223   0.029
    1UNL    C21   32   0.137   0.445  -0.006
    1UNL     H1   33   0.381  -0.181  -0.397
    1UNL     H2   34   0.436  -0.032  -0.309
    1UNL     H3   35   0.268  -0.350  -0.106
    1UNL     H4   36   0.335  -0.380  -0.267
    1UNL     H5   37   0.081  -0.146  -0.159
    1UNL     H6   38  -0.270  -0.168  -0.191
    1UNL     H7   39  -0.046   0.034  -0.161
    1UNL     H8   40  -0.215   0.039  -0.236
    1UNL     H9   41  -0.381  -0.028  -0.024
    1UNL    H10   42  -0.557   0.289  -0.040
    1UNL    H11   43  -0.393   0.353  -0.055
    1UNL    H12   44  -0.539   0.201   0.293
    1UNL    H13   45  -0.401   0.462   0.166
    1UNL    H14   46  -0.340   0.348   0.294
    1UNL    H15   47  -0.172   0.445   0.200
    1UNL    H16   48  -0.267   0.124   0.198
    1UNL    H17   49  -0.380  -0.081   0.182
    1UNL    H18   50  -0.127  -0.146   0.064
    1UNL    H19   51  -0.317  -0.323   0.048
    1UNL    H20   52  -0.111  -0.398   0.108
    1UNL    H21   53  -0.170  -0.411  -0.173
    1UNL    H22   54   0.086  -0.273   0.049
    1UNL    H23   55   0.085  -0.502  -0.115
    1UNL    H24   56   0.314  -0.169   0.009
    1UNL    H25   57   0.538  -0.205  -0.039
    1UNL    H26   58   0.217   0.027  -0.108
    1UNL    H27   59   0.366   0.088  -0.149
    1UNL    H28   60   0.285   0.082   0.139
    1UNL    H29   61   0.445   0.110   0.083
    1UNL    H30   62   0.365   0.342   0.021
    1UNL    H31   63   0.063   0.116   0.043
    1UNL    H32   64  -0.033   0.249   0.099
    1UNL    H33   65   0.009   0.227  -0.075
    1UNL    H34   66   0.227   0.497   0.012
    1UNL    H35   67   0.051   0.487   0.045
    1UNL    H36   68   0.114   0.442  -0.112
   0.00000   0.00000   0.00000   0.00000   0.00000   0.00000   0.00000   0.00000   0.00000
Generated with MDTraj, t= 46.0
 68
    1UNL     C1    1   0.420  -0.142  -0.314
    1UNL     C2    2   0.355  -0.188  -0.207
    1UNL     C3    3   0.274  -0.314  -0.208
    1UNL     O1    4   0.139  -0.305  -0.254
    1UNL     C4    5   0.050  -0.241  -0.167
    1UNL     O2    6  -0.075  -0.217  -0.229
    1UNL     C5    7  -0.179  -0.159  -0.151
    1UNL     C6    8  -0.168  -0.005  -0.160
    1UNL     O3    9  -0.185   0.070  -0.040
    1UNL     C7   10  -0.320   0.069  -0.002
    1UNL     O4   11  -0.410   0.143  -0.087
    1UNL     C8   12  -0.438   0.264  -0.024
    1UNL     C9   13  -0.431   0.242   0.131
    1UNL     O5   14  -0.560   0.225   0.182
    1UNL    C10   15  -0.361   0.363   0.198
    1UNL     O6   16  -0.245   0.398   0.122
    1UNL    C11   17  -0.339   0.117   0.147
    1UNL     O7   18  -0.391   0.013   0.225
    1UNL    C12   19  -0.169  -0.207  -0.001
    1UNL     O8   20  -0.302  -0.219   0.054
    1UNL    C13   21  -0.106  -0.347   0.010
    1UNL     O9   22  -0.164  -0.436  -0.083
    1UNL    C14   23   0.041  -0.321  -0.029
    1UNL    O10   24   0.109  -0.445  -0.047
    1UNL    C15   25   0.349  -0.108  -0.075
    1UNL    O11   26   0.472  -0.110  -0.012
    1UNL    C16   27   0.301   0.037  -0.097
    1UNL    C17   28   0.311   0.094   0.043
    1UNL    C18   29   0.275   0.238   0.030
    1UNL    C19   30   0.156   0.299   0.049
    1UNL    C20   31   0.038   0.212   0.071
    1UNL    C21   32   0.142   0.442   0.004
    1UNL     H1   33   0.408  -0.196  -0.407
    1UNL     H2   34   0.500  -0.065  -0.311
    1UNL     H3   35   0.274  -0.362  -0.110
    1UNL     H4   36   0.321  -0.385  -0.280
    1UNL     H5   37   0.086  -0.144  -0.151
    1UNL     H6   38  -0.267  -0.200  -0.204
    1UNL     H7   39  -0.064   0.014  -0.202
    1UNL     H8   40  -0.244   0.046  -0.226
    1UNL     H9   41  -0.359  -0.033  -0.013
    1UNL    H10   42  -0.530   0.300  -0.055
    1UNL    H11   43  -0.354   0.334  -0.053
    1UNL    H12   44  -0.567   0.143   0.247
    1UNL    H13   45  -0.429   0.448   0.197
    1UNL    H14   46  -0.327   0.339   0.298
    1UNL    H15   47  -0.195   0.469   0.170
    1UNL    H16   48  -0.237   0.136   0.178
    1UNL    H17   49  -0.367  -0.076   0.179
    1UNL    H18   50  -0.129  -0.124   0.054
    1UNL    H19   51  -0.339  -0.313   0.065
    1UNL    H20   52  -0.122  -0.406   0.109
    1UNL    H21   53  -0.149  -0.400  -0.169
    1UNL    H22   54   0.092  -0.256   0.041
    1UNL    H23   55   0.061  -0.501  -0.114
    1UNL    H24   56   0.284  -0.162  -0.003
    1UNL    H25   57   0.525  -0.175  -0.058
    1UNL    H26   58   0.199   0.044  -0.127
    1UNL    H27   59   0.359   0.092  -0.177
    1UNL    H28   60   0.242   0.041   0.107
    1UNL    H29   61   0.412   0.091   0.081
    1UNL    H30   62   0.353   0.301  -0.010
    1UNL    H31   63   0.012   0.169   0.171
    1UNL    H32   64  -0.048   0.271   0.050
    1UNL    H33   65   0.044   0.128   0.002
    1UNL    H34   66   0.158   0.508   0.090
    1UNL    H35   67   0.045   0.463  -0.036
    1UNL    H36   68   0.214   0.469  -0.071
   0.00000   0.00000   0.00000   0.00000   0.00000   0.00000   0.00000   0.00000   0.00000
Generated with MDTraj, t= 47.0
 68
    1UNL     C1    1   0.425  -0.152  -0.311
    1UNL     C2    2   0.351  -0.188  -0.208
    1UNL     C3    3   0.270  -0.308  -0.226
    1UNL     O1    4   0.134  -0.303  -0.272
    1UNL     C4    5   0.043  -0.255  -0.179
    1UNL     O2    6  -0.096  -0.247  -0.222
    1UNL     C5    7  -0.182  -0.160  -0.147
    1UNL     C6    8  -0.152  -0.012  -0.170
    1UNL     O3    9  -0.164   0.062  -0.050
    1UNL     C7   10  -0.298   0.072  -0.005
    1UNL     O4   11  -0.385   0.138  -0.091
    1UNL     C8   12  -0.421   0.265  -0.034
    1UNL     C9   13  -0.428   0.251   0.121
    1UNL     O5   14  -0.557   0.215   0.163
    1UNL    C10   15  -0.379   0.374   0.200
    1UNL     O6   16  -0.246   0.410   0.152
    1UNL    C11   17  -0.324   0.133   0.136
    1UNL     O7   18  -0.373   0.028   0.221
    1UNL    C12   19  -0.167  -0.202   0.003
    1UNL     O8   20  -0.301  -0.224   0.057
    1UNL    C13   21  -0.094  -0.338   0.016
    1UNL     O9   22  -0.164  -0.435  -0.043
    1UNL    C14   23   0.047  -0.334  -0.044
    1UNL    O10   24   0.089  -0.468  -0.063
    1UNL    C15   25   0.365  -0.117  -0.077
    1UNL    O11   26   0.498  -0.135  -0.023
    1UNL    C16   27   0.321   0.035  -0.099
    1UNL    C17   28   0.285   0.113   0.030
    1UNL    C18   29   0.248   0.258   0.019
    1UNL    C19   30   0.127   0.308   0.058
    1UNL    C20   31   0.001   0.234   0.099
    1UNL    C21   32   0.121   0.455   0.047
    1UNL     H1   33   0.416  -0.193  -0.408
    1UNL     H2   34   0.484  -0.066  -0.296
    1UNL     H3   35   0.257  -0.363  -0.133
    1UNL     H4   36   0.311  -0.378  -0.302
    1UNL     H5   37   0.075  -0.150  -0.160
    1UNL     H6   38  -0.278  -0.194  -0.190
    1UNL     H7   39  -0.044   0.007  -0.199
    1UNL     H8   40  -0.217   0.031  -0.248
    1UNL     H9   41  -0.349  -0.026   0.005
    1UNL    H10   42  -0.518   0.279  -0.066
    1UNL    H11   43  -0.353   0.350  -0.065
    1UNL    H12   44  -0.567   0.118   0.171
    1UNL    H13   45  -0.458   0.451   0.182
    1UNL    H14   46  -0.379   0.352   0.307
    1UNL    H15   47  -0.224   0.500   0.190
    1UNL    H16   48  -0.232   0.171   0.178
    1UNL    H17   49  -0.314  -0.047   0.213
    1UNL    H18   50  -0.106  -0.134   0.054
    1UNL    H19   51  -0.309  -0.314   0.095
    1UNL    H20   52  -0.076  -0.381   0.121
    1UNL    H21   53  -0.187  -0.391  -0.133
    1UNL    H22   54   0.112  -0.274   0.018
    1UNL    H23   55   0.008  -0.512  -0.092
    1UNL    H24   56   0.304  -0.176  -0.004
    1UNL    H25   57   0.540  -0.227  -0.028
    1UNL    H26   58   0.233   0.034  -0.164
    1UNL    H27   59   0.397   0.099  -0.148
    1UNL    H28   60   0.211   0.069   0.101
    1UNL    H29   61   0.376   0.116   0.081
    1UNL    H30   62   0.313   0.330  -0.029
    1UNL    H31   63  -0.021   0.239   0.209
    1UNL    H32   64  -0.081   0.290   0.059
    1UNL    H33   65   0.006   0.130   0.068
    1UNL    H34   66   0.055   0.508   0.121
    1UNL    H35   67   0.071   0.485  -0.041
    1UNL    H36   68   0.214   0.508   0.047
   0.00000   0.00000   0.00000   0.00000   0.00000   0.00000   0.00000   0.00000   0.00000
Generated with MDTraj, t= 48.0
 68
    1UNL     C1    1   0.406  -0.130  -0.334
    1UNL     C2    2   0.346  -0.183  -0.226
    1UNL     C3    3   0.278  -0.319  -0.221
    1UNL     O1    4   0.140  -0.306  -0.260
    1UNL     C4    5   0.051  -0.260  -0.165
    1UNL     O2    6  -0.084  -0.252  -0.215
    1UNL     C5    7  -0.167  -0.171  -0.137
    1UNL     C6    8  -0.136  -0.019  -0.147
    1UNL     O3    9  -0.164   0.051  -0.029
    1UNL     C7   10  -0.303   0.077  -0.021
    1UNL     O4   11  -0.360   0.174  -0.116
    1UNL     C8   12  -0.414   0.292  -0.045
    1UNL     C9   13  -0.425   0.253   0.104
    1UNL     O5   14  -0.555   0.208   0.133
    1UNL    C10   15  -0.382   0.362   0.203
    1UNL     O6   16  -0.252   0.410   0.181
    1UNL    C11   17  -0.323   0.138   0.118
    1UNL     O7   18  -0.375   0.034   0.206
    1UNL    C12   19  -0.154  -0.211   0.016
    1UNL     O8   20  -0.280  -0.209   0.091
    1UNL    C13   21  -0.094  -0.356   0.028
    1UNL     O9   22  -0.177  -0.442  -0.034
    1UNL    C14   23   0.048  -0.358  -0.040
    1UNL    O10   24   0.088  -0.488  -0.084
    1UNL    C15   25   0.345  -0.103  -0.098
    1UNL    O11   26   0.471  -0.100  -0.022
    1UNL    C16   27   0.291   0.037  -0.119
    1UNL    C17   28   0.272   0.091   0.022
    1UNL    C18   29   0.240   0.242   0.032
    1UNL    C19   30   0.125   0.308   0.062
    1UNL    C20   31   0.013   0.236   0.127
    1UNL    C21   32   0.122   0.456   0.044
    1UNL     H1   33   0.417  -0.194  -0.423
    1UNL     H2   34   0.433  -0.026  -0.347
    1UNL     H3   35   0.281  -0.364  -0.121
    1UNL     H4   36   0.315  -0.384  -0.305
    1UNL     H5   37   0.086  -0.154  -0.137
    1UNL     H6   38  -0.270  -0.187  -0.169
    1UNL     H7   39  -0.033   0.008  -0.181
    1UNL     H8   40  -0.203   0.032  -0.215
    1UNL     H9   41  -0.369  -0.009  -0.030
    1UNL    H10   42  -0.502   0.324  -0.085
    1UNL    H11   43  -0.335   0.373  -0.054
    1UNL    H12   44  -0.555   0.153   0.210
    1UNL    H13   45  -0.460   0.446   0.199
    1UNL    H14   46  -0.393   0.314   0.303
    1UNL    H15   47  -0.244   0.504   0.206
    1UNL    H16   48  -0.229   0.177   0.155
    1UNL    H17   49  -0.370  -0.054   0.158
    1UNL    H18   50  -0.088  -0.142   0.059
    1UNL    H19   51  -0.298  -0.300   0.115
    1UNL    H20   52  -0.100  -0.398   0.132
    1UNL    H21   53  -0.167  -0.424  -0.130
    1UNL    H22   54   0.121  -0.321   0.032
    1UNL    H23   55   0.060  -0.501  -0.176
    1UNL    H24   56   0.284  -0.158  -0.022
    1UNL    H25   57   0.494  -0.197   0.013
    1UNL    H26   58   0.191   0.041  -0.171
    1UNL    H27   59   0.356   0.102  -0.176
    1UNL    H28   60   0.191   0.030   0.075
    1UNL    H29   61   0.351   0.073   0.085
    1UNL    H30   62   0.305   0.303  -0.028
    1UNL    H31   63   0.042   0.157   0.199
    1UNL    H32   64  -0.045   0.298   0.194
    1UNL    H33   65  -0.049   0.186   0.054
    1UNL    H34   66   0.025   0.498   0.002
    1UNL    H35   67   0.180   0.477  -0.042
    1UNL    H36   68   0.168   0.505   0.128
   0.00000   0.00000   0.00000   0.00000   0.00000   0.00000   0.00000   0.00000   0.00000
Generated with MDTraj, t= 49.0
 68
    1UNL     C1    1   0.372  -0.127  -0.333
    1UNL     C2    2   0.331  -0.190  -0.224
    1UNL     C3    3   0.284  -0.335  -0.236
    1UNL     O1    4   0.141  -0.339  -0.266
    1UNL     C4    5   0.057  -0.282  -0.172
    1UNL     O2    6  -0.077  -0.242  -0.218
    1UNL     C5    7  -0.159  -0.169  -0.128
    1UNL     C6    8  -0.130  -0.016  -0.129
    1UNL     O3    9  -0.159   0.062  -0.016
    1UNL     C7   10  -0.293   0.088  -0.012
    1UNL     O4   11  -0.349   0.179  -0.108
    1UNL     C8   12  -0.379   0.300  -0.045
    1UNL     C9   13  -0.424   0.261   0.102
    1UNL     O5   14  -0.560   0.216   0.101
    1UNL    C10   15  -0.399   0.376   0.208
    1UNL     O6   16  -0.272   0.415   0.210
    1UNL    C11   17  -0.340   0.136   0.132
    1UNL     O7   18  -0.410   0.027   0.181
    1UNL    C12   19  -0.130  -0.219   0.019
    1UNL     O8   20  -0.247  -0.201   0.096
    1UNL    C13   21  -0.086  -0.372   0.025
    1UNL     O9   22  -0.178  -0.451  -0.042
    1UNL    C14   23   0.052  -0.380  -0.049
    1UNL    O10   24   0.094  -0.515  -0.076
    1UNL    C15   25   0.332  -0.114  -0.097
    1UNL    O11   26   0.468  -0.092  -0.058
    1UNL    C16   27   0.270   0.027  -0.101
    1UNL    C17   28   0.279   0.115   0.035
    1UNL    C18   29   0.242   0.260   0.015
    1UNL    C19   30   0.131   0.322   0.060
    1UNL    C20   31   0.016   0.262   0.140
    1UNL    C21   32   0.113   0.469   0.046
    1UNL     H1   33   0.366  -0.175  -0.428
    1UNL     H2   34   0.430  -0.040  -0.319
    1UNL     H3   35   0.284  -0.372  -0.135
    1UNL     H4   36   0.344  -0.395  -0.313
    1UNL     H5   37   0.107  -0.177  -0.146
    1UNL     H6   38  -0.266  -0.186  -0.151
    1UNL     H7   39  -0.020  -0.007  -0.137
    1UNL     H8   40  -0.168   0.038  -0.212
    1UNL     H9   41  -0.346  -0.003  -0.038
    1UNL    H10   42  -0.457   0.343  -0.096
    1UNL    H11   43  -0.286   0.365  -0.052
    1UNL    H12   44  -0.561   0.128   0.046
    1UNL    H13   45  -0.472   0.463   0.186
    1UNL    H14   46  -0.424   0.337   0.311
    1UNL    H15   47  -0.255   0.500   0.256
    1UNL    H16   48  -0.250   0.153   0.193
    1UNL    H17   49  -0.369  -0.062   0.159
    1UNL    H18   50  -0.054  -0.163   0.062
    1UNL    H19   51  -0.273  -0.295   0.122
    1UNL    H20   52  -0.096  -0.417   0.125
    1UNL    H21   53  -0.199  -0.408  -0.128
    1UNL    H22   54   0.128  -0.354   0.028
    1UNL    H23   55   0.023  -0.574  -0.116
    1UNL    H24   56   0.289  -0.171  -0.012
    1UNL    H25   57   0.508  -0.187  -0.050
    1UNL    H26   58   0.162   0.016  -0.131
    1UNL    H27   59   0.310   0.090  -0.177
    1UNL    H28   60   0.217   0.073   0.125
    1UNL    H29   61   0.367   0.099   0.086
    1UNL    H30   62   0.305   0.324  -0.049
    1UNL    H31   63  -0.033   0.183   0.088
    1UNL    H32   64   0.058   0.215   0.230
    1UNL    H33   65  -0.062   0.337   0.158
    1UNL    H34   66   0.066   0.485  -0.054
    1UNL    H35   67   0.210   0.511   0.038
    1UNL    H36   68   0.064   0.505   0.136
   0.00000   0.00000   0.00000   0.00000   0.00000   0.00000   0.00000   0.00000   0.00000
Generated with MDTraj, t= 50.0
 68
    1UNL     C1    1   0.343  -0.118  -0.353
    1UNL     C2    2   0.326  -0.171  -0.232
    1UNL     C3    3   0.276  -0.313  -0.225
    1UNL     O1    4   0.139  -0.315  -0.259
    1UNL     C4    5   0.054  -0.275  -0.156
    1UNL     O2    6  -0.083  -0.244  -0.194
    1UNL     C5    7  -0.165  -0.166  -0.103
    1UNL     C6    8  -0.125  -0.014  -0.115
    1UNL     O3    9  -0.157   0.046   0.007
    1UNL     C7   10  -0.288   0.090  -0.011
    1UNL     O4   11  -0.314   0.196  -0.112
    1UNL     C8   12  -0.361   0.310  -0.043
    1UNL     C9   13  -0.427   0.255   0.092
    1UNL     O5   14  -0.563   0.219   0.065
    1UNL    C10   15  -0.410   0.356   0.202
    1UNL     O6   16  -0.270   0.382   0.211
    1UNL    C11   17  -0.350   0.130   0.126
    1UNL     O7   18  -0.426   0.027   0.169
    1UNL    C12   19  -0.149  -0.221   0.046
    1UNL     O8   20  -0.272  -0.232   0.107
    1UNL    C13   21  -0.097  -0.370   0.035
    1UNL     O9   22  -0.180  -0.448  -0.039
    1UNL    C14   23   0.046  -0.376  -0.037
    1UNL    O10   24   0.091  -0.501  -0.080
    1UNL    C15   25   0.347  -0.095  -0.105
    1UNL    O11   26   0.486  -0.100  -0.060
    1UNL    C16   27   0.310   0.055  -0.121
    1UNL    C17   28   0.281   0.105   0.020
    1UNL    C18   29   0.247   0.246   0.016
    1UNL    C19   30   0.135   0.310   0.049
    1UNL    C20   31   0.024   0.247   0.134
    1UNL    C21   32   0.116   0.460   0.030
    1UNL     H1   33   0.319  -0.173  -0.445
    1UNL     H2   34   0.393  -0.020  -0.357
    1UNL     H3   35   0.299  -0.361  -0.132
    1UNL     H4   36   0.312  -0.371  -0.317
    1UNL     H5   37   0.094  -0.168  -0.129
    1UNL     H6   38  -0.265  -0.190  -0.143
    1UNL     H7   39  -0.018  -0.007  -0.131
    1UNL     H8   40  -0.169   0.035  -0.201
    1UNL     H9   41  -0.346   0.005  -0.043
    1UNL    H10   42  -0.425   0.364  -0.105
    1UNL    H11   43  -0.268   0.374  -0.022
    1UNL    H12   44  -0.578   0.135   0.110
    1UNL    H13   45  -0.465   0.454   0.170
    1UNL    H14   46  -0.454   0.319   0.298
    1UNL    H15   47  -0.247   0.422   0.299
    1UNL    H16   48  -0.280   0.155   0.209
    1UNL    H17   49  -0.372  -0.053   0.169
    1UNL    H18   50  -0.086  -0.165   0.108
    1UNL    H19   51  -0.296  -0.331   0.106
    1UNL    H20   52  -0.097  -0.409   0.134
    1UNL    H21   53  -0.172  -0.413  -0.132
    1UNL    H22   54   0.122  -0.350   0.042
    1UNL    H23   55   0.028  -0.533  -0.151
    1UNL    H24   56   0.290  -0.135  -0.019
    1UNL    H25   57   0.535  -0.173  -0.103
    1UNL    H26   58   0.226   0.069  -0.187
    1UNL    H27   59   0.390   0.113  -0.163
    1UNL    H28   60   0.202   0.043   0.080
    1UNL    H29   61   0.358   0.088   0.087
    1UNL    H30   62   0.324   0.312  -0.015
    1UNL    H31   63  -0.067   0.301   0.133
    1UNL    H32   64   0.006   0.143   0.102
    1UNL    H33   65   0.054   0.252   0.240
    1UNL    H34   66   0.132   0.486  -0.074
    1UNL    H35   67   0.178   0.524   0.093
    1UNL    H36   68   0.012   0.487   0.052
   0.00000   0.00000   0.00000   0.00000   0.00000   0.00000   0.00000   0.00000   0.00000
Generated with MDTraj, t= 51.0
 68
    1UNL     C1    1   0.353  -0.114  -0.354
    1UNL     C2    2   0.319  -0.173  -0.239
    1UNL     C3    3   0.266  -0.315  -0.234
    1UNL     O1    4   0.125  -0.339  -0.263
    1UNL     C4    5   0.054  -0.280  -0.159
    1UNL     O2    6  -0.082  -0.254  -0.195
    1UNL     C5    7  -0.150  -0.169  -0.102
    1UNL     C6    8  -0.094  -0.023  -0.088
    1UNL     O3    9  -0.158   0.049   0.021
    1UNL     C7   10  -0.284   0.094  -0.007
    1UNL     O4   11  -0.299   0.194  -0.104
    1UNL     C8   12  -0.365   0.306  -0.042
    1UNL     C9   13  -0.436   0.266   0.089
    1UNL     O5   14  -0.576   0.243   0.070
    1UNL    C10   15  -0.424   0.364   0.207
    1UNL     O6   16  -0.283   0.382   0.245
    1UNL    C11   17  -0.361   0.133   0.123
    1UNL     O7   18  -0.445   0.026   0.152
    1UNL    C12   19  -0.170  -0.232   0.039
    1UNL     O8   20  -0.310  -0.246   0.069
    1UNL    C13   21  -0.091  -0.365   0.038
    1UNL     O9   22  -0.165  -0.451  -0.035
    1UNL    C14   23   0.053  -0.367  -0.029
    1UNL    O10   24   0.096  -0.495  -0.043
    1UNL    C15   25   0.362  -0.090  -0.115
    1UNL    O11   26   0.499  -0.108  -0.085
    1UNL    C16   27   0.330   0.062  -0.121
    1UNL    C17   28   0.299   0.125   0.009
    1UNL    C18   29   0.252   0.265   0.005
    1UNL    C19   30   0.137   0.311   0.050
    1UNL    C20   31   0.034   0.232   0.123
    1UNL    C21   32   0.112   0.453   0.031
    1UNL     H1   33   0.331  -0.164  -0.443
    1UNL     H2   34   0.372  -0.010  -0.358
    1UNL     H3   35   0.278  -0.357  -0.136
    1UNL     H4   36   0.323  -0.385  -0.300
    1UNL     H5   37   0.102  -0.177  -0.144
    1UNL     H6   38  -0.247  -0.169  -0.154
    1UNL     H7   39   0.014  -0.015  -0.086
    1UNL     H8   40  -0.120   0.032  -0.180
    1UNL     H9   41  -0.331   0.007  -0.050
    1UNL    H10   42  -0.435   0.353  -0.106
    1UNL    H11   43  -0.282   0.379  -0.015
    1UNL    H12   44  -0.579   0.151   0.053
    1UNL    H13   45  -0.480   0.463   0.191
    1UNL    H14   46  -0.470   0.316   0.295
    1UNL    H15   47  -0.277   0.403   0.340
    1UNL    H16   48  -0.284   0.158   0.201
    1UNL    H17   49  -0.382  -0.054   0.157
    1UNL    H18   50  -0.137  -0.159   0.107
    1UNL    H19   51  -0.340  -0.336   0.069
    1UNL    H20   52  -0.089  -0.405   0.135
    1UNL    H21   53  -0.190  -0.413  -0.120
    1UNL    H22   54   0.134  -0.330   0.042
    1UNL    H23   55   0.027  -0.534  -0.098
    1UNL    H24   56   0.312  -0.137  -0.031
    1UNL    H25   57   0.527  -0.192  -0.114
    1UNL    H26   58   0.249   0.082  -0.188
    1UNL    H27   59   0.419   0.107  -0.162
    1UNL    H28   60   0.219   0.067   0.067
    1UNL    H29   61   0.382   0.119   0.074
    1UNL    H30   62   0.329   0.340  -0.022
    1UNL    H31   63   0.018   0.267   0.223
    1UNL    H32   64  -0.064   0.223   0.078
    1UNL    H33   65   0.068   0.131   0.148
    1UNL    H34   66   0.181   0.489  -0.039
    1UNL    H35   67   0.112   0.521   0.120
    1UNL    H36   68   0.020   0.470  -0.025
   0.00000   0.00000   0.00000   0.00000   0.00000   0.00000   0.00000   0.00000   0.00000
Generated with MDTraj, t= 52.0
 68
    1UNL     C1    1   0.326  -0.152  -0.353
    1UNL     C2    2   0.320  -0.192  -0.228
    1UNL     C3    3   0.277  -0.334  -0.214
    1UNL     O1    4   0.132  -0.348  -0.239
    1UNL     C4    5   0.062  -0.261  -0.150
    1UNL     O2    6  -0.069  -0.224  -0.201
    1UNL     C5    7  -0.159  -0.165  -0.109
    1UNL     C6    8  -0.109  -0.022  -0.089
    1UNL     O3    9  -0.168   0.034   0.024
    1UNL     C7   10  -0.294   0.088  -0.011
    1UNL     O4   11  -0.305   0.197  -0.097
    1UNL     C8   12  -0.340   0.316  -0.018
    1UNL     C9   13  -0.432   0.262   0.097
    1UNL     O5   14  -0.572   0.252   0.051
    1UNL    C10   15  -0.428   0.338   0.227
    1UNL     O6   16  -0.297   0.385   0.255
    1UNL    C11   17  -0.369   0.121   0.117
    1UNL     O7   18  -0.459   0.017   0.152
    1UNL    C12   19  -0.179  -0.229   0.030
    1UNL     O8   20  -0.318  -0.229   0.058
    1UNL    C13   21  -0.102  -0.367   0.027
    1UNL     O9   22  -0.145  -0.443  -0.078
    1UNL    C14   23   0.050  -0.338  -0.012
    1UNL    O10   24   0.126  -0.454  -0.015
    1UNL    C15   25   0.350  -0.099  -0.108
    1UNL    O11   26   0.489  -0.083  -0.098
    1UNL    C16   27   0.284   0.039  -0.127
    1UNL    C17   28   0.309   0.120  -0.007
    1UNL    C18   29   0.256   0.257  -0.015
    1UNL    C19   30   0.157   0.311   0.052
    1UNL    C20   31   0.072   0.219   0.129
    1UNL    C21   32   0.117   0.453   0.024
    1UNL     H1   33   0.296  -0.227  -0.429
    1UNL     H2   34   0.354  -0.050  -0.379
    1UNL     H3   35   0.301  -0.383  -0.124
    1UNL     H4   36   0.325  -0.392  -0.297
    1UNL     H5   37   0.117  -0.168  -0.135
    1UNL     H6   38  -0.254  -0.175  -0.163
    1UNL     H7   39  -0.004  -0.015  -0.081
    1UNL     H8   40  -0.130   0.041  -0.181
    1UNL     H9   41  -0.350   0.002  -0.047
    1UNL    H10   42  -0.386   0.385  -0.088
    1UNL    H11   43  -0.248   0.363   0.027
    1UNL    H12   44  -0.578   0.152   0.021
    1UNL    H13   45  -0.486   0.433   0.217
    1UNL    H14   46  -0.469   0.281   0.309
    1UNL    H15   47  -0.305   0.442   0.333
    1UNL    H16   48  -0.294   0.142   0.199
    1UNL    H17   49  -0.416  -0.070   0.154
    1UNL    H18   50  -0.133  -0.164   0.100
    1UNL    H19   51  -0.348  -0.324   0.066
    1UNL    H20   52  -0.112  -0.422   0.115
    1UNL    H21   53  -0.101  -0.418  -0.166
    1UNL    H22   54   0.105  -0.285   0.071
    1UNL    H23   55   0.117  -0.480  -0.111
    1UNL    H24   56   0.307  -0.159  -0.029
    1UNL    H25   57   0.529  -0.166  -0.090
    1UNL    H26   58   0.185   0.028  -0.156
    1UNL    H27   59   0.343   0.081  -0.208
    1UNL    H28   60   0.260   0.072   0.082
    1UNL    H29   61   0.414   0.133   0.018
    1UNL    H30   62   0.305   0.320  -0.083
    1UNL    H31   63   0.134   0.163   0.201
    1UNL    H32   64  -0.014   0.263   0.175
    1UNL    H33   65   0.047   0.139   0.061
    1UNL    H34   66   0.205   0.509   0.005
    1UNL    H35   67   0.050   0.502   0.101
    1UNL    H36   68   0.077   0.459  -0.077
   0.00000   0.00000   0.00000   0.00000   0.00000   0.00000   0.00000   0.00000   0.00000
Generated with MDTraj, t= 53.0
 68
    1UNL     C1    1   0.355  -0.176  -0.367
    1UNL     C2    2   0.337  -0.207  -0.239
    1UNL     C3    3   0.276  -0.334  -0.203
    1UNL     O1    4   0.140  -0.345  -0.233
    1UNL     C4    5   0.063  -0.262  -0.141
    1UNL     O2    6  -0.067  -0.235  -0.197
    1UNL     C5    7  -0.162  -0.153  -0.121
    1UNL     C6    8  -0.109  -0.008  -0.093
    1UNL     O3    9  -0.155   0.054   0.021
    1UNL     C7   10  -0.290   0.092  -0.005
    1UNL     O4   11  -0.305   0.209  -0.087
    1UNL     C8   12  -0.353   0.319  -0.012
    1UNL     C9   13  -0.441   0.261   0.104
    1UNL     O5   14  -0.576   0.244   0.061
    1UNL    C10   15  -0.440   0.346   0.232
    1UNL     O6   16  -0.308   0.356   0.274
    1UNL    C11   17  -0.371   0.119   0.130
    1UNL     O7   18  -0.460   0.012   0.134
    1UNL    C12   19  -0.202  -0.226   0.014
    1UNL     O8   20  -0.343  -0.248   0.012
    1UNL    C13   21  -0.117  -0.364   0.025
    1UNL     O9   22  -0.164  -0.460  -0.061
    1UNL    C14   23   0.037  -0.326  -0.001
    1UNL    O10   24   0.124  -0.432   0.019
    1UNL    C15   25   0.374  -0.099  -0.129
    1UNL    O11   26   0.512  -0.083  -0.126
    1UNL    C16   27   0.303   0.043  -0.137
    1UNL    C17   28   0.323   0.134  -0.010
    1UNL    C18   29   0.260   0.257  -0.023
    1UNL    C19   30   0.167   0.309   0.051
    1UNL    C20   31   0.089   0.234   0.158
    1UNL    C21   32   0.102   0.439   0.013
    1UNL     H1   33   0.316  -0.245  -0.437
    1UNL     H2   34   0.412  -0.092  -0.393
    1UNL     H3   35   0.292  -0.348  -0.100
    1UNL     H4   36   0.325  -0.412  -0.266
    1UNL     H5   37   0.109  -0.167  -0.134
    1UNL     H6   38  -0.257  -0.154  -0.175
    1UNL     H7   39  -0.005  -0.012  -0.069
    1UNL     H8   40  -0.112   0.065  -0.182
    1UNL     H9   41  -0.338   0.004  -0.048
    1UNL    H10   42  -0.413   0.379  -0.083
    1UNL    H11   43  -0.267   0.380   0.029
    1UNL    H12   44  -0.606   0.159   0.107
    1UNL    H13   45  -0.482   0.445   0.211
    1UNL    H14   46  -0.493   0.310   0.315
    1UNL    H15   47  -0.291   0.442   0.320
    1UNL    H16   48  -0.291   0.118   0.210
    1UNL    H17   49  -0.421  -0.075   0.110
    1UNL    H18   50  -0.187  -0.165   0.102
    1UNL    H19   51  -0.357  -0.346   0.035
    1UNL    H20   52  -0.129  -0.407   0.118
    1UNL    H21   53  -0.153  -0.435  -0.152
    1UNL    H22   54   0.069  -0.254   0.075
    1UNL    H23   55   0.100  -0.497  -0.056
    1UNL    H24   56   0.334  -0.142  -0.039
    1UNL    H25   57   0.576  -0.157  -0.106
    1UNL    H26   58   0.197   0.038  -0.154
    1UNL    H27   59   0.352   0.082  -0.226
    1UNL    H28   60   0.290   0.089   0.084
    1UNL    H29   61   0.432   0.147   0.010
    1UNL    H30   62   0.278   0.310  -0.119
    1UNL    H31   63   0.140   0.141   0.190
    1UNL    H32   64   0.065   0.290   0.245
    1UNL    H33   65   0.003   0.194   0.109
    1UNL    H34   66   0.145   0.526   0.061
    1UNL    H35   67  -0.005   0.428   0.042
    1UNL    H36   68   0.122   0.459  -0.092
   0.00000   0.00000   0.00000   0.00000   0.00000   0.00000   0.00000   0.00000   0.00000
Generated with MDTraj, t= 54.0
 68
    1UNL     C1    1   0.353  -0.197  -0.356
    1UNL     C2    2   0.345  -0.206  -0.223
    1UNL     C3    3   0.279  -0.329  -0.165
    1UNL     O1    4   0.143  -0.325  -0.213
    1UNL     C4    5   0.051  -0.248  -0.142
    1UNL     O2    6  -0.074  -0.219  -0.207
    1UNL     C5    7  -0.153  -0.135  -0.124
    1UNL     C6    8  -0.098   0.007  -0.087
    1UNL     O3    9  -0.151   0.057   0.031
    1UNL     C7   10  -0.284   0.105  -0.004
    1UNL     O4   11  -0.303   0.231  -0.080
    1UNL     C8   12  -0.368   0.319  -0.003
    1UNL     C9   13  -0.451   0.247   0.107
    1UNL     O5   14  -0.589   0.231   0.068
    1UNL    C10   15  -0.442   0.322   0.240
    1UNL     O6   16  -0.304   0.331   0.274
    1UNL    C11   17  -0.376   0.106   0.122
    1UNL     O7   18  -0.461  -0.002   0.124
    1UNL    C12   19  -0.208  -0.208   0.004
    1UNL     O8   20  -0.347  -0.244   0.006
    1UNL    C13   21  -0.121  -0.338   0.032
    1UNL     O9   22  -0.172  -0.436  -0.051
    1UNL    C14   23   0.031  -0.307   0.003
    1UNL    O10   24   0.104  -0.432   0.028
    1UNL    C15   25   0.407  -0.102  -0.129
    1UNL    O11   26   0.543  -0.088  -0.151
    1UNL    C16   27   0.338   0.035  -0.156
    1UNL    C17   28   0.318   0.117  -0.029
    1UNL    C18   29   0.243   0.240  -0.046
    1UNL    C19   30   0.151   0.296   0.032
    1UNL    C20   31   0.108   0.220   0.154
    1UNL    C21   32   0.086   0.430   0.007
    1UNL     H1   33   0.314  -0.282  -0.412
    1UNL     H2   34   0.399  -0.106  -0.399
    1UNL     H3   35   0.280  -0.332  -0.060
    1UNL     H4   36   0.336  -0.412  -0.216
    1UNL     H5   37   0.092  -0.150  -0.140
    1UNL     H6   38  -0.238  -0.107  -0.187
    1UNL     H7   39   0.007   0.000  -0.068
    1UNL     H8   40  -0.100   0.088  -0.169
    1UNL     H9   41  -0.330   0.028  -0.069
    1UNL    H10   42  -0.434   0.380  -0.071
    1UNL    H11   43  -0.291   0.382   0.044
    1UNL    H12   44  -0.595   0.150   0.024
    1UNL    H13   45  -0.486   0.420   0.243
    1UNL    H14   46  -0.500   0.265   0.304
    1UNL    H15   47  -0.278   0.277   0.354
    1UNL    H16   48  -0.321   0.112   0.218
    1UNL    H17   49  -0.409  -0.088   0.100
    1UNL    H18   50  -0.194  -0.137   0.087
    1UNL    H19   51  -0.371  -0.287  -0.078
    1UNL    H20   52  -0.135  -0.375   0.128
    1UNL    H21   53  -0.157  -0.411  -0.149
    1UNL    H22   54   0.074  -0.244   0.079
    1UNL    H23   55   0.052  -0.500  -0.014
    1UNL    H24   56   0.372  -0.145  -0.033
    1UNL    H25   57   0.591  -0.179  -0.129
    1UNL    H26   58   0.246   0.013  -0.216
    1UNL    H27   59   0.402   0.078  -0.229
    1UNL    H28   60   0.274   0.053   0.045
    1UNL    H29   61   0.414   0.148   0.027
    1UNL    H30   62   0.255   0.282  -0.141
    1UNL    H31   63   0.197   0.192   0.213
    1UNL    H32   64   0.041   0.261   0.227
    1UNL    H33   65   0.068   0.126   0.124
    1UNL    H34   66   0.094   0.510   0.085
    1UNL    H35   67  -0.019   0.409  -0.001
    1UNL    H36   68   0.134   0.481  -0.077
   0.00000   0.00000   0.00000   0.00000   0.00000   0.00000   0.00000   0.00000   0.00000
Generated with MDTraj, t= 55.0
 68
    1UNL     C1    1   0.368  -0.219  -0.362
    1UNL     C2    2   0.351  -0.227  -0.230
    1UNL     C3    3   0.288  -0.341  -0.158
    1UNL     O1    4   0.153  -0.344  -0.195
    1UNL     C4    5   0.079  -0.246  -0.121
    1UNL     O2    6  -0.041  -0.189  -0.196
    1UNL     C5    7  -0.143  -0.123  -0.124
    1UNL     C6    8  -0.094   0.012  -0.084
    1UNL     O3    9  -0.169   0.078   0.017
    1UNL     C7   10  -0.308   0.107  -0.018
    1UNL     O4   11  -0.321   0.234  -0.086
    1UNL     C8   12  -0.365   0.322   0.016
    1UNL     C9   13  -0.452   0.250   0.121
    1UNL     O5   14  -0.589   0.254   0.081
    1UNL    C10   15  -0.443   0.290   0.271
    1UNL     O6   16  -0.316   0.347   0.314
    1UNL    C11   17  -0.394   0.107   0.110
    1UNL     O7   18  -0.479  -0.002   0.097
    1UNL    C12   19  -0.192  -0.194  -0.001
    1UNL     O8   20  -0.328  -0.229   0.000
    1UNL    C13   21  -0.112  -0.327   0.017
    1UNL     O9   22  -0.155  -0.407  -0.086
    1UNL    C14   23   0.035  -0.300   0.023
    1UNL    O10   24   0.097  -0.424   0.055
    1UNL    C15   25   0.403  -0.106  -0.149
    1UNL    O11   26   0.540  -0.099  -0.160
    1UNL    C16   27   0.330   0.033  -0.161
    1UNL    C17   28   0.317   0.107  -0.037
    1UNL    C18   29   0.235   0.223  -0.059
    1UNL    C19   30   0.134   0.262   0.020
    1UNL    C20   31   0.107   0.216   0.164
    1UNL    C21   32   0.062   0.390  -0.021
    1UNL     H1   33   0.343  -0.308  -0.410
    1UNL     H2   34   0.400  -0.130  -0.408
    1UNL     H3   35   0.293  -0.320  -0.055
    1UNL     H4   36   0.333  -0.438  -0.192
    1UNL     H5   37   0.135  -0.156  -0.106
    1UNL     H6   38  -0.225  -0.115  -0.198
    1UNL     H7   39   0.005   0.003  -0.049
    1UNL     H8   40  -0.087   0.076  -0.177
    1UNL     H9   41  -0.344   0.031  -0.090
    1UNL    H10   42  -0.433   0.402  -0.027
    1UNL    H11   43  -0.278   0.365   0.064
    1UNL    H12   44  -0.629   0.167   0.116
    1UNL    H13   45  -0.518   0.365   0.278
    1UNL    H14   46  -0.481   0.216   0.334
    1UNL    H15   47  -0.246   0.289   0.279
    1UNL    H16   48  -0.333   0.097   0.203
    1UNL    H17   49  -0.423  -0.072   0.064
    1UNL    H18   50  -0.174  -0.133   0.092
    1UNL    H19   51  -0.343  -0.296  -0.066
    1UNL    H20   52  -0.147  -0.374   0.103
    1UNL    H21   53  -0.108  -0.378  -0.164
    1UNL    H22   54   0.050  -0.234   0.104
    1UNL    H23   55   0.042  -0.492   0.015
    1UNL    H24   56   0.388  -0.139  -0.044
    1UNL    H25   57   0.590  -0.192  -0.147
    1UNL    H26   58   0.228   0.006  -0.206
    1UNL    H27   59   0.377   0.086  -0.240
    1UNL    H28   60   0.259   0.048   0.031
    1UNL    H29   61   0.416   0.121   0.025
    1UNL    H30   62   0.248   0.277  -0.154
    1UNL    H31   63   0.154   0.284   0.233
    1UNL    H32   64   0.004   0.202   0.191
    1UNL    H33   65   0.154   0.121   0.181
    1UNL    H34   66   0.028   0.470   0.053
    1UNL    H35   67  -0.029   0.364  -0.068
    1UNL    H36   68   0.133   0.451  -0.081
   0.00000   0.00000   0.00000   0.00000   0.00000   0.00000   0.00000   0.00000   0.00000
Generated with MDTraj, t= 56.0
 68
    1UNL     C1    1   0.386  -0.235  -0.354
    1UNL     C2    2   0.360  -0.233  -0.226
    1UNL     C3    3   0.291  -0.345  -0.161
    1UNL     O1    4   0.156  -0.335  -0.192
    1UNL     C4    5   0.088  -0.243  -0.114
    1UNL     O2    6  -0.017  -0.170  -0.189
    1UNL     C5    7  -0.121  -0.106  -0.116
    1UNL     C6    8  -0.081   0.034  -0.066
    1UNL     O3    9  -0.164   0.082   0.042
    1UNL     C7   10  -0.293   0.131   0.000
    1UNL     O4   11  -0.318   0.256  -0.063
    1UNL     C8   12  -0.390   0.340   0.025
    1UNL     C9   13  -0.462   0.255   0.131
    1UNL     O5   14  -0.603   0.255   0.104
    1UNL    C10   15  -0.444   0.309   0.274
    1UNL     O6   16  -0.307   0.312   0.311
    1UNL    C11   17  -0.396   0.109   0.110
    1UNL     O7   18  -0.489   0.011   0.067
    1UNL    C12   19  -0.193  -0.189  -0.007
    1UNL     O8   20  -0.326  -0.224  -0.033
    1UNL    C13   21  -0.110  -0.324   0.017
    1UNL     O9   22  -0.140  -0.414  -0.087
    1UNL    C14   23   0.037  -0.295   0.029
    1UNL    O10   24   0.102  -0.414   0.064
    1UNL    C15   25   0.403  -0.119  -0.140
    1UNL    O11   26   0.536  -0.095  -0.161
    1UNL    C16   27   0.317   0.002  -0.171
    1UNL    C17   28   0.310   0.098  -0.057
    1UNL    C18   29   0.212   0.201  -0.078
    1UNL    C19   30   0.111   0.241   0.001
    1UNL    C20   31   0.113   0.199   0.150
    1UNL    C21   32   0.019   0.363  -0.036
    1UNL     H1   33   0.347  -0.312  -0.423
    1UNL     H2   34   0.453  -0.157  -0.389
    1UNL     H3   35   0.297  -0.348  -0.055
    1UNL     H4   36   0.318  -0.441  -0.214
    1UNL     H5   37   0.157  -0.165  -0.098
    1UNL     H6   38  -0.197  -0.094  -0.197
    1UNL     H7   39   0.019   0.022  -0.035
    1UNL     H8   40  -0.078   0.111  -0.147
    1UNL     H9   41  -0.326   0.057  -0.077
    1UNL    H10   42  -0.470   0.398  -0.035
    1UNL    H11   43  -0.322   0.406   0.073
    1UNL    H12   44  -0.624   0.194   0.030
    1UNL    H13   45  -0.485   0.407   0.286
    1UNL    H14   46  -0.500   0.248   0.339
    1UNL    H15   47  -0.259   0.259   0.246
    1UNL    H16   48  -0.342   0.070   0.197
    1UNL    H17   49  -0.450  -0.081   0.050
    1UNL    H18   50  -0.197  -0.140   0.096
    1UNL    H19   51  -0.334  -0.312  -0.084
    1UNL    H20   52  -0.135  -0.387   0.100
    1UNL    H21   53  -0.099  -0.376  -0.171
    1UNL    H22   54   0.063  -0.225   0.103
    1UNL    H23   55   0.073  -0.482  -0.005
    1UNL    H24   56   0.394  -0.154  -0.034
    1UNL    H25   57   0.594  -0.178  -0.160
    1UNL    H26   58   0.209  -0.025  -0.203
    1UNL    H27   59   0.356   0.032  -0.264
    1UNL    H28   60   0.292   0.043   0.033
    1UNL    H29   61   0.412   0.150  -0.022
    1UNL    H30   62   0.215   0.245  -0.175
    1UNL    H31   63   0.089   0.274   0.221
    1UNL    H32   64   0.056   0.107   0.163
    1UNL    H33   65   0.215   0.169   0.176
    1UNL    H34   66  -0.050   0.402   0.043
    1UNL    H35   67  -0.036   0.351  -0.126
    1UNL    H36   68   0.098   0.439  -0.051
   0.00000   0.00000   0.00000   0.00000   0.00000   0.00000   0.00000   0.00000   0.00000
Generated with MDTraj, t= 57.0
 68
    1UNL     C1    1   0.416  -0.264  -0.347
    1UNL     C2    2   0.369  -0.245  -0.226
    1UNL     C3    3   0.281  -0.331  -0.149
    1UNL     O1    4   0.142  -0.310  -0.188
    1UNL     C4    5   0.071  -0.223  -0.109
    1UNL     O2    6  -0.039  -0.169  -0.186
    1UNL     C5    7  -0.135  -0.103  -0.104
    1UNL     C6    8  -0.074   0.022  -0.030
    1UNL     O3    9  -0.165   0.067   0.067
    1UNL     C7   10  -0.277   0.125   0.004
    1UNL     O4   11  -0.271   0.271  -0.023
    1UNL     C8   12  -0.396   0.335   0.012
    1UNL     C9   13  -0.462   0.245   0.120
    1UNL     O5   14  -0.607   0.245   0.111
    1UNL    C10   15  -0.410   0.285   0.262
    1UNL     O6   16  -0.271   0.273   0.274
    1UNL    C11   17  -0.400   0.099   0.095
    1UNL     O7   18  -0.493   0.008   0.032
    1UNL    C12   19  -0.212  -0.195   0.006
    1UNL     O8   20  -0.340  -0.217  -0.037
    1UNL    C13   21  -0.126  -0.331   0.018
    1UNL     O9   22  -0.149  -0.411  -0.095
    1UNL    C14   23   0.023  -0.286   0.032
    1UNL    O10   24   0.101  -0.400   0.063
    1UNL    C15   25   0.402  -0.114  -0.149
    1UNL    O11   26   0.544  -0.098  -0.151
    1UNL    C16   27   0.318   0.011  -0.189
    1UNL    C17   28   0.290   0.112  -0.070
    1UNL    C18   29   0.189   0.203  -0.094
    1UNL    C19   30   0.121   0.266  -0.000
    1UNL    C20   31   0.142   0.240   0.145
    1UNL    C21   32   0.003   0.350  -0.025
    1UNL     H1   33   0.389  -0.354  -0.395
    1UNL     H2   34   0.483  -0.200  -0.396
    1UNL     H3   35   0.276  -0.313  -0.043
    1UNL     H4   36   0.302  -0.440  -0.169
    1UNL     H5   37   0.133  -0.139  -0.092
    1UNL     H6   38  -0.206  -0.063  -0.179
    1UNL     H7   39   0.015   0.004   0.026
    1UNL     H8   40  -0.050   0.103  -0.098
    1UNL     H9   41  -0.302   0.080  -0.096
    1UNL    H10   42  -0.462   0.339  -0.083
    1UNL    H11   43  -0.384   0.433   0.051
    1UNL    H12   44  -0.640   0.159   0.087
    1UNL    H13   45  -0.430   0.388   0.294
    1UNL    H14   46  -0.456   0.225   0.339
    1UNL    H15   47  -0.231   0.226   0.195
    1UNL    H16   48  -0.370   0.048   0.185
    1UNL    H17   49  -0.458  -0.081   0.006
    1UNL    H18   50  -0.224  -0.136   0.105
    1UNL    H19   51  -0.346  -0.296  -0.091
    1UNL    H20   52  -0.162  -0.393   0.098
    1UNL    H21   53  -0.100  -0.372  -0.173
    1UNL    H22   54   0.026  -0.215   0.113
    1UNL    H23   55   0.100  -0.455  -0.017
    1UNL    H24   56   0.371  -0.131  -0.043
    1UNL    H25   57   0.579  -0.184  -0.138
    1UNL    H26   58   0.229  -0.022  -0.253
    1UNL    H27   59   0.367   0.073  -0.259
    1UNL    H28   60   0.269   0.059   0.021
    1UNL    H29   61   0.387   0.164  -0.027
    1UNL    H30   62   0.145   0.206  -0.193
    1UNL    H31   63   0.060   0.215   0.206
    1UNL    H32   64   0.217   0.161   0.156
    1UNL    H33   65   0.186   0.324   0.198
    1UNL    H34   66  -0.090   0.299   0.001
    1UNL    H35   67   0.004   0.380  -0.130
    1UNL    H36   68   0.025   0.442   0.034
   0.00000   0.00000   0.00000   0.00000   0.00000   0.00000   0.00000   0.00000   0.00000
Generated with MDTraj, t= 58.0
 68
    1UNL     C1    1   0.410  -0.258  -0.332
    1UNL     C2    2   0.365  -0.234  -0.212
    1UNL     C3    3   0.283  -0.335  -0.138
    1UNL     O1    4   0.142  -0.323  -0.181
    1UNL     C4    5   0.063  -0.230  -0.102
    1UNL     O2    6  -0.053  -0.191  -0.177
    1UNL     C5    7  -0.148  -0.117  -0.098
    1UNL     C6    8  -0.085  -0.002  -0.018
    1UNL     O3    9  -0.172   0.075   0.061
    1UNL     C7   10  -0.288   0.117  -0.003
    1UNL     O4   11  -0.288   0.261  -0.035
    1UNL     C8   12  -0.397   0.324   0.024
    1UNL     C9   13  -0.462   0.235   0.137
    1UNL     O5   14  -0.603   0.232   0.152
    1UNL    C10   15  -0.398   0.264   0.276
    1UNL     O6   16  -0.262   0.304   0.265
    1UNL    C11   17  -0.417   0.097   0.084
    1UNL     O7   18  -0.513   0.045  -0.008
    1UNL    C12   19  -0.216  -0.210  -0.005
    1UNL     O8   20  -0.337  -0.236  -0.058
    1UNL    C13   21  -0.132  -0.345   0.007
    1UNL     O9   22  -0.149  -0.432  -0.097
    1UNL    C14   23   0.023  -0.303   0.030
    1UNL    O10   24   0.097  -0.424   0.043
    1UNL    C15   25   0.402  -0.111  -0.136
    1UNL    O11   26   0.535  -0.077  -0.153
    1UNL    C16   27   0.303   0.003  -0.169
    1UNL    C17   28   0.298   0.113  -0.068
    1UNL    C18   29   0.199   0.216  -0.091
    1UNL    C19   30   0.157   0.311  -0.007
    1UNL    C20   31   0.200   0.291   0.136
    1UNL    C21   32   0.035   0.396  -0.040
    1UNL     H1   33   0.396  -0.353  -0.382
    1UNL     H2   34   0.468  -0.182  -0.386
    1UNL     H3   35   0.277  -0.312  -0.031
    1UNL     H4   36   0.302  -0.444  -0.162
    1UNL     H5   37   0.124  -0.149  -0.072
    1UNL     H6   38  -0.229  -0.078  -0.163
    1UNL     H7   39  -0.011  -0.039   0.049
    1UNL     H8   40  -0.034   0.071  -0.077
    1UNL     H9   41  -0.291   0.073  -0.106
    1UNL    H10   42  -0.475   0.351  -0.058
    1UNL    H11   43  -0.358   0.412   0.068
    1UNL    H12   44  -0.651   0.169   0.085
    1UNL    H13   45  -0.450   0.351   0.321
    1UNL    H14   46  -0.404   0.181   0.349
    1UNL    H15   47  -0.223   0.252   0.192
    1UNL    H16   48  -0.405   0.023   0.160
    1UNL    H17   49  -0.466  -0.026  -0.053
    1UNL    H18   50  -0.220  -0.156   0.096
    1UNL    H19   51  -0.328  -0.311  -0.125
    1UNL    H20   52  -0.167  -0.399   0.095
    1UNL    H21   53  -0.120  -0.390  -0.176
    1UNL    H22   54   0.036  -0.252   0.125
    1UNL    H23   55   0.066  -0.485  -0.025
    1UNL    H24   56   0.393  -0.134  -0.028
    1UNL    H25   57   0.590  -0.151  -0.145
    1UNL    H26   58   0.194  -0.024  -0.185
    1UNL    H27   59   0.328   0.038  -0.267
    1UNL    H28   60   0.278   0.077   0.031
    1UNL    H29   61   0.401   0.160  -0.042
    1UNL    H30   62   0.133   0.210  -0.177
    1UNL    H31   63   0.245   0.196   0.155
    1UNL    H32   64   0.280   0.362   0.160
    1UNL    H33   65   0.120   0.304   0.206
    1UNL    H34   66  -0.060   0.349  -0.035
    1UNL    H35   67   0.045   0.436  -0.144
    1UNL    H36   68   0.027   0.494   0.011
   0.00000   0.00000   0.00000   0.00000   0.00000   0.00000   0.00000   0.00000   0.00000
Generated with MDTraj, t= 59.0
 68
    1UNL     C1    1   0.392  -0.237  -0.337
    1UNL     C2    2   0.356  -0.226  -0.212
    1UNL     C3    3   0.294  -0.344  -0.142
    1UNL     O1    4   0.148  -0.352  -0.155
    1UNL     C4    5   0.064  -0.265  -0.082
    1UNL     O2    6  -0.025  -0.195  -0.170
    1UNL     C5    7  -0.131  -0.125  -0.102
    1UNL     C6    8  -0.086   0.010  -0.038
    1UNL     O3    9  -0.184   0.061   0.052
    1UNL     C7   10  -0.299   0.126  -0.017
    1UNL     O4   11  -0.303   0.270  -0.041
    1UNL     C8   12  -0.405   0.332   0.033
    1UNL     C9   13  -0.457   0.233   0.139
    1UNL     O5   14  -0.598   0.245   0.156
    1UNL    C10   15  -0.391   0.260   0.272
    1UNL     O6   16  -0.250   0.249   0.254
    1UNL    C11   17  -0.417   0.099   0.076
    1UNL     O7   18  -0.526   0.023   0.018
    1UNL    C12   19  -0.209  -0.214  -0.004
    1UNL     O8   20  -0.349  -0.229  -0.050
    1UNL    C13   21  -0.146  -0.361   0.006
    1UNL     O9   22  -0.157  -0.418  -0.121
    1UNL    C14   23   0.004  -0.349   0.034
    1UNL    O10   24   0.064  -0.470   0.043
    1UNL    C15   25   0.392  -0.104  -0.128
    1UNL    O11   26   0.531  -0.074  -0.141
    1UNL    C16   27   0.309   0.023  -0.157
    1UNL    C17   28   0.304   0.137  -0.061
    1UNL    C18   29   0.199   0.234  -0.092
    1UNL    C19   30   0.175   0.343  -0.018
    1UNL    C20   31   0.236   0.352   0.121
    1UNL    C21   32   0.064   0.440  -0.055
    1UNL     H1   33   0.371  -0.323  -0.393
    1UNL     H2   34   0.438  -0.160  -0.394
    1UNL     H3   35   0.298  -0.348  -0.031
    1UNL     H4   36   0.339  -0.431  -0.196
    1UNL     H5   37   0.130  -0.196  -0.038
    1UNL     H6   38  -0.209  -0.110  -0.179
    1UNL     H7   39   0.005   0.019   0.020
    1UNL     H8   40  -0.070   0.078  -0.118
    1UNL     H9   41  -0.318   0.070  -0.111
    1UNL    H10   42  -0.490   0.352  -0.043
    1UNL    H11   43  -0.370   0.423   0.074
    1UNL    H12   44  -0.639   0.176   0.109
    1UNL    H13   45  -0.423   0.359   0.314
    1UNL    H14   46  -0.426   0.177   0.342
    1UNL    H15   47  -0.221   0.183   0.187
    1UNL    H16   48  -0.394   0.030   0.157
    1UNL    H17   49  -0.479  -0.055  -0.015
    1UNL    H18   50  -0.216  -0.163   0.097
    1UNL    H19   51  -0.352  -0.290  -0.124
    1UNL    H20   52  -0.201  -0.429   0.075
    1UNL    H21   53  -0.110  -0.359  -0.188
    1UNL    H22   54   0.023  -0.291   0.127
    1UNL    H23   55   0.032  -0.526  -0.035
    1UNL    H24   56   0.390  -0.128  -0.021
    1UNL    H25   57   0.584  -0.147  -0.110
    1UNL    H26   58   0.205  -0.018  -0.157
    1UNL    H27   59   0.328   0.061  -0.257
    1UNL    H28   60   0.287   0.099   0.040
    1UNL    H29   61   0.398   0.194  -0.034
    1UNL    H30   62   0.128   0.225  -0.171
    1UNL    H31   63   0.346   0.360   0.122
    1UNL    H32   64   0.200   0.437   0.173
    1UNL    H33   65   0.213   0.267   0.183
    1UNL    H34   66  -0.033   0.394  -0.057
    1UNL    H35   67   0.091   0.474  -0.159
    1UNL    H36   68   0.064   0.537  -0.006
   0.00000   0.00000   0.00000   0.00000   0.00000   0.00000   0.00000   0.00000   0.00000
Generated with MDTraj, t= 60.0
 68
    1UNL     C1    1   0.335  -0.223  -0.316
    1UNL     C2    2   0.343  -0.218  -0.189
    1UNL     C3    3   0.288  -0.342  -0.115
    1UNL     O1    4   0.157  -0.370  -0.156
    1UNL     C4    5   0.073  -0.275  -0.088
    1UNL     O2    6  -0.013  -0.197  -0.172
    1UNL     C5    7  -0.123  -0.121  -0.111
    1UNL     C6    8  -0.077   0.012  -0.047
    1UNL     O3    9  -0.168   0.049   0.057
    1UNL     C7   10  -0.294   0.081   0.005
    1UNL     O4   11  -0.287   0.211  -0.057
    1UNL     C8   12  -0.382   0.304   0.013
    1UNL     C9   13  -0.448   0.225   0.129
    1UNL     O5   14  -0.590   0.237   0.144
    1UNL    C10   15  -0.382   0.267   0.265
    1UNL     O6   16  -0.243   0.232   0.281
    1UNL    C11   17  -0.409   0.080   0.102
    1UNL     O7   18  -0.515   0.009   0.040
    1UNL    C12   19  -0.210  -0.203  -0.018
    1UNL     O8   20  -0.350  -0.202  -0.053
    1UNL    C13   21  -0.162  -0.348  -0.019
    1UNL     O9   22  -0.193  -0.407  -0.141
    1UNL    C14   23  -0.011  -0.353   0.020
    1UNL    O10   24   0.034  -0.481   0.037
    1UNL    C15   25   0.372  -0.091  -0.113
    1UNL    O11   26   0.512  -0.037  -0.113
    1UNL    C16   27   0.280   0.024  -0.152
    1UNL    C17   28   0.301   0.144  -0.055
    1UNL    C18   29   0.214   0.250  -0.098
    1UNL    C19   30   0.189   0.361  -0.029
    1UNL    C20   31   0.267   0.397   0.094
    1UNL    C21   32   0.082   0.461  -0.067
    1UNL     H1   33   0.292  -0.310  -0.369
    1UNL     H2   34   0.368  -0.142  -0.379
    1UNL     H3   35   0.300  -0.333  -0.004
    1UNL     H4   36   0.332  -0.432  -0.163
    1UNL     H5   37   0.137  -0.207  -0.040
    1UNL     H6   38  -0.185  -0.104  -0.200
    1UNL     H7   39   0.019  -0.006  -0.000
    1UNL     H8   40  -0.062   0.096  -0.111
    1UNL     H9   41  -0.302   0.002  -0.074
    1UNL    H10   42  -0.465   0.340  -0.059
    1UNL    H11   43  -0.331   0.387   0.051
    1UNL    H12   44  -0.630   0.168   0.080
    1UNL    H13   45  -0.388   0.379   0.280
    1UNL    H14   46  -0.431   0.216   0.357
    1UNL    H15   47  -0.219   0.174   0.203
    1UNL    H16   48  -0.381   0.036   0.199
    1UNL    H17   49  -0.467  -0.072   0.008
    1UNL    H18   50  -0.187  -0.166   0.085
    1UNL    H19   51  -0.365  -0.274  -0.112
    1UNL    H20   52  -0.217  -0.413   0.055
    1UNL    H21   53  -0.150  -0.359  -0.214
    1UNL    H22   54   0.006  -0.298   0.117
    1UNL    H23   55   0.048  -0.518  -0.053
    1UNL    H24   56   0.361  -0.122  -0.010
    1UNL    H25   57   0.568  -0.096  -0.054
    1UNL    H26   58   0.176  -0.011  -0.146
    1UNL    H27   59   0.307   0.054  -0.254
    1UNL    H28   60   0.288   0.128   0.054
    1UNL    H29   61   0.409   0.165  -0.052
    1UNL    H30   62   0.144   0.235  -0.180
    1UNL    H31   63   0.315   0.497   0.086
    1UNL    H32   64   0.217   0.397   0.186
    1UNL    H33   65   0.351   0.331   0.111
    1UNL    H34   66  -0.013   0.408  -0.051
    1UNL    H35   67   0.103   0.484  -0.175
    1UNL    H36   68   0.096   0.554  -0.016
   0.00000   0.00000   0.00000   0.00000   0.00000   0.00000   0.00000   0.00000   0.00000
Generated with MDTraj, t= 61.0
 68
    1UNL     C1    1   0.357  -0.209  -0.315
    1UNL     C2    2   0.330  -0.209  -0.189
    1UNL     C3    3   0.281  -0.338  -0.131
    1UNL     O1    4   0.142  -0.371  -0.144
    1UNL     C4    5   0.058  -0.285  -0.067
    1UNL     O2    6  -0.004  -0.187  -0.152
    1UNL     C5    7  -0.123  -0.124  -0.104
    1UNL     C6    8  -0.073  -0.015  -0.004
    1UNL     O3    9  -0.166   0.052   0.076
    1UNL     C7   10  -0.290   0.073   0.007
    1UNL     O4   11  -0.296   0.191  -0.068
    1UNL     C8   12  -0.340   0.294   0.021
    1UNL     C9   13  -0.422   0.217   0.134
    1UNL     O5   14  -0.565   0.242   0.123
    1UNL    C10   15  -0.368   0.269   0.272
    1UNL     O6   16  -0.233   0.271   0.271
    1UNL    C11   17  -0.393   0.067   0.113
    1UNL     O7   18  -0.507  -0.008   0.073
    1UNL    C12   19  -0.236  -0.225  -0.041
    1UNL     O8   20  -0.355  -0.219  -0.117
    1UNL    C13   21  -0.186  -0.372  -0.031
    1UNL     O9   22  -0.180  -0.429  -0.159
    1UNL    C14   23  -0.042  -0.373   0.025
    1UNL    O10   24   0.008  -0.505   0.033
    1UNL    C15   25   0.361  -0.084  -0.094
    1UNL    O11   26   0.499  -0.042  -0.109
    1UNL    C16   27   0.278   0.037  -0.146
    1UNL    C17   28   0.285   0.165  -0.051
    1UNL    C18   29   0.193   0.273  -0.090
    1UNL    C19   30   0.180   0.390  -0.027
    1UNL    C20   31   0.287   0.430   0.069
    1UNL    C21   32   0.094   0.506  -0.079
    1UNL     H1   33   0.329  -0.293  -0.374
    1UNL     H2   34   0.403  -0.133  -0.371
    1UNL     H3   35   0.302  -0.328  -0.022
    1UNL     H4   36   0.341  -0.418  -0.169
    1UNL     H5   37   0.123  -0.228  -0.008
    1UNL     H6   38  -0.163  -0.079  -0.196
    1UNL     H7   39   0.004  -0.050   0.066
    1UNL     H8   40  -0.024   0.057  -0.065
    1UNL     H9   41  -0.304  -0.008  -0.069
    1UNL    H10   42  -0.400   0.365  -0.045
    1UNL    H11   43  -0.260   0.345   0.065
    1UNL    H12   44  -0.593   0.176   0.056
    1UNL    H13   45  -0.398   0.374   0.305
    1UNL    H14   46  -0.397   0.189   0.351
    1UNL    H15   47  -0.197   0.196   0.220
    1UNL    H16   48  -0.349   0.028   0.208
    1UNL    H17   49  -0.487  -0.088   0.014
    1UNL    H18   50  -0.261  -0.186   0.058
    1UNL    H19   51  -0.360  -0.303  -0.174
    1UNL    H20   52  -0.261  -0.428   0.036
    1UNL    H21   53  -0.098  -0.392  -0.203
    1UNL    H22   54  -0.055  -0.330   0.130
    1UNL    H23   55   0.024  -0.545  -0.056
    1UNL    H24   56   0.340  -0.095   0.014
    1UNL    H25   57   0.561  -0.118  -0.148
    1UNL    H26   58   0.176   0.006  -0.155
    1UNL    H27   59   0.325   0.068  -0.243
    1UNL    H28   60   0.271   0.127   0.053
    1UNL    H29   61   0.382   0.204  -0.040
    1UNL    H30   62   0.118   0.263  -0.164
    1UNL    H31   63   0.270   0.523   0.125
    1UNL    H32   64   0.316   0.353   0.136
    1UNL    H33   65   0.376   0.442   0.006
    1UNL    H34   66  -0.012   0.476  -0.067
    1UNL    H35   67   0.115   0.520  -0.185
    1UNL    H36   68   0.113   0.604  -0.036
   0.00000   0.00000   0.00000   0.00000   0.00000   0.00000   0.00000   0.00000   0.00000
Generated with MDTraj, t= 62.0
 68
    1UNL     C1    1   0.327  -0.201  -0.307
    1UNL     C2    2   0.322  -0.203  -0.180
    1UNL     C3    3   0.303  -0.341  -0.113
    1UNL     O1    4   0.166  -0.387  -0.120
    1UNL     C4    5   0.078  -0.291  -0.061
    1UNL     O2    6   0.009  -0.206  -0.153
    1UNL     C5    7  -0.105  -0.129  -0.106
    1UNL     C6    8  -0.070  -0.022   0.004
    1UNL     O3    9  -0.178  -0.009   0.088
    1UNL     C7   10  -0.282   0.070   0.023
    1UNL     O4   11  -0.248   0.204  -0.017
    1UNL     C8   12  -0.366   0.285   0.009
    1UNL     C9   13  -0.435   0.231   0.134
    1UNL     O5   14  -0.573   0.267   0.144
    1UNL    C10   15  -0.363   0.286   0.264
    1UNL     O6   16  -0.226   0.252   0.258
    1UNL    C11   17  -0.415   0.079   0.115
    1UNL     O7   18  -0.528   0.030   0.046
    1UNL    C12   19  -0.225  -0.229  -0.048
    1UNL     O8   20  -0.357  -0.205  -0.092
    1UNL    C13   21  -0.171  -0.372  -0.058
    1UNL     O9   22  -0.166  -0.417  -0.192
    1UNL    C14   23  -0.030  -0.386   0.014
    1UNL    O10   24   0.019  -0.524   0.025
    1UNL    C15   25   0.335  -0.075  -0.100
    1UNL    O11   26   0.468  -0.032  -0.097
    1UNL    C16   27   0.242   0.045  -0.147
    1UNL    C17   28   0.257   0.158  -0.050
    1UNL    C18   29   0.183   0.276  -0.096
    1UNL    C19   30   0.194   0.398  -0.046
    1UNL    C20   31   0.305   0.426   0.048
    1UNL    C21   32   0.109   0.503  -0.091
    1UNL     H1   33   0.322  -0.290  -0.369
    1UNL     H2   34   0.326  -0.108  -0.366
    1UNL     H3   35   0.325  -0.345  -0.005
    1UNL     H4   36   0.373  -0.414  -0.148
    1UNL     H5   37   0.137  -0.233   0.003
    1UNL     H6   38  -0.150  -0.075  -0.190
    1UNL     H7   39   0.018  -0.061   0.058
    1UNL     H8   40  -0.049   0.078  -0.027
    1UNL     H9   41  -0.312   0.010  -0.066
    1UNL    H10   42  -0.433   0.256  -0.078
    1UNL    H11   43  -0.343   0.388   0.007
    1UNL    H12   44  -0.621   0.204   0.088
    1UNL    H13   45  -0.371   0.398   0.258
    1UNL    H14   46  -0.400   0.249   0.366
    1UNL    H15   47  -0.205   0.166   0.214
    1UNL    H16   48  -0.385   0.017   0.204
    1UNL    H17   49  -0.506  -0.048  -0.005
    1UNL    H18   50  -0.239  -0.206   0.056
    1UNL    H19   51  -0.370  -0.250  -0.176
    1UNL    H20   52  -0.234  -0.450  -0.001
    1UNL    H21   53  -0.103  -0.359  -0.242
    1UNL    H22   54  -0.041  -0.354   0.122
    1UNL    H23   55   0.070  -0.556  -0.056
    1UNL    H24   56   0.286  -0.101  -0.004
    1UNL    H25   57   0.536  -0.109  -0.113
    1UNL    H26   58   0.141   0.012  -0.145
    1UNL    H27   59   0.282   0.081  -0.247
    1UNL    H28   60   0.218   0.136   0.052
    1UNL    H29   61   0.356   0.182  -0.035
    1UNL    H30   62   0.102   0.265  -0.170
    1UNL    H31   63   0.273   0.421   0.150
    1UNL    H32   64   0.389   0.359   0.029
    1UNL    H33   65   0.349   0.524   0.029
    1UNL    H34   66   0.001   0.479  -0.071
    1UNL    H35   67   0.114   0.508  -0.198
    1UNL    H36   68   0.129   0.605  -0.059
   0.00000   0.00000   0.00000   0.00000   0.00000   0.00000   0.00000   0.00000   0.00000
Generated with MDTraj, t= 63.0
 68
    1UNL     C1    1   0.304  -0.187  -0.313
    1UNL     C2    2   0.302  -0.197  -0.184
    1UNL     C3    3   0.299  -0.323  -0.116
    1UNL     O1    4   0.171  -0.386  -0.114
    1UNL     C4    5   0.070  -0.318  -0.033
    1UNL     O2    6   0.020  -0.208  -0.106
    1UNL     C5    7  -0.100  -0.133  -0.065
    1UNL     C6    8  -0.067  -0.036   0.045
    1UNL     O3    9  -0.173   0.028   0.105
    1UNL     C7   10  -0.281   0.070   0.019
    1UNL     O4   11  -0.253   0.193  -0.045
    1UNL     C8   12  -0.334   0.292   0.018
    1UNL     C9   13  -0.421   0.226   0.130
    1UNL     O5   14  -0.556   0.271   0.124
    1UNL    C10   15  -0.370   0.253   0.270
    1UNL     O6   16  -0.223   0.255   0.273
    1UNL    C11   17  -0.414   0.079   0.100
    1UNL     O7   18  -0.523   0.037   0.024
    1UNL    C12   19  -0.219  -0.235  -0.031
    1UNL     O8   20  -0.339  -0.209  -0.102
    1UNL    C13   21  -0.169  -0.379  -0.061
    1UNL     O9   22  -0.147  -0.383  -0.200
    1UNL    C14   23  -0.043  -0.417   0.013
    1UNL    O10   24   0.001  -0.546  -0.012
    1UNL    C15   25   0.325  -0.072  -0.098
    1UNL    O11   26   0.457  -0.026  -0.116
    1UNL    C16   27   0.230   0.043  -0.145
    1UNL    C17   28   0.247   0.156  -0.052
    1UNL    C18   29   0.165   0.276  -0.091
    1UNL    C19   30   0.197   0.403  -0.059
    1UNL    C20   31   0.303   0.438   0.041
    1UNL    C21   32   0.103   0.507  -0.117
    1UNL     H1   33   0.305  -0.280  -0.365
    1UNL     H2   34   0.312  -0.105  -0.378
    1UNL     H3   35   0.359  -0.324  -0.023
    1UNL     H4   36   0.354  -0.390  -0.177
    1UNL     H5   37   0.117  -0.283   0.055
    1UNL     H6   38  -0.129  -0.076  -0.154
    1UNL     H7   39  -0.026  -0.100   0.129
    1UNL     H8   40   0.008   0.035   0.017
    1UNL     H9   41  -0.307  -0.006  -0.060
    1UNL    H10   42  -0.387   0.344  -0.064
    1UNL    H11   43  -0.269   0.358   0.071
    1UNL    H12   44  -0.601   0.221   0.046
    1UNL    H13   45  -0.401   0.348   0.316
    1UNL    H14   46  -0.416   0.172   0.333
    1UNL    H15   47  -0.196   0.175   0.220
    1UNL    H16   48  -0.419   0.024   0.198
    1UNL    H17   49  -0.492  -0.040  -0.035
    1UNL    H18   50  -0.251  -0.223   0.070
    1UNL    H19   51  -0.318  -0.244  -0.188
    1UNL    H20   52  -0.258  -0.452  -0.039
    1UNL    H21   53  -0.071  -0.326  -0.219
    1UNL    H22   54  -0.055  -0.399   0.122
    1UNL    H23   55   0.056  -0.551  -0.089
    1UNL    H24   56   0.300  -0.104   0.007
    1UNL    H25   57   0.523  -0.086  -0.074
    1UNL    H26   58   0.127   0.018  -0.146
    1UNL    H27   59   0.278   0.074  -0.245
    1UNL    H28   60   0.219   0.126   0.051
    1UNL    H29   61   0.344   0.190  -0.047
    1UNL    H30   62   0.070   0.265  -0.135
    1UNL    H31   63   0.338   0.348   0.085
    1UNL    H32   64   0.393   0.496   0.004
    1UNL    H33   65   0.269   0.491   0.127
    1UNL    H34   66  -0.003   0.504  -0.079
    1UNL    H35   67   0.095   0.491  -0.222
    1UNL    H36   68   0.149   0.607  -0.106
   0.00000   0.00000   0.00000   0.00000   0.00000   0.00000   0.00000   0.00000   0.00000
Generated with MDTraj, t= 64.0
 68
    1UNL     C1    1   0.270  -0.208  -0.308
    1UNL     C2    2   0.295  -0.204  -0.179
    1UNL     C3    3   0.293  -0.338  -0.103
    1UNL     O1    4   0.171  -0.400  -0.109
    1UNL     C4    5   0.078  -0.329  -0.030
    1UNL     O2    6   0.037  -0.202  -0.090
    1UNL     C5    7  -0.092  -0.146  -0.038
    1UNL     C6    8  -0.062  -0.060   0.080
    1UNL     O3    9  -0.169   0.016   0.135
    1UNL     C7   10  -0.262   0.071   0.042
    1UNL     O4   11  -0.222   0.197  -0.024
    1UNL     C8   12  -0.301   0.298   0.027
    1UNL     C9   13  -0.415   0.239   0.117
    1UNL     O5   14  -0.547   0.283   0.084
    1UNL    C10   15  -0.384   0.266   0.264
    1UNL     O6   16  -0.252   0.232   0.305
    1UNL    C11   17  -0.406   0.082   0.096
    1UNL     O7   18  -0.503   0.032   0.008
    1UNL    C12   19  -0.213  -0.237  -0.036
    1UNL     O8   20  -0.323  -0.181  -0.117
    1UNL    C13   21  -0.172  -0.382  -0.069
    1UNL     O9   22  -0.144  -0.383  -0.208
    1UNL    C14   23  -0.040  -0.427   0.002
    1UNL    O10   24  -0.015  -0.559  -0.034
    1UNL    C15   25   0.322  -0.064  -0.117
    1UNL    O11   26   0.457  -0.033  -0.139
    1UNL    C16   27   0.222   0.048  -0.143
    1UNL    C17   28   0.241   0.176  -0.057
    1UNL    C18   29   0.153   0.285  -0.099
    1UNL    C19   30   0.178   0.414  -0.073
    1UNL    C20   31   0.285   0.461   0.029
    1UNL    C21   32   0.079   0.524  -0.112
    1UNL     H1   33   0.228  -0.294  -0.362
    1UNL     H2   34   0.267  -0.118  -0.366
    1UNL     H3   35   0.315  -0.324   0.006
    1UNL     H4   36   0.374  -0.397  -0.140
    1UNL     H5   37   0.113  -0.307   0.069
    1UNL     H6   38  -0.108  -0.084  -0.128
    1UNL     H7   39  -0.018  -0.119   0.166
    1UNL     H8   40   0.015   0.007   0.054
    1UNL     H9   41  -0.266   0.007  -0.048
    1UNL    H10   42  -0.356   0.344  -0.056
    1UNL    H11   43  -0.237   0.370   0.076
    1UNL    H12   44  -0.579   0.228   0.015
    1UNL    H13   45  -0.403   0.371   0.280
    1UNL    H14   46  -0.448   0.216   0.338
    1UNL    H15   47  -0.213   0.159   0.255
    1UNL    H16   48  -0.408   0.027   0.194
    1UNL    H17   49  -0.460  -0.042  -0.033
    1UNL    H18   50  -0.237  -0.234   0.068
    1UNL    H19   51  -0.310  -0.216  -0.211
    1UNL    H20   52  -0.258  -0.460  -0.050
    1UNL    H21   53  -0.047  -0.362  -0.222
    1UNL    H22   54  -0.049  -0.433   0.111
    1UNL    H23   55  -0.000  -0.574  -0.131
    1UNL    H24   56   0.320  -0.095  -0.009
    1UNL    H25   57   0.522  -0.095  -0.114
    1UNL    H26   58   0.131  -0.002  -0.121
    1UNL    H27   59   0.230   0.087  -0.252
    1UNL    H28   60   0.227   0.163   0.051
    1UNL    H29   61   0.340   0.212  -0.068
    1UNL    H30   62   0.057   0.258  -0.147
    1UNL    H31   63   0.334   0.381   0.083
    1UNL    H32   64   0.358   0.536  -0.010
    1UNL    H33   65   0.234   0.513   0.108
    1UNL    H34   66  -0.019   0.521  -0.061
    1UNL    H35   67   0.063   0.511  -0.217
    1UNL    H36   68   0.131   0.621  -0.097
   0.00000   0.00000   0.00000   0.00000   0.00000   0.00000   0.00000   0.00000   0.00000
Generated with MDTraj, t= 65.0
 68
    1UNL     C1    1   0.229  -0.217  -0.302
    1UNL     C2    2   0.277  -0.196  -0.180
    1UNL     C3    3   0.304  -0.309  -0.087
    1UNL     O1    4   0.193  -0.393  -0.068
    1UNL     C4    5   0.072  -0.337  -0.009
    1UNL     O2    6   0.034  -0.218  -0.093
    1UNL     C5    7  -0.084  -0.140  -0.048
    1UNL     C6    8  -0.057  -0.072   0.088
    1UNL     O3    9  -0.184  -0.037   0.146
    1UNL     C7   10  -0.239   0.065   0.065
    1UNL     O4   11  -0.171   0.194   0.079
    1UNL     C8   12  -0.272   0.296   0.049
    1UNL     C9   13  -0.407   0.245   0.115
    1UNL     O5   14  -0.521   0.289   0.034
    1UNL    C10   15  -0.406   0.294   0.262
    1UNL     O6   16  -0.296   0.241   0.326
    1UNL    C11   17  -0.390   0.091   0.096
    1UNL     O7   18  -0.466   0.046  -0.016
    1UNL    C12   19  -0.208  -0.235  -0.049
    1UNL     O8   20  -0.324  -0.179  -0.117
    1UNL    C13   21  -0.176  -0.375  -0.100
    1UNL     O9   22  -0.132  -0.375  -0.235
    1UNL    C14   23  -0.060  -0.429   0.000
    1UNL    O10   24  -0.017  -0.554  -0.032
    1UNL    C15   25   0.313  -0.062  -0.120
    1UNL    O11   26   0.446  -0.022  -0.162
    1UNL    C16   27   0.216   0.039  -0.164
    1UNL    C17   28   0.255   0.174  -0.096
    1UNL    C18   29   0.158   0.282  -0.114
    1UNL    C19   30   0.155   0.408  -0.071
    1UNL    C20   31   0.269   0.456   0.013
    1UNL    C21   32   0.040   0.497  -0.096
    1UNL     H1   33   0.205  -0.314  -0.338
    1UNL     H2   34   0.218  -0.143  -0.377
    1UNL     H3   35   0.340  -0.258   0.007
    1UNL     H4   36   0.390  -0.359  -0.129
    1UNL     H5   37   0.089  -0.297   0.089
    1UNL     H6   38  -0.100  -0.070  -0.132
    1UNL     H7   39  -0.006  -0.148   0.157
    1UNL     H8   40   0.006   0.014   0.089
    1UNL     H9   41  -0.237   0.036  -0.042
    1UNL    H10   42  -0.278   0.312  -0.058
    1UNL    H11   43  -0.245   0.391   0.096
    1UNL    H12   44  -0.545   0.226  -0.046
    1UNL    H13   45  -0.397   0.398   0.280
    1UNL    H14   46  -0.501   0.271   0.305
    1UNL    H15   47  -0.247   0.168   0.277
    1UNL    H16   48  -0.431   0.033   0.181
    1UNL    H17   49  -0.423  -0.043  -0.047
    1UNL    H18   50  -0.241  -0.236   0.054
    1UNL    H19   51  -0.323  -0.188  -0.214
    1UNL    H20   52  -0.273  -0.440  -0.094
    1UNL    H21   53  -0.060  -0.311  -0.234
    1UNL    H22   54  -0.091  -0.433   0.103
    1UNL    H23   55   0.048  -0.551  -0.108
    1UNL    H24   56   0.329  -0.083  -0.014
    1UNL    H25   57   0.503  -0.097  -0.160
    1UNL    H26   58   0.113   0.015  -0.136
    1UNL    H27   59   0.222   0.042  -0.279
    1UNL    H28   60   0.266   0.167   0.011
    1UNL    H29   61   0.352   0.211  -0.125
    1UNL    H30   62   0.072   0.254  -0.168
    1UNL    H31   63   0.279   0.387   0.099
    1UNL    H32   64   0.358   0.458  -0.052
    1UNL    H33   65   0.254   0.553   0.054
    1UNL    H34   66  -0.050   0.461  -0.048
    1UNL    H35   67   0.020   0.501  -0.204
    1UNL    H36   68   0.056   0.600  -0.058
   0.00000   0.00000   0.00000   0.00000   0.00000   0.00000   0.00000   0.00000   0.00000
Generated with MDTraj, t= 66.0
 68
    1UNL     C1    1   0.266  -0.238  -0.306
    1UNL     C2    2   0.290  -0.204  -0.180
    1UNL     C3    3   0.290  -0.311  -0.070
    1UNL     O1    4   0.177  -0.401  -0.075
    1UNL     C4    5   0.072  -0.349  -0.003
    1UNL     O2    6   0.042  -0.212  -0.052
    1UNL     C5    7  -0.085  -0.153  -0.020
    1UNL     C6    8  -0.080  -0.091   0.122
    1UNL     O3    9  -0.206  -0.037   0.149
    1UNL     C7   10  -0.234   0.077   0.065
    1UNL     O4   11  -0.160   0.196   0.096
    1UNL     C8   12  -0.253   0.309   0.103
    1UNL     C9   13  -0.389   0.261   0.121
    1UNL     O5   14  -0.473   0.319   0.024
    1UNL    C10   15  -0.443   0.288   0.260
    1UNL     O6   16  -0.344   0.269   0.361
    1UNL    C11   17  -0.379   0.103   0.088
    1UNL     O7   18  -0.453   0.066  -0.034
    1UNL    C12   19  -0.216  -0.243  -0.054
    1UNL     O8   20  -0.285  -0.174  -0.154
    1UNL    C13   21  -0.164  -0.384  -0.098
    1UNL     O9   22  -0.116  -0.375  -0.233
    1UNL    C14   23  -0.053  -0.444  -0.001
    1UNL    O10   24  -0.017  -0.569  -0.052
    1UNL    C15   25   0.327  -0.061  -0.152
    1UNL    O11   26   0.457  -0.028  -0.218
    1UNL    C16   27   0.209   0.038  -0.163
    1UNL    C17   28   0.239   0.180  -0.118
    1UNL    C18   29   0.128   0.280  -0.133
    1UNL    C19   30   0.124   0.394  -0.063
    1UNL    C20   31   0.247   0.457  -0.007
    1UNL    C21   32   0.018   0.488  -0.082
    1UNL     H1   33   0.246  -0.340  -0.336
    1UNL     H2   34   0.282  -0.171  -0.390
    1UNL     H3   35   0.295  -0.244   0.023
    1UNL     H4   36   0.388  -0.361  -0.077
    1UNL     H5   37   0.105  -0.331   0.101
    1UNL     H6   38  -0.089  -0.065  -0.087
    1UNL     H7   39  -0.065  -0.173   0.200
    1UNL     H8   40   0.003  -0.023   0.129
    1UNL     H9   41  -0.217   0.051  -0.039
    1UNL    H10   42  -0.247   0.369   0.016
    1UNL    H11   43  -0.221   0.367   0.191
    1UNL    H12   44  -0.507   0.252  -0.035
    1UNL    H13   45  -0.483   0.385   0.261
    1UNL    H14   46  -0.525   0.229   0.292
    1UNL    H15   47  -0.292   0.188   0.346
    1UNL    H16   48  -0.417   0.034   0.164
    1UNL    H17   49  -0.415  -0.013  -0.079
    1UNL    H18   50  -0.283  -0.253   0.033
    1UNL    H19   51  -0.254  -0.201  -0.243
    1UNL    H20   52  -0.249  -0.464  -0.091
    1UNL    H21   53  -0.020  -0.348  -0.217
    1UNL    H22   54  -0.076  -0.455   0.103
    1UNL    H23   55   0.036  -0.552  -0.130
    1UNL    H24   56   0.359  -0.065  -0.047
    1UNL    H25   57   0.510  -0.113  -0.232
    1UNL    H26   58   0.114  -0.006  -0.117
    1UNL    H27   59   0.176   0.067  -0.270
    1UNL    H28   60   0.269   0.183  -0.017
    1UNL    H29   61   0.329   0.222  -0.166
    1UNL    H30   62   0.041   0.254  -0.194
    1UNL    H31   63   0.234   0.499   0.096
    1UNL    H32   64   0.324   0.383  -0.008
    1UNL    H33   65   0.296   0.533  -0.066
    1UNL    H34   66  -0.070   0.452  -0.037
    1UNL    H35   67  -0.003   0.518  -0.189
    1UNL    H36   68   0.046   0.577  -0.024
   0.00000   0.00000   0.00000   0.00000   0.00000   0.00000   0.00000   0.00000   0.00000
Generated with MDTraj, t= 67.0
 68
    1UNL     C1    1   0.274  -0.277  -0.307
    1UNL     C2    2   0.306  -0.217  -0.189
    1UNL     C3    3   0.307  -0.311  -0.072
    1UNL     O1    4   0.188  -0.389  -0.077
    1UNL     C4    5   0.080  -0.330  -0.004
    1UNL     O2    6   0.049  -0.198  -0.045
    1UNL     C5    7  -0.082  -0.148  -0.012
    1UNL     C6    8  -0.101  -0.100   0.132
    1UNL     O3    9  -0.225  -0.042   0.170
    1UNL     C7   10  -0.251   0.084   0.109
    1UNL     O4   11  -0.178   0.194   0.166
    1UNL     C8   12  -0.251   0.307   0.121
    1UNL     C9   13  -0.406   0.271   0.119
    1UNL     O5   14  -0.473   0.345   0.016
    1UNL    C10   15  -0.459   0.296   0.257
    1UNL     O6   16  -0.385   0.223   0.358
    1UNL    C11   17  -0.398   0.120   0.087
    1UNL     O7   18  -0.430   0.086  -0.049
    1UNL    C12   19  -0.203  -0.240  -0.059
    1UNL     O8   20  -0.282  -0.167  -0.145
    1UNL    C13   21  -0.144  -0.370  -0.116
    1UNL     O9   22  -0.077  -0.328  -0.235
    1UNL    C14   23  -0.049  -0.429  -0.013
    1UNL    O10   24  -0.006  -0.561  -0.050
    1UNL    C15   25   0.337  -0.073  -0.162
    1UNL    O11   26   0.409  -0.022  -0.266
    1UNL    C16   27   0.210   0.007  -0.143
    1UNL    C17   28   0.237   0.151  -0.112
    1UNL    C18   29   0.129   0.259  -0.126
    1UNL    C19   30   0.128   0.383  -0.075
    1UNL    C20   31   0.261   0.439  -0.026
    1UNL    C21   32   0.020   0.472  -0.122
    1UNL     H1   33   0.245  -0.379  -0.323
    1UNL     H2   34   0.264  -0.218  -0.395
    1UNL     H3   35   0.313  -0.252   0.025
    1UNL     H4   36   0.396  -0.380  -0.077
    1UNL     H5   37   0.115  -0.341   0.102
    1UNL     H6   38  -0.087  -0.055  -0.070
    1UNL     H7   39  -0.069  -0.193   0.194
    1UNL     H8   40  -0.032  -0.020   0.152
    1UNL     H9   41  -0.202   0.066   0.014
    1UNL    H10   42  -0.212   0.326   0.027
    1UNL    H11   43  -0.218   0.390   0.185
    1UNL    H12   44  -0.469   0.298  -0.071
    1UNL    H13   45  -0.441   0.396   0.284
    1UNL    H14   46  -0.565   0.289   0.255
    1UNL    H15   47  -0.292   0.210   0.326
    1UNL    H16   48  -0.461   0.064   0.155
    1UNL    H17   49  -0.427  -0.010  -0.060
    1UNL    H18   50  -0.271  -0.265   0.027
    1UNL    H19   51  -0.249  -0.183  -0.240
    1UNL    H20   52  -0.234  -0.431  -0.157
    1UNL    H21   53   0.010  -0.296  -0.209
    1UNL    H22   54  -0.094  -0.444   0.084
    1UNL    H23   55   0.046  -0.560  -0.137
    1UNL    H24   56   0.401  -0.062  -0.072
    1UNL    H25   57   0.481  -0.089  -0.305
    1UNL    H26   58   0.134  -0.020  -0.056
    1UNL    H27   59   0.139  -0.003  -0.232
    1UNL    H28   60   0.271   0.160  -0.014
    1UNL    H29   61   0.328   0.181  -0.166
    1UNL    H30   62   0.042   0.236  -0.185
    1UNL    H31   63   0.260   0.550  -0.020
    1UNL    H32   64   0.289   0.398   0.068
    1UNL    H33   65   0.351   0.408  -0.081
    1UNL    H34   66  -0.079   0.422  -0.103
    1UNL    H35   67   0.029   0.501  -0.231
    1UNL    H36   68   0.020   0.560  -0.061
   0.00000   0.00000   0.00000   0.00000   0.00000   0.00000   0.00000   0.00000   0.00000
Generated with MDTraj, t= 68.0
 68
    1UNL     C1    1   0.271  -0.282  -0.299
    1UNL     C2    2   0.310  -0.225  -0.184
    1UNL     C3    3   0.296  -0.293  -0.058
    1UNL     O1    4   0.195  -0.390  -0.048
    1UNL     C4    5   0.071  -0.336   0.015
    1UNL     O2    6   0.050  -0.200  -0.022
    1UNL     C5    7  -0.071  -0.134   0.008
    1UNL     C6    8  -0.097  -0.101   0.149
    1UNL     O3    9  -0.227  -0.053   0.169
    1UNL     C7   10  -0.242   0.074   0.104
    1UNL     O4   11  -0.171   0.189   0.166
    1UNL     C8   12  -0.259   0.303   0.164
    1UNL     C9   13  -0.402   0.261   0.129
    1UNL     O5   14  -0.446   0.352   0.027
    1UNL    C10   15  -0.496   0.263   0.255
    1UNL     O6   16  -0.446   0.189   0.363
    1UNL    C11   17  -0.397   0.111   0.079
    1UNL     O7   18  -0.434   0.097  -0.055
    1UNL    C12   19  -0.195  -0.207  -0.056
    1UNL     O8   20  -0.262  -0.130  -0.151
    1UNL    C13   21  -0.138  -0.341  -0.111
    1UNL     O9   22  -0.070  -0.318  -0.234
    1UNL    C14   23  -0.058  -0.423  -0.016
    1UNL    O10   24  -0.027  -0.551  -0.068
    1UNL    C15   25   0.338  -0.075  -0.189
    1UNL    O11   26   0.383  -0.017  -0.307
    1UNL    C16   27   0.219   0.009  -0.139
    1UNL    C17   28   0.268   0.154  -0.117
    1UNL    C18   29   0.153   0.241  -0.132
    1UNL    C19   30   0.152   0.371  -0.108
    1UNL    C20   31   0.271   0.444  -0.057
    1UNL    C21   32   0.028   0.448  -0.150
    1UNL     H1   33   0.239  -0.386  -0.299
    1UNL     H2   34   0.250  -0.224  -0.386
    1UNL     H3   35   0.291  -0.212   0.022
    1UNL     H4   36   0.388  -0.348  -0.030
    1UNL     H5   37   0.093  -0.334   0.127
    1UNL     H6   38  -0.054  -0.040  -0.047
    1UNL     H7   39  -0.091  -0.190   0.224
    1UNL     H8   40  -0.028  -0.024   0.180
    1UNL     H9   41  -0.197   0.067   0.005
    1UNL    H10   42  -0.221   0.368   0.095
    1UNL    H11   43  -0.249   0.352   0.263
    1UNL    H12   44  -0.493   0.296  -0.045
    1UNL    H13   45  -0.523   0.365   0.276
    1UNL    H14   46  -0.593   0.219   0.235
    1UNL    H15   47  -0.380   0.124   0.326
    1UNL    H16   48  -0.464   0.048   0.135
    1UNL    H17   49  -0.414   0.003  -0.093
    1UNL    H18   50  -0.270  -0.240   0.024
    1UNL    H19   51  -0.209  -0.131  -0.231
    1UNL    H20   52  -0.229  -0.405  -0.140
    1UNL    H21   53   0.013  -0.264  -0.208
    1UNL    H22   54  -0.112  -0.448   0.078
    1UNL    H23   55   0.033  -0.545  -0.145
    1UNL    H24   56   0.424  -0.062  -0.118
    1UNL    H25   57   0.448  -0.081  -0.357
    1UNL    H26   58   0.176  -0.045  -0.044
    1UNL    H27   59   0.118   0.008  -0.196
    1UNL    H28   60   0.317   0.169  -0.028
    1UNL    H29   61   0.343   0.182  -0.194
    1UNL    H30   62   0.054   0.206  -0.156
    1UNL    H31   63   0.282   0.533  -0.120
    1UNL    H32   64   0.241   0.476   0.040
    1UNL    H33   65   0.366   0.390  -0.040
    1UNL    H34   66  -0.033   0.387  -0.227
    1UNL    H35   67   0.047   0.548  -0.192
    1UNL    H36   68  -0.041   0.459  -0.069
   0.00000   0.00000   0.00000   0.00000   0.00000   0.00000   0.00000   0.00000   0.00000
Generated with MDTraj, t= 69.0
 68
    1UNL     C1    1   0.258  -0.301  -0.290
    1UNL     C2    2   0.289  -0.236  -0.174
    1UNL     C3    3   0.290  -0.321  -0.047
    1UNL     O1    4   0.180  -0.404  -0.030
    1UNL     C4    5   0.067  -0.336   0.021
    1UNL     O2    6   0.071  -0.191  -0.004
    1UNL     C5    7  -0.054  -0.119   0.013
    1UNL     C6    8  -0.098  -0.099   0.156
    1UNL     O3    9  -0.228  -0.041   0.174
    1UNL     C7   10  -0.234   0.079   0.108
    1UNL     O4   11  -0.185   0.186   0.188
    1UNL     C8   12  -0.276   0.298   0.195
    1UNL     C9   13  -0.413   0.248   0.145
    1UNL     O5   14  -0.457   0.343   0.044
    1UNL    C10   15  -0.522   0.234   0.259
    1UNL     O6   16  -0.484   0.160   0.369
    1UNL    C11   17  -0.390   0.111   0.080
    1UNL     O7   18  -0.406   0.105  -0.056
    1UNL    C12   19  -0.180  -0.181  -0.071
    1UNL     O8   20  -0.228  -0.099  -0.178
    1UNL    C13   21  -0.140  -0.323  -0.126
    1UNL     O9   22  -0.056  -0.315  -0.245
    1UNL    C14   23  -0.066  -0.408  -0.023
    1UNL    O10   24  -0.033  -0.532  -0.070
    1UNL    C15   25   0.347  -0.093  -0.185
    1UNL    O11   26   0.388  -0.063  -0.314
    1UNL    C16   27   0.241   0.008  -0.141
    1UNL    C17   28   0.276   0.161  -0.156
    1UNL    C18   29   0.150   0.250  -0.147
    1UNL    C19   30   0.151   0.384  -0.135
    1UNL    C20   31   0.276   0.475  -0.109
    1UNL    C21   32   0.023   0.463  -0.131
    1UNL     H1   33   0.233  -0.405  -0.282
    1UNL     H2   34   0.257  -0.253  -0.386
    1UNL     H3   35   0.308  -0.282   0.056
    1UNL     H4   36   0.379  -0.384  -0.052
    1UNL     H5   37   0.072  -0.326   0.136
    1UNL     H6   38  -0.033  -0.028  -0.042
    1UNL     H7   39  -0.106  -0.200   0.213
    1UNL     H8   40  -0.036  -0.037   0.219
    1UNL     H9   41  -0.188   0.076   0.011
    1UNL    H10   42  -0.234   0.373   0.138
    1UNL    H11   43  -0.271   0.333   0.301
    1UNL    H12   44  -0.465   0.298  -0.037
    1UNL    H13   45  -0.559   0.332   0.293
    1UNL    H14   46  -0.613   0.190   0.212
    1UNL    H15   47  -0.422   0.090   0.341
    1UNL    H16   48  -0.454   0.037   0.126
    1UNL    H17   49  -0.378   0.022  -0.092
    1UNL    H18   50  -0.267  -0.192   0.004
    1UNL    H19   51  -0.170  -0.111  -0.256
    1UNL    H20   52  -0.236  -0.376  -0.153
    1UNL    H21   53   0.027  -0.289  -0.209
    1UNL    H22   54  -0.131  -0.415   0.069
    1UNL    H23   55   0.029  -0.520  -0.142
    1UNL    H24   56   0.439  -0.101  -0.122
    1UNL    H25   57   0.448  -0.130  -0.353
    1UNL    H26   58   0.187  -0.013  -0.043
    1UNL    H27   59   0.151  -0.031  -0.204
    1UNL    H28   60   0.338   0.188  -0.077
    1UNL    H29   61   0.336   0.178  -0.247
    1UNL    H30   62   0.050   0.207  -0.136
    1UNL    H31   63   0.300   0.543  -0.187
    1UNL    H32   64   0.248   0.537  -0.025
    1UNL    H33   65   0.373   0.429  -0.079
    1UNL    H34   66  -0.002   0.506  -0.232
    1UNL    H35   67   0.029   0.545  -0.060
    1UNL    H36   68  -0.063   0.397  -0.104
   0.00000   0.00000   0.00000   0.00000   0.00000   0.00000   0.00000   0.00000   0.00000
Generated with MDTraj, t= 70.0
 68
    1UNL     C1    1   0.264  -0.296  -0.286
    1UNL     C2    2   0.300  -0.241  -0.169
    1UNL     C3    3   0.287  -0.316  -0.043
    1UNL     O1    4   0.166  -0.390  -0.033
    1UNL     C4    5   0.061  -0.316   0.035
    1UNL     O2    6   0.072  -0.180  -0.006
    1UNL     C5    7  -0.055  -0.102   0.008
    1UNL     C6    8  -0.100  -0.090   0.156
    1UNL     O3    9  -0.240  -0.053   0.174
    1UNL     C7   10  -0.245   0.085   0.144
    1UNL     O4   11  -0.223   0.183   0.243
    1UNL     C8   12  -0.300   0.297   0.209
    1UNL     C9   13  -0.431   0.241   0.148
    1UNL     O5   14  -0.485   0.338   0.055
    1UNL    C10   15  -0.527   0.208   0.265
    1UNL     O6   16  -0.469   0.117   0.356
    1UNL    C11   17  -0.382   0.114   0.076
    1UNL     O7   18  -0.376   0.130  -0.067
    1UNL    C12   19  -0.168  -0.164  -0.082
    1UNL     O8   20  -0.200  -0.076  -0.186
    1UNL    C13   21  -0.128  -0.298  -0.137
    1UNL     O9   22  -0.036  -0.285  -0.251
    1UNL    C14   23  -0.068  -0.384  -0.017
    1UNL    O10   24  -0.046  -0.522  -0.053
    1UNL    C15   25   0.342  -0.094  -0.179
    1UNL    O11   26   0.428  -0.072  -0.291
    1UNL    C16   27   0.216  -0.008  -0.178
    1UNL    C17   28   0.256   0.140  -0.193
    1UNL    C18   29   0.133   0.230  -0.156
    1UNL    C19   30   0.148   0.362  -0.154
    1UNL    C20   31   0.284   0.421  -0.187
    1UNL    C21   32   0.049   0.454  -0.094
    1UNL     H1   33   0.230  -0.398  -0.285
    1UNL     H2   34   0.277  -0.243  -0.380
    1UNL     H3   35   0.300  -0.250   0.041
    1UNL     H4   36   0.372  -0.379  -0.020
    1UNL     H5   37   0.062  -0.325   0.151
    1UNL     H6   38  -0.042  -0.003  -0.037
    1UNL     H7   39  -0.086  -0.188   0.214
    1UNL     H8   40  -0.041  -0.016   0.207
    1UNL     H9   41  -0.168   0.109   0.072
    1UNL    H10   42  -0.248   0.349   0.136
    1UNL    H11   43  -0.303   0.361   0.302
    1UNL    H12   44  -0.466   0.291  -0.036
    1UNL    H13   45  -0.550   0.306   0.318
    1UNL    H14   46  -0.631   0.173   0.231
    1UNL    H15   47  -0.370   0.119   0.358
    1UNL    H16   48  -0.455   0.038   0.109
    1UNL    H17   49  -0.344   0.041  -0.100
    1UNL    H18   50  -0.254  -0.176  -0.006
    1UNL    H19   51  -0.144  -0.091  -0.266
    1UNL    H20   52  -0.212  -0.347  -0.190
    1UNL    H21   53   0.053  -0.259  -0.208
    1UNL    H22   54  -0.150  -0.399   0.063
    1UNL    H23   55   0.043  -0.538  -0.099
    1UNL    H24   56   0.406  -0.077  -0.089
    1UNL    H25   57   0.492  -0.136  -0.308
    1UNL    H26   58   0.155  -0.049  -0.097
    1UNL    H27   59   0.149  -0.035  -0.269
    1UNL    H28   60   0.330   0.150  -0.117
    1UNL    H29   61   0.302   0.160  -0.290
    1UNL    H30   62   0.047   0.197  -0.102
    1UNL    H31   63   0.307   0.445  -0.288
    1UNL    H32   64   0.313   0.510  -0.128
    1UNL    H33   65   0.363   0.349  -0.161
    1UNL    H34   66   0.100   0.541  -0.059
    1UNL    H35   67  -0.004   0.407  -0.009
    1UNL    H36   68  -0.024   0.485  -0.174
   0.00000   0.00000   0.00000   0.00000   0.00000   0.00000   0.00000   0.00000   0.00000
Generated with MDTraj, t= 71.0
 68
    1UNL     C1    1   0.335  -0.331  -0.287
    1UNL     C2    2   0.317  -0.253  -0.177
    1UNL     C3    3   0.274  -0.313  -0.048
    1UNL     O1    4   0.155  -0.387  -0.050
    1UNL     C4    5   0.053  -0.315   0.025
    1UNL     O2    6   0.064  -0.175   0.009
    1UNL     C5    7  -0.061  -0.099   0.034
    1UNL     C6    8  -0.113  -0.106   0.178
    1UNL     O3    9  -0.244  -0.042   0.181
    1UNL     C7   10  -0.246   0.097   0.138
    1UNL     O4   11  -0.218   0.199   0.231
    1UNL     C8   12  -0.329   0.294   0.240
    1UNL     C9   13  -0.446   0.235   0.164
    1UNL     O5   14  -0.507   0.337   0.081
    1UNL    C10   15  -0.548   0.168   0.257
    1UNL     O6   16  -0.492   0.075   0.354
    1UNL    C11   17  -0.386   0.130   0.069
    1UNL     O7   18  -0.356   0.177  -0.065
    1UNL    C12   19  -0.170  -0.144  -0.066
    1UNL     O8   20  -0.167  -0.051  -0.169
    1UNL    C13   21  -0.143  -0.285  -0.126
    1UNL     O9   22  -0.048  -0.277  -0.227
    1UNL    C14   23  -0.080  -0.382  -0.014
    1UNL    O10   24  -0.062  -0.519  -0.051
    1UNL    C15   25   0.351  -0.102  -0.189
    1UNL    O11   26   0.445  -0.072  -0.287
    1UNL    C16   27   0.227  -0.013  -0.225
    1UNL    C17   28   0.271   0.137  -0.220
    1UNL    C18   29   0.169   0.228  -0.150
    1UNL    C19   30   0.168   0.359  -0.162
    1UNL    C20   31   0.265   0.429  -0.247
    1UNL    C21   32   0.063   0.426  -0.096
    1UNL     H1   33   0.314  -0.437  -0.289
    1UNL     H2   34   0.385  -0.281  -0.367
    1UNL     H3   35   0.270  -0.232   0.023
    1UNL     H4   36   0.357  -0.366  -0.003
    1UNL     H5   37   0.078  -0.343   0.133
    1UNL     H6   38  -0.044   0.004   0.005
    1UNL     H7   39  -0.125  -0.213   0.217
    1UNL     H8   40  -0.041  -0.052   0.234
    1UNL     H9   41  -0.169   0.108   0.064
    1UNL    H10   42  -0.301   0.388   0.202
    1UNL    H11   43  -0.356   0.309   0.349
    1UNL    H12   44  -0.458   0.331   0.001
    1UNL    H13   45  -0.616   0.245   0.309
    1UNL    H14   46  -0.620   0.105   0.194
    1UNL    H15   47  -0.404   0.043   0.325
    1UNL    H16   48  -0.455   0.043   0.075
    1UNL    H17   49  -0.324   0.099  -0.121
    1UNL    H18   50  -0.273  -0.147  -0.018
    1UNL    H19   51  -0.104  -0.080  -0.238
    1UNL    H20   52  -0.239  -0.311  -0.171
    1UNL    H21   53   0.036  -0.264  -0.186
    1UNL    H22   54  -0.142  -0.377   0.083
    1UNL    H23   55   0.015  -0.526  -0.108
    1UNL    H24   56   0.395  -0.066  -0.094
    1UNL    H25   57   0.513  -0.140  -0.271
    1UNL    H26   58   0.147  -0.023  -0.159
    1UNL    H27   59   0.186  -0.061  -0.322
    1UNL    H28   60   0.364   0.141  -0.164
    1UNL    H29   61   0.287   0.163  -0.323
    1UNL    H30   62   0.106   0.192  -0.066
    1UNL    H31   63   0.295   0.367  -0.328
    1UNL    H32   64   0.223   0.525  -0.287
    1UNL    H33   65   0.351   0.449  -0.186
    1UNL    H34   66   0.054   0.384  -0.000
    1UNL    H35   67  -0.035   0.401  -0.149
    1UNL    H36   68   0.071   0.537  -0.082
   0.00000   0.00000   0.00000   0.00000   0.00000   0.00000   0.00000   0.00000   0.00000
Generated with MDTraj, t= 72.0
 68
    1UNL     C1    1   0.348  -0.349  -0.274
    1UNL     C2    2   0.344  -0.253  -0.178
    1UNL     C3    3   0.273  -0.296  -0.049
    1UNL     O1    4   0.140  -0.344  -0.079
    1UNL     C4    5   0.044  -0.325   0.025
    1UNL     O2    6   0.066  -0.191   0.069
    1UNL     C5    7  -0.047  -0.098   0.061
    1UNL     C6    8  -0.120  -0.079   0.191
    1UNL     O3    9  -0.249  -0.021   0.174
    1UNL     C7   10  -0.240   0.112   0.136
    1UNL     O4   11  -0.220   0.212   0.230
    1UNL     C8   12  -0.346   0.275   0.262
    1UNL     C9   13  -0.458   0.219   0.169
    1UNL     O5   14  -0.525   0.330   0.103
    1UNL    C10   15  -0.555   0.124   0.248
    1UNL     O6   16  -0.491   0.021   0.323
    1UNL    C11   17  -0.379   0.136   0.065
    1UNL     O7   18  -0.350   0.205  -0.054
    1UNL    C12   19  -0.158  -0.126  -0.049
    1UNL     O8   20  -0.166  -0.027  -0.156
    1UNL    C13   21  -0.147  -0.262  -0.118
    1UNL     O9   22  -0.063  -0.255  -0.229
    1UNL    C14   23  -0.096  -0.367  -0.017
    1UNL    O10   24  -0.098  -0.498  -0.059
    1UNL    C15   25   0.391  -0.113  -0.192
    1UNL    O11   26   0.494  -0.096  -0.293
    1UNL    C16   27   0.257  -0.027  -0.214
    1UNL    C17   28   0.281   0.123  -0.244
    1UNL    C18   29   0.168   0.204  -0.183
    1UNL    C19   30   0.162   0.339  -0.183
    1UNL    C20   31   0.236   0.422  -0.281
    1UNL    C21   32   0.061   0.417  -0.098
    1UNL     H1   33   0.306  -0.448  -0.261
    1UNL     H2   34   0.384  -0.308  -0.366
    1UNL     H3   35   0.283  -0.218   0.027
    1UNL     H4   36   0.329  -0.379  -0.006
    1UNL     H5   37   0.079  -0.397   0.105
    1UNL     H6   38  -0.010   0.001   0.037
    1UNL     H7   39  -0.135  -0.188   0.225
    1UNL     H8   40  -0.068  -0.020   0.261
    1UNL     H9   41  -0.165   0.114   0.060
    1UNL    H10   42  -0.331   0.381   0.251
    1UNL    H11   43  -0.367   0.258   0.373
    1UNL    H12   44  -0.477   0.352   0.016
    1UNL    H13   45  -0.606   0.180   0.333
    1UNL    H14   46  -0.636   0.077   0.183
    1UNL    H15   47  -0.399   0.011   0.286
    1UNL    H16   48  -0.436   0.042   0.039
    1UNL    H17   49  -0.281   0.163  -0.105
    1UNL    H18   50  -0.258  -0.135  -0.000
    1UNL    H19   51  -0.127  -0.068  -0.238
    1UNL    H20   52  -0.245  -0.294  -0.142
    1UNL    H21   53   0.028  -0.281  -0.192
    1UNL    H22   54  -0.155  -0.355   0.082
    1UNL    H23   55  -0.063  -0.496  -0.150
    1UNL    H24   56   0.431  -0.070  -0.100
    1UNL    H25   57   0.572  -0.165  -0.287
    1UNL    H26   58   0.190  -0.046  -0.136
    1UNL    H27   59   0.191  -0.060  -0.303
    1UNL    H28   60   0.376   0.148  -0.192
    1UNL    H29   61   0.297   0.147  -0.347
    1UNL    H30   62   0.111   0.158  -0.108
    1UNL    H31   63   0.281   0.375  -0.370
    1UNL    H32   64   0.166   0.503  -0.312
    1UNL    H33   65   0.313   0.474  -0.228
    1UNL    H34   66  -0.023   0.354  -0.073
    1UNL    H35   67   0.008   0.497  -0.160
    1UNL    H36   68   0.098   0.457  -0.003
   0.00000   0.00000   0.00000   0.00000   0.00000   0.00000   0.00000   0.00000   0.00000
Generated with MDTraj, t= 73.0
 68
    1UNL     C1    1   0.390  -0.364  -0.275
    1UNL     C2    2   0.356  -0.270  -0.184
    1UNL     C3    3   0.274  -0.316  -0.064
    1UNL     O1    4   0.137  -0.322  -0.089
    1UNL     C4    5   0.060  -0.318   0.029
    1UNL     O2    6   0.062  -0.194   0.106
    1UNL     C5    7  -0.035  -0.089   0.083
    1UNL     C6    8  -0.110  -0.065   0.206
    1UNL     O3    9  -0.244  -0.017   0.185
    1UNL     C7   10  -0.246   0.118   0.134
    1UNL     O4   11  -0.237   0.234   0.226
    1UNL     C8   12  -0.363   0.257   0.281
    1UNL     C9   13  -0.468   0.210   0.180
    1UNL     O5   14  -0.529   0.324   0.126
    1UNL    C10   15  -0.578   0.113   0.238
    1UNL     O6   16  -0.514   0.008   0.301
    1UNL    C11   17  -0.385   0.138   0.063
    1UNL     O7   18  -0.361   0.222  -0.042
    1UNL    C12   19  -0.142  -0.106  -0.036
    1UNL     O8   20  -0.125   0.008  -0.128
    1UNL    C13   21  -0.144  -0.240  -0.106
    1UNL     O9   22  -0.080  -0.228  -0.233
    1UNL    C14   23  -0.084  -0.356  -0.018
    1UNL    O10   24  -0.094  -0.472  -0.101
    1UNL    C15   25   0.386  -0.128  -0.205
    1UNL    O11   26   0.481  -0.089  -0.299
    1UNL    C16   27   0.260  -0.047  -0.227
    1UNL    C17   28   0.287   0.105  -0.223
    1UNL    C18   29   0.174   0.185  -0.171
    1UNL    C19   30   0.164   0.318  -0.194
    1UNL    C20   31   0.240   0.390  -0.300
    1UNL    C21   32   0.033   0.382  -0.150
    1UNL     H1   33   0.354  -0.461  -0.243
    1UNL     H2   34   0.427  -0.346  -0.375
    1UNL     H3   35   0.294  -0.240   0.014
    1UNL     H4   36   0.305  -0.413  -0.017
    1UNL     H5   37   0.093  -0.405   0.089
    1UNL     H6   38   0.025   0.000   0.060
    1UNL     H7   39  -0.126  -0.159   0.268
    1UNL     H8   40  -0.057   0.006   0.262
    1UNL     H9   41  -0.156   0.125   0.074
    1UNL    H10   42  -0.371   0.365   0.295
    1UNL    H11   43  -0.374   0.211   0.386
    1UNL    H12   44  -0.473   0.365   0.055
    1UNL    H13   45  -0.645   0.164   0.313
    1UNL    H14   46  -0.638   0.065   0.154
    1UNL    H15   47  -0.421  -0.007   0.275
    1UNL    H16   48  -0.429   0.042   0.024
    1UNL    H17   49  -0.305   0.188  -0.120
    1UNL    H18   50  -0.244  -0.084  -0.000
    1UNL    H19   51  -0.073  -0.015  -0.208
    1UNL    H20   52  -0.241  -0.265  -0.141
    1UNL    H21   53   0.017  -0.233  -0.223
    1UNL    H22   54  -0.148  -0.384   0.074
    1UNL    H23   55  -0.029  -0.473  -0.179
    1UNL    H24   56   0.437  -0.091  -0.115
    1UNL    H25   57   0.565  -0.151  -0.288
    1UNL    H26   58   0.189  -0.066  -0.151
    1UNL    H27   59   0.215  -0.088  -0.324
    1UNL    H28   60   0.375   0.128  -0.154
    1UNL    H29   61   0.306   0.139  -0.320
    1UNL    H30   62   0.115   0.130  -0.094
    1UNL    H31   63   0.234   0.345  -0.402
    1UNL    H32   64   0.203   0.492  -0.307
    1UNL    H33   65   0.345   0.400  -0.283
    1UNL    H34   66  -0.042   0.370  -0.235
    1UNL    H35   67   0.047   0.491  -0.145
    1UNL    H36   68  -0.009   0.340  -0.059
   0.00000   0.00000   0.00000   0.00000   0.00000   0.00000   0.00000   0.00000   0.00000
Generated with MDTraj, t= 74.0
 68
    1UNL     C1    1   0.403  -0.377  -0.265
    1UNL     C2    2   0.368  -0.281  -0.174
    1UNL     C3    3   0.280  -0.314  -0.059
    1UNL     O1    4   0.147  -0.279  -0.086
    1UNL     C4    5   0.050  -0.313   0.013
    1UNL     O2    6   0.043  -0.216   0.120
    1UNL     C5    7  -0.019  -0.091   0.078
    1UNL     C6    8  -0.093  -0.040   0.207
    1UNL     O3    9  -0.234  -0.011   0.201
    1UNL     C7   10  -0.253   0.117   0.160
    1UNL     O4   11  -0.242   0.219   0.263
    1UNL     C8   12  -0.373   0.256   0.298
    1UNL     C9   13  -0.477   0.220   0.189
    1UNL     O5   14  -0.528   0.340   0.124
    1UNL    C10   15  -0.583   0.118   0.233
    1UNL     O6   16  -0.522  -0.002   0.292
    1UNL    C11   17  -0.390   0.141   0.085
    1UNL     O7   18  -0.362   0.210  -0.028
    1UNL    C12   19  -0.127  -0.096  -0.044
    1UNL     O8   20  -0.106   0.016  -0.122
    1UNL    C13   21  -0.137  -0.219  -0.133
    1UNL     O9   22  -0.064  -0.202  -0.249
    1UNL    C14   23  -0.094  -0.345  -0.046
    1UNL    O10   24  -0.088  -0.466  -0.120
    1UNL    C15   25   0.404  -0.140  -0.192
    1UNL    O11   26   0.465  -0.102  -0.318
    1UNL    C16   27   0.274  -0.059  -0.188
    1UNL    C17   28   0.283   0.095  -0.194
    1UNL    C18   29   0.154   0.171  -0.204
    1UNL    C19   30   0.136   0.300  -0.235
    1UNL    C20   31   0.246   0.378  -0.291
    1UNL    C21   32   0.000   0.358  -0.211
    1UNL     H1   33   0.377  -0.481  -0.255
    1UNL     H2   34   0.461  -0.352  -0.352
    1UNL     H3   35   0.293  -0.264   0.040
    1UNL     H4   36   0.293  -0.424  -0.034
    1UNL     H5   37   0.088  -0.402   0.062
    1UNL     H6   38   0.069  -0.028   0.060
    1UNL     H7   39  -0.089  -0.125   0.282
    1UNL     H8   40  -0.052   0.041   0.259
    1UNL     H9   41  -0.165   0.137   0.099
    1UNL    H10   42  -0.373   0.365   0.312
    1UNL    H11   43  -0.405   0.212   0.399
    1UNL    H12   44  -0.511   0.343   0.030
    1UNL    H13   45  -0.647   0.149   0.316
    1UNL    H14   46  -0.643   0.094   0.144
    1UNL    H15   47  -0.424   0.001   0.276
    1UNL    H16   48  -0.439   0.044   0.057
    1UNL    H17   49  -0.283   0.179  -0.083
    1UNL    H18   50  -0.221  -0.087   0.011
    1UNL    H19   51  -0.142  -0.001  -0.213
    1UNL    H20   52  -0.238  -0.231  -0.174
    1UNL    H21   53   0.026  -0.216  -0.222
    1UNL    H22   54  -0.167  -0.352   0.042
    1UNL    H23   55  -0.019  -0.457  -0.190
    1UNL    H24   56   0.481  -0.124  -0.115
    1UNL    H25   57   0.557  -0.144  -0.325
    1UNL    H26   58   0.230  -0.095  -0.097
    1UNL    H27   59   0.205  -0.080  -0.273
    1UNL    H28   60   0.322   0.129  -0.092
    1UNL    H29   61   0.354   0.121  -0.266
    1UNL    H30   62   0.073   0.112  -0.173
    1UNL    H31   63   0.238   0.361  -0.402
    1UNL    H32   64   0.238   0.480  -0.262
    1UNL    H33   65   0.340   0.332  -0.260
    1UNL    H34   66  -0.041   0.423  -0.296
    1UNL    H35   67   0.018   0.431  -0.135
    1UNL    H36   68  -0.079   0.290  -0.176
   0.00000   0.00000   0.00000   0.00000   0.00000   0.00000   0.00000   0.00000   0.00000
Generated with MDTraj, t= 75.0
 68
    1UNL     C1    1   0.409  -0.375  -0.234
    1UNL     C2    2   0.372  -0.276  -0.148
    1UNL     C3    3   0.275  -0.310  -0.040
    1UNL     O1    4   0.140  -0.302  -0.088
    1UNL     C4    5   0.038  -0.330  -0.003
    1UNL     O2    6   0.027  -0.241   0.109
    1UNL     C5    7  -0.030  -0.107   0.084
    1UNL     C6    8  -0.079  -0.041   0.217
    1UNL     O3    9  -0.216  -0.007   0.212
    1UNL     C7   10  -0.241   0.126   0.166
    1UNL     O4   11  -0.239   0.238   0.254
    1UNL     C8   12  -0.367   0.259   0.300
    1UNL     C9   13  -0.467   0.216   0.191
    1UNL     O5   14  -0.520   0.331   0.128
    1UNL    C10   15  -0.568   0.110   0.228
    1UNL     O6   16  -0.513  -0.001   0.306
    1UNL    C11   17  -0.374   0.143   0.091
    1UNL     O7   18  -0.353   0.217  -0.026
    1UNL    C12   19  -0.159  -0.112  -0.021
    1UNL     O8   20  -0.163   0.012  -0.088
    1UNL    C13   21  -0.140  -0.216  -0.137
    1UNL     O9   22  -0.047  -0.176  -0.235
    1UNL    C14   23  -0.097  -0.355  -0.073
    1UNL    O10   24  -0.079  -0.442  -0.180
    1UNL    C15   25   0.400  -0.127  -0.180
    1UNL    O11   26   0.466  -0.113  -0.312
    1UNL    C16   27   0.276  -0.038  -0.167
    1UNL    C17   28   0.287   0.105  -0.203
    1UNL    C18   29   0.154   0.170  -0.210
    1UNL    C19   30   0.130   0.294  -0.255
    1UNL    C20   31   0.239   0.390  -0.275
    1UNL    C21   32  -0.005   0.336  -0.294
    1UNL     H1   33   0.387  -0.482  -0.230
    1UNL     H2   34   0.477  -0.344  -0.311
    1UNL     H3   35   0.296  -0.243   0.045
    1UNL     H4   36   0.279  -0.412   0.009
    1UNL     H5   37   0.071  -0.420   0.042
    1UNL     H6   38   0.052  -0.051   0.037
    1UNL     H7   39  -0.075  -0.109   0.309
    1UNL     H8   40  -0.025   0.044   0.242
    1UNL     H9   41  -0.158   0.146   0.097
    1UNL    H10   42  -0.387   0.361   0.337
    1UNL    H11   43  -0.379   0.191   0.390
    1UNL    H12   44  -0.477   0.352   0.035
    1UNL    H13   45  -0.638   0.162   0.290
    1UNL    H14   46  -0.614   0.067   0.142
    1UNL    H15   47  -0.415  -0.010   0.289
    1UNL    H16   48  -0.421   0.046   0.061
    1UNL    H17   49  -0.287   0.183  -0.092
    1UNL    H18   50  -0.250  -0.127   0.035
    1UNL    H19   51  -0.138  -0.005  -0.183
    1UNL    H20   52  -0.237  -0.235  -0.190
    1UNL    H21   53   0.037  -0.221  -0.200
    1UNL    H22   54  -0.176  -0.391  -0.004
    1UNL    H23   55  -0.009  -0.403  -0.231
    1UNL    H24   56   0.480  -0.088  -0.116
    1UNL    H25   57   0.559  -0.131  -0.319
    1UNL    H26   58   0.227  -0.033  -0.069
    1UNL    H27   59   0.217  -0.086  -0.244
    1UNL    H28   60   0.360   0.160  -0.136
    1UNL    H29   61   0.322   0.107  -0.303
    1UNL    H30   62   0.071   0.099  -0.204
    1UNL    H31   63   0.309   0.340  -0.344
    1UNL    H32   64   0.202   0.481  -0.316
    1UNL    H33   65   0.292   0.406  -0.178
    1UNL    H34   66  -0.017   0.446  -0.312
    1UNL    H35   67  -0.061   0.321  -0.205
    1UNL    H36   68  -0.051   0.281  -0.380
   0.00000   0.00000   0.00000   0.00000   0.00000   0.00000   0.00000   0.00000   0.00000
Generated with MDTraj, t= 76.0
 68
    1UNL     C1    1   0.428  -0.353  -0.174
    1UNL     C2    2   0.364  -0.254  -0.113
    1UNL     C3    3   0.252  -0.289  -0.027
    1UNL     O1    4   0.127  -0.289  -0.091
    1UNL     C4    5   0.034  -0.351  -0.011
    1UNL     O2    6  -0.009  -0.267   0.103
    1UNL     C5    7  -0.054  -0.132   0.070
    1UNL     C6    8  -0.090  -0.056   0.199
    1UNL     O3    9  -0.217  -0.001   0.209
    1UNL     C7   10  -0.225   0.131   0.159
    1UNL     O4   11  -0.209   0.237   0.252
    1UNL     C8   12  -0.342   0.277   0.290
    1UNL     C9   13  -0.453   0.209   0.199
    1UNL     O5   14  -0.526   0.316   0.138
    1UNL    C10   15  -0.543   0.108   0.273
    1UNL     O6   16  -0.469   0.002   0.322
    1UNL    C11   17  -0.368   0.146   0.093
    1UNL     O7   18  -0.347   0.231  -0.023
    1UNL    C12   19  -0.178  -0.142  -0.025
    1UNL     O8   20  -0.208  -0.007  -0.074
    1UNL    C13   21  -0.142  -0.229  -0.145
    1UNL     O9   22  -0.057  -0.167  -0.235
    1UNL    C14   23  -0.095  -0.372  -0.099
    1UNL    O10   24  -0.067  -0.434  -0.218
    1UNL    C15   25   0.386  -0.112  -0.150
    1UNL    O11   26   0.484  -0.103  -0.258
    1UNL    C16   27   0.257  -0.041  -0.195
    1UNL    C17   28   0.280   0.104  -0.218
    1UNL    C18   29   0.154   0.167  -0.253
    1UNL    C19   30   0.139   0.296  -0.291
    1UNL    C20   31   0.245   0.397  -0.277
    1UNL    C21   32  -0.002   0.347  -0.326
    1UNL     H1   33   0.405  -0.455  -0.153
    1UNL     H2   34   0.508  -0.332  -0.241
    1UNL     H3   35   0.254  -0.225   0.061
    1UNL     H4   36   0.267  -0.393   0.013
    1UNL     H5   37   0.060  -0.449   0.018
    1UNL     H6   38   0.027  -0.080   0.014
    1UNL     H7   39  -0.070  -0.122   0.289
    1UNL     H8   40  -0.029   0.028   0.213
    1UNL     H9   41  -0.153   0.138   0.074
    1UNL    H10   42  -0.356   0.385   0.272
    1UNL    H11   43  -0.361   0.267   0.399
    1UNL    H12   44  -0.489   0.345   0.056
    1UNL    H13   45  -0.596   0.156   0.351
    1UNL    H14   46  -0.607   0.063   0.202
    1UNL    H15   47  -0.377  -0.004   0.289
    1UNL    H16   48  -0.400   0.048   0.057
    1UNL    H17   49  -0.277   0.183  -0.072
    1UNL    H18   50  -0.267  -0.174   0.024
    1UNL    H19   51  -0.153   0.011  -0.152
    1UNL    H20   52  -0.235  -0.239  -0.212
    1UNL    H21   53   0.031  -0.211  -0.221
    1UNL    H22   54  -0.169  -0.440  -0.056
    1UNL    H23   55   0.020  -0.395  -0.250
    1UNL    H24   56   0.421  -0.048  -0.065
    1UNL    H25   57   0.564  -0.083  -0.218
    1UNL    H26   58   0.186  -0.056  -0.109
    1UNL    H27   59   0.219  -0.079  -0.286
    1UNL    H28   60   0.327   0.162  -0.134
    1UNL    H29   61   0.343   0.118  -0.307
    1UNL    H30   62   0.077   0.096  -0.280
    1UNL    H31   63   0.345   0.360  -0.291
    1UNL    H32   64   0.239   0.487  -0.335
    1UNL    H33   65   0.251   0.428  -0.170
    1UNL    H34   66  -0.052   0.397  -0.244
    1UNL    H35   67  -0.064   0.259  -0.350
    1UNL    H36   68   0.000   0.414  -0.417
   0.00000   0.00000   0.00000   0.00000   0.00000   0.00000   0.00000   0.00000   0.00000
Generated with MDTraj, t= 77.0
 68
    1UNL     C1    1   0.447  -0.324  -0.117
    1UNL     C2    2   0.358  -0.232  -0.086
    1UNL     C3    3   0.231  -0.274  -0.006
    1UNL     O1    4   0.129  -0.301  -0.096
    1UNL     C4    5   0.021  -0.351  -0.031
    1UNL     O2    6  -0.020  -0.282   0.090
    1UNL     C5    7  -0.068  -0.150   0.056
    1UNL     C6    8  -0.096  -0.068   0.186
    1UNL     O3    9  -0.230  -0.020   0.181
    1UNL     C7   10  -0.233   0.118   0.146
    1UNL     O4   11  -0.196   0.218   0.240
    1UNL     C8   12  -0.309   0.269   0.307
    1UNL     C9   13  -0.436   0.220   0.217
    1UNL     O5   14  -0.512   0.330   0.168
    1UNL    C10   15  -0.517   0.121   0.305
    1UNL     O6   16  -0.440   0.036   0.385
    1UNL    C11   17  -0.370   0.144   0.099
    1UNL     O7   18  -0.370   0.225  -0.019
    1UNL    C12   19  -0.187  -0.150  -0.052
    1UNL     O8   20  -0.210  -0.014  -0.098
    1UNL    C13   21  -0.166  -0.243  -0.172
    1UNL     O9   22  -0.071  -0.187  -0.258
    1UNL    C14   23  -0.106  -0.378  -0.124
    1UNL    O10   24  -0.068  -0.457  -0.229
    1UNL    C15   25   0.372  -0.095  -0.115
    1UNL    O11   26   0.501  -0.063  -0.171
    1UNL    C16   27   0.270  -0.044  -0.220
    1UNL    C17   28   0.270   0.111  -0.251
    1UNL    C18   29   0.153   0.167  -0.309
    1UNL    C19   30   0.138   0.300  -0.322
    1UNL    C20   31   0.253   0.389  -0.278
    1UNL    C21   32   0.004   0.362  -0.353
    1UNL     H1   33   0.425  -0.428  -0.096
    1UNL     H2   34   0.524  -0.302  -0.192
    1UNL     H3   35   0.192  -0.201   0.061
    1UNL     H4   36   0.266  -0.359   0.053
    1UNL     H5   37   0.052  -0.443   0.018
    1UNL     H6   38   0.023  -0.105   0.009
    1UNL     H7   39  -0.077  -0.123   0.283
    1UNL     H8   40  -0.027   0.012   0.190
    1UNL     H9   41  -0.168   0.133   0.056
    1UNL    H10   42  -0.305   0.378   0.320
    1UNL    H11   43  -0.311   0.228   0.408
    1UNL    H12   44  -0.456   0.371   0.095
    1UNL    H13   45  -0.578   0.175   0.370
    1UNL    H14   46  -0.581   0.054   0.255
    1UNL    H15   47  -0.370   0.004   0.321
    1UNL    H16   48  -0.429   0.057   0.077
    1UNL    H17   49  -0.317   0.166  -0.081
    1UNL    H18   50  -0.270  -0.191  -0.001
    1UNL    H19   51  -0.141  -0.005  -0.170
    1UNL    H20   52  -0.263  -0.249  -0.232
    1UNL    H21   53   0.013  -0.214  -0.219
    1UNL    H22   54  -0.168  -0.437  -0.063
    1UNL    H23   55   0.017  -0.421  -0.273
    1UNL    H24   56   0.354  -0.032  -0.025
    1UNL    H25   57   0.563  -0.061  -0.092
    1UNL    H26   58   0.169  -0.057  -0.172
    1UNL    H27   59   0.276  -0.104  -0.305
    1UNL    H28   60   0.293   0.164  -0.157
    1UNL    H29   61   0.358   0.138  -0.320
    1UNL    H30   62   0.092   0.101  -0.367
    1UNL    H31   63   0.348   0.349  -0.301
    1UNL    H32   64   0.245   0.495  -0.310
    1UNL    H33   65   0.252   0.385  -0.167
    1UNL    H34   66  -0.077   0.293  -0.344
    1UNL    H35   67   0.013   0.397  -0.461
    1UNL    H36   68  -0.014   0.450  -0.290
   0.00000   0.00000   0.00000   0.00000   0.00000   0.00000   0.00000   0.00000   0.00000
Generated with MDTraj, t= 78.0
 68
    1UNL     C1    1   0.456  -0.290  -0.103
    1UNL     C2    2   0.354  -0.223  -0.060
    1UNL     C3    3   0.226  -0.286   0.001
    1UNL     O1    4   0.132  -0.313  -0.098
    1UNL     C4    5   0.010  -0.363  -0.041
    1UNL     O2    6  -0.036  -0.292   0.073
    1UNL     C5    7  -0.073  -0.154   0.033
    1UNL     C6    8  -0.114  -0.081   0.167
    1UNL     O3    9  -0.252  -0.039   0.183
    1UNL     C7   10  -0.263   0.091   0.130
    1UNL     O4   11  -0.179   0.186   0.203
    1UNL     C8   12  -0.262   0.273   0.282
    1UNL     C9   13  -0.415   0.240   0.246
    1UNL     O5   14  -0.487   0.354   0.198
    1UNL    C10   15  -0.487   0.169   0.369
    1UNL     O6   16  -0.428   0.040   0.404
    1UNL    C11   17  -0.404   0.140   0.125
    1UNL     O7   18  -0.417   0.206   0.002
    1UNL    C12   19  -0.185  -0.154  -0.075
    1UNL     O8   20  -0.188  -0.020  -0.121
    1UNL    C13   21  -0.163  -0.247  -0.193
    1UNL     O9   22  -0.058  -0.197  -0.275
    1UNL    C14   23  -0.115  -0.384  -0.133
    1UNL    O10   24  -0.090  -0.476  -0.233
    1UNL    C15   25   0.355  -0.075  -0.090
    1UNL    O11   26   0.493  -0.015  -0.079
    1UNL    C16   27   0.279  -0.032  -0.219
    1UNL    C17   28   0.300   0.116  -0.269
    1UNL    C18   29   0.181   0.171  -0.328
    1UNL    C19   30   0.142   0.296  -0.334
    1UNL    C20   31   0.230   0.405  -0.279
    1UNL    C21   32   0.021   0.338  -0.413
    1UNL     H1   33   0.446  -0.396  -0.100
    1UNL     H2   34   0.530  -0.246  -0.164
    1UNL     H3   35   0.190  -0.213   0.067
    1UNL     H4   36   0.235  -0.379   0.055
    1UNL     H5   37   0.049  -0.463  -0.013
    1UNL     H6   38   0.015  -0.097  -0.006
    1UNL     H7   39  -0.100  -0.165   0.243
    1UNL     H8   40  -0.048  -0.005   0.200
    1UNL     H9   41  -0.221   0.084   0.026
    1UNL    H10   42  -0.242   0.378   0.257
    1UNL    H11   43  -0.250   0.261   0.388
    1UNL    H12   44  -0.460   0.363   0.101
    1UNL    H13   45  -0.506   0.238   0.448
    1UNL    H14   46  -0.586   0.145   0.339
    1UNL    H15   47  -0.366   0.003   0.335
    1UNL    H16   48  -0.479   0.065   0.137
    1UNL    H17   49  -0.432   0.127  -0.060
    1UNL    H18   50  -0.280  -0.174  -0.034
    1UNL    H19   51  -0.130  -0.018  -0.198
    1UNL    H20   52  -0.260  -0.247  -0.252
    1UNL    H21   53   0.026  -0.225  -0.223
    1UNL    H22   54  -0.196  -0.426  -0.081
    1UNL    H23   55  -0.014  -0.451  -0.292
    1UNL    H24   56   0.300  -0.016  -0.013
    1UNL    H25   57   0.547  -0.019   0.012
    1UNL    H26   58   0.171  -0.047  -0.194
    1UNL    H27   59   0.310  -0.088  -0.302
    1UNL    H28   60   0.348   0.169  -0.188
    1UNL    H29   61   0.387   0.112  -0.349
    1UNL    H30   62   0.128   0.106  -0.399
    1UNL    H31   63   0.324   0.403  -0.329
    1UNL    H32   64   0.181   0.506  -0.288
    1UNL    H33   65   0.255   0.386  -0.176
    1UNL    H34   66   0.030   0.334  -0.522
    1UNL    H35   67  -0.013   0.445  -0.391
    1UNL    H36   68  -0.065   0.277  -0.390
   0.00000   0.00000   0.00000   0.00000   0.00000   0.00000   0.00000   0.00000   0.00000
Generated with MDTraj, t= 79.0
 68
    1UNL     C1    1   0.442  -0.288  -0.116
    1UNL     C2    2   0.344  -0.218  -0.062
    1UNL     C3    3   0.230  -0.291  -0.008
    1UNL     O1    4   0.122  -0.315  -0.096
    1UNL     C4    5   0.005  -0.369  -0.035
    1UNL     O2    6  -0.039  -0.288   0.074
    1UNL     C5    7  -0.085  -0.154   0.030
    1UNL     C6    8  -0.133  -0.086   0.159
    1UNL     O3    9  -0.267  -0.051   0.167
    1UNL     C7   10  -0.277   0.082   0.109
    1UNL     O4   11  -0.187   0.181   0.149
    1UNL     C8   12  -0.235   0.250   0.259
    1UNL     C9   13  -0.391   0.241   0.259
    1UNL     O5   14  -0.440   0.371   0.230
    1UNL    C10   15  -0.449   0.185   0.389
    1UNL     O6   16  -0.388   0.058   0.420
    1UNL    C11   17  -0.417   0.141   0.140
    1UNL     O7   18  -0.486   0.214   0.040
    1UNL    C12   19  -0.190  -0.158  -0.085
    1UNL     O8   20  -0.193  -0.024  -0.132
    1UNL    C13   21  -0.147  -0.253  -0.198
    1UNL     O9   22  -0.036  -0.197  -0.273
    1UNL    C14   23  -0.099  -0.395  -0.144
    1UNL    O10   24  -0.055  -0.468  -0.257
    1UNL    C15   25   0.321  -0.070  -0.069
    1UNL    O11   26   0.440   0.000  -0.022
    1UNL    C16   27   0.296  -0.023  -0.216
    1UNL    C17   28   0.264   0.121  -0.218
    1UNL    C18   29   0.197   0.168  -0.339
    1UNL    C19   30   0.157   0.294  -0.358
    1UNL    C20   31   0.198   0.406  -0.280
    1UNL    C21   32   0.061   0.313  -0.469
    1UNL     H1   33   0.455  -0.396  -0.105
    1UNL     H2   34   0.535  -0.233  -0.129
    1UNL     H3   35   0.178  -0.253   0.075
    1UNL     H4   36   0.266  -0.387   0.027
    1UNL     H5   37   0.046  -0.463   0.009
    1UNL     H6   38   0.001  -0.096  -0.010
    1UNL     H7   39  -0.111  -0.158   0.243
    1UNL     H8   40  -0.075   0.003   0.177
    1UNL     H9   41  -0.264   0.070   0.000
    1UNL    H10   42  -0.210   0.356   0.240
    1UNL    H11   43  -0.191   0.213   0.348
    1UNL    H12   44  -0.517   0.373   0.175
    1UNL    H13   45  -0.437   0.252   0.473
    1UNL    H14   46  -0.557   0.180   0.374
    1UNL    H15   47  -0.350   0.015   0.341
    1UNL    H16   48  -0.487   0.067   0.173
    1UNL    H17   49  -0.481   0.166  -0.045
    1UNL    H18   50  -0.289  -0.186  -0.057
    1UNL    H19   51  -0.123  -0.012  -0.202
    1UNL    H20   52  -0.227  -0.276  -0.270
    1UNL    H21   53   0.045  -0.210  -0.223
    1UNL    H22   54  -0.178  -0.449  -0.106
    1UNL    H23   55   0.023  -0.422  -0.285
    1UNL    H24   56   0.237  -0.051  -0.000
    1UNL    H25   57   0.442  -0.026   0.077
    1UNL    H26   58   0.210  -0.075  -0.257
    1UNL    H27   59   0.383  -0.054  -0.270
    1UNL    H28   60   0.215   0.152  -0.126
    1UNL    H29   61   0.372   0.170  -0.204
    1UNL    H30   62   0.186   0.098  -0.417
    1UNL    H31   63   0.306   0.409  -0.260
    1UNL    H32   64   0.170   0.505  -0.321
    1UNL    H33   65   0.163   0.407  -0.179
    1UNL    H34   66   0.030   0.418  -0.497
    1UNL    H35   67  -0.029   0.250  -0.456
    1UNL    H36   68   0.110   0.274  -0.556
   0.00000   0.00000   0.00000   0.00000   0.00000   0.00000   0.00000   0.00000   0.00000
Generated with MDTraj, t= 80.0
 68
    1UNL     C1    1   0.443  -0.261  -0.102
    1UNL     C2    2   0.337  -0.218  -0.040
    1UNL     C3    3   0.230  -0.304   0.002
    1UNL     O1    4   0.124  -0.318  -0.091
    1UNL     C4    5  -0.002  -0.372  -0.045
    1UNL     O2    6  -0.054  -0.293   0.059
    1UNL     C5    7  -0.091  -0.158   0.016
    1UNL     C6    8  -0.134  -0.069   0.135
    1UNL     O3    9  -0.274  -0.041   0.135
    1UNL     C7   10  -0.301   0.088   0.089
    1UNL     O4   11  -0.193   0.178   0.112
    1UNL     C8   12  -0.217   0.253   0.236
    1UNL     C9   13  -0.367   0.242   0.278
    1UNL     O5   14  -0.426   0.366   0.262
    1UNL    C10   15  -0.397   0.177   0.413
    1UNL     O6   16  -0.328   0.057   0.430
    1UNL    C11   17  -0.427   0.151   0.163
    1UNL     O7   18  -0.502   0.228   0.073
    1UNL    C12   19  -0.194  -0.169  -0.100
    1UNL     O8   20  -0.224  -0.041  -0.156
    1UNL    C13   21  -0.138  -0.252  -0.212
    1UNL     O9   22  -0.024  -0.194  -0.276
    1UNL    C14   23  -0.096  -0.396  -0.160
    1UNL    O10   24  -0.024  -0.473  -0.252
    1UNL    C15   25   0.307  -0.067  -0.040
    1UNL    O11   26   0.416  -0.005   0.028
    1UNL    C16   27   0.282  -0.013  -0.182
    1UNL    C17   28   0.204   0.117  -0.193
    1UNL    C18   29   0.182   0.165  -0.337
    1UNL    C19   30   0.161   0.289  -0.383
    1UNL    C20   31   0.137   0.397  -0.285
    1UNL    C21   32   0.147   0.312  -0.527
    1UNL     H1   33   0.470  -0.362  -0.111
    1UNL     H2   34   0.503  -0.196  -0.160
    1UNL     H3   35   0.184  -0.281   0.095
    1UNL     H4   36   0.265  -0.408   0.019
    1UNL     H5   37   0.024  -0.471   0.003
    1UNL     H6   38   0.004  -0.117  -0.021
    1UNL     H7   39  -0.101  -0.110   0.235
    1UNL     H8   40  -0.084   0.025   0.118
    1UNL     H9   41  -0.316   0.069  -0.020
    1UNL    H10   42  -0.198   0.359   0.214
    1UNL    H11   43  -0.158   0.215   0.313
    1UNL    H12   44  -0.468   0.391   0.170
    1UNL    H13   45  -0.361   0.249   0.491
    1UNL    H14   46  -0.504   0.163   0.437
    1UNL    H15   47  -0.314   0.024   0.338
    1UNL    H16   48  -0.492   0.076   0.206
    1UNL    H17   49  -0.523   0.178  -0.005
    1UNL    H18   50  -0.285  -0.212  -0.061
    1UNL    H19   51  -0.144  -0.002  -0.196
    1UNL    H20   52  -0.206  -0.255  -0.295
    1UNL    H21   53   0.057  -0.200  -0.220
    1UNL    H22   54  -0.176  -0.456  -0.132
    1UNL    H23   55   0.063  -0.425  -0.254
    1UNL    H24   56   0.214  -0.038   0.011
    1UNL    H25   57   0.436  -0.042   0.113
    1UNL    H26   58   0.234  -0.098  -0.223
    1UNL    H27   59   0.373  -0.011  -0.238
    1UNL    H28   60   0.112   0.109  -0.135
    1UNL    H29   61   0.251   0.204  -0.132
    1UNL    H30   62   0.212   0.090  -0.413
    1UNL    H31   63   0.189   0.376  -0.189
    1UNL    H32   64   0.163   0.496  -0.325
    1UNL    H33   65   0.035   0.396  -0.253
    1UNL    H34   66   0.057   0.265  -0.574
    1UNL    H35   67   0.236   0.277  -0.573
    1UNL    H36   68   0.140   0.422  -0.536
   0.00000   0.00000   0.00000   0.00000   0.00000   0.00000   0.00000   0.00000   0.00000
Generated with MDTraj, t= 81.0
 68
    1UNL     C1    1   0.445  -0.238  -0.034
    1UNL     C2    2   0.324  -0.200  -0.004
    1UNL     C3    3   0.210  -0.295   0.026
    1UNL     O1    4   0.130  -0.321  -0.089
    1UNL     C4    5   0.002  -0.376  -0.052
    1UNL     O2    6  -0.064  -0.291   0.047
    1UNL     C5    7  -0.085  -0.160  -0.009
    1UNL     C6    8  -0.124  -0.062   0.105
    1UNL     O3    9  -0.268  -0.041   0.117
    1UNL     C7   10  -0.303   0.093   0.089
    1UNL     O4   11  -0.201   0.192   0.088
    1UNL     C8   12  -0.213   0.274   0.207
    1UNL     C9   13  -0.346   0.240   0.280
    1UNL     O5   14  -0.430   0.356   0.297
    1UNL    C10   15  -0.325   0.159   0.407
    1UNL     O6   16  -0.255   0.042   0.415
    1UNL    C11   17  -0.418   0.147   0.174
    1UNL     O7   18  -0.506   0.228   0.099
    1UNL    C12   19  -0.199  -0.168  -0.113
    1UNL     O8   20  -0.228  -0.041  -0.177
    1UNL    C13   21  -0.150  -0.262  -0.222
    1UNL     O9   22  -0.045  -0.202  -0.295
    1UNL    C14   23  -0.096  -0.402  -0.164
    1UNL    O10   24  -0.048  -0.479  -0.271
    1UNL    C15   25   0.281  -0.055  -0.017
    1UNL    O11   26   0.378   0.039   0.037
    1UNL    C16   27   0.253  -0.029  -0.161
    1UNL    C17   28   0.187   0.110  -0.192
    1UNL    C18   29   0.201   0.151  -0.336
    1UNL    C19   30   0.168   0.275  -0.377
    1UNL    C20   31   0.068   0.366  -0.298
    1UNL    C21   32   0.223   0.323  -0.512
    1UNL     H1   33   0.471  -0.339  -0.066
    1UNL     H2   34   0.518  -0.165  -0.073
    1UNL     H3   35   0.145  -0.257   0.106
    1UNL     H4   36   0.227  -0.401   0.062
    1UNL     H5   37   0.029  -0.476  -0.006
    1UNL     H6   38   0.003  -0.120  -0.058
    1UNL     H7   39  -0.089  -0.093   0.207
    1UNL     H8   40  -0.083   0.033   0.076
    1UNL     H9   41  -0.329   0.088  -0.019
    1UNL    H10   42  -0.216   0.380   0.176
    1UNL    H11   43  -0.132   0.254   0.270
    1UNL    H12   44  -0.473   0.384   0.220
    1UNL    H13   45  -0.283   0.226   0.488
    1UNL    H14   46  -0.431   0.139   0.438
    1UNL    H15   47  -0.251  -0.004   0.327
    1UNL    H16   48  -0.476   0.072   0.228
    1UNL    H17   49  -0.533   0.185   0.017
    1UNL    H18   50  -0.294  -0.202  -0.069
    1UNL    H19   51  -0.150  -0.017  -0.230
    1UNL    H20   52  -0.230  -0.281  -0.288
    1UNL    H21   53   0.042  -0.224  -0.246
    1UNL    H22   54  -0.176  -0.464  -0.134
    1UNL    H23   55   0.036  -0.438  -0.306
    1UNL    H24   56   0.183  -0.043   0.030
    1UNL    H25   57   0.385   0.024   0.131
    1UNL    H26   58   0.206  -0.102  -0.219
    1UNL    H27   59   0.352  -0.031  -0.205
    1UNL    H28   60   0.082   0.116  -0.159
    1UNL    H29   61   0.229   0.184  -0.119
    1UNL    H30   62   0.264   0.094  -0.397
    1UNL    H31   63   0.108   0.386  -0.195
    1UNL    H32   64   0.057   0.453  -0.362
    1UNL    H33   65  -0.026   0.317  -0.280
    1UNL    H34   66   0.319   0.284  -0.548
    1UNL    H35   67   0.230   0.428  -0.514
    1UNL    H36   68   0.138   0.297  -0.583
   0.00000   0.00000   0.00000   0.00000   0.00000   0.00000   0.00000   0.00000   0.00000
Generated with MDTraj, t= 82.0
 68
    1UNL     C1    1   0.413  -0.217   0.068
    1UNL     C2    2   0.297  -0.198   0.012
    1UNL     C3    3   0.195  -0.312   0.019
    1UNL     O1    4   0.104  -0.314  -0.086
    1UNL     C4    5  -0.019  -0.373  -0.048
    1UNL     O2    6  -0.084  -0.280   0.050
    1UNL     C5    7  -0.091  -0.154  -0.027
    1UNL     C6    8  -0.102  -0.037   0.073
    1UNL     O3    9  -0.230  -0.024   0.129
    1UNL     C7   10  -0.294   0.093   0.083
    1UNL     O4   11  -0.208   0.207   0.076
    1UNL     C8   12  -0.211   0.273   0.201
    1UNL     C9   13  -0.334   0.224   0.286
    1UNL     O5   14  -0.413   0.340   0.312
    1UNL    C10   15  -0.293   0.136   0.412
    1UNL     O6   16  -0.175   0.060   0.385
    1UNL    C11   17  -0.408   0.131   0.180
    1UNL     O7   18  -0.512   0.202   0.117
    1UNL    C12   19  -0.191  -0.159  -0.142
    1UNL     O8   20  -0.215  -0.036  -0.205
    1UNL    C13   21  -0.158  -0.271  -0.239
    1UNL     O9   22  -0.048  -0.222  -0.310
    1UNL    C14   23  -0.111  -0.405  -0.167
    1UNL    O10   24  -0.053  -0.489  -0.262
    1UNL    C15   25   0.256  -0.057  -0.026
    1UNL    O11   26   0.322   0.047   0.055
    1UNL    C16   27   0.266  -0.029  -0.177
    1UNL    C17   28   0.205   0.110  -0.192
    1UNL    C18   29   0.244   0.186  -0.314
    1UNL    C19   30   0.167   0.280  -0.372
    1UNL    C20   31   0.035   0.327  -0.324
    1UNL    C21   32   0.211   0.344  -0.505
    1UNL     H1   33   0.434  -0.317   0.095
    1UNL     H2   34   0.480  -0.146   0.105
    1UNL     H3   35   0.135  -0.295   0.111
    1UNL     H4   36   0.254  -0.407   0.045
    1UNL     H5   37  -0.001  -0.463   0.013
    1UNL     H6   38   0.008  -0.150  -0.068
    1UNL     H7   39  -0.028  -0.063   0.153
    1UNL     H8   40  -0.078   0.060   0.034
    1UNL     H9   41  -0.328   0.073  -0.020
    1UNL    H10   42  -0.223   0.384   0.190
    1UNL    H11   43  -0.121   0.256   0.252
    1UNL    H12   44  -0.481   0.356   0.236
    1UNL    H13   45  -0.267   0.208   0.499
    1UNL    H14   46  -0.381   0.072   0.449
    1UNL    H15   47  -0.177   0.024   0.293
    1UNL    H16   48  -0.448   0.039   0.228
    1UNL    H17   49  -0.531   0.152   0.030
    1UNL    H18   50  -0.291  -0.187  -0.099
    1UNL    H19   51  -0.139  -0.025  -0.272
    1UNL    H20   52  -0.241  -0.290  -0.300
    1UNL    H21   53   0.027  -0.232  -0.251
    1UNL    H22   54  -0.195  -0.459  -0.127
    1UNL    H23   55   0.028  -0.454  -0.303
    1UNL    H24   56   0.150  -0.048  -0.002
    1UNL    H25   57   0.292   0.036   0.152
    1UNL    H26   58   0.228  -0.107  -0.235
    1UNL    H27   59   0.365  -0.011  -0.217
    1UNL    H28   60   0.094   0.101  -0.171
    1UNL    H29   61   0.235   0.171  -0.106
    1UNL    H30   62   0.346   0.160  -0.349
    1UNL    H31   63   0.037   0.395  -0.237
    1UNL    H32   64   0.001   0.385  -0.407
    1UNL    H33   65  -0.044   0.254  -0.298
    1UNL    H34   66   0.236   0.448  -0.499
    1UNL    H35   67   0.132   0.330  -0.581
    1UNL    H36   68   0.293   0.284  -0.554
   0.00000   0.00000   0.00000   0.00000   0.00000   0.00000   0.00000   0.00000   0.00000
Generated with MDTraj, t= 83.0
 68
    1UNL     C1    1   0.410  -0.214   0.061
    1UNL     C2    2   0.285  -0.198   0.033
    1UNL     C3    3   0.181  -0.313   0.018
    1UNL     O1    4   0.111  -0.345  -0.101
    1UNL     C4    5  -0.024  -0.363  -0.059
    1UNL     O2    6  -0.074  -0.253   0.024
    1UNL     C5    7  -0.080  -0.134  -0.055
    1UNL     C6    8  -0.093  -0.012   0.038
    1UNL     O3    9  -0.213  -0.018   0.111
    1UNL     C7   10  -0.292   0.101   0.091
    1UNL     O4   11  -0.216   0.223   0.085
    1UNL     C8   12  -0.226   0.295   0.204
    1UNL     C9   13  -0.327   0.224   0.297
    1UNL     O5   14  -0.416   0.331   0.332
    1UNL    C10   15  -0.260   0.166   0.417
    1UNL     O6   16  -0.150   0.075   0.373
    1UNL    C11   17  -0.397   0.113   0.205
    1UNL     O7   18  -0.515   0.163   0.150
    1UNL    C12   19  -0.182  -0.156  -0.165
    1UNL     O8   20  -0.203  -0.043  -0.239
    1UNL    C13   21  -0.145  -0.273  -0.260
    1UNL     O9   22  -0.023  -0.238  -0.332
    1UNL    C14   23  -0.126  -0.397  -0.170
    1UNL    O10   24  -0.088  -0.506  -0.246
    1UNL    C15   25   0.236  -0.058   0.003
    1UNL    O11   26   0.261   0.033   0.105
    1UNL    C16   27   0.292   0.001  -0.137
    1UNL    C17   28   0.209   0.119  -0.186
    1UNL    C18   29   0.245   0.184  -0.320
    1UNL    C19   30   0.159   0.262  -0.384
    1UNL    C20   31   0.028   0.289  -0.336
    1UNL    C21   32   0.205   0.335  -0.499
    1UNL     H1   33   0.446  -0.305   0.112
    1UNL     H2   34   0.477  -0.127   0.062
    1UNL     H3   35   0.115  -0.300   0.107
    1UNL     H4   36   0.243  -0.401   0.055
    1UNL     H5   37  -0.029  -0.451   0.005
    1UNL     H6   38   0.014  -0.136  -0.107
    1UNL     H7   39  -0.008   0.005   0.106
    1UNL     H8   40  -0.095   0.075  -0.028
    1UNL     H9   41  -0.350   0.105  -0.002
    1UNL    H10   42  -0.265   0.399   0.180
    1UNL    H11   43  -0.134   0.312   0.254
    1UNL    H12   44  -0.493   0.328   0.269
    1UNL    H13   45  -0.216   0.249   0.482
    1UNL    H14   46  -0.333   0.109   0.483
    1UNL    H15   47  -0.169   0.050   0.279
    1UNL    H16   48  -0.420   0.017   0.260
    1UNL    H17   49  -0.543   0.093   0.081
    1UNL    H18   50  -0.281  -0.167  -0.111
    1UNL    H19   51  -0.136  -0.038  -0.307
    1UNL    H20   52  -0.225  -0.285  -0.327
    1UNL    H21   53   0.055  -0.254  -0.269
    1UNL    H22   54  -0.223  -0.429  -0.131
    1UNL    H23   55  -0.005  -0.496  -0.293
    1UNL    H24   56   0.127  -0.060   0.007
    1UNL    H25   57   0.223   0.021   0.202
    1UNL    H26   58   0.285  -0.073  -0.212
    1UNL    H27   59   0.397   0.015  -0.125
    1UNL    H28   60   0.099   0.088  -0.196
    1UNL    H29   61   0.209   0.189  -0.107
    1UNL    H30   62   0.348   0.177  -0.346
    1UNL    H31   63   0.021   0.281  -0.228
    1UNL    H32   64  -0.003   0.386  -0.368
    1UNL    H33   65  -0.046   0.211  -0.370
    1UNL    H34   66   0.127   0.339  -0.575
    1UNL    H35   67   0.301   0.298  -0.546
    1UNL    H36   68   0.228   0.438  -0.473
   0.00000   0.00000   0.00000   0.00000   0.00000   0.00000   0.00000   0.00000   0.00000
Generated with MDTraj, t= 84.0
 68
    1UNL     C1    1   0.435  -0.233   0.003
    1UNL     C2    2   0.308  -0.218   0.010
    1UNL     C3    3   0.195  -0.318   0.022
    1UNL     O1    4   0.102  -0.321  -0.084
    1UNL     C4    5  -0.033  -0.343  -0.045
    1UNL     O2    6  -0.080  -0.228   0.020
    1UNL     C5    7  -0.096  -0.121  -0.076
    1UNL     C6    8  -0.132   0.015  -0.005
    1UNL     O3    9  -0.240  -0.004   0.082
    1UNL     C7   10  -0.317   0.118   0.090
    1UNL     O4   11  -0.250   0.241   0.077
    1UNL     C8   12  -0.239   0.304   0.203
    1UNL     C9   13  -0.327   0.230   0.310
    1UNL     O5   14  -0.426   0.320   0.359
    1UNL    C10   15  -0.229   0.170   0.420
    1UNL     O6   16  -0.121   0.091   0.371
    1UNL    C11   17  -0.396   0.120   0.222
    1UNL     O7   18  -0.533   0.148   0.185
    1UNL    C12   19  -0.186  -0.148  -0.192
    1UNL     O8   20  -0.176  -0.043  -0.291
    1UNL    C13   21  -0.139  -0.277  -0.268
    1UNL     O9   22  -0.016  -0.246  -0.338
    1UNL    C14   23  -0.119  -0.391  -0.170
    1UNL    O10   24  -0.054  -0.499  -0.228
    1UNL    C15   25   0.248  -0.074   0.012
    1UNL    O11   26   0.270  -0.002   0.131
    1UNL    C16   27   0.299   0.005  -0.111
    1UNL    C17   28   0.191   0.116  -0.151
    1UNL    C18   29   0.233   0.194  -0.275
    1UNL    C19   30   0.158   0.242  -0.376
    1UNL    C20   31   0.012   0.266  -0.347
    1UNL    C21   32   0.223   0.290  -0.496
    1UNL     H1   33   0.476  -0.329   0.012
    1UNL     H2   34   0.499  -0.149  -0.003
    1UNL     H3   35   0.154  -0.311   0.123
    1UNL     H4   36   0.243  -0.421   0.027
    1UNL     H5   37  -0.045  -0.425   0.022
    1UNL     H6   38   0.000  -0.114  -0.124
    1UNL     H7   39  -0.046   0.057   0.051
    1UNL     H8   40  -0.156   0.088  -0.084
    1UNL     H9   41  -0.386   0.118   0.004
    1UNL    H10   42  -0.275   0.414   0.194
    1UNL    H11   43  -0.136   0.315   0.228
    1UNL    H12   44  -0.490   0.328   0.291
    1UNL    H13   45  -0.183   0.252   0.483
    1UNL    H14   46  -0.289   0.104   0.487
    1UNL    H15   47  -0.133   0.050   0.283
    1UNL    H16   48  -0.387   0.017   0.269
    1UNL    H17   49  -0.560   0.087   0.113
    1UNL    H18   50  -0.296  -0.150  -0.164
    1UNL    H19   51  -0.109  -0.069  -0.364
    1UNL    H20   52  -0.215  -0.315  -0.332
    1UNL    H21   53   0.057  -0.247  -0.278
    1UNL    H22   54  -0.222  -0.430  -0.145
    1UNL    H23   55   0.021  -0.459  -0.276
    1UNL    H24   56   0.139  -0.091   0.014
    1UNL    H25   57   0.226  -0.046   0.209
    1UNL    H26   58   0.316  -0.073  -0.182
    1UNL    H27   59   0.389   0.055  -0.089
    1UNL    H28   60   0.087   0.066  -0.161
    1UNL    H29   61   0.187   0.184  -0.072
    1UNL    H30   62   0.341   0.197  -0.284
    1UNL    H31   63   0.014   0.296  -0.244
    1UNL    H32   64  -0.025   0.346  -0.411
    1UNL    H33   65  -0.047   0.170  -0.346
    1UNL    H34   66   0.288   0.211  -0.541
    1UNL    H35   67   0.271   0.391  -0.482
    1UNL    H36   68   0.145   0.300  -0.565
   0.00000   0.00000   0.00000   0.00000   0.00000   0.00000   0.00000   0.00000   0.00000
Generated with MDTraj, t= 85.0
 68
    1UNL     C1    1   0.426  -0.254  -0.022
    1UNL     C2    2   0.306  -0.220   0.013
    1UNL     C3    3   0.198  -0.320   0.028
    1UNL     O1    4   0.110  -0.312  -0.083
    1UNL     C4    5  -0.025  -0.321  -0.040
    1UNL     O2    6  -0.083  -0.199   0.002
    1UNL     C5    7  -0.100  -0.097  -0.096
    1UNL     C6    8  -0.165   0.031  -0.034
    1UNL     O3    9  -0.257   0.007   0.073
    1UNL     C7   10  -0.349   0.121   0.088
    1UNL     O4   11  -0.298   0.255   0.070
    1UNL     C8   12  -0.262   0.313   0.195
    1UNL     C9   13  -0.324   0.226   0.308
    1UNL     O5   14  -0.406   0.312   0.390
    1UNL    C10   15  -0.211   0.145   0.386
    1UNL     O6   16  -0.115   0.077   0.319
    1UNL    C11   17  -0.413   0.124   0.233
    1UNL     O7   18  -0.553   0.158   0.224
    1UNL    C12   19  -0.176  -0.145  -0.215
    1UNL     O8   20  -0.183  -0.054  -0.324
    1UNL    C13   21  -0.126  -0.274  -0.271
    1UNL     O9   22  -0.002  -0.250  -0.336
    1UNL    C14   23  -0.116  -0.379  -0.156
    1UNL    O10   24  -0.062  -0.502  -0.201
    1UNL    C15   25   0.264  -0.068   0.026
    1UNL    O11   26   0.344  -0.010   0.133
    1UNL    C16   27   0.275  -0.010  -0.117
    1UNL    C17   28   0.223   0.134  -0.118
    1UNL    C18   29   0.259   0.190  -0.255
    1UNL    C19   30   0.163   0.220  -0.346
    1UNL    C20   31   0.013   0.221  -0.328
    1UNL    C21   32   0.206   0.280  -0.478
    1UNL     H1   33   0.447  -0.354  -0.063
    1UNL     H2   34   0.508  -0.183  -0.038
    1UNL     H3   35   0.154  -0.299   0.125
    1UNL     H4   36   0.233  -0.423   0.041
    1UNL     H5   37  -0.031  -0.385   0.046
    1UNL     H6   38   0.001  -0.077  -0.130
    1UNL     H7   39  -0.081   0.091   0.007
    1UNL     H8   40  -0.216   0.092  -0.110
    1UNL     H9   41  -0.422   0.103   0.009
    1UNL    H10   42  -0.286   0.427   0.192
    1UNL    H11   43  -0.155   0.316   0.207
    1UNL    H12   44  -0.486   0.340   0.330
    1UNL    H13   45  -0.158   0.218   0.451
    1UNL    H14   46  -0.255   0.068   0.452
    1UNL    H15   47  -0.149   0.040   0.232
    1UNL    H16   48  -0.400   0.027   0.289
    1UNL    H17   49  -0.601   0.119   0.152
    1UNL    H18   50  -0.283  -0.153  -0.174
    1UNL    H19   51  -0.123  -0.081  -0.395
    1UNL    H20   52  -0.195  -0.323  -0.341
    1UNL    H21   53   0.079  -0.249  -0.273
    1UNL    H22   54  -0.224  -0.396  -0.120
    1UNL    H23   55   0.034  -0.484  -0.223
    1UNL    H24   56   0.162  -0.059   0.066
    1UNL    H25   57   0.321  -0.055   0.211
    1UNL    H26   58   0.222  -0.062  -0.195
    1UNL    H27   59   0.379  -0.016  -0.130
    1UNL    H28   60   0.108   0.136  -0.117
    1UNL    H29   61   0.263   0.185  -0.037
    1UNL    H30   62   0.364   0.218  -0.266
    1UNL    H31   63  -0.017   0.302  -0.265
    1UNL    H32   64  -0.040   0.240  -0.425
    1UNL    H33   65  -0.023   0.125  -0.286
    1UNL    H34   66   0.257   0.380  -0.461
    1UNL    H35   67   0.121   0.290  -0.545
    1UNL    H36   68   0.282   0.218  -0.521
   0.00000   0.00000   0.00000   0.00000   0.00000   0.00000   0.00000   0.00000   0.00000
Generated with MDTraj, t= 86.0
 68
    1UNL     C1    1   0.413  -0.271   0.016
    1UNL     C2    2   0.301  -0.206   0.020
    1UNL     C3    3   0.172  -0.278   0.050
    1UNL     O1    4   0.094  -0.298  -0.072
    1UNL     C4    5  -0.042  -0.310  -0.029
    1UNL     O2    6  -0.104  -0.187   0.018
    1UNL     C5    7  -0.113  -0.088  -0.088
    1UNL     C6    8  -0.174   0.040  -0.036
    1UNL     O3    9  -0.295   0.006   0.033
    1UNL     C7   10  -0.366   0.120   0.067
    1UNL     O4   11  -0.294   0.239   0.056
    1UNL     C8   12  -0.268   0.294   0.181
    1UNL     C9   13  -0.314   0.200   0.292
    1UNL     O5   14  -0.372   0.285   0.389
    1UNL    C10   15  -0.201   0.117   0.354
    1UNL     O6   16  -0.111   0.061   0.259
    1UNL    C11   17  -0.413   0.105   0.221
    1UNL     O7   18  -0.545   0.150   0.238
    1UNL    C12   19  -0.194  -0.136  -0.219
    1UNL     O8   20  -0.191  -0.045  -0.333
    1UNL    C13   21  -0.137  -0.273  -0.265
    1UNL     O9   22  -0.009  -0.251  -0.322
    1UNL    C14   23  -0.133  -0.370  -0.142
    1UNL    O10   24  -0.080  -0.496  -0.185
    1UNL    C15   25   0.303  -0.058   0.024
    1UNL    O11   26   0.424  -0.011   0.073
    1UNL    C16   27   0.279   0.006  -0.110
    1UNL    C17   28   0.272   0.163  -0.102
    1UNL    C18   29   0.270   0.221  -0.241
    1UNL    C19   30   0.165   0.229  -0.323
    1UNL    C20   31   0.037   0.168  -0.277
    1UNL    C21   32   0.182   0.282  -0.468
    1UNL     H1   33   0.427  -0.376   0.011
    1UNL     H2   34   0.501  -0.215   0.004
    1UNL     H3   35   0.101  -0.224   0.112
    1UNL     H4   36   0.190  -0.368   0.107
    1UNL     H5   37  -0.033  -0.383   0.052
    1UNL     H6   38  -0.012  -0.076  -0.121
    1UNL     H7   39  -0.109   0.103   0.030
    1UNL     H8   40  -0.201   0.105  -0.122
    1UNL     H9   41  -0.452   0.121  -0.002
    1UNL    H10   42  -0.329   0.394   0.183
    1UNL    H11   43  -0.167   0.333   0.184
    1UNL    H12   44  -0.454   0.321   0.355
    1UNL    H13   45  -0.141   0.173   0.425
    1UNL    H14   46  -0.239   0.037   0.414
    1UNL    H15   47  -0.169   0.014   0.196
    1UNL    H16   48  -0.395  -0.002   0.251
    1UNL    H17   49  -0.607   0.111   0.176
    1UNL    H18   50  -0.303  -0.130  -0.186
    1UNL    H19   51  -0.110  -0.065  -0.388
    1UNL    H20   52  -0.199  -0.320  -0.345
    1UNL    H21   53   0.060  -0.241  -0.256
    1UNL    H22   54  -0.246  -0.378  -0.119
    1UNL    H23   55   0.017  -0.503  -0.201
    1UNL    H24   56   0.222  -0.024   0.088
    1UNL    H25   57   0.445  -0.034   0.161
    1UNL    H26   58   0.193  -0.043  -0.152
    1UNL    H27   59   0.358  -0.003  -0.178
    1UNL    H28   60   0.179   0.184  -0.047
    1UNL    H29   61   0.351   0.205  -0.046
    1UNL    H30   62   0.366   0.256  -0.273
    1UNL    H31   63  -0.009   0.200  -0.185
    1UNL    H32   64  -0.046   0.188  -0.351
    1UNL    H33   65   0.047   0.063  -0.283
    1UNL    H34   66   0.095   0.262  -0.534
    1UNL    H35   67   0.266   0.254  -0.527
    1UNL    H36   68   0.170   0.393  -0.458
   0.00000   0.00000   0.00000   0.00000   0.00000   0.00000   0.00000   0.00000   0.00000
Generated with MDTraj, t= 87.0
 68
    1UNL     C1    1   0.345  -0.280   0.005
    1UNL     C2    2   0.280  -0.173   0.042
    1UNL     C3    3   0.132  -0.176   0.060
    1UNL     O1    4   0.080  -0.279  -0.032
    1UNL     C4    5  -0.061  -0.304  -0.011
    1UNL     O2    6  -0.139  -0.179   0.011
    1UNL     C5    7  -0.129  -0.089  -0.099
    1UNL     C6    8  -0.191   0.040  -0.057
    1UNL     O3    9  -0.316   0.015   0.009
    1UNL     C7   10  -0.381   0.127   0.056
    1UNL     O4   11  -0.313   0.254   0.053
    1UNL     C8   12  -0.256   0.281   0.181
    1UNL     C9   13  -0.299   0.177   0.285
    1UNL     O5   14  -0.351   0.253   0.389
    1UNL    C10   15  -0.187   0.086   0.347
    1UNL     O6   16  -0.117   0.016   0.239
    1UNL    C11   17  -0.414   0.103   0.208
    1UNL     O7   18  -0.537   0.158   0.244
    1UNL    C12   19  -0.204  -0.154  -0.217
    1UNL     O8   20  -0.200  -0.065  -0.327
    1UNL    C13   21  -0.136  -0.290  -0.258
    1UNL     O9   22  -0.014  -0.272  -0.318
    1UNL    C14   23  -0.129  -0.380  -0.132
    1UNL    O10   24  -0.051  -0.490  -0.172
    1UNL    C15   25   0.344  -0.039   0.029
    1UNL    O11   26   0.483  -0.036   0.050
    1UNL    C16   27   0.315   0.017  -0.119
    1UNL    C17   28   0.315   0.168  -0.124
    1UNL    C18   29   0.290   0.233  -0.254
    1UNL    C19   30   0.174   0.229  -0.311
    1UNL    C20   31   0.054   0.160  -0.255
    1UNL    C21   32   0.168   0.311  -0.437
    1UNL     H1   33   0.296  -0.377   0.011
    1UNL     H2   34   0.448  -0.287  -0.032
    1UNL     H3   35   0.094  -0.074   0.046
    1UNL     H4   36   0.096  -0.210   0.155
    1UNL     H5   37  -0.063  -0.358   0.087
    1UNL     H6   38  -0.027  -0.085  -0.133
    1UNL     H7   39  -0.121   0.097   0.009
    1UNL     H8   40  -0.215   0.099  -0.148
    1UNL     H9   41  -0.475   0.136  -0.001
    1UNL    H10   42  -0.287   0.390   0.209
    1UNL    H11   43  -0.148   0.295   0.179
    1UNL    H12   44  -0.428   0.301   0.352
    1UNL    H13   45  -0.123   0.152   0.401
    1UNL    H14   46  -0.221   0.025   0.428
    1UNL    H15   47  -0.179  -0.002   0.163
    1UNL    H16   48  -0.411  -0.005   0.233
    1UNL    H17   49  -0.610   0.140   0.175
    1UNL    H18   50  -0.310  -0.173  -0.186
    1UNL    H19   51  -0.153  -0.119  -0.398
    1UNL    H20   52  -0.201  -0.348  -0.331
    1UNL    H21   53   0.060  -0.267  -0.248
    1UNL    H22   54  -0.239  -0.398  -0.100
    1UNL    H23   55   0.024  -0.475  -0.232
    1UNL    H24   56   0.310   0.037   0.101
    1UNL    H25   57   0.492  -0.070   0.143
    1UNL    H26   58   0.218  -0.009  -0.159
    1UNL    H27   59   0.381  -0.030  -0.186
    1UNL    H28   60   0.236   0.199  -0.059
    1UNL    H29   61   0.398   0.205  -0.069
    1UNL    H30   62   0.373   0.280  -0.310
    1UNL    H31   63   0.064   0.136  -0.150
    1UNL    H32   64  -0.027   0.236  -0.255
    1UNL    H33   65   0.028   0.080  -0.321
    1UNL    H34   66   0.250   0.299  -0.504
    1UNL    H35   67   0.164   0.418  -0.418
    1UNL    H36   68   0.076   0.277  -0.495
   0.00000   0.00000   0.00000   0.00000   0.00000   0.00000   0.00000   0.00000   0.00000
Generated with MDTraj, t= 88.0
 68
    1UNL     C1    1   0.346  -0.291   0.014
    1UNL     C2    2   0.289  -0.170   0.016
    1UNL     C3    3   0.141  -0.168   0.057
    1UNL     O1    4   0.056  -0.245  -0.037
    1UNL     C4    5  -0.073  -0.271  -0.005
    1UNL     O2    6  -0.155  -0.157   0.007
    1UNL     C5    7  -0.176  -0.091  -0.116
    1UNL     C6    8  -0.264   0.037  -0.115
    1UNL     O3    9  -0.356   0.024  -0.006
    1UNL     C7   10  -0.389   0.138   0.066
    1UNL     O4   11  -0.289   0.245   0.062
    1UNL     C8   12  -0.215   0.243   0.182
    1UNL     C9   13  -0.295   0.165   0.288
    1UNL     O5   14  -0.338   0.245   0.400
    1UNL    C10   15  -0.205   0.043   0.329
    1UNL     O6   16  -0.134  -0.013   0.221
    1UNL    C11   17  -0.422   0.109   0.212
    1UNL     O7   18  -0.540   0.173   0.258
    1UNL    C12   19  -0.219  -0.183  -0.233
    1UNL     O8   20  -0.213  -0.105  -0.356
    1UNL    C13   21  -0.128  -0.309  -0.251
    1UNL     O9   22  -0.004  -0.267  -0.298
    1UNL    C14   23  -0.128  -0.377  -0.111
    1UNL    O10   24  -0.036  -0.490  -0.105
    1UNL    C15   25   0.359  -0.043   0.010
    1UNL    O11   26   0.498  -0.052   0.050
    1UNL    C16   27   0.328   0.025  -0.130
    1UNL    C17   28   0.367   0.177  -0.133
    1UNL    C18   29   0.316   0.259  -0.260
    1UNL    C19   30   0.190   0.259  -0.304
    1UNL    C20   31   0.080   0.203  -0.217
    1UNL    C21   32   0.156   0.315  -0.438
    1UNL     H1   33   0.298  -0.380   0.044
    1UNL     H2   34   0.450  -0.305  -0.002
    1UNL     H3   35   0.092  -0.068   0.047
    1UNL     H4   36   0.129  -0.191   0.162
    1UNL     H5   37  -0.075  -0.325   0.096
    1UNL     H6   38  -0.077  -0.056  -0.145
    1UNL     H7   39  -0.196   0.119  -0.079
    1UNL     H8   40  -0.307   0.064  -0.212
    1UNL     H9   41  -0.475   0.186   0.017
    1UNL    H10   42  -0.190   0.350   0.219
    1UNL    H11   43  -0.115   0.207   0.164
    1UNL    H12   44  -0.426   0.288   0.367
    1UNL    H13   45  -0.141   0.072   0.408
    1UNL    H14   46  -0.268  -0.023   0.383
    1UNL    H15   47  -0.196  -0.047   0.152
    1UNL    H16   48  -0.428   0.001   0.224
    1UNL    H17   49  -0.603   0.194   0.179
    1UNL    H18   50  -0.324  -0.204  -0.208
    1UNL    H19   51  -0.131  -0.130  -0.398
    1UNL    H20   52  -0.163  -0.388  -0.328
    1UNL    H21   53   0.051  -0.231  -0.223
    1UNL    H22   54  -0.230  -0.405  -0.073
    1UNL    H23   55   0.058  -0.468  -0.131
    1UNL    H24   56   0.315   0.029   0.081
    1UNL    H25   57   0.500  -0.091   0.147
    1UNL    H26   58   0.228  -0.007  -0.155
    1UNL    H27   59   0.386  -0.025  -0.202
    1UNL    H28   60   0.350   0.225  -0.042
    1UNL    H29   61   0.475   0.185  -0.131
    1UNL    H30   62   0.390   0.303  -0.320
    1UNL    H31   63   0.096   0.221  -0.110
    1UNL    H32   64  -0.012   0.255  -0.234
    1UNL    H33   65   0.063   0.099  -0.244
    1UNL    H34   66   0.189   0.415  -0.436
    1UNL    H35   67   0.046   0.318  -0.457
    1UNL    H36   68   0.213   0.255  -0.513
   0.00000   0.00000   0.00000   0.00000   0.00000   0.00000   0.00000   0.00000   0.00000
Generated with MDTraj, t= 89.0
 68
    1UNL     C1    1   0.348  -0.277   0.007
    1UNL     C2    2   0.287  -0.160   0.043
    1UNL     C3    3   0.141  -0.158   0.062
    1UNL     O1    4   0.078  -0.217  -0.046
    1UNL     C4    5  -0.058  -0.240  -0.007
    1UNL     O2    6  -0.149  -0.134  -0.025
    1UNL     C5    7  -0.172  -0.081  -0.151
    1UNL     C6    8  -0.274   0.030  -0.123
    1UNL     O3    9  -0.350   0.003   0.000
    1UNL     C7   10  -0.387   0.128   0.061
    1UNL     O4   11  -0.282   0.231   0.059
    1UNL     C8   12  -0.210   0.222   0.181
    1UNL     C9   13  -0.291   0.147   0.289
    1UNL     O5   14  -0.325   0.230   0.406
    1UNL    C10   15  -0.216   0.014   0.327
    1UNL     O6   16  -0.167  -0.061   0.225
    1UNL    C11   17  -0.424   0.120   0.213
    1UNL     O7   18  -0.523   0.213   0.254
    1UNL    C12   19  -0.237  -0.196  -0.239
    1UNL     O8   20  -0.238  -0.152  -0.380
    1UNL    C13   21  -0.147  -0.322  -0.232
    1UNL     O9   22  -0.036  -0.305  -0.305
    1UNL    C14   23  -0.127  -0.364  -0.081
    1UNL    O10   24  -0.041  -0.479  -0.080
    1UNL    C15   25   0.355  -0.027   0.024
    1UNL    O11   26   0.499  -0.033   0.045
    1UNL    C16   27   0.314   0.024  -0.123
    1UNL    C17   28   0.379   0.163  -0.147
    1UNL    C18   29   0.331   0.230  -0.278
    1UNL    C19   30   0.209   0.277  -0.293
    1UNL    C20   31   0.108   0.278  -0.185
    1UNL    C21   32   0.169   0.335  -0.425
    1UNL     H1   33   0.297  -0.371  -0.012
    1UNL     H2   34   0.449  -0.279  -0.031
    1UNL     H3   35   0.095  -0.055   0.076
    1UNL     H4   36   0.109  -0.214   0.151
    1UNL     H5   37  -0.073  -0.275   0.101
    1UNL     H6   38  -0.075  -0.044  -0.190
    1UNL     H7   39  -0.222   0.129  -0.116
    1UNL     H8   40  -0.347   0.033  -0.204
    1UNL     H9   41  -0.475   0.176   0.014
    1UNL    H10   42  -0.183   0.326   0.218
    1UNL    H11   43  -0.115   0.180   0.161
    1UNL    H12   44  -0.373   0.303   0.376
    1UNL    H13   45  -0.137   0.035   0.397
    1UNL    H14   46  -0.282  -0.041   0.389
    1UNL    H15   47  -0.232  -0.052   0.147
    1UNL    H16   48  -0.462   0.021   0.230
    1UNL    H17   49  -0.592   0.216   0.184
    1UNL    H18   50  -0.338  -0.213  -0.206
    1UNL    H19   51  -0.147  -0.175  -0.421
    1UNL    H20   52  -0.205  -0.410  -0.285
    1UNL    H21   53   0.025  -0.255  -0.250
    1UNL    H22   54  -0.228  -0.373  -0.038
    1UNL    H23   55   0.030  -0.458  -0.144
    1UNL    H24   56   0.330   0.047   0.103
    1UNL    H25   57   0.531  -0.074   0.133
    1UNL    H26   58   0.207   0.030  -0.118
    1UNL    H27   59   0.339  -0.051  -0.194
    1UNL    H28   60   0.373   0.218  -0.062
    1UNL    H29   61   0.483   0.133  -0.156
    1UNL    H30   62   0.394   0.222  -0.369
    1UNL    H31   63   0.149   0.318  -0.092
    1UNL    H32   64   0.024   0.339  -0.204
    1UNL    H33   65   0.069   0.174  -0.178
    1UNL    H34   66   0.062   0.355  -0.421
    1UNL    H35   67   0.189   0.275  -0.517
    1UNL    H36   68   0.219   0.430  -0.433
   0.00000   0.00000   0.00000   0.00000   0.00000   0.00000   0.00000   0.00000   0.00000
Generated with MDTraj, t= 90.0
 68
    1UNL     C1    1   0.375  -0.261   0.033
    1UNL     C2    2   0.292  -0.156   0.037
    1UNL     C3    3   0.151  -0.165   0.053
    1UNL     O1    4   0.082  -0.252  -0.035
    1UNL     C4    5  -0.055  -0.259  -0.003
    1UNL     O2    6  -0.135  -0.141  -0.009
    1UNL     C5    7  -0.173  -0.087  -0.139
    1UNL     C6    8  -0.259   0.037  -0.128
    1UNL     O3    9  -0.341   0.024  -0.020
    1UNL     C7   10  -0.371   0.147   0.042
    1UNL     O4   11  -0.249   0.222   0.056
    1UNL     C8   12  -0.190   0.193   0.179
    1UNL     C9   13  -0.294   0.133   0.275
    1UNL     O5   14  -0.319   0.229   0.371
    1UNL    C10   15  -0.253  -0.000   0.339
    1UNL     O6   16  -0.213  -0.091   0.245
    1UNL    C11   17  -0.422   0.116   0.188
    1UNL     O7   18  -0.517   0.208   0.232
    1UNL    C12   19  -0.263  -0.196  -0.218
    1UNL     O8   20  -0.294  -0.168  -0.359
    1UNL    C13   21  -0.171  -0.328  -0.222
    1UNL     O9   22  -0.049  -0.300  -0.287
    1UNL    C14   23  -0.135  -0.377  -0.078
    1UNL    O10   24  -0.052  -0.498  -0.082
    1UNL    C15   25   0.348  -0.024   0.010
    1UNL    O11   26   0.490  -0.013   0.014
    1UNL    C16   27   0.320   0.024  -0.134
    1UNL    C17   28   0.373   0.172  -0.146
    1UNL    C18   29   0.331   0.234  -0.280
    1UNL    C19   30   0.226   0.314  -0.290
    1UNL    C20   31   0.155   0.365  -0.170
    1UNL    C21   32   0.173   0.349  -0.419
    1UNL     H1   33   0.339  -0.362   0.040
    1UNL     H2   34   0.482  -0.255   0.023
    1UNL     H3   35   0.106  -0.061   0.042
    1UNL     H4   36   0.132  -0.194   0.159
    1UNL     H5   37  -0.064  -0.293   0.104
    1UNL     H6   38  -0.077  -0.074  -0.193
    1UNL     H7   39  -0.201   0.130  -0.109
    1UNL     H8   40  -0.313   0.043  -0.222
    1UNL     H9   41  -0.447   0.210  -0.007
    1UNL    H10   42  -0.142   0.287   0.218
    1UNL    H11   43  -0.110   0.128   0.159
    1UNL    H12   44  -0.380   0.186   0.441
    1UNL    H13   45  -0.168   0.025   0.402
    1UNL    H14   46  -0.322  -0.042   0.412
    1UNL    H15   47  -0.266  -0.068   0.162
    1UNL    H16   48  -0.463   0.018   0.193
    1UNL    H17   49  -0.472   0.278   0.276
    1UNL    H18   50  -0.351  -0.213  -0.159
    1UNL    H19   51  -0.213  -0.151  -0.406
    1UNL    H20   52  -0.209  -0.425  -0.279
    1UNL    H21   53   0.012  -0.281  -0.207
    1UNL    H22   54  -0.228  -0.390  -0.023
    1UNL    H23   55   0.019  -0.482  -0.144
    1UNL    H24   56   0.312   0.039   0.097
    1UNL    H25   57   0.512  -0.033   0.104
    1UNL    H26   58   0.214   0.028  -0.141
    1UNL    H27   59   0.367  -0.034  -0.213
    1UNL    H28   60   0.332   0.225  -0.066
    1UNL    H29   61   0.480   0.156  -0.141
    1UNL    H30   62   0.369   0.183  -0.364
    1UNL    H31   63   0.220   0.406  -0.091
    1UNL    H32   64   0.104   0.450  -0.205
    1UNL    H33   65   0.075   0.294  -0.139
    1UNL    H34   66   0.207   0.270  -0.493
    1UNL    H35   67   0.207   0.444  -0.459
    1UNL    H36   68   0.068   0.349  -0.423
   0.00000   0.00000   0.00000   0.00000   0.00000   0.00000   0.00000   0.00000   0.00000
Generated with MDTraj, t= 91.0
 68
    1UNL     C1    1   0.360  -0.264   0.013
    1UNL     C2    2   0.283  -0.150   0.020
    1UNL     C3    3   0.131  -0.168   0.041
    1UNL     O1    4   0.077  -0.274  -0.041
    1UNL     C4    5  -0.051  -0.285   0.010
    1UNL     O2    6  -0.123  -0.160   0.009
    1UNL     C5    7  -0.153  -0.106  -0.120
    1UNL     C6    8  -0.216   0.025  -0.113
    1UNL     O3    9  -0.320   0.027  -0.024
    1UNL     C7   10  -0.346   0.154   0.034
    1UNL     O4   11  -0.224   0.221   0.062
    1UNL     C8   12  -0.182   0.171   0.189
    1UNL     C9   13  -0.302   0.125   0.271
    1UNL     O5   14  -0.330   0.215   0.379
    1UNL    C10   15  -0.279  -0.014   0.325
    1UNL     O6   16  -0.270  -0.117   0.231
    1UNL    C11   17  -0.418   0.127   0.170
    1UNL     O7   18  -0.507   0.236   0.204
    1UNL    C12   19  -0.245  -0.203  -0.188
    1UNL     O8   20  -0.302  -0.142  -0.304
    1UNL    C13   21  -0.169  -0.339  -0.203
    1UNL     O9   22  -0.059  -0.333  -0.288
    1UNL    C14   23  -0.135  -0.393  -0.063
    1UNL    O10   24  -0.051  -0.511  -0.072
    1UNL    C15   25   0.345  -0.018   0.004
    1UNL    O11   26   0.490  -0.033   0.026
    1UNL    C16   27   0.303   0.044  -0.132
    1UNL    C17   28   0.362   0.179  -0.162
    1UNL    C18   29   0.303   0.239  -0.296
    1UNL    C19   30   0.224   0.347  -0.299
    1UNL    C20   31   0.193   0.433  -0.186
    1UNL    C21   32   0.175   0.410  -0.432
    1UNL     H1   33   0.322  -0.364   0.023
    1UNL     H2   34   0.468  -0.260  -0.001
    1UNL     H3   35   0.074  -0.073   0.015
    1UNL     H4   36   0.116  -0.182   0.149
    1UNL     H5   37  -0.049  -0.323   0.113
    1UNL     H6   38  -0.059  -0.094  -0.178
    1UNL     H7   39  -0.136   0.084  -0.064
    1UNL     H8   40  -0.252   0.065  -0.207
    1UNL     H9   41  -0.402   0.217  -0.037
    1UNL    H10   42  -0.131   0.258   0.235
    1UNL    H11   43  -0.109   0.098   0.177
    1UNL    H12   44  -0.390   0.292   0.344
    1UNL    H13   45  -0.195  -0.013   0.398
    1UNL    H14   46  -0.367  -0.025   0.392
    1UNL    H15   47  -0.299  -0.094   0.137
    1UNL    H16   48  -0.463   0.030   0.171
    1UNL    H17   49  -0.486   0.318   0.152
    1UNL    H18   50  -0.327  -0.219  -0.119
    1UNL    H19   51  -0.235  -0.138  -0.373
    1UNL    H20   52  -0.232  -0.409  -0.272
    1UNL    H21   53   0.012  -0.327  -0.224
    1UNL    H22   54  -0.227  -0.409  -0.010
    1UNL    H23   55   0.045  -0.495  -0.095
    1UNL    H24   56   0.308   0.052   0.084
    1UNL    H25   57   0.518  -0.058   0.112
    1UNL    H26   58   0.197   0.055  -0.140
    1UNL    H27   59   0.344  -0.023  -0.209
    1UNL    H28   60   0.333   0.240  -0.075
    1UNL    H29   61   0.468   0.167  -0.178
    1UNL    H30   62   0.342   0.199  -0.392
    1UNL    H31   63   0.265   0.513  -0.169
    1UNL    H32   64   0.102   0.484  -0.210
    1UNL    H33   65   0.171   0.373  -0.097
    1UNL    H34   66   0.223   0.513  -0.439
    1UNL    H35   67   0.070   0.419  -0.445
    1UNL    H36   68   0.218   0.359  -0.517
   0.00000   0.00000   0.00000   0.00000   0.00000   0.00000   0.00000   0.00000   0.00000
Generated with MDTraj, t= 92.0
 68
    1UNL     C1    1   0.367  -0.250  -0.052
    1UNL     C2    2   0.281  -0.152  -0.014
    1UNL     C3    3   0.153  -0.187   0.050
    1UNL     O1    4   0.076  -0.283  -0.029
    1UNL     C4    5  -0.055  -0.296   0.024
    1UNL     O2    6  -0.120  -0.171   0.023
    1UNL     C5    7  -0.139  -0.127  -0.109
    1UNL     C6    8  -0.194   0.018  -0.096
    1UNL     O3    9  -0.317   0.030  -0.014
    1UNL     C7   10  -0.323   0.161   0.043
    1UNL     O4   11  -0.195   0.214   0.085
    1UNL     C8   12  -0.176   0.173   0.224
    1UNL     C9   13  -0.314   0.131   0.285
    1UNL     O5   14  -0.366   0.208   0.395
    1UNL    C10   15  -0.320  -0.025   0.320
    1UNL     O6   16  -0.358  -0.117   0.216
    1UNL    C11   17  -0.412   0.160   0.167
    1UNL     O7   18  -0.482   0.284   0.181
    1UNL    C12   19  -0.243  -0.218  -0.189
    1UNL     O8   20  -0.240  -0.172  -0.325
    1UNL    C13   21  -0.179  -0.368  -0.189
    1UNL     O9   22  -0.057  -0.362  -0.262
    1UNL    C14   23  -0.143  -0.410  -0.047
    1UNL    O10   24  -0.063  -0.528  -0.056
    1UNL    C15   25   0.330  -0.017  -0.031
    1UNL    O11   26   0.473  -0.006  -0.013
    1UNL    C16   27   0.291   0.042  -0.163
    1UNL    C17   28   0.327   0.191  -0.162
    1UNL    C18   29   0.298   0.258  -0.294
    1UNL    C19   30   0.240   0.378  -0.300
    1UNL    C20   31   0.224   0.466  -0.179
    1UNL    C21   32   0.200   0.436  -0.430
    1UNL     H1   33   0.341  -0.353  -0.031
    1UNL     H2   34   0.463  -0.231  -0.098
    1UNL     H3   35   0.101  -0.087   0.063
    1UNL     H4   36   0.166  -0.230   0.148
    1UNL     H5   37  -0.057  -0.322   0.128
    1UNL     H6   38  -0.046  -0.122  -0.170
    1UNL     H7   39  -0.119   0.084  -0.054
    1UNL     H8   40  -0.216   0.045  -0.199
    1UNL     H9   41  -0.368   0.226  -0.032
    1UNL    H10   42  -0.128   0.256   0.277
    1UNL    H11   43  -0.108   0.094   0.219
    1UNL    H12   44  -0.458   0.194   0.398
    1UNL    H13   45  -0.223  -0.054   0.373
    1UNL    H14   46  -0.395  -0.045   0.402
    1UNL    H15   47  -0.291  -0.123   0.142
    1UNL    H16   48  -0.477   0.075   0.153
    1UNL    H17   49  -0.422   0.366   0.178
    1UNL    H18   50  -0.343  -0.223  -0.143
    1UNL    H19   51  -0.167  -0.225  -0.372
    1UNL    H20   52  -0.242  -0.442  -0.252
    1UNL    H21   53   0.008  -0.318  -0.198
    1UNL    H22   54  -0.234  -0.423   0.012
    1UNL    H23   55   0.007  -0.517  -0.125
    1UNL    H24   56   0.283   0.056   0.035
    1UNL    H25   57   0.494  -0.030   0.081
    1UNL    H26   58   0.188   0.028  -0.183
    1UNL    H27   59   0.343  -0.006  -0.247
    1UNL    H28   60   0.260   0.243  -0.085
    1UNL    H29   61   0.431   0.195  -0.137
    1UNL    H30   62   0.346   0.216  -0.380
    1UNL    H31   63   0.312   0.470  -0.117
    1UNL    H32   64   0.217   0.570  -0.216
    1UNL    H33   65   0.133   0.444  -0.125
    1UNL    H34   66   0.098   0.472  -0.414
    1UNL    H35   67   0.204   0.366  -0.511
    1UNL    H36   68   0.257   0.530  -0.446
   0.00000   0.00000   0.00000   0.00000   0.00000   0.00000   0.00000   0.00000   0.00000
Generated with MDTraj, t= 93.0
 68
    1UNL     C1    1   0.339  -0.255  -0.134
    1UNL     C2    2   0.280  -0.167  -0.046
    1UNL     C3    3   0.170  -0.215   0.041
    1UNL     O1    4   0.082  -0.306  -0.025
    1UNL     C4    5  -0.045  -0.298   0.037
    1UNL     O2    6  -0.109  -0.171   0.037
    1UNL     C5    7  -0.134  -0.126  -0.093
    1UNL     C6    8  -0.178   0.020  -0.093
    1UNL     O3    9  -0.302   0.035  -0.014
    1UNL     C7   10  -0.296   0.160   0.044
    1UNL     O4   11  -0.175   0.176   0.121
    1UNL     C8   12  -0.193   0.123   0.254
    1UNL     C9   13  -0.345   0.124   0.281
    1UNL     O5   14  -0.367   0.206   0.397
    1UNL    C10   15  -0.393  -0.017   0.316
    1UNL     O6   16  -0.392  -0.103   0.203
    1UNL    C11   17  -0.417   0.175   0.150
    1UNL     O7   18  -0.457   0.306   0.167
    1UNL    C12   19  -0.212  -0.218  -0.189
    1UNL     O8   20  -0.195  -0.187  -0.328
    1UNL    C13   21  -0.158  -0.365  -0.177
    1UNL     O9   22  -0.033  -0.379  -0.240
    1UNL    C14   23  -0.141  -0.401  -0.025
    1UNL    O10   24  -0.095  -0.539  -0.007
    1UNL    C15   25   0.309  -0.023  -0.050
    1UNL    O11   26   0.451  -0.003  -0.025
    1UNL    C16   27   0.280   0.049  -0.180
    1UNL    C17   28   0.297   0.205  -0.168
    1UNL    C18   29   0.251   0.281  -0.287
    1UNL    C19   30   0.244   0.414  -0.301
    1UNL    C20   31   0.251   0.502  -0.184
    1UNL    C21   32   0.232   0.466  -0.440
    1UNL     H1   33   0.324  -0.362  -0.146
    1UNL     H2   34   0.408  -0.210  -0.202
    1UNL     H3   35   0.100  -0.139   0.080
    1UNL     H4   36   0.216  -0.267   0.122
    1UNL     H5   37  -0.029  -0.319   0.140
    1UNL     H6   38  -0.039  -0.111  -0.149
    1UNL     H7   39  -0.100   0.082  -0.047
    1UNL     H8   40  -0.192   0.058  -0.195
    1UNL     H9   41  -0.310   0.237  -0.031
    1UNL    H10   42  -0.136   0.194   0.316
    1UNL    H11   43  -0.150   0.026   0.255
    1UNL    H12   44  -0.456   0.202   0.423
    1UNL    H13   45  -0.326  -0.067   0.394
    1UNL    H14   46  -0.496  -0.020   0.364
    1UNL    H15   47  -0.303  -0.091   0.161
    1UNL    H16   48  -0.500   0.113   0.121
    1UNL    H17   49  -0.379   0.366   0.179
    1UNL    H18   50  -0.318  -0.216  -0.154
    1UNL    H19   51  -0.136  -0.252  -0.369
    1UNL    H20   52  -0.227  -0.437  -0.232
    1UNL    H21   53   0.035  -0.331  -0.195
    1UNL    H22   54  -0.239  -0.395   0.028
    1UNL    H23   55  -0.006  -0.543  -0.046
    1UNL    H24   56   0.242   0.026   0.022
    1UNL    H25   57   0.454  -0.042   0.072
    1UNL    H26   58   0.180   0.029  -0.213
    1UNL    H27   59   0.334   0.004  -0.265
    1UNL    H28   60   0.237   0.232  -0.072
    1UNL    H29   61   0.399   0.228  -0.147
    1UNL    H30   62   0.258   0.224  -0.380
    1UNL    H31   63   0.336   0.475  -0.124
    1UNL    H32   64   0.279   0.604  -0.224
    1UNL    H33   65   0.157   0.510  -0.133
    1UNL    H34   66   0.199   0.385  -0.501
    1UNL    H35   67   0.324   0.510  -0.485
    1UNL    H36   68   0.145   0.533  -0.452
   0.00000   0.00000   0.00000   0.00000   0.00000   0.00000   0.00000   0.00000   0.00000
Generated with MDTraj, t= 94.0
 68
    1UNL     C1    1   0.267  -0.236  -0.173
    1UNL     C2    2   0.243  -0.162  -0.059
    1UNL     C3    3   0.183  -0.228   0.056
    1UNL     O1    4   0.085  -0.320   0.003
    1UNL     C4    5  -0.045  -0.301   0.067
    1UNL     O2    6  -0.086  -0.168   0.051
    1UNL     C5    7  -0.091  -0.124  -0.088
    1UNL     C6    8  -0.128   0.020  -0.095
    1UNL     O3    9  -0.258   0.044  -0.035
    1UNL     C7   10  -0.253   0.155   0.050
    1UNL     O4   11  -0.148   0.147   0.150
    1UNL     C8   12  -0.203   0.088   0.264
    1UNL     C9   13  -0.356   0.101   0.267
    1UNL     O5   14  -0.397   0.187   0.373
    1UNL    C10   15  -0.433  -0.029   0.297
    1UNL     O6   16  -0.403  -0.128   0.200
    1UNL    C11   17  -0.390   0.170   0.128
    1UNL     O7   18  -0.421   0.303   0.135
    1UNL    C12   19  -0.187  -0.204  -0.169
    1UNL     O8   20  -0.191  -0.171  -0.308
    1UNL    C13   21  -0.159  -0.354  -0.149
    1UNL     O9   22  -0.057  -0.398  -0.226
    1UNL    C14   23  -0.144  -0.387   0.000
    1UNL    O10   24  -0.101  -0.522   0.013
    1UNL    C15   25   0.283  -0.015  -0.064
    1UNL    O11   26   0.431   0.003  -0.047
    1UNL    C16   27   0.236   0.063  -0.189
    1UNL    C17   28   0.233   0.217  -0.175
    1UNL    C18   29   0.226   0.297  -0.302
    1UNL    C19   30   0.263   0.426  -0.306
    1UNL    C20   31   0.306   0.506  -0.188
    1UNL    C21   32   0.244   0.500  -0.438
    1UNL     H1   33   0.235  -0.339  -0.178
    1UNL     H2   34   0.314  -0.199  -0.264
    1UNL     H3   35   0.129  -0.156   0.116
    1UNL     H4   36   0.242  -0.297   0.110
    1UNL     H5   37  -0.034  -0.320   0.172
    1UNL     H6   38   0.006  -0.135  -0.140
    1UNL     H7   39  -0.051   0.069  -0.035
    1UNL     H8   40  -0.138   0.061  -0.198
    1UNL     H9   41  -0.226   0.244  -0.007
    1UNL    H10   42  -0.164   0.159   0.341
    1UNL    H11   43  -0.166  -0.012   0.271
    1UNL    H12   44  -0.495   0.210   0.362
    1UNL    H13   45  -0.413  -0.073   0.401
    1UNL    H14   46  -0.544  -0.012   0.289
    1UNL    H15   47  -0.337  -0.092   0.139
    1UNL    H16   48  -0.470   0.113   0.081
    1UNL    H17   49  -0.392   0.335   0.219
    1UNL    H18   50  -0.289  -0.179  -0.126
    1UNL    H19   51  -0.143  -0.234  -0.369
    1UNL    H20   52  -0.250  -0.405  -0.188
    1UNL    H21   53   0.031  -0.374  -0.179
    1UNL    H22   54  -0.244  -0.381   0.049
    1UNL    H23   55  -0.020  -0.533  -0.039
    1UNL    H24   56   0.244   0.048   0.017
    1UNL    H25   57   0.482  -0.070  -0.003
    1UNL    H26   58   0.143   0.023  -0.228
    1UNL    H27   59   0.303   0.038  -0.274
    1UNL    H28   60   0.159   0.250  -0.090
    1UNL    H29   61   0.330   0.232  -0.131
    1UNL    H30   62   0.198   0.246  -0.393
    1UNL    H31   63   0.407   0.481  -0.160
    1UNL    H32   64   0.307   0.616  -0.211
    1UNL    H33   65   0.239   0.495  -0.105
    1UNL    H34   66   0.334   0.545  -0.471
    1UNL    H35   67   0.171   0.587  -0.429
    1UNL    H36   68   0.220   0.437  -0.522
   0.00000   0.00000   0.00000   0.00000   0.00000   0.00000   0.00000   0.00000   0.00000
Generated with MDTraj, t= 95.0
 68
    1UNL     C1    1   0.256  -0.227  -0.206
    1UNL     C2    2   0.221  -0.150  -0.097
    1UNL     C3    3   0.181  -0.221   0.031
    1UNL     O1    4   0.087  -0.328   0.020
    1UNL     C4    5  -0.040  -0.304   0.085
    1UNL     O2    6  -0.068  -0.166   0.077
    1UNL     C5    7  -0.078  -0.123  -0.064
    1UNL     C6    8  -0.093   0.025  -0.083
    1UNL     O3    9  -0.224   0.064  -0.045
    1UNL     C7   10  -0.223   0.156   0.059
    1UNL     O4   11  -0.126   0.134   0.168
    1UNL     C8   12  -0.202   0.073   0.272
    1UNL     C9   13  -0.355   0.092   0.257
    1UNL     O5   14  -0.428   0.159   0.361
    1UNL    C10   15  -0.426  -0.045   0.232
    1UNL     O6   16  -0.383  -0.130   0.122
    1UNL    C11   17  -0.363   0.171   0.125
    1UNL     O7   18  -0.419   0.297   0.130
    1UNL    C12   19  -0.194  -0.199  -0.143
    1UNL     O8   20  -0.202  -0.168  -0.280
    1UNL    C13   21  -0.176  -0.362  -0.125
    1UNL     O9   22  -0.052  -0.405  -0.190
    1UNL    C14   23  -0.157  -0.388   0.027
    1UNL    O10   24  -0.136  -0.529   0.042
    1UNL    C15   25   0.247  -0.008  -0.087
    1UNL    O11   26   0.392   0.021  -0.062
    1UNL    C16   27   0.201   0.080  -0.205
    1UNL    C17   28   0.231   0.221  -0.169
    1UNL    C18   29   0.212   0.309  -0.287
    1UNL    C19   30   0.268   0.431  -0.305
    1UNL    C20   31   0.353   0.505  -0.197
    1UNL    C21   32   0.240   0.509  -0.425
    1UNL     H1   33   0.255  -0.333  -0.204
    1UNL     H2   34   0.307  -0.183  -0.289
    1UNL     H3   35   0.134  -0.168   0.112
    1UNL     H4   36   0.269  -0.269   0.066
    1UNL     H5   37  -0.027  -0.326   0.191
    1UNL     H6   38   0.012  -0.157  -0.117
    1UNL     H7   39  -0.020   0.089  -0.033
    1UNL     H8   40  -0.097   0.028  -0.196
    1UNL     H9   41  -0.192   0.252   0.018
    1UNL    H10   42  -0.165   0.103   0.373
    1UNL    H11   43  -0.181  -0.032   0.254
    1UNL    H12   44  -0.522   0.192   0.332
    1UNL    H13   45  -0.407  -0.106   0.325
    1UNL    H14   46  -0.535  -0.032   0.220
    1UNL    H15   47  -0.317  -0.086   0.062
    1UNL    H16   48  -0.437   0.112   0.066
    1UNL    H17   49  -0.360   0.356   0.181
    1UNL    H18   50  -0.287  -0.166  -0.089
    1UNL    H19   51  -0.162  -0.234  -0.341
    1UNL    H20   52  -0.262  -0.417  -0.161
    1UNL    H21   53   0.025  -0.371  -0.143
    1UNL    H22   54  -0.249  -0.367   0.088
    1UNL    H23   55  -0.067  -0.551  -0.027
    1UNL    H24   56   0.198   0.015   0.009
    1UNL    H25   57   0.428  -0.059  -0.030
    1UNL    H26   58   0.096   0.055  -0.231
    1UNL    H27   59   0.254   0.042  -0.293
    1UNL    H28   60   0.169   0.254  -0.077
    1UNL    H29   61   0.332   0.215  -0.129
    1UNL    H30   62   0.156   0.261  -0.365
    1UNL    H31   63   0.457   0.474  -0.207
    1UNL    H32   64   0.352   0.613  -0.211
    1UNL    H33   65   0.325   0.485  -0.094
    1UNL    H34   66   0.185   0.596  -0.388
    1UNL    H35   67   0.179   0.457  -0.502
    1UNL    H36   68   0.330   0.547  -0.466
   0.00000   0.00000   0.00000   0.00000   0.00000   0.00000   0.00000   0.00000   0.00000
Generated with MDTraj, t= 96.0
 68
    1UNL     C1    1   0.254  -0.212  -0.213
    1UNL     C2    2   0.238  -0.159  -0.091
    1UNL     C3    3   0.200  -0.235   0.026
    1UNL     O1    4   0.095  -0.331   0.007
    1UNL     C4    5  -0.022  -0.285   0.082
    1UNL     O2    6  -0.059  -0.149   0.054
    1UNL     C5    7  -0.094  -0.116  -0.085
    1UNL     C6    8  -0.112   0.039  -0.093
    1UNL     O3    9  -0.242   0.083  -0.053
    1UNL     C7   10  -0.245   0.179   0.054
    1UNL     O4   11  -0.141   0.147   0.148
    1UNL     C8   12  -0.208   0.061   0.244
    1UNL     C9   13  -0.365   0.070   0.229
    1UNL     O5   14  -0.429   0.112   0.353
    1UNL    C10   15  -0.440  -0.057   0.189
    1UNL     O6   16  -0.358  -0.137   0.109
    1UNL    C11   17  -0.379   0.186   0.133
    1UNL     O7   18  -0.395   0.311   0.205
    1UNL    C12   19  -0.201  -0.208  -0.139
    1UNL     O8   20  -0.193  -0.194  -0.277
    1UNL    C13   21  -0.192  -0.354  -0.094
    1UNL     O9   22  -0.107  -0.419  -0.184
    1UNL    C14   23  -0.147  -0.369   0.052
    1UNL    O10   24  -0.118  -0.509   0.073
    1UNL    C15   25   0.266  -0.013  -0.075
    1UNL    O11   26   0.401   0.010  -0.036
    1UNL    C16   27   0.240   0.074  -0.201
    1UNL    C17   28   0.237   0.222  -0.171
    1UNL    C18   29   0.198   0.312  -0.287
    1UNL    C19   30   0.265   0.429  -0.306
    1UNL    C20   31   0.371   0.471  -0.219
    1UNL    C21   32   0.229   0.532  -0.415
    1UNL     H1   33   0.227  -0.317  -0.223
    1UNL     H2   34   0.276  -0.165  -0.308
    1UNL     H3   35   0.161  -0.158   0.092
    1UNL     H4   36   0.280  -0.288   0.077
    1UNL     H5   37  -0.007  -0.291   0.193
    1UNL     H6   38  -0.000  -0.142  -0.135
    1UNL     H7   39  -0.038   0.078  -0.024
    1UNL     H8   40  -0.098   0.079  -0.198
    1UNL     H9   41  -0.230   0.281   0.015
    1UNL    H10   42  -0.184   0.102   0.345
    1UNL    H11   43  -0.168  -0.042   0.233
    1UNL    H12   44  -0.505   0.174   0.330
    1UNL    H13   45  -0.458  -0.123   0.276
    1UNL    H14   46  -0.535  -0.038   0.141
    1UNL    H15   47  -0.327  -0.067   0.046
    1UNL    H16   48  -0.458   0.181   0.053
    1UNL    H17   49  -0.320   0.328   0.273
    1UNL    H18   50  -0.303  -0.168  -0.109
    1UNL    H19   51  -0.186  -0.274  -0.330
    1UNL    H20   52  -0.291  -0.388  -0.112
    1UNL    H21   53  -0.017  -0.409  -0.144
    1UNL    H22   54  -0.229  -0.347   0.124
    1UNL    H23   55  -0.028  -0.531   0.039
    1UNL    H24   56   0.208   0.032   0.009
    1UNL    H25   57   0.414  -0.017   0.055
    1UNL    H26   58   0.137   0.040  -0.232
    1UNL    H27   59   0.313   0.035  -0.273
    1UNL    H28   60   0.168   0.233  -0.082
    1UNL    H29   61   0.336   0.253  -0.129
    1UNL    H30   62   0.127   0.278  -0.364
    1UNL    H31   63   0.447   0.391  -0.217
    1UNL    H32   64   0.413   0.562  -0.253
    1UNL    H33   65   0.328   0.481  -0.117
    1UNL    H34   66   0.144   0.494  -0.476
    1UNL    H35   67   0.312   0.557  -0.479
    1UNL    H36   68   0.194   0.623  -0.370
   0.00000   0.00000   0.00000   0.00000   0.00000   0.00000   0.00000   0.00000   0.00000
Generated with MDTraj, t= 97.0
 68
    1UNL     C1    1   0.280  -0.223  -0.218
    1UNL     C2    2   0.267  -0.164  -0.095
    1UNL     C3    3   0.206  -0.246   0.015
    1UNL     O1    4   0.072  -0.298  -0.011
    1UNL     C4    5  -0.035  -0.247   0.061
    1UNL     O2    6  -0.067  -0.111   0.034
    1UNL     C5    7  -0.102  -0.098  -0.107
    1UNL     C6    8  -0.152   0.050  -0.129
    1UNL     O3    9  -0.266   0.070  -0.053
    1UNL     C7   10  -0.239   0.155   0.056
    1UNL     O4   11  -0.139   0.101   0.149
    1UNL     C8   12  -0.212   0.045   0.258
    1UNL     C9   13  -0.366   0.062   0.243
    1UNL     O5   14  -0.424   0.108   0.367
    1UNL    C10   15  -0.430  -0.076   0.222
    1UNL     O6   16  -0.384  -0.135   0.103
    1UNL    C11   17  -0.374   0.170   0.129
    1UNL     O7   18  -0.384   0.290   0.191
    1UNL    C12   19  -0.209  -0.201  -0.158
    1UNL     O8   20  -0.196  -0.199  -0.301
    1UNL    C13   21  -0.196  -0.348  -0.093
    1UNL     O9   22  -0.090  -0.411  -0.167
    1UNL    C14   23  -0.160  -0.338   0.053
    1UNL    O10   24  -0.123  -0.461   0.112
    1UNL    C15   25   0.282  -0.019  -0.067
    1UNL    O11   26   0.415   0.005  -0.019
    1UNL    C16   27   0.243   0.073  -0.188
    1UNL    C17   28   0.248   0.224  -0.146
    1UNL    C18   29   0.204   0.316  -0.249
    1UNL    C19   30   0.265   0.424  -0.302
    1UNL    C20   31   0.388   0.473  -0.242
    1UNL    C21   32   0.217   0.499  -0.419
    1UNL     H1   33   0.267  -0.325  -0.248
    1UNL     H2   34   0.310  -0.165  -0.301
    1UNL     H3   35   0.197  -0.191   0.110
    1UNL     H4   36   0.271  -0.334   0.029
    1UNL     H5   37  -0.004  -0.251   0.170
    1UNL     H6   38  -0.008  -0.112  -0.161
    1UNL     H7   39  -0.084   0.121  -0.087
    1UNL     H8   40  -0.168   0.084  -0.237
    1UNL     H9   41  -0.211   0.252   0.011
    1UNL    H10   42  -0.170   0.089   0.350
    1UNL    H11   43  -0.190  -0.065   0.253
    1UNL    H12   44  -0.396   0.200   0.369
    1UNL    H13   45  -0.406  -0.144   0.303
    1UNL    H14   46  -0.534  -0.062   0.209
    1UNL    H15   47  -0.336  -0.074   0.041
    1UNL    H16   48  -0.462   0.151   0.061
    1UNL    H17   49  -0.293   0.317   0.231
    1UNL    H18   50  -0.312  -0.162  -0.132
    1UNL    H19   51  -0.192  -0.293  -0.338
    1UNL    H20   52  -0.290  -0.392  -0.107
    1UNL    H21   53  -0.019  -0.343  -0.171
    1UNL    H22   54  -0.242  -0.296   0.113
    1UNL    H23   55  -0.036  -0.491   0.085
    1UNL    H24   56   0.205   0.000   0.011
    1UNL    H25   57   0.463  -0.069   0.035
    1UNL    H26   58   0.141   0.039  -0.222
    1UNL    H27   59   0.323   0.060  -0.263
    1UNL    H28   60   0.188   0.245  -0.055
    1UNL    H29   61   0.358   0.240  -0.117
    1UNL    H30   62   0.117   0.277  -0.293
    1UNL    H31   63   0.478   0.410  -0.257
    1UNL    H32   64   0.406   0.568  -0.284
    1UNL    H33   65   0.375   0.490  -0.133
    1UNL    H34   66   0.302   0.501  -0.488
    1UNL    H35   67   0.186   0.595  -0.394
    1UNL    H36   68   0.136   0.447  -0.476
   0.00000   0.00000   0.00000   0.00000   0.00000   0.00000   0.00000   0.00000   0.00000
Generated with MDTraj, t= 98.0
 68
    1UNL     C1    1   0.304  -0.216  -0.182
    1UNL     C2    2   0.266  -0.156  -0.070
    1UNL     C3    3   0.205  -0.238   0.038
    1UNL     O1    4   0.092  -0.315  -0.000
    1UNL     C4    5  -0.020  -0.245   0.049
    1UNL     O2    6  -0.037  -0.112  -0.015
    1UNL     C5    7  -0.099  -0.101  -0.140
    1UNL     C6    8  -0.157   0.046  -0.128
    1UNL     O3    9  -0.271   0.049  -0.056
    1UNL     C7   10  -0.258   0.140   0.051
    1UNL     O4   11  -0.152   0.102   0.137
    1UNL     C8   12  -0.194   0.022   0.245
    1UNL     C9   13  -0.350   0.055   0.262
    1UNL     O5   14  -0.380   0.126   0.381
    1UNL    C10   15  -0.432  -0.071   0.243
    1UNL     O6   16  -0.407  -0.128   0.110
    1UNL    C11   17  -0.381   0.155   0.145
    1UNL     O7   18  -0.402   0.291   0.184
    1UNL    C12   19  -0.215  -0.195  -0.174
    1UNL     O8   20  -0.227  -0.204  -0.318
    1UNL    C13   21  -0.202  -0.332  -0.104
    1UNL     O9   22  -0.105  -0.416  -0.169
    1UNL    C14   23  -0.160  -0.317   0.044
    1UNL    O10   24  -0.156  -0.445   0.101
    1UNL    C15   25   0.298  -0.006  -0.048
    1UNL    O11   26   0.433   0.029  -0.034
    1UNL    C16   27   0.226   0.076  -0.159
    1UNL    C17   28   0.253   0.224  -0.138
    1UNL    C18   29   0.213   0.308  -0.247
    1UNL    C19   30   0.276   0.415  -0.298
    1UNL    C20   31   0.406   0.472  -0.255
    1UNL    C21   32   0.203   0.481  -0.414
    1UNL     H1   33   0.282  -0.320  -0.201
    1UNL     H2   34   0.364  -0.177  -0.264
    1UNL     H3   35   0.187  -0.167   0.125
    1UNL     H4   36   0.283  -0.315   0.066
    1UNL     H5   37   0.001  -0.219   0.159
    1UNL     H6   38  -0.025  -0.103  -0.220
    1UNL     H7   39  -0.093   0.130  -0.111
    1UNL     H8   40  -0.214   0.071  -0.225
    1UNL     H9   41  -0.244   0.237  -0.004
    1UNL    H10   42  -0.130   0.052   0.329
    1UNL    H11   43  -0.172  -0.085   0.213
    1UNL    H12   44  -0.483   0.128   0.387
    1UNL    H13   45  -0.401  -0.150   0.308
    1UNL    H14   46  -0.534  -0.055   0.251
    1UNL    H15   47  -0.362  -0.059   0.057
    1UNL    H16   48  -0.477   0.121   0.095
    1UNL    H17   49  -0.393   0.302   0.278
    1UNL    H18   50  -0.315  -0.155  -0.138
    1UNL    H19   51  -0.234  -0.294  -0.353
    1UNL    H20   52  -0.291  -0.388  -0.106
    1UNL    H21   53  -0.019  -0.390  -0.137
    1UNL    H22   54  -0.227  -0.256   0.104
    1UNL    H23   55  -0.083  -0.499   0.061
    1UNL    H24   56   0.244   0.023   0.043
    1UNL    H25   57   0.474  -0.066  -0.023
    1UNL    H26   58   0.114   0.063  -0.155
    1UNL    H27   59   0.271   0.043  -0.257
    1UNL    H28   60   0.207   0.254  -0.044
    1UNL    H29   61   0.369   0.242  -0.124
    1UNL    H30   62   0.109   0.292  -0.281
    1UNL    H31   63   0.487   0.401  -0.275
    1UNL    H32   64   0.428   0.567  -0.302
    1UNL    H33   65   0.405   0.490  -0.147
    1UNL    H34   66   0.178   0.580  -0.381
    1UNL    H35   67   0.116   0.437  -0.456
    1UNL    H36   68   0.275   0.508  -0.497
   0.00000   0.00000   0.00000   0.00000   0.00000   0.00000   0.00000   0.00000   0.00000
Generated with MDTraj, t= 99.0
 68
    1UNL     C1    1   0.308  -0.208  -0.165
    1UNL     C2    2   0.264  -0.152  -0.056
    1UNL     C3    3   0.194  -0.227   0.052
    1UNL     O1    4   0.076  -0.291  -0.005
    1UNL     C4    5  -0.042  -0.247   0.053
    1UNL     O2    6  -0.076  -0.108   0.018
    1UNL     C5    7  -0.110  -0.099  -0.123
    1UNL     C6    8  -0.171   0.044  -0.147
    1UNL     O3    9  -0.288   0.069  -0.075
    1UNL     C7   10  -0.264   0.166   0.036
    1UNL     O4   11  -0.152   0.130   0.117
    1UNL     C8   12  -0.190   0.035   0.216
    1UNL     C9   13  -0.339   0.062   0.255
    1UNL     O5   14  -0.356   0.131   0.382
    1UNL    C10   15  -0.414  -0.075   0.248
    1UNL     O6   16  -0.396  -0.143   0.120
    1UNL    C11   17  -0.381   0.155   0.142
    1UNL     O7   18  -0.405   0.284   0.193
    1UNL    C12   19  -0.218  -0.196  -0.164
    1UNL     O8   20  -0.244  -0.208  -0.307
    1UNL    C13   21  -0.191  -0.343  -0.115
    1UNL     O9   22  -0.084  -0.395  -0.185
    1UNL    C14   23  -0.157  -0.348   0.032
    1UNL    O10   24  -0.110  -0.473   0.077
    1UNL    C15   25   0.298  -0.015  -0.037
    1UNL    O11   26   0.437   0.003  -0.053
    1UNL    C16   27   0.217   0.077  -0.129
    1UNL    C17   28   0.262   0.217  -0.133
    1UNL    C18   29   0.202   0.298  -0.243
    1UNL    C19   30   0.267   0.406  -0.295
    1UNL    C20   31   0.408   0.445  -0.257
    1UNL    C21   32   0.200   0.487  -0.404
    1UNL     H1   33   0.288  -0.307  -0.195
    1UNL     H2   34   0.367  -0.154  -0.235
    1UNL     H3   35   0.159  -0.154   0.131
    1UNL     H4   36   0.258  -0.308   0.098
    1UNL     H5   37  -0.029  -0.264   0.167
    1UNL     H6   38  -0.019  -0.119  -0.181
    1UNL     H7   39  -0.111   0.121  -0.104
    1UNL     H8   40  -0.187   0.081  -0.252
    1UNL     H9   41  -0.259   0.269  -0.005
    1UNL    H10   42  -0.127   0.051   0.305
    1UNL    H11   43  -0.179  -0.070   0.168
    1UNL    H12   44  -0.390   0.224   0.366
    1UNL    H13   45  -0.386  -0.139   0.330
    1UNL    H14   46  -0.518  -0.061   0.250
    1UNL    H15   47  -0.374  -0.084   0.042
    1UNL    H16   48  -0.480   0.123   0.099
    1UNL    H17   49  -0.321   0.330   0.215
    1UNL    H18   50  -0.317  -0.166  -0.120
    1UNL    H19   51  -0.162  -0.235  -0.352
    1UNL    H20   52  -0.273  -0.407  -0.142
    1UNL    H21   53   0.005  -0.366  -0.144
    1UNL    H22   54  -0.246  -0.321   0.088
    1UNL    H23   55  -0.018  -0.482   0.040
    1UNL    H24   56   0.271   0.015   0.065
    1UNL    H25   57   0.495  -0.063  -0.008
    1UNL    H26   58   0.110   0.078  -0.093
    1UNL    H27   59   0.222   0.042  -0.236
    1UNL    H28   60   0.230   0.266  -0.041
    1UNL    H29   61   0.378   0.222  -0.132
    1UNL    H30   62   0.100   0.283  -0.266
    1UNL    H31   63   0.481   0.368  -0.279
    1UNL    H32   64   0.440   0.545  -0.298
    1UNL    H33   65   0.408   0.458  -0.150
    1UNL    H34   66   0.126   0.430  -0.451
    1UNL    H35   67   0.270   0.519  -0.482
    1UNL    H36   68   0.145   0.571  -0.360
   0.00000   0.00000   0.00000   0.00000   0.00000   0.00000   0.00000   0.00000   0.00000
