[ moleculetype ]
; name        nrexcl
res           1

[ atoms ]
;    nr  type  resnr resid  atom  cgnr     charge       mass
      1 TC5       1 res   C1        1      0.000     36.000
      2 TP1d      1 res   C2        2      0.000     36.000
      3 SN4a      1 res   C3        3      0.000     54.000
      4 TN3r      1 res   C4        4      0.000     36.000
      5 SN4a      1 res   C5        5      0.000     54.000
      6 SP4       1 res   C6        6      0.000     54.000
      7 TP1       1 res   C7        7      0.000     36.000
      8 SP4       1 res   C8        8      0.000     54.000
      9 TN6       1 res   C9        9      0.000     36.000
     10 SP1       1 res   C10      10      0.000     54.000
     11 TC3       1 res   C11      11      0.000     36.000
     12 SC2       1 res   C12      12      0.000     54.000

[ constraints ]
;  ai    aj   funct      b0(nm)
    1     2     1      0.26745
   10    11     1      0.26439
   11    12     1      0.28993
    3     8     1      0.25048
    1    10     1      0.26154
    5     6     1      0.23173
    6     7     1      0.29435
    8     9     1      0.28157

[ bonds ]
;  ai    aj   funct      b0(nm)          k(kJ/mol/nm^2)
    2     3     1      0.32220            703.4
    4     5     1      0.31807           3366.4
    3     4     1      0.25029           2681.1
    3     9     1      0.28303          18551.9

[ angles ]
;  ai    aj    ak  funct     th0(deg)        k(kJ/mol/rad^2)
    1     2     3     1     99.47536            14.62
    1    10    11     1    146.85054            86.14
    2     1    10     1     78.56882           453.69
    2     3     4     1    129.47305            89.13
    2     3     8     1    113.40844            86.11
    2     3     9     1     62.71883            18.18
    3     4     5     1    132.81420            23.85
    3     8     9     1     64.00737           626.54
    3     9     8     1     52.69925           803.07
    4     3     8     1     96.65916            99.32
    4     3     9     1    128.78305            53.58
    4     5     6     1    101.43353           114.50
    5     6     7     1     76.13604           238.88
    8     3     9     1     63.29341          1465.22
   10    11    12     1    138.23079            17.60

[ dihedrals ]
;  ai    aj    ak    al  funct   phi0(deg)        k(kJ/mol)   mult
    1     2     3     4     1    107.45563       30.406      1
    1     2     3     8     1    -33.17274       11.987      1
    1     2     3     9     1    -34.27126       21.473      1
    1    10    11    12     1    -94.39597       13.511      1
    2     1    10    11     1     66.97206       27.273      1
    2     3     4     5     1      4.50545       21.732      1
    2     3     8     9     1   -142.80451       26.864      1
    2     3     9     8     1     24.60909       26.059      1
    3     2     1    10     1   -105.49491       22.477      1
    3     4     5     6     1   -132.56982       17.724      1
    4     3     8     9     1     45.92015       23.009      1
    4     3     9     8     1   -119.06493       20.151      1
    4     5     6     7     1    -77.73311       23.519      1
    5     4     3     8     1    128.65926       16.100      1
    5     4     3     9     1     58.56566       18.245      1
