[ moleculetype ]
; name        nrexcl
res           1

[ atoms ]
;    nr  type resnr resid  atom  cgnr     charge       mass
      1 SC4       1 res   C1        1      0.000     54.000
      2 C1        1 res   C2        2      0.000     72.000
      3 TC3       1 res   C3        3      0.000     36.000
      4 SC3       1 res   C4        4      0.000     54.000
      5 TC5       1 res   C5        5      0.000     36.000
      6 TC3       1 res   C6        6      0.000     36.000
      7 SC4       1 res   C7        7      0.000     54.000
      8 SN6       1 res   C8        8      0.000     54.000
      9 TC3       1 res   C9        9      0.000     36.000
     10 TC3       1 res   C10      10      0.000     36.000
     11 SC2       1 res   C11      11      0.000     54.000

[ bonds ]
;  ai    aj   funct      b0(nm)        k
    1     2     1      0.40663    20000
    1    11     1      0.39933    20000
    2     3     1      0.29696    20000
    3     4     1      0.23146    20000
    4     5     1      0.27257    20000
    4    10     1      0.27903    20000
    5     6     1      0.28703    20000
    5     7     1      0.24018    20000
    5    10     1      0.27399    20000
    6     7     1      0.32912    20000
    7     8     1      0.34768    20000
    7     9     1      0.27753    20000
    8     9     1      0.27498    20000
