[ moleculetype ]
; name        nrexcl
res           1

[ atoms ]
;    nr  type  resnr resid  atom  cgnr     charge       mass
      1 X1        1 res   C1        1      0.000     72.000
      2 TC5       1 res   C2        2      0.000     36.000
      3 SP2       1 res   C3        3      0.000     54.000
      4 TC5       1 res   C4        4      0.000     36.000

[ bonds ]
;  ai    aj   funct      b0(nm)          k(kJ/mol/nm^2)
    1     2     1      0.31244         131890.2
    1     4     1      0.31243         164515.1
    2     3     1      0.27342          37201.1
    2     4     1      0.25626         183617.2

[ angles ]
;  ai    aj    ak  funct     th0(deg)        k(kJ/mol/rad^2)
    1     2     3     1     84.46557           612.67
    1     2     4     1     65.78928          6638.01
    1     4     2     1     65.79487          5669.62
    2     1     4     1     48.41585         15116.49
    3     2     4     1    149.52420           600.15

[ dihedrals ]
;  ai    aj    ak    al  funct   phi0(deg)        k(kJ/mol)   mult
    1     4     2     3     1    167.85629       13.639      1
    1     4     2     3     1    155.75745       12.899      2
    1     4     2     3     1    143.75634       11.727      3
    3     2     1     4     1     -5.77878        7.790      1
    3     2     1     4     1    168.43193        7.664      2
    3     2     1     4     1    -17.37889        7.456      3
