Generated with MDTraj, t= 0.0
 96
    1UNL     C1    1   0.152  -0.082   0.291
    1UNL     C2    2   0.232  -0.170   0.196
    1UNL     C3    3   0.235  -0.322   0.232
    1UNL     C4    4   0.310  -0.395   0.116
    1UNL     O1    5   0.306  -0.537   0.130
    1UNL     O2    6   0.443  -0.339   0.113
    1UNL     C5    7   0.425  -0.201   0.075
    1UNL     O3    8   0.370  -0.128   0.187
    1UNL     C6    9   0.311  -0.203  -0.034
    1UNL     C7   10   0.339  -0.143  -0.171
    1UNL     O4   11   0.375  -0.007  -0.164
    1UNL     C8   12   0.276   0.074  -0.215
    1UNL     O5   13   0.174   0.034  -0.267
    1UNL     C9   14   0.297   0.219  -0.202
    1UNL    C10   15   0.217   0.308  -0.272
    1UNL    C11   16   0.232   0.444  -0.256
    1UNL    C12   17   0.329   0.495  -0.170
    1UNL     O6   18   0.347   0.630  -0.152
    1UNL    C13   19   0.411   0.404  -0.101
    1UNL    C14   20   0.394   0.269  -0.116
    1UNL    C15   21   0.249  -0.348  -0.023
    1UNL    C16   22   0.110  -0.280  -0.014
    1UNL    C17   23   0.182  -0.155   0.045
    1UNL     O7   24   0.136  -0.025   0.012
    1UNL    C18   25  -0.003  -0.019  -0.008
    1UNL     O8   26  -0.083  -0.098   0.080
    1UNL    C19   27  -0.219  -0.110   0.036
    1UNL    C20   28  -0.306  -0.178   0.143
    1UNL     O9   29  -0.241  -0.288   0.200
    1UNL    C21   30  -0.162  -0.247   0.303
    1UNL    O10   31  -0.151  -0.131   0.340
    1UNL    C22   32  -0.085  -0.353   0.371
    1UNL    C23   33  -0.015  -0.326   0.488
    1UNL    C24   34   0.061  -0.424   0.548
    1UNL    C25   35   0.067  -0.550   0.493
    1UNL    C26   36  -0.003  -0.579   0.378
    1UNL    C27   37  -0.078  -0.481   0.317
    1UNL    C28   38  -0.279   0.028  -0.007
    1UNL    O11   39  -0.288   0.036  -0.148
    1UNL    C29   40  -0.381   0.136  -0.189
    1UNL    O12   41  -0.356   0.265  -0.127
    1UNL    C30   42  -0.382   0.376  -0.213
    1UNL    C31   43  -0.385   0.506  -0.133
    1UNL    O13   44  -0.264   0.530  -0.066
    1UNL    C32   45  -0.277   0.375  -0.328
    1UNL    O14   46  -0.148   0.407  -0.280
    1UNL    C33   47  -0.273   0.233  -0.397
    1UNL    O15   48  -0.150   0.168  -0.372
    1UNL    C34   49  -0.389   0.144  -0.345
    1UNL    O16   50  -0.516   0.191  -0.386
    1UNL    C35   51  -0.192   0.141   0.053
    1UNL    O17   52  -0.190   0.137   0.195
    1UNL    C36   53  -0.048   0.130  -0.003
    1UNL    O18   54  -0.034   0.187  -0.132
    1UNL     H1   55   0.046  -0.106   0.285
    1UNL     H2   56   0.187  -0.094   0.393
    1UNL     H3   57   0.164   0.022   0.262
    1UNL     H4   58   0.135  -0.362   0.245
    1UNL     H5   59   0.290  -0.336   0.324
    1UNL     H6   60   0.377  -0.563   0.192
    1UNL     H7   61   0.519  -0.155   0.041
    1UNL     H8   62   0.251  -0.152  -0.236
    1UNL     H9   63   0.422  -0.196  -0.219
    1UNL    H10   64   0.141   0.269  -0.337
    1UNL    H11   65   0.168   0.512  -0.309
    1UNL    H12   66   0.282   0.680  -0.205
    1UNL    H13   67   0.485   0.444  -0.034
    1UNL    H14   68   0.456   0.199  -0.062
    1UNL    H15   69   0.268  -0.414  -0.109
    1UNL    H16   70   0.063  -0.261  -0.112
    1UNL    H17   71   0.039  -0.327   0.055
    1UNL    H18   72  -0.021  -0.057  -0.109
    1UNL    H19   73  -0.215  -0.175  -0.053
    1UNL    H20   74  -0.329  -0.108   0.224
    1UNL    H21   75  -0.401  -0.212   0.101
    1UNL    H22   76  -0.021  -0.227   0.530
    1UNL    H23   77   0.115  -0.401   0.639
    1UNL    H24   78   0.127  -0.626   0.541
    1UNL    H25   79   0.003  -0.677   0.335
    1UNL    H26   80  -0.133  -0.502   0.227
    1UNL    H27   81  -0.381   0.036   0.033
    1UNL    H28   82  -0.480   0.105  -0.152
    1UNL    H29   83  -0.482   0.357  -0.255
    1UNL    H30   84  -0.463   0.502  -0.056
    1UNL    H31   85  -0.407   0.592  -0.197
    1UNL    H32   86  -0.192   0.499  -0.125
    1UNL    H33   87  -0.302   0.453  -0.401
    1UNL    H34   88  -0.111   0.328  -0.233
    1UNL    H35   89  -0.280   0.245  -0.506
    1UNL    H36   90  -0.160   0.121  -0.286
    1UNL    H37   91  -0.376   0.042  -0.384
    1UNL    H38   92  -0.522   0.191  -0.484
    1UNL    H39   93  -0.234   0.239   0.026
    1UNL    H40   94  -0.169   0.046   0.229
    1UNL    H41   95   0.021   0.184   0.064
    1UNL    H42   96   0.038   0.139  -0.180
   0.00000   0.00000   0.00000   0.00000   0.00000   0.00000   0.00000   0.00000   0.00000
Generated with MDTraj, t= 1.0
 96
    1UNL     C1    1   0.183  -0.067   0.305
    1UNL     C2    2   0.246  -0.161   0.206
    1UNL     C3    3   0.234  -0.314   0.243
    1UNL     C4    4   0.291  -0.395   0.124
    1UNL     O1    5   0.270  -0.539   0.152
    1UNL     O2    6   0.429  -0.349   0.109
    1UNL     C5    7   0.421  -0.208   0.076
    1UNL     O3    8   0.382  -0.126   0.187
    1UNL     C6    9   0.300  -0.204  -0.031
    1UNL     C7   10   0.323  -0.150  -0.169
    1UNL     O4   11   0.364  -0.017  -0.173
    1UNL     C8   12   0.261   0.067  -0.214
    1UNL     O5   13   0.156   0.022  -0.255
    1UNL     C9   14   0.288   0.208  -0.203
    1UNL    C10   15   0.204   0.294  -0.267
    1UNL    C11   16   0.218   0.434  -0.242
    1UNL    C12   17   0.318   0.488  -0.161
    1UNL     O6   18   0.333   0.620  -0.132
    1UNL    C13   19   0.412   0.397  -0.101
    1UNL    C14   20   0.385   0.261  -0.119
    1UNL    C15   21   0.225  -0.341  -0.018
    1UNL    C16   22   0.094  -0.265   0.014
    1UNL    C17   23   0.183  -0.144   0.055
    1UNL     O7   24   0.139  -0.011   0.027
    1UNL    C18   25  -0.000  -0.007  -0.002
    1UNL     O8   26  -0.084  -0.093   0.078
    1UNL    C19   27  -0.221  -0.111   0.035
    1UNL    C20   28  -0.301  -0.186   0.145
    1UNL     O9   29  -0.234  -0.292   0.196
    1UNL    C21   30  -0.149  -0.259   0.302
    1UNL    O10   31  -0.128  -0.142   0.331
    1UNL    C22   32  -0.073  -0.369   0.371
    1UNL    C23   33   0.007  -0.336   0.482
    1UNL    C24   34   0.088  -0.436   0.542
    1UNL    C25   35   0.094  -0.559   0.482
    1UNL    C26   36   0.017  -0.588   0.370
    1UNL    C27   37  -0.058  -0.498   0.306
    1UNL    C28   38  -0.285   0.029  -0.002
    1UNL    O11   39  -0.283   0.045  -0.145
    1UNL    C29   40  -0.368   0.149  -0.194
    1UNL    O12   41  -0.352   0.286  -0.134
    1UNL    C30   42  -0.383   0.386  -0.227
    1UNL    C31   43  -0.392   0.519  -0.149
    1UNL    O13   44  -0.273   0.553  -0.085
    1UNL    C32   45  -0.274   0.392  -0.343
    1UNL    O14   46  -0.138   0.418  -0.300
    1UNL    C33   47  -0.272   0.248  -0.413
    1UNL    O15   48  -0.149   0.188  -0.420
    1UNL    C34   49  -0.370   0.146  -0.347
    1UNL    O16   50  -0.501   0.162  -0.399
    1UNL    C35   51  -0.201   0.139   0.064
    1UNL    O17   52  -0.196   0.135   0.211
    1UNL    C36   53  -0.050   0.136   0.003
    1UNL    O18   54  -0.042   0.190  -0.126
    1UNL     H1   55   0.087  -0.114   0.339
    1UNL     H2   56   0.230  -0.075   0.401
    1UNL     H3   57   0.166   0.031   0.256
    1UNL     H4   58   0.134  -0.337   0.266
    1UNL     H5   59   0.294  -0.344   0.337
    1UNL     H6   60   0.351  -0.560   0.208
    1UNL     H7   61   0.518  -0.170   0.038
    1UNL     H8   62   0.232  -0.154  -0.229
    1UNL     H9   63   0.385  -0.207  -0.234
    1UNL    H10   64   0.143   0.257  -0.350
    1UNL    H11   65   0.146   0.503  -0.279
    1UNL    H12   66   0.254   0.674  -0.163
    1UNL    H13   67   0.502   0.422  -0.042
    1UNL    H14   68   0.440   0.192  -0.064
    1UNL    H15   69   0.235  -0.414  -0.099
    1UNL    H16   70   0.044  -0.240  -0.075
    1UNL    H17   71   0.026  -0.289   0.100
    1UNL    H18   72   0.002  -0.062  -0.094
    1UNL    H19   73  -0.229  -0.177  -0.053
    1UNL    H20   74  -0.311  -0.125   0.232
    1UNL    H21   75  -0.398  -0.223   0.109
    1UNL    H22   76  -0.010  -0.243   0.529
    1UNL    H23   77   0.155  -0.422   0.626
    1UNL    H24   78   0.143  -0.635   0.543
    1UNL    H25   79   0.018  -0.688   0.332
    1UNL    H26   80  -0.100  -0.524   0.205
    1UNL    H27   81  -0.388   0.019   0.029
    1UNL    H28   82  -0.461   0.118  -0.152
    1UNL    H29   83  -0.474   0.353  -0.282
    1UNL    H30   84  -0.472   0.510  -0.075
    1UNL    H31   85  -0.416   0.598  -0.220
    1UNL    H32   86  -0.244   0.492  -0.019
    1UNL    H33   87  -0.285   0.467  -0.421
    1UNL    H34   88  -0.116   0.352  -0.234
    1UNL    H35   89  -0.292   0.267  -0.523
    1UNL    H36   90  -0.116   0.166  -0.326
    1UNL    H37   91  -0.343   0.037  -0.363
    1UNL    H38   92  -0.509   0.146  -0.501
    1UNL    H39   93  -0.235   0.244   0.050
    1UNL    H40   94  -0.160   0.046   0.239
    1UNL    H41   95   0.014   0.206   0.064
    1UNL    H42   96   0.021   0.141  -0.190
   0.00000   0.00000   0.00000   0.00000   0.00000   0.00000   0.00000   0.00000   0.00000
Generated with MDTraj, t= 2.0
 96
    1UNL     C1    1   0.177  -0.061   0.304
    1UNL     C2    2   0.247  -0.157   0.205
    1UNL     C3    3   0.244  -0.305   0.254
    1UNL     C4    4   0.304  -0.392   0.141
    1UNL     O1    5   0.291  -0.534   0.163
    1UNL     O2    6   0.440  -0.353   0.105
    1UNL     C5    7   0.420  -0.218   0.059
    1UNL     O3    8   0.387  -0.129   0.177
    1UNL     C6    9   0.289  -0.208  -0.032
    1UNL     C7   10   0.293  -0.155  -0.172
    1UNL     O4   11   0.342  -0.027  -0.174
    1UNL     C8   12   0.248   0.059  -0.221
    1UNL     O5   13   0.140   0.025  -0.267
    1UNL     C9   14   0.273   0.207  -0.203
    1UNL    C10   15   0.207   0.306  -0.274
    1UNL    C11   16   0.205   0.437  -0.235
    1UNL    C12   17   0.312   0.476  -0.152
    1UNL     O6   18   0.332   0.615  -0.124
    1UNL    C13   19   0.393   0.380  -0.096
    1UNL    C14   20   0.368   0.246  -0.111
    1UNL    C15   21   0.221  -0.343  -0.002
    1UNL    C16   22   0.085  -0.271   0.027
    1UNL    C17   23   0.177  -0.145   0.060
    1UNL     O7   24   0.134  -0.011   0.023
    1UNL    C18   25  -0.008  -0.001   0.007
    1UNL     O8   26  -0.078  -0.090   0.090
    1UNL    C19   27  -0.215  -0.095   0.049
    1UNL    C20   28  -0.292  -0.178   0.146
    1UNL     O9   29  -0.218  -0.285   0.191
    1UNL    C21   30  -0.148  -0.256   0.305
    1UNL    O10   31  -0.148  -0.145   0.358
    1UNL    C22   32  -0.062  -0.366   0.364
    1UNL    C23   33   0.003  -0.347   0.486
    1UNL    C24   34   0.088  -0.444   0.529
    1UNL    C25   35   0.087  -0.567   0.462
    1UNL    C26   36   0.019  -0.587   0.347
    1UNL    C27   37  -0.053  -0.488   0.293
    1UNL    C28   38  -0.271   0.037   0.005
    1UNL    O11   39  -0.270   0.049  -0.142
    1UNL    C29   40  -0.351   0.144  -0.202
    1UNL    O12   41  -0.343   0.280  -0.145
    1UNL    C30   42  -0.380   0.380  -0.234
    1UNL    C31   43  -0.389   0.509  -0.154
    1UNL    O13   44  -0.275   0.537  -0.085
    1UNL    C32   45  -0.269   0.385  -0.347
    1UNL    O14   46  -0.143   0.416  -0.297
    1UNL    C33   47  -0.262   0.244  -0.424
    1UNL    O15   48  -0.140   0.191  -0.437
    1UNL    C34   49  -0.353   0.144  -0.350
    1UNL    O16   50  -0.494   0.159  -0.387
    1UNL    C35   51  -0.196   0.155   0.064
    1UNL    O17   52  -0.206   0.150   0.206
    1UNL    C36   53  -0.049   0.146   0.016
    1UNL    O18   54  -0.034   0.208  -0.110
    1UNL     H1   55   0.065  -0.053   0.318
    1UNL     H2   56   0.204  -0.086   0.401
    1UNL     H3   57   0.222   0.032   0.262
    1UNL     H4   58   0.136  -0.337   0.277
    1UNL     H5   59   0.299  -0.320   0.353
    1UNL     H6   60   0.389  -0.561   0.179
    1UNL     H7   61   0.515  -0.188   0.009
    1UNL     H8   62   0.198  -0.167  -0.226
    1UNL     H9   63   0.352  -0.215  -0.238
    1UNL    H10   64   0.126   0.278  -0.339
    1UNL    H11   65   0.147   0.509  -0.297
    1UNL    H12   66   0.246   0.656  -0.158
    1UNL    H13   67   0.469   0.410  -0.031
    1UNL    H14   68   0.425   0.166  -0.050
    1UNL    H15   69   0.222  -0.427  -0.073
    1UNL    H16   70   0.044  -0.241  -0.065
    1UNL    H17   71   0.011  -0.303   0.107
    1UNL    H18   72  -0.014  -0.045  -0.090
    1UNL    H19   73  -0.195  -0.152  -0.047
    1UNL    H20   74  -0.301  -0.117   0.229
    1UNL    H21   75  -0.389  -0.220   0.113
    1UNL    H22   76  -0.004  -0.239   0.526
    1UNL    H23   77   0.124  -0.433   0.630
    1UNL    H24   78   0.147  -0.653   0.487
    1UNL    H25   79   0.027  -0.692   0.305
    1UNL    H26   80  -0.099  -0.509   0.202
    1UNL    H27   81  -0.373   0.059   0.024
    1UNL    H28   82  -0.451   0.124  -0.175
    1UNL    H29   83  -0.481   0.347  -0.276
    1UNL    H30   84  -0.471   0.495  -0.085
    1UNL    H31   85  -0.416   0.599  -0.215
    1UNL    H32   86  -0.189   0.517  -0.138
    1UNL    H33   87  -0.305   0.473  -0.401
    1UNL    H34   88  -0.117   0.343  -0.223
    1UNL    H35   89  -0.298   0.276  -0.528
    1UNL    H36   90  -0.090   0.206  -0.357
    1UNL    H37   91  -0.327   0.040  -0.395
    1UNL    H38   92  -0.498   0.153  -0.489
    1UNL    H39   93  -0.247   0.248   0.031
    1UNL    H40   94  -0.184   0.056   0.230
    1UNL    H41   95   0.016   0.209   0.082
    1UNL    H42   96   0.027   0.147  -0.154
   0.00000   0.00000   0.00000   0.00000   0.00000   0.00000   0.00000   0.00000   0.00000
Generated with MDTraj, t= 3.0
 96
    1UNL     C1    1   0.187  -0.057   0.305
    1UNL     C2    2   0.257  -0.146   0.203
    1UNL     C3    3   0.262  -0.296   0.249
    1UNL     C4    4   0.312  -0.378   0.128
    1UNL     O1    5   0.313  -0.518   0.145
    1UNL     O2    6   0.451  -0.330   0.092
    1UNL     C5    7   0.424  -0.195   0.058
    1UNL     O3    8   0.391  -0.114   0.171
    1UNL     C6    9   0.290  -0.205  -0.036
    1UNL     C7   10   0.289  -0.157  -0.181
    1UNL     O4   11   0.336  -0.028  -0.191
    1UNL     C8   12   0.237   0.056  -0.230
    1UNL     O5   13   0.125   0.021  -0.265
    1UNL     C9   14   0.270   0.205  -0.215
    1UNL    C10   15   0.203   0.306  -0.285
    1UNL    C11   16   0.226   0.438  -0.250
    1UNL    C12   17   0.312   0.472  -0.149
    1UNL     O6   18   0.337   0.603  -0.120
    1UNL    C13   19   0.370   0.371  -0.079
    1UNL    C14   20   0.335   0.236  -0.101
    1UNL    C15   21   0.230  -0.338  -0.003
    1UNL    C16   22   0.092  -0.274   0.024
    1UNL    C17   23   0.181  -0.146   0.059
    1UNL     O7   24   0.140  -0.014   0.028
    1UNL    C18   25   0.000  -0.005   0.008
    1UNL     O8   26  -0.079  -0.079   0.098
    1UNL    C19   27  -0.218  -0.105   0.050
    1UNL    C20   28  -0.307  -0.158   0.161
    1UNL     O9   29  -0.253  -0.273   0.215
    1UNL    C21   30  -0.164  -0.245   0.307
    1UNL    O10   31  -0.145  -0.135   0.359
    1UNL    C22   32  -0.092  -0.360   0.365
    1UNL    C23   33  -0.027  -0.353   0.489
    1UNL    C24   34   0.061  -0.451   0.525
    1UNL    C25   35   0.081  -0.554   0.441
    1UNL    C26   36   0.010  -0.574   0.327
    1UNL    C27   37  -0.070  -0.472   0.289
    1UNL    C28   38  -0.277   0.030  -0.005
    1UNL    O11   39  -0.266   0.036  -0.143
    1UNL    C29   40  -0.358   0.129  -0.200
    1UNL    O12   41  -0.346   0.265  -0.142
    1UNL    C30   42  -0.375   0.373  -0.229
    1UNL    C31   43  -0.380   0.505  -0.148
    1UNL    O13   44  -0.264   0.548  -0.085
    1UNL    C32   45  -0.257   0.375  -0.329
    1UNL    O14   46  -0.142   0.405  -0.265
    1UNL    C33   47  -0.248   0.233  -0.404
    1UNL    O15   48  -0.122   0.180  -0.405
    1UNL    C34   49  -0.349   0.131  -0.352
    1UNL    O16   50  -0.485   0.148  -0.406
    1UNL    C35   51  -0.189   0.148   0.063
    1UNL    O17   52  -0.188   0.135   0.207
    1UNL    C36   53  -0.041   0.140   0.011
    1UNL    O18   54  -0.023   0.206  -0.114
    1UNL     H1   55   0.086  -0.100   0.321
    1UNL     H2   56   0.233  -0.055   0.397
    1UNL     H3   57   0.168   0.044   0.264
    1UNL     H4   58   0.161  -0.335   0.286
    1UNL     H5   59   0.341  -0.325   0.327
    1UNL     H6   60   0.365  -0.551   0.064
    1UNL     H7   61   0.521  -0.147   0.027
    1UNL     H8   62   0.185  -0.159  -0.220
    1UNL     H9   63   0.334  -0.232  -0.245
    1UNL    H10   64   0.143   0.282  -0.372
    1UNL    H11   65   0.173   0.516  -0.289
    1UNL    H12   66   0.270   0.656  -0.169
    1UNL    H13   67   0.422   0.403   0.015
    1UNL    H14   68   0.362   0.160  -0.043
    1UNL    H15   69   0.233  -0.417  -0.081
    1UNL    H16   70   0.045  -0.249  -0.069
    1UNL    H17   71   0.020  -0.315   0.099
    1UNL    H18   72  -0.017  -0.045  -0.090
    1UNL    H19   73  -0.204  -0.199  -0.016
    1UNL    H20   74  -0.311  -0.103   0.246
    1UNL    H21   75  -0.409  -0.184   0.122
    1UNL    H22   76  -0.059  -0.272   0.540
    1UNL    H23   77   0.128  -0.438   0.609
    1UNL    H24   78   0.154  -0.632   0.465
    1UNL    H25   79   0.041  -0.647   0.262
    1UNL    H26   80  -0.131  -0.497   0.197
    1UNL    H27   81  -0.379   0.032   0.030
    1UNL    H28   82  -0.452   0.095  -0.165
    1UNL    H29   83  -0.465   0.337  -0.291
    1UNL    H30   84  -0.452   0.497  -0.066
    1UNL    H31   85  -0.426   0.582  -0.215
    1UNL    H32   86  -0.187   0.510  -0.133
    1UNL    H33   87  -0.280   0.454  -0.404
    1UNL    H34   88  -0.116   0.337  -0.208
    1UNL    H35   89  -0.268   0.255  -0.516
    1UNL    H36   90  -0.086   0.186  -0.316
    1UNL    H37   91  -0.304   0.026  -0.371
    1UNL    H38   92  -0.490   0.149  -0.503
    1UNL    H39   93  -0.249   0.241   0.044
    1UNL    H40   94  -0.144   0.047   0.234
    1UNL    H41   95   0.027   0.200   0.079
    1UNL    H42   96   0.051   0.169  -0.169
   0.00000   0.00000   0.00000   0.00000   0.00000   0.00000   0.00000   0.00000   0.00000
Generated with MDTraj, t= 4.0
 96
    1UNL     C1    1   0.199  -0.067   0.296
    1UNL     C2    2   0.266  -0.157   0.191
    1UNL     C3    3   0.278  -0.304   0.238
    1UNL     C4    4   0.329  -0.385   0.116
    1UNL     O1    5   0.337  -0.526   0.154
    1UNL     O2    6   0.460  -0.326   0.086
    1UNL     C5    7   0.433  -0.188   0.045
    1UNL     O3    8   0.400  -0.102   0.154
    1UNL     C6    9   0.301  -0.204  -0.046
    1UNL     C7   10   0.312  -0.162  -0.188
    1UNL     O4   11   0.358  -0.033  -0.191
    1UNL     C8   12   0.248   0.052  -0.230
    1UNL     O5   13   0.141   0.014  -0.276
    1UNL     C9   14   0.266   0.199  -0.207
    1UNL    C10   15   0.215   0.297  -0.294
    1UNL    C11   16   0.239   0.430  -0.262
    1UNL    C12   17   0.306   0.472  -0.150
    1UNL     O6   18   0.331   0.605  -0.129
    1UNL    C13   19   0.351   0.376  -0.060
    1UNL    C14   20   0.334   0.245  -0.094
    1UNL    C15   21   0.250  -0.345  -0.015
    1UNL    C16   22   0.112  -0.284   0.009
    1UNL    C17   23   0.185  -0.154   0.051
    1UNL     O7   24   0.124  -0.029   0.020
    1UNL    C18   25  -0.021  -0.020   0.007
    1UNL     O8   26  -0.101  -0.099   0.091
    1UNL    C19   27  -0.241  -0.106   0.067
    1UNL    C20   28  -0.328  -0.153   0.181
    1UNL     O9   29  -0.269  -0.270   0.236
    1UNL    C21   30  -0.168  -0.231   0.317
    1UNL    O10   31  -0.148  -0.115   0.356
    1UNL    C22   32  -0.078  -0.339   0.356
    1UNL    C23   33  -0.024  -0.343   0.481
    1UNL    C24   34   0.048  -0.454   0.524
    1UNL    C25   35   0.058  -0.568   0.448
    1UNL    C26   36   0.003  -0.559   0.325
    1UNL    C27   37  -0.076  -0.459   0.281
    1UNL    C28   38  -0.289   0.039   0.007
    1UNL    O11   39  -0.279   0.037  -0.134
    1UNL    C29   40  -0.357   0.137  -0.197
    1UNL    O12   41  -0.336   0.271  -0.146
    1UNL    C30   42  -0.370   0.376  -0.236
    1UNL    C31   43  -0.390   0.505  -0.157
    1UNL    O13   44  -0.288   0.535  -0.068
    1UNL    C32   45  -0.254   0.378  -0.341
    1UNL    O14   46  -0.142   0.419  -0.268
    1UNL    C33   47  -0.233   0.225  -0.397
    1UNL    O15   48  -0.105   0.180  -0.360
    1UNL    C34   49  -0.343   0.130  -0.352
    1UNL    O16   50  -0.471   0.166  -0.412
    1UNL    C35   51  -0.211   0.148   0.072
    1UNL    O17   52  -0.206   0.147   0.214
    1UNL    C36   53  -0.066   0.131   0.021
    1UNL    O18   54  -0.038   0.205  -0.102
    1UNL     H1   55   0.094  -0.077   0.325
    1UNL     H2   56   0.273  -0.049   0.372
    1UNL     H3   57   0.198   0.034   0.253
    1UNL     H4   58   0.184  -0.352   0.267
    1UNL     H5   59   0.359  -0.326   0.317
    1UNL     H6   60   0.404  -0.541   0.224
    1UNL     H7   61   0.524  -0.147  -0.006
    1UNL     H8   62   0.209  -0.177  -0.231
    1UNL     H9   63   0.379  -0.231  -0.239
    1UNL    H10   64   0.172   0.281  -0.393
    1UNL    H11   65   0.203   0.508  -0.335
    1UNL    H12   66   0.278   0.663  -0.185
    1UNL    H13   67   0.421   0.390   0.016
    1UNL    H14   68   0.363   0.169  -0.010
    1UNL    H15   69   0.269  -0.418  -0.096
    1UNL    H16   70   0.062  -0.270  -0.088
    1UNL    H17   71   0.052  -0.339   0.079
    1UNL    H18   72  -0.032  -0.054  -0.096
    1UNL    H19   73  -0.258  -0.167  -0.030
    1UNL    H20   74  -0.330  -0.078   0.247
    1UNL    H21   75  -0.432  -0.186   0.147
    1UNL    H22   76  -0.035  -0.253   0.548
    1UNL    H23   77   0.098  -0.454   0.619
    1UNL    H24   78   0.126  -0.641   0.485
    1UNL    H25   79   0.001  -0.654   0.260
    1UNL    H26   80  -0.103  -0.462   0.182
    1UNL    H27   81  -0.396   0.047   0.026
    1UNL    H28   82  -0.460   0.114  -0.174
    1UNL    H29   83  -0.468   0.326  -0.279
    1UNL    H30   84  -0.487   0.501  -0.106
    1UNL    H31   85  -0.412   0.595  -0.221
    1UNL    H32   86  -0.211   0.516  -0.121
    1UNL    H33   87  -0.270   0.455  -0.422
    1UNL    H34   88  -0.111   0.332  -0.215
    1UNL    H35   89  -0.229   0.216  -0.513
    1UNL    H36   90  -0.118   0.139  -0.268
    1UNL    H37   91  -0.321   0.022  -0.376
    1UNL    H38   92  -0.475   0.175  -0.506
    1UNL    H39   93  -0.253   0.248   0.040
    1UNL    H40   94  -0.189   0.056   0.257
    1UNL    H41   95   0.008   0.176   0.092
    1UNL    H42   96   0.049   0.169  -0.131
   0.00000   0.00000   0.00000   0.00000   0.00000   0.00000   0.00000   0.00000   0.00000
Generated with MDTraj, t= 5.0
 96
    1UNL     C1    1   0.162  -0.070   0.280
    1UNL     C2    2   0.238  -0.164   0.184
    1UNL     C3    3   0.266  -0.305   0.233
    1UNL     C4    4   0.335  -0.389   0.117
    1UNL     O1    5   0.350  -0.526   0.151
    1UNL     O2    6   0.466  -0.315   0.093
    1UNL     C5    7   0.423  -0.188   0.047
    1UNL     O3    8   0.368  -0.110   0.153
    1UNL     C6    9   0.296  -0.216  -0.049
    1UNL     C7   10   0.305  -0.159  -0.189
    1UNL     O4   11   0.356  -0.034  -0.195
    1UNL     C8   12   0.248   0.055  -0.222
    1UNL     O5   13   0.139   0.012  -0.262
    1UNL     C9   14   0.283   0.198  -0.201
    1UNL    C10   15   0.230   0.293  -0.282
    1UNL    C11   16   0.235   0.434  -0.269
    1UNL    C12   17   0.303   0.483  -0.158
    1UNL     O6   18   0.309   0.615  -0.133
    1UNL    C13   19   0.360   0.391  -0.069
    1UNL    C14   20   0.353   0.252  -0.093
    1UNL    C15   21   0.252  -0.360  -0.012
    1UNL    C16   22   0.099  -0.296   0.001
    1UNL    C17   23   0.172  -0.161   0.040
    1UNL     O7   24   0.126  -0.031   0.003
    1UNL    C18   25  -0.007  -0.030  -0.009
    1UNL     O8   26  -0.089  -0.112   0.077
    1UNL    C19   27  -0.229  -0.107   0.049
    1UNL    C20   28  -0.309  -0.149   0.171
    1UNL     O9   29  -0.258  -0.264   0.238
    1UNL    C21   30  -0.162  -0.225   0.328
    1UNL    O10   31  -0.135  -0.108   0.357
    1UNL    C22   32  -0.092  -0.340   0.380
    1UNL    C23   33  -0.013  -0.336   0.493
    1UNL    C24   34   0.062  -0.451   0.530
    1UNL    C25   35   0.075  -0.561   0.447
    1UNL    C26   36  -0.009  -0.570   0.341
    1UNL    C27   37  -0.092  -0.460   0.302
    1UNL    C28   38  -0.277   0.036  -0.007
    1UNL    O11   39  -0.276   0.043  -0.146
    1UNL    C29   40  -0.373   0.132  -0.202
    1UNL    O12   41  -0.373   0.266  -0.139
    1UNL    C30   42  -0.372   0.376  -0.229
    1UNL    C31   43  -0.393   0.506  -0.150
    1UNL    O13   44  -0.285   0.538  -0.066
    1UNL    C32   45  -0.250   0.373  -0.331
    1UNL    O14   46  -0.140   0.417  -0.262
    1UNL    C33   47  -0.224   0.225  -0.387
    1UNL    O15   48  -0.110   0.166  -0.321
    1UNL    C34   49  -0.347   0.136  -0.363
    1UNL    O16   50  -0.465   0.187  -0.428
    1UNL    C35   51  -0.195   0.146   0.059
    1UNL    O17   52  -0.210   0.152   0.199
    1UNL    C36   53  -0.048   0.125   0.023
    1UNL    O18   54  -0.015   0.205  -0.090
    1UNL     H1   55   0.055  -0.075   0.269
    1UNL     H2   56   0.213  -0.075   0.382
    1UNL     H3   57   0.182   0.035   0.268
    1UNL     H4   58   0.174  -0.359   0.255
    1UNL     H5   59   0.333  -0.309   0.321
    1UNL     H6   60   0.442  -0.548   0.145
    1UNL     H7   61   0.511  -0.135  -0.001
    1UNL     H8   62   0.196  -0.156  -0.222
    1UNL     H9   63   0.364  -0.229  -0.252
    1UNL    H10   64   0.167   0.256  -0.363
    1UNL    H11   65   0.198   0.499  -0.343
    1UNL    H12   66   0.242   0.660  -0.186
    1UNL    H13   67   0.394   0.444   0.025
    1UNL    H14   68   0.407   0.188  -0.034
    1UNL    H15   69   0.270  -0.436  -0.089
    1UNL    H16   70   0.044  -0.304  -0.096
    1UNL    H17   71   0.041  -0.342   0.075
    1UNL    H18   72  -0.027  -0.041  -0.118
    1UNL    H19   73  -0.254  -0.184  -0.036
    1UNL    H20   74  -0.317  -0.078   0.242
    1UNL    H21   75  -0.414  -0.182   0.133
    1UNL    H22   76  -0.003  -0.257   0.560
    1UNL    H23   77   0.120  -0.441   0.622
    1UNL    H24   78   0.129  -0.652   0.481
    1UNL    H25   79   0.011  -0.653   0.284
    1UNL    H26   80  -0.170  -0.476   0.220
    1UNL    H27   81  -0.379   0.046   0.035
    1UNL    H28   82  -0.469   0.079  -0.189
    1UNL    H29   83  -0.472   0.361  -0.291
    1UNL    H30   84  -0.481   0.511  -0.081
    1UNL    H31   85  -0.438   0.590  -0.212
    1UNL    H32   86  -0.194   0.534  -0.114
    1UNL    H33   87  -0.271   0.456  -0.405
    1UNL    H34   88  -0.106   0.343  -0.190
    1UNL    H35   89  -0.193   0.223  -0.499
    1UNL    H36   90  -0.155   0.116  -0.247
    1UNL    H37   91  -0.327   0.041  -0.413
    1UNL    H38   92  -0.445   0.192  -0.525
    1UNL    H39   93  -0.232   0.247   0.027
    1UNL    H40   94  -0.191   0.070   0.251
    1UNL    H41   95   0.018   0.152   0.108
    1UNL    H42   96   0.040   0.159  -0.154
   0.00000   0.00000   0.00000   0.00000   0.00000   0.00000   0.00000   0.00000   0.00000
Generated with MDTraj, t= 6.0
 96
    1UNL     C1    1   0.143  -0.068   0.279
    1UNL     C2    2   0.228  -0.163   0.191
    1UNL     C3    3   0.236  -0.315   0.239
    1UNL     C4    4   0.309  -0.390   0.119
    1UNL     O1    5   0.313  -0.530   0.134
    1UNL     O2    6   0.444  -0.323   0.113
    1UNL     C5    7   0.419  -0.190   0.065
    1UNL     O3    8   0.364  -0.120   0.184
    1UNL     C6    9   0.306  -0.209  -0.045
    1UNL     C7   10   0.329  -0.150  -0.183
    1UNL     O4   11   0.360  -0.018  -0.175
    1UNL     C8   12   0.263   0.055  -0.238
    1UNL     O5   13   0.163   0.012  -0.294
    1UNL     C9   14   0.280   0.210  -0.226
    1UNL    C10   15   0.206   0.310  -0.288
    1UNL    C11   16   0.217   0.443  -0.261
    1UNL    C12   17   0.297   0.483  -0.156
    1UNL     O6   18   0.314   0.618  -0.126
    1UNL    C13   19   0.372   0.387  -0.088
    1UNL    C14   20   0.366   0.257  -0.128
    1UNL    C15   21   0.254  -0.353  -0.025
    1UNL    C16   22   0.111  -0.294  -0.018
    1UNL    C17   23   0.175  -0.160   0.039
    1UNL     O7   24   0.125  -0.036  -0.012
    1UNL    C18   25  -0.009  -0.024  -0.005
    1UNL     O8   26  -0.088  -0.100   0.089
    1UNL    C19   27  -0.232  -0.112   0.049
    1UNL    C20   28  -0.319  -0.154   0.169
    1UNL     O9   29  -0.261  -0.273   0.222
    1UNL    C21   30  -0.169  -0.238   0.312
    1UNL    O10   31  -0.149  -0.123   0.354
    1UNL    C22   32  -0.077  -0.349   0.364
    1UNL    C23   33   0.011  -0.317   0.467
    1UNL    C24   34   0.083  -0.415   0.527
    1UNL    C25   35   0.074  -0.542   0.487
    1UNL    C26   36  -0.008  -0.581   0.378
    1UNL    C27   37  -0.086  -0.478   0.318
    1UNL    C28   38  -0.284   0.030  -0.004
    1UNL    O11   39  -0.275   0.034  -0.145
    1UNL    C29   40  -0.364   0.130  -0.199
    1UNL    O12   41  -0.346   0.257  -0.137
    1UNL    C30   42  -0.366   0.378  -0.216
    1UNL    C31   43  -0.402   0.502  -0.132
    1UNL    O13   44  -0.295   0.533  -0.049
    1UNL    C32   45  -0.245   0.379  -0.318
    1UNL    O14   46  -0.130   0.415  -0.254
    1UNL    C33   47  -0.230   0.241  -0.387
    1UNL    O15   48  -0.104   0.175  -0.352
    1UNL    C34   49  -0.345   0.142  -0.356
    1UNL    O16   50  -0.467   0.177  -0.410
    1UNL    C35   51  -0.198   0.143   0.062
    1UNL    O17   52  -0.199   0.142   0.200
    1UNL    C36   53  -0.046   0.127   0.014
    1UNL    O18   54  -0.005   0.193  -0.110
    1UNL     H1   55   0.041  -0.102   0.281
    1UNL     H2   56   0.196  -0.059   0.380
    1UNL     H3   57   0.140   0.036   0.258
    1UNL     H4   58   0.136  -0.353   0.261
    1UNL     H5   59   0.298  -0.334   0.323
    1UNL     H6   60   0.382  -0.568   0.083
    1UNL     H7   61   0.511  -0.138   0.024
    1UNL     H8   62   0.231  -0.166  -0.235
    1UNL     H9   63   0.409  -0.207  -0.234
    1UNL    H10   64   0.135   0.279  -0.362
    1UNL    H11   65   0.165   0.509  -0.332
    1UNL    H12   66   0.242   0.675  -0.161
    1UNL    H13   67   0.426   0.410  -0.002
    1UNL    H14   68   0.441   0.185  -0.090
    1UNL    H15   69   0.272  -0.426  -0.105
    1UNL    H16   70   0.049  -0.294  -0.111
    1UNL    H17   71   0.063  -0.350   0.059
    1UNL    H18   72  -0.038  -0.059  -0.109
    1UNL    H19   73  -0.233  -0.201  -0.027
    1UNL    H20   74  -0.322  -0.080   0.240
    1UNL    H21   75  -0.424  -0.186   0.131
    1UNL    H22   76   0.029  -0.214   0.500
    1UNL    H23   77   0.130  -0.397   0.620
    1UNL    H24   78   0.131  -0.617   0.532
    1UNL    H25   79  -0.023  -0.686   0.337
    1UNL    H26   80  -0.158  -0.495   0.245
    1UNL    H27   81  -0.391   0.049   0.028
    1UNL    H28   82  -0.458   0.071  -0.175
    1UNL    H29   83  -0.458   0.349  -0.283
    1UNL    H30   84  -0.491   0.478  -0.072
    1UNL    H31   85  -0.437   0.595  -0.178
    1UNL    H32   86  -0.207   0.529  -0.093
    1UNL    H33   87  -0.261   0.458  -0.398
    1UNL    H34   88  -0.088   0.332  -0.210
    1UNL    H35   89  -0.230   0.246  -0.503
    1UNL    H36   90  -0.130   0.125  -0.272
    1UNL    H37   91  -0.325   0.044  -0.393
    1UNL    H38   92  -0.454   0.186  -0.513
    1UNL    H39   93  -0.233   0.240   0.019
    1UNL    H40   94  -0.160   0.063   0.241
    1UNL    H41   95   0.020   0.154   0.097
    1UNL    H42   96   0.037   0.122  -0.166
   0.00000   0.00000   0.00000   0.00000   0.00000   0.00000   0.00000   0.00000   0.00000
Generated with MDTraj, t= 7.0
 96
    1UNL     C1    1   0.142  -0.080   0.278
    1UNL     C2    2   0.224  -0.168   0.190
    1UNL     C3    3   0.216  -0.318   0.219
    1UNL     C4    4   0.298  -0.394   0.110
    1UNL     O1    5   0.281  -0.536   0.130
    1UNL     O2    6   0.432  -0.351   0.118
    1UNL     C5    7   0.427  -0.214   0.076
    1UNL     O3    8   0.371  -0.137   0.186
    1UNL     C6    9   0.314  -0.215  -0.034
    1UNL     C7   10   0.350  -0.155  -0.169
    1UNL     O4   11   0.381  -0.018  -0.167
    1UNL     C8   12   0.282   0.059  -0.232
    1UNL     O5   13   0.179   0.023  -0.288
    1UNL     C9   14   0.290   0.214  -0.214
    1UNL    C10   15   0.190   0.296  -0.266
    1UNL    C11   16   0.198   0.431  -0.240
    1UNL    C12   17   0.303   0.493  -0.164
    1UNL     O6   18   0.300   0.627  -0.149
    1UNL    C13   19   0.398   0.409  -0.106
    1UNL    C14   20   0.396   0.274  -0.143
    1UNL    C15   21   0.245  -0.353  -0.032
    1UNL    C16   22   0.108  -0.276  -0.034
    1UNL    C17   23   0.176  -0.157   0.031
    1UNL     O7   24   0.135  -0.025  -0.008
    1UNL    C18   25  -0.007  -0.014  -0.012
    1UNL     O8   26  -0.078  -0.101   0.074
    1UNL    C19   27  -0.214  -0.117   0.035
    1UNL    C20   28  -0.300  -0.182   0.137
    1UNL     O9   29  -0.232  -0.292   0.201
    1UNL    C21   30  -0.165  -0.246   0.313
    1UNL    O10   31  -0.161  -0.128   0.343
    1UNL    C22   32  -0.095  -0.349   0.398
    1UNL    C23   33   0.002  -0.308   0.490
    1UNL    C24   34   0.091  -0.394   0.544
    1UNL    C25   35   0.087  -0.522   0.493
    1UNL    C26   36  -0.007  -0.572   0.399
    1UNL    C27   37  -0.103  -0.483   0.359
    1UNL    C28   38  -0.273   0.023   0.000
    1UNL    O11   39  -0.281   0.031  -0.147
    1UNL    C29   40  -0.360   0.132  -0.195
    1UNL    O12   41  -0.352   0.264  -0.132
    1UNL    C30   42  -0.374   0.382  -0.213
    1UNL    C31   43  -0.389   0.500  -0.120
    1UNL    O13   44  -0.276   0.516  -0.044
    1UNL    C32   45  -0.261   0.387  -0.326
    1UNL    O14   46  -0.146   0.428  -0.256
    1UNL    C33   47  -0.244   0.253  -0.397
    1UNL    O15   48  -0.110   0.204  -0.380
    1UNL    C34   49  -0.348   0.143  -0.351
    1UNL    O16   50  -0.475   0.172  -0.398
    1UNL    C35   51  -0.199   0.134   0.062
    1UNL    O17   52  -0.196   0.127   0.204
    1UNL    C36   53  -0.048   0.134   0.011
    1UNL    O18   54  -0.040   0.198  -0.118
    1UNL     H1   55   0.033  -0.098   0.270
    1UNL     H2   56   0.179  -0.066   0.383
    1UNL     H3   57   0.157   0.017   0.239
    1UNL     H4   58   0.111  -0.342   0.218
    1UNL     H5   59   0.258  -0.351   0.309
    1UNL     H6   60   0.361  -0.582   0.104
    1UNL     H7   61   0.530  -0.179   0.041
    1UNL     H8   62   0.265  -0.164  -0.239
    1UNL     H9   63   0.432  -0.211  -0.213
    1UNL    H10   64   0.124   0.243  -0.335
    1UNL    H11   65   0.119   0.500  -0.266
    1UNL    H12   66   0.218   0.667  -0.189
    1UNL    H13   67   0.487   0.457  -0.058
    1UNL    H14   68   0.462   0.206  -0.086
    1UNL    H15   69   0.275  -0.409  -0.122
    1UNL    H16   70   0.056  -0.247  -0.126
    1UNL    H17   71   0.033  -0.321   0.033
    1UNL    H18   72  -0.043  -0.041  -0.117
    1UNL    H19   73  -0.201  -0.187  -0.056
    1UNL    H20   74  -0.321  -0.112   0.210
    1UNL    H21   75  -0.398  -0.218   0.082
    1UNL    H22   76  -0.005  -0.211   0.539
    1UNL    H23   77   0.175  -0.365   0.608
    1UNL    H24   78   0.167  -0.592   0.527
    1UNL    H25   79  -0.019  -0.672   0.374
    1UNL    H26   80  -0.178  -0.491   0.275
    1UNL    H27   81  -0.385   0.031   0.027
    1UNL    H28   82  -0.469   0.098  -0.178
    1UNL    H29   83  -0.474   0.362  -0.275
    1UNL    H30   84  -0.474   0.487  -0.051
    1UNL    H31   85  -0.407   0.587  -0.182
    1UNL    H32   86  -0.208   0.486  -0.105
    1UNL    H33   87  -0.277   0.471  -0.400
    1UNL    H34   88  -0.107   0.350  -0.209
    1UNL    H35   89  -0.250   0.269  -0.508
    1UNL    H36   90  -0.109   0.169  -0.291
    1UNL    H37   91  -0.325   0.053  -0.407
    1UNL    H38   92  -0.463   0.186  -0.499
    1UNL    H39   93  -0.248   0.228   0.032
    1UNL    H40   94  -0.189   0.035   0.242
    1UNL    H41   95  -0.004   0.187   0.096
    1UNL    H42   96   0.022   0.150  -0.183
   0.00000   0.00000   0.00000   0.00000   0.00000   0.00000   0.00000   0.00000   0.00000
Generated with MDTraj, t= 8.0
 96
    1UNL     C1    1   0.140  -0.094   0.282
    1UNL     C2    2   0.219  -0.178   0.183
    1UNL     C3    3   0.208  -0.339   0.214
    1UNL     C4    4   0.285  -0.410   0.097
    1UNL     O1    5   0.264  -0.551   0.109
    1UNL     O2    6   0.425  -0.360   0.103
    1UNL     C5    7   0.418  -0.218   0.080
    1UNL     O3    8   0.359  -0.153   0.191
    1UNL     C6    9   0.314  -0.204  -0.034
    1UNL     C7   10   0.360  -0.145  -0.169
    1UNL     O4   11   0.389  -0.004  -0.155
    1UNL     C8   12   0.281   0.072  -0.208
    1UNL     O5   13   0.176   0.021  -0.243
    1UNL     C9   14   0.308   0.215  -0.208
    1UNL    C10   15   0.219   0.302  -0.276
    1UNL    C11   16   0.214   0.433  -0.260
    1UNL    C12   17   0.307   0.499  -0.184
    1UNL     O6   18   0.298   0.634  -0.161
    1UNL    C13   19   0.412   0.421  -0.132
    1UNL    C14   20   0.409   0.281  -0.132
    1UNL    C15   21   0.240  -0.345  -0.040
    1UNL    C16   22   0.113  -0.267  -0.039
    1UNL    C17   23   0.184  -0.148   0.033
    1UNL     O7   24   0.139  -0.020   0.014
    1UNL    C18   25   0.002  -0.021  -0.003
    1UNL     O8   26  -0.072  -0.108   0.074
    1UNL    C19   27  -0.210  -0.119   0.023
    1UNL    C20   28  -0.297  -0.194   0.127
    1UNL     O9   29  -0.226  -0.298   0.190
    1UNL    C21   30  -0.156  -0.250   0.307
    1UNL    O10   31  -0.172  -0.134   0.340
    1UNL    C22   32  -0.068  -0.341   0.382
    1UNL    C23   33   0.003  -0.298   0.496
    1UNL    C24   34   0.074  -0.382   0.576
    1UNL    C25   35   0.072  -0.523   0.540
    1UNL    C26   36   0.001  -0.568   0.429
    1UNL    C27   37  -0.063  -0.478   0.349
    1UNL    C28   38  -0.269   0.019  -0.024
    1UNL    O11   39  -0.278   0.034  -0.166
    1UNL    C29   40  -0.368   0.132  -0.204
    1UNL    O12   41  -0.344   0.257  -0.131
    1UNL    C30   42  -0.383   0.378  -0.203
    1UNL    C31   43  -0.392   0.495  -0.108
    1UNL    O13   44  -0.270   0.525  -0.043
    1UNL    C32   45  -0.274   0.394  -0.320
    1UNL    O14   46  -0.149   0.419  -0.253
    1UNL    C33   47  -0.263   0.262  -0.401
    1UNL    O15   48  -0.130   0.200  -0.391
    1UNL    C34   49  -0.372   0.148  -0.362
    1UNL    O16   50  -0.504   0.182  -0.395
    1UNL    C35   51  -0.198   0.132   0.050
    1UNL    O17   52  -0.215   0.129   0.192
    1UNL    C36   53  -0.040   0.127   0.019
    1UNL    O18   54  -0.019   0.199  -0.105
    1UNL     H1   55   0.035  -0.117   0.260
    1UNL     H2   56   0.163  -0.120   0.386
    1UNL     H3   57   0.149   0.015   0.276
    1UNL     H4   58   0.108  -0.368   0.215
    1UNL     H5   59   0.246  -0.351   0.311
    1UNL     H6   60   0.354  -0.589   0.095
    1UNL     H7   61   0.518  -0.170   0.052
    1UNL     H8   62   0.275  -0.146  -0.236
    1UNL     H9   63   0.441  -0.188  -0.225
    1UNL    H10   64   0.138   0.254  -0.328
    1UNL    H11   65   0.128   0.484  -0.297
    1UNL    H12   66   0.228   0.675  -0.222
    1UNL    H13   67   0.473   0.475  -0.064
    1UNL    H14   68   0.487   0.235  -0.082
    1UNL    H15   69   0.249  -0.414  -0.127
    1UNL    H16   70   0.076  -0.241  -0.136
    1UNL    H17   71   0.034  -0.322   0.022
    1UNL    H18   72  -0.004  -0.062  -0.109
    1UNL    H19   73  -0.191  -0.197  -0.058
    1UNL    H20   74  -0.326  -0.130   0.204
    1UNL    H21   75  -0.383  -0.248   0.067
    1UNL    H22   76   0.008  -0.196   0.527
    1UNL    H23   77   0.134  -0.345   0.655
    1UNL    H24   78   0.120  -0.592   0.600
    1UNL    H25   79   0.014  -0.675   0.401
    1UNL    H26   80  -0.120  -0.495   0.263
    1UNL    H27   81  -0.378   0.024   0.013
    1UNL    H28   82  -0.469   0.093  -0.164
    1UNL    H29   83  -0.484   0.348  -0.256
    1UNL    H30   84  -0.460   0.462  -0.025
    1UNL    H31   85  -0.429   0.584  -0.158
    1UNL    H32   86  -0.192   0.530  -0.109
    1UNL    H33   87  -0.301   0.485  -0.378
    1UNL    H34   88  -0.121   0.340  -0.210
    1UNL    H35   89  -0.275   0.295  -0.506
    1UNL    H36   90  -0.113   0.155  -0.302
    1UNL    H37   91  -0.357   0.047  -0.404
    1UNL    H38   92  -0.516   0.208  -0.487
    1UNL    H39   93  -0.230   0.234   0.024
    1UNL    H40   94  -0.185   0.039   0.228
    1UNL    H41   95   0.012   0.158   0.110
    1UNL    H42   96   0.036   0.143  -0.160
   0.00000   0.00000   0.00000   0.00000   0.00000   0.00000   0.00000   0.00000   0.00000
Generated with MDTraj, t= 9.0
 96
    1UNL     C1    1   0.148  -0.111   0.299
    1UNL     C2    2   0.222  -0.200   0.194
    1UNL     C3    3   0.219  -0.355   0.201
    1UNL     C4    4   0.293  -0.413   0.080
    1UNL     O1    5   0.279  -0.554   0.080
    1UNL     O2    6   0.428  -0.366   0.099
    1UNL     C5    7   0.426  -0.224   0.088
    1UNL     O3    8   0.365  -0.167   0.204
    1UNL     C6    9   0.324  -0.200  -0.034
    1UNL     C7   10   0.365  -0.128  -0.169
    1UNL     O4   11   0.382   0.012  -0.152
    1UNL     C8   12   0.279   0.076  -0.214
    1UNL     O5   13   0.188   0.025  -0.275
    1UNL     C9   14   0.292   0.228  -0.205
    1UNL    C10   15   0.232   0.315  -0.298
    1UNL    C11   16   0.233   0.453  -0.283
    1UNL    C12   17   0.325   0.512  -0.194
    1UNL     O6   18   0.346   0.645  -0.197
    1UNL    C13   19   0.402   0.422  -0.112
    1UNL    C14   20   0.380   0.287  -0.112
    1UNL    C15   21   0.246  -0.342  -0.057
    1UNL    C16   22   0.112  -0.262  -0.038
    1UNL    C17   23   0.193  -0.156   0.041
    1UNL     O7   24   0.151  -0.023   0.022
    1UNL    C18   25   0.010  -0.018   0.003
    1UNL     O8   26  -0.075  -0.104   0.073
    1UNL    C19   27  -0.211  -0.123   0.021
    1UNL    C20   28  -0.292  -0.207   0.116
    1UNL     O9   29  -0.222  -0.304   0.185
    1UNL    C21   30  -0.160  -0.248   0.295
    1UNL    O10   31  -0.150  -0.129   0.313
    1UNL    C22   32  -0.093  -0.345   0.392
    1UNL    C23   33  -0.052  -0.297   0.520
    1UNL    C24   34   0.031  -0.379   0.592
    1UNL    C25   35   0.065  -0.511   0.559
    1UNL    C26   36   0.010  -0.555   0.436
    1UNL    C27   37  -0.063  -0.471   0.356
    1UNL    C28   38  -0.281   0.015  -0.015
    1UNL    O11   39  -0.288   0.035  -0.151
    1UNL    C29   40  -0.377   0.132  -0.199
    1UNL    O12   41  -0.357   0.261  -0.125
    1UNL    C30   42  -0.384   0.375  -0.198
    1UNL    C31   43  -0.395   0.497  -0.112
    1UNL    O13   44  -0.284   0.526  -0.030
    1UNL    C32   45  -0.274   0.378  -0.317
    1UNL    O14   46  -0.154   0.425  -0.263
    1UNL    C33   47  -0.259   0.243  -0.385
    1UNL    O15   48  -0.136   0.178  -0.351
    1UNL    C34   49  -0.380   0.150  -0.349
    1UNL    O16   50  -0.508   0.195  -0.398
    1UNL    C35   51  -0.203   0.127   0.054
    1UNL    O17   52  -0.199   0.125   0.198
    1UNL    C36   53  -0.048   0.127   0.010
    1UNL    O18   54  -0.034   0.184  -0.122
    1UNL     H1   55   0.043  -0.102   0.265
    1UNL     H2   56   0.147  -0.140   0.402
    1UNL     H3   57   0.191  -0.007   0.279
    1UNL     H4   58   0.122  -0.392   0.208
    1UNL     H5   59   0.266  -0.369   0.293
    1UNL     H6   60   0.374  -0.588   0.092
    1UNL     H7   61   0.525  -0.175   0.056
    1UNL     H8   62   0.305  -0.145  -0.257
    1UNL     H9   63   0.465  -0.154  -0.202
    1UNL    H10   64   0.166   0.267  -0.369
    1UNL    H11   65   0.189   0.524  -0.357
    1UNL    H12   66   0.295   0.695  -0.268
    1UNL    H13   67   0.471   0.468  -0.044
    1UNL    H14   68   0.446   0.215  -0.051
    1UNL    H15   69   0.290  -0.388  -0.148
    1UNL    H16   70   0.084  -0.224  -0.135
    1UNL    H17   71   0.030  -0.320   0.019
    1UNL    H18   72   0.008  -0.050  -0.104
    1UNL    H19   73  -0.195  -0.179  -0.074
    1UNL    H20   74  -0.334  -0.142   0.188
    1UNL    H21   75  -0.379  -0.263   0.062
    1UNL    H22   76  -0.070  -0.189   0.536
    1UNL    H23   77   0.067  -0.349   0.694
    1UNL    H24   78   0.136  -0.577   0.617
    1UNL    H25   79   0.025  -0.650   0.391
    1UNL    H26   80  -0.109  -0.498   0.258
    1UNL    H27   81  -0.388   0.022   0.022
    1UNL    H28   82  -0.479   0.110  -0.154
    1UNL    H29   83  -0.484   0.344  -0.253
    1UNL    H30   84  -0.484   0.485  -0.045
    1UNL    H31   85  -0.404   0.583  -0.181
    1UNL    H32   86  -0.197   0.528  -0.072
    1UNL    H33   87  -0.316   0.450  -0.389
    1UNL    H34   88  -0.117   0.353  -0.195
    1UNL    H35   89  -0.254   0.261  -0.492
    1UNL    H36   90  -0.147   0.121  -0.270
    1UNL    H37   91  -0.358   0.048  -0.393
    1UNL    H38   92  -0.492   0.226  -0.484
    1UNL    H39   93  -0.236   0.229   0.027
    1UNL    H40   94  -0.173   0.036   0.227
    1UNL    H41   95   0.008   0.195   0.077
    1UNL    H42   96   0.045   0.143  -0.169
   0.00000   0.00000   0.00000   0.00000   0.00000   0.00000   0.00000   0.00000   0.00000
Generated with MDTraj, t= 10.0
 96
    1UNL     C1    1   0.151  -0.120   0.285
    1UNL     C2    2   0.228  -0.198   0.182
    1UNL     C3    3   0.234  -0.356   0.201
    1UNL     C4    4   0.320  -0.415   0.077
    1UNL     O1    5   0.316  -0.557   0.065
    1UNL     O2    6   0.450  -0.361   0.083
    1UNL     C5    7   0.431  -0.216   0.068
    1UNL     O3    8   0.373  -0.166   0.188
    1UNL     C6    9   0.320  -0.203  -0.040
    1UNL     C7   10   0.357  -0.125  -0.169
    1UNL     O4   11   0.369   0.017  -0.148
    1UNL     C8   12   0.273   0.089  -0.200
    1UNL     O5   13   0.175   0.051  -0.255
    1UNL     C9   14   0.297   0.237  -0.201
    1UNL    C10   15   0.236   0.315  -0.297
    1UNL    C11   16   0.267   0.450  -0.297
    1UNL    C12   17   0.351   0.516  -0.205
    1UNL     O6   18   0.376   0.652  -0.224
    1UNL    C13   19   0.394   0.438  -0.099
    1UNL    C14   20   0.365   0.307  -0.099
    1UNL    C15   21   0.258  -0.348  -0.053
    1UNL    C16   22   0.124  -0.289  -0.051
    1UNL    C17   23   0.187  -0.169   0.029
    1UNL     O7   24   0.141  -0.033   0.005
    1UNL    C18   25   0.006  -0.025  -0.012
    1UNL     O8   26  -0.076  -0.105   0.069
    1UNL    C19   27  -0.209  -0.114   0.026
    1UNL    C20   28  -0.292  -0.195   0.124
    1UNL     O9   29  -0.222  -0.295   0.184
    1UNL    C21   30  -0.179  -0.247   0.303
    1UNL    O10   31  -0.206  -0.138   0.344
    1UNL    C22   32  -0.107  -0.343   0.394
    1UNL    C23   33  -0.075  -0.304   0.523
    1UNL    C24   34  -0.010  -0.390   0.612
    1UNL    C25   35   0.036  -0.516   0.575
    1UNL    C26   36   0.006  -0.550   0.441
    1UNL    C27   37  -0.059  -0.463   0.354
    1UNL    C28   38  -0.264   0.025  -0.012
    1UNL    O11   39  -0.285   0.031  -0.149
    1UNL    C29   40  -0.384   0.122  -0.188
    1UNL    O12   41  -0.382   0.255  -0.120
    1UNL    C30   42  -0.392   0.370  -0.202
    1UNL    C31   43  -0.386   0.499  -0.124
    1UNL    O13   44  -0.277   0.515  -0.034
    1UNL    C32   45  -0.280   0.364  -0.313
    1UNL    O14   46  -0.159   0.412  -0.252
    1UNL    C33   47  -0.265   0.228  -0.377
    1UNL    O15   48  -0.143   0.171  -0.353
    1UNL    C34   49  -0.383   0.140  -0.340
    1UNL    O16   50  -0.508   0.192  -0.380
    1UNL    C35   51  -0.178   0.140   0.051
    1UNL    O17   52  -0.190   0.140   0.198
    1UNL    C36   53  -0.036   0.128   0.008
    1UNL    O18   54  -0.018   0.204  -0.112
    1UNL     H1   55   0.048  -0.159   0.276
    1UNL     H2   56   0.176  -0.142   0.387
    1UNL     H3   57   0.147  -0.011   0.248
    1UNL     H4   58   0.140  -0.407   0.194
    1UNL     H5   59   0.272  -0.374   0.295
    1UNL     H6   60   0.410  -0.593   0.048
    1UNL     H7   61   0.525  -0.159   0.033
    1UNL     H8   62   0.284  -0.138  -0.249
    1UNL     H9   63   0.452  -0.162  -0.211
    1UNL    H10   64   0.186   0.266  -0.377
    1UNL    H11   65   0.220   0.503  -0.373
    1UNL    H12   66   0.314   0.684  -0.294
    1UNL    H13   67   0.479   0.477  -0.038
    1UNL    H14   68   0.381   0.250  -0.017
    1UNL    H15   69   0.277  -0.396  -0.151
    1UNL    H16   70   0.084  -0.245  -0.144
    1UNL    H17   71   0.047  -0.350   0.004
    1UNL    H18   72  -0.000  -0.046  -0.121
    1UNL    H19   73  -0.211  -0.171  -0.066
    1UNL    H20   74  -0.336  -0.144   0.207
    1UNL    H21   75  -0.378  -0.246   0.068
    1UNL    H22   76  -0.133  -0.222   0.558
    1UNL    H23   77   0.023  -0.351   0.702
    1UNL    H24   78   0.085  -0.590   0.630
    1UNL    H25   79   0.022  -0.651   0.406
    1UNL    H26   80  -0.082  -0.496   0.258
    1UNL    H27   81  -0.368   0.039   0.028
    1UNL    H28   82  -0.489   0.093  -0.158
    1UNL    H29   83  -0.493   0.345  -0.255
    1UNL    H30   84  -0.472   0.490  -0.053
    1UNL    H31   85  -0.403   0.579  -0.198
    1UNL    H32   86  -0.190   0.509  -0.083
    1UNL    H33   87  -0.309   0.439  -0.386
    1UNL    H34   88  -0.093   0.334  -0.224
    1UNL    H35   89  -0.272   0.244  -0.482
    1UNL    H36   90  -0.145   0.128  -0.267
    1UNL    H37   91  -0.378   0.032  -0.381
    1UNL    H38   92  -0.507   0.220  -0.473
    1UNL    H39   93  -0.232   0.233   0.025
    1UNL    H40   94  -0.193   0.051   0.236
    1UNL    H41   95   0.020   0.180   0.090
    1UNL    H42   96   0.051   0.156  -0.168
   0.00000   0.00000   0.00000   0.00000   0.00000   0.00000   0.00000   0.00000   0.00000
Generated with MDTraj, t= 11.0
 96
    1UNL     C1    1   0.146  -0.140   0.284
    1UNL     C2    2   0.237  -0.201   0.179
    1UNL     C3    3   0.249  -0.356   0.191
    1UNL     C4    4   0.337  -0.404   0.065
    1UNL     O1    5   0.337  -0.543   0.060
    1UNL     O2    6   0.463  -0.341   0.070
    1UNL     C5    7   0.435  -0.198   0.061
    1UNL     O3    8   0.369  -0.150   0.181
    1UNL     C6    9   0.322  -0.191  -0.046
    1UNL     C7   10   0.357  -0.124  -0.184
    1UNL     O4   11   0.383   0.015  -0.165
    1UNL     C8   12   0.284   0.098  -0.213
    1UNL     O5   13   0.180   0.062  -0.261
    1UNL     C9   14   0.318   0.241  -0.211
    1UNL    C10   15   0.260   0.326  -0.310
    1UNL    C11   16   0.286   0.461  -0.312
    1UNL    C12   17   0.360   0.518  -0.207
    1UNL     O6   18   0.385   0.657  -0.217
    1UNL    C13   19   0.412   0.432  -0.103
    1UNL    C14   20   0.388   0.294  -0.107
    1UNL    C15   21   0.271  -0.343  -0.070
    1UNL    C16   22   0.126  -0.288  -0.051
    1UNL    C17   23   0.184  -0.174   0.031
    1UNL     O7   24   0.136  -0.035   0.013
    1UNL    C18   25   0.001  -0.034   0.003
    1UNL     O8   26  -0.077  -0.121   0.089
    1UNL    C19   27  -0.209  -0.124   0.037
    1UNL    C20   28  -0.306  -0.194   0.126
    1UNL     O9   29  -0.248  -0.293   0.205
    1UNL    C21   30  -0.195  -0.238   0.319
    1UNL    O10   31  -0.199  -0.124   0.347
    1UNL    C22   32  -0.120  -0.326   0.406
    1UNL    C23   33  -0.105  -0.309   0.538
    1UNL    C24   34  -0.032  -0.401   0.620
    1UNL    C25   35   0.010  -0.521   0.562
    1UNL    C26   36  -0.011  -0.540   0.431
    1UNL    C27   37  -0.079  -0.449   0.354
    1UNL    C28   38  -0.276   0.017   0.002
    1UNL    O11   39  -0.290   0.021  -0.140
    1UNL    C29   40  -0.382   0.120  -0.177
    1UNL    O12   41  -0.367   0.251  -0.121
    1UNL    C30   42  -0.392   0.367  -0.196
    1UNL    C31   43  -0.389   0.493  -0.114
    1UNL    O13   44  -0.273   0.506  -0.034
    1UNL    C32   45  -0.283   0.376  -0.309
    1UNL    O14   46  -0.153   0.401  -0.260
    1UNL    C33   47  -0.277   0.239  -0.386
    1UNL    O15   48  -0.149   0.179  -0.377
    1UNL    C34   49  -0.386   0.131  -0.337
    1UNL    O16   50  -0.515   0.171  -0.383
    1UNL    C35   51  -0.189   0.131   0.069
    1UNL    O17   52  -0.197   0.125   0.212
    1UNL    C36   53  -0.047   0.119   0.018
    1UNL    O18   54  -0.027   0.189  -0.108
    1UNL     H1   55   0.044  -0.172   0.260
    1UNL     H2   56   0.150  -0.176   0.388
    1UNL     H3   57   0.146  -0.028   0.260
    1UNL     H4   58   0.159  -0.413   0.211
    1UNL     H5   59   0.310  -0.374   0.276
    1UNL     H6   60   0.430  -0.577   0.036
    1UNL     H7   61   0.537  -0.145   0.043
    1UNL     H8   62   0.278  -0.147  -0.258
    1UNL     H9   63   0.455  -0.165  -0.218
    1UNL    H10   64   0.196   0.283  -0.387
    1UNL    H11   65   0.242   0.532  -0.387
    1UNL    H12   66   0.316   0.700  -0.270
    1UNL    H13   67   0.467   0.482  -0.031
    1UNL    H14   68   0.424   0.227  -0.023
    1UNL    H15   69   0.301  -0.374  -0.172
    1UNL    H16   70   0.075  -0.249  -0.144
    1UNL    H17   71   0.052  -0.345   0.008
    1UNL    H18   72  -0.003  -0.059  -0.103
    1UNL    H19   73  -0.211  -0.186  -0.048
    1UNL    H20   74  -0.341  -0.122   0.201
    1UNL    H21   75  -0.396  -0.246   0.088
    1UNL    H22   76  -0.133  -0.212   0.578
    1UNL    H23   77  -0.026  -0.369   0.728
    1UNL    H24   78   0.071  -0.588   0.625
    1UNL    H25   79   0.016  -0.637   0.391
    1UNL    H26   80  -0.101  -0.473   0.247
    1UNL    H27   81  -0.380   0.019   0.040
    1UNL    H28   82  -0.482   0.084  -0.147
    1UNL    H29   83  -0.495   0.345  -0.242
    1UNL    H30   84  -0.481   0.484  -0.052
    1UNL    H31   85  -0.411   0.581  -0.177
    1UNL    H32   86  -0.195   0.526  -0.095
    1UNL    H33   87  -0.303   0.465  -0.367
    1UNL    H34   88  -0.114   0.322  -0.232
    1UNL    H35   89  -0.281   0.253  -0.490
    1UNL    H36   90  -0.140   0.133  -0.291
    1UNL    H37   91  -0.359   0.025  -0.372
    1UNL    H38   92  -0.509   0.183  -0.484
    1UNL    H39   93  -0.231   0.225   0.031
    1UNL    H40   94  -0.182   0.032   0.250
    1UNL    H41   95   0.028   0.173   0.082
    1UNL    H42   96   0.046   0.147  -0.155
   0.00000   0.00000   0.00000   0.00000   0.00000   0.00000   0.00000   0.00000   0.00000
Generated with MDTraj, t= 12.0
 96
    1UNL     C1    1   0.150  -0.136   0.288
    1UNL     C2    2   0.237  -0.207   0.181
    1UNL     C3    3   0.263  -0.357   0.190
    1UNL     C4    4   0.345  -0.405   0.064
    1UNL     O1    5   0.341  -0.543   0.060
    1UNL     O2    6   0.467  -0.329   0.067
    1UNL     C5    7   0.433  -0.186   0.058
    1UNL     O3    8   0.368  -0.140   0.186
    1UNL     C6    9   0.320  -0.186  -0.055
    1UNL     C7   10   0.359  -0.114  -0.185
    1UNL     O4   11   0.382   0.026  -0.169
    1UNL     C8   12   0.291   0.108  -0.229
    1UNL     O5   13   0.187   0.064  -0.272
    1UNL     C9   14   0.329   0.246  -0.225
    1UNL    C10   15   0.268   0.337  -0.316
    1UNL    C11   16   0.280   0.472  -0.297
    1UNL    C12   17   0.373   0.520  -0.201
    1UNL     O6   18   0.398   0.656  -0.195
    1UNL    C13   19   0.443   0.431  -0.122
    1UNL    C14   20   0.429   0.289  -0.134
    1UNL    C15   21   0.276  -0.337  -0.067
    1UNL    C16   22   0.129  -0.291  -0.048
    1UNL    C17   23   0.189  -0.170   0.032
    1UNL     O7   24   0.132  -0.042   0.021
    1UNL    C18   25  -0.009  -0.038  -0.004
    1UNL     O8   26  -0.096  -0.116   0.080
    1UNL    C19   27  -0.230  -0.121   0.046
    1UNL    C20   28  -0.324  -0.178   0.155
    1UNL     O9   29  -0.267  -0.288   0.222
    1UNL    C21   30  -0.195  -0.245   0.324
    1UNL    O10   31  -0.172  -0.130   0.351
    1UNL    C22   32  -0.128  -0.348   0.415
    1UNL    C23   33  -0.107  -0.318   0.549
    1UNL    C24   34  -0.038  -0.410   0.632
    1UNL    C25   35   0.008  -0.528   0.577
    1UNL    C26   36  -0.014  -0.561   0.445
    1UNL    C27   37  -0.078  -0.469   0.363
    1UNL    C28   38  -0.293   0.016   0.002
    1UNL    O11   39  -0.297   0.027  -0.141
    1UNL    C29   40  -0.381   0.130  -0.180
    1UNL    O12   41  -0.366   0.250  -0.118
    1UNL    C30   42  -0.390   0.363  -0.201
    1UNL    C31   43  -0.396   0.482  -0.105
    1UNL    O13   44  -0.278   0.506  -0.032
    1UNL    C32   45  -0.275   0.378  -0.318
    1UNL    O14   46  -0.149   0.405  -0.272
    1UNL    C33   47  -0.275   0.243  -0.395
    1UNL    O15   48  -0.152   0.186  -0.386
    1UNL    C34   49  -0.384   0.139  -0.341
    1UNL    O16   50  -0.515   0.164  -0.386
    1UNL    C35   51  -0.200   0.121   0.063
    1UNL    O17   52  -0.205   0.130   0.205
    1UNL    C36   53  -0.059   0.109   0.007
    1UNL    O18   54  -0.046   0.169  -0.123
    1UNL     H1   55   0.043  -0.161   0.280
    1UNL     H2   56   0.164  -0.180   0.393
    1UNL     H3   57   0.160  -0.028   0.274
    1UNL     H4   58   0.171  -0.411   0.198
    1UNL     H5   59   0.314  -0.370   0.288
    1UNL     H6   60   0.425  -0.567   0.009
    1UNL     H7   61   0.525  -0.124   0.026
    1UNL     H8   62   0.274  -0.136  -0.254
    1UNL     H9   63   0.456  -0.159  -0.219
    1UNL    H10   64   0.175   0.309  -0.361
    1UNL    H11   65   0.233   0.544  -0.357
    1UNL    H12   66   0.328   0.708  -0.233
    1UNL    H13   67   0.500   0.458  -0.029
    1UNL    H14   68   0.483   0.223  -0.076
    1UNL    H15   69   0.287  -0.379  -0.168
    1UNL    H16   70   0.079  -0.263  -0.148
    1UNL    H17   71   0.076  -0.362   0.013
    1UNL    H18   72  -0.015  -0.069  -0.106
    1UNL    H19   73  -0.239  -0.180  -0.040
    1UNL    H20   74  -0.341  -0.105   0.239
    1UNL    H21   75  -0.422  -0.201   0.119
    1UNL    H22   76  -0.127  -0.216   0.582
    1UNL    H23   77  -0.008  -0.384   0.730
    1UNL    H24   78   0.049  -0.587   0.656
    1UNL    H25   79   0.045  -0.640   0.402
    1UNL    H26   80  -0.100  -0.511   0.270
    1UNL    H27   81  -0.391   0.035   0.044
    1UNL    H28   82  -0.479   0.092  -0.153
    1UNL    H29   83  -0.486   0.352  -0.255
    1UNL    H30   84  -0.479   0.475  -0.032
    1UNL    H31   85  -0.434   0.565  -0.165
    1UNL    H32   86  -0.209   0.491  -0.096
    1UNL    H33   87  -0.304   0.456  -0.388
    1UNL    H34   88  -0.124   0.328  -0.209
    1UNL    H35   89  -0.296   0.240  -0.498
    1UNL    H36   90  -0.146   0.154  -0.292
    1UNL    H37   91  -0.357   0.034  -0.373
    1UNL    H38   92  -0.510   0.161  -0.490
    1UNL    H39   93  -0.242   0.218   0.035
    1UNL    H40   94  -0.191   0.043   0.248
    1UNL    H41   95   0.013   0.162   0.074
    1UNL    H42   96   0.037   0.138  -0.171
   0.00000   0.00000   0.00000   0.00000   0.00000   0.00000   0.00000   0.00000   0.00000
Generated with MDTraj, t= 13.0
 96
    1UNL     C1    1   0.147  -0.116   0.280
    1UNL     C2    2   0.227  -0.201   0.172
    1UNL     C3    3   0.249  -0.355   0.195
    1UNL     C4    4   0.335  -0.402   0.076
    1UNL     O1    5   0.351  -0.546   0.075
    1UNL     O2    6   0.460  -0.328   0.075
    1UNL     C5    7   0.421  -0.189   0.060
    1UNL     O3    8   0.353  -0.143   0.175
    1UNL     C6    9   0.307  -0.199  -0.058
    1UNL     C7   10   0.331  -0.113  -0.185
    1UNL     O4   11   0.370   0.024  -0.162
    1UNL     C8   12   0.285   0.111  -0.218
    1UNL     O5   13   0.179   0.085  -0.273
    1UNL     C9   14   0.327   0.252  -0.208
    1UNL    C10   15   0.236   0.341  -0.261
    1UNL    C11   16   0.276   0.475  -0.255
    1UNL    C12   17   0.388   0.526  -0.193
    1UNL     O6   18   0.423   0.665  -0.197
    1UNL    C13   19   0.475   0.432  -0.142
    1UNL    C14   20   0.439   0.297  -0.148
    1UNL    C15   21   0.266  -0.353  -0.058
    1UNL    C16   22   0.121  -0.304  -0.041
    1UNL    C17   23   0.170  -0.175   0.027
    1UNL     O7   24   0.124  -0.041   0.004
    1UNL    C18   25  -0.015  -0.031  -0.015
    1UNL     O8   26  -0.082  -0.117   0.074
    1UNL    C19   27  -0.221  -0.122   0.045
    1UNL    C20   28  -0.309  -0.184   0.162
    1UNL     O9   29  -0.243  -0.294   0.231
    1UNL    C21   30  -0.169  -0.245   0.333
    1UNL    O10   31  -0.147  -0.127   0.350
    1UNL    C22   32  -0.106  -0.352   0.424
    1UNL    C23   33  -0.075  -0.323   0.560
    1UNL    C24   34  -0.029  -0.425   0.636
    1UNL    C25   35  -0.010  -0.548   0.585
    1UNL    C26   36  -0.021  -0.577   0.451
    1UNL    C27   37  -0.083  -0.478   0.367
    1UNL    C28   38  -0.289   0.015  -0.005
    1UNL    O11   39  -0.298   0.018  -0.150
    1UNL    C29   40  -0.391   0.124  -0.187
    1UNL    O12   41  -0.371   0.255  -0.123
    1UNL    C30   42  -0.392   0.372  -0.202
    1UNL    C31   43  -0.406   0.498  -0.120
    1UNL    O13   44  -0.293   0.514  -0.045
    1UNL    C32   45  -0.279   0.363  -0.310
    1UNL    O14   46  -0.147   0.394  -0.265
    1UNL    C33   47  -0.279   0.234  -0.399
    1UNL    O15   48  -0.146   0.185  -0.406
    1UNL    C34   49  -0.389   0.134  -0.347
    1UNL    O16   50  -0.520   0.170  -0.383
    1UNL    C35   51  -0.196   0.130   0.046
    1UNL    O17   52  -0.201   0.134   0.184
    1UNL    C36   53  -0.050   0.115  -0.005
    1UNL    O18   54  -0.042   0.181  -0.135
    1UNL     H1   55   0.043  -0.155   0.295
    1UNL     H2   56   0.185  -0.129   0.388
    1UNL     H3   57   0.137  -0.015   0.247
    1UNL     H4   58   0.161  -0.417   0.209
    1UNL     H5   59   0.309  -0.366   0.290
    1UNL     H6   60   0.443  -0.565   0.046
    1UNL     H7   61   0.512  -0.120   0.042
    1UNL     H8   62   0.242  -0.118  -0.250
    1UNL     H9   63   0.420  -0.164  -0.230
    1UNL    H10   64   0.146   0.309  -0.313
    1UNL    H11   65   0.202   0.555  -0.273
    1UNL    H12   66   0.348   0.705  -0.241
    1UNL    H13   67   0.564   0.462  -0.094
    1UNL    H14   68   0.501   0.224  -0.089
    1UNL    H15   69   0.307  -0.394  -0.152
    1UNL    H16   70   0.080  -0.290  -0.147
    1UNL    H17   71   0.060  -0.371   0.020
    1UNL    H18   72  -0.040  -0.063  -0.115
    1UNL    H19   73  -0.221  -0.194  -0.033
    1UNL    H20   74  -0.330  -0.098   0.236
    1UNL    H21   75  -0.402  -0.216   0.128
    1UNL    H22   76  -0.097  -0.223   0.587
    1UNL    H23   77   0.001  -0.400   0.738
    1UNL    H24   78   0.041  -0.627   0.640
    1UNL    H25   79  -0.012  -0.683   0.421
    1UNL    H26   80  -0.094  -0.510   0.261
    1UNL    H27   81  -0.387   0.026   0.033
    1UNL    H28   82  -0.487   0.084  -0.166
    1UNL    H29   83  -0.491   0.358  -0.245
    1UNL    H30   84  -0.495   0.483  -0.058
    1UNL    H31   85  -0.432   0.593  -0.166
    1UNL    H32   86  -0.209   0.488  -0.096
    1UNL    H33   87  -0.301   0.452  -0.372
    1UNL    H34   88  -0.095   0.320  -0.221
    1UNL    H35   89  -0.299   0.253  -0.502
    1UNL    H36   90  -0.116   0.174  -0.314
    1UNL    H37   91  -0.364   0.032  -0.383
    1UNL    H38   92  -0.522   0.159  -0.481
    1UNL    H39   93  -0.229   0.232   0.022
    1UNL    H40   94  -0.182   0.048   0.222
    1UNL    H41   95   0.019   0.166   0.064
    1UNL    H42   96   0.042   0.145  -0.180
   0.00000   0.00000   0.00000   0.00000   0.00000   0.00000   0.00000   0.00000   0.00000
Generated with MDTraj, t= 14.0
 96
    1UNL     C1    1   0.146  -0.087   0.266
    1UNL     C2    2   0.224  -0.176   0.174
    1UNL     C3    3   0.238  -0.335   0.198
    1UNL     C4    4   0.318  -0.395   0.079
    1UNL     O1    5   0.314  -0.535   0.091
    1UNL     O2    6   0.454  -0.339   0.084
    1UNL     C5    7   0.426  -0.196   0.055
    1UNL     O3    8   0.367  -0.132   0.169
    1UNL     C6    9   0.314  -0.196  -0.056
    1UNL     C7   10   0.351  -0.122  -0.186
    1UNL     O4   11   0.375   0.018  -0.166
    1UNL     C8   12   0.281   0.108  -0.211
    1UNL     O5   13   0.181   0.082  -0.274
    1UNL     C9   14   0.317   0.253  -0.187
    1UNL    C10   15   0.226   0.352  -0.209
    1UNL    C11   16   0.268   0.485  -0.212
    1UNL    C12   17   0.401   0.510  -0.188
    1UNL     O6   18   0.438   0.643  -0.189
    1UNL    C13   19   0.495   0.409  -0.159
    1UNL    C14   20   0.453   0.278  -0.156
    1UNL    C15   21   0.267  -0.343  -0.058
    1UNL    C16   22   0.126  -0.288  -0.052
    1UNL    C17   23   0.179  -0.162   0.021
    1UNL     O7   24   0.128  -0.040  -0.011
    1UNL    C18   25  -0.013  -0.023  -0.016
    1UNL     O8   26  -0.083  -0.114   0.071
    1UNL    C19   27  -0.222  -0.127   0.036
    1UNL    C20   28  -0.298  -0.184   0.161
    1UNL     O9   29  -0.226  -0.293   0.218
    1UNL    C21   30  -0.157  -0.246   0.329
    1UNL    O10   31  -0.150  -0.128   0.359
    1UNL    C22   32  -0.095  -0.347   0.413
    1UNL    C23   33  -0.049  -0.321   0.541
    1UNL    C24   34  -0.012  -0.421   0.624
    1UNL    C25   35  -0.007  -0.547   0.570
    1UNL    C26   36  -0.050  -0.578   0.444
    1UNL    C27   37  -0.096  -0.478   0.363
    1UNL    C28   38  -0.285   0.013   0.003
    1UNL    O11   39  -0.292   0.026  -0.140
    1UNL    C29   40  -0.390   0.118  -0.183
    1UNL    O12   41  -0.362   0.245  -0.123
    1UNL    C30   42  -0.405   0.359  -0.210
    1UNL    C31   43  -0.418   0.488  -0.121
    1UNL    O13   44  -0.292   0.535  -0.065
    1UNL    C32   45  -0.307   0.364  -0.329
    1UNL    O14   46  -0.177   0.395  -0.271
    1UNL    C33   47  -0.287   0.229  -0.401
    1UNL    O15   48  -0.152   0.185  -0.397
    1UNL    C34   49  -0.387   0.129  -0.339
    1UNL    O16   50  -0.518   0.152  -0.393
    1UNL    C35   51  -0.198   0.122   0.065
    1UNL    O17   52  -0.186   0.118   0.203
    1UNL    C36   53  -0.051   0.125  -0.003
    1UNL    O18   54  -0.046   0.182  -0.133
    1UNL     H1   55   0.037  -0.090   0.241
    1UNL     H2   56   0.156  -0.105   0.379
    1UNL     H3   57   0.178   0.009   0.230
    1UNL     H4   58   0.144  -0.395   0.207
    1UNL     H5   59   0.298  -0.365   0.289
    1UNL     H6   60   0.380  -0.572   0.033
    1UNL     H7   61   0.527  -0.144   0.033
    1UNL     H8   62   0.280  -0.133  -0.267
    1UNL     H9   63   0.451  -0.161  -0.214
    1UNL    H10   64   0.123   0.336  -0.232
    1UNL    H11   65   0.192   0.560  -0.228
    1UNL    H12   66   0.362   0.685  -0.234
    1UNL    H13   67   0.602   0.426  -0.172
    1UNL    H14   68   0.510   0.197  -0.118
    1UNL    H15   69   0.279  -0.401  -0.152
    1UNL    H16   70   0.079  -0.276  -0.152
    1UNL    H17   71   0.058  -0.354   0.005
    1UNL    H18   72  -0.042  -0.054  -0.116
    1UNL    H19   73  -0.214  -0.201  -0.043
    1UNL    H20   74  -0.320  -0.104   0.243
    1UNL    H21   75  -0.387  -0.212   0.121
    1UNL    H22   76  -0.062  -0.218   0.578
    1UNL    H23   77   0.019  -0.401   0.726
    1UNL    H24   78   0.033  -0.627   0.632
    1UNL    H25   79  -0.062  -0.682   0.420
    1UNL    H26   80  -0.154  -0.515   0.277
    1UNL    H27   81  -0.385   0.011   0.036
    1UNL    H28   82  -0.490   0.084  -0.164
    1UNL    H29   83  -0.498   0.331  -0.253
    1UNL    H30   84  -0.486   0.476  -0.038
    1UNL    H31   85  -0.473   0.561  -0.177
    1UNL    H32   86  -0.220   0.489  -0.111
    1UNL    H33   87  -0.329   0.443  -0.404
    1UNL    H34   88  -0.133   0.338  -0.207
    1UNL    H35   89  -0.308   0.236  -0.509
    1UNL    H36   90  -0.122   0.172  -0.305
    1UNL    H37   91  -0.360   0.030  -0.372
    1UNL    H38   92  -0.521   0.133  -0.484
    1UNL    H39   93  -0.240   0.220   0.040
    1UNL    H40   94  -0.157   0.030   0.239
    1UNL    H41   95   0.019   0.174   0.064
    1UNL    H42   96   0.034   0.159  -0.180
   0.00000   0.00000   0.00000   0.00000   0.00000   0.00000   0.00000   0.00000   0.00000
Generated with MDTraj, t= 15.0
 96
    1UNL     C1    1   0.144  -0.085   0.270
    1UNL     C2    2   0.227  -0.166   0.176
    1UNL     C3    3   0.235  -0.321   0.206
    1UNL     C4    4   0.299  -0.385   0.086
    1UNL     O1    5   0.291  -0.531   0.100
    1UNL     O2    6   0.434  -0.333   0.074
    1UNL     C5    7   0.416  -0.195   0.055
    1UNL     O3    8   0.364  -0.132   0.173
    1UNL     C6    9   0.310  -0.191  -0.059
    1UNL     C7   10   0.359  -0.131  -0.193
    1UNL     O4   11   0.404   0.005  -0.193
    1UNL     C8   12   0.299   0.099  -0.207
    1UNL     O5   13   0.188   0.070  -0.250
    1UNL     C9   14   0.340   0.238  -0.192
    1UNL    C10   15   0.249   0.336  -0.200
    1UNL    C11   16   0.279   0.472  -0.187
    1UNL    C12   17   0.411   0.504  -0.170
    1UNL     O6   18   0.443   0.641  -0.152
    1UNL    C13   19   0.509   0.401  -0.177
    1UNL    C14   20   0.473   0.266  -0.177
    1UNL    C15   21   0.248  -0.338  -0.056
    1UNL    C16   22   0.110  -0.270  -0.046
    1UNL    C17   23   0.175  -0.146   0.024
    1UNL     O7   24   0.134  -0.014   0.008
    1UNL    C18   25  -0.004  -0.012  -0.011
    1UNL     O8   26  -0.078  -0.102   0.081
    1UNL    C19   27  -0.216  -0.116   0.040
    1UNL    C20   28  -0.295  -0.179   0.155
    1UNL     O9   29  -0.237  -0.301   0.209
    1UNL    C21   30  -0.162  -0.261   0.319
    1UNL    O10   31  -0.136  -0.142   0.341
    1UNL    C22   32  -0.097  -0.363   0.402
    1UNL    C23   33  -0.037  -0.322   0.513
    1UNL    C24   34   0.024  -0.415   0.595
    1UNL    C25   35   0.022  -0.547   0.561
    1UNL    C26   36  -0.050  -0.586   0.454
    1UNL    C27   37  -0.108  -0.499   0.374
    1UNL    C28   38  -0.282   0.020   0.002
    1UNL    O11   39  -0.287   0.021  -0.138
    1UNL    C29   40  -0.381   0.117  -0.179
    1UNL    O12   41  -0.356   0.255  -0.131
    1UNL    C30   42  -0.416   0.355  -0.211
    1UNL    C31   43  -0.437   0.483  -0.130
    1UNL    O13   44  -0.317   0.542  -0.075
    1UNL    C32   45  -0.319   0.358  -0.332
    1UNL    O14   46  -0.195   0.401  -0.279
    1UNL    C33   47  -0.302   0.218  -0.407
    1UNL    O15   48  -0.161   0.179  -0.404
    1UNL    C34   49  -0.392   0.112  -0.334
    1UNL    O16   50  -0.527   0.130  -0.378
    1UNL    C35   51  -0.202   0.135   0.058
    1UNL    O17   52  -0.209   0.151   0.201
    1UNL    C36   53  -0.054   0.134  -0.003
    1UNL    O18   54  -0.038   0.193  -0.123
    1UNL     H1   55   0.036  -0.083   0.249
    1UNL     H2   56   0.181  -0.115   0.372
    1UNL     H3   57   0.180   0.019   0.256
    1UNL     H4   58   0.129  -0.366   0.216
    1UNL     H5   59   0.289  -0.341   0.301
    1UNL     H6   60   0.361  -0.574   0.056
    1UNL     H7   61   0.514  -0.139   0.027
    1UNL     H8   62   0.279  -0.131  -0.264
    1UNL     H9   63   0.448  -0.184  -0.230
    1UNL    H10   64   0.141   0.317  -0.202
    1UNL    H11   65   0.208   0.551  -0.210
    1UNL    H12   66   0.367   0.705  -0.165
    1UNL    H13   67   0.615   0.422  -0.168
    1UNL    H14   68   0.545   0.186  -0.201
    1UNL    H15   69   0.280  -0.403  -0.140
    1UNL    H16   70   0.072  -0.247  -0.144
    1UNL    H17   71   0.033  -0.318   0.022
    1UNL    H18   72  -0.027  -0.042  -0.116
    1UNL    H19   73  -0.193  -0.178  -0.049
    1UNL    H20   74  -0.310  -0.101   0.240
    1UNL    H21   75  -0.384  -0.207   0.115
    1UNL    H22   76  -0.021  -0.219   0.529
    1UNL    H23   77   0.072  -0.389   0.686
    1UNL    H24   78   0.074  -0.608   0.632
    1UNL    H25   79  -0.053  -0.691   0.428
    1UNL    H26   80  -0.182  -0.521   0.302
    1UNL    H27   81  -0.382   0.020   0.030
    1UNL    H28   82  -0.476   0.091  -0.132
    1UNL    H29   83  -0.503   0.313  -0.250
    1UNL    H30   84  -0.527   0.467  -0.070
    1UNL    H31   85  -0.446   0.563  -0.206
    1UNL    H32   86  -0.241   0.511  -0.124
    1UNL    H33   87  -0.362   0.434  -0.401
    1UNL    H34   88  -0.155   0.327  -0.212
    1UNL    H35   89  -0.330   0.221  -0.517
    1UNL    H36   90  -0.139   0.156  -0.309
    1UNL    H37   91  -0.359   0.015  -0.360
    1UNL    H38   92  -0.536   0.098  -0.467
    1UNL    H39   93  -0.247   0.228   0.022
    1UNL    H40   94  -0.187   0.067   0.253
    1UNL    H41   95   0.000   0.185   0.076
    1UNL    H42   96   0.048   0.158  -0.160
   0.00000   0.00000   0.00000   0.00000   0.00000   0.00000   0.00000   0.00000   0.00000
Generated with MDTraj, t= 16.0
 96
    1UNL     C1    1   0.159  -0.074   0.287
    1UNL     C2    2   0.224  -0.174   0.192
    1UNL     C3    3   0.229  -0.331   0.210
    1UNL     C4    4   0.294  -0.389   0.088
    1UNL     O1    5   0.287  -0.536   0.098
    1UNL     O2    6   0.436  -0.341   0.085
    1UNL     C5    7   0.409  -0.199   0.060
    1UNL     O3    8   0.362  -0.136   0.178
    1UNL     C6    9   0.296  -0.189  -0.050
    1UNL     C7   10   0.333  -0.122  -0.184
    1UNL     O4   11   0.392   0.002  -0.182
    1UNL     C8   12   0.302   0.100  -0.222
    1UNL     O5   13   0.188   0.082  -0.268
    1UNL     C9   14   0.356   0.236  -0.207
    1UNL    C10   15   0.260   0.335  -0.207
    1UNL    C11   16   0.305   0.462  -0.179
    1UNL    C12   17   0.440   0.498  -0.156
    1UNL     O6   18   0.472   0.625  -0.119
    1UNL    C13   19   0.535   0.397  -0.156
    1UNL    C14   20   0.489   0.266  -0.186
    1UNL    C15   21   0.234  -0.328  -0.050
    1UNL    C16   22   0.095  -0.262  -0.030
    1UNL    C17   23   0.176  -0.141   0.041
    1UNL     O7   24   0.132  -0.008   0.016
    1UNL    C18   25  -0.006  -0.008  -0.000
    1UNL     O8   26  -0.077  -0.091   0.100
    1UNL    C19   27  -0.214  -0.110   0.054
    1UNL    C20   28  -0.297  -0.189   0.157
    1UNL     O9   29  -0.223  -0.295   0.214
    1UNL    C21   30  -0.155  -0.249   0.322
    1UNL    O10   31  -0.148  -0.128   0.355
    1UNL    C22   32  -0.078  -0.352   0.395
    1UNL    C23   33   0.012  -0.325   0.497
    1UNL    C24   34   0.065  -0.426   0.568
    1UNL    C25   35   0.035  -0.557   0.548
    1UNL    C26   36  -0.042  -0.582   0.439
    1UNL    C27   37  -0.102  -0.483   0.367
    1UNL    C28   38  -0.285   0.027   0.002
    1UNL    O11   39  -0.294   0.026  -0.141
    1UNL    C29   40  -0.395   0.111  -0.191
    1UNL    O12   41  -0.404   0.244  -0.126
    1UNL    C30   42  -0.441   0.354  -0.229
    1UNL    C31   43  -0.450   0.488  -0.153
    1UNL    O13   44  -0.335   0.529  -0.084
    1UNL    C32   45  -0.324   0.354  -0.339
    1UNL    O14   46  -0.194   0.407  -0.285
    1UNL    C33   47  -0.307   0.213  -0.410
    1UNL    O15   48  -0.171   0.168  -0.410
    1UNL    C34   49  -0.400   0.113  -0.351
    1UNL    O16   50  -0.535   0.138  -0.397
    1UNL    C35   51  -0.202   0.143   0.059
    1UNL    O17   52  -0.198   0.132   0.200
    1UNL    C36   53  -0.059   0.143  -0.006
    1UNL    O18   54  -0.059   0.193  -0.136
    1UNL     H1   55   0.055  -0.103   0.293
    1UNL     H2   56   0.221  -0.078   0.378
    1UNL     H3   57   0.155   0.038   0.254
    1UNL     H4   58   0.124  -0.369   0.238
    1UNL     H5   59   0.300  -0.348   0.296
    1UNL     H6   60   0.370  -0.564   0.067
    1UNL     H7   61   0.500  -0.139   0.019
    1UNL     H8   62   0.257  -0.112  -0.258
    1UNL     H9   63   0.414  -0.184  -0.224
    1UNL    H10   64   0.156   0.310  -0.212
    1UNL    H11   65   0.221   0.530  -0.173
    1UNL    H12   66   0.385   0.677  -0.114
    1UNL    H13   67   0.636   0.416  -0.127
    1UNL    H14   68   0.564   0.187  -0.188
    1UNL    H15   69   0.243  -0.399  -0.133
    1UNL    H16   70   0.046  -0.243  -0.122
    1UNL    H17   71   0.029  -0.308   0.048
    1UNL    H18   72  -0.032  -0.047  -0.102
    1UNL    H19   73  -0.185  -0.168  -0.041
    1UNL    H20   74  -0.339  -0.132   0.250
    1UNL    H21   75  -0.369  -0.233   0.104
    1UNL    H22   76   0.038  -0.222   0.527
    1UNL    H23   77   0.151  -0.394   0.631
    1UNL    H24   78   0.078  -0.647   0.597
    1UNL    H25   79  -0.067  -0.684   0.416
    1UNL    H26   80  -0.170  -0.499   0.274
    1UNL    H27   81  -0.384   0.034   0.035
    1UNL    H28   82  -0.487   0.064  -0.152
    1UNL    H29   83  -0.523   0.331  -0.286
    1UNL    H30   84  -0.511   0.468  -0.062
    1UNL    H31   85  -0.489   0.571  -0.221
    1UNL    H32   86  -0.258   0.490  -0.136
    1UNL    H33   87  -0.365   0.432  -0.405
    1UNL    H34   88  -0.153   0.334  -0.244
    1UNL    H35   89  -0.330   0.225  -0.522
    1UNL    H36   90  -0.148   0.166  -0.316
    1UNL    H37   91  -0.372   0.018  -0.381
    1UNL    H38   92  -0.553   0.111  -0.491
    1UNL    H39   93  -0.240   0.243   0.036
    1UNL    H40   94  -0.166   0.043   0.236
    1UNL    H41   95   0.012   0.194   0.058
    1UNL    H42   96   0.004   0.135  -0.192
   0.00000   0.00000   0.00000   0.00000   0.00000   0.00000   0.00000   0.00000   0.00000
Generated with MDTraj, t= 17.0
 96
    1UNL     C1    1   0.167  -0.069   0.287
    1UNL     C2    2   0.236  -0.167   0.193
    1UNL     C3    3   0.233  -0.320   0.219
    1UNL     C4    4   0.298  -0.394   0.101
    1UNL     O1    5   0.281  -0.539   0.113
    1UNL     O2    6   0.433  -0.340   0.084
    1UNL     C5    7   0.411  -0.204   0.055
    1UNL     O3    8   0.373  -0.133   0.175
    1UNL     C6    9   0.297  -0.200  -0.044
    1UNL     C7   10   0.317  -0.119  -0.178
    1UNL     O4   11   0.366   0.011  -0.162
    1UNL     C8   12   0.285   0.108  -0.215
    1UNL     O5   13   0.172   0.091  -0.263
    1UNL     C9   14   0.349   0.246  -0.189
    1UNL    C10   15   0.272   0.358  -0.197
    1UNL    C11   16   0.331   0.479  -0.180
    1UNL    C12   17   0.465   0.485  -0.140
    1UNL     O6   18   0.520   0.609  -0.116
    1UNL    C13   19   0.536   0.373  -0.120
    1UNL    C14   20   0.482   0.251  -0.151
    1UNL    C15   21   0.237  -0.345  -0.040
    1UNL    C16   22   0.099  -0.277  -0.017
    1UNL    C17   23   0.172  -0.156   0.043
    1UNL     O7   24   0.127  -0.019  -0.006
    1UNL    C18   25  -0.013  -0.010  -0.019
    1UNL     O8   26  -0.090  -0.084   0.076
    1UNL    C19   27  -0.225  -0.105   0.044
    1UNL    C20   28  -0.302  -0.163   0.169
    1UNL     O9   29  -0.238  -0.275   0.223
    1UNL    C21   30  -0.150  -0.233   0.321
    1UNL    O10   31  -0.126  -0.112   0.346
    1UNL    C22   32  -0.084  -0.344   0.392
    1UNL    C23   33   0.013  -0.316   0.488
    1UNL    C24   34   0.090  -0.418   0.540
    1UNL    C25   35   0.075  -0.549   0.507
    1UNL    C26   36  -0.022  -0.576   0.409
    1UNL    C27   37  -0.100  -0.473   0.349
    1UNL    C28   38  -0.289   0.028  -0.007
    1UNL    O11   39  -0.299   0.021  -0.148
    1UNL    C29   40  -0.412   0.102  -0.189
    1UNL    O12   41  -0.408   0.238  -0.141
    1UNL    C30   42  -0.433   0.345  -0.233
    1UNL    C31   43  -0.468   0.470  -0.152
    1UNL    O13   44  -0.361   0.526  -0.086
    1UNL    C32   45  -0.317   0.349  -0.332
    1UNL    O14   46  -0.197   0.395  -0.281
    1UNL    C33   47  -0.304   0.208  -0.401
    1UNL    O15   48  -0.182   0.145  -0.375
    1UNL    C34   49  -0.411   0.113  -0.345
    1UNL    O16   50  -0.544   0.126  -0.387
    1UNL    C35   51  -0.203   0.144   0.040
    1UNL    O17   52  -0.207   0.148   0.180
    1UNL    C36   53  -0.059   0.139  -0.017
    1UNL    O18   54  -0.052   0.199  -0.145
    1UNL     H1   55   0.057  -0.063   0.288
    1UNL     H2   56   0.232  -0.079   0.375
    1UNL     H3   57   0.193   0.042   0.261
    1UNL     H4   58   0.125  -0.349   0.226
    1UNL     H5   59   0.286  -0.341   0.320
    1UNL     H6   60   0.333  -0.576   0.044
    1UNL     H7   61   0.516  -0.167   0.019
    1UNL     H8   62   0.224  -0.116  -0.233
    1UNL     H9   63   0.393  -0.170  -0.238
    1UNL    H10   64   0.167   0.346  -0.224
    1UNL    H11   65   0.276   0.569  -0.169
    1UNL    H12   66   0.456   0.686  -0.113
    1UNL    H13   67   0.640   0.383  -0.080
    1UNL    H14   68   0.527   0.162  -0.114
    1UNL    H15   69   0.240  -0.414  -0.127
    1UNL    H16   70   0.041  -0.250  -0.104
    1UNL    H17   71   0.030  -0.326   0.052
    1UNL    H18   72  -0.047  -0.042  -0.123
    1UNL    H19   73  -0.228  -0.185  -0.039
    1UNL    H20   74  -0.301  -0.093   0.261
    1UNL    H21   75  -0.395  -0.198   0.154
    1UNL    H22   76   0.026  -0.220   0.531
    1UNL    H23   77   0.181  -0.401   0.592
    1UNL    H24   78   0.138  -0.628   0.531
    1UNL    H25   79  -0.038  -0.679   0.376
    1UNL    H26   80  -0.173  -0.491   0.283
    1UNL    H27   81  -0.387   0.034   0.035
    1UNL    H28   82  -0.510   0.068  -0.146
    1UNL    H29   83  -0.511   0.311  -0.291
    1UNL    H30   84  -0.556   0.454  -0.088
    1UNL    H31   85  -0.476   0.555  -0.226
    1UNL    H32   86  -0.274   0.481  -0.111
    1UNL    H33   87  -0.345   0.428  -0.404
    1UNL    H34   88  -0.149   0.327  -0.230
    1UNL    H35   89  -0.300   0.219  -0.516
    1UNL    H36   90  -0.192   0.099  -0.289
    1UNL    H37   91  -0.388   0.017  -0.379
    1UNL    H38   92  -0.562   0.086  -0.481
    1UNL    H39   93  -0.240   0.241   0.005
    1UNL    H40   94  -0.170   0.061   0.219
    1UNL    H41   95   0.016   0.186   0.049
    1UNL    H42   96   0.032   0.171  -0.182
   0.00000   0.00000   0.00000   0.00000   0.00000   0.00000   0.00000   0.00000   0.00000
Generated with MDTraj, t= 18.0
 96
    1UNL     C1    1   0.165  -0.064   0.271
    1UNL     C2    2   0.233  -0.158   0.178
    1UNL     C3    3   0.236  -0.308   0.218
    1UNL     C4    4   0.294  -0.383   0.099
    1UNL     O1    5   0.295  -0.521   0.131
    1UNL     O2    6   0.430  -0.333   0.073
    1UNL     C5    7   0.405  -0.200   0.039
    1UNL     O3    8   0.368  -0.124   0.155
    1UNL     C6    9   0.281  -0.203  -0.056
    1UNL     C7   10   0.310  -0.133  -0.190
    1UNL     O4   11   0.385  -0.014  -0.176
    1UNL     C8   12   0.304   0.096  -0.202
    1UNL     O5   13   0.191   0.096  -0.252
    1UNL     C9   14   0.355   0.229  -0.157
    1UNL    C10   15   0.299   0.351  -0.195
    1UNL    C11   16   0.357   0.475  -0.182
    1UNL    C12   17   0.479   0.483  -0.120
    1UNL     O6   18   0.544   0.605  -0.124
    1UNL    C13   19   0.539   0.359  -0.081
    1UNL    C14   20   0.484   0.233  -0.095
    1UNL    C15   21   0.226  -0.345  -0.038
    1UNL    C16   22   0.086  -0.286  -0.012
    1UNL    C17   23   0.164  -0.156   0.034
    1UNL     O7   24   0.116  -0.020  -0.002
    1UNL    C18   25  -0.024  -0.020  -0.012
    1UNL     O8   26  -0.096  -0.092   0.085
    1UNL    C19   27  -0.232  -0.100   0.059
    1UNL    C20   28  -0.320  -0.149   0.176
    1UNL     O9   29  -0.261  -0.262   0.233
    1UNL    C21   30  -0.161  -0.222   0.318
    1UNL    O10   31  -0.139  -0.104   0.346
    1UNL    C22   32  -0.070  -0.325   0.368
    1UNL    C23   33   0.011  -0.299   0.478
    1UNL    C24   34   0.100  -0.396   0.523
    1UNL    C25   35   0.091  -0.524   0.467
    1UNL    C26   36   0.004  -0.556   0.365
    1UNL    C27   37  -0.069  -0.456   0.311
    1UNL    C28   38  -0.297   0.027   0.004
    1UNL    O11   39  -0.301   0.019  -0.141
    1UNL    C29   40  -0.410   0.097  -0.197
    1UNL    O12   41  -0.413   0.223  -0.141
    1UNL    C30   42  -0.458   0.330  -0.233
    1UNL    C31   43  -0.474   0.466  -0.150
    1UNL    O13   44  -0.347   0.499  -0.092
    1UNL    C32   45  -0.343   0.345  -0.339
    1UNL    O14   46  -0.217   0.396  -0.294
    1UNL    C33   47  -0.309   0.195  -0.400
    1UNL    O15   48  -0.183   0.157  -0.350
    1UNL    C34   49  -0.414   0.095  -0.354
    1UNL    O16   50  -0.547   0.127  -0.391
    1UNL    C35   51  -0.208   0.149   0.057
    1UNL    O17   52  -0.206   0.148   0.200
    1UNL    C36   53  -0.066   0.135  -0.005
    1UNL    O18   54  -0.047   0.187  -0.136
    1UNL     H1   55   0.052  -0.068   0.246
    1UNL     H2   56   0.207  -0.082   0.372
    1UNL     H3   57   0.187   0.044   0.248
    1UNL     H4   58   0.136  -0.336   0.253
    1UNL     H5   59   0.319  -0.332   0.298
    1UNL     H6   60   0.369  -0.563   0.086
    1UNL     H7   61   0.498  -0.145  -0.005
    1UNL     H8   62   0.212  -0.112  -0.233
    1UNL     H9   63   0.369  -0.201  -0.255
    1UNL    H10   64   0.202   0.345  -0.245
    1UNL    H11   65   0.302   0.558  -0.228
    1UNL    H12   66   0.485   0.678  -0.156
    1UNL    H13   67   0.626   0.365  -0.027
    1UNL    H14   68   0.539   0.141  -0.069
    1UNL    H15   69   0.228  -0.411  -0.126
    1UNL    H16   70   0.022  -0.270  -0.100
    1UNL    H17   71   0.035  -0.322   0.073
    1UNL    H18   72  -0.061  -0.048  -0.115
    1UNL    H19   73  -0.243  -0.176  -0.027
    1UNL    H20   74  -0.312  -0.073   0.261
    1UNL    H21   75  -0.416  -0.174   0.158
    1UNL    H22   76   0.033  -0.199   0.518
    1UNL    H23   77   0.163  -0.379   0.614
    1UNL    H24   78   0.167  -0.594   0.507
    1UNL    H25   79  -0.017  -0.649   0.320
    1UNL    H26   80  -0.160  -0.468   0.243
    1UNL    H27   81  -0.404   0.035   0.026
    1UNL    H28   82  -0.507   0.057  -0.158
    1UNL    H29   83  -0.539   0.292  -0.284
    1UNL    H30   84  -0.528   0.442  -0.061
    1UNL    H31   85  -0.526   0.547  -0.204
    1UNL    H32   86  -0.280   0.480  -0.156
    1UNL    H33   87  -0.374   0.403  -0.424
    1UNL    H34   88  -0.156   0.341  -0.234
    1UNL    H35   89  -0.296   0.190  -0.514
    1UNL    H36   90  -0.196   0.116  -0.260
    1UNL    H37   91  -0.398  -0.003  -0.390
    1UNL    H38   92  -0.557   0.104  -0.490
    1UNL    H39   93  -0.251   0.247   0.035
    1UNL    H40   94  -0.170   0.058   0.235
    1UNL    H41   95   0.008   0.180   0.063
    1UNL    H42   96   0.045   0.163  -0.169
   0.00000   0.00000   0.00000   0.00000   0.00000   0.00000   0.00000   0.00000   0.00000
Generated with MDTraj, t= 19.0
 96
    1UNL     C1    1   0.148  -0.054   0.274
    1UNL     C2    2   0.224  -0.153   0.176
    1UNL     C3    3   0.236  -0.305   0.214
    1UNL     C4    4   0.303  -0.380   0.097
    1UNL     O1    5   0.300  -0.520   0.121
    1UNL     O2    6   0.441  -0.322   0.075
    1UNL     C5    7   0.407  -0.188   0.038
    1UNL     O3    8   0.360  -0.115   0.152
    1UNL     C6    9   0.284  -0.193  -0.064
    1UNL     C7   10   0.311  -0.138  -0.202
    1UNL     O4   11   0.386  -0.019  -0.192
    1UNL     C8   12   0.306   0.092  -0.203
    1UNL     O5   13   0.187   0.083  -0.235
    1UNL     C9   14   0.368   0.220  -0.177
    1UNL    C10   15   0.324   0.337  -0.234
    1UNL    C11   16   0.390   0.457  -0.200
    1UNL    C12   17   0.501   0.460  -0.113
    1UNL     O6   18   0.548   0.577  -0.072
    1UNL    C13   19   0.555   0.340  -0.057
    1UNL    C14   20   0.482   0.228  -0.089
    1UNL    C15   21   0.231  -0.339  -0.040
    1UNL    C16   22   0.094  -0.270  -0.023
    1UNL    C17   23   0.162  -0.145   0.029
    1UNL     O7   24   0.107  -0.014  -0.004
    1UNL    C18   25  -0.034  -0.012  -0.009
    1UNL     O8   26  -0.098  -0.097   0.084
    1UNL    C19   27  -0.239  -0.105   0.060
    1UNL    C20   28  -0.325  -0.159   0.180
    1UNL     O9   29  -0.259  -0.264   0.242
    1UNL    C21   30  -0.172  -0.222   0.334
    1UNL    O10   31  -0.162  -0.104   0.361
    1UNL    C22   32  -0.070  -0.321   0.384
    1UNL    C23   33   0.012  -0.301   0.493
    1UNL    C24   34   0.109  -0.394   0.530
    1UNL    C25   35   0.123  -0.504   0.436
    1UNL    C26   36   0.039  -0.531   0.330
    1UNL    C27   37  -0.058  -0.436   0.305
    1UNL    C28   38  -0.308   0.022   0.010
    1UNL    O11   39  -0.324   0.013  -0.128
    1UNL    C29   40  -0.429   0.108  -0.180
    1UNL    O12   41  -0.418   0.242  -0.133
    1UNL    C30   42  -0.447   0.335  -0.232
    1UNL    C31   43  -0.463   0.470  -0.158
    1UNL    O13   44  -0.358   0.499  -0.070
    1UNL    C32   45  -0.337   0.336  -0.343
    1UNL    O14   46  -0.222   0.383  -0.278
    1UNL    C33   47  -0.318   0.191  -0.410
    1UNL    O15   48  -0.187   0.150  -0.406
    1UNL    C34   49  -0.414   0.086  -0.343
    1UNL    O16   50  -0.542   0.096  -0.406
    1UNL    C35   51  -0.223   0.152   0.056
    1UNL    O17   52  -0.231   0.163   0.198
    1UNL    C36   53  -0.082   0.137   0.001
    1UNL    O18   54  -0.053   0.206  -0.121
    1UNL     H1   55   0.038  -0.084   0.295
    1UNL     H2   56   0.213  -0.048   0.365
    1UNL     H3   57   0.141   0.044   0.228
    1UNL     H4   58   0.134  -0.344   0.232
    1UNL     H5   59   0.298  -0.324   0.305
    1UNL     H6   60   0.386  -0.562   0.093
    1UNL     H7   61   0.492  -0.131  -0.018
    1UNL     H8   62   0.211  -0.124  -0.250
    1UNL     H9   63   0.370  -0.221  -0.251
    1UNL    H10   64   0.233   0.328  -0.290
    1UNL    H11   65   0.376   0.542  -0.261
    1UNL    H12   66   0.510   0.649  -0.126
    1UNL    H13   67   0.643   0.358   0.012
    1UNL    H14   68   0.512   0.138  -0.040
    1UNL    H15   69   0.244  -0.410  -0.124
    1UNL    H16   70   0.052  -0.250  -0.124
    1UNL    H17   71   0.026  -0.316   0.042
    1UNL    H18   72  -0.063  -0.053  -0.111
    1UNL    H19   73  -0.260  -0.184  -0.019
    1UNL    H20   74  -0.322  -0.082   0.263
    1UNL    H21   75  -0.424  -0.187   0.164
    1UNL    H22   76  -0.002  -0.220   0.560
    1UNL    H23   77   0.183  -0.378   0.602
    1UNL    H24   78   0.188  -0.584   0.460
    1UNL    H25   79   0.045  -0.634   0.287
    1UNL    H26   80  -0.131  -0.435   0.226
    1UNL    H27   81  -0.417   0.027   0.041
    1UNL    H28   82  -0.526   0.068  -0.144
    1UNL    H29   83  -0.542   0.312  -0.268
    1UNL    H30   84  -0.559   0.480  -0.113
    1UNL    H31   85  -0.459   0.551  -0.229
    1UNL    H32   86  -0.273   0.470  -0.114
    1UNL    H33   87  -0.364   0.419  -0.409
    1UNL    H34   88  -0.163   0.315  -0.226
    1UNL    H35   89  -0.348   0.204  -0.519
    1UNL    H36   90  -0.148   0.173  -0.317
    1UNL    H37   91  -0.383  -0.017  -0.353
    1UNL    H38   92  -0.531   0.067  -0.497
    1UNL    H39   93  -0.265   0.243   0.011
    1UNL    H40   94  -0.202   0.076   0.241
    1UNL    H41   95  -0.016   0.181   0.080
    1UNL    H42   96   0.024   0.151  -0.163
   0.00000   0.00000   0.00000   0.00000   0.00000   0.00000   0.00000   0.00000   0.00000
Generated with MDTraj, t= 20.0
 96
    1UNL     C1    1   0.143  -0.057   0.270
    1UNL     C2    2   0.216  -0.147   0.170
    1UNL     C3    3   0.242  -0.294   0.211
    1UNL     C4    4   0.301  -0.372   0.090
    1UNL     O1    5   0.302  -0.511   0.119
    1UNL     O2    6   0.431  -0.304   0.079
    1UNL     C5    7   0.400  -0.167   0.048
    1UNL     O3    8   0.351  -0.095   0.160
    1UNL     C6    9   0.275  -0.182  -0.058
    1UNL     C7   10   0.285  -0.124  -0.198
    1UNL     O4   11   0.375  -0.017  -0.218
    1UNL     C8   12   0.303   0.093  -0.230
    1UNL     O5   13   0.189   0.102  -0.274
    1UNL     C9   14   0.377   0.215  -0.197
    1UNL    C10   15   0.348   0.346  -0.240
    1UNL    C11   16   0.411   0.457  -0.198
    1UNL    C12   17   0.509   0.450  -0.093
    1UNL     O6   18   0.576   0.564  -0.044
    1UNL    C13   19   0.533   0.324  -0.040
    1UNL    C14   20   0.470   0.214  -0.090
    1UNL    C15   21   0.231  -0.332  -0.042
    1UNL    C16   22   0.084  -0.278  -0.022
    1UNL    C17   23   0.152  -0.143   0.027
    1UNL     O7   24   0.099  -0.016  -0.013
    1UNL    C18   25  -0.045  -0.013  -0.009
    1UNL     O8   26  -0.115  -0.088   0.099
    1UNL    C19   27  -0.251  -0.108   0.074
    1UNL    C20   28  -0.327  -0.162   0.197
    1UNL     O9   29  -0.262  -0.270   0.253
    1UNL    C21   30  -0.168  -0.230   0.334
    1UNL    O10   31  -0.152  -0.111   0.357
    1UNL    C22   32  -0.068  -0.332   0.383
    1UNL    C23   33   0.024  -0.298   0.491
    1UNL    C24   34   0.119  -0.388   0.534
    1UNL    C25   35   0.132  -0.510   0.471
    1UNL    C26   36   0.053  -0.540   0.353
    1UNL    C27   37  -0.051  -0.454   0.319
    1UNL    C28   38  -0.309   0.015   0.007
    1UNL    O11   39  -0.300   0.018  -0.134
    1UNL    C29   40  -0.407   0.098  -0.189
    1UNL    O12   41  -0.398   0.222  -0.133
    1UNL    C30   42  -0.448   0.329  -0.220
    1UNL    C31   43  -0.473   0.468  -0.150
    1UNL    O13   44  -0.362   0.521  -0.088
    1UNL    C32   45  -0.337   0.340  -0.335
    1UNL    O14   46  -0.213   0.383  -0.275
    1UNL    C33   47  -0.314   0.203  -0.405
    1UNL    O15   48  -0.181   0.157  -0.426
    1UNL    C34   49  -0.403   0.095  -0.345
    1UNL    O16   50  -0.540   0.111  -0.394
    1UNL    C35   51  -0.228   0.141   0.053
    1UNL    O17   52  -0.230   0.140   0.193
    1UNL    C36   53  -0.093   0.131  -0.012
    1UNL    O18   54  -0.083   0.174  -0.143
    1UNL     H1   55   0.031  -0.075   0.279
    1UNL     H2   56   0.192  -0.070   0.374
    1UNL     H3   57   0.154   0.039   0.222
    1UNL     H4   58   0.147  -0.341   0.237
    1UNL     H5   59   0.299  -0.300   0.301
    1UNL     H6   60   0.354  -0.556   0.044
    1UNL     H7   61   0.499  -0.124   0.004
    1UNL     H8   62   0.177  -0.099  -0.212
    1UNL     H9   63   0.309  -0.204  -0.274
    1UNL    H10   64   0.294   0.353  -0.335
    1UNL    H11   65   0.385   0.552  -0.244
    1UNL    H12   66   0.565   0.644  -0.095
    1UNL    H13   67   0.602   0.311   0.038
    1UNL    H14   68   0.490   0.116  -0.038
    1UNL    H15   69   0.253  -0.394  -0.130
    1UNL    H16   70   0.037  -0.265  -0.119
    1UNL    H17   71   0.019  -0.334   0.041
    1UNL    H18   72  -0.076  -0.062  -0.105
    1UNL    H19   73  -0.260  -0.199   0.009
    1UNL    H20   74  -0.329  -0.078   0.272
    1UNL    H21   75  -0.426  -0.194   0.176
    1UNL    H22   76   0.012  -0.197   0.529
    1UNL    H23   77   0.191  -0.352   0.611
    1UNL    H24   78   0.210  -0.583   0.494
    1UNL    H25   79   0.052  -0.631   0.303
    1UNL    H26   80  -0.106  -0.470   0.230
    1UNL    H27   81  -0.420   0.028   0.037
    1UNL    H28   82  -0.507   0.059  -0.164
    1UNL    H29   83  -0.541   0.300  -0.261
    1UNL    H30   84  -0.551   0.467  -0.074
    1UNL    H31   85  -0.519   0.543  -0.215
    1UNL    H32   86  -0.280   0.509  -0.146
    1UNL    H33   87  -0.365   0.409  -0.416
    1UNL    H34   88  -0.197   0.310  -0.214
    1UNL    H35   89  -0.342   0.202  -0.513
    1UNL    H36   90  -0.138   0.151  -0.339
    1UNL    H37   91  -0.368  -0.007  -0.370
    1UNL    H38   92  -0.540   0.101  -0.487
    1UNL    H39   93  -0.269   0.237   0.020
    1UNL    H40   94  -0.188   0.059   0.236
    1UNL    H41   95  -0.032   0.205   0.046
    1UNL    H42   96   0.002   0.156  -0.183
   0.00000   0.00000   0.00000   0.00000   0.00000   0.00000   0.00000   0.00000   0.00000
Generated with MDTraj, t= 21.0
 96
    1UNL     C1    1   0.159  -0.038   0.261
    1UNL     C2    2   0.230  -0.138   0.166
    1UNL     C3    3   0.243  -0.291   0.220
    1UNL     C4    4   0.305  -0.367   0.094
    1UNL     O1    5   0.318  -0.507   0.135
    1UNL     O2    6   0.436  -0.310   0.060
    1UNL     C5    7   0.398  -0.177   0.014
    1UNL     O3    8   0.361  -0.094   0.128
    1UNL     C6    9   0.272  -0.195  -0.072
    1UNL     C7   10   0.269  -0.122  -0.208
    1UNL     O4   11   0.349  -0.005  -0.188
    1UNL     C8   12   0.282   0.108  -0.211
    1UNL     O5   13   0.177   0.105  -0.273
    1UNL     C9   14   0.362   0.227  -0.172
    1UNL    C10   15   0.352   0.359  -0.237
    1UNL    C11   16   0.421   0.469  -0.190
    1UNL    C12   17   0.519   0.447  -0.089
    1UNL     O6   18   0.596   0.549  -0.040
    1UNL    C13   19   0.525   0.318  -0.028
    1UNL    C14   20   0.458   0.206  -0.078
    1UNL    C15   21   0.223  -0.341  -0.037
    1UNL    C16   22   0.082  -0.284  -0.017
    1UNL    C17   23   0.152  -0.149   0.019
    1UNL     O7   24   0.098  -0.031  -0.031
    1UNL    C18   25  -0.044  -0.023  -0.030
    1UNL     O8   26  -0.103  -0.099   0.076
    1UNL    C19   27  -0.248  -0.119   0.055
    1UNL    C20   28  -0.310  -0.182   0.181
    1UNL     O9   29  -0.231  -0.281   0.237
    1UNL    C21   30  -0.142  -0.232   0.329
    1UNL    O10   31  -0.141  -0.115   0.354
    1UNL    C22   32  -0.063  -0.326   0.403
    1UNL    C23   33   0.035  -0.290   0.497
    1UNL    C24   34   0.120  -0.393   0.549
    1UNL    C25   35   0.116  -0.525   0.503
    1UNL    C26   36   0.018  -0.556   0.403
    1UNL    C27   37  -0.067  -0.455   0.356
    1UNL    C28   38  -0.316   0.010   0.001
    1UNL    O11   39  -0.332  -0.004  -0.139
    1UNL    C29   40  -0.413   0.107  -0.189
    1UNL    O12   41  -0.391   0.241  -0.137
    1UNL    C30   42  -0.440   0.338  -0.221
    1UNL    C31   43  -0.479   0.467  -0.146
    1UNL    O13   44  -0.368   0.530  -0.094
    1UNL    C32   45  -0.346   0.346  -0.338
    1UNL    O14   46  -0.229   0.416  -0.309
    1UNL    C33   47  -0.321   0.209  -0.409
    1UNL    O15   48  -0.186   0.165  -0.395
    1UNL    C34   49  -0.409   0.094  -0.349
    1UNL    O16   50  -0.542   0.098  -0.406
    1UNL    C35   51  -0.226   0.140   0.047
    1UNL    O17   52  -0.221   0.135   0.187
    1UNL    C36   53  -0.081   0.128  -0.015
    1UNL    O18   54  -0.067   0.199  -0.136
    1UNL     H1   55   0.053  -0.063   0.260
    1UNL     H2   56   0.177  -0.048   0.376
    1UNL     H3   57   0.164   0.058   0.207
    1UNL     H4   58   0.157  -0.332   0.268
    1UNL     H5   59   0.314  -0.307   0.296
    1UNL     H6   60   0.414  -0.535   0.113
    1UNL     H7   61   0.486  -0.122  -0.041
    1UNL     H8   62   0.167  -0.094  -0.238
    1UNL     H9   63   0.304  -0.193  -0.287
    1UNL    H10   64   0.286   0.358  -0.323
    1UNL    H11   65   0.425   0.566  -0.239
    1UNL    H12   66   0.567   0.634  -0.073
    1UNL    H13   67   0.595   0.321   0.054
    1UNL    H14   68   0.457   0.114  -0.031
    1UNL    H15   69   0.227  -0.415  -0.119
    1UNL    H16   70   0.031  -0.280  -0.111
    1UNL    H17   71   0.025  -0.333   0.063
    1UNL    H18   72  -0.071  -0.073  -0.124
    1UNL    H19   73  -0.243  -0.185  -0.030
    1UNL    H20   74  -0.312  -0.099   0.255
    1UNL    H21   75  -0.412  -0.216   0.161
    1UNL    H22   76   0.046  -0.183   0.508
    1UNL    H23   77   0.190  -0.378   0.626
    1UNL    H24   78   0.188  -0.600   0.534
    1UNL    H25   79   0.027  -0.653   0.346
    1UNL    H26   80  -0.159  -0.493   0.302
    1UNL    H27   81  -0.426   0.021   0.040
    1UNL    H28   82  -0.517   0.096  -0.159
    1UNL    H29   83  -0.535   0.299  -0.257
    1UNL    H30   84  -0.554   0.447  -0.067
    1UNL    H31   85  -0.539   0.537  -0.207
    1UNL    H32   86  -0.296   0.524  -0.158
    1UNL    H33   87  -0.392   0.411  -0.415
    1UNL    H34   88  -0.172   0.358  -0.245
    1UNL    H35   89  -0.331   0.213  -0.517
    1UNL    H36   90  -0.153   0.165  -0.302
    1UNL    H37   91  -0.367  -0.008  -0.369
    1UNL    H38   92  -0.537   0.091  -0.503
    1UNL    H39   93  -0.272   0.237   0.023
    1UNL    H40   94  -0.192   0.046   0.221
    1UNL    H41   95  -0.012   0.178   0.056
    1UNL    H42   96   0.020   0.179  -0.171
   0.00000   0.00000   0.00000   0.00000   0.00000   0.00000   0.00000   0.00000   0.00000
Generated with MDTraj, t= 22.0
 96
    1UNL     C1    1   0.167  -0.037   0.247
    1UNL     C2    2   0.235  -0.137   0.153
    1UNL     C3    3   0.249  -0.283   0.204
    1UNL     C4    4   0.311  -0.363   0.085
    1UNL     O1    5   0.302  -0.497   0.121
    1UNL     O2    6   0.440  -0.317   0.052
    1UNL     C5    7   0.421  -0.183   0.014
    1UNL     O3    8   0.377  -0.101   0.124
    1UNL     C6    9   0.285  -0.194  -0.078
    1UNL     C7   10   0.285  -0.133  -0.220
    1UNL     O4   11   0.359  -0.011  -0.223
    1UNL     C8   12   0.283   0.102  -0.208
    1UNL     O5   13   0.167   0.109  -0.244
    1UNL     C9   14   0.352   0.217  -0.153
    1UNL    C10   15   0.331   0.340  -0.217
    1UNL    C11   16   0.416   0.442  -0.179
    1UNL    C12   17   0.515   0.440  -0.078
    1UNL     O6   18   0.600   0.549  -0.056
    1UNL    C13   19   0.523   0.320  -0.010
    1UNL    C14   20   0.442   0.221  -0.041
    1UNL    C15   21   0.226  -0.336  -0.048
    1UNL    C16   22   0.085  -0.274  -0.025
    1UNL    C17   23   0.162  -0.139   0.009
    1UNL     O7   24   0.110  -0.012  -0.023
    1UNL    C18   25  -0.033  -0.016  -0.023
    1UNL     O8   26  -0.093  -0.105   0.068
    1UNL    C19   27  -0.236  -0.117   0.045
    1UNL    C20   28  -0.298  -0.175   0.175
    1UNL     O9   29  -0.229  -0.287   0.222
    1UNL    C21   30  -0.133  -0.236   0.305
    1UNL    O10   31  -0.116  -0.121   0.331
    1UNL    C22   32  -0.049  -0.326   0.385
    1UNL    C23   33   0.041  -0.285   0.479
    1UNL    C24   34   0.106  -0.376   0.563
    1UNL    C25   35   0.082  -0.517   0.548
    1UNL    C26   36  -0.005  -0.556   0.449
    1UNL    C27   37  -0.077  -0.465   0.377
    1UNL    C28   38  -0.300   0.018  -0.000
    1UNL    O11   39  -0.310   0.021  -0.144
    1UNL    C29   40  -0.414   0.104  -0.195
    1UNL    O12   41  -0.421   0.234  -0.138
    1UNL    C30   42  -0.459   0.331  -0.240
    1UNL    C31   43  -0.477   0.469  -0.172
    1UNL    O13   44  -0.361   0.507  -0.097
    1UNL    C32   45  -0.351   0.353  -0.348
    1UNL    O14   46  -0.225   0.392  -0.288
    1UNL    C33   47  -0.331   0.214  -0.413
    1UNL    O15   48  -0.197   0.174  -0.405
    1UNL    C34   49  -0.419   0.103  -0.351
    1UNL    O16   50  -0.556   0.111  -0.386
    1UNL    C35   51  -0.226   0.132   0.064
    1UNL    O17   52  -0.227   0.137   0.204
    1UNL    C36   53  -0.087   0.126   0.001
    1UNL    O18   54  -0.077   0.196  -0.124
    1UNL     H1   55   0.069  -0.060   0.282
    1UNL     H2   56   0.220  -0.036   0.350
    1UNL     H3   57   0.158   0.059   0.190
    1UNL     H4   58   0.154  -0.319   0.232
    1UNL     H5   59   0.297  -0.283   0.295
    1UNL     H6   60   0.367  -0.548   0.063
    1UNL     H7   61   0.522  -0.142  -0.032
    1UNL     H8   62   0.186  -0.118  -0.261
    1UNL     H9   63   0.338  -0.192  -0.297
    1UNL    H10   64   0.257   0.359  -0.298
    1UNL    H11   65   0.408   0.532  -0.237
    1UNL    H12   66   0.571   0.626  -0.107
    1UNL    H13   67   0.574   0.318   0.088
    1UNL    H14   68   0.452   0.126   0.021
    1UNL    H15   69   0.238  -0.406  -0.132
    1UNL    H16   70   0.030  -0.246  -0.110
    1UNL    H17   71   0.019  -0.314   0.055
    1UNL    H18   72  -0.058  -0.048  -0.123
    1UNL    H19   73  -0.233  -0.189  -0.033
    1UNL    H20   74  -0.298  -0.097   0.253
    1UNL    H21   75  -0.402  -0.208   0.152
    1UNL    H22   76   0.056  -0.180   0.484
    1UNL    H23   77   0.171  -0.322   0.636
    1UNL    H24   78   0.132  -0.589   0.610
    1UNL    H25   79  -0.034  -0.655   0.444
    1UNL    H26   80  -0.150  -0.497   0.311
    1UNL    H27   81  -0.402   0.001   0.051
    1UNL    H28   82  -0.510   0.072  -0.153
    1UNL    H29   83  -0.557   0.297  -0.278
    1UNL    H30   84  -0.563   0.468  -0.099
    1UNL    H31   85  -0.516   0.545  -0.243
    1UNL    H32   86  -0.283   0.473  -0.141
    1UNL    H33   87  -0.386   0.434  -0.416
    1UNL    H34   88  -0.178   0.325  -0.230
    1UNL    H35   89  -0.360   0.232  -0.513
    1UNL    H36   90  -0.170   0.147  -0.313
    1UNL    H37   91  -0.381  -0.001  -0.382
    1UNL    H38   92  -0.566   0.130  -0.486
    1UNL    H39   93  -0.282   0.225   0.038
    1UNL    H40   94  -0.193   0.056   0.242
    1UNL    H41   95  -0.024   0.185   0.069
    1UNL    H42   96   0.011   0.164  -0.169
   0.00000   0.00000   0.00000   0.00000   0.00000   0.00000   0.00000   0.00000   0.00000
Generated with MDTraj, t= 23.0
 96
    1UNL     C1    1   0.180  -0.052   0.261
    1UNL     C2    2   0.245  -0.146   0.161
    1UNL     C3    3   0.242  -0.301   0.191
    1UNL     C4    4   0.303  -0.375   0.070
    1UNL     O1    5   0.305  -0.516   0.090
    1UNL     O2    6   0.435  -0.318   0.040
    1UNL     C5    7   0.413  -0.173   0.012
    1UNL     O3    8   0.383  -0.105   0.135
    1UNL     C6    9   0.290  -0.176  -0.081
    1UNL     C7   10   0.306  -0.135  -0.225
    1UNL     O4   11   0.373  -0.014  -0.220
    1UNL     C8   12   0.292   0.100  -0.229
    1UNL     O5   13   0.179   0.096  -0.269
    1UNL     C9   14   0.351   0.223  -0.170
    1UNL    C10   15   0.338   0.347  -0.228
    1UNL    C11   16   0.414   0.454  -0.178
    1UNL    C12   17   0.497   0.442  -0.067
    1UNL     O6   18   0.575   0.547  -0.023
    1UNL    C13   19   0.511   0.309  -0.016
    1UNL    C14   20   0.437   0.202  -0.060
    1UNL    C15   21   0.221  -0.318  -0.061
    1UNL    C16   22   0.088  -0.254  -0.029
    1UNL    C17   23   0.172  -0.125   0.012
    1UNL     O7   24   0.118   0.006  -0.019
    1UNL    C18   25  -0.024   0.001  -0.024
    1UNL     O8   26  -0.084  -0.086   0.069
    1UNL    C19   27  -0.224  -0.123   0.040
    1UNL    C20   28  -0.291  -0.178   0.160
    1UNL     O9   29  -0.217  -0.287   0.213
    1UNL    C21   30  -0.137  -0.229   0.307
    1UNL    O10   31  -0.124  -0.110   0.325
    1UNL    C22   32  -0.064  -0.327   0.401
    1UNL    C23   33   0.024  -0.283   0.494
    1UNL    C24   34   0.091  -0.369   0.579
    1UNL    C25   35   0.075  -0.508   0.558
    1UNL    C26   36  -0.024  -0.549   0.474
    1UNL    C27   37  -0.097  -0.459   0.398
    1UNL    C28   38  -0.301   0.012  -0.005
    1UNL    O11   39  -0.315   0.004  -0.142
    1UNL    C29   40  -0.420   0.089  -0.188
    1UNL    O12   41  -0.412   0.230  -0.135
    1UNL    C30   42  -0.451   0.331  -0.220
    1UNL    C31   43  -0.486   0.460  -0.148
    1UNL    O13   44  -0.378   0.510  -0.081
    1UNL    C32   45  -0.339   0.346  -0.327
    1UNL    O14   46  -0.209   0.391  -0.281
    1UNL    C33   47  -0.330   0.203  -0.396
    1UNL    O15   48  -0.197   0.143  -0.396
    1UNL    C34   49  -0.432   0.095  -0.344
    1UNL    O16   50  -0.566   0.113  -0.389
    1UNL    C35   51  -0.224   0.141   0.047
    1UNL    O17   52  -0.218   0.147   0.184
    1UNL    C36   53  -0.080   0.146  -0.010
    1UNL    O18   54  -0.069   0.202  -0.141
    1UNL     H1   55   0.080  -0.082   0.287
    1UNL     H2   56   0.232  -0.052   0.361
    1UNL     H3   57   0.166   0.052   0.219
    1UNL     H4   58   0.149  -0.329   0.225
    1UNL     H5   59   0.299  -0.299   0.277
    1UNL     H6   60   0.353  -0.559   0.016
    1UNL     H7   61   0.506  -0.132  -0.047
    1UNL     H8   62   0.219  -0.133  -0.286
    1UNL     H9   63   0.374  -0.205  -0.274
    1UNL    H10   64   0.280   0.360  -0.313
    1UNL    H11   65   0.422   0.549  -0.228
    1UNL    H12   66   0.556   0.624  -0.081
    1UNL    H13   67   0.586   0.302   0.056
    1UNL    H14   68   0.415   0.112  -0.013
    1UNL    H15   69   0.220  -0.391  -0.144
    1UNL    H16   70   0.025  -0.249  -0.115
    1UNL    H17   71   0.034  -0.309   0.052
    1UNL    H18   72  -0.038  -0.041  -0.121
    1UNL    H19   73  -0.212  -0.185  -0.045
    1UNL    H20   74  -0.298  -0.100   0.236
    1UNL    H21   75  -0.399  -0.200   0.130
    1UNL    H22   76   0.026  -0.172   0.486
    1UNL    H23   77   0.170  -0.334   0.641
    1UNL    H24   78   0.121  -0.571   0.634
    1UNL    H25   79  -0.058  -0.656   0.478
    1UNL    H26   80  -0.157  -0.499   0.311
    1UNL    H27   81  -0.406   0.008   0.040
    1UNL    H28   82  -0.515   0.062  -0.141
    1UNL    H29   83  -0.543   0.290  -0.270
    1UNL    H30   84  -0.580   0.463  -0.087
    1UNL    H31   85  -0.505   0.537  -0.225
    1UNL    H32   86  -0.294   0.489  -0.136
    1UNL    H33   87  -0.375   0.416  -0.405
    1UNL    H34   88  -0.167   0.318  -0.230
    1UNL    H35   89  -0.351   0.222  -0.497
    1UNL    H36   90  -0.159   0.160  -0.306
    1UNL    H37   91  -0.394  -0.009  -0.382
    1UNL    H38   92  -0.568   0.133  -0.490
    1UNL    H39   93  -0.284   0.230   0.016
    1UNL    H40   94  -0.173   0.067   0.214
    1UNL    H41   95  -0.006   0.196   0.053
    1UNL    H42   96   0.010   0.165  -0.190
   0.00000   0.00000   0.00000   0.00000   0.00000   0.00000   0.00000   0.00000   0.00000
Generated with MDTraj, t= 24.0
 96
    1UNL     C1    1   0.177  -0.064   0.252
    1UNL     C2    2   0.237  -0.162   0.151
    1UNL     C3    3   0.250  -0.316   0.184
    1UNL     C4    4   0.313  -0.390   0.062
    1UNL     O1    5   0.310  -0.529   0.089
    1UNL     O2    6   0.445  -0.331   0.040
    1UNL     C5    7   0.421  -0.195   0.010
    1UNL     O3    8   0.373  -0.123   0.120
    1UNL     C6    9   0.290  -0.204  -0.085
    1UNL     C7   10   0.299  -0.129  -0.225
    1UNL     O4   11   0.366  -0.004  -0.219
    1UNL     C8   12   0.299   0.114  -0.247
    1UNL     O5   13   0.188   0.120  -0.296
    1UNL     C9   14   0.380   0.229  -0.190
    1UNL    C10   15   0.358   0.360  -0.237
    1UNL    C11   16   0.402   0.470  -0.178
    1UNL    C12   17   0.474   0.453  -0.059
    1UNL     O6   18   0.533   0.562   0.012
    1UNL    C13   19   0.501   0.320  -0.010
    1UNL    C14   20   0.450   0.209  -0.073
    1UNL    C15   21   0.228  -0.346  -0.065
    1UNL    C16   22   0.087  -0.271  -0.040
    1UNL    C17   23   0.175  -0.153   0.005
    1UNL     O7   24   0.127  -0.018  -0.032
    1UNL    C18   25  -0.013  -0.011  -0.024
    1UNL     O8   26  -0.075  -0.087   0.081
    1UNL    C19   27  -0.213  -0.117   0.047
    1UNL    C20   28  -0.293  -0.171   0.164
    1UNL     O9   29  -0.211  -0.275   0.223
    1UNL    C21   30  -0.143  -0.213   0.333
    1UNL    O10   31  -0.165  -0.095   0.357
    1UNL    C22   32  -0.070  -0.314   0.421
    1UNL    C23   33   0.016  -0.276   0.524
    1UNL    C24   34   0.082  -0.370   0.597
    1UNL    C25   35   0.061  -0.504   0.572
    1UNL    C26   36  -0.033  -0.546   0.478
    1UNL    C27   37  -0.091  -0.448   0.394
    1UNL    C28   38  -0.283   0.017  -0.020
    1UNL    O11   39  -0.301   0.016  -0.156
    1UNL    C29   40  -0.412   0.090  -0.191
    1UNL    O12   41  -0.416   0.223  -0.129
    1UNL    C30   42  -0.462   0.325  -0.216
    1UNL    C31   43  -0.475   0.458  -0.135
    1UNL    O13   44  -0.356   0.499  -0.074
    1UNL    C32   45  -0.368   0.341  -0.338
    1UNL    O14   46  -0.247   0.418  -0.311
    1UNL    C33   47  -0.340   0.202  -0.399
    1UNL    O15   48  -0.208   0.165  -0.361
    1UNL    C34   49  -0.433   0.093  -0.348
    1UNL    O16   50  -0.564   0.110  -0.395
    1UNL    C35   51  -0.202   0.141   0.034
    1UNL    O17   52  -0.194   0.158   0.180
    1UNL    C36   53  -0.062   0.133  -0.023
    1UNL    O18   54  -0.055   0.201  -0.151
    1UNL     H1   55   0.067  -0.075   0.249
    1UNL     H2   56   0.215  -0.085   0.352
    1UNL     H3   57   0.194   0.046   0.237
    1UNL     H4   58   0.158  -0.360   0.208
    1UNL     H5   59   0.312  -0.320   0.267
    1UNL     H6   60   0.358  -0.587   0.031
    1UNL     H7   61   0.515  -0.144  -0.038
    1UNL     H8   62   0.206  -0.107  -0.270
    1UNL     H9   63   0.350  -0.190  -0.300
    1UNL    H10   64   0.293   0.371  -0.328
    1UNL    H11   65   0.379   0.568  -0.216
    1UNL    H12   66   0.514   0.641  -0.046
    1UNL    H13   67   0.560   0.300   0.084
    1UNL    H14   68   0.443   0.109  -0.024
    1UNL    H15   69   0.236  -0.403  -0.160
    1UNL    H16   70   0.031  -0.256  -0.133
    1UNL    H17   71   0.022  -0.296   0.046
    1UNL    H18   72  -0.044  -0.048  -0.119
    1UNL    H19   73  -0.204  -0.195  -0.028
    1UNL    H20   74  -0.316  -0.096   0.238
    1UNL    H21   75  -0.386  -0.229   0.129
    1UNL    H22   76   0.039  -0.173   0.527
    1UNL    H23   77   0.140  -0.336   0.683
    1UNL    H24   78   0.105  -0.573   0.641
    1UNL    H25   79  -0.056  -0.649   0.457
    1UNL    H26   80  -0.152  -0.494   0.325
    1UNL    H27   81  -0.382   0.026   0.029
    1UNL    H28   82  -0.501   0.038  -0.150
    1UNL    H29   83  -0.561   0.284  -0.251
    1UNL    H30   84  -0.536   0.427  -0.047
    1UNL    H31   85  -0.528   0.543  -0.179
    1UNL    H32   86  -0.281   0.478  -0.134
    1UNL    H33   87  -0.420   0.393  -0.419
    1UNL    H34   88  -0.184   0.350  -0.267
    1UNL    H35   89  -0.332   0.216  -0.504
    1UNL    H36   90  -0.205   0.155  -0.266
    1UNL    H37   91  -0.389  -0.008  -0.386
    1UNL    H38   92  -0.571   0.139  -0.490
    1UNL    H39   93  -0.251   0.239   0.007
    1UNL    H40   94  -0.180   0.069   0.226
    1UNL    H41   95   0.001   0.198   0.036
    1UNL    H42   96   0.029   0.179  -0.191
   0.00000   0.00000   0.00000   0.00000   0.00000   0.00000   0.00000   0.00000   0.00000
Generated with MDTraj, t= 25.0
 96
    1UNL     C1    1   0.168  -0.085   0.239
    1UNL     C2    2   0.233  -0.169   0.139
    1UNL     C3    3   0.245  -0.322   0.177
    1UNL     C4    4   0.305  -0.394   0.046
    1UNL     O1    5   0.303  -0.538   0.059
    1UNL     O2    6   0.435  -0.340   0.030
    1UNL     C5    7   0.419  -0.202  -0.003
    1UNL     O3    8   0.379  -0.133   0.120
    1UNL     C6    9   0.297  -0.195  -0.099
    1UNL     C7   10   0.321  -0.132  -0.235
    1UNL     O4   11   0.389  -0.012  -0.202
    1UNL     C8   12   0.311   0.104  -0.221
    1UNL     O5   13   0.210   0.110  -0.288
    1UNL     C9   14   0.373   0.224  -0.167
    1UNL    C10   15   0.336   0.339  -0.226
    1UNL    C11   16   0.369   0.453  -0.162
    1UNL    C12   17   0.451   0.461  -0.045
    1UNL     O6   18   0.501   0.583  -0.001
    1UNL    C13   19   0.494   0.343   0.009
    1UNL    C14   20   0.450   0.225  -0.056
    1UNL    C15   21   0.233  -0.346  -0.085
    1UNL    C16   22   0.104  -0.280  -0.068
    1UNL    C17   23   0.175  -0.158  -0.008
    1UNL     O7   24   0.120  -0.027  -0.042
    1UNL    C18   25  -0.021  -0.026  -0.040
    1UNL     O8   26  -0.082  -0.099   0.068
    1UNL    C19   27  -0.218  -0.108   0.050
    1UNL    C20   28  -0.295  -0.147   0.176
    1UNL     O9   29  -0.235  -0.260   0.242
    1UNL    C21   30  -0.137  -0.205   0.329
    1UNL    O10   31  -0.127  -0.085   0.339
    1UNL    C22   32  -0.081  -0.303   0.429
    1UNL    C23   33  -0.016  -0.261   0.543
    1UNL    C24   34   0.064  -0.355   0.611
    1UNL    C25   35   0.054  -0.487   0.581
    1UNL    C26   36  -0.011  -0.535   0.472
    1UNL    C27   37  -0.079  -0.440   0.393
    1UNL    C28   38  -0.283   0.023  -0.008
    1UNL    O11   39  -0.296   0.018  -0.142
    1UNL    C29   40  -0.405   0.096  -0.181
    1UNL    O12   41  -0.407   0.229  -0.126
    1UNL    C30   42  -0.453   0.326  -0.208
    1UNL    C31   43  -0.478   0.455  -0.133
    1UNL    O13   44  -0.364   0.498  -0.069
    1UNL    C32   45  -0.359   0.343  -0.329
    1UNL    O14   46  -0.238   0.398  -0.290
    1UNL    C33   47  -0.334   0.203  -0.402
    1UNL    O15   48  -0.200   0.159  -0.401
    1UNL    C34   49  -0.428   0.094  -0.336
    1UNL    O16   50  -0.563   0.111  -0.376
    1UNL    C35   51  -0.199   0.143   0.029
    1UNL    O17   52  -0.180   0.165   0.168
    1UNL    C36   53  -0.057   0.127  -0.029
    1UNL    O18   54  -0.047   0.191  -0.151
    1UNL     H1   55   0.053  -0.100   0.242
    1UNL     H2   56   0.228  -0.081   0.329
    1UNL     H3   57   0.179   0.021   0.206
    1UNL     H4   58   0.155  -0.369   0.204
    1UNL     H5   59   0.319  -0.328   0.251
    1UNL     H6   60   0.342  -0.573   0.136
    1UNL     H7   61   0.515  -0.153  -0.050
    1UNL     H8   62   0.227  -0.121  -0.287
    1UNL     H9   63   0.389  -0.193  -0.297
    1UNL    H10   64   0.273   0.330  -0.307
    1UNL    H11   65   0.350   0.553  -0.202
    1UNL    H12   66   0.465   0.655  -0.062
    1UNL    H13   67   0.550   0.329   0.093
    1UNL    H14   68   0.482   0.134  -0.017
    1UNL    H15   69   0.242  -0.412  -0.173
    1UNL    H16   70   0.044  -0.273  -0.163
    1UNL    H17   71   0.049  -0.334   0.011
    1UNL    H18   72  -0.051  -0.066  -0.133
    1UNL    H19   73  -0.241  -0.192  -0.021
    1UNL    H20   74  -0.298  -0.070   0.250
    1UNL    H21   75  -0.408  -0.169   0.155
    1UNL    H22   76  -0.007  -0.153   0.568
    1UNL    H23   77   0.106  -0.319   0.702
    1UNL    H24   78   0.117  -0.554   0.642
    1UNL    H25   79  -0.011  -0.641   0.461
    1UNL    H26   80  -0.128  -0.473   0.295
    1UNL    H27   81  -0.378   0.036   0.042
    1UNL    H28   82  -0.495   0.040  -0.143
    1UNL    H29   83  -0.554   0.288  -0.247
    1UNL    H30   84  -0.559   0.456  -0.059
    1UNL    H31   85  -0.506   0.525  -0.210
    1UNL    H32   86  -0.295   0.478  -0.130
    1UNL    H33   87  -0.419   0.414  -0.387
    1UNL    H34   88  -0.168   0.330  -0.257
    1UNL    H35   89  -0.364   0.226  -0.504
    1UNL    H36   90  -0.187   0.105  -0.320
    1UNL    H37   91  -0.401  -0.008  -0.382
    1UNL    H38   92  -0.577   0.129  -0.468
    1UNL    H39   93  -0.257   0.235  -0.005
    1UNL    H40   94  -0.153   0.075   0.205
    1UNL    H41   95   0.019   0.171   0.037
    1UNL    H42   96   0.040   0.174  -0.197
   0.00000   0.00000   0.00000   0.00000   0.00000   0.00000   0.00000   0.00000   0.00000
Generated with MDTraj, t= 26.0
 96
    1UNL     C1    1   0.157  -0.100   0.226
    1UNL     C2    2   0.232  -0.187   0.130
    1UNL     C3    3   0.226  -0.341   0.151
    1UNL     C4    4   0.298  -0.411   0.033
    1UNL     O1    5   0.296  -0.548   0.043
    1UNL     O2    6   0.437  -0.360   0.039
    1UNL     C5    7   0.430  -0.218   0.013
    1UNL     O3    8   0.371  -0.154   0.124
    1UNL     C6    9   0.311  -0.213  -0.099
    1UNL     C7   10   0.359  -0.131  -0.221
    1UNL     O4   11   0.401  -0.002  -0.197
    1UNL     C8   12   0.299   0.094  -0.209
    1UNL     O5   13   0.198   0.082  -0.275
    1UNL     C9   14   0.344   0.227  -0.156
    1UNL    C10   15   0.296   0.347  -0.205
    1UNL    C11   16   0.338   0.467  -0.149
    1UNL    C12   17   0.434   0.472  -0.049
    1UNL     O6   18   0.477   0.593   0.001
    1UNL    C13   19   0.479   0.349   0.004
    1UNL    C14   20   0.440   0.229  -0.054
    1UNL    C15   21   0.245  -0.355  -0.104
    1UNL    C16   22   0.104  -0.278  -0.094
    1UNL    C17   23   0.184  -0.166  -0.015
    1UNL     O7   24   0.127  -0.037  -0.039
    1UNL    C18   25  -0.015  -0.030  -0.036
    1UNL     O8   26  -0.080  -0.094   0.071
    1UNL    C19   27  -0.222  -0.110   0.050
    1UNL    C20   28  -0.292  -0.133   0.191
    1UNL     O9   29  -0.223  -0.237   0.245
    1UNL    C21   30  -0.128  -0.189   0.325
    1UNL    O10   31  -0.109  -0.074   0.347
    1UNL    C22   32  -0.058  -0.287   0.420
    1UNL    C23   33  -0.011  -0.249   0.544
    1UNL    C24   34   0.042  -0.344   0.628
    1UNL    C25   35   0.053  -0.471   0.591
    1UNL    C26   36   0.005  -0.509   0.466
    1UNL    C27   37  -0.046  -0.419   0.381
    1UNL    C28   38  -0.291   0.025  -0.003
    1UNL    O11   39  -0.317   0.018  -0.138
    1UNL    C29   40  -0.421   0.102  -0.182
    1UNL    O12   41  -0.423   0.234  -0.117
    1UNL    C30   42  -0.458   0.334  -0.211
    1UNL    C31   43  -0.475   0.475  -0.149
    1UNL    O13   44  -0.356   0.510  -0.079
    1UNL    C32   45  -0.337   0.343  -0.318
    1UNL    O14   46  -0.214   0.369  -0.251
    1UNL    C33   47  -0.324   0.203  -0.396
    1UNL    O15   48  -0.199   0.147  -0.428
    1UNL    C34   49  -0.424   0.099  -0.339
    1UNL    O16   50  -0.552   0.126  -0.383
    1UNL    C35   51  -0.193   0.142   0.035
    1UNL    O17   52  -0.177   0.156   0.174
    1UNL    C36   53  -0.054   0.120  -0.039
    1UNL    O18   54  -0.049   0.179  -0.169
    1UNL     H1   55   0.049  -0.127   0.201
    1UNL     H2   56   0.199  -0.100   0.325
    1UNL     H3   57   0.162   0.008   0.196
    1UNL     H4   58   0.123  -0.370   0.145
    1UNL     H5   59   0.282  -0.368   0.239
    1UNL     H6   60   0.342  -0.581  -0.032
    1UNL     H7   61   0.531  -0.166  -0.017
    1UNL     H8   62   0.288  -0.135  -0.305
    1UNL     H9   63   0.449  -0.189  -0.255
    1UNL    H10   64   0.221   0.355  -0.289
    1UNL    H11   65   0.293   0.554  -0.187
    1UNL    H12   66   0.424   0.667  -0.041
    1UNL    H13   67   0.556   0.350   0.087
    1UNL    H14   68   0.479   0.133  -0.012
    1UNL    H15   69   0.275  -0.409  -0.195
    1UNL    H16   70   0.066  -0.248  -0.198
    1UNL    H17   71   0.025  -0.330  -0.041
    1UNL    H18   72  -0.053  -0.067  -0.129
    1UNL    H19   73  -0.253  -0.198  -0.015
    1UNL    H20   74  -0.288  -0.048   0.255
    1UNL    H21   75  -0.407  -0.158   0.195
    1UNL    H22   76  -0.030  -0.158   0.595
    1UNL    H23   77   0.091  -0.313   0.721
    1UNL    H24   78   0.078  -0.540   0.669
    1UNL    H25   79   0.010  -0.618   0.441
    1UNL    H26   80  -0.063  -0.434   0.281
    1UNL    H27   81  -0.383   0.050   0.044
    1UNL    H28   82  -0.504   0.035  -0.142
    1UNL    H29   83  -0.554   0.285  -0.258
    1UNL    H30   84  -0.553   0.461  -0.073
    1UNL    H31   85  -0.508   0.558  -0.209
    1UNL    H32   86  -0.280   0.465  -0.127
    1UNL    H33   87  -0.357   0.422  -0.391
    1UNL    H34   88  -0.177   0.293  -0.209
    1UNL    H35   89  -0.364   0.215  -0.500
    1UNL    H36   90  -0.141   0.162  -0.349
    1UNL    H37   91  -0.385   0.003  -0.386
    1UNL    H38   92  -0.553   0.118  -0.477
    1UNL    H39   93  -0.244   0.233  -0.006
    1UNL    H40   94  -0.148   0.072   0.211
    1UNL    H41   95   0.031   0.168   0.013
    1UNL    H42   96   0.040   0.143  -0.206
   0.00000   0.00000   0.00000   0.00000   0.00000   0.00000   0.00000   0.00000   0.00000
Generated with MDTraj, t= 27.0
 96
    1UNL     C1    1   0.149  -0.139   0.248
    1UNL     C2    2   0.224  -0.214   0.132
    1UNL     C3    3   0.218  -0.371   0.145
    1UNL     C4    4   0.297  -0.427   0.024
    1UNL     O1    5   0.295  -0.573   0.019
    1UNL     O2    6   0.430  -0.375   0.029
    1UNL     C5    7   0.414  -0.231   0.009
    1UNL     O3    8   0.362  -0.180   0.133
    1UNL     C6    9   0.304  -0.216  -0.101
    1UNL     C7   10   0.345  -0.135  -0.222
    1UNL     O4   11   0.386  -0.007  -0.189
    1UNL     C8   12   0.303   0.098  -0.222
    1UNL     O5   13   0.213   0.086  -0.300
    1UNL     C9   14   0.341   0.233  -0.161
    1UNL    C10   15   0.267   0.347  -0.188
    1UNL    C11   16   0.300   0.476  -0.133
    1UNL    C12   17   0.401   0.482  -0.046
    1UNL     O6   18   0.433   0.608   0.007
    1UNL    C13   19   0.465   0.362  -0.006
    1UNL    C14   20   0.440   0.238  -0.061
    1UNL    C15   21   0.241  -0.360  -0.110
    1UNL    C16   22   0.105  -0.286  -0.087
    1UNL    C17   23   0.177  -0.174  -0.012
    1UNL     O7   24   0.137  -0.043  -0.021
    1UNL    C18   25  -0.003  -0.031  -0.032
    1UNL     O8   26  -0.076  -0.097   0.073
    1UNL    C19   27  -0.210  -0.103   0.050
    1UNL    C20   28  -0.285  -0.148   0.180
    1UNL     O9   29  -0.219  -0.244   0.250
    1UNL    C21   30  -0.140  -0.186   0.349
    1UNL    O10   31  -0.129  -0.068   0.362
    1UNL    C22   32  -0.069  -0.276   0.438
    1UNL    C23   33  -0.017  -0.249   0.571
    1UNL    C24   34   0.060  -0.337   0.638
    1UNL    C25   35   0.084  -0.459   0.595
    1UNL    C26   36   0.033  -0.495   0.472
    1UNL    C27   37  -0.040  -0.403   0.395
    1UNL    C28   38  -0.268   0.026  -0.012
    1UNL    O11   39  -0.296   0.019  -0.151
    1UNL    C29   40  -0.405   0.112  -0.183
    1UNL    O12   41  -0.411   0.248  -0.125
    1UNL    C30   42  -0.442   0.347  -0.215
    1UNL    C31   43  -0.468   0.470  -0.136
    1UNL    O13   44  -0.351   0.518  -0.079
    1UNL    C32   45  -0.338   0.355  -0.330
    1UNL    O14   46  -0.214   0.400  -0.280
    1UNL    C33   47  -0.326   0.217  -0.408
    1UNL    O15   48  -0.198   0.163  -0.425
    1UNL    C34   49  -0.412   0.107  -0.337
    1UNL    O16   50  -0.540   0.118  -0.378
    1UNL    C35   51  -0.182   0.149   0.019
    1UNL    O17   52  -0.175   0.172   0.157
    1UNL    C36   53  -0.040   0.122  -0.041
    1UNL    O18   54  -0.035   0.163  -0.172
    1UNL     H1   55   0.050  -0.117   0.216
    1UNL     H2   56   0.175  -0.192   0.340
    1UNL     H3   57   0.196  -0.039   0.273
    1UNL     H4   58   0.119  -0.418   0.132
    1UNL     H5   59   0.273  -0.394   0.238
    1UNL     H6   60   0.365  -0.605   0.079
    1UNL     H7   61   0.512  -0.177  -0.029
    1UNL     H8   62   0.251  -0.127  -0.279
    1UNL     H9   63   0.418  -0.194  -0.284
    1UNL    H10   64   0.186   0.348  -0.252
    1UNL    H11   65   0.227   0.558  -0.148
    1UNL    H12   66   0.380   0.684  -0.028
    1UNL    H13   67   0.535   0.381   0.069
    1UNL    H14   68   0.484   0.150  -0.028
    1UNL    H15   69   0.259  -0.419  -0.202
    1UNL    H16   70   0.049  -0.257  -0.181
    1UNL    H17   71   0.039  -0.347  -0.025
    1UNL    H18   72  -0.043  -0.067  -0.127
    1UNL    H19   73  -0.229  -0.186  -0.026
    1UNL    H20   74  -0.296  -0.063   0.241
    1UNL    H21   75  -0.390  -0.195   0.166
    1UNL    H22   76  -0.007  -0.146   0.606
    1UNL    H23   77   0.092  -0.321   0.738
    1UNL    H24   78   0.128  -0.542   0.650
    1UNL    H25   79   0.059  -0.586   0.433
    1UNL    H26   80  -0.066  -0.418   0.286
    1UNL    H27   81  -0.359   0.049   0.036
    1UNL    H28   82  -0.490   0.048  -0.146
    1UNL    H29   83  -0.537   0.299  -0.265
    1UNL    H30   84  -0.537   0.459  -0.049
    1UNL    H31   85  -0.517   0.536  -0.207
    1UNL    H32   86  -0.273   0.493  -0.138
    1UNL    H33   87  -0.365   0.436  -0.401
    1UNL    H34   88  -0.162   0.321  -0.238
    1UNL    H35   89  -0.365   0.220  -0.515
    1UNL    H36   90  -0.177   0.141  -0.332
    1UNL    H37   91  -0.379   0.010  -0.378
    1UNL    H38   92  -0.553   0.090  -0.474
    1UNL    H39   93  -0.237   0.236  -0.022
    1UNL    H40   94  -0.153   0.092   0.208
    1UNL    H41   95   0.038   0.170   0.022
    1UNL    H42   96   0.044   0.131  -0.224
   0.00000   0.00000   0.00000   0.00000   0.00000   0.00000   0.00000   0.00000   0.00000
Generated with MDTraj, t= 28.0
 96
    1UNL     C1    1   0.164  -0.155   0.246
    1UNL     C2    2   0.226  -0.228   0.136
    1UNL     C3    3   0.228  -0.378   0.143
    1UNL     C4    4   0.293  -0.437   0.013
    1UNL     O1    5   0.269  -0.581  -0.013
    1UNL     O2    6   0.433  -0.388   0.019
    1UNL     C5    7   0.419  -0.247   0.004
    1UNL     O3    8   0.372  -0.194   0.131
    1UNL     C6    9   0.302  -0.225  -0.098
    1UNL     C7   10   0.335  -0.130  -0.212
    1UNL     O4   11   0.373  -0.008  -0.165
    1UNL     C8   12   0.296   0.093  -0.215
    1UNL     O5   13   0.201   0.080  -0.289
    1UNL     C9   14   0.328   0.230  -0.159
    1UNL    C10   15   0.248   0.335  -0.200
    1UNL    C11   16   0.272   0.460  -0.136
    1UNL    C12   17   0.371   0.481  -0.034
    1UNL     O6   18   0.375   0.604   0.022
    1UNL    C13   19   0.463   0.381  -0.019
    1UNL    C14   20   0.439   0.260  -0.081
    1UNL    C15   21   0.236  -0.364  -0.116
    1UNL    C16   22   0.103  -0.292  -0.085
    1UNL    C17   23   0.175  -0.181  -0.009
    1UNL     O7   24   0.144  -0.046  -0.023
    1UNL    C18   25   0.002  -0.023  -0.019
    1UNL     O8   26  -0.078  -0.092   0.087
    1UNL    C19   27  -0.215  -0.103   0.056
    1UNL    C20   28  -0.296  -0.156   0.178
    1UNL     O9   29  -0.236  -0.252   0.250
    1UNL    C21   30  -0.153  -0.195   0.347
    1UNL    O10   31  -0.147  -0.074   0.356
    1UNL    C22   32  -0.083  -0.280   0.438
    1UNL    C23   33  -0.019  -0.223   0.554
    1UNL    C24   34   0.066  -0.299   0.627
    1UNL    C25   35   0.102  -0.429   0.594
    1UNL    C26   36   0.049  -0.480   0.480
    1UNL    C27   37  -0.039  -0.406   0.402
    1UNL    C28   38  -0.271   0.034   0.004
    1UNL    O11   39  -0.280   0.026  -0.139
    1UNL    C29   40  -0.377   0.110  -0.189
    1UNL    O12   41  -0.366   0.238  -0.139
    1UNL    C30   42  -0.434   0.345  -0.214
    1UNL    C31   43  -0.459   0.467  -0.120
    1UNL    O13   44  -0.332   0.513  -0.086
    1UNL    C32   45  -0.336   0.364  -0.342
    1UNL    O14   46  -0.210   0.411  -0.300
    1UNL    C33   47  -0.316   0.225  -0.413
    1UNL    O15   48  -0.185   0.176  -0.435
    1UNL    C34   49  -0.396   0.108  -0.344
    1UNL    O16   50  -0.532   0.114  -0.378
    1UNL    C35   51  -0.178   0.152   0.039
    1UNL    O17   52  -0.150   0.165   0.177
    1UNL    C36   53  -0.038   0.126  -0.033
    1UNL    O18   54  -0.036   0.176  -0.163
    1UNL     H1   55   0.059  -0.175   0.241
    1UNL     H2   56   0.223  -0.158   0.341
    1UNL     H3   57   0.168  -0.047   0.221
    1UNL     H4   58   0.122  -0.414   0.156
    1UNL     H5   59   0.299  -0.406   0.228
    1UNL     H6   60   0.358  -0.625  -0.011
    1UNL     H7   61   0.529  -0.203  -0.005
    1UNL     H8   62   0.248  -0.125  -0.277
    1UNL     H9   63   0.420  -0.171  -0.272
    1UNL    H10   64   0.155   0.316  -0.262
    1UNL    H11   65   0.215   0.542  -0.177
    1UNL    H12   66   0.295   0.654  -0.002
    1UNL    H13   67   0.556   0.401   0.035
    1UNL    H14   68   0.518   0.183  -0.066
    1UNL    H15   69   0.254  -0.416  -0.213
    1UNL    H16   70   0.039  -0.250  -0.165
    1UNL    H17   71   0.035  -0.342  -0.014
    1UNL    H18   72  -0.042  -0.070  -0.108
    1UNL    H19   73  -0.232  -0.181  -0.024
    1UNL    H20   74  -0.300  -0.073   0.244
    1UNL    H21   75  -0.403  -0.185   0.148
    1UNL    H22   76  -0.023  -0.120   0.590
    1UNL    H23   77   0.104  -0.274   0.726
    1UNL    H24   78   0.165  -0.491   0.653
    1UNL    H25   79   0.090  -0.577   0.436
    1UNL    H26   80  -0.076  -0.447   0.315
    1UNL    H27   81  -0.369   0.048   0.044
    1UNL    H28   82  -0.471   0.067  -0.153
    1UNL    H29   83  -0.539   0.296  -0.237
    1UNL    H30   84  -0.510   0.426  -0.029
    1UNL    H31   85  -0.529   0.547  -0.153
    1UNL    H32   86  -0.278   0.518  -0.164
    1UNL    H33   87  -0.375   0.455  -0.397
    1UNL    H34   88  -0.155   0.333  -0.272
    1UNL    H35   89  -0.347   0.238  -0.524
    1UNL    H36   90  -0.142   0.164  -0.347
    1UNL    H37   91  -0.357   0.020  -0.390
    1UNL    H38   92  -0.557   0.076  -0.471
    1UNL    H39   93  -0.214   0.245  -0.007
    1UNL    H40   94  -0.144   0.077   0.227
    1UNL    H41   95   0.037   0.179   0.031
    1UNL    H42   96   0.039   0.135  -0.205
   0.00000   0.00000   0.00000   0.00000   0.00000   0.00000   0.00000   0.00000   0.00000
Generated with MDTraj, t= 29.0
 96
    1UNL     C1    1   0.164  -0.164   0.248
    1UNL     C2    2   0.237  -0.227   0.134
    1UNL     C3    3   0.218  -0.388   0.132
    1UNL     C4    4   0.288  -0.440   0.007
    1UNL     O1    5   0.252  -0.579  -0.019
    1UNL     O2    6   0.427  -0.400   0.018
    1UNL     C5    7   0.421  -0.255   0.005
    1UNL     O3    8   0.370  -0.204   0.131
    1UNL     C6    9   0.308  -0.216  -0.099
    1UNL     C7   10   0.349  -0.137  -0.227
    1UNL     O4   11   0.384  -0.005  -0.197
    1UNL     C8   12   0.293   0.092  -0.228
    1UNL     O5   13   0.190   0.069  -0.289
    1UNL     C9   14   0.315   0.227  -0.167
    1UNL    C10   15   0.225   0.332  -0.189
    1UNL    C11   16   0.238   0.457  -0.133
    1UNL    C12   17   0.338   0.478  -0.038
    1UNL     O6   18   0.351   0.609   0.012
    1UNL    C13   19   0.429   0.380  -0.008
    1UNL    C14   20   0.410   0.253  -0.070
    1UNL    C15   21   0.236  -0.348  -0.124
    1UNL    C16   22   0.104  -0.274  -0.098
    1UNL    C17   23   0.183  -0.172  -0.008
    1UNL     O7   24   0.140  -0.041  -0.015
    1UNL    C18   25   0.002  -0.026  -0.018
    1UNL     O8   26  -0.067  -0.103   0.084
    1UNL    C19   27  -0.213  -0.115   0.054
    1UNL    C20   28  -0.292  -0.168   0.180
    1UNL     O9   29  -0.220  -0.258   0.251
    1UNL    C21   30  -0.146  -0.187   0.338
    1UNL    O10   31  -0.155  -0.066   0.352
    1UNL    C22   32  -0.061  -0.270   0.431
    1UNL    C23   33   0.002  -0.198   0.533
    1UNL    C24   34   0.077  -0.276   0.622
    1UNL    C25   35   0.095  -0.412   0.589
    1UNL    C26   36   0.042  -0.468   0.481
    1UNL    C27   37  -0.046  -0.404   0.406
    1UNL    C28   38  -0.276   0.015   0.000
    1UNL    O11   39  -0.296   0.011  -0.136
    1UNL    C29   40  -0.385   0.118  -0.178
    1UNL    O12   41  -0.374   0.253  -0.128
    1UNL    C30   42  -0.408   0.358  -0.220
    1UNL    C31   43  -0.428   0.489  -0.150
    1UNL    O13   44  -0.316   0.529  -0.087
    1UNL    C32   45  -0.294   0.360  -0.333
    1UNL    O14   46  -0.183   0.396  -0.263
    1UNL    C33   47  -0.293   0.223  -0.409
    1UNL    O15   48  -0.161   0.172  -0.412
    1UNL    C34   49  -0.384   0.106  -0.334
    1UNL    O16   50  -0.517   0.097  -0.385
    1UNL    C35   51  -0.189   0.138   0.048
    1UNL    O17   52  -0.177   0.168   0.192
    1UNL    C36   53  -0.046   0.123  -0.017
    1UNL    O18   54  -0.042   0.173  -0.146
    1UNL     H1   55   0.055  -0.178   0.233
    1UNL     H2   56   0.210  -0.203   0.342
    1UNL     H3   57   0.176  -0.057   0.265
    1UNL     H4   58   0.109  -0.421   0.148
    1UNL     H5   59   0.284  -0.432   0.215
    1UNL     H6   60   0.331  -0.625  -0.061
    1UNL     H7   61   0.526  -0.204  -0.015
    1UNL     H8   62   0.277  -0.131  -0.306
    1UNL     H9   63   0.438  -0.186  -0.272
    1UNL    H10   64   0.141   0.308  -0.242
    1UNL    H11   65   0.161   0.529  -0.146
    1UNL    H12   66   0.296   0.677  -0.026
    1UNL    H13   67   0.512   0.393   0.065
    1UNL    H14   68   0.479   0.179  -0.041
    1UNL    H15   69   0.252  -0.383  -0.227
    1UNL    H16   70   0.059  -0.225  -0.184
    1UNL    H17   71   0.029  -0.336  -0.044
    1UNL    H18   72  -0.040  -0.073  -0.110
    1UNL    H19   73  -0.209  -0.196  -0.020
    1UNL    H20   74  -0.308  -0.076   0.232
    1UNL    H21   75  -0.388  -0.221   0.147
    1UNL    H22   76  -0.031  -0.103   0.568
    1UNL    H23   77   0.123  -0.235   0.711
    1UNL    H24   78   0.164  -0.465   0.657
    1UNL    H25   79   0.049  -0.569   0.462
    1UNL    H26   80  -0.092  -0.431   0.307
    1UNL    H27   81  -0.375   0.015   0.046
    1UNL    H28   82  -0.480   0.082  -0.143
    1UNL    H29   83  -0.505   0.329  -0.283
    1UNL    H30   84  -0.511   0.484  -0.075
    1UNL    H31   85  -0.463   0.560  -0.228
    1UNL    H32   86  -0.239   0.490  -0.134
    1UNL    H33   87  -0.318   0.437  -0.415
    1UNL    H34   88  -0.154   0.326  -0.207
    1UNL    H35   89  -0.322   0.229  -0.522
    1UNL    H36   90  -0.118   0.172  -0.323
    1UNL    H37   91  -0.331   0.017  -0.354
    1UNL    H38   92  -0.524   0.060  -0.479
    1UNL    H39   93  -0.223   0.229   0.002
    1UNL    H40   94  -0.158   0.086   0.245
    1UNL    H41   95   0.024   0.177   0.050
    1UNL    H42   96   0.039   0.129  -0.194
   0.00000   0.00000   0.00000   0.00000   0.00000   0.00000   0.00000   0.00000   0.00000
Generated with MDTraj, t= 30.0
 96
    1UNL     C1    1   0.159  -0.149   0.238
    1UNL     C2    2   0.220  -0.225   0.120
    1UNL     C3    3   0.215  -0.372   0.121
    1UNL     C4    4   0.279  -0.437  -0.005
    1UNL     O1    5   0.274  -0.577  -0.023
    1UNL     O2    6   0.419  -0.392  -0.003
    1UNL     C5    7   0.409  -0.244  -0.005
    1UNL     O3    8   0.364  -0.189   0.119
    1UNL     C6    9   0.297  -0.216  -0.112
    1UNL     C7   10   0.355  -0.136  -0.226
    1UNL     O4   11   0.381  -0.004  -0.176
    1UNL     C8   12   0.277   0.078  -0.210
    1UNL     O5   13   0.178   0.048  -0.276
    1UNL     C9   14   0.292   0.221  -0.160
    1UNL    C10   15   0.218   0.330  -0.201
    1UNL    C11   16   0.225   0.456  -0.148
    1UNL    C12   17   0.317   0.482  -0.046
    1UNL     O6   18   0.331   0.606   0.011
    1UNL    C13   19   0.390   0.368   0.001
    1UNL    C14   20   0.386   0.238  -0.062
    1UNL    C15   21   0.221  -0.353  -0.132
    1UNL    C16   22   0.088  -0.276  -0.109
    1UNL    C17   23   0.173  -0.176  -0.022
    1UNL     O7   24   0.129  -0.042  -0.012
    1UNL    C18   25  -0.010  -0.029  -0.014
    1UNL     O8   26  -0.073  -0.112   0.083
    1UNL    C19   27  -0.218  -0.117   0.061
    1UNL    C20   28  -0.285  -0.171   0.189
    1UNL     O9   29  -0.206  -0.263   0.253
    1UNL    C21   30  -0.142  -0.196   0.353
    1UNL    O10   31  -0.155  -0.074   0.366
    1UNL    C22   32  -0.052  -0.274   0.440
    1UNL    C23   33   0.016  -0.202   0.536
    1UNL    C24   34   0.104  -0.267   0.623
    1UNL    C25   35   0.118  -0.404   0.599
    1UNL    C26   36   0.041  -0.475   0.509
    1UNL    C27   37  -0.050  -0.411   0.431
    1UNL    C28   38  -0.276   0.016   0.004
    1UNL    O11   39  -0.283   0.019  -0.139
    1UNL    C29   40  -0.383   0.108  -0.199
    1UNL    O12   41  -0.370   0.238  -0.139
    1UNL    C30   42  -0.393   0.353  -0.224
    1UNL    C31   43  -0.414   0.487  -0.155
    1UNL    O13   44  -0.300   0.531  -0.088
    1UNL    C32   45  -0.277   0.353  -0.332
    1UNL    O14   46  -0.157   0.396  -0.261
    1UNL    C33   47  -0.268   0.213  -0.408
    1UNL    O15   48  -0.139   0.160  -0.396
    1UNL    C34   49  -0.376   0.108  -0.358
    1UNL    O16   50  -0.506   0.153  -0.401
    1UNL    C35   51  -0.191   0.141   0.047
    1UNL    O17   52  -0.187   0.172   0.188
    1UNL    C36   53  -0.047   0.124   0.001
    1UNL    O18   54  -0.028   0.186  -0.123
    1UNL     H1   55   0.046  -0.133   0.244
    1UNL     H2   56   0.199  -0.195   0.329
    1UNL     H3   57   0.197  -0.049   0.242
    1UNL     H4   58   0.102  -0.394   0.130
    1UNL     H5   59   0.266  -0.408   0.218
    1UNL     H6   60   0.365  -0.597  -0.066
    1UNL     H7   61   0.518  -0.206  -0.033
    1UNL     H8   62   0.287  -0.127  -0.308
    1UNL     H9   63   0.450  -0.178  -0.263
    1UNL    H10   64   0.141   0.306  -0.281
    1UNL    H11   65   0.148   0.529  -0.180
    1UNL    H12   66   0.268   0.665  -0.030
    1UNL    H13   67   0.468   0.389   0.068
    1UNL    H14   68   0.449   0.155  -0.024
    1UNL    H15   69   0.249  -0.391  -0.232
    1UNL    H16   70   0.059  -0.234  -0.203
    1UNL    H17   71   0.006  -0.327  -0.055
    1UNL    H18   72  -0.055  -0.062  -0.112
    1UNL    H19   73  -0.212  -0.185  -0.022
    1UNL    H20   74  -0.293  -0.088   0.257
    1UNL    H21   75  -0.382  -0.210   0.145
    1UNL    H22   76   0.006  -0.093   0.542
    1UNL    H23   77   0.152  -0.218   0.708
    1UNL    H24   78   0.183  -0.470   0.645
    1UNL    H25   79   0.064  -0.585   0.487
    1UNL    H26   80  -0.106  -0.460   0.358
    1UNL    H27   81  -0.381   0.026   0.038
    1UNL    H28   82  -0.478   0.068  -0.173
    1UNL    H29   83  -0.497   0.324  -0.274
    1UNL    H30   84  -0.502   0.470  -0.088
    1UNL    H31   85  -0.446   0.569  -0.223
    1UNL    H32   86  -0.216   0.498  -0.134
    1UNL    H33   87  -0.296   0.430  -0.414
    1UNL    H34   88  -0.116   0.323  -0.208
    1UNL    H35   89  -0.297   0.230  -0.518
    1UNL    H36   90  -0.117   0.147  -0.302
    1UNL    H37   91  -0.358   0.012  -0.398
    1UNL    H38   92  -0.519   0.136  -0.494
    1UNL    H39   93  -0.237   0.227   0.004
    1UNL    H40   94  -0.156   0.093   0.234
    1UNL    H41   95   0.017   0.171   0.078
    1UNL    H42   96   0.046   0.142  -0.173
   0.00000   0.00000   0.00000   0.00000   0.00000   0.00000   0.00000   0.00000   0.00000
Generated with MDTraj, t= 31.0
 96
    1UNL     C1    1   0.147  -0.157   0.227
    1UNL     C2    2   0.222  -0.233   0.119
    1UNL     C3    3   0.213  -0.384   0.128
    1UNL     C4    4   0.282  -0.436  -0.007
    1UNL     O1    5   0.267  -0.576  -0.017
    1UNL     O2    6   0.421  -0.389   0.001
    1UNL     C5    7   0.414  -0.248  -0.003
    1UNL     O3    8   0.361  -0.191   0.117
    1UNL     C6    9   0.297  -0.216  -0.112
    1UNL     C7   10   0.323  -0.138  -0.241
    1UNL     O4   11   0.367  -0.004  -0.205
    1UNL     C8   12   0.269   0.094  -0.226
    1UNL     O5   13   0.171   0.075  -0.298
    1UNL     C9   14   0.296   0.232  -0.173
    1UNL    C10   15   0.238   0.339  -0.232
    1UNL    C11   16   0.237   0.459  -0.161
    1UNL    C12   17   0.299   0.479  -0.043
    1UNL     O6   18   0.305   0.610   0.014
    1UNL    C13   19   0.359   0.371   0.020
    1UNL    C14   20   0.361   0.254  -0.045
    1UNL    C15   21   0.224  -0.358  -0.128
    1UNL    C16   22   0.095  -0.283  -0.107
    1UNL    C17   23   0.172  -0.186  -0.023
    1UNL     O7   24   0.134  -0.046  -0.012
    1UNL    C18   25  -0.008  -0.027  -0.017
    1UNL     O8   26  -0.078  -0.115   0.071
    1UNL    C19   27  -0.223  -0.125   0.060
    1UNL    C20   28  -0.297  -0.168   0.196
    1UNL     O9   29  -0.216  -0.260   0.261
    1UNL    C21   30  -0.141  -0.193   0.359
    1UNL    O10   31  -0.131  -0.070   0.365
    1UNL    C22   32  -0.057  -0.267   0.452
    1UNL    C23   33   0.027  -0.200   0.539
    1UNL    C24   34   0.117  -0.273   0.618
    1UNL    C25   35   0.126  -0.409   0.603
    1UNL    C26   36   0.034  -0.482   0.521
    1UNL    C27   37  -0.051  -0.406   0.443
    1UNL    C28   38  -0.281   0.008   0.002
    1UNL    O11   39  -0.270   0.011  -0.141
    1UNL    C29   40  -0.367   0.111  -0.197
    1UNL    O12   41  -0.337   0.243  -0.145
    1UNL    C30   42  -0.373   0.356  -0.231
    1UNL    C31   43  -0.396   0.486  -0.150
    1UNL    O13   44  -0.282   0.522  -0.067
    1UNL    C32   45  -0.277   0.358  -0.348
    1UNL    O14   46  -0.152   0.410  -0.302
    1UNL    C33   47  -0.254   0.212  -0.402
    1UNL    O15   48  -0.129   0.157  -0.360
    1UNL    C34   49  -0.367   0.118  -0.357
    1UNL    O16   50  -0.496   0.146  -0.410
    1UNL    C35   51  -0.198   0.128   0.059
    1UNL    O17   52  -0.205   0.148   0.200
    1UNL    C36   53  -0.050   0.123   0.011
    1UNL    O18   54  -0.039   0.202  -0.110
    1UNL     H1   55   0.035  -0.171   0.219
    1UNL     H2   56   0.184  -0.193   0.325
    1UNL     H3   57   0.156  -0.050   0.225
    1UNL     H4   58   0.107  -0.429   0.137
    1UNL     H5   59   0.266  -0.424   0.223
    1UNL     H6   60   0.326  -0.616   0.055
    1UNL     H7   61   0.520  -0.198  -0.017
    1UNL     H8   62   0.239  -0.118  -0.304
    1UNL     H9   63   0.401  -0.191  -0.297
    1UNL    H10   64   0.189   0.326  -0.323
    1UNL    H11   65   0.184   0.539  -0.203
    1UNL    H12   66   0.252   0.670  -0.040
    1UNL    H13   67   0.414   0.385   0.115
    1UNL    H14   68   0.426   0.182  -0.009
    1UNL    H15   69   0.237  -0.405  -0.227
    1UNL    H16   70   0.066  -0.233  -0.197
    1UNL    H17   71   0.016  -0.335  -0.050
    1UNL    H18   72  -0.049  -0.049  -0.121
    1UNL    H19   73  -0.239  -0.207  -0.008
    1UNL    H20   74  -0.306  -0.076   0.252
    1UNL    H21   75  -0.397  -0.218   0.181
    1UNL    H22   76   0.016  -0.093   0.535
    1UNL    H23   77   0.174  -0.227   0.700
    1UNL    H24   78   0.189  -0.479   0.663
    1UNL    H25   79   0.051  -0.580   0.489
    1UNL    H26   80  -0.118  -0.468   0.377
    1UNL    H27   81  -0.389   0.003   0.036
    1UNL    H28   82  -0.465   0.084  -0.164
    1UNL    H29   83  -0.479   0.321  -0.273
    1UNL    H30   84  -0.477   0.483  -0.075
    1UNL    H31   85  -0.432   0.559  -0.225
    1UNL    H32   86  -0.208   0.463  -0.086
    1UNL    H33   87  -0.306   0.435  -0.426
    1UNL    H34   88  -0.121   0.342  -0.243
    1UNL    H35   89  -0.248   0.229  -0.513
    1UNL    H36   90  -0.132   0.138  -0.263
    1UNL    H37   91  -0.340   0.016  -0.384
    1UNL    H38   92  -0.493   0.112  -0.498
    1UNL    H39   93  -0.240   0.212   0.010
    1UNL    H40   94  -0.184   0.062   0.250
    1UNL    H41   95   0.017   0.171   0.082
    1UNL    H42   96   0.038   0.167  -0.154
   0.00000   0.00000   0.00000   0.00000   0.00000   0.00000   0.00000   0.00000   0.00000
Generated with MDTraj, t= 32.0
 96
    1UNL     C1    1   0.163  -0.144   0.235
    1UNL     C2    2   0.225  -0.218   0.118
    1UNL     C3    3   0.220  -0.376   0.128
    1UNL     C4    4   0.284  -0.433  -0.003
    1UNL     O1    5   0.262  -0.570  -0.020
    1UNL     O2    6   0.422  -0.380  -0.004
    1UNL     C5    7   0.410  -0.238  -0.016
    1UNL     O3    8   0.363  -0.183   0.109
    1UNL     C6    9   0.290  -0.212  -0.112
    1UNL     C7   10   0.311  -0.129  -0.238
    1UNL     O4   11   0.348  -0.002  -0.187
    1UNL     C8   12   0.265   0.099  -0.231
    1UNL     O5   13   0.171   0.077  -0.309
    1UNL     C9   14   0.290   0.233  -0.175
    1UNL    C10   15   0.249   0.343  -0.239
    1UNL    C11   16   0.245   0.466  -0.173
    1UNL    C12   17   0.294   0.489  -0.042
    1UNL     O6   18   0.287   0.609   0.018
    1UNL    C13   19   0.339   0.368   0.020
    1UNL    C14   20   0.334   0.246  -0.042
    1UNL    C15   21   0.223  -0.352  -0.126
    1UNL    C16   22   0.082  -0.288  -0.095
    1UNL    C17   23   0.171  -0.178  -0.023
    1UNL     O7   24   0.126  -0.043  -0.030
    1UNL    C18   25  -0.018  -0.026  -0.024
    1UNL     O8   26  -0.082  -0.112   0.072
    1UNL    C19   27  -0.222  -0.119   0.061
    1UNL    C20   28  -0.293  -0.171   0.192
    1UNL     O9   29  -0.212  -0.258   0.268
    1UNL    C21   30  -0.139  -0.187   0.352
    1UNL    O10   31  -0.135  -0.064   0.355
    1UNL    C22   32  -0.050  -0.265   0.441
    1UNL    C23   33   0.036  -0.206   0.531
    1UNL    C24   34   0.112  -0.288   0.617
    1UNL    C25   35   0.102  -0.430   0.615
    1UNL    C26   36   0.023  -0.487   0.513
    1UNL    C27   37  -0.052  -0.407   0.430
    1UNL    C28   38  -0.284   0.019   0.007
    1UNL    O11   39  -0.290   0.009  -0.135
    1UNL    C29   40  -0.372   0.108  -0.188
    1UNL    O12   41  -0.362   0.239  -0.134
    1UNL    C30   42  -0.369   0.349  -0.227
    1UNL    C31   43  -0.362   0.480  -0.149
    1UNL    O13   44  -0.240   0.493  -0.077
    1UNL    C32   45  -0.263   0.343  -0.339
    1UNL    O14   46  -0.143   0.401  -0.307
    1UNL    C33   47  -0.241   0.195  -0.387
    1UNL    O15   48  -0.120   0.138  -0.341
    1UNL    C34   49  -0.356   0.102  -0.343
    1UNL    O16   50  -0.476   0.140  -0.403
    1UNL    C35   51  -0.194   0.141   0.054
    1UNL    O17   52  -0.208   0.154   0.197
    1UNL    C36   53  -0.051   0.126   0.007
    1UNL    O18   54  -0.017   0.216  -0.103
    1UNL     H1   55   0.058  -0.148   0.219
    1UNL     H2   56   0.190  -0.176   0.338
    1UNL     H3   57   0.183  -0.037   0.219
    1UNL     H4   58   0.117  -0.421   0.155
    1UNL     H5   59   0.282  -0.424   0.212
    1UNL     H6   60   0.299  -0.604  -0.104
    1UNL     H7   61   0.509  -0.189  -0.059
    1UNL     H8   62   0.224  -0.114  -0.301
    1UNL     H9   63   0.398  -0.157  -0.301
    1UNL    H10   64   0.200   0.330  -0.337
    1UNL    H11   65   0.202   0.552  -0.227
    1UNL    H12   66   0.260   0.674  -0.051
    1UNL    H13   67   0.379   0.382   0.116
    1UNL    H14   68   0.378   0.151   0.004
    1UNL    H15   69   0.227  -0.408  -0.221
    1UNL    H16   70   0.033  -0.249  -0.184
    1UNL    H17   71   0.010  -0.342  -0.035
    1UNL    H18   72  -0.064  -0.046  -0.127
    1UNL    H19   73  -0.252  -0.183  -0.021
    1UNL    H20   74  -0.314  -0.089   0.261
    1UNL    H21   75  -0.394  -0.217   0.169
    1UNL    H22   76   0.016  -0.100   0.551
    1UNL    H23   77   0.164  -0.235   0.692
    1UNL    H24   78   0.174  -0.477   0.674
    1UNL    H25   79   0.003  -0.597   0.520
    1UNL    H26   80  -0.101  -0.449   0.349
    1UNL    H27   81  -0.387   0.031   0.056
    1UNL    H28   82  -0.475   0.084  -0.161
    1UNL    H29   83  -0.477   0.338  -0.278
    1UNL    H30   84  -0.452   0.481  -0.089
    1UNL    H31   85  -0.363   0.571  -0.210
    1UNL    H32   86  -0.187   0.407  -0.079
    1UNL    H33   87  -0.300   0.394  -0.431
    1UNL    H34   88  -0.093   0.342  -0.252
    1UNL    H35   89  -0.234   0.182  -0.495
    1UNL    H36   90  -0.141   0.090  -0.256
    1UNL    H37   91  -0.341  -0.006  -0.365
    1UNL    H38   92  -0.482   0.105  -0.495
    1UNL    H39   93  -0.244   0.228   0.015
    1UNL    H40   94  -0.165   0.085   0.247
    1UNL    H41   95   0.022   0.143   0.086
    1UNL    H42   96   0.042   0.167  -0.169
   0.00000   0.00000   0.00000   0.00000   0.00000   0.00000   0.00000   0.00000   0.00000
Generated with MDTraj, t= 33.0
 96
    1UNL     C1    1   0.180  -0.131   0.245
    1UNL     C2    2   0.230  -0.202   0.119
    1UNL     C3    3   0.220  -0.355   0.125
    1UNL     C4    4   0.279  -0.422  -0.008
    1UNL     O1    5   0.268  -0.564  -0.009
    1UNL     O2    6   0.417  -0.375  -0.013
    1UNL     C5    7   0.408  -0.234  -0.026
    1UNL     O3    8   0.374  -0.178   0.102
    1UNL     C6    9   0.286  -0.205  -0.121
    1UNL     C7   10   0.319  -0.126  -0.245
    1UNL     O4   11   0.360   0.003  -0.207
    1UNL     C8   12   0.265   0.101  -0.234
    1UNL     O5   13   0.158   0.062  -0.285
    1UNL     C9   14   0.276   0.236  -0.167
    1UNL    C10   15   0.234   0.359  -0.231
    1UNL    C11   16   0.234   0.479  -0.172
    1UNL    C12   17   0.281   0.487  -0.041
    1UNL     O6   18   0.297   0.616   0.018
    1UNL    C13   19   0.325   0.367   0.022
    1UNL    C14   20   0.325   0.245  -0.038
    1UNL    C15   21   0.210  -0.348  -0.131
    1UNL    C16   22   0.072  -0.278  -0.094
    1UNL    C17   23   0.163  -0.165  -0.026
    1UNL     O7   24   0.129  -0.026  -0.029
    1UNL    C18   25  -0.012  -0.019  -0.010
    1UNL     O8   26  -0.075  -0.098   0.093
    1UNL    C19   27  -0.215  -0.107   0.074
    1UNL    C20   28  -0.292  -0.154   0.195
    1UNL     O9   29  -0.222  -0.255   0.269
    1UNL    C21   30  -0.141  -0.194   0.350
    1UNL    O10   31  -0.119  -0.073   0.357
    1UNL    C22   32  -0.061  -0.280   0.444
    1UNL    C23   33   0.020  -0.229   0.544
    1UNL    C24   34   0.103  -0.305   0.624
    1UNL    C25   35   0.101  -0.446   0.611
    1UNL    C26   36   0.017  -0.498   0.511
    1UNL    C27   37  -0.059  -0.417   0.422
    1UNL    C28   38  -0.284   0.020   0.018
    1UNL    O11   39  -0.300   0.011  -0.124
    1UNL    C29   40  -0.368   0.113  -0.187
    1UNL    O12   41  -0.337   0.251  -0.138
    1UNL    C30   42  -0.360   0.349  -0.237
    1UNL    C31   43  -0.338   0.478  -0.163
    1UNL    O13   44  -0.231   0.465  -0.078
    1UNL    C32   45  -0.250   0.327  -0.346
    1UNL    O14   46  -0.119   0.370  -0.308
    1UNL    C33   47  -0.246   0.175  -0.398
    1UNL    O15   48  -0.132   0.107  -0.358
    1UNL    C34   49  -0.371   0.101  -0.351
    1UNL    O16   50  -0.494   0.159  -0.398
    1UNL    C35   51  -0.194   0.145   0.057
    1UNL    O17   52  -0.201   0.152   0.198
    1UNL    C36   53  -0.050   0.127   0.004
    1UNL    O18   54  -0.021   0.198  -0.119
    1UNL     H1   55   0.076  -0.125   0.249
    1UNL     H2   56   0.222  -0.178   0.335
    1UNL     H3   57   0.211  -0.023   0.232
    1UNL     H4   58   0.115  -0.398   0.137
    1UNL     H5   59   0.262  -0.394   0.223
    1UNL     H6   60   0.347  -0.605   0.020
    1UNL     H7   61   0.508  -0.201  -0.080
    1UNL     H8   62   0.240  -0.114  -0.320
    1UNL     H9   63   0.410  -0.173  -0.290
    1UNL    H10   64   0.204   0.349  -0.332
    1UNL    H11   65   0.192   0.564  -0.217
    1UNL    H12   66   0.269   0.696  -0.035
    1UNL    H13   67   0.381   0.374   0.118
    1UNL    H14   68   0.354   0.157   0.006
    1UNL    H15   69   0.227  -0.405  -0.224
    1UNL    H16   70   0.020  -0.228  -0.177
    1UNL    H17   71   0.005  -0.335  -0.033
    1UNL    H18   72  -0.068  -0.036  -0.109
    1UNL    H19   73  -0.227  -0.177  -0.013
    1UNL    H20   74  -0.318  -0.076   0.263
    1UNL    H21   75  -0.395  -0.199   0.176
    1UNL    H22   76  -0.003  -0.126   0.566
    1UNL    H23   77   0.166  -0.247   0.694
    1UNL    H24   78   0.173  -0.496   0.680
    1UNL    H25   79   0.032  -0.603   0.503
    1UNL    H26   80  -0.125  -0.453   0.341
    1UNL    H27   81  -0.386   0.036   0.064
    1UNL    H28   82  -0.471   0.104  -0.149
    1UNL    H29   83  -0.470   0.359  -0.283
    1UNL    H30   84  -0.418   0.504  -0.095
    1UNL    H31   85  -0.332   0.564  -0.231
    1UNL    H32   86  -0.182   0.381  -0.103
    1UNL    H33   87  -0.284   0.394  -0.424
    1UNL    H34   88  -0.075   0.294  -0.258
    1UNL    H35   89  -0.225   0.163  -0.503
    1UNL    H36   90  -0.144   0.074  -0.268
    1UNL    H37   91  -0.366  -0.009  -0.382
    1UNL    H38   92  -0.502   0.141  -0.500
    1UNL    H39   93  -0.241   0.235   0.023
    1UNL    H40   94  -0.153   0.071   0.237
    1UNL    H41   95   0.022   0.175   0.069
    1UNL    H42   96   0.046   0.146  -0.176
   0.00000   0.00000   0.00000   0.00000   0.00000   0.00000   0.00000   0.00000   0.00000
Generated with MDTraj, t= 34.0
 96
    1UNL     C1    1   0.172  -0.128   0.246
    1UNL     C2    2   0.233  -0.210   0.128
    1UNL     C3    3   0.221  -0.365   0.138
    1UNL     C4    4   0.282  -0.415  -0.002
    1UNL     O1    5   0.268  -0.559  -0.009
    1UNL     O2    6   0.424  -0.369  -0.001
    1UNL     C5    7   0.417  -0.226  -0.012
    1UNL     O3    8   0.377  -0.173   0.113
    1UNL     C6    9   0.294  -0.196  -0.113
    1UNL     C7   10   0.321  -0.123  -0.243
    1UNL     O4   11   0.349   0.011  -0.213
    1UNL     C8   12   0.255   0.101  -0.239
    1UNL     O5   13   0.146   0.075  -0.290
    1UNL     C9   14   0.276   0.231  -0.167
    1UNL    C10   15   0.217   0.342  -0.225
    1UNL    C11   16   0.228   0.461  -0.163
    1UNL    C12   17   0.292   0.482  -0.032
    1UNL     O6   18   0.294   0.606   0.019
    1UNL    C13   19   0.347   0.368   0.022
    1UNL    C14   20   0.334   0.246  -0.042
    1UNL    C15   21   0.219  -0.333  -0.124
    1UNL    C16   22   0.091  -0.260  -0.094
    1UNL    C17   23   0.179  -0.155  -0.016
    1UNL     O7   24   0.131  -0.021  -0.020
    1UNL    C18   25  -0.010  -0.010  -0.015
    1UNL     O8   26  -0.074  -0.100   0.079
    1UNL    C19   27  -0.218  -0.108   0.062
    1UNL    C20   28  -0.282  -0.142   0.198
    1UNL     O9   29  -0.213  -0.250   0.270
    1UNL    C21   30  -0.133  -0.199   0.365
    1UNL    O10   31  -0.117  -0.079   0.378
    1UNL    C22   32  -0.049  -0.285   0.441
    1UNL    C23   33   0.016  -0.249   0.558
    1UNL    C24   34   0.096  -0.330   0.627
    1UNL    C25   35   0.091  -0.468   0.605
    1UNL    C26   36   0.009  -0.521   0.500
    1UNL    C27   37  -0.055  -0.424   0.415
    1UNL    C28   38  -0.278   0.018   0.009
    1UNL    O11   39  -0.283   0.024  -0.134
    1UNL    C29   40  -0.370   0.126  -0.179
    1UNL    O12   41  -0.317   0.257  -0.152
    1UNL    C30   42  -0.350   0.358  -0.249
    1UNL    C31   43  -0.305   0.485  -0.183
    1UNL    O13   44  -0.190   0.482  -0.095
    1UNL    C32   45  -0.273   0.328  -0.380
    1UNL    O14   46  -0.136   0.367  -0.371
    1UNL    C33   47  -0.273   0.166  -0.400
    1UNL    O15   48  -0.156   0.109  -0.358
    1UNL    C34   49  -0.389   0.105  -0.330
    1UNL    O16   50  -0.512   0.145  -0.382
    1UNL    C35   51  -0.200   0.142   0.071
    1UNL    O17   52  -0.210   0.147   0.218
    1UNL    C36   53  -0.055   0.135   0.009
    1UNL    O18   54  -0.052   0.201  -0.116
    1UNL     H1   55   0.071  -0.169   0.260
    1UNL     H2   56   0.220  -0.152   0.338
    1UNL     H3   57   0.147  -0.019   0.229
    1UNL     H4   58   0.118  -0.405   0.154
    1UNL     H5   59   0.276  -0.408   0.226
    1UNL     H6   60   0.352  -0.589   0.021
    1UNL     H7   61   0.520  -0.177  -0.042
    1UNL     H8   62   0.226  -0.124  -0.300
    1UNL     H9   63   0.405  -0.166  -0.305
    1UNL    H10   64   0.162   0.326  -0.319
    1UNL    H11   65   0.184   0.551  -0.208
    1UNL    H12   66   0.230   0.661  -0.036
    1UNL    H13   67   0.391   0.383   0.116
    1UNL    H14   68   0.380   0.150  -0.003
    1UNL    H15   69   0.219  -0.385  -0.221
    1UNL    H16   70   0.043  -0.210  -0.181
    1UNL    H17   71   0.026  -0.312  -0.029
    1UNL    H18   72  -0.047  -0.050  -0.117
    1UNL    H19   73  -0.236  -0.198  -0.005
    1UNL    H20   74  -0.293  -0.066   0.270
    1UNL    H21   75  -0.393  -0.172   0.196
    1UNL    H22   76   0.015  -0.141   0.571
    1UNL    H23   77   0.148  -0.290   0.710
    1UNL    H24   78   0.150  -0.529   0.672
    1UNL    H25   79   0.016  -0.621   0.454
    1UNL    H26   80  -0.112  -0.462   0.333
    1UNL    H27   81  -0.382   0.023   0.050
    1UNL    H28   82  -0.465   0.121  -0.120
    1UNL    H29   83  -0.467   0.350  -0.262
    1UNL    H30   84  -0.391   0.532  -0.136
    1UNL    H31   85  -0.272   0.553  -0.265
    1UNL    H32   86  -0.154   0.385  -0.109
    1UNL    H33   87  -0.327   0.381  -0.457
    1UNL    H34   88  -0.097   0.306  -0.301
    1UNL    H35   89  -0.284   0.143  -0.501
    1UNL    H36   90  -0.165   0.082  -0.263
    1UNL    H37   91  -0.393  -0.010  -0.339
    1UNL    H38   92  -0.510   0.165  -0.483
    1UNL    H39   93  -0.242   0.233   0.032
    1UNL    H40   94  -0.170   0.068   0.258
    1UNL    H41   95   0.022   0.180   0.072
    1UNL    H42   96   0.015   0.158  -0.174
   0.00000   0.00000   0.00000   0.00000   0.00000   0.00000   0.00000   0.00000   0.00000
Generated with MDTraj, t= 35.0
 96
    1UNL     C1    1   0.160  -0.129   0.248
    1UNL     C2    2   0.229  -0.203   0.129
    1UNL     C3    3   0.233  -0.355   0.144
    1UNL     C4    4   0.292  -0.412   0.012
    1UNL     O1    5   0.278  -0.551   0.001
    1UNL     O2    6   0.428  -0.358   0.002
    1UNL     C5    7   0.417  -0.218  -0.002
    1UNL     O3    8   0.369  -0.159   0.122
    1UNL     C6    9   0.294  -0.199  -0.099
    1UNL     C7   10   0.317  -0.116  -0.225
    1UNL     O4   11   0.350   0.017  -0.194
    1UNL     C8   12   0.252   0.105  -0.226
    1UNL     O5   13   0.149   0.084  -0.290
    1UNL     C9   14   0.276   0.233  -0.164
    1UNL    C10   15   0.205   0.347  -0.212
    1UNL    C11   16   0.210   0.464  -0.144
    1UNL    C12   17   0.296   0.480  -0.034
    1UNL     O6   18   0.294   0.605   0.029
    1UNL    C13   19   0.372   0.371   0.011
    1UNL    C14   20   0.366   0.256  -0.057
    1UNL    C15   21   0.222  -0.343  -0.115
    1UNL    C16   22   0.084  -0.272  -0.085
    1UNL    C17   23   0.168  -0.158  -0.014
    1UNL     O7   24   0.119  -0.025  -0.021
    1UNL    C18   25  -0.022  -0.010  -0.012
    1UNL     O8   26  -0.079  -0.092   0.097
    1UNL    C19   27  -0.220  -0.101   0.079
    1UNL    C20   28  -0.285  -0.167   0.197
    1UNL     O9   29  -0.203  -0.269   0.251
    1UNL    C21   30  -0.125  -0.212   0.352
    1UNL    O10   31  -0.118  -0.090   0.362
    1UNL    C22   32  -0.047  -0.299   0.441
    1UNL    C23   33   0.020  -0.262   0.553
    1UNL    C24   34   0.084  -0.356   0.631
    1UNL    C25   35   0.084  -0.492   0.596
    1UNL    C26   36   0.009  -0.534   0.482
    1UNL    C27   37  -0.051  -0.432   0.405
    1UNL    C28   38  -0.283   0.033   0.036
    1UNL    O11   39  -0.300   0.024  -0.110
    1UNL    C29   40  -0.378   0.127  -0.170
    1UNL    O12   41  -0.315   0.254  -0.146
    1UNL    C30   42  -0.342   0.356  -0.242
    1UNL    C31   43  -0.278   0.489  -0.186
    1UNL    O13   44  -0.132   0.488  -0.181
    1UNL    C32   45  -0.289   0.318  -0.381
    1UNL    O14   46  -0.155   0.365  -0.413
    1UNL    C33   47  -0.294   0.156  -0.408
    1UNL    O15   48  -0.171   0.104  -0.364
    1UNL    C34   49  -0.413   0.104  -0.323
    1UNL    O16   50  -0.541   0.159  -0.361
    1UNL    C35   51  -0.193   0.155   0.063
    1UNL    O17   52  -0.181   0.180   0.204
    1UNL    C36   53  -0.051   0.137  -0.003
    1UNL    O18   54  -0.042   0.198  -0.126
    1UNL     H1   55   0.047  -0.115   0.255
    1UNL     H2   56   0.191  -0.160   0.344
    1UNL     H3   57   0.189  -0.024   0.227
    1UNL     H4   58   0.137  -0.399   0.172
    1UNL     H5   59   0.307  -0.381   0.222
    1UNL     H6   60   0.349  -0.584   0.057
    1UNL     H7   61   0.523  -0.168  -0.024
    1UNL     H8   62   0.224  -0.115  -0.286
    1UNL     H9   63   0.396  -0.166  -0.285
    1UNL    H10   64   0.143   0.344  -0.304
    1UNL    H11   65   0.168   0.556  -0.181
    1UNL    H12   66   0.228   0.668  -0.012
    1UNL    H13   67   0.443   0.386   0.095
    1UNL    H14   68   0.432   0.178  -0.038
    1UNL    H15   69   0.250  -0.386  -0.213
    1UNL    H16   70   0.037  -0.250  -0.183
    1UNL    H17   71   0.012  -0.322  -0.021
    1UNL    H18   72  -0.067  -0.068  -0.096
    1UNL    H19   73  -0.235  -0.170  -0.013
    1UNL    H20   74  -0.315  -0.100   0.269
    1UNL    H21   75  -0.383  -0.216   0.168
    1UNL    H22   76   0.001  -0.159   0.587
    1UNL    H23   77   0.147  -0.329   0.716
    1UNL    H24   78   0.138  -0.563   0.655
    1UNL    H25   79   0.003  -0.639   0.456
    1UNL    H26   80  -0.092  -0.454   0.306
    1UNL    H27   81  -0.386   0.047   0.070
    1UNL    H28   82  -0.474   0.141  -0.112
    1UNL    H29   83  -0.457   0.345  -0.251
    1UNL    H30   84  -0.322   0.505  -0.086
    1UNL    H31   85  -0.313   0.570  -0.255
    1UNL    H32   86  -0.111   0.398  -0.146
    1UNL    H33   87  -0.353   0.366  -0.452
    1UNL    H34   88  -0.093   0.315  -0.363
    1UNL    H35   89  -0.295   0.134  -0.510
    1UNL    H36   90  -0.166   0.114  -0.264
    1UNL    H37   91  -0.414  -0.007  -0.350
    1UNL    H38   92  -0.549   0.135  -0.454
    1UNL    H39   93  -0.237   0.241   0.017
    1UNL    H40   94  -0.157   0.094   0.242
    1UNL    H41   95   0.016   0.188   0.068
    1UNL    H42   96   0.024   0.150  -0.180
   0.00000   0.00000   0.00000   0.00000   0.00000   0.00000   0.00000   0.00000   0.00000
Generated with MDTraj, t= 36.0
 96
    1UNL     C1    1   0.167  -0.100   0.250
    1UNL     C2    2   0.236  -0.189   0.140
    1UNL     C3    3   0.239  -0.351   0.159
    1UNL     C4    4   0.297  -0.414   0.028
    1UNL     O1    5   0.289  -0.554   0.036
    1UNL     O2    6   0.427  -0.363   0.010
    1UNL     C5    7   0.417  -0.216  -0.006
    1UNL     O3    8   0.378  -0.157   0.120
    1UNL     C6    9   0.294  -0.200  -0.101
    1UNL     C7   10   0.321  -0.111  -0.229
    1UNL     O4   11   0.364   0.022  -0.195
    1UNL     C8   12   0.268   0.117  -0.225
    1UNL     O5   13   0.171   0.096  -0.298
    1UNL     C9   14   0.293   0.251  -0.169
    1UNL    C10   15   0.203   0.359  -0.193
    1UNL    C11   16   0.201   0.479  -0.123
    1UNL    C12   17   0.299   0.501  -0.026
    1UNL     O6   18   0.306   0.616   0.038
    1UNL    C13   19   0.381   0.385   0.009
    1UNL    C14   20   0.385   0.270  -0.064
    1UNL    C15   21   0.221  -0.343  -0.098
    1UNL    C16   22   0.094  -0.278  -0.072
    1UNL    C17   23   0.174  -0.153  -0.006
    1UNL     O7   24   0.125  -0.030  -0.023
    1UNL    C18   25  -0.017  -0.019  -0.016
    1UNL     O8   26  -0.076  -0.100   0.088
    1UNL    C19   27  -0.225  -0.103   0.076
    1UNL    C20   28  -0.293  -0.153   0.208
    1UNL     O9   29  -0.231  -0.265   0.256
    1UNL    C21   30  -0.140  -0.220   0.345
    1UNL    O10   31  -0.117  -0.100   0.361
    1UNL    C22   32  -0.069  -0.324   0.431
    1UNL    C23   33   0.004  -0.273   0.541
    1UNL    C24   34   0.078  -0.365   0.619
    1UNL    C25   35   0.085  -0.499   0.576
    1UNL    C26   36   0.020  -0.537   0.461
    1UNL    C27   37  -0.057  -0.454   0.388
    1UNL    C28   38  -0.280   0.033   0.026
    1UNL    O11   39  -0.310   0.031  -0.116
    1UNL    C29   40  -0.388   0.145  -0.157
    1UNL    O12   41  -0.313   0.266  -0.158
    1UNL    C30   42  -0.338   0.362  -0.259
    1UNL    C31   43  -0.240   0.489  -0.240
    1UNL    O13   44  -0.113   0.456  -0.195
    1UNL    C32   45  -0.307   0.300  -0.401
    1UNL    O14   46  -0.174   0.338  -0.452
    1UNL    C33   47  -0.327   0.148  -0.401
    1UNL    O15   48  -0.207   0.100  -0.356
    1UNL    C34   49  -0.444   0.116  -0.302
    1UNL    O16   50  -0.569   0.187  -0.317
    1UNL    C35   51  -0.182   0.144   0.067
    1UNL    O17   52  -0.162   0.142   0.211
    1UNL    C36   53  -0.044   0.129  -0.001
    1UNL    O18   54  -0.038   0.192  -0.124
    1UNL     H1   55   0.056  -0.094   0.256
    1UNL     H2   56   0.191  -0.150   0.345
    1UNL     H3   57   0.191   0.007   0.240
    1UNL     H4   58   0.141  -0.391   0.176
    1UNL     H5   59   0.310  -0.385   0.232
    1UNL     H6   60   0.375  -0.592   0.070
    1UNL     H7   61   0.520  -0.173  -0.046
    1UNL     H8   62   0.226  -0.105  -0.282
    1UNL     H9   63   0.397  -0.155  -0.296
    1UNL    H10   64   0.150   0.361  -0.280
    1UNL    H11   65   0.125   0.552  -0.136
    1UNL    H12   66   0.265   0.685  -0.020
    1UNL    H13   67   0.441   0.399   0.096
    1UNL    H14   68   0.454   0.185  -0.044
    1UNL    H15   69   0.221  -0.400  -0.192
    1UNL    H16   70   0.036  -0.245  -0.159
    1UNL    H17   71   0.029  -0.340  -0.007
    1UNL    H18   72  -0.069  -0.057  -0.106
    1UNL    H19   73  -0.240  -0.186  -0.000
    1UNL    H20   74  -0.303  -0.080   0.278
    1UNL    H21   75  -0.397  -0.177   0.178
    1UNL    H22   76  -0.012  -0.172   0.577
    1UNL    H23   77   0.108  -0.320   0.712
    1UNL    H24   78   0.152  -0.573   0.626
    1UNL    H25   79   0.021  -0.639   0.430
    1UNL    H26   80  -0.112  -0.475   0.297
    1UNL    H27   81  -0.372   0.059   0.077
    1UNL    H28   82  -0.475   0.151  -0.083
    1UNL    H29   83  -0.445   0.401  -0.251
    1UNL    H30   84  -0.291   0.555  -0.168
    1UNL    H31   85  -0.233   0.542  -0.339
    1UNL    H32   86  -0.101   0.363  -0.169
    1UNL    H33   87  -0.380   0.345  -0.468
    1UNL    H34   88  -0.098   0.299  -0.401
    1UNL    H35   89  -0.347   0.107  -0.496
    1UNL    H36   90  -0.191   0.128  -0.261
    1UNL    H37   91  -0.474   0.008  -0.302
    1UNL    H38   92  -0.650   0.139  -0.329
    1UNL    H39   93  -0.222   0.241   0.045
    1UNL    H40   94  -0.130   0.053   0.245
    1UNL    H41   95   0.026   0.186   0.066
    1UNL    H42   96   0.034   0.154  -0.184
   0.00000   0.00000   0.00000   0.00000   0.00000   0.00000   0.00000   0.00000   0.00000
Generated with MDTraj, t= 37.0
 96
    1UNL     C1    1   0.171  -0.105   0.253
    1UNL     C2    2   0.245  -0.197   0.154
    1UNL     C3    3   0.243  -0.349   0.163
    1UNL     C4    4   0.309  -0.406   0.032
    1UNL     O1    5   0.308  -0.542   0.037
    1UNL     O2    6   0.444  -0.347   0.029
    1UNL     C5    7   0.423  -0.203   0.012
    1UNL     O3    8   0.377  -0.154   0.136
    1UNL     C6    9   0.299  -0.198  -0.088
    1UNL     C7   10   0.322  -0.106  -0.216
    1UNL     O4   11   0.362   0.023  -0.174
    1UNL     C8   12   0.265   0.111  -0.212
    1UNL     O5   13   0.165   0.094  -0.280
    1UNL     C9   14   0.286   0.247  -0.154
    1UNL    C10   15   0.205   0.353  -0.186
    1UNL    C11   16   0.221   0.473  -0.126
    1UNL    C12   17   0.321   0.492  -0.031
    1UNL     O6   18   0.319   0.613   0.043
    1UNL    C13   19   0.407   0.390   0.004
    1UNL    C14   20   0.392   0.273  -0.062
    1UNL    C15   21   0.235  -0.344  -0.093
    1UNL    C16   22   0.096  -0.279  -0.065
    1UNL    C17   23   0.172  -0.159   0.004
    1UNL     O7   24   0.131  -0.026  -0.019
    1UNL    C18   25  -0.013  -0.022  -0.013
    1UNL     O8   26  -0.079  -0.094   0.094
    1UNL    C19   27  -0.226  -0.098   0.073
    1UNL    C20   28  -0.292  -0.160   0.197
    1UNL     O9   29  -0.222  -0.267   0.242
    1UNL    C21   30  -0.135  -0.216   0.341
    1UNL    O10   31  -0.124  -0.095   0.361
    1UNL    C22   32  -0.057  -0.322   0.412
    1UNL    C23   33   0.007  -0.284   0.529
    1UNL    C24   34   0.075  -0.386   0.601
    1UNL    C25   35   0.078  -0.514   0.548
    1UNL    C26   36   0.014  -0.542   0.428
    1UNL    C27   37  -0.057  -0.448   0.364
    1UNL    C28   38  -0.293   0.040   0.038
    1UNL    O11   39  -0.336   0.034  -0.095
    1UNL    C29   40  -0.390   0.161  -0.139
    1UNL    O12   41  -0.300   0.270  -0.160
    1UNL    C30   42  -0.325   0.364  -0.263
    1UNL    C31   43  -0.233   0.489  -0.258
    1UNL    O13   44  -0.101   0.459  -0.246
    1UNL    C32   45  -0.317   0.293  -0.409
    1UNL    O14   46  -0.190   0.314  -0.468
    1UNL    C33   47  -0.356   0.147  -0.398
    1UNL    O15   48  -0.244   0.065  -0.377
    1UNL    C34   49  -0.459   0.131  -0.278
    1UNL    O16   50  -0.571   0.208  -0.290
    1UNL    C35   51  -0.189   0.153   0.072
    1UNL    O17   52  -0.174   0.168   0.214
    1UNL    C36   53  -0.058   0.130  -0.010
    1UNL    O18   54  -0.070   0.167  -0.149
    1UNL     H1   55   0.077  -0.147   0.278
    1UNL     H2   56   0.223  -0.100   0.353
    1UNL     H3   57   0.143  -0.011   0.203
    1UNL     H4   58   0.146  -0.390   0.173
    1UNL     H5   59   0.316  -0.378   0.234
    1UNL     H6   60   0.393  -0.574   0.083
    1UNL     H7   61   0.525  -0.150  -0.019
    1UNL     H8   62   0.233  -0.099  -0.276
    1UNL     H9   63   0.400  -0.155  -0.276
    1UNL    H10   64   0.126   0.342  -0.269
    1UNL    H11   65   0.165   0.564  -0.157
    1UNL    H12   66   0.263   0.678  -0.001
    1UNL    H13   67   0.479   0.406   0.083
    1UNL    H14   68   0.450   0.185  -0.041
    1UNL    H15   69   0.257  -0.400  -0.185
    1UNL    H16   70   0.038  -0.246  -0.149
    1UNL    H17   71   0.028  -0.326   0.011
    1UNL    H18   72  -0.043  -0.072  -0.104
    1UNL    H19   73  -0.238  -0.169  -0.012
    1UNL    H20   74  -0.298  -0.090   0.269
    1UNL    H21   75  -0.396  -0.186   0.173
    1UNL    H22   76   0.018  -0.179   0.559
    1UNL    H23   77   0.102  -0.383   0.706
    1UNL    H24   78   0.120  -0.594   0.599
    1UNL    H25   79   0.025  -0.643   0.379
    1UNL    H26   80  -0.123  -0.467   0.283
    1UNL    H27   81  -0.374   0.061   0.105
    1UNL    H28   82  -0.463   0.185  -0.054
    1UNL    H29   83  -0.426   0.411  -0.247
    1UNL    H30   84  -0.263   0.562  -0.180
    1UNL    H31   85  -0.237   0.541  -0.358
    1UNL    H32   86  -0.094   0.368  -0.219
    1UNL    H33   87  -0.393   0.342  -0.473
    1UNL    H34   88  -0.118   0.261  -0.416
    1UNL    H35   89  -0.403   0.110  -0.487
    1UNL    H36   90  -0.200   0.083  -0.290
    1UNL    H37   91  -0.479   0.024  -0.265
    1UNL    H38   92  -0.618   0.217  -0.201
    1UNL    H39   93  -0.230   0.243   0.033
    1UNL    H40   94  -0.151   0.083   0.266
    1UNL    H41   95   0.037   0.179   0.026
    1UNL    H42   96   0.012   0.135  -0.196
   0.00000   0.00000   0.00000   0.00000   0.00000   0.00000   0.00000   0.00000   0.00000
Generated with MDTraj, t= 38.0
 96
    1UNL     C1    1   0.160  -0.121   0.280
    1UNL     C2    2   0.235  -0.190   0.162
    1UNL     C3    3   0.245  -0.345   0.180
    1UNL     C4    4   0.327  -0.396   0.055
    1UNL     O1    5   0.321  -0.536   0.045
    1UNL     O2    6   0.452  -0.329   0.039
    1UNL     C5    7   0.423  -0.193   0.028
    1UNL     O3    8   0.372  -0.141   0.159
    1UNL     C6    9   0.303  -0.186  -0.069
    1UNL     C7   10   0.328  -0.115  -0.207
    1UNL     O4   11   0.371   0.016  -0.181
    1UNL     C8   12   0.276   0.107  -0.217
    1UNL     O5   13   0.177   0.092  -0.288
    1UNL     C9   14   0.288   0.238  -0.141
    1UNL    C10   15   0.208   0.343  -0.179
    1UNL    C11   16   0.234   0.469  -0.130
    1UNL    C12   17   0.329   0.490  -0.026
    1UNL     O6   18   0.350   0.613   0.022
    1UNL    C13   19   0.414   0.382   0.009
    1UNL    C14   20   0.388   0.258  -0.048
    1UNL    C15   21   0.256  -0.334  -0.083
    1UNL    C16   22   0.113  -0.279  -0.058
    1UNL    C17   23   0.178  -0.155   0.019
    1UNL     O7   24   0.129  -0.022  -0.006
    1UNL    C18   25  -0.009  -0.021  -0.014
    1UNL     O8   26  -0.084  -0.086   0.087
    1UNL    C19   27  -0.224  -0.081   0.065
    1UNL    C20   28  -0.293  -0.144   0.188
    1UNL     O9   29  -0.238  -0.261   0.239
    1UNL    C21   30  -0.143  -0.221   0.338
    1UNL    O10   31  -0.126  -0.105   0.364
    1UNL    C22   32  -0.060  -0.325   0.402
    1UNL    C23   33   0.015  -0.304   0.520
    1UNL    C24   34   0.081  -0.406   0.582
    1UNL    C25   35   0.096  -0.527   0.519
    1UNL    C26   36   0.025  -0.554   0.406
    1UNL    C27   37  -0.060  -0.456   0.357
    1UNL    C28   38  -0.283   0.063   0.035
    1UNL    O11   39  -0.340   0.050  -0.095
    1UNL    C29   40  -0.406   0.163  -0.142
    1UNL    O12   41  -0.322   0.278  -0.152
    1UNL    C30   42  -0.339   0.371  -0.267
    1UNL    C31   43  -0.232   0.484  -0.253
    1UNL    O13   44  -0.102   0.420  -0.254
    1UNL    C32   45  -0.338   0.294  -0.410
    1UNL    O14   46  -0.210   0.295  -0.468
    1UNL    C33   47  -0.385   0.143  -0.398
    1UNL    O15   48  -0.278   0.054  -0.361
    1UNL    C34   49  -0.490   0.140  -0.275
    1UNL    O16   50  -0.594   0.232  -0.294
    1UNL    C35   51  -0.176   0.169   0.055
    1UNL    O17   52  -0.160   0.177   0.193
    1UNL    C36   53  -0.046   0.130  -0.019
    1UNL    O18   54  -0.057   0.163  -0.163
    1UNL     H1   55   0.057  -0.101   0.261
    1UNL     H2   56   0.163  -0.196   0.365
    1UNL     H3   57   0.202  -0.023   0.300
    1UNL     H4   58   0.154  -0.392   0.169
    1UNL     H5   59   0.295  -0.373   0.266
    1UNL     H6   60   0.364  -0.559  -0.045
    1UNL     H7   61   0.518  -0.136  -0.014
    1UNL     H8   62   0.236  -0.108  -0.264
    1UNL     H9   63   0.402  -0.166  -0.269
    1UNL    H10   64   0.140   0.325  -0.253
    1UNL    H11   65   0.189   0.551  -0.176
    1UNL    H12   66   0.276   0.664  -0.009
    1UNL    H13   67   0.481   0.397   0.092
    1UNL    H14   68   0.450   0.177  -0.022
    1UNL    H15   69   0.263  -0.403  -0.170
    1UNL    H16   70   0.049  -0.265  -0.145
    1UNL    H17   71   0.062  -0.346   0.018
    1UNL    H18   72  -0.035  -0.059  -0.111
    1UNL    H19   73  -0.249  -0.129  -0.031
    1UNL    H20   74  -0.295  -0.071   0.256
    1UNL    H21   75  -0.399  -0.161   0.160
    1UNL    H22   76   0.018  -0.212   0.571
    1UNL    H23   77   0.148  -0.391   0.663
    1UNL    H24   78   0.141  -0.625   0.557
    1UNL    H25   79   0.024  -0.640   0.349
    1UNL    H26   80  -0.111  -0.477   0.261
    1UNL    H27   81  -0.364   0.072   0.106
    1UNL    H28   82  -0.482   0.199  -0.064
    1UNL    H29   83  -0.442   0.407  -0.246
    1UNL    H30   84  -0.232   0.530  -0.155
    1UNL    H31   85  -0.245   0.566  -0.326
    1UNL    H32   86  -0.117   0.343  -0.200
    1UNL    H33   87  -0.411   0.336  -0.483
    1UNL    H34   88  -0.155   0.246  -0.407
    1UNL    H35   89  -0.426   0.118  -0.496
    1UNL    H36   90  -0.247   0.075  -0.272
    1UNL    H37   91  -0.524   0.040  -0.286
    1UNL    H38   92  -0.623   0.232  -0.394
    1UNL    H39   93  -0.218   0.261   0.019
    1UNL    H40   94  -0.135   0.090   0.238
    1UNL    H41   95   0.038   0.193   0.015
    1UNL    H42   96   0.023   0.133  -0.211
   0.00000   0.00000   0.00000   0.00000   0.00000   0.00000   0.00000   0.00000   0.00000
Generated with MDTraj, t= 39.0
 96
    1UNL     C1    1   0.171  -0.087   0.266
    1UNL     C2    2   0.239  -0.178   0.167
    1UNL     C3    3   0.249  -0.330   0.191
    1UNL     C4    4   0.322  -0.400   0.063
    1UNL     O1    5   0.323  -0.538   0.085
    1UNL     O2    6   0.458  -0.342   0.062
    1UNL     C5    7   0.431  -0.203   0.040
    1UNL     O3    8   0.374  -0.135   0.156
    1UNL     C6    9   0.315  -0.198  -0.067
    1UNL     C7   10   0.342  -0.116  -0.198
    1UNL     O4   11   0.381   0.015  -0.173
    1UNL     C8   12   0.283   0.107  -0.214
    1UNL     O5   13   0.184   0.073  -0.275
    1UNL     C9   14   0.301   0.241  -0.154
    1UNL    C10   15   0.228   0.357  -0.191
    1UNL    C11   16   0.248   0.485  -0.141
    1UNL    C12   17   0.338   0.496  -0.039
    1UNL     O6   18   0.365   0.615   0.026
    1UNL    C13   19   0.407   0.383   0.008
    1UNL    C14   20   0.393   0.258  -0.052
    1UNL    C15   21   0.257  -0.343  -0.074
    1UNL    C16   22   0.116  -0.281  -0.051
    1UNL    C17   23   0.186  -0.162   0.019
    1UNL     O7   24   0.127  -0.026  -0.009
    1UNL    C18   25  -0.015  -0.024  -0.015
    1UNL     O8   26  -0.086  -0.072   0.099
    1UNL    C19   27  -0.232  -0.078   0.079
    1UNL    C20   28  -0.311  -0.138   0.194
    1UNL     O9   29  -0.252  -0.259   0.243
    1UNL    C21   30  -0.152  -0.223   0.332
    1UNL    O10   31  -0.139  -0.109   0.364
    1UNL    C22   32  -0.069  -0.332   0.394
    1UNL    C23   33   0.013  -0.318   0.509
    1UNL    C24   34   0.093  -0.423   0.554
    1UNL    C25   35   0.098  -0.543   0.487
    1UNL    C26   36   0.029  -0.551   0.375
    1UNL    C27   37  -0.063  -0.455   0.336
    1UNL    C28   38  -0.291   0.064   0.026
    1UNL    O11   39  -0.345   0.051  -0.104
    1UNL    C29   40  -0.410   0.172  -0.143
    1UNL    O12   41  -0.312   0.275  -0.171
    1UNL    C30   42  -0.341   0.372  -0.269
    1UNL    C31   43  -0.252   0.495  -0.258
    1UNL    O13   44  -0.121   0.446  -0.227
    1UNL    C32   45  -0.346   0.296  -0.410
    1UNL    O14   46  -0.212   0.288  -0.455
    1UNL    C33   47  -0.398   0.146  -0.387
    1UNL    O15   48  -0.284   0.068  -0.357
    1UNL    C34   49  -0.496   0.135  -0.265
    1UNL    O16   50  -0.602   0.222  -0.270
    1UNL    C35   51  -0.172   0.166   0.041
    1UNL    O17   52  -0.144   0.172   0.185
    1UNL    C36   53  -0.054   0.123  -0.045
    1UNL    O18   54  -0.072   0.139  -0.192
    1UNL     H1   55   0.063  -0.119   0.273
    1UNL     H2   56   0.217  -0.097   0.366
    1UNL     H3   57   0.169   0.012   0.222
    1UNL     H4   58   0.159  -0.383   0.192
    1UNL     H5   59   0.307  -0.352   0.273
    1UNL     H6   60   0.412  -0.556   0.127
    1UNL     H7   61   0.523  -0.139   0.002
    1UNL     H8   62   0.258  -0.112  -0.267
    1UNL     H9   63   0.426  -0.157  -0.256
    1UNL    H10   64   0.154   0.342  -0.273
    1UNL    H11   65   0.197   0.575  -0.180
    1UNL    H12   66   0.313   0.690  -0.003
    1UNL    H13   67   0.476   0.388   0.090
    1UNL    H14   68   0.431   0.170   0.007
    1UNL    H15   69   0.289  -0.396  -0.166
    1UNL    H16   70   0.058  -0.254  -0.142
    1UNL    H17   71   0.053  -0.336   0.022
    1UNL    H18   72  -0.047  -0.080  -0.100
    1UNL    H19   73  -0.243  -0.141  -0.007
    1UNL    H20   74  -0.319  -0.069   0.267
    1UNL    H21   75  -0.416  -0.162   0.162
    1UNL    H22   76   0.024  -0.224   0.568
    1UNL    H23   77   0.166  -0.415   0.636
    1UNL    H24   78   0.168  -0.614   0.511
    1UNL    H25   79   0.041  -0.649   0.317
    1UNL    H26   80  -0.112  -0.458   0.244
    1UNL    H27   81  -0.371   0.076   0.101
    1UNL    H28   82  -0.476   0.211  -0.059
    1UNL    H29   83  -0.438   0.401  -0.227
    1UNL    H30   84  -0.288   0.563  -0.183
    1UNL    H31   85  -0.249   0.542  -0.355
    1UNL    H32   86  -0.120   0.347  -0.214
    1UNL    H33   87  -0.408   0.343  -0.492
    1UNL    H34   88  -0.167   0.223  -0.405
    1UNL    H35   89  -0.449   0.120  -0.483
    1UNL    H36   90  -0.251   0.094  -0.267
    1UNL    H37   91  -0.523   0.035  -0.244
    1UNL    H38   92  -0.687   0.190  -0.229
    1UNL    H39   93  -0.213   0.264   0.027
    1UNL    H40   94  -0.140   0.087   0.230
    1UNL    H41   95   0.030   0.182  -0.006
    1UNL    H42   96   0.018   0.114  -0.231
   0.00000   0.00000   0.00000   0.00000   0.00000   0.00000   0.00000   0.00000   0.00000
Generated with MDTraj, t= 40.0
 96
    1UNL     C1    1   0.155  -0.070   0.255
    1UNL     C2    2   0.233  -0.162   0.174
    1UNL     C3    3   0.247  -0.314   0.216
    1UNL     C4    4   0.316  -0.391   0.094
    1UNL     O1    5   0.319  -0.533   0.111
    1UNL     O2    6   0.448  -0.328   0.079
    1UNL     C5    7   0.417  -0.186   0.051
    1UNL     O3    8   0.371  -0.119   0.163
    1UNL     C6    9   0.299  -0.199  -0.060
    1UNL     C7   10   0.318  -0.125  -0.188
    1UNL     O4   11   0.382  -0.002  -0.168
    1UNL     C8   12   0.292   0.098  -0.208
    1UNL     O5   13   0.201   0.080  -0.286
    1UNL     C9   14   0.315   0.239  -0.159
    1UNL    C10   15   0.245   0.342  -0.213
    1UNL    C11   16   0.253   0.467  -0.152
    1UNL    C12   17   0.339   0.490  -0.042
    1UNL     O6   18   0.359   0.616   0.007
    1UNL    C13   19   0.409   0.383   0.008
    1UNL    C14   20   0.397   0.254  -0.047
    1UNL    C15   21   0.243  -0.347  -0.045
    1UNL    C16   22   0.109  -0.285  -0.037
    1UNL    C17   23   0.173  -0.159   0.024
    1UNL     O7   24   0.126  -0.031  -0.021
    1UNL    C18   25  -0.012  -0.021  -0.034
    1UNL     O8   26  -0.080  -0.084   0.071
    1UNL    C19   27  -0.227  -0.084   0.070
    1UNL    C20   28  -0.291  -0.131   0.193
    1UNL     O9   29  -0.233  -0.252   0.236
    1UNL    C21   30  -0.141  -0.216   0.325
    1UNL    O10   31  -0.130  -0.107   0.371
    1UNL    C22   32  -0.066  -0.335   0.382
    1UNL    C23   33   0.024  -0.328   0.493
    1UNL    C24   34   0.101  -0.438   0.524
    1UNL    C25   35   0.094  -0.554   0.454
    1UNL    C26   36   0.014  -0.557   0.345
    1UNL    C27   37  -0.056  -0.449   0.303
    1UNL    C28   38  -0.283   0.060   0.033
    1UNL    O11   39  -0.340   0.047  -0.092
    1UNL    C29   40  -0.415   0.161  -0.130
    1UNL    O12   41  -0.327   0.276  -0.139
    1UNL    C30   42  -0.352   0.367  -0.247
    1UNL    C31   43  -0.255   0.485  -0.238
    1UNL    O13   44  -0.121   0.446  -0.234
    1UNL    C32   45  -0.345   0.295  -0.390
    1UNL    O14   46  -0.210   0.295  -0.421
    1UNL    C33   47  -0.395   0.153  -0.392
    1UNL    O15   48  -0.294   0.052  -0.395
    1UNL    C34   49  -0.491   0.132  -0.267
    1UNL    O16   50  -0.613   0.205  -0.278
    1UNL    C35   51  -0.172   0.165   0.043
    1UNL    O17   52  -0.139   0.188   0.180
    1UNL    C36   53  -0.049   0.133  -0.042
    1UNL    O18   54  -0.060   0.161  -0.183
    1UNL     H1   55   0.046  -0.107   0.259
    1UNL     H2   56   0.193  -0.064   0.356
    1UNL     H3   57   0.152   0.024   0.202
    1UNL     H4   58   0.156  -0.365   0.225
    1UNL     H5   59   0.301  -0.333   0.302
    1UNL     H6   60   0.405  -0.555   0.154
    1UNL     H7   61   0.498  -0.120  -0.004
    1UNL     H8   62   0.223  -0.110  -0.242
    1UNL     H9   63   0.383  -0.175  -0.263
    1UNL    H10   64   0.190   0.333  -0.304
    1UNL    H11   65   0.200   0.543  -0.201
    1UNL    H12   66   0.316   0.684  -0.048
    1UNL    H13   67   0.463   0.399   0.102
    1UNL    H14   68   0.448   0.175  -0.003
    1UNL    H15   69   0.273  -0.413  -0.129
    1UNL    H16   70   0.072  -0.269  -0.143
    1UNL    H17   71   0.037  -0.335   0.029
    1UNL    H18   72  -0.043  -0.071  -0.123
    1UNL    H19   73  -0.247  -0.148  -0.011
    1UNL    H20   74  -0.288  -0.064   0.271
    1UNL    H21   75  -0.401  -0.153   0.171
    1UNL    H22   76   0.043  -0.242   0.550
    1UNL    H23   77   0.154  -0.442   0.616
    1UNL    H24   78   0.157  -0.638   0.498
    1UNL    H25   79   0.016  -0.643   0.289
    1UNL    H26   80  -0.138  -0.465   0.226
    1UNL    H27   81  -0.367   0.081   0.105
    1UNL    H28   82  -0.491   0.182  -0.051
    1UNL    H29   83  -0.446   0.423  -0.239
    1UNL    H30   84  -0.267   0.528  -0.140
    1UNL    H31   85  -0.279   0.565  -0.307
    1UNL    H32   86  -0.104   0.353  -0.202
    1UNL    H33   87  -0.398   0.357  -0.467
    1UNL    H34   88  -0.168   0.222  -0.359
    1UNL    H35   89  -0.451   0.125  -0.489
    1UNL    H36   90  -0.256   0.035  -0.302
    1UNL    H37   91  -0.514   0.028  -0.264
    1UNL    H38   92  -0.622   0.278  -0.219
    1UNL    H39   93  -0.218   0.251  -0.001
    1UNL    H40   94  -0.127   0.095   0.214
    1UNL    H41   95   0.036   0.193  -0.011
    1UNL    H42   96   0.025   0.138  -0.224
   0.00000   0.00000   0.00000   0.00000   0.00000   0.00000   0.00000   0.00000   0.00000
Generated with MDTraj, t= 41.0
 96
    1UNL     C1    1   0.153  -0.050   0.264
    1UNL     C2    2   0.229  -0.144   0.172
    1UNL     C3    3   0.244  -0.289   0.222
    1UNL     C4    4   0.315  -0.374   0.115
    1UNL     O1    5   0.295  -0.510   0.147
    1UNL     O2    6   0.447  -0.325   0.099
    1UNL     C5    7   0.424  -0.189   0.056
    1UNL     O3    8   0.372  -0.106   0.161
    1UNL     C6    9   0.309  -0.197  -0.053
    1UNL     C7   10   0.321  -0.135  -0.189
    1UNL     O4   11   0.378  -0.005  -0.177
    1UNL     C8   12   0.284   0.086  -0.218
    1UNL     O5   13   0.193   0.061  -0.295
    1UNL     C9   14   0.306   0.228  -0.170
    1UNL    C10   15   0.244   0.331  -0.234
    1UNL    C11   16   0.260   0.455  -0.170
    1UNL    C12   17   0.346   0.476  -0.065
    1UNL     O6   18   0.355   0.602  -0.003
    1UNL    C13   19   0.407   0.368  -0.006
    1UNL    C14   20   0.384   0.244  -0.060
    1UNL    C15   21   0.255  -0.340  -0.032
    1UNL    C16   22   0.113  -0.271  -0.026
    1UNL    C17   23   0.181  -0.142   0.027
    1UNL     O7   24   0.134  -0.021  -0.022
    1UNL    C18   25  -0.006  -0.017  -0.023
    1UNL     O8   26  -0.075  -0.078   0.085
    1UNL    C19   27  -0.222  -0.083   0.067
    1UNL    C20   28  -0.278  -0.128   0.196
    1UNL     O9   29  -0.234  -0.259   0.237
    1UNL    C21   30  -0.138  -0.237   0.331
    1UNL    O10   31  -0.110  -0.129   0.372
    1UNL    C22   32  -0.058  -0.353   0.371
    1UNL    C23   33   0.032  -0.344   0.477
    1UNL    C24   34   0.114  -0.450   0.501
    1UNL    C25   35   0.102  -0.563   0.432
    1UNL    C26   36   0.010  -0.582   0.333
    1UNL    C27   37  -0.069  -0.475   0.296
    1UNL    C28   38  -0.286   0.057   0.024
    1UNL    O11   39  -0.338   0.054  -0.105
    1UNL    C29   40  -0.422   0.161  -0.136
    1UNL    O12   41  -0.356   0.290  -0.135
    1UNL    C30   42  -0.354   0.374  -0.255
    1UNL    C31   43  -0.267   0.495  -0.232
    1UNL    O13   44  -0.134   0.464  -0.188
    1UNL    C32   45  -0.322   0.295  -0.385
    1UNL    O14   46  -0.188   0.298  -0.411
    1UNL    C33   47  -0.386   0.153  -0.390
    1UNL    O15   48  -0.292   0.051  -0.391
    1UNL    C34   49  -0.494   0.132  -0.273
    1UNL    O16   50  -0.605   0.222  -0.290
    1UNL    C35   51  -0.183   0.167   0.042
    1UNL    O17   52  -0.160   0.189   0.185
    1UNL    C36   53  -0.052   0.139  -0.036
    1UNL    O18   54  -0.064   0.168  -0.173
    1UNL     H1   55   0.047  -0.037   0.247
    1UNL     H2   56   0.169  -0.065   0.369
    1UNL     H3   57   0.199   0.049   0.244
    1UNL     H4   58   0.150  -0.342   0.244
    1UNL     H5   59   0.300  -0.287   0.313
    1UNL     H6   60   0.376  -0.541   0.186
    1UNL     H7   61   0.525  -0.145   0.015
    1UNL     H8   62   0.231  -0.114  -0.250
    1UNL     H9   63   0.379  -0.197  -0.261
    1UNL    H10   64   0.183   0.308  -0.320
    1UNL    H11   65   0.211   0.540  -0.220
    1UNL    H12   66   0.301   0.672  -0.049
    1UNL    H13   67   0.457   0.384   0.087
    1UNL    H14   68   0.425   0.155  -0.005
    1UNL    H15   69   0.283  -0.406  -0.116
    1UNL    H16   70   0.081  -0.266  -0.135
    1UNL    H17   71   0.041  -0.321   0.038
    1UNL    H18   72  -0.037  -0.073  -0.110
    1UNL    H19   73  -0.231  -0.153  -0.009
    1UNL    H20   74  -0.251  -0.059   0.267
    1UNL    H21   75  -0.391  -0.144   0.194
    1UNL    H22   76   0.040  -0.244   0.529
    1UNL    H23   77   0.184  -0.441   0.586
    1UNL    H24   78   0.147  -0.649   0.466
    1UNL    H25   79  -0.012  -0.692   0.306
    1UNL    H26   80  -0.119  -0.481   0.206
    1UNL    H27   81  -0.366   0.087   0.098
    1UNL    H28   82  -0.497   0.164  -0.056
    1UNL    H29   83  -0.453   0.412  -0.268
    1UNL    H30   84  -0.314   0.560  -0.157
    1UNL    H31   85  -0.249   0.558  -0.321
    1UNL    H32   86  -0.111   0.366  -0.178
    1UNL    H33   87  -0.371   0.347  -0.470
    1UNL    H34   88  -0.145   0.251  -0.343
    1UNL    H35   89  -0.453   0.132  -0.483
    1UNL    H36   90  -0.240   0.059  -0.312
    1UNL    H37   91  -0.538   0.031  -0.271
    1UNL    H38   92  -0.686   0.184  -0.320
    1UNL    H39   93  -0.224   0.263   0.011
    1UNL    H40   94  -0.132   0.103   0.219
    1UNL    H41   95   0.030   0.200   0.001
    1UNL    H42   96   0.016   0.134  -0.215
   0.00000   0.00000   0.00000   0.00000   0.00000   0.00000   0.00000   0.00000   0.00000
Generated with MDTraj, t= 42.0
 96
    1UNL     C1    1   0.175  -0.025   0.280
    1UNL     C2    2   0.241  -0.128   0.184
    1UNL     C3    3   0.237  -0.274   0.226
    1UNL     C4    4   0.309  -0.360   0.119
    1UNL     O1    5   0.301  -0.498   0.163
    1UNL     O2    6   0.441  -0.312   0.103
    1UNL     C5    7   0.419  -0.175   0.053
    1UNL     O3    8   0.374  -0.092   0.163
    1UNL     C6    9   0.299  -0.185  -0.050
    1UNL     C7   10   0.320  -0.145  -0.193
    1UNL     O4   11   0.378  -0.016  -0.204
    1UNL     C8   12   0.274   0.068  -0.227
    1UNL     O5   13   0.172   0.029  -0.278
    1UNL     C9   14   0.293   0.211  -0.180
    1UNL    C10   15   0.232   0.321  -0.237
    1UNL    C11   16   0.252   0.452  -0.194
    1UNL    C12   17   0.338   0.469  -0.083
    1UNL     O6   18   0.355   0.593  -0.024
    1UNL    C13   19   0.395   0.356  -0.025
    1UNL    C14   20   0.372   0.226  -0.069
    1UNL    C15   21   0.245  -0.328  -0.020
    1UNL    C16   22   0.104  -0.260  -0.008
    1UNL    C17   23   0.175  -0.126   0.036
    1UNL     O7   24   0.129  -0.006  -0.005
    1UNL    C18   25  -0.009  -0.002  -0.008
    1UNL     O8   26  -0.074  -0.057   0.109
    1UNL    C19   27  -0.215  -0.081   0.082
    1UNL    C20   28  -0.290  -0.149   0.197
    1UNL     O9   29  -0.227  -0.270   0.225
    1UNL    C21   30  -0.132  -0.250   0.320
    1UNL    O10   31  -0.108  -0.145   0.371
    1UNL    C22   32  -0.052  -0.370   0.367
    1UNL    C23   33   0.037  -0.366   0.473
    1UNL    C24   34   0.119  -0.473   0.499
    1UNL    C25   35   0.098  -0.585   0.422
    1UNL    C26   36  -0.003  -0.598   0.326
    1UNL    C27   37  -0.075  -0.485   0.295
    1UNL    C28   38  -0.287   0.053   0.030
    1UNL    O11   39  -0.350   0.043  -0.103
    1UNL    C29   40  -0.407   0.163  -0.153
    1UNL    O12   41  -0.321   0.277  -0.156
    1UNL    C30   42  -0.352   0.374  -0.267
    1UNL    C31   43  -0.289   0.507  -0.223
    1UNL    O13   44  -0.164   0.487  -0.148
    1UNL    C32   45  -0.311   0.311  -0.400
    1UNL    O14   46  -0.170   0.312  -0.419
    1UNL    C33   47  -0.367   0.157  -0.388
    1UNL    O15   48  -0.259   0.072  -0.357
    1UNL    C34   49  -0.479   0.140  -0.290
    1UNL    O16   50  -0.594   0.221  -0.300
    1UNL    C35   51  -0.189   0.169   0.047
    1UNL    O17   52  -0.145   0.182   0.188
    1UNL    C36   53  -0.056   0.150  -0.036
    1UNL    O18   54  -0.062   0.174  -0.176
    1UNL     H1   55   0.077  -0.060   0.291
    1UNL     H2   56   0.233  -0.003   0.370
    1UNL     H3   57   0.153   0.076   0.236
    1UNL     H4   58   0.141  -0.316   0.264
    1UNL     H5   59   0.305  -0.282   0.318
    1UNL     H6   60   0.389  -0.530   0.160
    1UNL     H7   61   0.520  -0.124   0.019
    1UNL     H8   62   0.237  -0.153  -0.266
    1UNL     H9   63   0.402  -0.198  -0.247
    1UNL    H10   64   0.175   0.306  -0.332
    1UNL    H11   65   0.196   0.528  -0.248
    1UNL    H12   66   0.286   0.659  -0.054
    1UNL    H13   67   0.452   0.364   0.069
    1UNL    H14   68   0.402   0.144  -0.012
    1UNL    H15   69   0.255  -0.405  -0.100
    1UNL    H16   70   0.058  -0.255  -0.110
    1UNL    H17   71   0.039  -0.311   0.060
    1UNL    H18   72  -0.049  -0.061  -0.090
    1UNL    H19   73  -0.227  -0.145   0.001
    1UNL    H20   74  -0.284  -0.096   0.285
    1UNL    H21   75  -0.401  -0.171   0.171
    1UNL    H22   76   0.044  -0.276   0.524
    1UNL    H23   77   0.216  -0.457   0.543
    1UNL    H24   78   0.153  -0.678   0.452
    1UNL    H25   79  -0.015  -0.692   0.283
    1UNL    H26   80  -0.128  -0.499   0.194
    1UNL    H27   81  -0.371   0.074   0.101
    1UNL    H28   82  -0.485   0.183  -0.080
    1UNL    H29   83  -0.458   0.385  -0.268
    1UNL    H30   84  -0.343   0.573  -0.151
    1UNL    H31   85  -0.271   0.569  -0.315
    1UNL    H32   86  -0.139   0.391  -0.159
    1UNL    H33   87  -0.343   0.366  -0.489
    1UNL    H34   88  -0.121   0.260  -0.344
    1UNL    H35   89  -0.398   0.123  -0.494
    1UNL    H36   90  -0.220   0.102  -0.267
    1UNL    H37   91  -0.516   0.035  -0.300
    1UNL    H38   92  -0.663   0.165  -0.349
    1UNL    H39   93  -0.227   0.269   0.034
    1UNL    H40   94  -0.117   0.095   0.222
    1UNL    H41   95   0.017   0.215   0.016
    1UNL    H42   96   0.016   0.124  -0.216
   0.00000   0.00000   0.00000   0.00000   0.00000   0.00000   0.00000   0.00000   0.00000
Generated with MDTraj, t= 43.0
 96
    1UNL     C1    1   0.175  -0.022   0.274
    1UNL     C2    2   0.244  -0.122   0.192
    1UNL     C3    3   0.256  -0.268   0.245
    1UNL     C4    4   0.321  -0.358   0.134
    1UNL     O1    5   0.317  -0.495   0.172
    1UNL     O2    6   0.446  -0.301   0.099
    1UNL     C5    7   0.417  -0.167   0.049
    1UNL     O3    8   0.383  -0.083   0.166
    1UNL     C6    9   0.293  -0.194  -0.043
    1UNL     C7   10   0.291  -0.153  -0.185
    1UNL     O4   11   0.352  -0.027  -0.214
    1UNL     C8   12   0.257   0.069  -0.243
    1UNL     O5   13   0.152   0.036  -0.288
    1UNL     C9   14   0.276   0.205  -0.190
    1UNL    C10   15   0.213   0.309  -0.250
    1UNL    C11   16   0.235   0.441  -0.206
    1UNL    C12   17   0.318   0.466  -0.096
    1UNL     O6   18   0.350   0.596  -0.054
    1UNL    C13   19   0.386   0.357  -0.035
    1UNL    C14   20   0.358   0.224  -0.081
    1UNL    C15   21   0.233  -0.333  -0.001
    1UNL    C16   22   0.097  -0.266   0.021
    1UNL    C17   23   0.169  -0.131   0.050
    1UNL     O7   24   0.123  -0.007  -0.004
    1UNL    C18   25  -0.014   0.008  -0.015
    1UNL     O8   26  -0.081  -0.065   0.085
    1UNL    C19   27  -0.220  -0.079   0.071
    1UNL    C20   28  -0.276  -0.145   0.196
    1UNL     O9   29  -0.220  -0.271   0.220
    1UNL    C21   30  -0.119  -0.252   0.312
    1UNL    O10   31  -0.096  -0.148   0.371
    1UNL    C22   32  -0.053  -0.380   0.358
    1UNL    C23   33   0.022  -0.383   0.474
    1UNL    C24   34   0.098  -0.497   0.501
    1UNL    C25   35   0.078  -0.612   0.426
    1UNL    C26   36  -0.002  -0.608   0.318
    1UNL    C27   37  -0.067  -0.494   0.277
    1UNL    C28   38  -0.285   0.060   0.041
    1UNL    O11   39  -0.309   0.053  -0.101
    1UNL    C29   40  -0.403   0.152  -0.148
    1UNL    O12   41  -0.347   0.288  -0.138
    1UNL    C30   42  -0.358   0.384  -0.244
    1UNL    C31   43  -0.269   0.496  -0.211
    1UNL    O13   44  -0.137   0.465  -0.178
    1UNL    C32   45  -0.315   0.327  -0.381
    1UNL    O14   46  -0.180   0.351  -0.413
    1UNL    C33   47  -0.332   0.167  -0.392
    1UNL    O15   48  -0.213   0.097  -0.356
    1UNL    C34   49  -0.443   0.117  -0.301
    1UNL    O16   50  -0.572   0.167  -0.325
    1UNL    C35   51  -0.194   0.179   0.064
    1UNL    O17   52  -0.165   0.205   0.197
    1UNL    C36   53  -0.058   0.157  -0.014
    1UNL    O18   54  -0.062   0.209  -0.146
    1UNL     H1   55   0.075  -0.054   0.287
    1UNL     H2   56   0.243  -0.003   0.359
    1UNL     H3   57   0.158   0.078   0.225
    1UNL     H4   58   0.157  -0.309   0.275
    1UNL     H5   59   0.309  -0.278   0.350
    1UNL     H6   60   0.403  -0.534   0.159
    1UNL     H7   61   0.512  -0.123  -0.005
    1UNL     H8   62   0.189  -0.147  -0.225
    1UNL     H9   63   0.345  -0.226  -0.247
    1UNL    H10   64   0.158   0.292  -0.335
    1UNL    H11   65   0.204   0.525  -0.263
    1UNL    H12   66   0.286   0.666  -0.087
    1UNL    H13   67   0.457   0.379   0.042
    1UNL    H14   68   0.402   0.138  -0.027
    1UNL    H15   69   0.240  -0.415  -0.075
    1UNL    H16   70   0.032  -0.249  -0.065
    1UNL    H17   71   0.026  -0.300   0.096
    1UNL    H18   72  -0.048  -0.036  -0.110
    1UNL    H19   73  -0.250  -0.143  -0.006
    1UNL    H20   74  -0.248  -0.081   0.273
    1UNL    H21   75  -0.392  -0.160   0.196
    1UNL    H22   76   0.036  -0.277   0.509
    1UNL    H23   77   0.168  -0.485   0.585
    1UNL    H24   78   0.146  -0.689   0.452
    1UNL    H25   79  -0.017  -0.697   0.254
    1UNL    H26   80  -0.138  -0.497   0.204
    1UNL    H27   81  -0.387   0.067   0.082
    1UNL    H28   82  -0.487   0.147  -0.082
    1UNL    H29   83  -0.460   0.407  -0.252
    1UNL    H30   84  -0.323   0.547  -0.126
    1UNL    H31   85  -0.250   0.560  -0.300
    1UNL    H32   86  -0.129   0.374  -0.146
    1UNL    H33   87  -0.370   0.373  -0.464
    1UNL    H34   88  -0.125   0.309  -0.341
    1UNL    H35   89  -0.355   0.141  -0.502
    1UNL    H36   90  -0.195   0.105  -0.256
    1UNL    H37   91  -0.466   0.006  -0.318
    1UNL    H38   92  -0.563   0.267  -0.300
    1UNL    H39   93  -0.232   0.263   0.008
    1UNL    H40   94  -0.118   0.121   0.226
    1UNL    H41   95   0.023   0.206   0.045
    1UNL    H42   96   0.010   0.161  -0.200
   0.00000   0.00000   0.00000   0.00000   0.00000   0.00000   0.00000   0.00000   0.00000
Generated with MDTraj, t= 44.0
 96
    1UNL     C1    1   0.182  -0.012   0.265
    1UNL     C2    2   0.255  -0.123   0.191
    1UNL     C3    3   0.268  -0.258   0.255
    1UNL     C4    4   0.323  -0.358   0.138
    1UNL     O1    5   0.315  -0.492   0.184
    1UNL     O2    6   0.457  -0.310   0.095
    1UNL     C5    7   0.426  -0.180   0.040
    1UNL     O3    8   0.386  -0.089   0.144
    1UNL     C6    9   0.290  -0.196  -0.043
    1UNL     C7   10   0.282  -0.149  -0.184
    1UNL     O4   11   0.331  -0.016  -0.194
    1UNL     C8   12   0.241   0.068  -0.244
    1UNL     O5   13   0.140   0.032  -0.293
    1UNL     C9   14   0.267   0.211  -0.208
    1UNL    C10   15   0.201   0.317  -0.277
    1UNL    C11   16   0.228   0.442  -0.230
    1UNL    C12   17   0.312   0.470  -0.122
    1UNL     O6   18   0.327   0.599  -0.064
    1UNL    C13   19   0.378   0.364  -0.058
    1UNL    C14   20   0.348   0.236  -0.097
    1UNL    C15   21   0.240  -0.335   0.001
    1UNL    C16   22   0.101  -0.267   0.033
    1UNL    C17   23   0.180  -0.131   0.050
    1UNL     O7   24   0.128  -0.002  -0.003
    1UNL    C18   25  -0.011   0.007  -0.005
    1UNL     O8   26  -0.073  -0.062   0.108
    1UNL    C19   27  -0.217  -0.082   0.088
    1UNL    C20   28  -0.282  -0.139   0.216
    1UNL     O9   29  -0.238  -0.265   0.248
    1UNL    C21   30  -0.124  -0.253   0.324
    1UNL    O10   31  -0.083  -0.148   0.370
    1UNL    C22   32  -0.064  -0.384   0.362
    1UNL    C23   33   0.003  -0.397   0.478
    1UNL    C24   34   0.061  -0.518   0.511
    1UNL    C25   35   0.062  -0.629   0.419
    1UNL    C26   36   0.001  -0.609   0.296
    1UNL    C27   37  -0.065  -0.488   0.271
    1UNL    C28   38  -0.283   0.042   0.036
    1UNL    O11   39  -0.319   0.035  -0.102
    1UNL    C29   40  -0.381   0.149  -0.160
    1UNL    O12   41  -0.308   0.271  -0.141
    1UNL    C30   42  -0.351   0.372  -0.234
    1UNL    C31   43  -0.278   0.513  -0.198
    1UNL    O13   44  -0.142   0.502  -0.172
    1UNL    C32   45  -0.305   0.329  -0.378
    1UNL    O14   46  -0.169   0.367  -0.394
    1UNL    C33   47  -0.320   0.175  -0.394
    1UNL    O15   48  -0.202   0.110  -0.373
    1UNL    C34   49  -0.423   0.116  -0.306
    1UNL    O16   50  -0.551   0.158  -0.353
    1UNL    C35   51  -0.191   0.170   0.071
    1UNL    O17   52  -0.164   0.177   0.219
    1UNL    C36   53  -0.057   0.159  -0.010
    1UNL    O18   54  -0.068   0.214  -0.143
    1UNL     H1   55   0.074  -0.021   0.250
    1UNL     H2   56   0.233   0.012   0.361
    1UNL     H3   57   0.196   0.082   0.211
    1UNL     H4   58   0.182  -0.304   0.314
    1UNL     H5   59   0.350  -0.249   0.338
    1UNL     H6   60   0.385  -0.500   0.253
    1UNL     H7   61   0.515  -0.142  -0.029
    1UNL     H8   62   0.178  -0.157  -0.214
    1UNL     H9   63   0.344  -0.212  -0.249
    1UNL    H10   64   0.122   0.295  -0.358
    1UNL    H11   65   0.181   0.524  -0.290
    1UNL    H12   66   0.277   0.662  -0.123
    1UNL    H13   67   0.440   0.376   0.030
    1UNL    H14   68   0.386   0.157  -0.038
    1UNL    H15   69   0.244  -0.410  -0.082
    1UNL    H16   70   0.031  -0.273  -0.049
    1UNL    H17   71   0.047  -0.285   0.127
    1UNL    H18   72  -0.042  -0.039  -0.102
    1UNL    H19   73  -0.217  -0.170   0.025
    1UNL    H20   74  -0.260  -0.083   0.303
    1UNL    H21   75  -0.395  -0.150   0.196
    1UNL    H22   76   0.014  -0.310   0.534
    1UNL    H23   77   0.113  -0.526   0.604
    1UNL    H24   78   0.119  -0.719   0.442
    1UNL    H25   79  -0.009  -0.697   0.234
    1UNL    H26   80  -0.129  -0.495   0.177
    1UNL    H27   81  -0.378   0.059   0.085
    1UNL    H28   82  -0.466   0.166  -0.100
    1UNL    H29   83  -0.454   0.386  -0.243
    1UNL    H30   84  -0.316   0.546  -0.100
    1UNL    H31   85  -0.300   0.584  -0.279
    1UNL    H32   86  -0.125   0.412  -0.137
    1UNL    H33   87  -0.369   0.382  -0.450
    1UNL    H34   88  -0.126   0.321  -0.321
    1UNL    H35   89  -0.340   0.152  -0.503
    1UNL    H36   90  -0.177   0.098  -0.281
    1UNL    H37   91  -0.431   0.002  -0.329
    1UNL    H38   92  -0.573   0.255  -0.330
    1UNL    H39   93  -0.241   0.264   0.050
    1UNL    H40   94  -0.131   0.089   0.241
    1UNL    H41   95   0.021   0.205   0.057
    1UNL    H42   96   0.000   0.167  -0.192
   0.00000   0.00000   0.00000   0.00000   0.00000   0.00000   0.00000   0.00000   0.00000
Generated with MDTraj, t= 45.0
 96
    1UNL     C1    1   0.207  -0.006   0.291
    1UNL     C2    2   0.254  -0.117   0.189
    1UNL     C3    3   0.267  -0.258   0.250
    1UNL     C4    4   0.315  -0.355   0.133
    1UNL     O1    5   0.310  -0.492   0.179
    1UNL     O2    6   0.448  -0.300   0.092
    1UNL     C5    7   0.418  -0.173   0.044
    1UNL     O3    8   0.389  -0.083   0.149
    1UNL     C6    9   0.291  -0.190  -0.043
    1UNL     C7   10   0.293  -0.150  -0.193
    1UNL     O4   11   0.354  -0.020  -0.217
    1UNL     C8   12   0.253   0.066  -0.239
    1UNL     O5   13   0.149   0.027  -0.277
    1UNL     C9   14   0.270   0.208  -0.207
    1UNL    C10   15   0.204   0.306  -0.284
    1UNL    C11   16   0.210   0.442  -0.252
    1UNL    C12   17   0.289   0.482  -0.141
    1UNL     O6   18   0.305   0.615  -0.107
    1UNL    C13   19   0.356   0.380  -0.072
    1UNL    C14   20   0.351   0.244  -0.100
    1UNL    C15   21   0.230  -0.334  -0.002
    1UNL    C16   22   0.093  -0.268   0.022
    1UNL    C17   23   0.177  -0.135   0.050
    1UNL     O7   24   0.122  -0.010  -0.001
    1UNL    C18   25  -0.016  -0.004   0.005
    1UNL     O8   26  -0.074  -0.075   0.109
    1UNL    C19   27  -0.220  -0.080   0.093
    1UNL    C20   28  -0.286  -0.130   0.221
    1UNL     O9   29  -0.240  -0.254   0.267
    1UNL    C21   30  -0.128  -0.249   0.338
    1UNL    O10   31  -0.073  -0.148   0.377
    1UNL    C22   32  -0.067  -0.383   0.364
    1UNL    C23   33  -0.004  -0.410   0.483
    1UNL    C24   34   0.039  -0.539   0.514
    1UNL    C25   35   0.057  -0.630   0.412
    1UNL    C26   36  -0.004  -0.604   0.288
    1UNL    C27   37  -0.074  -0.483   0.269
    1UNL    C28   38  -0.280   0.047   0.032
    1UNL    O11   39  -0.294   0.042  -0.108
    1UNL    C29   40  -0.376   0.148  -0.163
    1UNL    O12   41  -0.318   0.278  -0.142
    1UNL    C30   42  -0.341   0.375  -0.236
    1UNL    C31   43  -0.276   0.506  -0.184
    1UNL    O13   44  -0.162   0.481  -0.110
    1UNL    C32   45  -0.285   0.333  -0.373
    1UNL    O14   46  -0.151   0.367  -0.386
    1UNL    C33   47  -0.308   0.180  -0.401
    1UNL    O15   48  -0.190   0.106  -0.385
    1UNL    C34   49  -0.418   0.117  -0.308
    1UNL    O16   50  -0.554   0.155  -0.354
    1UNL    C35   51  -0.197   0.170   0.069
    1UNL    O17   52  -0.169   0.174   0.215
    1UNL    C36   53  -0.057   0.148   0.002
    1UNL    O18   54  -0.044   0.205  -0.131
    1UNL     H1   55   0.104  -0.029   0.323
    1UNL     H2   56   0.289  -0.007   0.367
    1UNL     H3   57   0.199   0.096   0.264
    1UNL     H4   58   0.169  -0.307   0.284
    1UNL     H5   59   0.344  -0.275   0.330
    1UNL     H6   60   0.358  -0.550   0.112
    1UNL     H7   61   0.507  -0.121  -0.015
    1UNL     H8   62   0.190  -0.155  -0.229
    1UNL     H9   63   0.354  -0.227  -0.240
    1UNL    H10   64   0.161   0.278  -0.372
    1UNL    H11   65   0.158   0.524  -0.289
    1UNL    H12   66   0.259   0.671  -0.173
    1UNL    H13   67   0.412   0.421   0.010
    1UNL    H14   68   0.403   0.164  -0.044
    1UNL    H15   69   0.227  -0.416  -0.078
    1UNL    H16   70   0.040  -0.271  -0.071
    1UNL    H17   71   0.043  -0.311   0.111
    1UNL    H18   72  -0.055  -0.045  -0.093
    1UNL    H19   73  -0.227  -0.159   0.015
    1UNL    H20   74  -0.263  -0.056   0.294
    1UNL    H21   75  -0.397  -0.139   0.196
    1UNL    H22   76  -0.010  -0.319   0.548
    1UNL    H23   77   0.094  -0.550   0.609
    1UNL    H24   78   0.084  -0.735   0.432
    1UNL    H25   79  -0.032  -0.678   0.214
    1UNL    H26   80  -0.123  -0.462   0.180
    1UNL    H27   81  -0.382   0.062   0.059
    1UNL    H28   82  -0.456   0.150  -0.094
    1UNL    H29   83  -0.446   0.384  -0.242
    1UNL    H30   84  -0.357   0.556  -0.132
    1UNL    H31   85  -0.235   0.566  -0.264
    1UNL    H32   86  -0.140   0.384  -0.115
    1UNL    H33   87  -0.343   0.404  -0.435
    1UNL    H34   88  -0.106   0.306  -0.314
    1UNL    H35   89  -0.335   0.170  -0.508
    1UNL    H36   90  -0.157   0.097  -0.290
    1UNL    H37   91  -0.418   0.001  -0.323
    1UNL    H38   92  -0.551   0.243  -0.404
    1UNL    H39   93  -0.240   0.267   0.044
    1UNL    H40   94  -0.129   0.085   0.238
    1UNL    H41   95   0.010   0.207   0.071
    1UNL    H42   96   0.020   0.154  -0.186
   0.00000   0.00000   0.00000   0.00000   0.00000   0.00000   0.00000   0.00000   0.00000
Generated with MDTraj, t= 46.0
 96
    1UNL     C1    1   0.184  -0.031   0.289
    1UNL     C2    2   0.243  -0.137   0.193
    1UNL     C3    3   0.250  -0.284   0.237
    1UNL     C4    4   0.313  -0.369   0.125
    1UNL     O1    5   0.323  -0.505   0.167
    1UNL     O2    6   0.448  -0.309   0.104
    1UNL     C5    7   0.428  -0.177   0.059
    1UNL     O3    8   0.387  -0.097   0.166
    1UNL     C6    9   0.301  -0.187  -0.036
    1UNL     C7   10   0.313  -0.141  -0.188
    1UNL     O4   11   0.356  -0.005  -0.200
    1UNL     C8   12   0.246   0.069  -0.231
    1UNL     O5   13   0.144   0.022  -0.272
    1UNL     C9   14   0.260   0.209  -0.213
    1UNL    C10   15   0.196   0.303  -0.300
    1UNL    C11   16   0.211   0.436  -0.277
    1UNL    C12   17   0.289   0.488  -0.174
    1UNL     O6   18   0.282   0.623  -0.134
    1UNL    C13   19   0.353   0.393  -0.088
    1UNL    C14   20   0.345   0.261  -0.112
    1UNL    C15   21   0.247  -0.326  -0.010
    1UNL    C16   22   0.101  -0.267  -0.001
    1UNL    C17   23   0.179  -0.136   0.047
    1UNL     O7   24   0.130  -0.004   0.008
    1UNL    C18   25  -0.014   0.001   0.004
    1UNL     O8   26  -0.079  -0.057   0.110
    1UNL    C19   27  -0.217  -0.082   0.087
    1UNL    C20   28  -0.283  -0.130   0.211
    1UNL     O9   29  -0.228  -0.250   0.245
    1UNL    C21   30  -0.128  -0.246   0.331
    1UNL    O10   31  -0.086  -0.145   0.384
    1UNL    C22   32  -0.066  -0.377   0.355
    1UNL    C23   33  -0.010  -0.401   0.480
    1UNL    C24   34   0.047  -0.526   0.513
    1UNL    C25   35   0.047  -0.625   0.413
    1UNL    C26   36  -0.021  -0.602   0.287
    1UNL    C27   37  -0.085  -0.483   0.267
    1UNL    C28   38  -0.278   0.057   0.036
    1UNL    O11   39  -0.309   0.047  -0.102
    1UNL    C29   40  -0.394   0.148  -0.154
    1UNL    O12   41  -0.337   0.278  -0.127
    1UNL    C30   42  -0.349   0.374  -0.237
    1UNL    C31   43  -0.287   0.496  -0.166
    1UNL    O13   44  -0.167   0.463  -0.103
    1UNL    C32   45  -0.266   0.331  -0.362
    1UNL    O14   46  -0.122   0.364  -0.356
    1UNL    C33   47  -0.283   0.177  -0.383
    1UNL    O15   48  -0.170   0.101  -0.346
    1UNL    C34   49  -0.406   0.122  -0.304
    1UNL    O16   50  -0.535   0.165  -0.350
    1UNL    C35   51  -0.184   0.170   0.064
    1UNL    O17   52  -0.172   0.196   0.202
    1UNL    C36   53  -0.046   0.151  -0.004
    1UNL    O18   54  -0.053   0.189  -0.142
    1UNL     H1   55   0.072  -0.027   0.304
    1UNL     H2   56   0.246  -0.023   0.379
    1UNL     H3   57   0.201   0.062   0.241
    1UNL     H4   58   0.150  -0.335   0.257
    1UNL     H5   59   0.323  -0.302   0.317
    1UNL     H6   60   0.419  -0.536   0.162
    1UNL     H7   61   0.521  -0.128   0.005
    1UNL     H8   62   0.213  -0.163  -0.228
    1UNL     H9   63   0.390  -0.202  -0.234
    1UNL    H10   64   0.129   0.277  -0.387
    1UNL    H11   65   0.151   0.506  -0.343
    1UNL    H12   66   0.218   0.669  -0.191
    1UNL    H13   67   0.408   0.425  -0.002
    1UNL    H14   68   0.392   0.190  -0.051
    1UNL    H15   69   0.277  -0.396  -0.090
    1UNL    H16   70   0.050  -0.246  -0.092
    1UNL    H17   71   0.030  -0.307   0.073
    1UNL    H18   72  -0.034  -0.055  -0.093
    1UNL    H19   73  -0.233  -0.166   0.013
    1UNL    H20   74  -0.255  -0.059   0.288
    1UNL    H21   75  -0.395  -0.148   0.197
    1UNL    H22   76   0.025  -0.320   0.536
    1UNL    H23   77   0.087  -0.546   0.609
    1UNL    H24   78   0.088  -0.720   0.432
    1UNL    H25   79  -0.030  -0.683   0.216
    1UNL    H26   80  -0.158  -0.465   0.185
    1UNL    H27   81  -0.372   0.064   0.087
    1UNL    H28   82  -0.482   0.136  -0.097
    1UNL    H29   83  -0.452   0.374  -0.254
    1UNL    H30   84  -0.350   0.521  -0.082
    1UNL    H31   85  -0.290   0.579  -0.234
    1UNL    H32   86  -0.142   0.367  -0.127
    1UNL    H33   87  -0.315   0.382  -0.449
    1UNL    H34   88  -0.088   0.303  -0.295
    1UNL    H35   89  -0.301   0.158  -0.488
    1UNL    H36   90  -0.172   0.083  -0.245
    1UNL    H37   91  -0.412   0.006  -0.317
    1UNL    H38   92  -0.582   0.218  -0.283
    1UNL    H39   93  -0.219   0.261   0.014
    1UNL    H40   94  -0.138   0.119   0.249
    1UNL    H41   95   0.036   0.205   0.049
    1UNL    H42   96   0.018   0.132  -0.190
   0.00000   0.00000   0.00000   0.00000   0.00000   0.00000   0.00000   0.00000   0.00000
Generated with MDTraj, t= 47.0
 96
    1UNL     C1    1   0.145  -0.064   0.286
    1UNL     C2    2   0.240  -0.152   0.202
    1UNL     C3    3   0.249  -0.306   0.240
    1UNL     C4    4   0.317  -0.379   0.120
    1UNL     O1    5   0.309  -0.517   0.144
    1UNL     O2    6   0.454  -0.319   0.103
    1UNL     C5    7   0.434  -0.180   0.077
    1UNL     O3    8   0.381  -0.115   0.188
    1UNL     C6    9   0.318  -0.186  -0.030
    1UNL     C7   10   0.324  -0.132  -0.173
    1UNL     O4   11   0.360   0.007  -0.171
    1UNL     C8   12   0.260   0.077  -0.234
    1UNL     O5   13   0.168   0.026  -0.296
    1UNL     C9   14   0.265   0.221  -0.221
    1UNL    C10   15   0.185   0.297  -0.308
    1UNL    C11   16   0.193   0.434  -0.296
    1UNL    C12   17   0.273   0.495  -0.192
    1UNL     O6   18   0.275   0.629  -0.182
    1UNL    C13   19   0.345   0.413  -0.098
    1UNL    C14   20   0.336   0.280  -0.119
    1UNL    C15   21   0.250  -0.330  -0.014
    1UNL    C16   22   0.114  -0.266  -0.002
    1UNL    C17   23   0.186  -0.138   0.048
    1UNL     O7   24   0.145  -0.009   0.015
    1UNL    C18   25   0.003   0.002   0.012
    1UNL     O8   26  -0.065  -0.066   0.109
    1UNL    C19   27  -0.209  -0.080   0.087
    1UNL    C20   28  -0.290  -0.132   0.204
    1UNL     O9   29  -0.247  -0.259   0.245
    1UNL    C21   30  -0.146  -0.259   0.333
    1UNL    O10   31  -0.116  -0.155   0.393
    1UNL    C22   32  -0.080  -0.383   0.360
    1UNL    C23   33   0.005  -0.387   0.474
    1UNL    C24   34   0.071  -0.508   0.508
    1UNL    C25   35   0.057  -0.621   0.421
    1UNL    C26   36  -0.022  -0.618   0.305
    1UNL    C27   37  -0.089  -0.500   0.275
    1UNL    C28   38  -0.273   0.055   0.034
    1UNL    O11   39  -0.315   0.041  -0.106
    1UNL    C29   40  -0.394   0.151  -0.152
    1UNL    O12   41  -0.338   0.285  -0.121
    1UNL    C30   42  -0.343   0.379  -0.227
    1UNL    C31   43  -0.294   0.511  -0.171
    1UNL    O13   44  -0.169   0.490  -0.116
    1UNL    C32   45  -0.269   0.326  -0.356
    1UNL    O14   46  -0.128   0.359  -0.353
    1UNL    C33   47  -0.292   0.175  -0.381
    1UNL    O15   48  -0.177   0.095  -0.341
    1UNL    C34   49  -0.421   0.127  -0.302
    1UNL    O16   50  -0.537   0.199  -0.349
    1UNL    C35   51  -0.181   0.177   0.067
    1UNL    O17   52  -0.158   0.176   0.207
    1UNL    C36   53  -0.037   0.161   0.003
    1UNL    O18   54  -0.021   0.215  -0.129
    1UNL     H1   55   0.036  -0.089   0.273
    1UNL     H2   56   0.170  -0.072   0.390
    1UNL     H3   57   0.153   0.038   0.256
    1UNL     H4   58   0.156  -0.355   0.256
    1UNL     H5   59   0.321  -0.322   0.321
    1UNL     H6   60   0.384  -0.543   0.204
    1UNL     H7   61   0.531  -0.136   0.029
    1UNL     H8   62   0.227  -0.155  -0.221
    1UNL     H9   63   0.408  -0.186  -0.220
    1UNL    H10   64   0.129   0.248  -0.381
    1UNL    H11   65   0.139   0.506  -0.350
    1UNL    H12   66   0.206   0.666  -0.239
    1UNL    H13   67   0.387   0.468  -0.014
    1UNL    H14   68   0.399   0.206  -0.066
    1UNL    H15   69   0.249  -0.421  -0.077
    1UNL    H16   70   0.065  -0.250  -0.097
    1UNL    H17   71   0.046  -0.319   0.066
    1UNL    H18   72  -0.019  -0.034  -0.091
    1UNL    H19   73  -0.218  -0.158   0.004
    1UNL    H20   74  -0.269  -0.070   0.290
    1UNL    H21   75  -0.400  -0.142   0.185
    1UNL    H22   76   0.029  -0.302   0.541
    1UNL    H23   77   0.149  -0.510   0.586
    1UNL    H24   78   0.122  -0.712   0.439
    1UNL    H25   79  -0.024  -0.704   0.242
    1UNL    H26   80  -0.178  -0.488   0.214
    1UNL    H27   81  -0.363   0.067   0.093
    1UNL    H28   82  -0.489   0.142  -0.102
    1UNL    H29   83  -0.446   0.383  -0.232
    1UNL    H30   84  -0.368   0.564  -0.113
    1UNL    H31   85  -0.278   0.570  -0.259
    1UNL    H32   86  -0.135   0.396  -0.141
    1UNL    H33   87  -0.306   0.380  -0.445
    1UNL    H34   88  -0.076   0.300  -0.293
    1UNL    H35   89  -0.301   0.156  -0.486
    1UNL    H36   90  -0.186   0.063  -0.251
    1UNL    H37   91  -0.437   0.016  -0.325
    1UNL    H38   92  -0.585   0.148  -0.411
    1UNL    H39   93  -0.231   0.271   0.042
    1UNL    H40   94  -0.127   0.089   0.245
    1UNL    H41   95   0.029   0.219   0.069
    1UNL    H42   96   0.041   0.158  -0.179
   0.00000   0.00000   0.00000   0.00000   0.00000   0.00000   0.00000   0.00000   0.00000
Generated with MDTraj, t= 48.0
 96
    1UNL     C1    1   0.151  -0.081   0.305
    1UNL     C2    2   0.229  -0.168   0.204
    1UNL     C3    3   0.239  -0.318   0.239
    1UNL     C4    4   0.312  -0.388   0.110
    1UNL     O1    5   0.298  -0.531   0.126
    1UNL     O2    6   0.449  -0.333   0.109
    1UNL     C5    7   0.432  -0.196   0.087
    1UNL     O3    8   0.372  -0.131   0.205
    1UNL     C6    9   0.317  -0.191  -0.019
    1UNL     C7   10   0.348  -0.120  -0.158
    1UNL     O4   11   0.377   0.024  -0.155
    1UNL     C8   12   0.275   0.086  -0.215
    1UNL     O5   13   0.167   0.037  -0.248
    1UNL     C9   14   0.280   0.233  -0.224
    1UNL    C10   15   0.201   0.308  -0.314
    1UNL    C11   16   0.188   0.440  -0.316
    1UNL    C12   17   0.259   0.512  -0.217
    1UNL     O6   18   0.253   0.652  -0.212
    1UNL    C13   19   0.338   0.440  -0.130
    1UNL    C14   20   0.353   0.307  -0.131
    1UNL    C15   21   0.257  -0.332  -0.022
    1UNL    C16   22   0.108  -0.273  -0.005
    1UNL    C17   23   0.179  -0.146   0.054
    1UNL     O7   24   0.133  -0.017   0.015
    1UNL    C18   25  -0.008  -0.014   0.010
    1UNL     O8   26  -0.079  -0.077   0.115
    1UNL    C19   27  -0.221  -0.091   0.086
    1UNL    C20   28  -0.299  -0.162   0.190
    1UNL     O9   29  -0.239  -0.285   0.230
    1UNL    C21   30  -0.156  -0.263   0.332
    1UNL    O10   31  -0.131  -0.154   0.388
    1UNL    C22   32  -0.080  -0.385   0.376
    1UNL    C23   33   0.019  -0.386   0.481
    1UNL    C24   34   0.096  -0.496   0.501
    1UNL    C25   35   0.076  -0.613   0.425
    1UNL    C26   36  -0.019  -0.616   0.322
    1UNL    C27   37  -0.100  -0.503   0.303
    1UNL    C28   38  -0.279   0.046   0.043
    1UNL    O11   39  -0.301   0.046  -0.101
    1UNL    C29   40  -0.367   0.159  -0.144
    1UNL    O12   41  -0.307   0.287  -0.126
    1UNL    C30   42  -0.337   0.386  -0.226
    1UNL    C31   43  -0.279   0.527  -0.195
    1UNL    O13   44  -0.150   0.511  -0.132
    1UNL    C32   45  -0.282   0.343  -0.363
    1UNL    O14   46  -0.143   0.368  -0.367
    1UNL    C33   47  -0.300   0.192  -0.394
    1UNL    O15   48  -0.189   0.107  -0.371
    1UNL    C34   49  -0.412   0.139  -0.292
    1UNL    O16   50  -0.535   0.207  -0.321
    1UNL    C35   51  -0.181   0.161   0.078
    1UNL    O17   52  -0.159   0.174   0.217
    1UNL    C36   53  -0.048   0.138   0.004
    1UNL    O18   54  -0.046   0.184  -0.128
    1UNL     H1   55   0.045  -0.110   0.307
    1UNL     H2   56   0.183  -0.096   0.407
    1UNL     H3   57   0.148   0.024   0.275
    1UNL     H4   58   0.142  -0.352   0.255
    1UNL     H5   59   0.308  -0.328   0.320
    1UNL     H6   60   0.380  -0.552   0.171
    1UNL     H7   61   0.533  -0.145   0.057
    1UNL     H8   62   0.261  -0.126  -0.228
    1UNL     H9   63   0.435  -0.169  -0.204
    1UNL    H10   64   0.144   0.251  -0.390
    1UNL    H11   65   0.129   0.487  -0.396
    1UNL    H12   66   0.189   0.682  -0.275
    1UNL    H13   67   0.409   0.490  -0.069
    1UNL    H14   68   0.411   0.248  -0.064
    1UNL    H15   69   0.291  -0.396  -0.106
    1UNL    H16   70   0.063  -0.252  -0.103
    1UNL    H17   71   0.045  -0.325   0.067
    1UNL    H18   72  -0.019  -0.052  -0.094
    1UNL    H19   73  -0.213  -0.154  -0.011
    1UNL    H20   74  -0.311  -0.101   0.280
    1UNL    H21   75  -0.402  -0.189   0.159
    1UNL    H22   76   0.033  -0.305   0.547
    1UNL    H23   77   0.187  -0.497   0.558
    1UNL    H24   78   0.139  -0.695   0.425
    1UNL    H25   79  -0.068  -0.704   0.275
    1UNL    H26   80  -0.175  -0.490   0.228
    1UNL    H27   81  -0.371   0.072   0.095
    1UNL    H28   82  -0.458   0.148  -0.083
    1UNL    H29   83  -0.439   0.398  -0.226
    1UNL    H30   84  -0.340   0.574  -0.115
    1UNL    H31   85  -0.286   0.603  -0.275
    1UNL    H32   86  -0.138   0.410  -0.126
    1UNL    H33   87  -0.326   0.398  -0.447
    1UNL    H34   88  -0.103   0.294  -0.303
    1UNL    H35   89  -0.337   0.174  -0.492
    1UNL    H36   90  -0.174   0.099  -0.275
    1UNL    H37   91  -0.426   0.028  -0.306
    1UNL    H38   92  -0.588   0.156  -0.383
    1UNL    H39   93  -0.231   0.254   0.047
    1UNL    H40   94  -0.137   0.087   0.253
    1UNL    H41   95   0.025   0.193   0.063
    1UNL    H42   96   0.023   0.137  -0.175
   0.00000   0.00000   0.00000   0.00000   0.00000   0.00000   0.00000   0.00000   0.00000
Generated with MDTraj, t= 49.0
 96
    1UNL     C1    1   0.155  -0.096   0.321
    1UNL     C2    2   0.229  -0.182   0.214
    1UNL     C3    3   0.221  -0.340   0.229
    1UNL     C4    4   0.311  -0.396   0.102
    1UNL     O1    5   0.315  -0.543   0.108
    1UNL     O2    6   0.442  -0.335   0.117
    1UNL     C5    7   0.423  -0.194   0.093
    1UNL     O3    8   0.364  -0.145   0.223
    1UNL     C6    9   0.318  -0.179  -0.015
    1UNL     C7   10   0.357  -0.110  -0.143
    1UNL     O4   11   0.371   0.030  -0.133
    1UNL     C8   12   0.273   0.093  -0.202
    1UNL     O5   13   0.174   0.035  -0.254
    1UNL     C9   14   0.278   0.244  -0.211
    1UNL    C10   15   0.184   0.301  -0.301
    1UNL    C11   16   0.177   0.435  -0.316
    1UNL    C12   17   0.258   0.518  -0.238
    1UNL     O6   18   0.254   0.653  -0.245
    1UNL    C13   19   0.353   0.461  -0.146
    1UNL    C14   20   0.354   0.324  -0.129
    1UNL    C15   21   0.255  -0.322  -0.035
    1UNL    C16   22   0.115  -0.258  -0.023
    1UNL    C17   23   0.182  -0.145   0.054
    1UNL     O7   24   0.132  -0.018   0.025
    1UNL    C18   25  -0.008  -0.011   0.010
    1UNL     O8   26  -0.083  -0.086   0.106
    1UNL    C19   27  -0.225  -0.090   0.070
    1UNL    C20   28  -0.291  -0.149   0.186
    1UNL     O9   29  -0.237  -0.281   0.216
    1UNL    C21   30  -0.156  -0.269   0.325
    1UNL    O10   31  -0.128  -0.161   0.382
    1UNL    C22   32  -0.076  -0.389   0.366
    1UNL    C23   33   0.010  -0.378   0.472
    1UNL    C24   34   0.097  -0.477   0.511
    1UNL    C25   35   0.086  -0.600   0.448
    1UNL    C26   36  -0.009  -0.617   0.349
    1UNL    C27   37  -0.081  -0.507   0.301
    1UNL    C28   38  -0.281   0.052   0.034
    1UNL    O11   39  -0.311   0.049  -0.107
    1UNL    C29   40  -0.380   0.166  -0.148
    1UNL    O12   41  -0.292   0.278  -0.137
    1UNL    C30   42  -0.318   0.386  -0.217
    1UNL    C31   43  -0.250   0.512  -0.161
    1UNL    O13   44  -0.112   0.493  -0.147
    1UNL    C32   45  -0.276   0.348  -0.361
    1UNL    O14   46  -0.140   0.351  -0.365
    1UNL    C33   47  -0.317   0.204  -0.396
    1UNL    O15   48  -0.216   0.115  -0.379
    1UNL    C34   49  -0.429   0.148  -0.301
    1UNL    O16   50  -0.554   0.209  -0.323
    1UNL    C35   51  -0.186   0.157   0.089
    1UNL    O17   52  -0.173   0.150   0.232
    1UNL    C36   53  -0.047   0.137   0.011
    1UNL    O18   54  -0.058   0.184  -0.123
    1UNL     H1   55   0.052  -0.114   0.329
    1UNL     H2   56   0.199  -0.117   0.416
    1UNL     H3   57   0.164   0.013   0.294
    1UNL     H4   58   0.121  -0.371   0.215
    1UNL     H5   59   0.258  -0.366   0.321
    1UNL     H6   60   0.409  -0.553   0.114
    1UNL     H7   61   0.522  -0.140   0.065
    1UNL     H8   62   0.286  -0.124  -0.227
    1UNL     H9   63   0.460  -0.133  -0.176
    1UNL    H10   64   0.125   0.232  -0.357
    1UNL    H11   65   0.108   0.491  -0.382
    1UNL    H12   66   0.192   0.683  -0.314
    1UNL    H13   67   0.417   0.536  -0.098
    1UNL    H14   68   0.424   0.276  -0.062
    1UNL    H15   69   0.271  -0.375  -0.129
    1UNL    H16   70   0.072  -0.229  -0.123
    1UNL    H17   71   0.054  -0.328   0.033
    1UNL    H18   72  -0.017  -0.052  -0.091
    1UNL    H19   73  -0.241  -0.169  -0.015
    1UNL    H20   74  -0.279  -0.092   0.280
    1UNL    H21   75  -0.399  -0.150   0.174
    1UNL    H22   76   0.027  -0.280   0.518
    1UNL    H23   77   0.178  -0.473   0.583
    1UNL    H24   78   0.136  -0.694   0.486
    1UNL    H25   79  -0.021  -0.715   0.310
    1UNL    H26   80  -0.160  -0.518   0.222
    1UNL    H27   81  -0.379   0.055   0.087
    1UNL    H28   82  -0.460   0.170  -0.070
    1UNL    H29   83  -0.417   0.413  -0.215
    1UNL    H30   84  -0.293   0.554  -0.064
    1UNL    H31   85  -0.271   0.595  -0.234
    1UNL    H32   86  -0.093   0.408  -0.113
    1UNL    H33   87  -0.311   0.413  -0.442
    1UNL    H34   88  -0.112   0.288  -0.293
    1UNL    H35   89  -0.350   0.200  -0.498
    1UNL    H36   90  -0.190   0.114  -0.280
    1UNL    H37   91  -0.432   0.040  -0.322
    1UNL    H38   92  -0.564   0.212  -0.425
    1UNL    H39   93  -0.219   0.256   0.055
    1UNL    H40   94  -0.138   0.057   0.250
    1UNL    H41   95   0.022   0.202   0.062
    1UNL    H42   96   0.023   0.142  -0.170
   0.00000   0.00000   0.00000   0.00000   0.00000   0.00000   0.00000   0.00000   0.00000
Generated with MDTraj, t= 50.0
 96
    1UNL     C1    1   0.139  -0.106   0.305
    1UNL     C2    2   0.227  -0.177   0.206
    1UNL     C3    3   0.226  -0.331   0.219
    1UNL     C4    4   0.318  -0.387   0.099
    1UNL     O1    5   0.306  -0.525   0.095
    1UNL     O2    6   0.449  -0.333   0.116
    1UNL     C5    7   0.432  -0.190   0.108
    1UNL     O3    8   0.368  -0.142   0.218
    1UNL     C6    9   0.329  -0.177  -0.019
    1UNL     C7   10   0.366  -0.102  -0.149
    1UNL     O4   11   0.366   0.038  -0.138
    1UNL     C8   12   0.255   0.095  -0.202
    1UNL     O5   13   0.161   0.035  -0.258
    1UNL     C9   14   0.252   0.239  -0.207
    1UNL    C10   15   0.170   0.305  -0.298
    1UNL    C11   16   0.174   0.440  -0.308
    1UNL    C12   17   0.269   0.521  -0.242
    1UNL     O6   18   0.272   0.657  -0.260
    1UNL    C13   19   0.353   0.459  -0.156
    1UNL    C14   20   0.349   0.322  -0.136
    1UNL    C15   21   0.270  -0.316  -0.041
    1UNL    C16   22   0.132  -0.260  -0.037
    1UNL    C17   23   0.190  -0.147   0.053
    1UNL     O7   24   0.141  -0.014   0.041
    1UNL    C18   25   0.005  -0.013   0.019
    1UNL     O8   26  -0.072  -0.098   0.107
    1UNL    C19   27  -0.213  -0.105   0.064
    1UNL    C20   28  -0.303  -0.178   0.158
    1UNL     O9   29  -0.240  -0.297   0.209
    1UNL    C21   30  -0.162  -0.267   0.324
    1UNL    O10   31  -0.153  -0.151   0.367
    1UNL    C22   32  -0.079  -0.376   0.378
    1UNL    C23   33  -0.007  -0.370   0.495
    1UNL    C24   34   0.077  -0.479   0.532
    1UNL    C25   35   0.076  -0.595   0.462
    1UNL    C26   36   0.004  -0.600   0.351
    1UNL    C27   37  -0.065  -0.495   0.304
    1UNL    C28   38  -0.277   0.036   0.027
    1UNL    O11   39  -0.317   0.042  -0.113
    1UNL    C29   40  -0.386   0.162  -0.145
    1UNL    O12   41  -0.318   0.283  -0.118
    1UNL    C30   42  -0.317   0.391  -0.216
    1UNL    C31   43  -0.226   0.504  -0.172
    1UNL    O13   44  -0.107   0.460  -0.112
    1UNL    C32   45  -0.272   0.334  -0.357
    1UNL    O14   46  -0.125   0.346  -0.362
    1UNL    C33   47  -0.324   0.183  -0.381
    1UNL    O15   48  -0.206   0.107  -0.352
    1UNL    C34   49  -0.447   0.162  -0.288
    1UNL    O16   50  -0.554   0.259  -0.305
    1UNL    C35   51  -0.186   0.152   0.071
    1UNL    O17   52  -0.184   0.162   0.215
    1UNL    C36   53  -0.040   0.129   0.010
    1UNL    O18   54  -0.041   0.169  -0.126
    1UNL     H1   55   0.038  -0.136   0.285
    1UNL     H2   56   0.164  -0.135   0.405
    1UNL     H3   57   0.144   0.002   0.275
    1UNL     H4   58   0.122  -0.353   0.216
    1UNL     H5   59   0.271  -0.362   0.305
    1UNL     H6   60   0.392  -0.564   0.070
    1UNL     H7   61   0.538  -0.144   0.091
    1UNL     H8   62   0.287  -0.111  -0.226
    1UNL     H9   63   0.463  -0.129  -0.192
    1UNL    H10   64   0.105   0.243  -0.357
    1UNL    H11   65   0.102   0.482  -0.371
    1UNL    H12   66   0.201   0.682  -0.323
    1UNL    H13   67   0.430   0.511  -0.105
    1UNL    H14   68   0.428   0.277  -0.078
    1UNL    H15   69   0.323  -0.360  -0.127
    1UNL    H16   70   0.094  -0.210  -0.130
    1UNL    H17   71   0.048  -0.315   0.007
    1UNL    H18   72   0.009  -0.062  -0.077
    1UNL    H19   73  -0.211  -0.164  -0.038
    1UNL    H20   74  -0.347  -0.111   0.234
    1UNL    H21   75  -0.387  -0.215   0.103
    1UNL    H22   76  -0.001  -0.279   0.550
    1UNL    H23   77   0.132  -0.447   0.618
    1UNL    H24   78   0.134  -0.673   0.499
    1UNL    H25   79   0.002  -0.691   0.285
    1UNL    H26   80  -0.127  -0.503   0.221
    1UNL    H27   81  -0.375   0.044   0.083
    1UNL    H28   82  -0.476   0.171  -0.077
    1UNL    H29   83  -0.415   0.425  -0.207
    1UNL    H30   84  -0.284   0.557  -0.091
    1UNL    H31   85  -0.208   0.581  -0.252
    1UNL    H32   86  -0.073   0.367  -0.134
    1UNL    H33   87  -0.305   0.390  -0.442
    1UNL    H34   88  -0.095   0.273  -0.309
    1UNL    H35   89  -0.355   0.171  -0.485
    1UNL    H36   90  -0.204   0.081  -0.260
    1UNL    H37   91  -0.498   0.071  -0.316
    1UNL    H38   92  -0.551   0.307  -0.397
    1UNL    H39   93  -0.214   0.254   0.042
    1UNL    H40   94  -0.159   0.073   0.240
    1UNL    H41   95   0.025   0.186   0.076
    1UNL    H42   96   0.023   0.118  -0.181
   0.00000   0.00000   0.00000   0.00000   0.00000   0.00000   0.00000   0.00000   0.00000
Generated with MDTraj, t= 51.0
 96
    1UNL     C1    1   0.130  -0.108   0.298
    1UNL     C2    2   0.231  -0.176   0.201
    1UNL     C3    3   0.246  -0.330   0.219
    1UNL     C4    4   0.330  -0.387   0.103
    1UNL     O1    5   0.323  -0.523   0.097
    1UNL     O2    6   0.463  -0.323   0.099
    1UNL     C5    7   0.432  -0.180   0.088
    1UNL     O3    8   0.367  -0.125   0.205
    1UNL     C6    9   0.326  -0.173  -0.027
    1UNL     C7   10   0.369  -0.107  -0.158
    1UNL     O4   11   0.378   0.030  -0.142
    1UNL     C8   12   0.270   0.090  -0.203
    1UNL     O5   13   0.169   0.031  -0.254
    1UNL     C9   14   0.272   0.242  -0.220
    1UNL    C10   15   0.195   0.307  -0.309
    1UNL    C11   16   0.189   0.446  -0.322
    1UNL    C12   17   0.274   0.520  -0.245
    1UNL     O6   18   0.272   0.655  -0.249
    1UNL    C13   19   0.356   0.453  -0.151
    1UNL    C14   20   0.357   0.318  -0.142
    1UNL    C15   21   0.268  -0.324  -0.032
    1UNL    C16   22   0.132  -0.268  -0.023
    1UNL    C17   23   0.191  -0.146   0.047
    1UNL     O7   24   0.133  -0.022   0.037
    1UNL    C18   25  -0.006  -0.020   0.009
    1UNL     O8   26  -0.093  -0.096   0.093
    1UNL    C19   27  -0.232  -0.099   0.050
    1UNL    C20   28  -0.307  -0.192   0.146
    1UNL     O9   29  -0.231  -0.301   0.191
    1UNL    C21   30  -0.164  -0.267   0.307
    1UNL    O10   31  -0.175  -0.153   0.353
    1UNL    C22   32  -0.083  -0.378   0.376
    1UNL    C23   33  -0.037  -0.361   0.501
    1UNL    C24   34   0.040  -0.465   0.555
    1UNL    C25   35   0.068  -0.579   0.486
    1UNL    C26   36   0.024  -0.588   0.356
    1UNL    C27   37  -0.058  -0.491   0.304
    1UNL    C28   38  -0.290   0.042   0.037
    1UNL    O11   39  -0.341   0.056  -0.093
    1UNL    C29   40  -0.405   0.176  -0.128
    1UNL    O12   41  -0.314   0.287  -0.105
    1UNL    C30   42  -0.314   0.384  -0.209
    1UNL    C31   43  -0.238   0.507  -0.156
    1UNL    O13   44  -0.102   0.485  -0.107
    1UNL    C32   45  -0.259   0.331  -0.345
    1UNL    O14   46  -0.118   0.333  -0.360
    1UNL    C33   47  -0.318   0.191  -0.378
    1UNL    O15   48  -0.224   0.084  -0.372
    1UNL    C34   49  -0.444   0.165  -0.285
    1UNL    O16   50  -0.551   0.253  -0.297
    1UNL    C35   51  -0.186   0.142   0.085
    1UNL    O17   52  -0.160   0.120   0.229
    1UNL    C36   53  -0.047   0.130   0.008
    1UNL    O18   54  -0.048   0.177  -0.130
    1UNL     H1   55   0.023  -0.122   0.270
    1UNL     H2   56   0.141  -0.152   0.395
    1UNL     H3   57   0.156  -0.002   0.282
    1UNL     H4   58   0.155  -0.383   0.225
    1UNL     H5   59   0.305  -0.341   0.307
    1UNL     H6   60   0.383  -0.568   0.164
    1UNL     H7   61   0.520  -0.109   0.060
    1UNL     H8   62   0.297  -0.125  -0.238
    1UNL     H9   63   0.469  -0.138  -0.190
    1UNL    H10   64   0.134   0.247  -0.373
    1UNL    H11   65   0.106   0.496  -0.379
    1UNL    H12   66   0.199   0.693  -0.306
    1UNL    H13   67   0.417   0.521  -0.092
    1UNL    H14   68   0.430   0.274  -0.077
    1UNL    H15   69   0.288  -0.380  -0.124
    1UNL    H16   70   0.100  -0.233  -0.125
    1UNL    H17   71   0.063  -0.334   0.033
    1UNL    H18   72  -0.011  -0.057  -0.094
    1UNL    H19   73  -0.228  -0.145  -0.056
    1UNL    H20   74  -0.353  -0.141   0.233
    1UNL    H21   75  -0.392  -0.226   0.093
    1UNL    H22   76  -0.074  -0.277   0.563
    1UNL    H23   77   0.099  -0.458   0.646
    1UNL    H24   78   0.150  -0.644   0.524
    1UNL    H25   79   0.042  -0.682   0.316
    1UNL    H26   80  -0.089  -0.513   0.196
    1UNL    H27   81  -0.373   0.053   0.115
    1UNL    H28   82  -0.492   0.192  -0.054
    1UNL    H29   83  -0.417   0.403  -0.225
    1UNL    H30   84  -0.287   0.569  -0.078
    1UNL    H31   85  -0.237   0.568  -0.248
    1UNL    H32   86  -0.096   0.384  -0.076
    1UNL    H33   87  -0.295   0.395  -0.424
    1UNL    H34   88  -0.080   0.283  -0.280
    1UNL    H35   89  -0.343   0.192  -0.487
    1UNL    H36   90  -0.166   0.096  -0.290
    1UNL    H37   91  -0.474   0.065  -0.307
    1UNL    H38   92  -0.634   0.216  -0.335
    1UNL    H39   93  -0.221   0.244   0.077
    1UNL    H40   94  -0.154   0.021   0.241
    1UNL    H41   95   0.019   0.196   0.068
    1UNL    H42   96   0.025   0.137  -0.176
   0.00000   0.00000   0.00000   0.00000   0.00000   0.00000   0.00000   0.00000   0.00000
Generated with MDTraj, t= 52.0
 96
    1UNL     C1    1   0.147  -0.098   0.294
    1UNL     C2    2   0.234  -0.181   0.191
    1UNL     C3    3   0.261  -0.332   0.224
    1UNL     C4    4   0.341  -0.390   0.111
    1UNL     O1    5   0.364  -0.530   0.122
    1UNL     O2    6   0.465  -0.313   0.115
    1UNL     C5    7   0.429  -0.179   0.084
    1UNL     O3    8   0.361  -0.119   0.197
    1UNL     C6    9   0.318  -0.195  -0.027
    1UNL     C7   10   0.348  -0.124  -0.168
    1UNL     O4   11   0.367   0.013  -0.158
    1UNL     C8   12   0.270   0.090  -0.218
    1UNL     O5   13   0.161   0.043  -0.263
    1UNL     C9   14   0.287   0.243  -0.234
    1UNL    C10   15   0.211   0.316  -0.321
    1UNL    C11   16   0.203   0.456  -0.322
    1UNL    C12   17   0.282   0.525  -0.232
    1UNL     O6   18   0.281   0.660  -0.231
    1UNL    C13   19   0.362   0.456  -0.141
    1UNL    C14   20   0.364   0.316  -0.142
    1UNL    C15   21   0.278  -0.346  -0.027
    1UNL    C16   22   0.127  -0.294  -0.014
    1UNL    C17   23   0.184  -0.164   0.047
    1UNL     O7   24   0.136  -0.034   0.009
    1UNL    C18   25  -0.009  -0.025  -0.002
    1UNL     O8   26  -0.083  -0.109   0.079
    1UNL    C19   27  -0.227  -0.112   0.042
    1UNL    C20   28  -0.313  -0.191   0.143
    1UNL     O9   29  -0.245  -0.302   0.186
    1UNL    C21   30  -0.170  -0.271   0.295
    1UNL    O10   31  -0.165  -0.160   0.339
    1UNL    C22   32  -0.088  -0.377   0.369
    1UNL    C23   33  -0.053  -0.360   0.505
    1UNL    C24   34   0.019  -0.450   0.571
    1UNL    C25   35   0.067  -0.556   0.506
    1UNL    C26   36   0.033  -0.583   0.379
    1UNL    C27   37  -0.047  -0.497   0.303
    1UNL    C28   38  -0.288   0.032   0.025
    1UNL    O11   39  -0.314   0.046  -0.111
    1UNL    C29   40  -0.381   0.166  -0.138
    1UNL    O12   41  -0.305   0.286  -0.109
    1UNL    C30   42  -0.326   0.398  -0.195
    1UNL    C31   43  -0.243   0.516  -0.149
    1UNL    O13   44  -0.106   0.488  -0.128
    1UNL    C32   45  -0.281   0.351  -0.343
    1UNL    O14   46  -0.141   0.355  -0.369
    1UNL    C33   47  -0.334   0.206  -0.370
    1UNL    O15   48  -0.224   0.113  -0.362
    1UNL    C34   49  -0.448   0.169  -0.270
    1UNL    O16   50  -0.562   0.244  -0.271
    1UNL    C35   51  -0.192   0.137   0.085
    1UNL    O17   52  -0.195   0.122   0.229
    1UNL    C36   53  -0.049   0.127   0.019
    1UNL    O18   54  -0.049   0.178  -0.118
    1UNL     H1   55   0.042  -0.139   0.303
    1UNL     H2   56   0.179  -0.106   0.397
    1UNL     H3   57   0.136  -0.000   0.248
    1UNL     H4   58   0.172  -0.394   0.219
    1UNL     H5   59   0.317  -0.347   0.321
    1UNL     H6   60   0.459  -0.539   0.159
    1UNL     H7   61   0.527  -0.118   0.066
    1UNL     H8   62   0.268  -0.137  -0.239
    1UNL     H9   63   0.431  -0.175  -0.218
    1UNL    H10   64   0.148   0.255  -0.385
    1UNL    H11   65   0.131   0.485  -0.389
    1UNL    H12   66   0.212   0.694  -0.296
    1UNL    H13   67   0.426   0.509  -0.071
    1UNL    H14   68   0.435   0.261  -0.080
    1UNL    H15   69   0.306  -0.390  -0.124
    1UNL    H16   70   0.087  -0.269  -0.114
    1UNL    H17   71   0.054  -0.345   0.054
    1UNL    H18   72  -0.026  -0.049  -0.107
    1UNL    H19   73  -0.222  -0.169  -0.057
    1UNL    H20   74  -0.347  -0.124   0.225
    1UNL    H21   75  -0.404  -0.220   0.104
    1UNL    H22   76  -0.091  -0.270   0.542
    1UNL    H23   77   0.040  -0.425   0.675
    1UNL    H24   78   0.131  -0.628   0.553
    1UNL    H25   79   0.073  -0.672   0.321
    1UNL    H26   80  -0.082  -0.537   0.216
    1UNL    H27   81  -0.385   0.045   0.085
    1UNL    H28   82  -0.457   0.174  -0.051
    1UNL    H29   83  -0.430   0.427  -0.188
    1UNL    H30   84  -0.293   0.547  -0.060
    1UNL    H31   85  -0.236   0.602  -0.214
    1UNL    H32   86  -0.097   0.389  -0.114
    1UNL    H33   87  -0.334   0.421  -0.404
    1UNL    H34   88  -0.104   0.296  -0.305
    1UNL    H35   89  -0.369   0.195  -0.477
    1UNL    H36   90  -0.184   0.114  -0.274
    1UNL    H37   91  -0.477   0.071  -0.287
    1UNL    H38   92  -0.583   0.279  -0.355
    1UNL    H39   93  -0.233   0.233   0.054
    1UNL    H40   94  -0.188   0.028   0.263
    1UNL    H41   95   0.029   0.175   0.085
    1UNL    H42   96   0.029   0.136  -0.166
   0.00000   0.00000   0.00000   0.00000   0.00000   0.00000   0.00000   0.00000   0.00000
Generated with MDTraj, t= 53.0
 96
    1UNL     C1    1   0.161  -0.087   0.305
    1UNL     C2    2   0.240  -0.162   0.200
    1UNL     C3    3   0.260  -0.313   0.234
    1UNL     C4    4   0.345  -0.375   0.115
    1UNL     O1    5   0.365  -0.521   0.120
    1UNL     O2    6   0.473  -0.300   0.112
    1UNL     C5    7   0.431  -0.167   0.071
    1UNL     O3    8   0.370  -0.104   0.193
    1UNL     C6    9   0.317  -0.189  -0.036
    1UNL     C7   10   0.335  -0.126  -0.173
    1UNL     O4   11   0.345   0.012  -0.161
    1UNL     C8   12   0.249   0.085  -0.229
    1UNL     O5   13   0.144   0.038  -0.284
    1UNL     C9   14   0.268   0.231  -0.222
    1UNL    C10   15   0.199   0.310  -0.303
    1UNL    C11   16   0.210   0.447  -0.298
    1UNL    C12   17   0.299   0.512  -0.206
    1UNL     O6   18   0.313   0.653  -0.214
    1UNL    C13   19   0.375   0.429  -0.126
    1UNL    C14   20   0.357   0.291  -0.135
    1UNL    C15   21   0.276  -0.341  -0.024
    1UNL    C16   22   0.134  -0.289  -0.016
    1UNL    C17   23   0.184  -0.156   0.047
    1UNL     O7   24   0.139  -0.033   0.003
    1UNL    C18   25  -0.003  -0.044  -0.013
    1UNL     O8   26  -0.078  -0.136   0.067
    1UNL    C19   27  -0.216  -0.128   0.035
    1UNL    C20   28  -0.302  -0.220   0.129
    1UNL     O9   29  -0.234  -0.316   0.199
    1UNL    C21   30  -0.170  -0.264   0.312
    1UNL    O10   31  -0.169  -0.147   0.335
    1UNL    C22   32  -0.084  -0.364   0.386
    1UNL    C23   33  -0.042  -0.352   0.519
    1UNL    C24   34   0.027  -0.451   0.584
    1UNL    C25   35   0.061  -0.565   0.514
    1UNL    C26   36   0.025  -0.585   0.384
    1UNL    C27   37  -0.052  -0.487   0.324
    1UNL    C28   38  -0.284   0.016   0.022
    1UNL    O11   39  -0.331   0.036  -0.113
    1UNL    C29   40  -0.391   0.165  -0.141
    1UNL    O12   41  -0.301   0.282  -0.117
    1UNL    C30   42  -0.334   0.395  -0.195
    1UNL    C31   43  -0.246   0.509  -0.141
    1UNL    O13   44  -0.113   0.474  -0.119
    1UNL    C32   45  -0.299   0.368  -0.343
    1UNL    O14   46  -0.161   0.391  -0.370
    1UNL    C33   47  -0.338   0.228  -0.383
    1UNL    O15   48  -0.232   0.144  -0.370
    1UNL    C34   49  -0.452   0.175  -0.288
    1UNL    O16   50  -0.561   0.260  -0.297
    1UNL    C35   51  -0.183   0.120   0.074
    1UNL    O17   52  -0.172   0.120   0.220
    1UNL    C36   53  -0.047   0.111   0.005
    1UNL    O18   54  -0.042   0.170  -0.128
    1UNL     H1   55   0.060  -0.132   0.308
    1UNL     H2   56   0.187  -0.101   0.413
    1UNL     H3   57   0.146   0.014   0.274
    1UNL     H4   58   0.167  -0.378   0.247
    1UNL     H5   59   0.321  -0.331   0.329
    1UNL     H6   60   0.416  -0.551   0.203
    1UNL     H7   61   0.513  -0.108   0.011
    1UNL     H8   62   0.243  -0.143  -0.229
    1UNL     H9   63   0.419  -0.177  -0.220
    1UNL    H10   64   0.128   0.263  -0.371
    1UNL    H11   65   0.158   0.514  -0.372
    1UNL    H12   66   0.260   0.708  -0.280
    1UNL    H13   67   0.463   0.469  -0.082
    1UNL    H14   68   0.425   0.233  -0.077
    1UNL    H15   69   0.296  -0.410  -0.108
    1UNL    H16   70   0.081  -0.277  -0.109
    1UNL    H17   71   0.068  -0.340   0.060
    1UNL    H18   72  -0.026  -0.058  -0.121
    1UNL    H19   73  -0.227  -0.168  -0.067
    1UNL    H20   74  -0.351  -0.153   0.205
    1UNL    H21   75  -0.387  -0.257   0.085
    1UNL    H22   76  -0.055  -0.249   0.562
    1UNL    H23   77   0.043  -0.454   0.689
    1UNL    H24   78   0.112  -0.638   0.575
    1UNL    H25   79   0.058  -0.677   0.350
    1UNL    H26   80  -0.093  -0.516   0.221
    1UNL    H27   81  -0.377   0.027   0.086
    1UNL    H28   82  -0.479   0.186  -0.073
    1UNL    H29   83  -0.439   0.425  -0.187
    1UNL    H30   84  -0.279   0.545  -0.048
    1UNL    H31   85  -0.261   0.587  -0.213
    1UNL    H32   86  -0.105   0.380  -0.104
    1UNL    H33   87  -0.363   0.441  -0.397
    1UNL    H34   88  -0.110   0.339  -0.297
    1UNL    H35   89  -0.354   0.230  -0.496
    1UNL    H36   90  -0.238   0.101  -0.278
    1UNL    H37   91  -0.494   0.084  -0.314
    1UNL    H38   92  -0.565   0.301  -0.384
    1UNL    H39   93  -0.231   0.212   0.039
    1UNL    H40   94  -0.155   0.032   0.259
    1UNL    H41   95   0.030   0.162   0.070
    1UNL    H42   96   0.025   0.121  -0.186
   0.00000   0.00000   0.00000   0.00000   0.00000   0.00000   0.00000   0.00000   0.00000
Generated with MDTraj, t= 54.0
 96
    1UNL     C1    1   0.156  -0.082   0.287
    1UNL     C2    2   0.243  -0.154   0.195
    1UNL     C3    3   0.273  -0.298   0.238
    1UNL     C4    4   0.346  -0.373   0.121
    1UNL     O1    5   0.363  -0.508   0.148
    1UNL     O2    6   0.474  -0.305   0.105
    1UNL     C5    7   0.443  -0.174   0.062
    1UNL     O3    8   0.379  -0.103   0.171
    1UNL     C6    9   0.315  -0.194  -0.044
    1UNL     C7   10   0.336  -0.138  -0.184
    1UNL     O4   11   0.352  -0.001  -0.181
    1UNL     C8   12   0.248   0.076  -0.231
    1UNL     O5   13   0.142   0.023  -0.282
    1UNL     C9   14   0.273   0.223  -0.214
    1UNL    C10   15   0.187   0.317  -0.281
    1UNL    C11   16   0.211   0.451  -0.272
    1UNL    C12   17   0.311   0.501  -0.187
    1UNL     O6   18   0.333   0.636  -0.190
    1UNL    C13   19   0.386   0.413  -0.111
    1UNL    C14   20   0.365   0.274  -0.122
    1UNL    C15   21   0.270  -0.346  -0.023
    1UNL    C16   22   0.125  -0.280  -0.006
    1UNL    C17   23   0.188  -0.146   0.044
    1UNL     O7   24   0.128  -0.019   0.016
    1UNL    C18   25  -0.012  -0.026  -0.010
    1UNL     O8   26  -0.090  -0.104   0.083
    1UNL    C19   27  -0.223  -0.114   0.036
    1UNL    C20   28  -0.298  -0.202   0.140
    1UNL     O9   29  -0.219  -0.305   0.183
    1UNL    C21   30  -0.152  -0.262   0.293
    1UNL    O10   31  -0.152  -0.151   0.336
    1UNL    C22   32  -0.078  -0.368   0.369
    1UNL    C23   33  -0.023  -0.332   0.494
    1UNL    C24   34   0.029  -0.430   0.576
    1UNL    C25   35   0.055  -0.557   0.529
    1UNL    C26   36   0.016  -0.590   0.400
    1UNL    C27   37  -0.051  -0.500   0.326
    1UNL    C28   38  -0.297   0.022   0.010
    1UNL    O11   39  -0.326   0.038  -0.124
    1UNL    C29   40  -0.396   0.160  -0.152
    1UNL    O12   41  -0.310   0.269  -0.117
    1UNL    C30   42  -0.335   0.392  -0.182
    1UNL    C31   43  -0.237   0.494  -0.120
    1UNL    O13   44  -0.103   0.453  -0.102
    1UNL    C32   45  -0.307   0.377  -0.334
    1UNL    O14   46  -0.174   0.413  -0.369
    1UNL    C33   47  -0.338   0.232  -0.383
    1UNL    O15   48  -0.223   0.154  -0.381
    1UNL    C34   49  -0.448   0.166  -0.299
    1UNL    O16   50  -0.572   0.233  -0.307
    1UNL    C35   51  -0.193   0.122   0.061
    1UNL    O17   52  -0.180   0.114   0.210
    1UNL    C36   53  -0.063   0.119  -0.017
    1UNL    O18   54  -0.075   0.163  -0.152
    1UNL     H1   55   0.054  -0.113   0.276
    1UNL     H2   56   0.171  -0.104   0.397
    1UNL     H3   57   0.161   0.023   0.264
    1UNL     H4   58   0.175  -0.359   0.260
    1UNL     H5   59   0.329  -0.308   0.339
    1UNL     H6   60   0.409  -0.545   0.067
    1UNL     H7   61   0.538  -0.127   0.014
    1UNL     H8   62   0.255  -0.173  -0.251
    1UNL     H9   63   0.437  -0.175  -0.216
    1UNL    H10   64   0.111   0.276  -0.342
    1UNL    H11   65   0.138   0.509  -0.319
    1UNL    H12   66   0.285   0.670  -0.268
    1UNL    H13   67   0.469   0.454  -0.050
    1UNL    H14   68   0.429   0.206  -0.065
    1UNL    H15   69   0.289  -0.410  -0.111
    1UNL    H16   70   0.056  -0.267  -0.088
    1UNL    H17   71   0.063  -0.321   0.077
    1UNL    H18   72  -0.024  -0.066  -0.115
    1UNL    H19   73  -0.225  -0.173  -0.053
    1UNL    H20   74  -0.330  -0.134   0.226
    1UNL    H21   75  -0.388  -0.241   0.115
    1UNL    H22   76  -0.048  -0.241   0.540
    1UNL    H23   77   0.072  -0.397   0.674
    1UNL    H24   78   0.103  -0.618   0.607
    1UNL    H25   79   0.038  -0.698   0.369
    1UNL    H26   80  -0.078  -0.528   0.230
    1UNL    H27   81  -0.391   0.027   0.072
    1UNL    H28   82  -0.484   0.166  -0.084
    1UNL    H29   83  -0.445   0.406  -0.162
    1UNL    H30   84  -0.291   0.518  -0.031
    1UNL    H31   85  -0.232   0.582  -0.181
    1UNL    H32   86  -0.099   0.360  -0.099
    1UNL    H33   87  -0.377   0.441  -0.395
    1UNL    H34   88  -0.116   0.353  -0.320
    1UNL    H35   89  -0.363   0.236  -0.493
    1UNL    H36   90  -0.224   0.114  -0.291
    1UNL    H37   91  -0.467   0.065  -0.319
    1UNL    H38   92  -0.644   0.161  -0.321
    1UNL    H39   93  -0.232   0.223   0.054
    1UNL    H40   94  -0.173   0.023   0.244
    1UNL    H41   95   0.016   0.174   0.040
    1UNL    H42   96  -0.005   0.120  -0.200
   0.00000   0.00000   0.00000   0.00000   0.00000   0.00000   0.00000   0.00000   0.00000
Generated with MDTraj, t= 55.0
 96
    1UNL     C1    1   0.172  -0.058   0.282
    1UNL     C2    2   0.256  -0.147   0.190
    1UNL     C3    3   0.265  -0.298   0.240
    1UNL     C4    4   0.328  -0.376   0.124
    1UNL     O1    5   0.343  -0.517   0.147
    1UNL     O2    6   0.460  -0.314   0.098
    1UNL     C5    7   0.431  -0.176   0.053
    1UNL     O3    8   0.389  -0.096   0.167
    1UNL     C6    9   0.310  -0.197  -0.037
    1UNL     C7   10   0.333  -0.150  -0.181
    1UNL     O4   11   0.358  -0.011  -0.185
    1UNL     C8   12   0.259   0.071  -0.231
    1UNL     O5   13   0.153   0.029  -0.278
    1UNL     C9   14   0.281   0.217  -0.212
    1UNL    C10   15   0.206   0.312  -0.276
    1UNL    C11   16   0.219   0.447  -0.247
    1UNL    C12   17   0.316   0.494  -0.161
    1UNL     O6   18   0.323   0.633  -0.148
    1UNL    C13   19   0.399   0.396  -0.106
    1UNL    C14   20   0.392   0.262  -0.138
    1UNL    C15   21   0.249  -0.344  -0.009
    1UNL    C16   22   0.113  -0.277   0.006
    1UNL    C17   23   0.190  -0.145   0.050
    1UNL     O7   24   0.119  -0.022   0.015
    1UNL    C18   25  -0.017  -0.026  -0.026
    1UNL     O8   26  -0.090  -0.115   0.061
    1UNL    C19   27  -0.228  -0.120   0.034
    1UNL    C20   28  -0.302  -0.206   0.141
    1UNL     O9   29  -0.216  -0.305   0.189
    1UNL    C21   30  -0.140  -0.259   0.293
    1UNL    O10   31  -0.128  -0.147   0.327
    1UNL    C22   32  -0.075  -0.361   0.377
    1UNL    C23   33  -0.014  -0.329   0.499
    1UNL    C24   34   0.063  -0.422   0.563
    1UNL    C25   35   0.075  -0.549   0.519
    1UNL    C26   36   0.007  -0.582   0.402
    1UNL    C27   37  -0.072  -0.491   0.330
    1UNL    C28   38  -0.296   0.017   0.010
    1UNL    O11   39  -0.324   0.029  -0.127
    1UNL    C29   40  -0.395   0.151  -0.156
    1UNL    O12   41  -0.328   0.271  -0.112
    1UNL    C30   42  -0.352   0.390  -0.187
    1UNL    C31   43  -0.265   0.500  -0.119
    1UNL    O13   44  -0.126   0.463  -0.116
    1UNL    C32   45  -0.317   0.376  -0.336
    1UNL    O14   46  -0.194   0.429  -0.376
    1UNL    C33   47  -0.333   0.223  -0.385
    1UNL    O15   48  -0.209   0.153  -0.398
    1UNL    C34   49  -0.447   0.153  -0.297
    1UNL    O16   50  -0.576   0.217  -0.305
    1UNL    C35   51  -0.200   0.127   0.055
    1UNL    O17   52  -0.170   0.117   0.195
    1UNL    C36   53  -0.060   0.122  -0.018
    1UNL    O18   54  -0.058   0.184  -0.146
    1UNL     H1   55   0.084  -0.102   0.319
    1UNL     H2   56   0.226  -0.026   0.377
    1UNL     H3   57   0.145   0.034   0.232
    1UNL     H4   58   0.166  -0.349   0.271
    1UNL     H5   59   0.323  -0.304   0.341
    1UNL     H6   60   0.414  -0.527   0.213
    1UNL     H7   61   0.517  -0.119   0.000
    1UNL     H8   62   0.242  -0.162  -0.242
    1UNL     H9   63   0.414  -0.211  -0.229
    1UNL    H10   64   0.114   0.284  -0.331
    1UNL    H11   65   0.151   0.528  -0.279
    1UNL    H12   66   0.255   0.681  -0.197
    1UNL    H13   67   0.475   0.425  -0.044
    1UNL    H14   68   0.463   0.192  -0.100
    1UNL    H15   69   0.270  -0.410  -0.096
    1UNL    H16   70   0.049  -0.280  -0.083
    1UNL    H17   71   0.065  -0.326   0.091
    1UNL    H18   72  -0.026  -0.065  -0.131
    1UNL    H19   73  -0.231  -0.163  -0.063
    1UNL    H20   74  -0.337  -0.143   0.231
    1UNL    H21   75  -0.390  -0.241   0.110
    1UNL    H22   76  -0.021  -0.222   0.531
    1UNL    H23   77   0.104  -0.398   0.655
    1UNL    H24   78   0.145  -0.623   0.549
    1UNL    H25   79   0.021  -0.679   0.365
    1UNL    H26   80  -0.129  -0.509   0.235
    1UNL    H27   81  -0.391   0.026   0.064
    1UNL    H28   82  -0.486   0.151  -0.092
    1UNL    H29   83  -0.460   0.422  -0.175
    1UNL    H30   84  -0.294   0.526  -0.016
    1UNL    H31   85  -0.284   0.596  -0.172
    1UNL    H32   86  -0.126   0.368  -0.117
    1UNL    H33   87  -0.390   0.442  -0.393
    1UNL    H34   88  -0.119   0.401  -0.322
    1UNL    H35   89  -0.366   0.218  -0.490
    1UNL    H36   90  -0.181   0.154  -0.305
    1UNL    H37   91  -0.473   0.056  -0.333
    1UNL    H38   92  -0.605   0.267  -0.218
    1UNL    H39   93  -0.233   0.229   0.044
    1UNL    H40   94  -0.146   0.025   0.219
    1UNL    H41   95   0.013   0.175   0.044
    1UNL    H42   96   0.013   0.136  -0.201
   0.00000   0.00000   0.00000   0.00000   0.00000   0.00000   0.00000   0.00000   0.00000
Generated with MDTraj, t= 56.0
 96
    1UNL     C1    1   0.172  -0.045   0.278
    1UNL     C2    2   0.245  -0.150   0.193
    1UNL     C3    3   0.255  -0.295   0.233
    1UNL     C4    4   0.324  -0.380   0.126
    1UNL     O1    5   0.320  -0.521   0.156
    1UNL     O2    6   0.455  -0.325   0.114
    1UNL     C5    7   0.433  -0.192   0.062
    1UNL     O3    8   0.385  -0.107   0.161
    1UNL     C6    9   0.308  -0.208  -0.038
    1UNL     C7   10   0.315  -0.154  -0.187
    1UNL     O4   11   0.351  -0.020  -0.188
    1UNL     C8   12   0.260   0.069  -0.236
    1UNL     O5   13   0.157   0.040  -0.295
    1UNL     C9   14   0.296   0.214  -0.219
    1UNL    C10   15   0.209   0.310  -0.266
    1UNL    C11   16   0.226   0.442  -0.228
    1UNL    C12   17   0.326   0.490  -0.140
    1UNL     O6   18   0.322   0.625  -0.105
    1UNL    C13   19   0.417   0.388  -0.092
    1UNL    C14   20   0.407   0.258  -0.138
    1UNL    C15   21   0.249  -0.356  -0.005
    1UNL    C16   22   0.113  -0.281   0.006
    1UNL    C17   23   0.191  -0.153   0.039
    1UNL     O7   24   0.139  -0.031  -0.005
    1UNL    C18   25  -0.005  -0.025  -0.008
    1UNL     O8   26  -0.080  -0.113   0.078
    1UNL    C19   27  -0.218  -0.124   0.037
    1UNL    C20   28  -0.294  -0.202   0.153
    1UNL     O9   29  -0.225  -0.306   0.213
    1UNL    C21   30  -0.140  -0.257   0.307
    1UNL    O10   31  -0.136  -0.143   0.341
    1UNL    C22   32  -0.053  -0.356   0.372
    1UNL    C23   33   0.023  -0.320   0.482
    1UNL    C24   34   0.096  -0.416   0.545
    1UNL    C25   35   0.085  -0.550   0.507
    1UNL    C26   36   0.005  -0.584   0.394
    1UNL    C27   37  -0.057  -0.482   0.325
    1UNL    C28   38  -0.288   0.015   0.002
    1UNL    O11   39  -0.321   0.039  -0.137
    1UNL    C29   40  -0.402   0.158  -0.160
    1UNL    O12   41  -0.324   0.277  -0.130
    1UNL    C30   42  -0.368   0.393  -0.205
    1UNL    C31   43  -0.287   0.507  -0.139
    1UNL    O13   44  -0.148   0.478  -0.137
    1UNL    C32   45  -0.340   0.388  -0.361
    1UNL    O14   46  -0.217   0.437  -0.396
    1UNL    C33   47  -0.349   0.235  -0.392
    1UNL    O15   48  -0.225   0.177  -0.371
    1UNL    C34   49  -0.452   0.149  -0.309
    1UNL    O16   50  -0.584   0.189  -0.318
    1UNL    C35   51  -0.193   0.126   0.060
    1UNL    O17   52  -0.185   0.138   0.202
    1UNL    C36   53  -0.047   0.117  -0.001
    1UNL    O18   54  -0.042   0.180  -0.127
    1UNL     H1   55   0.067  -0.064   0.287
    1UNL     H2   56   0.218  -0.053   0.379
    1UNL     H3   57   0.195   0.058   0.243
    1UNL     H4   58   0.156  -0.338   0.260
    1UNL     H5   59   0.315  -0.306   0.333
    1UNL     H6   60   0.393  -0.543   0.213
    1UNL     H7   61   0.536  -0.152   0.029
    1UNL     H8   62   0.219  -0.161  -0.239
    1UNL     H9   63   0.389  -0.197  -0.259
    1UNL    H10   64   0.119   0.284  -0.315
    1UNL    H11   65   0.143   0.506  -0.244
    1UNL    H12   66   0.239   0.656  -0.143
    1UNL    H13   67   0.490   0.415  -0.012
    1UNL    H14   68   0.474   0.176  -0.113
    1UNL    H15   69   0.265  -0.423  -0.092
    1UNL    H16   70   0.063  -0.283  -0.093
    1UNL    H17   71   0.054  -0.320   0.086
    1UNL    H18   72  -0.035  -0.071  -0.105
    1UNL    H19   73  -0.199  -0.180  -0.049
    1UNL    H20   74  -0.328  -0.136   0.240
    1UNL    H21   75  -0.378  -0.250   0.124
    1UNL    H22   76   0.029  -0.223   0.521
    1UNL    H23   77   0.168  -0.401   0.633
    1UNL    H24   78   0.128  -0.638   0.557
    1UNL    H25   79   0.008  -0.682   0.342
    1UNL    H26   80  -0.119  -0.508   0.245
    1UNL    H27   81  -0.382   0.018   0.055
    1UNL    H28   82  -0.483   0.149  -0.088
    1UNL    H29   83  -0.479   0.412  -0.178
    1UNL    H30   84  -0.324   0.529  -0.034
    1UNL    H31   85  -0.294   0.610  -0.187
    1UNL    H32   86  -0.139   0.383  -0.123
    1UNL    H33   87  -0.418   0.447  -0.418
    1UNL    H34   88  -0.143   0.399  -0.338
    1UNL    H35   89  -0.357   0.214  -0.498
    1UNL    H36   90  -0.215   0.186  -0.273
    1UNL    H37   91  -0.441   0.047  -0.347
    1UNL    H38   92  -0.598   0.246  -0.402
    1UNL    H39   93  -0.223   0.222   0.021
    1UNL    H40   94  -0.163   0.049   0.244
    1UNL    H41   95   0.026   0.171   0.059
    1UNL    H42   96   0.029   0.137  -0.186
   0.00000   0.00000   0.00000   0.00000   0.00000   0.00000   0.00000   0.00000   0.00000
Generated with MDTraj, t= 57.0
 96
    1UNL     C1    1   0.165  -0.070   0.289
    1UNL     C2    2   0.235  -0.151   0.182
    1UNL     C3    3   0.245  -0.306   0.225
    1UNL     C4    4   0.316  -0.384   0.117
    1UNL     O1    5   0.320  -0.519   0.139
    1UNL     O2    6   0.443  -0.321   0.103
    1UNL     C5    7   0.419  -0.190   0.054
    1UNL     O3    8   0.372  -0.111   0.161
    1UNL     C6    9   0.298  -0.200  -0.049
    1UNL     C7   10   0.332  -0.159  -0.192
    1UNL     O4   11   0.358  -0.022  -0.185
    1UNL     C8   12   0.260   0.063  -0.220
    1UNL     O5   13   0.161   0.021  -0.274
    1UNL     C9   14   0.295   0.203  -0.197
    1UNL    C10   15   0.212   0.306  -0.241
    1UNL    C11   16   0.231   0.436  -0.207
    1UNL    C12   17   0.331   0.474  -0.121
    1UNL     O6   18   0.345   0.612  -0.087
    1UNL    C13   19   0.416   0.372  -0.069
    1UNL    C14   20   0.397   0.246  -0.113
    1UNL    C15   21   0.238  -0.345  -0.019
    1UNL    C16   22   0.101  -0.281  -0.012
    1UNL    C17   23   0.173  -0.144   0.033
    1UNL     O7   24   0.129  -0.018  -0.014
    1UNL    C18   25  -0.011  -0.005  -0.008
    1UNL     O8   26  -0.080  -0.099   0.080
    1UNL    C19   27  -0.219  -0.106   0.053
    1UNL    C20   28  -0.293  -0.175   0.167
    1UNL     O9   29  -0.225  -0.288   0.214
    1UNL    C21   30  -0.140  -0.250   0.319
    1UNL    O10   31  -0.124  -0.132   0.348
    1UNL    C22   32  -0.064  -0.356   0.375
    1UNL    C23   33   0.021  -0.316   0.479
    1UNL    C24   34   0.118  -0.408   0.528
    1UNL    C25   35   0.112  -0.538   0.477
    1UNL    C26   36   0.028  -0.577   0.380
    1UNL    C27   37  -0.059  -0.484   0.328
    1UNL    C28   38  -0.289   0.028   0.026
    1UNL    O11   39  -0.311   0.025  -0.117
    1UNL    C29   40  -0.383   0.145  -0.164
    1UNL    O12   41  -0.310   0.266  -0.140
    1UNL    C30   42  -0.365   0.386  -0.202
    1UNL    C31   43  -0.280   0.499  -0.149
    1UNL    O13   44  -0.155   0.476  -0.180
    1UNL    C32   45  -0.365   0.372  -0.360
    1UNL    O14   46  -0.274   0.456  -0.417
    1UNL    C33   47  -0.336   0.218  -0.394
    1UNL    O15   48  -0.197   0.185  -0.380
    1UNL    C34   49  -0.428   0.132  -0.316
    1UNL    O16   50  -0.566   0.163  -0.337
    1UNL    C35   51  -0.194   0.144   0.072
    1UNL    O17   52  -0.177   0.142   0.212
    1UNL    C36   53  -0.058   0.140  -0.004
    1UNL    O18   54  -0.068   0.184  -0.132
    1UNL     H1   55   0.056  -0.082   0.281
    1UNL     H2   56   0.211  -0.092   0.384
    1UNL     H3   57   0.200   0.035   0.271
    1UNL     H4   58   0.151  -0.334   0.270
    1UNL     H5   59   0.302  -0.299   0.322
    1UNL     H6   60   0.393  -0.548   0.192
    1UNL     H7   61   0.516  -0.148   0.008
    1UNL     H8   62   0.253  -0.173  -0.266
    1UNL     H9   63   0.417  -0.215  -0.232
    1UNL    H10   64   0.124   0.280  -0.300
    1UNL    H11   65   0.169   0.520  -0.239
    1UNL    H12   66   0.280   0.661  -0.138
    1UNL    H13   67   0.503   0.402  -0.015
    1UNL    H14   68   0.458   0.165  -0.080
    1UNL    H15   69   0.253  -0.432  -0.087
    1UNL    H16   70   0.049  -0.277  -0.109
    1UNL    H17   71   0.035  -0.312   0.065
    1UNL    H18   72  -0.050  -0.047  -0.104
    1UNL    H19   73  -0.214  -0.167  -0.032
    1UNL    H20   74  -0.291  -0.108   0.261
    1UNL    H21   75  -0.390  -0.197   0.151
    1UNL    H22   76   0.014  -0.216   0.525
    1UNL    H23   77   0.185  -0.374   0.597
    1UNL    H24   78   0.173  -0.611   0.523
    1UNL    H25   79   0.013  -0.676   0.340
    1UNL    H26   80  -0.116  -0.487   0.233
    1UNL    H27   81  -0.386   0.026   0.070
    1UNL    H28   82  -0.471   0.142  -0.103
    1UNL    H29   83  -0.472   0.401  -0.158
    1UNL    H30   84  -0.281   0.500  -0.036
    1UNL    H31   85  -0.306   0.606  -0.185
    1UNL    H32   86  -0.122   0.386  -0.150
    1UNL    H33   87  -0.469   0.393  -0.397
    1UNL    H34   88  -0.193   0.428  -0.379
    1UNL    H35   89  -0.352   0.200  -0.498
    1UNL    H36   90  -0.180   0.180  -0.281
    1UNL    H37   91  -0.426   0.023  -0.343
    1UNL    H38   92  -0.608   0.207  -0.264
    1UNL    H39   93  -0.250   0.233   0.045
    1UNL    H40   94  -0.155   0.053   0.254
    1UNL    H41   95   0.012   0.202   0.049
    1UNL    H42   96   0.003   0.137  -0.183
   0.00000   0.00000   0.00000   0.00000   0.00000   0.00000   0.00000   0.00000   0.00000
Generated with MDTraj, t= 58.0
 96
    1UNL     C1    1   0.163  -0.074   0.282
    1UNL     C2    2   0.237  -0.161   0.182
    1UNL     C3    3   0.245  -0.313   0.220
    1UNL     C4    4   0.311  -0.390   0.104
    1UNL     O1    5   0.300  -0.534   0.120
    1UNL     O2    6   0.445  -0.336   0.092
    1UNL     C5    7   0.422  -0.196   0.046
    1UNL     O3    8   0.372  -0.114   0.156
    1UNL     C6    9   0.299  -0.204  -0.052
    1UNL     C7   10   0.328  -0.153  -0.191
    1UNL     O4   11   0.365  -0.015  -0.198
    1UNL     C8   12   0.259   0.068  -0.227
    1UNL     O5   13   0.154   0.032  -0.273
    1UNL     C9   14   0.292   0.213  -0.190
    1UNL    C10   15   0.218   0.325  -0.234
    1UNL    C11   16   0.239   0.452  -0.193
    1UNL    C12   17   0.339   0.485  -0.087
    1UNL     O6   18   0.376   0.616  -0.066
    1UNL    C13   19   0.405   0.368  -0.043
    1UNL    C14   20   0.382   0.237  -0.087
    1UNL    C15   21   0.241  -0.352  -0.033
    1UNL    C16   22   0.099  -0.280  -0.020
    1UNL    C17   23   0.176  -0.155   0.029
    1UNL     O7   24   0.120  -0.023  -0.001
    1UNL    C18   25  -0.023  -0.020  -0.009
    1UNL     O8   26  -0.089  -0.099   0.096
    1UNL    C19   27  -0.227  -0.103   0.071
    1UNL    C20   28  -0.301  -0.165   0.192
    1UNL     O9   29  -0.236  -0.277   0.245
    1UNL    C21   30  -0.145  -0.234   0.338
    1UNL    O10   31  -0.132  -0.118   0.378
    1UNL    C22   32  -0.054  -0.348   0.389
    1UNL    C23   33   0.032  -0.321   0.492
    1UNL    C24   34   0.128  -0.414   0.533
    1UNL    C25   35   0.131  -0.541   0.463
    1UNL    C26   36   0.041  -0.563   0.358
    1UNL    C27   37  -0.045  -0.462   0.319
    1UNL    C28   38  -0.298   0.032   0.029
    1UNL    O11   39  -0.314   0.034  -0.115
    1UNL    C29   40  -0.383   0.147  -0.162
    1UNL    O12   41  -0.306   0.267  -0.142
    1UNL    C30   42  -0.358   0.387  -0.204
    1UNL    C31   43  -0.261   0.504  -0.176
    1UNL    O13   44  -0.137   0.448  -0.216
    1UNL    C32   45  -0.387   0.370  -0.354
    1UNL    O14   46  -0.318   0.462  -0.427
    1UNL    C33   47  -0.348   0.228  -0.406
    1UNL    O15   48  -0.205   0.214  -0.422
    1UNL    C34   49  -0.401   0.118  -0.315
    1UNL    O16   50  -0.540   0.095  -0.339
    1UNL    C35   51  -0.200   0.145   0.072
    1UNL    O17   52  -0.192   0.154   0.218
    1UNL    C36   53  -0.065   0.128  -0.006
    1UNL    O18   54  -0.055   0.188  -0.133
    1UNL     H1   55   0.063  -0.127   0.290
    1UNL     H2   56   0.219  -0.076   0.372
    1UNL     H3   57   0.155   0.033   0.255
    1UNL     H4   58   0.148  -0.346   0.254
    1UNL     H5   59   0.304  -0.327   0.305
    1UNL     H6   60   0.379  -0.561   0.166
    1UNL     H7   61   0.522  -0.159   0.001
    1UNL     H8   62   0.247  -0.178  -0.257
    1UNL     H9   63   0.412  -0.207  -0.234
    1UNL    H10   64   0.142   0.307  -0.306
    1UNL    H11   65   0.202   0.537  -0.244
    1UNL    H12   66   0.334   0.671  -0.135
    1UNL    H13   67   0.499   0.377   0.010
    1UNL    H14   68   0.436   0.148  -0.058
    1UNL    H15   69   0.253  -0.423  -0.118
    1UNL    H16   70   0.050  -0.258  -0.116
    1UNL    H17   71   0.022  -0.324   0.042
    1UNL    H18   72  -0.064  -0.065  -0.099
    1UNL    H19   73  -0.234  -0.165  -0.012
    1UNL    H20   74  -0.304  -0.089   0.279
    1UNL    H21   75  -0.396  -0.187   0.165
    1UNL    H22   76   0.030  -0.233   0.553
    1UNL    H23   77   0.191  -0.401   0.627
    1UNL    H24   78   0.203  -0.620   0.486
    1UNL    H25   79   0.049  -0.656   0.305
    1UNL    H26   80  -0.110  -0.472   0.234
    1UNL    H27   81  -0.400   0.030   0.060
    1UNL    H28   82  -0.481   0.155  -0.121
    1UNL    H29   83  -0.468   0.403  -0.165
    1UNL    H30   84  -0.251   0.534  -0.069
    1UNL    H31   85  -0.281   0.597  -0.238
    1UNL    H32   86  -0.117   0.350  -0.189
    1UNL    H33   87  -0.489   0.400  -0.384
    1UNL    H34   88  -0.220   0.438  -0.411
    1UNL    H35   89  -0.376   0.223  -0.511
    1UNL    H36   90  -0.165   0.211  -0.333
    1UNL    H37   91  -0.352   0.020  -0.345
    1UNL    H38   92  -0.578   0.169  -0.382
    1UNL    H39   93  -0.248   0.237   0.043
    1UNL    H40   94  -0.160   0.071   0.262
    1UNL    H41   95   0.012   0.181   0.051
    1UNL    H42   96   0.004   0.131  -0.187
   0.00000   0.00000   0.00000   0.00000   0.00000   0.00000   0.00000   0.00000   0.00000
Generated with MDTraj, t= 59.0
 96
    1UNL     C1    1   0.163  -0.073   0.264
    1UNL     C2    2   0.238  -0.170   0.172
    1UNL     C3    3   0.253  -0.323   0.216
    1UNL     C4    4   0.305  -0.396   0.083
    1UNL     O1    5   0.307  -0.546   0.100
    1UNL     O2    6   0.437  -0.343   0.073
    1UNL     C5    7   0.413  -0.206   0.032
    1UNL     O3    8   0.370  -0.121   0.147
    1UNL     C6    9   0.289  -0.214  -0.062
    1UNL     C7   10   0.288  -0.147  -0.196
    1UNL     O4   11   0.338  -0.015  -0.174
    1UNL     C8   12   0.255   0.089  -0.221
    1UNL     O5   13   0.157   0.065  -0.284
    1UNL     C9   14   0.302   0.224  -0.174
    1UNL    C10   15   0.238   0.339  -0.236
    1UNL    C11   16   0.270   0.460  -0.187
    1UNL    C12   17   0.351   0.483  -0.078
    1UNL     O6   18   0.369   0.620  -0.040
    1UNL    C13   19   0.416   0.373  -0.019
    1UNL    C14   20   0.385   0.248  -0.065
    1UNL    C15   21   0.234  -0.358  -0.049
    1UNL    C16   22   0.093  -0.295  -0.022
    1UNL    C17   23   0.171  -0.169   0.032
    1UNL     O7   24   0.116  -0.032   0.010
    1UNL    C18   25  -0.021  -0.026  -0.005
    1UNL     O8   26  -0.091  -0.085   0.108
    1UNL    C19   27  -0.233  -0.099   0.081
    1UNL    C20   28  -0.313  -0.150   0.213
    1UNL     O9   29  -0.252  -0.259   0.275
    1UNL    C21   30  -0.140  -0.218   0.346
    1UNL    O10   31  -0.113  -0.102   0.373
    1UNL    C22   32  -0.048  -0.328   0.394
    1UNL    C23   33   0.038  -0.316   0.506
    1UNL    C24   34   0.124  -0.421   0.540
    1UNL    C25   35   0.128  -0.537   0.467
    1UNL    C26   36   0.040  -0.553   0.359
    1UNL    C27   37  -0.049  -0.449   0.323
    1UNL    C28   38  -0.294   0.031   0.025
    1UNL    O11   39  -0.319   0.022  -0.109
    1UNL    C29   40  -0.375   0.136  -0.169
    1UNL    O12   41  -0.301   0.258  -0.144
    1UNL    C30   42  -0.355   0.373  -0.205
    1UNL    C31   43  -0.260   0.487  -0.191
    1UNL    O13   44  -0.136   0.449  -0.249
    1UNL    C32   45  -0.402   0.354  -0.353
    1UNL    O14   46  -0.350   0.458  -0.429
    1UNL    C33   47  -0.344   0.227  -0.408
    1UNL    O15   48  -0.199   0.229  -0.394
    1UNL    C34   49  -0.393   0.107  -0.321
    1UNL    O16   50  -0.524   0.066  -0.372
    1UNL    C35   51  -0.189   0.140   0.057
    1UNL    O17   52  -0.175   0.153   0.197
    1UNL    C36   53  -0.057   0.125  -0.009
    1UNL    O18   54  -0.040   0.189  -0.131
    1UNL     H1   55   0.055  -0.108   0.269
    1UNL     H2   56   0.205  -0.059   0.362
    1UNL     H3   57   0.165   0.031   0.227
    1UNL     H4   58   0.159  -0.364   0.244
    1UNL     H5   59   0.319  -0.329   0.292
    1UNL     H6   60   0.395  -0.568   0.137
    1UNL     H7   61   0.510  -0.162  -0.011
    1UNL     H8   62   0.190  -0.144  -0.241
    1UNL     H9   63   0.350  -0.208  -0.262
    1UNL    H10   64   0.155   0.322  -0.307
    1UNL    H11   65   0.221   0.551  -0.224
    1UNL    H12   66   0.325   0.680  -0.106
    1UNL    H13   67   0.480   0.397   0.064
    1UNL    H14   68   0.419   0.162  -0.007
    1UNL    H15   69   0.237  -0.421  -0.141
    1UNL    H16   70   0.031  -0.267  -0.109
    1UNL    H17   71   0.035  -0.344   0.055
    1UNL    H18   72  -0.058  -0.077  -0.091
    1UNL    H19   73  -0.240  -0.175   0.009
    1UNL    H20   74  -0.322  -0.067   0.291
    1UNL    H21   75  -0.403  -0.187   0.183
    1UNL    H22   76   0.025  -0.224   0.561
    1UNL    H23   77   0.174  -0.414   0.632
    1UNL    H24   78   0.199  -0.615   0.482
    1UNL    H25   79   0.036  -0.632   0.281
    1UNL    H26   80  -0.121  -0.452   0.242
    1UNL    H27   81  -0.384   0.048   0.081
    1UNL    H28   82  -0.468   0.150  -0.122
    1UNL    H29   83  -0.457   0.391  -0.147
    1UNL    H30   84  -0.243   0.517  -0.089
    1UNL    H31   85  -0.280   0.581  -0.247
    1UNL    H32   86  -0.103   0.365  -0.197
    1UNL    H33   87  -0.510   0.358  -0.365
    1UNL    H34   88  -0.253   0.445  -0.423
    1UNL    H35   89  -0.379   0.202  -0.510
    1UNL    H36   90  -0.179   0.202  -0.303
    1UNL    H37   91  -0.327   0.013  -0.333
    1UNL    H38   92  -0.582   0.072  -0.297
    1UNL    H39   93  -0.220   0.240   0.028
    1UNL    H40   94  -0.149   0.067   0.243
    1UNL    H41   95   0.033   0.166   0.044
    1UNL    H42   96   0.036   0.145  -0.184
   0.00000   0.00000   0.00000   0.00000   0.00000   0.00000   0.00000   0.00000   0.00000
Generated with MDTraj, t= 60.0
 96
    1UNL     C1    1   0.196  -0.093   0.277
    1UNL     C2    2   0.245  -0.180   0.166
    1UNL     C3    3   0.250  -0.332   0.200
    1UNL     C4    4   0.302  -0.404   0.074
    1UNL     O1    5   0.306  -0.542   0.092
    1UNL     O2    6   0.439  -0.347   0.044
    1UNL     C5    7   0.413  -0.213   0.013
    1UNL     O3    8   0.385  -0.140   0.129
    1UNL     C6    9   0.282  -0.212  -0.078
    1UNL     C7   10   0.295  -0.133  -0.207
    1UNL     O4   11   0.349  -0.006  -0.178
    1UNL     C8   12   0.263   0.097  -0.225
    1UNL     O5   13   0.173   0.080  -0.299
    1UNL     C9   14   0.299   0.230  -0.169
    1UNL    C10   15   0.258   0.343  -0.236
    1UNL    C11   16   0.281   0.467  -0.179
    1UNL    C12   17   0.355   0.490  -0.060
    1UNL     O6   18   0.379   0.616  -0.021
    1UNL    C13   19   0.402   0.371  -0.002
    1UNL    C14   20   0.385   0.245  -0.057
    1UNL    C15   21   0.225  -0.359  -0.059
    1UNL    C16   22   0.088  -0.289  -0.033
    1UNL    C17   23   0.171  -0.163   0.022
    1UNL     O7   24   0.116  -0.035  -0.006
    1UNL    C18   25  -0.027  -0.025  -0.006
    1UNL     O8   26  -0.101  -0.099   0.099
    1UNL    C19   27  -0.244  -0.095   0.089
    1UNL    C20   28  -0.311  -0.125   0.223
    1UNL     O9   29  -0.238  -0.241   0.271
    1UNL    C21   30  -0.131  -0.207   0.351
    1UNL    O10   31  -0.103  -0.090   0.374
    1UNL    C22   32  -0.052  -0.319   0.398
    1UNL    C23   33   0.036  -0.300   0.501
    1UNL    C24   34   0.111  -0.406   0.545
    1UNL    C25   35   0.108  -0.533   0.486
    1UNL    C26   36   0.011  -0.554   0.382
    1UNL    C27   37  -0.075  -0.449   0.350
    1UNL    C28   38  -0.292   0.036   0.032
    1UNL    O11   39  -0.294   0.021  -0.106
    1UNL    C29   40  -0.367   0.122  -0.173
    1UNL    O12   41  -0.303   0.250  -0.157
    1UNL    C30   42  -0.381   0.360  -0.205
    1UNL    C31   43  -0.300   0.483  -0.178
    1UNL    O13   44  -0.168   0.460  -0.213
    1UNL    C32   45  -0.395   0.338  -0.363
    1UNL    O14   46  -0.332   0.449  -0.438
    1UNL    C33   47  -0.331   0.206  -0.403
    1UNL    O15   48  -0.190   0.210  -0.413
    1UNL    C34   49  -0.382   0.087  -0.318
    1UNL    O16   50  -0.519   0.062  -0.360
    1UNL    C35   51  -0.198   0.154   0.070
    1UNL    O17   52  -0.177   0.156   0.207
    1UNL    C36   53  -0.059   0.134  -0.003
    1UNL    O18   54  -0.058   0.186  -0.138
    1UNL     H1   55   0.090  -0.084   0.278
    1UNL     H2   56   0.239  -0.109   0.379
    1UNL     H3   57   0.237   0.007   0.255
    1UNL     H4   58   0.151  -0.361   0.216
    1UNL     H5   59   0.311  -0.339   0.285
    1UNL     H6   60   0.386  -0.566   0.149
    1UNL     H7   61   0.496  -0.164  -0.047
    1UNL     H8   62   0.192  -0.129  -0.244
    1UNL     H9   63   0.359  -0.187  -0.277
    1UNL    H10   64   0.191   0.336  -0.316
    1UNL    H11   65   0.229   0.550  -0.221
    1UNL    H12   66   0.317   0.678  -0.071
    1UNL    H13   67   0.446   0.383   0.096
    1UNL    H14   68   0.407   0.158  -0.003
    1UNL    H15   69   0.225  -0.426  -0.149
    1UNL    H16   70   0.042  -0.272  -0.130
    1UNL    H17   71   0.019  -0.333   0.043
    1UNL    H18   72  -0.075  -0.051  -0.097
    1UNL    H19   73  -0.269  -0.162   0.009
    1UNL    H20   74  -0.293  -0.038   0.294
    1UNL    H21   75  -0.408  -0.149   0.204
    1UNL    H22   76   0.033  -0.205   0.554
    1UNL    H23   77   0.180  -0.391   0.627
    1UNL    H24   78   0.171  -0.615   0.520
    1UNL    H25   79   0.018  -0.645   0.330
    1UNL    H26   80  -0.135  -0.463   0.260
    1UNL    H27   81  -0.391   0.063   0.068
    1UNL    H28   82  -0.465   0.133  -0.136
    1UNL    H29   83  -0.485   0.363  -0.146
    1UNL    H30   84  -0.274   0.515  -0.080
    1UNL    H31   85  -0.334   0.572  -0.227
    1UNL    H32   86  -0.143   0.365  -0.187
    1UNL    H33   87  -0.501   0.348  -0.378
    1UNL    H34   88  -0.232   0.448  -0.421
    1UNL    H35   89  -0.364   0.184  -0.509
    1UNL    H36   90  -0.152   0.197  -0.325
    1UNL    H37   91  -0.307   0.001  -0.343
    1UNL    H38   92  -0.547  -0.032  -0.334
    1UNL    H39   93  -0.236   0.254   0.053
    1UNL    H40   94  -0.142   0.068   0.243
    1UNL    H41   95   0.030   0.186   0.039
    1UNL    H42   96   0.021   0.153  -0.182
   0.00000   0.00000   0.00000   0.00000   0.00000   0.00000   0.00000   0.00000   0.00000
Generated with MDTraj, t= 61.0
 96
    1UNL     C1    1   0.190  -0.102   0.268
    1UNL     C2    2   0.243  -0.180   0.153
    1UNL     C3    3   0.243  -0.338   0.180
    1UNL     C4    4   0.299  -0.402   0.052
    1UNL     O1    5   0.290  -0.543   0.068
    1UNL     O2    6   0.438  -0.358   0.033
    1UNL     C5    7   0.415  -0.217   0.011
    1UNL     O3    8   0.384  -0.155   0.125
    1UNL     C6    9   0.286  -0.201  -0.087
    1UNL     C7   10   0.312  -0.124  -0.223
    1UNL     O4   11   0.365  -0.001  -0.206
    1UNL     C8   12   0.262   0.092  -0.222
    1UNL     O5   13   0.159   0.070  -0.276
    1UNL     C9   14   0.297   0.232  -0.173
    1UNL    C10   15   0.261   0.351  -0.231
    1UNL    C11   16   0.285   0.474  -0.170
    1UNL    C12   17   0.357   0.478  -0.053
    1UNL     O6   18   0.390   0.602   0.003
    1UNL    C13   19   0.399   0.355   0.005
    1UNL    C14   20   0.370   0.239  -0.055
    1UNL    C15   21   0.222  -0.346  -0.070
    1UNL    C16   22   0.094  -0.274  -0.038
    1UNL    C17   23   0.173  -0.154   0.010
    1UNL     O7   24   0.132  -0.016  -0.016
    1UNL    C18   25  -0.013  -0.007  -0.009
    1UNL     O8   26  -0.067  -0.083   0.099
    1UNL    C19   27  -0.211  -0.099   0.086
    1UNL    C20   28  -0.289  -0.129   0.220
    1UNL     O9   29  -0.230  -0.244   0.284
    1UNL    C21   30  -0.129  -0.201   0.359
    1UNL    O10   31  -0.097  -0.084   0.377
    1UNL    C22   32  -0.057  -0.316   0.414
    1UNL    C23   33   0.044  -0.296   0.503
    1UNL    C24   34   0.116  -0.398   0.558
    1UNL    C25   35   0.091  -0.528   0.513
    1UNL    C26   36  -0.013  -0.552   0.425
    1UNL    C27   37  -0.088  -0.448   0.378
    1UNL    C28   38  -0.279   0.030   0.023
    1UNL    O11   39  -0.308   0.004  -0.116
    1UNL    C29   40  -0.379   0.117  -0.177
    1UNL    O12   41  -0.330   0.252  -0.148
    1UNL    C30   42  -0.398   0.353  -0.217
    1UNL    C31   43  -0.337   0.480  -0.172
    1UNL    O13   44  -0.195   0.469  -0.184
    1UNL    C32   45  -0.378   0.336  -0.378
    1UNL    O14   46  -0.297   0.435  -0.444
    1UNL    C33   47  -0.323   0.200  -0.415
    1UNL    O15   48  -0.188   0.194  -0.389
    1UNL    C34   49  -0.387   0.082  -0.334
    1UNL    O16   50  -0.525   0.064  -0.376
    1UNL    C35   51  -0.193   0.152   0.067
    1UNL    O17   52  -0.193   0.178   0.205
    1UNL    C36   53  -0.058   0.139   0.000
    1UNL    O18   54  -0.053   0.200  -0.130
    1UNL     H1   55   0.093  -0.137   0.294
    1UNL     H2   56   0.267  -0.108   0.351
    1UNL     H3   57   0.185   0.005   0.251
    1UNL     H4   58   0.146  -0.375   0.194
    1UNL     H5   59   0.312  -0.360   0.262
    1UNL     H6   60   0.384  -0.581   0.070
    1UNL     H7   61   0.503  -0.168  -0.043
    1UNL     H8   62   0.217  -0.127  -0.280
    1UNL     H9   63   0.389  -0.187  -0.273
    1UNL    H10   64   0.202   0.346  -0.325
    1UNL    H11   65   0.243   0.566  -0.210
    1UNL    H12   66   0.355   0.684  -0.045
    1UNL    H13   67   0.437   0.352   0.105
    1UNL    H14   68   0.396   0.140  -0.006
    1UNL    H15   69   0.230  -0.404  -0.165
    1UNL    H16   70   0.038  -0.250  -0.127
    1UNL    H17   71   0.019  -0.320   0.033
    1UNL    H18   72  -0.058  -0.056  -0.093
    1UNL    H19   73  -0.228  -0.190   0.027
    1UNL    H20   74  -0.296  -0.038   0.287
    1UNL    H21   75  -0.381  -0.167   0.196
    1UNL    H22   76   0.050  -0.193   0.536
    1UNL    H23   77   0.181  -0.368   0.645
    1UNL    H24   78   0.153  -0.601   0.563
    1UNL    H25   79  -0.012  -0.654   0.380
    1UNL    H26   80  -0.168  -0.470   0.311
    1UNL    H27   81  -0.376   0.045   0.071
    1UNL    H28   82  -0.477   0.118  -0.138
    1UNL    H29   83  -0.510   0.331  -0.183
    1UNL    H30   84  -0.365   0.500  -0.073
    1UNL    H31   85  -0.362   0.567  -0.233
    1UNL    H32   86  -0.152   0.382  -0.149
    1UNL    H33   87  -0.476   0.339  -0.427
    1UNL    H34   88  -0.205   0.430  -0.405
    1UNL    H35   89  -0.348   0.179  -0.524
    1UNL    H36   90  -0.167   0.179  -0.296
    1UNL    H37   91  -0.322  -0.013  -0.351
    1UNL    H38   92  -0.558  -0.034  -0.383
    1UNL    H39   93  -0.248   0.241   0.034
    1UNL    H40   94  -0.169   0.096   0.260
    1UNL    H41   95   0.023   0.182   0.065
    1UNL    H42   96   0.019   0.154  -0.180
   0.00000   0.00000   0.00000   0.00000   0.00000   0.00000   0.00000   0.00000   0.00000
Generated with MDTraj, t= 62.0
 96
    1UNL     C1    1   0.161  -0.084   0.247
    1UNL     C2    2   0.232  -0.173   0.144
    1UNL     C3    3   0.232  -0.332   0.157
    1UNL     C4    4   0.285  -0.395   0.028
    1UNL     O1    5   0.269  -0.538   0.031
    1UNL     O2    6   0.423  -0.347   0.016
    1UNL     C5    7   0.405  -0.205   0.003
    1UNL     O3    8   0.372  -0.140   0.133
    1UNL     C6    9   0.287  -0.196  -0.091
    1UNL     C7   10   0.312  -0.124  -0.228
    1UNL     O4   11   0.363   0.000  -0.209
    1UNL     C8   12   0.262   0.093  -0.221
    1UNL     O5   13   0.162   0.079  -0.282
    1UNL     C9   14   0.303   0.223  -0.161
    1UNL    C10   15   0.253   0.338  -0.217
    1UNL    C11   16   0.280   0.458  -0.155
    1UNL    C12   17   0.364   0.464  -0.043
    1UNL     O6   18   0.387   0.586   0.010
    1UNL    C13   19   0.410   0.345   0.019
    1UNL    C14   20   0.374   0.226  -0.044
    1UNL    C15   21   0.215  -0.332  -0.089
    1UNL    C16   22   0.087  -0.259  -0.053
    1UNL    C17   23   0.175  -0.143   0.004
    1UNL     O7   24   0.130  -0.010  -0.022
    1UNL    C18   25  -0.014   0.001  -0.010
    1UNL     O8   26  -0.066  -0.076   0.102
    1UNL    C19   27  -0.206  -0.112   0.078
    1UNL    C20   28  -0.278  -0.147   0.208
    1UNL     O9   29  -0.220  -0.258   0.281
    1UNL    C21   30  -0.125  -0.209   0.360
    1UNL    O10   31  -0.093  -0.091   0.376
    1UNL    C22   32  -0.045  -0.313   0.430
    1UNL    C23   33   0.061  -0.287   0.516
    1UNL    C24   34   0.126  -0.388   0.583
    1UNL    C25   35   0.086  -0.519   0.560
    1UNL    C26   36  -0.015  -0.548   0.470
    1UNL    C27   37  -0.079  -0.446   0.404
    1UNL    C28   38  -0.279   0.023   0.025
    1UNL    O11   39  -0.282   0.006  -0.119
    1UNL    C29   40  -0.369   0.105  -0.184
    1UNL    O12   41  -0.330   0.238  -0.159
    1UNL    C30   42  -0.399   0.339  -0.228
    1UNL    C31   43  -0.348   0.470  -0.174
    1UNL    O13   44  -0.205   0.472  -0.179
    1UNL    C32   45  -0.372   0.334  -0.385
    1UNL    O14   46  -0.282   0.429  -0.449
    1UNL    C33   47  -0.313   0.189  -0.415
    1UNL    O15   48  -0.175   0.185  -0.380
    1UNL    C34   49  -0.391   0.082  -0.339
    1UNL    O16   50  -0.529   0.086  -0.378
    1UNL    C35   51  -0.201   0.153   0.074
    1UNL    O17   52  -0.190   0.162   0.207
    1UNL    C36   53  -0.059   0.144   0.007
    1UNL    O18   54  -0.041   0.216  -0.115
    1UNL     H1   55   0.051  -0.098   0.240
    1UNL     H2   56   0.208  -0.081   0.348
    1UNL     H3   57   0.179   0.016   0.212
    1UNL     H4   58   0.128  -0.359   0.174
    1UNL     H5   59   0.300  -0.361   0.239
    1UNL     H6   60   0.328  -0.584  -0.036
    1UNL     H7   61   0.497  -0.154  -0.042
    1UNL     H8   62   0.216  -0.114  -0.283
    1UNL     H9   63   0.382  -0.182  -0.295
    1UNL    H10   64   0.198   0.326  -0.307
    1UNL    H11   65   0.247   0.542  -0.214
    1UNL    H12   66   0.351   0.651  -0.057
    1UNL    H13   67   0.477   0.360   0.104
    1UNL    H14   68   0.398   0.140   0.005
    1UNL    H15   69   0.204  -0.388  -0.185
    1UNL    H16   70   0.024  -0.238  -0.138
    1UNL    H17   71   0.022  -0.313   0.023
    1UNL    H18   72  -0.066  -0.038  -0.097
    1UNL    H19   73  -0.220  -0.196   0.005
    1UNL    H20   74  -0.287  -0.066   0.285
    1UNL    H21   75  -0.376  -0.169   0.179
    1UNL    H22   76   0.067  -0.179   0.530
    1UNL    H23   77   0.176  -0.363   0.671
    1UNL    H24   78   0.150  -0.592   0.607
    1UNL    H25   79  -0.042  -0.646   0.452
    1UNL    H26   80  -0.158  -0.471   0.329
    1UNL    H27   81  -0.387   0.028   0.055
    1UNL    H28   82  -0.463   0.089  -0.138
    1UNL    H29   83  -0.517   0.322  -0.214
    1UNL    H30   84  -0.380   0.486  -0.073
    1UNL    H31   85  -0.401   0.544  -0.237
    1UNL    H32   86  -0.158   0.380  -0.170
    1UNL    H33   87  -0.464   0.353  -0.445
    1UNL    H34   88  -0.204   0.445  -0.389
    1UNL    H35   89  -0.329   0.177  -0.527
    1UNL    H36   90  -0.159   0.172  -0.281
    1UNL    H37   91  -0.344  -0.020  -0.360
    1UNL    H38   92  -0.580   0.005  -0.355
    1UNL    H39   93  -0.264   0.233   0.035
    1UNL    H40   94  -0.139   0.082   0.237
    1UNL    H41   95   0.006   0.205   0.076
    1UNL    H42   96   0.032   0.173  -0.172
   0.00000   0.00000   0.00000   0.00000   0.00000   0.00000   0.00000   0.00000   0.00000
Generated with MDTraj, t= 63.0
 96
    1UNL     C1    1   0.180  -0.078   0.225
    1UNL     C2    2   0.238  -0.179   0.131
    1UNL     C3    3   0.222  -0.333   0.156
    1UNL     C4    4   0.275  -0.404   0.026
    1UNL     O1    5   0.255  -0.542   0.047
    1UNL     O2    6   0.412  -0.365   0.008
    1UNL     C5    7   0.411  -0.226  -0.012
    1UNL     O3    8   0.379  -0.159   0.111
    1UNL     C6    9   0.285  -0.195  -0.103
    1UNL     C7   10   0.303  -0.118  -0.236
    1UNL     O4   11   0.363   0.010  -0.225
    1UNL     C8   12   0.262   0.108  -0.233
    1UNL     O5   13   0.152   0.105  -0.281
    1UNL     C9   14   0.309   0.239  -0.169
    1UNL    C10   15   0.248   0.357  -0.202
    1UNL    C11   16   0.275   0.474  -0.134
    1UNL    C12   17   0.359   0.468  -0.020
    1UNL     O6   18   0.393   0.589   0.041
    1UNL    C13   19   0.420   0.350   0.013
    1UNL    C14   20   0.390   0.232  -0.055
    1UNL    C15   21   0.216  -0.341  -0.104
    1UNL    C16   22   0.082  -0.257  -0.074
    1UNL    C17   23   0.163  -0.144  -0.014
    1UNL     O7   24   0.112  -0.013  -0.034
    1UNL    C18   25  -0.029  -0.007  -0.020
    1UNL     O8   26  -0.082  -0.095   0.089
    1UNL    C19   27  -0.225  -0.111   0.075
    1UNL    C20   28  -0.291  -0.167   0.203
    1UNL     O9   29  -0.198  -0.274   0.249
    1UNL    C21   30  -0.116  -0.222   0.351
    1UNL    O10   31  -0.094  -0.101   0.375
    1UNL    C22   32  -0.043  -0.315   0.448
    1UNL    C23   33   0.051  -0.266   0.534
    1UNL    C24   34   0.119  -0.359   0.609
    1UNL    C25   35   0.096  -0.495   0.598
    1UNL    C26   36   0.001  -0.540   0.506
    1UNL    C27   37  -0.068  -0.451   0.427
    1UNL    C28   38  -0.285   0.015   0.021
    1UNL    O11   39  -0.286   0.013  -0.121
    1UNL    C29   40  -0.366   0.117  -0.173
    1UNL    O12   41  -0.319   0.247  -0.156
    1UNL    C30   42  -0.389   0.349  -0.233
    1UNL    C31   43  -0.328   0.481  -0.181
    1UNL    O13   44  -0.187   0.481  -0.184
    1UNL    C32   45  -0.359   0.326  -0.385
    1UNL    O14   46  -0.275   0.422  -0.443
    1UNL    C33   47  -0.309   0.180  -0.415
    1UNL    O15   48  -0.170   0.181  -0.392
    1UNL    C34   49  -0.385   0.077  -0.325
    1UNL    O16   50  -0.518   0.056  -0.369
    1UNL    C35   51  -0.213   0.148   0.074
    1UNL    O17   52  -0.205   0.154   0.215
    1UNL    C36   53  -0.070   0.142   0.007
    1UNL    O18   54  -0.058   0.217  -0.110
    1UNL     H1   55   0.070  -0.063   0.203
    1UNL     H2   56   0.202  -0.115   0.326
    1UNL     H3   57   0.235   0.013   0.218
    1UNL     H4   58   0.113  -0.352   0.179
    1UNL     H5   59   0.279  -0.350   0.249
    1UNL     H6   60   0.314  -0.563   0.123
    1UNL     H7   61   0.512  -0.193  -0.054
    1UNL     H8   62   0.208  -0.109  -0.291
    1UNL     H9   63   0.375  -0.172  -0.302
    1UNL    H10   64   0.193   0.360  -0.296
    1UNL    H11   65   0.252   0.570  -0.176
    1UNL    H12   66   0.348   0.672   0.015
    1UNL    H13   67   0.494   0.349   0.088
    1UNL    H14   68   0.434   0.133  -0.015
    1UNL    H15   69   0.224  -0.399  -0.198
    1UNL    H16   70   0.030  -0.233  -0.167
    1UNL    H17   71   0.022  -0.310   0.004
    1UNL    H18   72  -0.066  -0.047  -0.116
    1UNL    H19   73  -0.237  -0.187  -0.010
    1UNL    H20   74  -0.293  -0.093   0.284
    1UNL    H21   75  -0.385  -0.212   0.196
    1UNL    H22   76   0.043  -0.161   0.559
    1UNL    H23   77   0.195  -0.325   0.684
    1UNL    H24   78   0.144  -0.570   0.660
    1UNL    H25   79   0.001  -0.652   0.489
    1UNL    H26   80  -0.118  -0.498   0.349
    1UNL    H27   81  -0.391   0.029   0.060
    1UNL    H28   82  -0.466   0.115  -0.132
    1UNL    H29   83  -0.505   0.353  -0.209
    1UNL    H30   84  -0.367   0.495  -0.078
    1UNL    H31   85  -0.366   0.574  -0.235
    1UNL    H32   86  -0.156   0.382  -0.175
    1UNL    H33   87  -0.457   0.337  -0.442
    1UNL    H34   88  -0.187   0.396  -0.411
    1UNL    H35   89  -0.324   0.161  -0.525
    1UNL    H36   90  -0.143   0.176  -0.294
    1UNL    H37   91  -0.330  -0.018  -0.347
    1UNL    H38   92  -0.570   0.133  -0.350
    1UNL    H39   93  -0.275   0.235   0.045
    1UNL    H40   94  -0.178   0.071   0.257
    1UNL    H41   95   0.006   0.175   0.079
    1UNL    H42   96   0.021   0.181  -0.160
   0.00000   0.00000   0.00000   0.00000   0.00000   0.00000   0.00000   0.00000   0.00000
Generated with MDTraj, t= 64.0
 96
    1UNL     C1    1   0.175  -0.091   0.246
    1UNL     C2    2   0.223  -0.183   0.130
    1UNL     C3    3   0.229  -0.341   0.151
    1UNL     C4    4   0.281  -0.401   0.018
    1UNL     O1    5   0.274  -0.541   0.029
    1UNL     O2    6   0.413  -0.357  -0.010
    1UNL     C5    7   0.393  -0.212  -0.029
    1UNL     O3    8   0.362  -0.155   0.100
    1UNL     C6    9   0.265  -0.203  -0.121
    1UNL     C7   10   0.283  -0.113  -0.245
    1UNL     O4   11   0.349   0.014  -0.205
    1UNL     C8   12   0.266   0.119  -0.229
    1UNL     O5   13   0.159   0.109  -0.284
    1UNL     C9   14   0.309   0.244  -0.154
    1UNL    C10   15   0.238   0.362  -0.180
    1UNL    C11   16   0.270   0.476  -0.109
    1UNL    C12   17   0.366   0.473  -0.012
    1UNL     O6   18   0.395   0.581   0.061
    1UNL    C13   19   0.437   0.357   0.009
    1UNL    C14   20   0.408   0.238  -0.059
    1UNL    C15   21   0.192  -0.342  -0.111
    1UNL    C16   22   0.064  -0.265  -0.087
    1UNL    C17   23   0.152  -0.155  -0.013
    1UNL     O7   24   0.108  -0.025  -0.034
    1UNL    C18   25  -0.027  -0.017  -0.010
    1UNL     O8   26  -0.083  -0.099   0.093
    1UNL    C19   27  -0.220  -0.125   0.069
    1UNL    C20   28  -0.277  -0.182   0.200
    1UNL     O9   29  -0.197  -0.279   0.259
    1UNL    C21   30  -0.115  -0.214   0.351
    1UNL    O10   31  -0.102  -0.089   0.357
    1UNL    C22   32  -0.036  -0.301   0.437
    1UNL    C23   33   0.033  -0.242   0.544
    1UNL    C24   34   0.111  -0.326   0.628
    1UNL    C25   35   0.091  -0.458   0.616
    1UNL    C26   36   0.021  -0.522   0.518
    1UNL    C27   37  -0.044  -0.443   0.426
    1UNL    C28   38  -0.287   0.007   0.015
    1UNL    O11   39  -0.312   0.003  -0.120
    1UNL    C29   40  -0.383   0.113  -0.180
    1UNL    O12   41  -0.314   0.237  -0.153
    1UNL    C30   42  -0.369   0.349  -0.223
    1UNL    C31   43  -0.290   0.473  -0.180
    1UNL    O13   44  -0.157   0.458  -0.205
    1UNL    C32   45  -0.359   0.324  -0.374
    1UNL    O14   46  -0.285   0.424  -0.436
    1UNL    C33   47  -0.306   0.184  -0.414
    1UNL    O15   48  -0.171   0.180  -0.387
    1UNL    C34   49  -0.389   0.079  -0.334
    1UNL    O16   50  -0.521   0.071  -0.373
    1UNL    C35   51  -0.211   0.137   0.063
    1UNL    O17   52  -0.200   0.133   0.206
    1UNL    C36   53  -0.062   0.130   0.008
    1UNL    O18   54  -0.044   0.206  -0.107
    1UNL     H1   55   0.081  -0.135   0.277
    1UNL     H2   56   0.248  -0.087   0.326
    1UNL     H3   57   0.151   0.014   0.220
    1UNL     H4   58   0.124  -0.362   0.194
    1UNL     H5   59   0.295  -0.358   0.241
    1UNL     H6   60   0.290  -0.582  -0.056
    1UNL     H7   61   0.486  -0.169  -0.079
    1UNL     H8   62   0.191  -0.083  -0.294
    1UNL     H9   63   0.343  -0.167  -0.319
    1UNL    H10   64   0.153   0.357  -0.246
    1UNL    H11   65   0.217   0.565  -0.140
    1UNL    H12   66   0.334   0.653   0.043
    1UNL    H13   67   0.506   0.352   0.096
    1UNL    H14   68   0.446   0.152  -0.018
    1UNL    H15   69   0.198  -0.410  -0.197
    1UNL    H16   70   0.006  -0.222  -0.172
    1UNL    H17   71   0.007  -0.320  -0.012
    1UNL    H18   72  -0.068  -0.054  -0.108
    1UNL    H19   73  -0.233  -0.202  -0.017
    1UNL    H20   74  -0.292  -0.105   0.278
    1UNL    H21   75  -0.372  -0.225   0.176
    1UNL    H22   76   0.027  -0.132   0.553
    1UNL    H23   77   0.152  -0.278   0.710
    1UNL    H24   78   0.137  -0.522   0.690
    1UNL    H25   79   0.032  -0.623   0.497
    1UNL    H26   80  -0.087  -0.491   0.331
    1UNL    H27   81  -0.383   0.017   0.076
    1UNL    H28   82  -0.478   0.120  -0.127
    1UNL    H29   83  -0.479   0.369  -0.188
    1UNL    H30   84  -0.317   0.511  -0.076
    1UNL    H31   85  -0.326   0.558  -0.248
    1UNL    H32   86  -0.127   0.371  -0.161
    1UNL    H33   87  -0.466   0.322  -0.417
    1UNL    H34   88  -0.187   0.411  -0.415
    1UNL    H35   89  -0.324   0.161  -0.520
    1UNL    H36   90  -0.156   0.155  -0.292
    1UNL    H37   91  -0.336  -0.016  -0.346
    1UNL    H38   92  -0.532   0.069  -0.469
    1UNL    H39   93  -0.252   0.237   0.035
    1UNL    H40   94  -0.156   0.048   0.232
    1UNL    H41   95   0.003   0.182   0.080
    1UNL    H42   96   0.023   0.170  -0.165
   0.00000   0.00000   0.00000   0.00000   0.00000   0.00000   0.00000   0.00000   0.00000
Generated with MDTraj, t= 65.0
 96
    1UNL     C1    1   0.175  -0.132   0.243
    1UNL     C2    2   0.234  -0.204   0.124
    1UNL     C3    3   0.238  -0.353   0.125
    1UNL     C4    4   0.294  -0.412  -0.004
    1UNL     O1    5   0.281  -0.555  -0.000
    1UNL     O2    6   0.427  -0.353  -0.022
    1UNL     C5    7   0.410  -0.207  -0.027
    1UNL     O3    8   0.368  -0.160   0.105
    1UNL     C6    9   0.278  -0.197  -0.115
    1UNL     C7   10   0.289  -0.112  -0.242
    1UNL     O4   11   0.354   0.010  -0.211
    1UNL     C8   12   0.261   0.111  -0.215
    1UNL     O5   13   0.153   0.114  -0.271
    1UNL     C9   14   0.292   0.236  -0.141
    1UNL    C10   15   0.221   0.353  -0.159
    1UNL    C11   16   0.262   0.469  -0.089
    1UNL    C12   17   0.372   0.464  -0.004
    1UNL     O6   18   0.409   0.580   0.070
    1UNL    C13   19   0.451   0.348   0.006
    1UNL    C14   20   0.410   0.235  -0.067
    1UNL    C15   21   0.220  -0.342  -0.132
    1UNL    C16   22   0.080  -0.275  -0.095
    1UNL    C17   23   0.162  -0.162  -0.023
    1UNL     O7   24   0.119  -0.022  -0.032
    1UNL    C18   25  -0.023  -0.025  -0.011
    1UNL     O8   26  -0.081  -0.116   0.083
    1UNL    C19   27  -0.228  -0.134   0.073
    1UNL    C20   28  -0.299  -0.177   0.202
    1UNL     O9   29  -0.221  -0.261   0.279
    1UNL    C21   30  -0.130  -0.200   0.355
    1UNL    O10   31  -0.125  -0.078   0.364
    1UNL    C22   32  -0.044  -0.286   0.448
    1UNL    C23   33   0.015  -0.227   0.555
    1UNL    C24   34   0.097  -0.296   0.641
    1UNL    C25   35   0.112  -0.432   0.617
    1UNL    C26   36   0.043  -0.491   0.512
    1UNL    C27   37  -0.027  -0.417   0.424
    1UNL    C28   38  -0.299  -0.001   0.018
    1UNL    O11   39  -0.314  -0.008  -0.124
    1UNL    C29   40  -0.377   0.110  -0.183
    1UNL    O12   41  -0.310   0.240  -0.158
    1UNL    C30   42  -0.372   0.355  -0.226
    1UNL    C31   43  -0.281   0.476  -0.188
    1UNL    O13   44  -0.146   0.447  -0.214
    1UNL    C32   45  -0.371   0.332  -0.375
    1UNL    O14   46  -0.289   0.430  -0.433
    1UNL    C33   47  -0.314   0.193  -0.420
    1UNL    O15   48  -0.174   0.183  -0.396
    1UNL    C34   49  -0.395   0.093  -0.339
    1UNL    O16   50  -0.533   0.079  -0.371
    1UNL    C35   51  -0.219   0.126   0.061
    1UNL    O17   52  -0.231   0.149   0.203
    1UNL    C36   53  -0.069   0.115   0.014
    1UNL    O18   54  -0.047   0.190  -0.098
    1UNL     H1   55   0.070  -0.122   0.236
    1UNL     H2   56   0.213  -0.169   0.337
    1UNL     H3   57   0.209  -0.024   0.241
    1UNL     H4   58   0.139  -0.404   0.154
    1UNL     H5   59   0.313  -0.387   0.206
    1UNL     H6   60   0.340  -0.582   0.069
    1UNL     H7   61   0.502  -0.151  -0.066
    1UNL     H8   62   0.196  -0.092  -0.290
    1UNL     H9   63   0.360  -0.156  -0.314
    1UNL    H10   64   0.137   0.354  -0.226
    1UNL    H11   65   0.199   0.556  -0.086
    1UNL    H12   66   0.350   0.652   0.051
    1UNL    H13   67   0.518   0.344   0.086
    1UNL    H14   68   0.465   0.137  -0.046
    1UNL    H15   69   0.240  -0.368  -0.237
    1UNL    H16   70   0.004  -0.242  -0.173
    1UNL    H17   71   0.030  -0.350  -0.036
    1UNL    H18   72  -0.054  -0.060  -0.115
    1UNL    H19   73  -0.246  -0.214  -0.009
    1UNL    H20   74  -0.304  -0.082   0.257
    1UNL    H21   75  -0.398  -0.217   0.185
    1UNL    H22   76  -0.008  -0.132   0.593
    1UNL    H23   77   0.138  -0.263   0.740
    1UNL    H24   78   0.174  -0.489   0.682
    1UNL    H25   79   0.075  -0.595   0.488
    1UNL    H26   80  -0.067  -0.460   0.341
    1UNL    H27   81  -0.404   0.005   0.059
    1UNL    H28   82  -0.477   0.128  -0.135
    1UNL    H29   83  -0.474   0.367  -0.176
    1UNL    H30   84  -0.296   0.493  -0.077
    1UNL    H31   85  -0.323   0.574  -0.232
    1UNL    H32   86  -0.133   0.357  -0.182
    1UNL    H33   87  -0.472   0.356  -0.424
    1UNL    H34   88  -0.198   0.438  -0.400
    1UNL    H35   89  -0.333   0.181  -0.526
    1UNL    H36   90  -0.160   0.167  -0.301
    1UNL    H37   91  -0.354  -0.001  -0.364
    1UNL    H38   92  -0.600   0.098  -0.298
    1UNL    H39   93  -0.262   0.215   0.012
    1UNL    H40   94  -0.185   0.068   0.242
    1UNL    H41   95  -0.015   0.157   0.098
    1UNL    H42   96   0.032   0.156  -0.147
   0.00000   0.00000   0.00000   0.00000   0.00000   0.00000   0.00000   0.00000   0.00000
Generated with MDTraj, t= 66.0
 96
    1UNL     C1    1   0.156  -0.152   0.231
    1UNL     C2    2   0.227  -0.223   0.114
    1UNL     C3    3   0.243  -0.385   0.112
    1UNL     C4    4   0.317  -0.422  -0.022
    1UNL     O1    5   0.308  -0.564  -0.044
    1UNL     O2    6   0.446  -0.354  -0.026
    1UNL     C5    7   0.419  -0.217  -0.019
    1UNL     O3    8   0.370  -0.179   0.114
    1UNL     C6    9   0.294  -0.199  -0.115
    1UNL     C7   10   0.312  -0.119  -0.246
    1UNL     O4   11   0.363   0.010  -0.215
    1UNL     C8   12   0.268   0.106  -0.204
    1UNL     O5   13   0.158   0.098  -0.256
    1UNL     C9   14   0.304   0.233  -0.137
    1UNL    C10   15   0.226   0.344  -0.143
    1UNL    C11   16   0.255   0.460  -0.072
    1UNL    C12   17   0.375   0.466   0.000
    1UNL     O6   18   0.418   0.573   0.075
    1UNL    C13   19   0.455   0.352   0.009
    1UNL    C14   20   0.425   0.242  -0.065
    1UNL    C15   21   0.228  -0.344  -0.135
    1UNL    C16   22   0.097  -0.287  -0.098
    1UNL    C17   23   0.170  -0.174  -0.020
    1UNL     O7   24   0.110  -0.043  -0.025
    1UNL    C18   25  -0.032  -0.038  -0.013
    1UNL     O8   26  -0.096  -0.122   0.077
    1UNL    C19   27  -0.239  -0.121   0.065
    1UNL    C20   28  -0.301  -0.169   0.197
    1UNL     O9   29  -0.227  -0.249   0.278
    1UNL    C21   30  -0.147  -0.181   0.365
    1UNL    O10   31  -0.153  -0.063   0.379
    1UNL    C22   32  -0.060  -0.262   0.450
    1UNL    C23   33  -0.000  -0.206   0.569
    1UNL    C24   34   0.089  -0.277   0.640
    1UNL    C25   35   0.129  -0.403   0.601
    1UNL    C26   36   0.071  -0.464   0.499
    1UNL    C27   37  -0.024  -0.396   0.423
    1UNL    C28   38  -0.293   0.015   0.015
    1UNL    O11   39  -0.306   0.002  -0.125
    1UNL    C29   40  -0.375   0.109  -0.185
    1UNL    O12   41  -0.306   0.236  -0.170
    1UNL    C30   42  -0.368   0.354  -0.229
    1UNL    C31   43  -0.290   0.480  -0.177
    1UNL    O13   44  -0.156   0.453  -0.189
    1UNL    C32   45  -0.376   0.336  -0.384
    1UNL    O14   46  -0.298   0.431  -0.445
    1UNL    C33   47  -0.332   0.189  -0.425
    1UNL    O15   48  -0.193   0.173  -0.412
    1UNL    C34   49  -0.402   0.082  -0.338
    1UNL    O16   50  -0.547   0.085  -0.358
    1UNL    C35   51  -0.217   0.136   0.077
    1UNL    O17   52  -0.244   0.153   0.221
    1UNL    C36   53  -0.070   0.115   0.023
    1UNL    O18   54  -0.056   0.200  -0.088
    1UNL     H1   55   0.049  -0.158   0.221
    1UNL     H2   56   0.192  -0.181   0.328
    1UNL     H3   57   0.166  -0.041   0.224
    1UNL     H4   58   0.145  -0.443   0.114
    1UNL     H5   59   0.303  -0.431   0.202
    1UNL     H6   60   0.396  -0.601  -0.048
    1UNL     H7   61   0.504  -0.145  -0.043
    1UNL     H8   62   0.215  -0.100  -0.285
    1UNL     H9   63   0.379  -0.168  -0.318
    1UNL    H10   64   0.135   0.345  -0.206
    1UNL    H11   65   0.184   0.542  -0.075
    1UNL    H12   66   0.362   0.648   0.053
    1UNL    H13   67   0.540   0.342   0.080
    1UNL    H14   68   0.485   0.157  -0.057
    1UNL    H15   69   0.237  -0.375  -0.239
    1UNL    H16   70   0.033  -0.255  -0.186
    1UNL    H17   71   0.039  -0.347  -0.030
    1UNL    H18   72  -0.065  -0.056  -0.121
    1UNL    H19   73  -0.249  -0.207  -0.010
    1UNL    H20   74  -0.323  -0.079   0.255
    1UNL    H21   75  -0.391  -0.225   0.177
    1UNL    H22   76  -0.043  -0.114   0.609
    1UNL    H23   77   0.115  -0.246   0.737
    1UNL    H24   78   0.214  -0.454   0.647
    1UNL    H25   79   0.091  -0.563   0.471
    1UNL    H26   80  -0.059  -0.419   0.317
    1UNL    H27   81  -0.396   0.022   0.055
    1UNL    H28   82  -0.478   0.128  -0.141
    1UNL    H29   83  -0.472   0.351  -0.182
    1UNL    H30   84  -0.331   0.511  -0.080
    1UNL    H31   85  -0.316   0.569  -0.242
    1UNL    H32   86  -0.131   0.369  -0.141
    1UNL    H33   87  -0.480   0.343  -0.429
    1UNL    H34   88  -0.225   0.460  -0.380
    1UNL    H35   89  -0.352   0.173  -0.529
    1UNL    H36   90  -0.160   0.211  -0.325
    1UNL    H37   91  -0.363  -0.014  -0.349
    1UNL    H38   92  -0.571   0.024  -0.438
    1UNL    H39   93  -0.267   0.216   0.019
    1UNL    H40   94  -0.212   0.081   0.275
    1UNL    H41   95  -0.009   0.150   0.106
    1UNL    H42   96   0.013   0.162  -0.151
   0.00000   0.00000   0.00000   0.00000   0.00000   0.00000   0.00000   0.00000   0.00000
Generated with MDTraj, t= 67.0
 96
    1UNL     C1    1   0.140  -0.177   0.231
    1UNL     C2    2   0.221  -0.239   0.116
    1UNL     C3    3   0.232  -0.389   0.109
    1UNL     C4    4   0.301  -0.424  -0.031
    1UNL     O1    5   0.312  -0.557  -0.056
    1UNL     O2    6   0.435  -0.358  -0.033
    1UNL     C5    7   0.409  -0.218  -0.019
    1UNL     O3    8   0.358  -0.192   0.105
    1UNL     C6    9   0.282  -0.199  -0.119
    1UNL     C7   10   0.317  -0.113  -0.243
    1UNL     O4   11   0.370   0.008  -0.197
    1UNL     C8   12   0.285   0.111  -0.201
    1UNL     O5   13   0.177   0.102  -0.264
    1UNL     C9   14   0.327   0.239  -0.137
    1UNL    C10   15   0.237   0.347  -0.137
    1UNL    C11   16   0.259   0.468  -0.067
    1UNL    C12   17   0.374   0.477   0.010
    1UNL     O6   18   0.423   0.581   0.088
    1UNL    C13   19   0.460   0.364   0.017
    1UNL    C14   20   0.437   0.249  -0.057
    1UNL    C15   21   0.225  -0.349  -0.145
    1UNL    C16   22   0.084  -0.303  -0.106
    1UNL    C17   23   0.153  -0.184  -0.025
    1UNL     O7   24   0.114  -0.047  -0.023
    1UNL    C18   25  -0.027  -0.030  -0.006
    1UNL     O8   26  -0.084  -0.114   0.094
    1UNL    C19   27  -0.229  -0.128   0.076
    1UNL    C20   28  -0.311  -0.184   0.197
    1UNL     O9   29  -0.235  -0.254   0.281
    1UNL    C21   30  -0.163  -0.176   0.367
    1UNL    O10   31  -0.178  -0.059   0.373
    1UNL    C22   32  -0.065  -0.251   0.449
    1UNL    C23   33  -0.004  -0.189   0.563
    1UNL    C24   34   0.092  -0.257   0.634
    1UNL    C25   35   0.144  -0.384   0.601
    1UNL    C26   36   0.080  -0.443   0.492
    1UNL    C27   37  -0.019  -0.380   0.420
    1UNL    C28   38  -0.290   0.005   0.016
    1UNL    O11   39  -0.304  -0.003  -0.123
    1UNL    C29   40  -0.380   0.098  -0.180
    1UNL    O12   41  -0.317   0.224  -0.157
    1UNL    C30   42  -0.378   0.335  -0.224
    1UNL    C31   43  -0.300   0.460  -0.178
    1UNL    O13   44  -0.167   0.461  -0.204
    1UNL    C32   45  -0.379   0.332  -0.383
    1UNL    O14   46  -0.285   0.426  -0.434
    1UNL    C33   47  -0.337   0.182  -0.428
    1UNL    O15   48  -0.199   0.178  -0.396
    1UNL    C34   49  -0.413   0.076  -0.339
    1UNL    O16   50  -0.555   0.094  -0.354
    1UNL    C35   51  -0.211   0.128   0.063
    1UNL    O17   52  -0.215   0.154   0.201
    1UNL    C36   53  -0.060   0.122   0.024
    1UNL    O18   54  -0.030   0.202  -0.095
    1UNL     H1   55   0.037  -0.219   0.221
    1UNL     H2   56   0.180  -0.183   0.332
    1UNL     H3   57   0.117  -0.075   0.205
    1UNL     H4   58   0.136  -0.453   0.111
    1UNL     H5   59   0.306  -0.426   0.189
    1UNL     H6   60   0.374  -0.566  -0.133
    1UNL     H7   61   0.501  -0.157  -0.050
    1UNL     H8   62   0.231  -0.087  -0.304
    1UNL     H9   63   0.395  -0.161  -0.304
    1UNL    H10   64   0.156   0.340  -0.201
    1UNL    H11   65   0.208   0.560  -0.092
    1UNL    H12   66   0.368   0.661   0.074
    1UNL    H13   67   0.545   0.372   0.078
    1UNL    H14   68   0.505   0.163  -0.058
    1UNL    H15   69   0.245  -0.377  -0.249
    1UNL    H16   70   0.034  -0.267  -0.201
    1UNL    H17   71   0.025  -0.363  -0.038
    1UNL    H18   72  -0.066  -0.047  -0.111
    1UNL    H19   73  -0.226  -0.206  -0.005
    1UNL    H20   74  -0.352  -0.098   0.250
    1UNL    H21   75  -0.395  -0.245   0.168
    1UNL    H22   76  -0.024  -0.092   0.602
    1UNL    H23   77   0.134  -0.227   0.735
    1UNL    H24   78   0.207  -0.441   0.665
    1UNL    H25   79   0.129  -0.533   0.450
    1UNL    H26   80  -0.050  -0.419   0.329
    1UNL    H27   81  -0.391   0.015   0.056
    1UNL    H28   82  -0.481   0.102  -0.127
    1UNL    H29   83  -0.484   0.343  -0.192
    1UNL    H30   84  -0.313   0.480  -0.074
    1UNL    H31   85  -0.355   0.545  -0.222
    1UNL    H32   86  -0.124   0.382  -0.160
    1UNL    H33   87  -0.480   0.353  -0.425
    1UNL    H34   88  -0.207   0.414  -0.385
    1UNL    H35   89  -0.349   0.165  -0.534
    1UNL    H36   90  -0.181   0.205  -0.306
    1UNL    H37   91  -0.383  -0.022  -0.358
    1UNL    H38   92  -0.580   0.029  -0.424
    1UNL    H39   93  -0.250   0.208   0.000
    1UNL    H40   94  -0.201   0.071   0.254
    1UNL    H41   95  -0.002   0.159   0.109
    1UNL    H42   96   0.038   0.158  -0.147
   0.00000   0.00000   0.00000   0.00000   0.00000   0.00000   0.00000   0.00000   0.00000
Generated with MDTraj, t= 68.0
 96
    1UNL     C1    1   0.157  -0.174   0.243
    1UNL     C2    2   0.217  -0.233   0.107
    1UNL     C3    3   0.206  -0.385   0.096
    1UNL     C4    4   0.279  -0.429  -0.035
    1UNL     O1    5   0.268  -0.567  -0.048
    1UNL     O2    6   0.419  -0.382  -0.032
    1UNL     C5    7   0.414  -0.237  -0.021
    1UNL     O3    8   0.362  -0.204   0.115
    1UNL     C6    9   0.298  -0.198  -0.124
    1UNL     C7   10   0.323  -0.100  -0.237
    1UNL     O4   11   0.370   0.019  -0.180
    1UNL     C8   12   0.291   0.129  -0.198
    1UNL     O5   13   0.184   0.128  -0.264
    1UNL     C9   14   0.329   0.253  -0.132
    1UNL    C10   15   0.249   0.370  -0.143
    1UNL    C11   16   0.284   0.482  -0.077
    1UNL    C12   17   0.392   0.482   0.020
    1UNL     O6   18   0.428   0.593   0.100
    1UNL    C13   19   0.465   0.368   0.027
    1UNL    C14   20   0.436   0.255  -0.045
    1UNL    C15   21   0.226  -0.337  -0.162
    1UNL    C16   22   0.090  -0.273  -0.133
    1UNL    C17   23   0.168  -0.174  -0.033
    1UNL     O7   24   0.118  -0.047  -0.023
    1UNL    C18   25  -0.027  -0.037  -0.023
    1UNL     O8   26  -0.088  -0.122   0.078
    1UNL    C19   27  -0.232  -0.134   0.064
    1UNL    C20   28  -0.305  -0.184   0.194
    1UNL     O9   29  -0.218  -0.261   0.265
    1UNL    C21   30  -0.159  -0.185   0.364
    1UNL    O10   31  -0.182  -0.070   0.381
    1UNL    C22   32  -0.062  -0.259   0.454
    1UNL    C23   33   0.002  -0.183   0.555
    1UNL    C24   34   0.106  -0.235   0.630
    1UNL    C25   35   0.148  -0.363   0.605
    1UNL    C26   36   0.080  -0.443   0.513
    1UNL    C27   37  -0.025  -0.392   0.440
    1UNL    C28   38  -0.299   0.003   0.012
    1UNL    O11   39  -0.316  -0.008  -0.124
    1UNL    C29   40  -0.397   0.091  -0.168
    1UNL    O12   41  -0.346   0.225  -0.141
    1UNL    C30   42  -0.383   0.338  -0.222
    1UNL    C31   43  -0.294   0.464  -0.181
    1UNL    O13   44  -0.151   0.457  -0.203
    1UNL    C32   45  -0.374   0.316  -0.383
    1UNL    O14   46  -0.289   0.417  -0.443
    1UNL    C33   47  -0.324   0.170  -0.401
    1UNL    O15   48  -0.182   0.165  -0.379
    1UNL    C34   49  -0.416   0.071  -0.324
    1UNL    O16   50  -0.552   0.088  -0.354
    1UNL    C35   51  -0.210   0.122   0.062
    1UNL    O17   52  -0.216   0.156   0.201
    1UNL    C36   53  -0.064   0.115   0.001
    1UNL    O18   54  -0.066   0.182  -0.127
    1UNL     H1   55   0.045  -0.181   0.238
    1UNL     H2   56   0.200  -0.225   0.330
    1UNL     H3   57   0.168  -0.069   0.253
    1UNL     H4   58   0.102  -0.435   0.077
    1UNL     H5   59   0.257  -0.437   0.182
    1UNL     H6   60   0.348  -0.603  -0.098
    1UNL     H7   61   0.514  -0.194  -0.056
    1UNL     H8   62   0.228  -0.080  -0.289
    1UNL     H9   63   0.400  -0.131  -0.311
    1UNL    H10   64   0.167   0.383  -0.218
    1UNL    H11   65   0.242   0.577  -0.106
    1UNL    H12   66   0.367   0.670   0.079
    1UNL    H13   67   0.557   0.367   0.086
    1UNL    H14   68   0.490   0.161  -0.037
    1UNL    H15   69   0.231  -0.389  -0.259
    1UNL    H16   70   0.049  -0.208  -0.212
    1UNL    H17   71   0.018  -0.342  -0.087
    1UNL    H18   72  -0.058  -0.071  -0.125
    1UNL    H19   73  -0.248  -0.196  -0.024
    1UNL    H20   74  -0.328  -0.095   0.248
    1UNL    H21   75  -0.396  -0.240   0.179
    1UNL    H22   76  -0.027  -0.078   0.574
    1UNL    H23   77   0.145  -0.188   0.715
    1UNL    H24   78   0.221  -0.414   0.671
    1UNL    H25   79   0.128  -0.534   0.486
    1UNL    H26   80  -0.071  -0.446   0.354
    1UNL    H27   81  -0.394   0.009   0.062
    1UNL    H28   82  -0.502   0.078  -0.121
    1UNL    H29   83  -0.485   0.361  -0.190
    1UNL    H30   84  -0.325   0.490  -0.085
    1UNL    H31   85  -0.319   0.554  -0.235
    1UNL    H32   86  -0.123   0.358  -0.187
    1UNL    H33   87  -0.471   0.339  -0.425
    1UNL    H34   88  -0.193   0.399  -0.409
    1UNL    H35   89  -0.345   0.147  -0.504
    1UNL    H36   90  -0.171   0.144  -0.281
    1UNL    H37   91  -0.398  -0.031  -0.345
    1UNL    H38   92  -0.567   0.053  -0.440
    1UNL    H39   93  -0.249   0.214   0.017
    1UNL    H40   94  -0.197   0.072   0.250
    1UNL    H41   95  -0.000   0.152   0.085
    1UNL    H42   96   0.026   0.173  -0.169
   0.00000   0.00000   0.00000   0.00000   0.00000   0.00000   0.00000   0.00000   0.00000
Generated with MDTraj, t= 69.0
 96
    1UNL     C1    1   0.151  -0.171   0.228
    1UNL     C2    2   0.210  -0.235   0.103
    1UNL     C3    3   0.198  -0.385   0.092
    1UNL     C4    4   0.267  -0.429  -0.042
    1UNL     O1    5   0.240  -0.569  -0.067
    1UNL     O2    6   0.405  -0.378  -0.031
    1UNL     C5    7   0.404  -0.237  -0.023
    1UNL     O3    8   0.349  -0.197   0.108
    1UNL     C6    9   0.285  -0.199  -0.122
    1UNL     C7   10   0.311  -0.098  -0.229
    1UNL     O4   11   0.367   0.017  -0.165
    1UNL     C8   12   0.298   0.133  -0.180
    1UNL     O5   13   0.194   0.130  -0.252
    1UNL     C9   14   0.334   0.252  -0.104
    1UNL    C10   15   0.262   0.369  -0.140
    1UNL    C11   16   0.299   0.484  -0.079
    1UNL    C12   17   0.402   0.488   0.021
    1UNL     O6   18   0.433   0.605   0.082
    1UNL    C13   19   0.469   0.371   0.049
    1UNL    C14   20   0.435   0.253  -0.011
    1UNL    C15   21   0.215  -0.328  -0.162
    1UNL    C16   22   0.076  -0.257  -0.138
    1UNL    C17   23   0.151  -0.169  -0.034
    1UNL     O7   24   0.116  -0.032  -0.024
    1UNL    C18   25  -0.025  -0.032  -0.009
    1UNL     O8   26  -0.084  -0.115   0.088
    1UNL    C19   27  -0.224  -0.123   0.062
    1UNL    C20   28  -0.284  -0.199   0.181
    1UNL     O9   29  -0.191  -0.278   0.253
    1UNL    C21   30  -0.135  -0.196   0.352
    1UNL    O10   31  -0.165  -0.082   0.375
    1UNL    C22   32  -0.040  -0.258   0.453
    1UNL    C23   33   0.030  -0.176   0.543
    1UNL    C24   34   0.122  -0.229   0.634
    1UNL    C25   35   0.139  -0.365   0.625
    1UNL    C26   36   0.077  -0.449   0.537
    1UNL    C27   37  -0.018  -0.394   0.455
    1UNL    C28   38  -0.303   0.008   0.021
    1UNL    O11   39  -0.329  -0.011  -0.113
    1UNL    C29   40  -0.394   0.094  -0.183
    1UNL    O12   41  -0.328   0.230  -0.154
    1UNL    C30   42  -0.375   0.337  -0.232
    1UNL    C31   43  -0.300   0.459  -0.194
    1UNL    O13   44  -0.159   0.446  -0.189
    1UNL    C32   45  -0.371   0.310  -0.392
    1UNL    O14   46  -0.286   0.411  -0.453
    1UNL    C33   47  -0.336   0.163  -0.420
    1UNL    O15   48  -0.192   0.149  -0.401
    1UNL    C34   49  -0.424   0.065  -0.339
    1UNL    O16   50  -0.564   0.083  -0.360
    1UNL    C35   51  -0.215   0.129   0.067
    1UNL    O17   52  -0.213   0.151   0.207
    1UNL    C36   53  -0.067   0.115   0.005
    1UNL    O18   54  -0.064   0.185  -0.119
    1UNL     H1   55   0.045  -0.192   0.224
    1UNL     H2   56   0.190  -0.200   0.328
    1UNL     H3   57   0.149  -0.065   0.218
    1UNL     H4   58   0.092  -0.423   0.085
    1UNL     H5   59   0.251  -0.446   0.170
    1UNL     H6   60   0.305  -0.606  -0.135
    1UNL     H7   61   0.504  -0.186  -0.034
    1UNL     H8   62   0.225  -0.060  -0.287
    1UNL     H9   63   0.382  -0.146  -0.303
    1UNL    H10   64   0.184   0.366  -0.209
    1UNL    H11   65   0.254   0.581  -0.093
    1UNL    H12   66   0.375   0.681   0.047
    1UNL    H13   67   0.543   0.376   0.128
    1UNL    H14   68   0.468   0.156   0.017
    1UNL    H15   69   0.252  -0.363  -0.259
    1UNL    H16   70   0.038  -0.193  -0.216
    1UNL    H17   71  -0.009  -0.315  -0.094
    1UNL    H18   72  -0.071  -0.056  -0.107
    1UNL    H19   73  -0.230  -0.178  -0.029
    1UNL    H20   74  -0.327  -0.135   0.253
    1UNL    H21   75  -0.367  -0.263   0.147
    1UNL    H22   76  -0.003  -0.076   0.552
    1UNL    H23   77   0.161  -0.158   0.710
    1UNL    H24   78   0.216  -0.412   0.679
    1UNL    H25   79   0.092  -0.558   0.532
    1UNL    H26   80  -0.058  -0.452   0.375
    1UNL    H27   81  -0.388   0.005   0.086
    1UNL    H28   82  -0.496   0.096  -0.129
    1UNL    H29   83  -0.481   0.343  -0.221
    1UNL    H30   84  -0.326   0.492  -0.098
    1UNL    H31   85  -0.336   0.535  -0.262
    1UNL    H32   86  -0.136   0.360  -0.142
    1UNL    H33   87  -0.470   0.331  -0.424
    1UNL    H34   88  -0.208   0.413  -0.402
    1UNL    H35   89  -0.342   0.136  -0.525
    1UNL    H36   90  -0.178   0.144  -0.300
    1UNL    H37   91  -0.394  -0.036  -0.361
    1UNL    H38   92  -0.580   0.110  -0.449
    1UNL    H39   93  -0.251   0.220   0.021
    1UNL    H40   94  -0.188   0.070   0.254
    1UNL    H41   95  -0.007   0.173   0.080
    1UNL    H42   96   0.024   0.170  -0.162
   0.00000   0.00000   0.00000   0.00000   0.00000   0.00000   0.00000   0.00000   0.00000
Generated with MDTraj, t= 70.0
 96
    1UNL     C1    1   0.149  -0.169   0.227
    1UNL     C2    2   0.207  -0.237   0.106
    1UNL     C3    3   0.195  -0.389   0.093
    1UNL     C4    4   0.261  -0.431  -0.050
    1UNL     O1    5   0.240  -0.566  -0.088
    1UNL     O2    6   0.404  -0.391  -0.040
    1UNL     C5    7   0.397  -0.243  -0.027
    1UNL     O3    8   0.345  -0.205   0.101
    1UNL     C6    9   0.278  -0.194  -0.126
    1UNL     C7   10   0.313  -0.089  -0.227
    1UNL     O4   11   0.379   0.027  -0.171
    1UNL     C8   12   0.290   0.131  -0.177
    1UNL     O5   13   0.183   0.119  -0.241
    1UNL     C9   14   0.324   0.257  -0.106
    1UNL    C10   15   0.272   0.384  -0.137
    1UNL    C11   16   0.308   0.497  -0.072
    1UNL    C12   17   0.407   0.497   0.027
    1UNL     O6   18   0.461   0.613   0.088
    1UNL    C13   19   0.458   0.367   0.056
    1UNL    C14   20   0.421   0.255  -0.003
    1UNL    C15   21   0.208  -0.325  -0.166
    1UNL    C16   22   0.073  -0.262  -0.131
    1UNL    C17   23   0.150  -0.167  -0.035
    1UNL     O7   24   0.117  -0.032  -0.027
    1UNL    C18   25  -0.021  -0.020  -0.010
    1UNL     O8   26  -0.079  -0.109   0.080
    1UNL    C19   27  -0.218  -0.130   0.059
    1UNL    C20   28  -0.290  -0.191   0.188
    1UNL     O9   29  -0.209  -0.275   0.280
    1UNL    C21   30  -0.134  -0.192   0.365
    1UNL    O10   31  -0.143  -0.071   0.361
    1UNL    C22   32  -0.038  -0.256   0.466
    1UNL    C23   33   0.035  -0.179   0.548
    1UNL    C24   34   0.129  -0.241   0.634
    1UNL    C25   35   0.142  -0.379   0.631
    1UNL    C26   36   0.061  -0.455   0.548
    1UNL    C27   37  -0.028  -0.391   0.463
    1UNL    C28   38  -0.295  -0.008   0.005
    1UNL    O11   39  -0.300  -0.010  -0.138
    1UNL    C29   40  -0.375   0.091  -0.188
    1UNL    O12   41  -0.319   0.221  -0.173
    1UNL    C30   42  -0.388   0.333  -0.239
    1UNL    C31   43  -0.321   0.461  -0.208
    1UNL    O13   44  -0.182   0.470  -0.217
    1UNL    C32   45  -0.375   0.308  -0.397
    1UNL    O14   46  -0.273   0.388  -0.450
    1UNL    C33   47  -0.339   0.164  -0.413
    1UNL    O15   48  -0.198   0.147  -0.391
    1UNL    C34   49  -0.420   0.063  -0.332
    1UNL    O16   50  -0.564   0.075  -0.329
    1UNL    C35   51  -0.220   0.125   0.062
    1UNL    O17   52  -0.229   0.138   0.206
    1UNL    C36   53  -0.070   0.132   0.013
    1UNL    O18   54  -0.047   0.200  -0.105
    1UNL     H1   55   0.051  -0.206   0.240
    1UNL     H2   56   0.203  -0.190   0.320
    1UNL     H3   57   0.136  -0.060   0.217
    1UNL     H4   58   0.102  -0.440   0.113
    1UNL     H5   59   0.274  -0.437   0.157
    1UNL     H6   60   0.319  -0.579  -0.148
    1UNL     H7   61   0.501  -0.203  -0.039
    1UNL     H8   62   0.225  -0.061  -0.286
    1UNL     H9   63   0.388  -0.124  -0.303
    1UNL    H10   64   0.193   0.388  -0.215
    1UNL    H11   65   0.249   0.585  -0.094
    1UNL    H12   66   0.414   0.694   0.051
    1UNL    H13   67   0.516   0.355   0.144
    1UNL    H14   68   0.456   0.152   0.020
    1UNL    H15   69   0.217  -0.358  -0.270
    1UNL    H16   70   0.023  -0.215  -0.213
    1UNL    H17   71   0.011  -0.339  -0.077
    1UNL    H18   72  -0.057  -0.049  -0.108
    1UNL    H19   73  -0.212  -0.192  -0.026
    1UNL    H20   74  -0.324  -0.113   0.249
    1UNL    H21   75  -0.383  -0.250   0.162
    1UNL    H22   76   0.018  -0.070   0.547
    1UNL    H23   77   0.186  -0.186   0.709
    1UNL    H24   78   0.217  -0.428   0.698
    1UNL    H25   79   0.082  -0.560   0.534
    1UNL    H26   80  -0.081  -0.454   0.397
    1UNL    H27   81  -0.399   0.002   0.034
    1UNL    H28   82  -0.476   0.091  -0.130
    1UNL    H29   83  -0.488   0.323  -0.214
    1UNL    H30   84  -0.349   0.470  -0.105
    1UNL    H31   85  -0.359   0.545  -0.267
    1UNL    H32   86  -0.141   0.387  -0.195
    1UNL    H33   87  -0.467   0.340  -0.439
    1UNL    H34   88  -0.186   0.362  -0.398
    1UNL    H35   89  -0.350   0.134  -0.518
    1UNL    H36   90  -0.187   0.148  -0.294
    1UNL    H37   91  -0.397  -0.040  -0.364
    1UNL    H38   92  -0.605   0.089  -0.418
    1UNL    H39   93  -0.271   0.205   0.009
    1UNL    H40   94  -0.188   0.060   0.257
    1UNL    H41   95  -0.003   0.168   0.094
    1UNL    H42   96   0.035   0.172  -0.146
   0.00000   0.00000   0.00000   0.00000   0.00000   0.00000   0.00000   0.00000   0.00000
Generated with MDTraj, t= 71.0
 96
    1UNL     C1    1   0.157  -0.183   0.230
    1UNL     C2    2   0.220  -0.234   0.096
    1UNL     C3    3   0.209  -0.389   0.079
    1UNL     C4    4   0.277  -0.432  -0.057
    1UNL     O1    5   0.255  -0.564  -0.103
    1UNL     O2    6   0.410  -0.384  -0.056
    1UNL     C5    7   0.408  -0.241  -0.038
    1UNL     O3    8   0.364  -0.213   0.098
    1UNL     C6    9   0.289  -0.192  -0.131
    1UNL     C7   10   0.314  -0.080  -0.232
    1UNL     O4   11   0.368   0.036  -0.174
    1UNL     C8   12   0.282   0.142  -0.188
    1UNL     O5   13   0.182   0.131  -0.260
    1UNL     C9   14   0.320   0.266  -0.118
    1UNL    C10   15   0.281   0.392  -0.146
    1UNL    C11   16   0.323   0.499  -0.071
    1UNL    C12   17   0.420   0.486   0.029
    1UNL     O6   18   0.460   0.592   0.102
    1UNL    C13   19   0.466   0.351   0.058
    1UNL    C14   20   0.416   0.251  -0.016
    1UNL    C15   21   0.213  -0.322  -0.170
    1UNL    C16   22   0.083  -0.256  -0.129
    1UNL    C17   23   0.163  -0.167  -0.029
    1UNL     O7   24   0.113  -0.031  -0.020
    1UNL    C18   25  -0.028  -0.013  -0.006
    1UNL     O8   26  -0.084  -0.114   0.078
    1UNL    C19   27  -0.227  -0.125   0.074
    1UNL    C20   28  -0.294  -0.160   0.208
    1UNL     O9   29  -0.216  -0.247   0.286
    1UNL    C21   30  -0.139  -0.174   0.377
    1UNL    O10   31  -0.137  -0.052   0.373
    1UNL    C22   32  -0.045  -0.247   0.464
    1UNL    C23   33   0.039  -0.187   0.557
    1UNL    C24   34   0.126  -0.267   0.638
    1UNL    C25   35   0.123  -0.405   0.635
    1UNL    C26   36   0.039  -0.462   0.544
    1UNL    C27   37  -0.045  -0.387   0.457
    1UNL    C28   38  -0.302   0.008   0.026
    1UNL    O11   39  -0.322  -0.007  -0.119
    1UNL    C29   40  -0.387   0.094  -0.185
    1UNL    O12   41  -0.334   0.224  -0.168
    1UNL    C30   42  -0.391   0.326  -0.252
    1UNL    C31   43  -0.326   0.454  -0.207
    1UNL    O13   44  -0.190   0.437  -0.196
    1UNL    C32   45  -0.372   0.287  -0.401
    1UNL    O14   46  -0.290   0.377  -0.461
    1UNL    C33   47  -0.323   0.142  -0.421
    1UNL    O15   48  -0.187   0.127  -0.397
    1UNL    C34   49  -0.415   0.051  -0.337
    1UNL    O16   50  -0.553   0.080  -0.361
    1UNL    C35   51  -0.215   0.134   0.074
    1UNL    O17   52  -0.245   0.157   0.215
    1UNL    C36   53  -0.063   0.134   0.028
    1UNL    O18   54  -0.047   0.207  -0.086
    1UNL     H1   55   0.049  -0.173   0.239
    1UNL     H2   56   0.192  -0.247   0.307
    1UNL     H3   57   0.197  -0.082   0.253
    1UNL     H4   58   0.109  -0.422   0.076
    1UNL     H5   59   0.261  -0.443   0.157
    1UNL     H6   60   0.344  -0.597  -0.125
    1UNL     H7   61   0.511  -0.206  -0.056
    1UNL     H8   62   0.224  -0.041  -0.279
    1UNL     H9   63   0.375  -0.115  -0.317
    1UNL    H10   64   0.213   0.402  -0.225
    1UNL    H11   65   0.290   0.601  -0.084
    1UNL    H12   66   0.410   0.672   0.070
    1UNL    H13   67   0.542   0.347   0.142
    1UNL    H14   68   0.445   0.150   0.004
    1UNL    H15   69   0.234  -0.356  -0.272
    1UNL    H16   70   0.047  -0.196  -0.212
    1UNL    H17   71   0.010  -0.321  -0.075
    1UNL    H18   72  -0.072  -0.025  -0.104
    1UNL    H19   73  -0.248  -0.216   0.027
    1UNL    H20   74  -0.318  -0.083   0.271
    1UNL    H21   75  -0.390  -0.221   0.188
    1UNL    H22   76   0.042  -0.081   0.554
    1UNL    H23   77   0.180  -0.206   0.705
    1UNL    H24   78   0.174  -0.458   0.709
    1UNL    H25   79   0.040  -0.567   0.517
    1UNL    H26   80  -0.102  -0.443   0.375
    1UNL    H27   81  -0.402   0.016   0.070
    1UNL    H28   82  -0.491   0.097  -0.136
    1UNL    H29   83  -0.494   0.327  -0.242
    1UNL    H30   84  -0.365   0.479  -0.108
    1UNL    H31   85  -0.353   0.535  -0.281
    1UNL    H32   86  -0.165   0.350  -0.173
    1UNL    H33   87  -0.467   0.315  -0.443
    1UNL    H34   88  -0.209   0.382  -0.409
    1UNL    H35   89  -0.329   0.119  -0.530
    1UNL    H36   90  -0.175   0.165  -0.302
    1UNL    H37   91  -0.394  -0.059  -0.346
    1UNL    H38   92  -0.588   0.051  -0.454
    1UNL    H39   93  -0.254   0.218   0.017
    1UNL    H40   94  -0.200   0.085   0.262
    1UNL    H41   95  -0.004   0.182   0.109
    1UNL    H42   96   0.035   0.177  -0.137
   0.00000   0.00000   0.00000   0.00000   0.00000   0.00000   0.00000   0.00000   0.00000
Generated with MDTraj, t= 72.0
 96
    1UNL     C1    1   0.142  -0.204   0.215
    1UNL     C2    2   0.218  -0.240   0.092
    1UNL     C3    3   0.221  -0.384   0.067
    1UNL     C4    4   0.281  -0.413  -0.074
    1UNL     O1    5   0.277  -0.548  -0.101
    1UNL     O2    6   0.414  -0.351  -0.064
    1UNL     C5    7   0.394  -0.207  -0.052
    1UNL     O3    8   0.352  -0.183   0.083
    1UNL     C6    9   0.266  -0.180  -0.137
    1UNL     C7   10   0.280  -0.074  -0.243
    1UNL     O4   11   0.363   0.027  -0.202
    1UNL     C8   12   0.288   0.140  -0.194
    1UNL     O5   13   0.180   0.154  -0.248
    1UNL     C9   14   0.338   0.256  -0.117
    1UNL    C10   15   0.289   0.385  -0.139
    1UNL    C11   16   0.333   0.488  -0.069
    1UNL    C12   17   0.425   0.477   0.035
    1UNL     O6   18   0.446   0.594   0.103
    1UNL    C13   19   0.479   0.348   0.064
    1UNL    C14   20   0.428   0.241  -0.005
    1UNL    C15   21   0.204  -0.318  -0.175
    1UNL    C16   22   0.070  -0.262  -0.126
    1UNL    C17   23   0.154  -0.166  -0.039
    1UNL     O7   24   0.112  -0.036  -0.024
    1UNL    C18   25  -0.027  -0.021   0.001
    1UNL     O8   26  -0.084  -0.105   0.102
    1UNL    C19   27  -0.224  -0.109   0.096
    1UNL    C20   28  -0.298  -0.140   0.225
    1UNL     O9   29  -0.228  -0.231   0.307
    1UNL    C21   30  -0.138  -0.167   0.384
    1UNL    O10   31  -0.120  -0.045   0.383
    1UNL    C22   32  -0.052  -0.252   0.477
    1UNL    C23   33   0.040  -0.201   0.563
    1UNL    C24   34   0.114  -0.281   0.643
    1UNL    C25   35   0.106  -0.423   0.634
    1UNL    C26   36   0.020  -0.474   0.537
    1UNL    C27   37  -0.056  -0.386   0.455
    1UNL    C28   38  -0.298   0.013   0.035
    1UNL    O11   39  -0.317  -0.010  -0.110
    1UNL    C29   40  -0.395   0.089  -0.173
    1UNL    O12   41  -0.331   0.215  -0.161
    1UNL    C30   42  -0.385   0.317  -0.242
    1UNL    C31   43  -0.319   0.453  -0.210
    1UNL    O13   44  -0.182   0.449  -0.233
    1UNL    C32   45  -0.360   0.286  -0.391
    1UNL    O14   46  -0.266   0.365  -0.449
    1UNL    C33   47  -0.315   0.137  -0.408
    1UNL    O15   48  -0.178   0.124  -0.383
    1UNL    C34   49  -0.401   0.039  -0.323
    1UNL    O16   50  -0.532   0.044  -0.370
    1UNL    C35   51  -0.219   0.138   0.064
    1UNL    O17   52  -0.237   0.163   0.200
    1UNL    C36   53  -0.072   0.128   0.012
    1UNL    O18   54  -0.064   0.187  -0.115
    1UNL     H1   55   0.045  -0.255   0.224
    1UNL     H2   56   0.198  -0.228   0.300
    1UNL     H3   57   0.132  -0.094   0.212
    1UNL     H4   58   0.128  -0.435   0.066
    1UNL     H5   59   0.287  -0.442   0.123
    1UNL     H6   60   0.326  -0.559  -0.182
    1UNL     H7   61   0.478  -0.136  -0.064
    1UNL     H8   62   0.183  -0.032  -0.262
    1UNL     H9   63   0.317  -0.101  -0.342
    1UNL    H10   64   0.222   0.390  -0.227
    1UNL    H11   65   0.295   0.585  -0.098
    1UNL    H12   66   0.389   0.664   0.067
    1UNL    H13   67   0.553   0.327   0.132
    1UNL    H14   68   0.465   0.140   0.017
    1UNL    H15   69   0.220  -0.347  -0.280
    1UNL    H16   70   0.024  -0.211  -0.211
    1UNL    H17   71   0.006  -0.326  -0.064
    1UNL    H18   72  -0.075  -0.052  -0.089
    1UNL    H19   73  -0.244  -0.189   0.030
    1UNL    H20   74  -0.317  -0.055   0.280
    1UNL    H21   75  -0.398  -0.189   0.191
    1UNL    H22   76   0.029  -0.092   0.584
    1UNL    H23   77   0.188  -0.237   0.712
    1UNL    H24   78   0.167  -0.487   0.702
    1UNL    H25   79   0.010  -0.582   0.535
    1UNL    H26   80  -0.115  -0.425   0.381
    1UNL    H27   81  -0.404   0.031   0.067
    1UNL    H28   82  -0.498   0.090  -0.125
    1UNL    H29   83  -0.487   0.312  -0.230
    1UNL    H30   84  -0.340   0.465  -0.101
    1UNL    H31   85  -0.366   0.541  -0.267
    1UNL    H32   86  -0.136   0.368  -0.191
    1UNL    H33   87  -0.455   0.296  -0.444
    1UNL    H34   88  -0.183   0.349  -0.394
    1UNL    H35   89  -0.324   0.102  -0.514
    1UNL    H36   90  -0.171   0.120  -0.284
    1UNL    H37   91  -0.348  -0.063  -0.322
    1UNL    H38   92  -0.537  -0.013  -0.455
    1UNL    H39   93  -0.262   0.222   0.011
    1UNL    H40   94  -0.196   0.097   0.259
    1UNL    H41   95  -0.014   0.187   0.084
    1UNL    H42   96   0.022   0.165  -0.156
   0.00000   0.00000   0.00000   0.00000   0.00000   0.00000   0.00000   0.00000   0.00000
Generated with MDTraj, t= 73.0
 96
    1UNL     C1    1   0.143  -0.178   0.215
    1UNL     C2    2   0.207  -0.223   0.084
    1UNL     C3    3   0.211  -0.379   0.069
    1UNL     C4    4   0.280  -0.410  -0.077
    1UNL     O1    5   0.291  -0.547  -0.106
    1UNL     O2    6   0.413  -0.345  -0.070
    1UNL     C5    7   0.385  -0.206  -0.058
    1UNL     O3    8   0.346  -0.183   0.076
    1UNL     C6    9   0.263  -0.177  -0.149
    1UNL     C7   10   0.290  -0.062  -0.250
    1UNL     O4   11   0.359   0.047  -0.198
    1UNL     C8   12   0.279   0.157  -0.206
    1UNL     O5   13   0.168   0.152  -0.254
    1UNL     C9   14   0.332   0.277  -0.128
    1UNL    C10   15   0.287   0.410  -0.136
    1UNL    C11   16   0.333   0.506  -0.054
    1UNL    C12   17   0.428   0.473   0.044
    1UNL     O6   18   0.475   0.574   0.124
    1UNL    C13   19   0.470   0.341   0.054
    1UNL    C14   20   0.421   0.243  -0.030
    1UNL    C15   21   0.204  -0.321  -0.189
    1UNL    C16   22   0.073  -0.273  -0.138
    1UNL    C17   23   0.143  -0.170  -0.045
    1UNL     O7   24   0.088  -0.042  -0.039
    1UNL    C18   25  -0.045  -0.038  -0.008
    1UNL     O8   26  -0.103  -0.099   0.110
    1UNL    C19   27  -0.251  -0.098   0.110
    1UNL    C20   28  -0.309  -0.127   0.253
    1UNL     O9   29  -0.231  -0.226   0.321
    1UNL    C21   30  -0.131  -0.172   0.394
    1UNL    O10   31  -0.105  -0.054   0.389
    1UNL    C22   32  -0.052  -0.258   0.481
    1UNL    C23   33   0.037  -0.212   0.578
    1UNL    C24   34   0.116  -0.293   0.651
    1UNL    C25   35   0.101  -0.429   0.640
    1UNL    C26   36   0.014  -0.485   0.546
    1UNL    C27   37  -0.061  -0.398   0.468
    1UNL    C28   38  -0.314   0.025   0.043
    1UNL    O11   39  -0.310  -0.010  -0.097
    1UNL    C29   40  -0.378   0.091  -0.173
    1UNL    O12   41  -0.318   0.219  -0.173
    1UNL    C30   42  -0.380   0.304  -0.263
    1UNL    C31   43  -0.320   0.445  -0.222
    1UNL    O13   44  -0.186   0.440  -0.208
    1UNL    C32   45  -0.359   0.269  -0.419
    1UNL    O14   46  -0.267   0.362  -0.474
    1UNL    C33   47  -0.303   0.122  -0.422
    1UNL    O15   48  -0.166   0.126  -0.387
    1UNL    C34   49  -0.389   0.039  -0.324
    1UNL    O16   50  -0.523   0.034  -0.367
    1UNL    C35   51  -0.217   0.146   0.079
    1UNL    O17   52  -0.204   0.167   0.217
    1UNL    C36   53  -0.075   0.115   0.012
    1UNL    O18   54  -0.059   0.188  -0.115
    1UNL     H1   55   0.047  -0.231   0.235
    1UNL     H2   56   0.206  -0.207   0.298
    1UNL     H3   57   0.134  -0.071   0.223
    1UNL     H4   58   0.122  -0.435   0.073
    1UNL     H5   59   0.273  -0.431   0.132
    1UNL     H6   60   0.383  -0.567  -0.122
    1UNL     H7   61   0.469  -0.142  -0.081
    1UNL     H8   62   0.199  -0.023  -0.291
    1UNL     H9   63   0.340  -0.097  -0.340
    1UNL    H10   64   0.209   0.421  -0.207
    1UNL    H11   65   0.314   0.611  -0.063
    1UNL    H12   66   0.428   0.656   0.111
    1UNL    H13   67   0.548   0.329   0.132
    1UNL    H14   68   0.457   0.148  -0.009
    1UNL    H15   69   0.233  -0.369  -0.285
    1UNL    H16   70   0.018  -0.223  -0.221
    1UNL    H17   71   0.016  -0.348  -0.086
    1UNL    H18   72  -0.100  -0.074  -0.091
    1UNL    H19   73  -0.275  -0.184   0.050
    1UNL    H20   74  -0.307  -0.045   0.312
    1UNL    H21   75  -0.416  -0.171   0.249
    1UNL    H22   76   0.034  -0.107   0.583
    1UNL    H23   77   0.176  -0.246   0.726
    1UNL    H24   78   0.179  -0.484   0.687
    1UNL    H25   79  -0.009  -0.589   0.537
    1UNL    H26   80  -0.145  -0.429   0.399
    1UNL    H27   81  -0.415   0.048   0.091
    1UNL    H28   82  -0.487   0.094  -0.145
    1UNL    H29   83  -0.479   0.307  -0.235
    1UNL    H30   84  -0.362   0.476  -0.124
    1UNL    H31   85  -0.343   0.531  -0.294
    1UNL    H32   86  -0.158   0.347  -0.164
    1UNL    H33   87  -0.452   0.281  -0.479
    1UNL    H34   88  -0.178   0.351  -0.427
    1UNL    H35   89  -0.312   0.077  -0.524
    1UNL    H36   90  -0.163   0.113  -0.292
    1UNL    H37   91  -0.351  -0.070  -0.317
    1UNL    H38   92  -0.529  -0.024  -0.445
    1UNL    H39   93  -0.239   0.247   0.043
    1UNL    H40   94  -0.161   0.089   0.268
    1UNL    H41   95   0.010   0.137   0.076
    1UNL    H42   96   0.025   0.170  -0.160
   0.00000   0.00000   0.00000   0.00000   0.00000   0.00000   0.00000   0.00000   0.00000
Generated with MDTraj, t= 74.0
 96
    1UNL     C1    1   0.138  -0.187   0.215
    1UNL     C2    2   0.207  -0.233   0.088
    1UNL     C3    3   0.216  -0.379   0.067
    1UNL     C4    4   0.282  -0.411  -0.078
    1UNL     O1    5   0.285  -0.547  -0.115
    1UNL     O2    6   0.412  -0.348  -0.065
    1UNL     C5    7   0.388  -0.210  -0.054
    1UNL     O3    8   0.343  -0.193   0.084
    1UNL     C6    9   0.260  -0.175  -0.144
    1UNL     C7   10   0.281  -0.062  -0.245
    1UNL     O4   11   0.347   0.050  -0.193
    1UNL     C8   12   0.268   0.164  -0.205
    1UNL     O5   13   0.169   0.179  -0.267
    1UNL     C9   14   0.324   0.267  -0.117
    1UNL    C10   15   0.271   0.397  -0.121
    1UNL    C11   16   0.324   0.491  -0.038
    1UNL    C12   17   0.428   0.464   0.052
    1UNL     O6   18   0.491   0.569   0.113
    1UNL    C13   19   0.480   0.337   0.055
    1UNL    C14   20   0.431   0.238  -0.028
    1UNL    C15   21   0.208  -0.312  -0.186
    1UNL    C16   22   0.063  -0.263  -0.134
    1UNL    C17   23   0.143  -0.162  -0.041
    1UNL     O7   24   0.086  -0.030  -0.042
    1UNL    C18   25  -0.047  -0.018  -0.015
    1UNL     O8   26  -0.091  -0.092   0.099
    1UNL    C19   27  -0.233  -0.107   0.103
    1UNL    C20   28  -0.282  -0.131   0.248
    1UNL     O9   29  -0.211  -0.232   0.319
    1UNL    C21   30  -0.114  -0.167   0.394
    1UNL    O10   31  -0.085  -0.048   0.383
    1UNL    C22   32  -0.039  -0.258   0.479
    1UNL    C23   33   0.045  -0.215   0.579
    1UNL    C24   34   0.116  -0.300   0.660
    1UNL    C25   35   0.099  -0.439   0.644
    1UNL    C26   36  -0.004  -0.488   0.554
    1UNL    C27   37  -0.066  -0.400   0.471
    1UNL    C28   38  -0.304   0.012   0.035
    1UNL    O11   39  -0.310  -0.011  -0.102
    1UNL    C29   40  -0.391   0.083  -0.173
    1UNL    O12   41  -0.344   0.223  -0.164
    1UNL    C30   42  -0.392   0.312  -0.264
    1UNL    C31   43  -0.321   0.457  -0.231
    1UNL    O13   44  -0.182   0.448  -0.239
    1UNL    C32   45  -0.348   0.269  -0.412
    1UNL    O14   46  -0.249   0.352  -0.472
    1UNL    C33   47  -0.296   0.120  -0.411
    1UNL    O15   48  -0.161   0.112  -0.366
    1UNL    C34   49  -0.396   0.030  -0.325
    1UNL    O16   50  -0.533   0.020  -0.368
    1UNL    C35   51  -0.229   0.140   0.065
    1UNL    O17   52  -0.229   0.172   0.200
    1UNL    C36   53  -0.085   0.132   0.010
    1UNL    O18   54  -0.061   0.226  -0.107
    1UNL     H1   55   0.034  -0.220   0.222
    1UNL     H2   56   0.184  -0.231   0.307
    1UNL     H3   57   0.151  -0.083   0.228
    1UNL     H4   58   0.127  -0.429   0.059
    1UNL     H5   59   0.270  -0.434   0.136
    1UNL     H6   60   0.360  -0.580  -0.064
    1UNL     H7   61   0.478  -0.163  -0.092
    1UNL     H8   62   0.191  -0.028  -0.297
    1UNL     H9   63   0.343  -0.095  -0.329
    1UNL    H10   64   0.189   0.418  -0.190
    1UNL    H11   65   0.274   0.587  -0.048
    1UNL    H12   66   0.451   0.655   0.098
    1UNL    H13   67   0.557   0.315   0.126
    1UNL    H14   68   0.471   0.133  -0.023
    1UNL    H15   69   0.231  -0.351  -0.287
    1UNL    H16   70   0.002  -0.204  -0.205
    1UNL    H17   71   0.007  -0.339  -0.086
    1UNL    H18   72  -0.106  -0.037  -0.101
    1UNL    H19   73  -0.252  -0.191   0.034
    1UNL    H20   74  -0.271  -0.048   0.305
    1UNL    H21   75  -0.390  -0.162   0.251
    1UNL    H22   76   0.064  -0.107   0.593
    1UNL    H23   77   0.202  -0.268   0.723
    1UNL    H24   78   0.160  -0.506   0.704
    1UNL    H25   79   0.000  -0.597   0.544
    1UNL    H26   80  -0.152  -0.428   0.418
    1UNL    H27   81  -0.412   0.008   0.067
    1UNL    H28   82  -0.492   0.081  -0.127
    1UNL    H29   83  -0.495   0.315  -0.248
    1UNL    H30   84  -0.342   0.508  -0.137
    1UNL    H31   85  -0.354   0.530  -0.310
    1UNL    H32   86  -0.162   0.360  -0.197
    1UNL    H33   87  -0.434   0.276  -0.486
    1UNL    H34   88  -0.170   0.353  -0.421
    1UNL    H35   89  -0.298   0.085  -0.516
    1UNL    H36   90  -0.167   0.117  -0.268
    1UNL    H37   91  -0.341  -0.074  -0.312
    1UNL    H38   92  -0.541  -0.039  -0.440
    1UNL    H39   93  -0.270   0.229   0.016
    1UNL    H40   94  -0.170   0.113   0.250
    1UNL    H41   95  -0.013   0.161   0.087
    1UNL    H42   96   0.028   0.203  -0.148
   0.00000   0.00000   0.00000   0.00000   0.00000   0.00000   0.00000   0.00000   0.00000
Generated with MDTraj, t= 75.0
 96
    1UNL     C1    1   0.137  -0.175   0.204
    1UNL     C2    2   0.211  -0.227   0.083
    1UNL     C3    3   0.208  -0.376   0.068
    1UNL     C4    4   0.264  -0.408  -0.082
    1UNL     O1    5   0.247  -0.543  -0.111
    1UNL     O2    6   0.402  -0.349  -0.084
    1UNL     C5    7   0.385  -0.209  -0.063
    1UNL     O3    8   0.350  -0.185   0.082
    1UNL     C6    9   0.264  -0.169  -0.147
    1UNL     C7   10   0.289  -0.069  -0.252
    1UNL     O4   11   0.357   0.046  -0.201
    1UNL     C8   12   0.268   0.153  -0.181
    1UNL     O5   13   0.159   0.172  -0.226
    1UNL     C9   14   0.333   0.256  -0.094
    1UNL    C10   15   0.270   0.376  -0.106
    1UNL    C11   16   0.323   0.484  -0.033
    1UNL    C12   17   0.437   0.471   0.046
    1UNL     O6   18   0.475   0.580   0.120
    1UNL    C13   19   0.502   0.344   0.053
    1UNL    C14   20   0.449   0.241  -0.022
    1UNL    C15   21   0.193  -0.305  -0.183
    1UNL    C16   22   0.059  -0.240  -0.131
    1UNL    C17   23   0.148  -0.149  -0.042
    1UNL     O7   24   0.106  -0.016  -0.026
    1UNL    C18   25  -0.033  -0.010  -0.001
    1UNL     O8   26  -0.081  -0.099   0.105
    1UNL    C19   27  -0.223  -0.118   0.106
    1UNL    C20   28  -0.282  -0.146   0.245
    1UNL     O9   29  -0.202  -0.239   0.307
    1UNL    C21   30  -0.117  -0.168   0.384
    1UNL    O10   31  -0.096  -0.045   0.387
    1UNL    C22   32  -0.030  -0.258   0.460
    1UNL    C23   33   0.062  -0.202   0.557
    1UNL    C24   34   0.117  -0.291   0.648
    1UNL    C25   35   0.085  -0.424   0.652
    1UNL    C26   36  -0.006  -0.478   0.559
    1UNL    C27   37  -0.068  -0.394   0.469
    1UNL    C28   38  -0.296   0.008   0.032
    1UNL    O11   39  -0.302  -0.015  -0.111
    1UNL    C29   40  -0.388   0.074  -0.182
    1UNL    O12   41  -0.345   0.212  -0.172
    1UNL    C30   42  -0.393   0.301  -0.272
    1UNL    C31   43  -0.335   0.442  -0.240
    1UNL    O13   44  -0.196   0.440  -0.230
    1UNL    C32   45  -0.347   0.263  -0.416
    1UNL    O14   46  -0.252   0.339  -0.482
    1UNL    C33   47  -0.301   0.110  -0.420
    1UNL    O15   48  -0.170   0.094  -0.359
    1UNL    C34   49  -0.404   0.034  -0.329
    1UNL    O16   50  -0.534   0.061  -0.375
    1UNL    C35   51  -0.218   0.138   0.073
    1UNL    O17   52  -0.206   0.168   0.214
    1UNL    C36   53  -0.076   0.143   0.019
    1UNL    O18   54  -0.074   0.205  -0.106
    1UNL     H1   55   0.042  -0.226   0.210
    1UNL     H2   56   0.182  -0.207   0.303
    1UNL     H3   57   0.131  -0.069   0.207
    1UNL     H4   58   0.121  -0.428   0.087
    1UNL     H5   59   0.283  -0.423   0.125
    1UNL     H6   60   0.306  -0.570  -0.186
    1UNL     H7   61   0.462  -0.141  -0.088
    1UNL     H8   62   0.199  -0.039  -0.309
    1UNL     H9   63   0.353  -0.118  -0.328
    1UNL    H10   64   0.180   0.386  -0.160
    1UNL    H11   65   0.267   0.574  -0.027
    1UNL    H12   66   0.436   0.668   0.101
    1UNL    H13   67   0.583   0.341   0.122
    1UNL    H14   68   0.489   0.148  -0.010
    1UNL    H15   69   0.198  -0.346  -0.286
    1UNL    H16   70   0.000  -0.183  -0.204
    1UNL    H17   71   0.004  -0.308  -0.071
    1UNL    H18   72  -0.094  -0.042  -0.082
    1UNL    H19   73  -0.228  -0.208   0.039
    1UNL    H20   74  -0.291  -0.060   0.302
    1UNL    H21   75  -0.382  -0.190   0.235
    1UNL    H22   76   0.087  -0.099   0.554
    1UNL    H23   77   0.197  -0.255   0.704
    1UNL    H24   78   0.136  -0.494   0.721
    1UNL    H25   79  -0.038  -0.577   0.573
    1UNL    H26   80  -0.143  -0.427   0.392
    1UNL    H27   81  -0.406   0.003   0.050
    1UNL    H28   82  -0.489   0.085  -0.144
    1UNL    H29   83  -0.496   0.292  -0.251
    1UNL    H30   84  -0.377   0.479  -0.149
    1UNL    H31   85  -0.359   0.511  -0.321
    1UNL    H32   86  -0.167   0.367  -0.179
    1UNL    H33   87  -0.437   0.264  -0.485
    1UNL    H34   88  -0.159   0.324  -0.439
    1UNL    H35   89  -0.301   0.072  -0.524
    1UNL    H36   90  -0.154   0.154  -0.281
    1UNL    H37   91  -0.383  -0.082  -0.329
    1UNL    H38   92  -0.555   0.019  -0.458
    1UNL    H39   93  -0.278   0.222   0.037
    1UNL    H40   94  -0.150   0.106   0.263
    1UNL    H41   95  -0.010   0.181   0.099
    1UNL    H42   96   0.011   0.192  -0.147
   0.00000   0.00000   0.00000   0.00000   0.00000   0.00000   0.00000   0.00000   0.00000
Generated with MDTraj, t= 76.0
 96
    1UNL     C1    1   0.171  -0.156   0.218
    1UNL     C2    2   0.218  -0.219   0.080
    1UNL     C3    3   0.209  -0.373   0.065
    1UNL     C4    4   0.256  -0.413  -0.092
    1UNL     O1    5   0.227  -0.546  -0.115
    1UNL     O2    6   0.390  -0.376  -0.098
    1UNL     C5    7   0.395  -0.237  -0.065
    1UNL     O3    8   0.359  -0.208   0.066
    1UNL     C6    9   0.277  -0.179  -0.155
    1UNL     C7   10   0.324  -0.074  -0.256
    1UNL     O4   11   0.375   0.048  -0.191
    1UNL     C8   12   0.287   0.157  -0.187
    1UNL     O5   13   0.186   0.170  -0.247
    1UNL     C9   14   0.341   0.270  -0.102
    1UNL    C10   15   0.274   0.391  -0.094
    1UNL    C11   16   0.317   0.498  -0.015
    1UNL    C12   17   0.435   0.476   0.056
    1UNL     O6   18   0.480   0.579   0.136
    1UNL    C13   19   0.502   0.355   0.049
    1UNL    C14   20   0.460   0.255  -0.033
    1UNL    C15   21   0.187  -0.307  -0.190
    1UNL    C16   22   0.068  -0.229  -0.131
    1UNL    C17   23   0.159  -0.146  -0.042
    1UNL     O7   24   0.108  -0.014  -0.018
    1UNL    C18   25  -0.034  -0.012  -0.003
    1UNL     O8   26  -0.087  -0.096   0.103
    1UNL    C19   27  -0.235  -0.119   0.095
    1UNL    C20   28  -0.298  -0.158   0.232
    1UNL     O9   29  -0.219  -0.250   0.302
    1UNL    C21   30  -0.131  -0.186   0.381
    1UNL    O10   31  -0.102  -0.066   0.370
    1UNL    C22   32  -0.060  -0.262   0.486
    1UNL    C23   33   0.041  -0.194   0.552
    1UNL    C24   34   0.124  -0.266   0.636
    1UNL    C25   35   0.118  -0.403   0.641
    1UNL    C26   36   0.016  -0.467   0.574
    1UNL    C27   37  -0.073  -0.397   0.495
    1UNL    C28   38  -0.303   0.008   0.031
    1UNL    O11   39  -0.304  -0.012  -0.107
    1UNL    C29   40  -0.387   0.084  -0.177
    1UNL    O12   41  -0.332   0.223  -0.178
    1UNL    C30   42  -0.389   0.306  -0.279
    1UNL    C31   43  -0.346   0.454  -0.245
    1UNL    O13   44  -0.209   0.454  -0.223
    1UNL    C32   45  -0.342   0.258  -0.415
    1UNL    O14   46  -0.229   0.323  -0.463
    1UNL    C33   47  -0.318   0.107  -0.418
    1UNL    O15   48  -0.192   0.088  -0.367
    1UNL    C34   49  -0.414   0.038  -0.322
    1UNL    O16   50  -0.549   0.045  -0.359
    1UNL    C35   51  -0.231   0.133   0.068
    1UNL    O17   52  -0.241   0.172   0.204
    1UNL    C36   53  -0.083   0.135   0.025
    1UNL    O18   54  -0.066   0.206  -0.094
    1UNL     H1   55   0.064  -0.150   0.226
    1UNL     H2   56   0.193  -0.223   0.304
    1UNL     H3   57   0.216  -0.058   0.234
    1UNL     H4   58   0.110  -0.410   0.081
    1UNL     H5   59   0.276  -0.434   0.120
    1UNL     H6   60   0.306  -0.603  -0.089
    1UNL     H7   61   0.492  -0.198  -0.078
    1UNL     H8   62   0.245  -0.046  -0.329
    1UNL     H9   63   0.408  -0.111  -0.319
    1UNL    H10   64   0.181   0.402  -0.154
    1UNL    H11   65   0.250   0.585  -0.019
    1UNL    H12   66   0.418   0.655   0.114
    1UNL    H13   67   0.589   0.336   0.113
    1UNL    H14   68   0.522   0.161  -0.046
    1UNL    H15   69   0.179  -0.343  -0.294
    1UNL    H16   70   0.019  -0.159  -0.197
    1UNL    H17   71  -0.004  -0.281  -0.066
    1UNL    H18   72  -0.095  -0.042  -0.085
    1UNL    H19   73  -0.232  -0.216   0.034
    1UNL    H20   74  -0.300  -0.068   0.292
    1UNL    H21   75  -0.402  -0.189   0.227
    1UNL    H22   76   0.049  -0.084   0.548
    1UNL    H23   77   0.207  -0.217   0.692
    1UNL    H24   78   0.183  -0.465   0.694
    1UNL    H25   79  -0.007  -0.573   0.590
    1UNL    H26   80  -0.163  -0.437   0.462
    1UNL    H27   81  -0.405   0.010   0.068
    1UNL    H28   82  -0.486   0.101  -0.140
    1UNL    H29   83  -0.495   0.302  -0.266
    1UNL    H30   84  -0.390   0.492  -0.158
    1UNL    H31   85  -0.370   0.517  -0.329
    1UNL    H32   86  -0.180   0.376  -0.172
    1UNL    H33   87  -0.417   0.279  -0.496
    1UNL    H34   88  -0.153   0.298  -0.404
    1UNL    H35   89  -0.308   0.076  -0.524
    1UNL    H36   90  -0.181   0.072  -0.267
    1UNL    H37   91  -0.387  -0.076  -0.317
    1UNL    H38   92  -0.571  -0.008  -0.442
    1UNL    H39   93  -0.269   0.221   0.011
    1UNL    H40   94  -0.186   0.109   0.263
    1UNL    H41   95  -0.017   0.198   0.091
    1UNL    H42   96   0.023   0.181  -0.135
   0.00000   0.00000   0.00000   0.00000   0.00000   0.00000   0.00000   0.00000   0.00000
Generated with MDTraj, t= 77.0
 96
    1UNL     C1    1   0.152  -0.186   0.225
    1UNL     C2    2   0.206  -0.236   0.091
    1UNL     C3    3   0.194  -0.384   0.061
    1UNL     C4    4   0.249  -0.418  -0.085
    1UNL     O1    5   0.234  -0.545  -0.132
    1UNL     O2    6   0.388  -0.370  -0.082
    1UNL     C5    7   0.380  -0.224  -0.057
    1UNL     O3    8   0.349  -0.206   0.081
    1UNL     C6    9   0.261  -0.172  -0.142
    1UNL     C7   10   0.297  -0.066  -0.250
    1UNL     O4   11   0.357   0.047  -0.193
    1UNL     C8   12   0.286   0.162  -0.187
    1UNL     O5   13   0.178   0.182  -0.235
    1UNL     C9   14   0.350   0.274  -0.111
    1UNL    C10   15   0.274   0.384  -0.091
    1UNL    C11   16   0.316   0.489  -0.009
    1UNL    C12   17   0.434   0.478   0.062
    1UNL     O6   18   0.478   0.582   0.149
    1UNL    C13   19   0.510   0.361   0.048
    1UNL    C14   20   0.469   0.261  -0.046
    1UNL    C15   21   0.186  -0.305  -0.182
    1UNL    C16   22   0.055  -0.242  -0.136
    1UNL    C17   23   0.144  -0.155  -0.040
    1UNL     O7   24   0.107  -0.022  -0.032
    1UNL    C18   25  -0.029  -0.018  -0.012
    1UNL     O8   26  -0.079  -0.097   0.101
    1UNL    C19   27  -0.219  -0.116   0.084
    1UNL    C20   28  -0.284  -0.167   0.212
    1UNL     O9   29  -0.202  -0.246   0.284
    1UNL    C21   30  -0.136  -0.173   0.379
    1UNL    O10   31  -0.150  -0.053   0.394
    1UNL    C22   32  -0.040  -0.244   0.466
    1UNL    C23   33   0.055  -0.179   0.535
    1UNL    C24   34   0.135  -0.244   0.630
    1UNL    C25   35   0.105  -0.380   0.645
    1UNL    C26   36   0.022  -0.450   0.566
    1UNL    C27   37  -0.053  -0.380   0.474
    1UNL    C28   38  -0.290   0.002   0.026
    1UNL    O11   39  -0.298  -0.013  -0.114
    1UNL    C29   40  -0.395   0.076  -0.178
    1UNL    O12   41  -0.338   0.215  -0.168
    1UNL    C30   42  -0.387   0.302  -0.267
    1UNL    C31   43  -0.333   0.438  -0.229
    1UNL    O13   44  -0.198   0.430  -0.202
    1UNL    C32   45  -0.340   0.254  -0.404
    1UNL    O14   46  -0.228   0.321  -0.455
    1UNL    C33   47  -0.308   0.101  -0.410
    1UNL    O15   48  -0.188   0.068  -0.358
    1UNL    C34   49  -0.422   0.034  -0.324
    1UNL    O16   50  -0.548   0.076  -0.367
    1UNL    C35   51  -0.223   0.134   0.062
    1UNL    O17   52  -0.213   0.151   0.204
    1UNL    C36   53  -0.076   0.137   0.009
    1UNL    O18   54  -0.063   0.213  -0.106
    1UNL     H1   55   0.058  -0.229   0.259
    1UNL     H2   56   0.222  -0.206   0.302
    1UNL     H3   57   0.147  -0.075   0.207
    1UNL     H4   58   0.096  -0.432   0.077
    1UNL     H5   59   0.264  -0.439   0.120
    1UNL     H6   60   0.316  -0.596  -0.101
    1UNL     H7   61   0.467  -0.180  -0.094
    1UNL     H8   62   0.213  -0.029  -0.313
    1UNL     H9   63   0.370  -0.104  -0.323
    1UNL    H10   64   0.183   0.397  -0.142
    1UNL    H11   65   0.268   0.583   0.004
    1UNL    H12   66   0.414   0.659   0.155
    1UNL    H13   67   0.600   0.346   0.099
    1UNL    H14   68   0.527   0.178  -0.060
    1UNL    H15   69   0.190  -0.333  -0.289
    1UNL    H16   70   0.011  -0.197  -0.223
    1UNL    H17   71  -0.015  -0.319  -0.096
    1UNL    H18   72  -0.085  -0.064  -0.091
    1UNL    H19   73  -0.215  -0.192  -0.006
    1UNL    H20   74  -0.329  -0.087   0.272
    1UNL    H21   75  -0.362  -0.233   0.178
    1UNL    H22   76   0.084  -0.080   0.517
    1UNL    H23   77   0.202  -0.200   0.699
    1UNL    H24   78   0.166  -0.448   0.711
    1UNL    H25   79  -0.007  -0.551   0.580
    1UNL    H26   80  -0.145  -0.430   0.431
    1UNL    H27   81  -0.394   0.005   0.053
    1UNL    H28   82  -0.482   0.082  -0.120
    1UNL    H29   83  -0.496   0.313  -0.259
    1UNL    H30   84  -0.382   0.470  -0.142
    1UNL    H31   85  -0.340   0.514  -0.306
    1UNL    H32   86  -0.170   0.349  -0.147
    1UNL    H33   87  -0.417   0.266  -0.481
    1UNL    H34   88  -0.156   0.299  -0.402
    1UNL    H35   89  -0.320   0.060  -0.512
    1UNL    H36   90  -0.168   0.121  -0.271
    1UNL    H37   91  -0.419  -0.082  -0.324
    1UNL    H38   92  -0.552   0.042  -0.465
    1UNL    H39   93  -0.281   0.226   0.033
    1UNL    H40   94  -0.199   0.073   0.259
    1UNL    H41   95  -0.000   0.181   0.080
    1UNL    H42   96   0.024   0.194  -0.149
   0.00000   0.00000   0.00000   0.00000   0.00000   0.00000   0.00000   0.00000   0.00000
Generated with MDTraj, t= 78.0
 96
    1UNL     C1    1   0.136  -0.213   0.212
    1UNL     C2    2   0.202  -0.246   0.075
    1UNL     C3    3   0.201  -0.396   0.046
    1UNL     C4    4   0.272  -0.411  -0.093
    1UNL     O1    5   0.259  -0.545  -0.140
    1UNL     O2    6   0.405  -0.360  -0.073
    1UNL     C5    7   0.391  -0.224  -0.048
    1UNL     O3    8   0.342  -0.202   0.085
    1UNL     C6    9   0.267  -0.178  -0.144
    1UNL     C7   10   0.296  -0.065  -0.243
    1UNL     O4   11   0.340   0.043  -0.171
    1UNL     C8   12   0.276   0.159  -0.184
    1UNL     O5   13   0.173   0.175  -0.245
    1UNL     C9   14   0.334   0.265  -0.102
    1UNL    C10   15   0.257   0.379  -0.080
    1UNL    C11   16   0.314   0.477  -0.005
    1UNL    C12   17   0.437   0.470   0.060
    1UNL     O6   18   0.487   0.573   0.137
    1UNL    C13   19   0.514   0.354   0.044
    1UNL    C14   20   0.460   0.249  -0.038
    1UNL    C15   21   0.203  -0.309  -0.196
    1UNL    C16   22   0.065  -0.257  -0.159
    1UNL    C17   23   0.139  -0.172  -0.050
    1UNL     O7   24   0.094  -0.035  -0.035
    1UNL    C18   25  -0.037  -0.022  -0.011
    1UNL     O8   26  -0.087  -0.093   0.104
    1UNL    C19   27  -0.233  -0.127   0.083
    1UNL    C20   28  -0.291  -0.186   0.220
    1UNL     O9   29  -0.198  -0.252   0.301
    1UNL    C21   30  -0.132  -0.169   0.388
    1UNL    O10   31  -0.145  -0.048   0.373
    1UNL    C22   32  -0.045  -0.240   0.482
    1UNL    C23   33   0.041  -0.161   0.560
    1UNL    C24   34   0.133  -0.229   0.642
    1UNL    C25   35   0.141  -0.367   0.636
    1UNL    C26   36   0.056  -0.439   0.566
    1UNL    C27   37  -0.042  -0.378   0.490
    1UNL    C28   38  -0.307  -0.003   0.031
    1UNL    O11   39  -0.338  -0.015  -0.109
    1UNL    C29   40  -0.405   0.097  -0.173
    1UNL    O12   41  -0.333   0.224  -0.165
    1UNL    C30   42  -0.380   0.315  -0.269
    1UNL    C31   43  -0.337   0.454  -0.227
    1UNL    O13   44  -0.193   0.457  -0.207
    1UNL    C32   45  -0.328   0.270  -0.408
    1UNL    O14   46  -0.199   0.322  -0.441
    1UNL    C33   47  -0.307   0.112  -0.405
    1UNL    O15   48  -0.176   0.073  -0.369
    1UNL    C34   49  -0.423   0.051  -0.318
    1UNL    O16   50  -0.549   0.073  -0.379
    1UNL    C35   51  -0.232   0.128   0.059
    1UNL    O17   52  -0.244   0.165   0.195
    1UNL    C36   53  -0.085   0.125   0.007
    1UNL    O18   54  -0.066   0.203  -0.112
    1UNL     H1   55   0.045  -0.272   0.232
    1UNL     H2   56   0.199  -0.248   0.287
    1UNL     H3   57   0.114  -0.103   0.220
    1UNL     H4   58   0.096  -0.431   0.035
    1UNL     H5   59   0.246  -0.452   0.129
    1UNL     H6   60   0.330  -0.599  -0.095
    1UNL     H7   61   0.481  -0.172  -0.054
    1UNL     H8   62   0.215  -0.033  -0.308
    1UNL     H9   63   0.379  -0.079  -0.312
    1UNL    H10   64   0.158   0.398  -0.123
    1UNL    H11   65   0.256   0.570   0.004
    1UNL    H12   66   0.421   0.645   0.119
    1UNL    H13   67   0.616   0.335   0.089
    1UNL    H14   68   0.516   0.152  -0.045
    1UNL    H15   69   0.247  -0.330  -0.296
    1UNL    H16   70   0.033  -0.189  -0.234
    1UNL    H17   71  -0.011  -0.328  -0.115
    1UNL    H18   72  -0.099  -0.064  -0.088
    1UNL    H19   73  -0.238  -0.202  -0.008
    1UNL    H20   74  -0.328  -0.102   0.283
    1UNL    H21   75  -0.377  -0.250   0.208
    1UNL    H22   76   0.043  -0.048   0.551
    1UNL    H23   77   0.223  -0.171   0.673
    1UNL    H24   78   0.214  -0.416   0.694
    1UNL    H25   79   0.053  -0.548   0.566
    1UNL    H26   80  -0.110  -0.431   0.430
    1UNL    H27   81  -0.404   0.000   0.077
    1UNL    H28   82  -0.501   0.110  -0.130
    1UNL    H29   83  -0.493   0.322  -0.269
    1UNL    H30   84  -0.379   0.482  -0.134
    1UNL    H31   85  -0.364   0.531  -0.301
    1UNL    H32   86  -0.166   0.359  -0.189
    1UNL    H33   87  -0.380   0.305  -0.496
    1UNL    H34   88  -0.121   0.269  -0.399
    1UNL    H35   89  -0.321   0.073  -0.507
    1UNL    H36   90  -0.159   0.103  -0.274
    1UNL    H37   91  -0.412  -0.064  -0.311
    1UNL    H38   92  -0.533   0.056  -0.476
    1UNL    H39   93  -0.290   0.215   0.019
    1UNL    H40   94  -0.200   0.106   0.258
    1UNL    H41   95  -0.015   0.172   0.081
    1UNL    H42   96   0.019   0.185  -0.152
   0.00000   0.00000   0.00000   0.00000   0.00000   0.00000   0.00000   0.00000   0.00000
Generated with MDTraj, t= 79.0
 96
    1UNL     C1    1   0.115  -0.225   0.200
    1UNL     C2    2   0.190  -0.252   0.075
    1UNL     C3    3   0.198  -0.403   0.039
    1UNL     C4    4   0.277  -0.419  -0.097
    1UNL     O1    5   0.286  -0.557  -0.135
    1UNL     O2    6   0.414  -0.360  -0.083
    1UNL     C5    7   0.387  -0.218  -0.053
    1UNL     O3    8   0.325  -0.201   0.079
    1UNL     C6    9   0.273  -0.176  -0.151
    1UNL     C7   10   0.299  -0.069  -0.261
    1UNL     O4   11   0.353   0.045  -0.191
    1UNL     C8   12   0.275   0.152  -0.172
    1UNL     O5   13   0.162   0.155  -0.221
    1UNL     C9   14   0.327   0.261  -0.083
    1UNL    C10   15   0.260   0.382  -0.072
    1UNL    C11   16   0.312   0.488   0.001
    1UNL    C12   17   0.433   0.475   0.064
    1UNL     O6   18   0.490   0.589   0.131
    1UNL    C13   19   0.502   0.357   0.045
    1UNL    C14   20   0.450   0.249  -0.025
    1UNL    C15   21   0.214  -0.314  -0.207
    1UNL    C16   22   0.073  -0.267  -0.164
    1UNL    C17   23   0.142  -0.175  -0.062
    1UNL     O7   24   0.086  -0.051  -0.023
    1UNL    C18   25  -0.055  -0.041  -0.016
    1UNL     O8   26  -0.123  -0.135   0.078
    1UNL    C19   27  -0.266  -0.126   0.089
    1UNL    C20   28  -0.309  -0.143   0.233
    1UNL     O9   29  -0.229  -0.232   0.306
    1UNL    C21   30  -0.136  -0.163   0.377
    1UNL    O10   31  -0.126  -0.041   0.380
    1UNL    C22   32  -0.030  -0.237   0.467
    1UNL    C23   33   0.035  -0.149   0.559
    1UNL    C24   34   0.128  -0.204   0.645
    1UNL    C25   35   0.153  -0.339   0.648
    1UNL    C26   36   0.080  -0.423   0.561
    1UNL    C27   37  -0.010  -0.372   0.472
    1UNL    C28   38  -0.322   0.009   0.025
    1UNL    O11   39  -0.315  -0.003  -0.115
    1UNL    C29   40  -0.391   0.101  -0.179
    1UNL    O12   41  -0.330   0.227  -0.164
    1UNL    C30   42  -0.374   0.313  -0.272
    1UNL    C31   43  -0.327   0.448  -0.223
    1UNL    O13   44  -0.195   0.432  -0.172
    1UNL    C32   45  -0.318   0.267  -0.413
    1UNL    O14   46  -0.194   0.327  -0.438
    1UNL    C33   47  -0.300   0.111  -0.412
    1UNL    O15   48  -0.170   0.082  -0.359
    1UNL    C34   49  -0.415   0.048  -0.328
    1UNL    O16   50  -0.543   0.098  -0.372
    1UNL    C35   51  -0.236   0.128   0.066
    1UNL    O17   52  -0.235   0.146   0.205
    1UNL    C36   53  -0.088   0.104   0.016
    1UNL    O18   54  -0.077   0.182  -0.107
    1UNL     H1   55   0.010  -0.253   0.183
    1UNL     H2   56   0.148  -0.294   0.276
    1UNL     H3   57   0.118  -0.117   0.225
    1UNL     H4   58   0.100  -0.455   0.030
    1UNL     H5   59   0.259  -0.461   0.118
    1UNL     H6   60   0.345  -0.554  -0.214
    1UNL     H7   61   0.474  -0.160  -0.052
    1UNL     H8   62   0.209  -0.036  -0.311
    1UNL     H9   63   0.361  -0.099  -0.344
    1UNL    H10   64   0.167   0.396  -0.123
    1UNL    H11   65   0.275   0.586   0.019
    1UNL    H12   66   0.429   0.664   0.125
    1UNL    H13   67   0.593   0.345   0.095
    1UNL    H14   68   0.507   0.158  -0.033
    1UNL    H15   69   0.216  -0.344  -0.314
    1UNL    H16   70   0.023  -0.213  -0.244
    1UNL    H17   71   0.010  -0.349  -0.123
    1UNL    H18   72  -0.098  -0.059  -0.115
    1UNL    H19   73  -0.313  -0.220   0.044
    1UNL    H20   74  -0.319  -0.046   0.289
    1UNL    H21   75  -0.410  -0.184   0.242
    1UNL    H22   76   0.034  -0.044   0.551
    1UNL    H23   77   0.198  -0.144   0.696
    1UNL    H24   78   0.226  -0.381   0.720
    1UNL    H25   79   0.100  -0.524   0.575
    1UNL    H26   80  -0.067  -0.445   0.412
    1UNL    H27   81  -0.426   0.012   0.052
    1UNL    H28   82  -0.489   0.098  -0.138
    1UNL    H29   83  -0.489   0.307  -0.272
    1UNL    H30   84  -0.392   0.490  -0.145
    1UNL    H31   85  -0.316   0.514  -0.314
    1UNL    H32   86  -0.163   0.338  -0.172
    1UNL    H33   87  -0.377   0.297  -0.498
    1UNL    H34   88  -0.126   0.258  -0.407
    1UNL    H35   89  -0.294   0.068  -0.513
    1UNL    H36   90  -0.163   0.105  -0.266
    1UNL    H37   91  -0.417  -0.067  -0.326
    1UNL    H38   92  -0.554   0.106  -0.465
    1UNL    H39   93  -0.276   0.222   0.021
    1UNL    H40   94  -0.172   0.085   0.254
    1UNL    H41   95  -0.005   0.142   0.080
    1UNL    H42   96   0.016   0.169  -0.147
   0.00000   0.00000   0.00000   0.00000   0.00000   0.00000   0.00000   0.00000   0.00000
Generated with MDTraj, t= 80.0
 96
    1UNL     C1    1   0.111  -0.233   0.189
    1UNL     C2    2   0.188  -0.258   0.065
    1UNL     C3    3   0.203  -0.415   0.031
    1UNL     C4    4   0.281  -0.422  -0.103
    1UNL     O1    5   0.298  -0.556  -0.164
    1UNL     O2    6   0.410  -0.356  -0.085
    1UNL     C5    7   0.381  -0.216  -0.051
    1UNL     O3    8   0.317  -0.205   0.080
    1UNL     C6    9   0.258  -0.187  -0.153
    1UNL     C7   10   0.288  -0.071  -0.247
    1UNL     O4   11   0.355   0.032  -0.171
    1UNL     C8   12   0.283   0.146  -0.169
    1UNL     O5   13   0.175   0.159  -0.233
    1UNL     C9   14   0.337   0.261  -0.088
    1UNL    C10   15   0.268   0.382  -0.084
    1UNL    C11   16   0.308   0.486  -0.005
    1UNL    C12   17   0.433   0.484   0.064
    1UNL     O6   18   0.469   0.595   0.137
    1UNL    C13   19   0.504   0.361   0.055
    1UNL    C14   20   0.460   0.252  -0.019
    1UNL    C15   21   0.202  -0.324  -0.208
    1UNL    C16   22   0.054  -0.279  -0.167
    1UNL    C17   23   0.128  -0.183  -0.063
    1UNL     O7   24   0.081  -0.048  -0.036
    1UNL    C18   25  -0.058  -0.031  -0.014
    1UNL     O8   26  -0.106  -0.121   0.089
    1UNL    C19   27  -0.253  -0.133   0.095
    1UNL    C20   28  -0.309  -0.178   0.229
    1UNL     O9   29  -0.211  -0.235   0.319
    1UNL    C21   30  -0.122  -0.136   0.373
    1UNL    O10   31  -0.118  -0.018   0.354
    1UNL    C22   32  -0.033  -0.195   0.472
    1UNL    C23   33   0.044  -0.136   0.573
    1UNL    C24   34   0.136  -0.208   0.645
    1UNL    C25   35   0.145  -0.339   0.631
    1UNL    C26   36   0.072  -0.406   0.538
    1UNL    C27   37  -0.016  -0.339   0.459
    1UNL    C28   38  -0.326  -0.007   0.029
    1UNL    O11   39  -0.360  -0.029  -0.109
    1UNL    C29   40  -0.404   0.088  -0.177
    1UNL    O12   41  -0.320   0.199  -0.165
    1UNL    C30   42  -0.361   0.311  -0.253
    1UNL    C31   43  -0.310   0.445  -0.204
    1UNL    O13   44  -0.176   0.443  -0.186
    1UNL    C32   45  -0.304   0.276  -0.393
    1UNL    O14   46  -0.180   0.335  -0.420
    1UNL    C33   47  -0.296   0.117  -0.403
    1UNL    O15   48  -0.172   0.066  -0.353
    1UNL    C34   49  -0.412   0.046  -0.324
    1UNL    O16   50  -0.533   0.090  -0.384
    1UNL    C35   51  -0.248   0.118   0.058
    1UNL    O17   52  -0.265   0.150   0.197
    1UNL    C36   53  -0.101   0.107   0.019
    1UNL    O18   54  -0.064   0.201  -0.089
    1UNL     H1   55   0.007  -0.263   0.196
    1UNL     H2   56   0.163  -0.271   0.280
    1UNL     H3   57   0.107  -0.124   0.186
    1UNL     H4   58   0.103  -0.470   0.022
    1UNL     H5   59   0.266  -0.464   0.115
    1UNL     H6   60   0.391  -0.575  -0.179
    1UNL     H7   61   0.466  -0.162  -0.071
    1UNL     H8   62   0.198  -0.038  -0.301
    1UNL     H9   63   0.352  -0.109  -0.324
    1UNL    H10   64   0.177   0.396  -0.142
    1UNL    H11   65   0.242   0.573  -0.011
    1UNL    H12   66   0.393   0.653   0.134
    1UNL    H13   67   0.597   0.348   0.111
    1UNL    H14   68   0.505   0.157  -0.023
    1UNL    H15   69   0.227  -0.345  -0.313
    1UNL    H16   70  -0.011  -0.218  -0.234
    1UNL    H17   71  -0.013  -0.337  -0.102
    1UNL    H18   72  -0.105  -0.061  -0.109
    1UNL    H19   73  -0.273  -0.214   0.021
    1UNL    H20   74  -0.359  -0.091   0.286
    1UNL    H21   75  -0.393  -0.246   0.215
    1UNL    H22   76   0.041  -0.025   0.568
    1UNL    H23   77   0.191  -0.151   0.722
    1UNL    H24   78   0.213  -0.398   0.686
    1UNL    H25   79   0.066  -0.520   0.543
    1UNL    H26   80  -0.090  -0.383   0.400
    1UNL    H27   81  -0.431   0.008   0.062
    1UNL    H28   82  -0.502   0.113  -0.135
    1UNL    H29   83  -0.478   0.310  -0.247
    1UNL    H30   84  -0.348   0.458  -0.099
    1UNL    H31   85  -0.340   0.528  -0.278
    1UNL    H32   86  -0.142   0.365  -0.146
    1UNL    H33   87  -0.380   0.310  -0.462
    1UNL    H34   88  -0.127   0.307  -0.347
    1UNL    H35   89  -0.297   0.086  -0.508
    1UNL    H36   90  -0.157   0.101  -0.266
    1UNL    H37   91  -0.395  -0.061  -0.350
    1UNL    H38   92  -0.534   0.083  -0.478
    1UNL    H39   93  -0.302   0.198   0.004
    1UNL    H40   94  -0.207   0.093   0.248
    1UNL    H41   95  -0.037   0.129   0.106
    1UNL    H42   96   0.022   0.183  -0.126
   0.00000   0.00000   0.00000   0.00000   0.00000   0.00000   0.00000   0.00000   0.00000
Generated with MDTraj, t= 81.0
 96
    1UNL     C1    1   0.113  -0.221   0.197
    1UNL     C2    2   0.188  -0.261   0.072
    1UNL     C3    3   0.192  -0.413   0.028
    1UNL     C4    4   0.262  -0.420  -0.108
    1UNL     O1    5   0.239  -0.546  -0.181
    1UNL     O2    6   0.398  -0.373  -0.075
    1UNL     C5    7   0.385  -0.232  -0.052
    1UNL     O3    8   0.328  -0.216   0.081
    1UNL     C6    9   0.270  -0.177  -0.152
    1UNL     C7   10   0.291  -0.059  -0.249
    1UNL     O4   11   0.349   0.051  -0.177
    1UNL     C8   12   0.270   0.167  -0.177
    1UNL     O5   13   0.160   0.164  -0.238
    1UNL     C9   14   0.328   0.278  -0.108
    1UNL    C10   15   0.261   0.396  -0.091
    1UNL    C11   16   0.309   0.494  -0.004
    1UNL    C12   17   0.430   0.480   0.064
    1UNL     O6   18   0.472   0.586   0.146
    1UNL    C13   19   0.494   0.354   0.059
    1UNL    C14   20   0.436   0.263  -0.021
    1UNL    C15   21   0.207  -0.306  -0.207
    1UNL    C16   22   0.068  -0.257  -0.177
    1UNL    C17   23   0.134  -0.177  -0.059
    1UNL     O7   24   0.083  -0.050  -0.037
    1UNL    C18   25  -0.058  -0.044  -0.022
    1UNL     O8   26  -0.115  -0.140   0.070
    1UNL    C19   27  -0.263  -0.140   0.086
    1UNL    C20   28  -0.299  -0.150   0.234
    1UNL     O9   29  -0.218  -0.236   0.316
    1UNL    C21   30  -0.136  -0.152   0.388
    1UNL    O10   31  -0.137  -0.031   0.394
    1UNL    C22   32  -0.033  -0.218   0.476
    1UNL    C23   33   0.056  -0.142   0.542
    1UNL    C24   34   0.144  -0.187   0.632
    1UNL    C25   35   0.156  -0.324   0.643
    1UNL    C26   36   0.078  -0.414   0.564
    1UNL    C27   37  -0.010  -0.356   0.478
    1UNL    C28   38  -0.322  -0.010   0.027
    1UNL    O11   39  -0.315  -0.025  -0.115
    1UNL    C29   40  -0.390   0.078  -0.188
    1UNL    O12   41  -0.347   0.216  -0.160
    1UNL    C30   42  -0.356   0.311  -0.264
    1UNL    C31   43  -0.303   0.444  -0.214
    1UNL    O13   44  -0.171   0.431  -0.170
    1UNL    C32   45  -0.298   0.259  -0.401
    1UNL    O14   46  -0.181   0.331  -0.430
    1UNL    C33   47  -0.281   0.110  -0.405
    1UNL    O15   48  -0.168   0.070  -0.334
    1UNL    C34   49  -0.399   0.044  -0.339
    1UNL    O16   50  -0.526   0.076  -0.391
    1UNL    C35   51  -0.237   0.117   0.070
    1UNL    O17   52  -0.249   0.165   0.202
    1UNL    C36   53  -0.086   0.096   0.028
    1UNL    O18   54  -0.060   0.189  -0.082
    1UNL     H1   55   0.017  -0.270   0.185
    1UNL     H2   56   0.160  -0.279   0.284
    1UNL     H3   57   0.093  -0.116   0.208
    1UNL     H4   58   0.084  -0.453   0.012
    1UNL     H5   59   0.251  -0.472   0.108
    1UNL     H6   60   0.295  -0.610  -0.139
    1UNL     H7   61   0.478  -0.186  -0.057
    1UNL     H8   62   0.190  -0.029  -0.284
    1UNL     H9   63   0.351  -0.098  -0.331
    1UNL    H10   64   0.179   0.417  -0.158
    1UNL    H11   65   0.254   0.585   0.011
    1UNL    H12   66   0.415   0.663   0.153
    1UNL    H13   67   0.578   0.340   0.126
    1UNL    H14   68   0.480   0.160  -0.030
    1UNL    H15   69   0.222  -0.318  -0.316
    1UNL    H16   70   0.022  -0.190  -0.256
    1UNL    H17   71   0.002  -0.339  -0.149
    1UNL    H18   72  -0.106  -0.057  -0.124
    1UNL    H19   73  -0.290  -0.235   0.041
    1UNL    H20   74  -0.303  -0.042   0.284
    1UNL    H21   75  -0.405  -0.179   0.248
    1UNL    H22   76   0.052  -0.036   0.532
    1UNL    H23   77   0.216  -0.129   0.682
    1UNL    H24   78   0.217  -0.361   0.726
    1UNL    H25   79   0.071  -0.514   0.597
    1UNL    H26   80  -0.074  -0.428   0.422
    1UNL    H27   81  -0.427   0.002   0.066
    1UNL    H28   82  -0.483   0.063  -0.131
    1UNL    H29   83  -0.472   0.321  -0.271
    1UNL    H30   84  -0.363   0.492  -0.130
    1UNL    H31   85  -0.292   0.511  -0.308
    1UNL    H32   86  -0.164   0.343  -0.115
    1UNL    H33   87  -0.366   0.305  -0.478
    1UNL    H34   88  -0.112   0.314  -0.362
    1UNL    H35   89  -0.274   0.081  -0.511
    1UNL    H36   90  -0.184   0.090  -0.241
    1UNL    H37   91  -0.384  -0.063  -0.358
    1UNL    H38   92  -0.543   0.073  -0.490
    1UNL    H39   93  -0.292   0.196   0.014
    1UNL    H40   94  -0.202   0.107   0.271
    1UNL    H41   95  -0.021   0.131   0.107
    1UNL    H42   96   0.024   0.169  -0.132
   0.00000   0.00000   0.00000   0.00000   0.00000   0.00000   0.00000   0.00000   0.00000
Generated with MDTraj, t= 82.0
 96
    1UNL     C1    1   0.114  -0.238   0.204
    1UNL     C2    2   0.185  -0.255   0.059
    1UNL     C3    3   0.172  -0.402   0.016
    1UNL     C4    4   0.238  -0.418  -0.121
    1UNL     O1    5   0.242  -0.554  -0.167
    1UNL     O2    6   0.375  -0.379  -0.106
    1UNL     C5    7   0.373  -0.240  -0.074
    1UNL     O3    8   0.328  -0.222   0.060
    1UNL     C6    9   0.251  -0.181  -0.160
    1UNL     C7   10   0.287  -0.058  -0.246
    1UNL     O4   11   0.347   0.036  -0.164
    1UNL     C8   12   0.273   0.152  -0.175
    1UNL     O5   13   0.167   0.166  -0.244
    1UNL     C9   14   0.320   0.267  -0.090
    1UNL    C10   15   0.261   0.392  -0.089
    1UNL    C11   16   0.297   0.494  -0.006
    1UNL    C12   17   0.420   0.484   0.073
    1UNL     O6   18   0.461   0.595   0.138
    1UNL    C13   19   0.483   0.357   0.064
    1UNL    C14   20   0.437   0.253  -0.010
    1UNL    C15   21   0.180  -0.310  -0.216
    1UNL    C16   22   0.045  -0.242  -0.170
    1UNL    C17   23   0.127  -0.164  -0.059
    1UNL     O7   24   0.090  -0.028  -0.021
    1UNL    C18   25  -0.047  -0.018   0.009
    1UNL     O8   26  -0.089  -0.106   0.117
    1UNL    C19   27  -0.232  -0.131   0.097
    1UNL    C20   28  -0.285  -0.187   0.231
    1UNL     O9   29  -0.186  -0.257   0.305
    1UNL    C21   30  -0.129  -0.166   0.390
    1UNL    O10   31  -0.141  -0.046   0.382
    1UNL    C22   32  -0.039  -0.227   0.490
    1UNL    C23   33   0.057  -0.135   0.543
    1UNL    C24   34   0.160  -0.192   0.612
    1UNL    C25   35   0.164  -0.328   0.635
    1UNL    C26   36   0.069  -0.412   0.585
    1UNL    C27   37  -0.041  -0.362   0.515
    1UNL    C28   38  -0.313  -0.009   0.043
    1UNL    O11   39  -0.322  -0.031  -0.105
    1UNL    C29   40  -0.379   0.072  -0.182
    1UNL    O12   41  -0.316   0.205  -0.173
    1UNL    C30   42  -0.352   0.300  -0.274
    1UNL    C31   43  -0.327   0.444  -0.235
    1UNL    O13   44  -0.188   0.469  -0.202
    1UNL    C32   45  -0.284   0.260  -0.406
    1UNL    O14   46  -0.160   0.327  -0.439
    1UNL    C33   47  -0.263   0.108  -0.413
    1UNL    O15   48  -0.139   0.071  -0.350
    1UNL    C34   49  -0.380   0.037  -0.335
    1UNL    O16   50  -0.508   0.075  -0.386
    1UNL    C35   51  -0.251   0.128   0.083
    1UNL    O17   52  -0.259   0.162   0.221
    1UNL    C36   53  -0.102   0.127   0.032
    1UNL    O18   54  -0.079   0.209  -0.084
    1UNL     H1   55   0.006  -0.257   0.203
    1UNL     H2   56   0.156  -0.309   0.280
    1UNL     H3   57   0.122  -0.135   0.229
    1UNL     H4   58   0.064  -0.446   0.031
    1UNL     H5   59   0.248  -0.450   0.089
    1UNL     H6   60   0.338  -0.574  -0.177
    1UNL     H7   61   0.460  -0.187  -0.086
    1UNL     H8   62   0.193  -0.023  -0.299
    1UNL     H9   63   0.366  -0.082  -0.318
    1UNL    H10   64   0.184   0.407  -0.162
    1UNL    H11   65   0.245   0.585  -0.028
    1UNL    H12   66   0.397   0.668   0.123
    1UNL    H13   67   0.577   0.349   0.114
    1UNL    H14   68   0.490   0.165  -0.017
    1UNL    H15   69   0.204  -0.319  -0.323
    1UNL    H16   70   0.011  -0.187  -0.264
    1UNL    H17   71  -0.031  -0.311  -0.138
    1UNL    H18   72  -0.084  -0.078  -0.081
    1UNL    H19   73  -0.248  -0.202   0.020
    1UNL    H20   74  -0.334  -0.097   0.294
    1UNL    H21   75  -0.372  -0.252   0.205
    1UNL    H22   76   0.059  -0.041   0.487
    1UNL    H23   77   0.245  -0.124   0.634
    1UNL    H24   78   0.249  -0.356   0.691
    1UNL    H25   79   0.075  -0.518   0.615
    1UNL    H26   80  -0.111  -0.417   0.458
    1UNL    H27   81  -0.416  -0.010   0.089
    1UNL    H28   82  -0.483   0.079  -0.138
    1UNL    H29   83  -0.464   0.275  -0.292
    1UNL    H30   84  -0.371   0.456  -0.133
    1UNL    H31   85  -0.363   0.522  -0.312
    1UNL    H32   86  -0.158   0.384  -0.158
    1UNL    H33   87  -0.348   0.295  -0.495
    1UNL    H34   88  -0.082   0.286  -0.388
    1UNL    H35   89  -0.271   0.065  -0.514
    1UNL    H36   90  -0.135   0.104  -0.261
    1UNL    H37   91  -0.367  -0.066  -0.366
    1UNL    H38   92  -0.520   0.030  -0.479
    1UNL    H39   93  -0.313   0.205   0.033
    1UNL    H40   94  -0.220   0.090   0.270
    1UNL    H41   95  -0.037   0.169   0.108
    1UNL    H42   96   0.007   0.195  -0.131
   0.00000   0.00000   0.00000   0.00000   0.00000   0.00000   0.00000   0.00000   0.00000
Generated with MDTraj, t= 83.0
 96
    1UNL     C1    1   0.130  -0.230   0.203
    1UNL     C2    2   0.186  -0.252   0.063
    1UNL     C3    3   0.169  -0.405   0.015
    1UNL     C4    4   0.222  -0.413  -0.131
    1UNL     O1    5   0.196  -0.541  -0.183
    1UNL     O2    6   0.358  -0.375  -0.117
    1UNL     C5    7   0.366  -0.233  -0.079
    1UNL     O3    8   0.336  -0.228   0.056
    1UNL     C6    9   0.246  -0.177  -0.159
    1UNL     C7   10   0.278  -0.060  -0.248
    1UNL     O4   11   0.341   0.043  -0.182
    1UNL     C8   12   0.266   0.158  -0.178
    1UNL     O5   13   0.155   0.164  -0.233
    1UNL     C9   14   0.315   0.269  -0.086
    1UNL    C10   15   0.250   0.396  -0.080
    1UNL    C11   16   0.299   0.498  -0.009
    1UNL    C12   17   0.407   0.485   0.069
    1UNL     O6   18   0.452   0.592   0.140
    1UNL    C13   19   0.474   0.363   0.070
    1UNL    C14   20   0.425   0.256   0.000
    1UNL    C15   21   0.158  -0.294  -0.210
    1UNL    C16   22   0.036  -0.216  -0.152
    1UNL    C17   23   0.134  -0.154  -0.047
    1UNL     O7   24   0.110  -0.022  -0.001
    1UNL    C18   25  -0.034  -0.011   0.008
    1UNL     O8   26  -0.088  -0.107   0.103
    1UNL    C19   27  -0.233  -0.129   0.092
    1UNL    C20   28  -0.289  -0.163   0.233
    1UNL     O9   29  -0.202  -0.241   0.304
    1UNL    C21   30  -0.128  -0.162   0.387
    1UNL    O10   31  -0.157  -0.046   0.406
    1UNL    C22   32  -0.028  -0.232   0.468
    1UNL    C23   33   0.075  -0.148   0.513
    1UNL    C24   34   0.165  -0.197   0.604
    1UNL    C25   35   0.155  -0.332   0.650
    1UNL    C26   36   0.055  -0.412   0.598
    1UNL    C27   37  -0.038  -0.366   0.503
    1UNL    C28   38  -0.297  -0.005   0.027
    1UNL    O11   39  -0.283  -0.016  -0.115
    1UNL    C29   40  -0.367   0.069  -0.186
    1UNL    O12   41  -0.327   0.206  -0.178
    1UNL    C30   42  -0.352   0.290  -0.288
    1UNL    C31   43  -0.319   0.431  -0.247
    1UNL    O13   44  -0.195   0.440  -0.185
    1UNL    C32   45  -0.276   0.241  -0.414
    1UNL    O14   46  -0.152   0.317  -0.424
    1UNL    C33   47  -0.252   0.085  -0.406
    1UNL    O15   48  -0.133   0.067  -0.331
    1UNL    C34   49  -0.373   0.017  -0.335
    1UNL    O16   50  -0.505   0.048  -0.390
    1UNL    C35   51  -0.227   0.127   0.078
    1UNL    O17   52  -0.243   0.158   0.212
    1UNL    C36   53  -0.075   0.128   0.043
    1UNL    O18   54  -0.065   0.215  -0.064
    1UNL     H1   55   0.023  -0.256   0.216
    1UNL     H2   56   0.189  -0.289   0.272
    1UNL     H3   57   0.141  -0.122   0.220
    1UNL     H4   58   0.058  -0.421   0.008
    1UNL     H5   59   0.214  -0.481   0.091
    1UNL     H6   60   0.246  -0.547  -0.270
    1UNL     H7   61   0.457  -0.193  -0.104
    1UNL     H8   62   0.185  -0.013  -0.291
    1UNL     H9   63   0.341  -0.099  -0.330
    1UNL    H10   64   0.166   0.394  -0.148
    1UNL    H11   65   0.253   0.597  -0.002
    1UNL    H12   66   0.402   0.680   0.133
    1UNL    H13   67   0.560   0.359   0.138
    1UNL    H14   68   0.480   0.157   0.006
    1UNL    H15   69   0.139  -0.296  -0.319
    1UNL    H16   70  -0.017  -0.145  -0.221
    1UNL    H17   71  -0.041  -0.283  -0.113
    1UNL    H18   72  -0.065  -0.047  -0.093
    1UNL    H19   73  -0.259  -0.207   0.027
    1UNL    H20   74  -0.331  -0.063   0.286
    1UNL    H21   75  -0.376  -0.232   0.211
    1UNL    H22   76   0.088  -0.049   0.471
    1UNL    H23   77   0.252  -0.136   0.624
    1UNL    H24   78   0.222  -0.365   0.732
    1UNL    H25   79   0.057  -0.517   0.620
    1UNL    H26   80  -0.128  -0.428   0.488
    1UNL    H27   81  -0.406   0.004   0.056
    1UNL    H28   82  -0.466   0.046  -0.133
    1UNL    H29   83  -0.463   0.276  -0.313
    1UNL    H30   84  -0.396   0.473  -0.183
    1UNL    H31   85  -0.303   0.484  -0.346
    1UNL    H32   86  -0.159   0.359  -0.153
    1UNL    H33   87  -0.324   0.265  -0.515
    1UNL    H34   88  -0.084   0.276  -0.375
    1UNL    H35   89  -0.237   0.030  -0.501
    1UNL    H36   90  -0.136   0.109  -0.244
    1UNL    H37   91  -0.362  -0.087  -0.322
    1UNL    H38   92  -0.531  -0.025  -0.454
    1UNL    H39   93  -0.270   0.212   0.020
    1UNL    H40   94  -0.214   0.085   0.275
    1UNL    H41   95  -0.013   0.179   0.118
    1UNL    H42   96   0.022   0.205  -0.112
   0.00000   0.00000   0.00000   0.00000   0.00000   0.00000   0.00000   0.00000   0.00000
Generated with MDTraj, t= 84.0
 96
    1UNL     C1    1   0.161  -0.208   0.196
    1UNL     C2    2   0.203  -0.257   0.060
    1UNL     C3    3   0.162  -0.406   0.007
    1UNL     C4    4   0.216  -0.409  -0.141
    1UNL     O1    5   0.168  -0.534  -0.204
    1UNL     O2    6   0.364  -0.388  -0.133
    1UNL     C5    7   0.374  -0.251  -0.092
    1UNL     O3    8   0.343  -0.243   0.046
    1UNL     C6    9   0.261  -0.176  -0.174
    1UNL     C7   10   0.286  -0.051  -0.255
    1UNL     O4   11   0.338   0.052  -0.177
    1UNL     C8   12   0.258   0.166  -0.187
    1UNL     O5   13   0.155   0.178  -0.252
    1UNL     C9   14   0.301   0.282  -0.098
    1UNL    C10   15   0.242   0.409  -0.091
    1UNL    C11   16   0.293   0.504  -0.013
    1UNL    C12   17   0.406   0.489   0.076
    1UNL     O6   18   0.451   0.584   0.162
    1UNL    C13   19   0.463   0.362   0.072
    1UNL    C14   20   0.417   0.262  -0.016
    1UNL    C15   21   0.164  -0.290  -0.229
    1UNL    C16   22   0.050  -0.214  -0.159
    1UNL    C17   23   0.144  -0.153  -0.058
    1UNL     O7   24   0.102  -0.025  -0.008
    1UNL    C18   25  -0.044  -0.010   0.017
    1UNL     O8   26  -0.096  -0.102   0.125
    1UNL    C19   27  -0.245  -0.128   0.116
    1UNL    C20   28  -0.307  -0.173   0.248
    1UNL     O9   29  -0.221  -0.237   0.341
    1UNL    C21   30  -0.128  -0.152   0.395
    1UNL    O10   31  -0.130  -0.032   0.377
    1UNL    C22   32  -0.035  -0.215   0.489
    1UNL    C23   33   0.071  -0.150   0.539
    1UNL    C24   34   0.173  -0.217   0.609
    1UNL    C25   35   0.161  -0.353   0.634
    1UNL    C26   36   0.051  -0.422   0.582
    1UNL    C27   37  -0.051  -0.350   0.522
    1UNL    C28   38  -0.313  -0.007   0.040
    1UNL    O11   39  -0.306  -0.025  -0.099
    1UNL    C29   40  -0.370   0.068  -0.177
    1UNL    O12   41  -0.317   0.201  -0.167
    1UNL    C30   42  -0.344   0.281  -0.290
    1UNL    C31   43  -0.318   0.432  -0.257
    1UNL    O13   44  -0.196   0.452  -0.189
    1UNL    C32   45  -0.255   0.226  -0.409
    1UNL    O14   46  -0.129   0.301  -0.421
    1UNL    C33   47  -0.226   0.072  -0.390
    1UNL    O15   48  -0.122   0.051  -0.305
    1UNL    C34   49  -0.354   0.010  -0.329
    1UNL    O16   50  -0.477   0.045  -0.407
    1UNL    C35   51  -0.242   0.131   0.073
    1UNL    O17   52  -0.261   0.168   0.208
    1UNL    C36   53  -0.092   0.133   0.035
    1UNL    O18   54  -0.067   0.222  -0.073
    1UNL     H1   55   0.053  -0.232   0.215
    1UNL     H2   56   0.215  -0.256   0.272
    1UNL     H3   57   0.175  -0.097   0.202
    1UNL     H4   58   0.054  -0.427   0.025
    1UNL     H5   59   0.224  -0.474   0.076
    1UNL     H6   60   0.196  -0.618  -0.155
    1UNL     H7   61   0.464  -0.206  -0.112
    1UNL     H8   62   0.187  -0.022  -0.296
    1UNL     H9   63   0.360  -0.058  -0.336
    1UNL    H10   64   0.152   0.428  -0.150
    1UNL    H11   65   0.237   0.594  -0.012
    1UNL    H12   66   0.383   0.658   0.162
    1UNL    H13   67   0.545   0.346   0.136
    1UNL    H14   68   0.465   0.172  -0.009
    1UNL    H15   69   0.172  -0.293  -0.339
    1UNL    H16   70  -0.005  -0.143  -0.223
    1UNL    H17   71  -0.021  -0.284  -0.113
    1UNL    H18   72  -0.089  -0.056  -0.074
    1UNL    H19   73  -0.245  -0.216   0.057
    1UNL    H20   74  -0.343  -0.076   0.304
    1UNL    H21   75  -0.396  -0.236   0.228
    1UNL    H22   76   0.077  -0.047   0.515
    1UNL    H23   77   0.265  -0.174   0.647
    1UNL    H24   78   0.238  -0.414   0.673
    1UNL    H25   79   0.024  -0.523   0.610
    1UNL    H26   80  -0.140  -0.404   0.490
    1UNL    H27   81  -0.419   0.002   0.077
    1UNL    H28   82  -0.484   0.071  -0.157
    1UNL    H29   83  -0.453   0.275  -0.309
    1UNL    H30   84  -0.394   0.466  -0.192
    1UNL    H31   85  -0.314   0.495  -0.346
    1UNL    H32   86  -0.158   0.369  -0.154
    1UNL    H33   87  -0.311   0.252  -0.506
    1UNL    H34   88  -0.062   0.266  -0.349
    1UNL    H35   89  -0.197   0.028  -0.487
    1UNL    H36   90  -0.148   0.083  -0.216
    1UNL    H37   91  -0.348  -0.093  -0.322
    1UNL    H38   92  -0.483  -0.017  -0.478
    1UNL    H39   93  -0.306   0.202   0.015
    1UNL    H40   94  -0.217   0.099   0.263
    1UNL    H41   95  -0.040   0.176   0.122
    1UNL    H42   96   0.007   0.191  -0.131
   0.00000   0.00000   0.00000   0.00000   0.00000   0.00000   0.00000   0.00000   0.00000
Generated with MDTraj, t= 85.0
 96
    1UNL     C1    1   0.127  -0.231   0.190
    1UNL     C2    2   0.173  -0.247   0.050
    1UNL     C3    3   0.169  -0.398  -0.001
    1UNL     C4    4   0.221  -0.403  -0.143
    1UNL     O1    5   0.208  -0.533  -0.209
    1UNL     O2    6   0.365  -0.359  -0.142
    1UNL     C5    7   0.350  -0.227  -0.104
    1UNL     O3    8   0.313  -0.217   0.037
    1UNL     C6    9   0.220  -0.168  -0.175
    1UNL     C7   10   0.242  -0.051  -0.266
    1UNL     O4   11   0.323   0.049  -0.202
    1UNL     C8   12   0.251   0.165  -0.182
    1UNL     O5   13   0.149   0.188  -0.241
    1UNL     C9   14   0.307   0.273  -0.097
    1UNL    C10   15   0.247   0.398  -0.099
    1UNL    C11   16   0.280   0.505  -0.011
    1UNL    C12   17   0.384   0.485   0.076
    1UNL     O6   18   0.429   0.585   0.163
    1UNL    C13   19   0.454   0.361   0.081
    1UNL    C14   20   0.420   0.263  -0.011
    1UNL    C15   21   0.153  -0.291  -0.233
    1UNL    C16   22   0.019  -0.237  -0.172
    1UNL    C17   23   0.108  -0.157  -0.062
    1UNL     O7   24   0.079  -0.022  -0.017
    1UNL    C18   25  -0.052  -0.010   0.011
    1UNL     O8   26  -0.100  -0.105   0.110
    1UNL    C19   27  -0.245  -0.112   0.122
    1UNL    C20   28  -0.297  -0.131   0.259
    1UNL     O9   29  -0.216  -0.210   0.345
    1UNL    C21   30  -0.125  -0.135   0.411
    1UNL    O10   31  -0.113  -0.013   0.416
    1UNL    C22   32  -0.022  -0.214   0.484
    1UNL    C23   33   0.090  -0.156   0.541
    1UNL    C24   34   0.175  -0.229   0.627
    1UNL    C25   35   0.152  -0.365   0.634
    1UNL    C26   36   0.045  -0.428   0.575
    1UNL    C27   37  -0.036  -0.351   0.502
    1UNL    C28   38  -0.305   0.007   0.039
    1UNL    O11   39  -0.290  -0.031  -0.100
    1UNL    C29   40  -0.359   0.056  -0.188
    1UNL    O12   41  -0.313   0.193  -0.173
    1UNL    C30   42  -0.329   0.274  -0.291
    1UNL    C31   43  -0.315   0.417  -0.248
    1UNL    O13   44  -0.181   0.437  -0.196
    1UNL    C32   45  -0.222   0.221  -0.392
    1UNL    O14   46  -0.092   0.275  -0.383
    1UNL    C33   47  -0.210   0.061  -0.391
    1UNL    O15   48  -0.105   0.010  -0.311
    1UNL    C34   49  -0.342   0.006  -0.331
    1UNL    O16   50  -0.448   0.043  -0.427
    1UNL    C35   51  -0.237   0.141   0.084
    1UNL    O17   52  -0.256   0.167   0.226
    1UNL    C36   53  -0.087   0.132   0.048
    1UNL    O18   54  -0.058   0.222  -0.061
    1UNL     H1   55   0.019  -0.252   0.189
    1UNL     H2   56   0.171  -0.297   0.261
    1UNL     H3   57   0.139  -0.124   0.225
    1UNL     H4   58   0.062  -0.423   0.012
    1UNL     H5   59   0.224  -0.453   0.077
    1UNL     H6   60   0.256  -0.536  -0.298
    1UNL     H7   61   0.434  -0.174  -0.129
    1UNL     H8   62   0.155   0.005  -0.297
    1UNL     H9   63   0.296  -0.087  -0.351
    1UNL    H10   64   0.164   0.404  -0.166
    1UNL    H11   65   0.229   0.600  -0.001
    1UNL    H12   66   0.376   0.670   0.155
    1UNL    H13   67   0.531   0.347   0.158
    1UNL    H14   68   0.486   0.171  -0.024
    1UNL    H15   69   0.150  -0.295  -0.342
    1UNL    H16   70  -0.049  -0.180  -0.234
    1UNL    H17   71  -0.040  -0.317  -0.120
    1UNL    H18   72  -0.108  -0.040  -0.081
    1UNL    H19   73  -0.263  -0.201   0.061
    1UNL    H20   74  -0.313  -0.032   0.313
    1UNL    H21   75  -0.397  -0.180   0.260
    1UNL    H22   76   0.103  -0.046   0.525
    1UNL    H23   77   0.257  -0.174   0.673
    1UNL    H24   78   0.207  -0.434   0.701
    1UNL    H25   79   0.014  -0.530   0.593
    1UNL    H26   80  -0.122  -0.386   0.453
    1UNL    H27   81  -0.414   0.017   0.054
    1UNL    H28   82  -0.469   0.070  -0.154
    1UNL    H29   83  -0.429   0.261  -0.328
    1UNL    H30   84  -0.383   0.453  -0.178
    1UNL    H31   85  -0.315   0.478  -0.337
    1UNL    H32   86  -0.139   0.342  -0.184
    1UNL    H33   87  -0.271   0.245  -0.490
    1UNL    H34   88  -0.037   0.205  -0.333
    1UNL    H35   89  -0.200   0.015  -0.492
    1UNL    H36   90  -0.106   0.061  -0.230
    1UNL    H37   91  -0.336  -0.096  -0.323
    1UNL    H38   92  -0.527   0.007  -0.390
    1UNL    H39   93  -0.289   0.213   0.016
    1UNL    H40   94  -0.207   0.103   0.278
    1UNL    H41   95  -0.020   0.166   0.130
    1UNL    H42   96   0.027   0.207  -0.112
   0.00000   0.00000   0.00000   0.00000   0.00000   0.00000   0.00000   0.00000   0.00000
Generated with MDTraj, t= 86.0
 96
    1UNL     C1    1   0.116  -0.252   0.183
    1UNL     C2    2   0.181  -0.262   0.047
    1UNL     C3    3   0.179  -0.408  -0.013
    1UNL     C4    4   0.229  -0.403  -0.150
    1UNL     O1    5   0.220  -0.539  -0.206
    1UNL     O2    6   0.366  -0.351  -0.144
    1UNL     C5    7   0.350  -0.214  -0.100
    1UNL     O3    8   0.319  -0.218   0.045
    1UNL     C6    9   0.225  -0.163  -0.171
    1UNL     C7   10   0.241  -0.047  -0.269
    1UNL     O4   11   0.306   0.061  -0.191
    1UNL     C8   12   0.226   0.168  -0.191
    1UNL     O5   13   0.123   0.184  -0.244
    1UNL     C9   14   0.288   0.278  -0.109
    1UNL    C10   15   0.229   0.402  -0.100
    1UNL    C11   16   0.271   0.504  -0.014
    1UNL    C12   17   0.378   0.476   0.071
    1UNL     O6   18   0.429   0.560   0.163
    1UNL    C13   19   0.433   0.345   0.066
    1UNL    C14   20   0.391   0.253  -0.021
    1UNL    C15   21   0.156  -0.297  -0.237
    1UNL    C16   22   0.025  -0.233  -0.174
    1UNL    C17   23   0.111  -0.169  -0.067
    1UNL     O7   24   0.074  -0.034  -0.025
    1UNL    C18   25  -0.058  -0.020   0.015
    1UNL     O8   26  -0.111  -0.111   0.111
    1UNL    C19   27  -0.256  -0.120   0.126
    1UNL    C20   28  -0.295  -0.124   0.272
    1UNL     O9   29  -0.215  -0.205   0.355
    1UNL    C21   30  -0.117  -0.133   0.413
    1UNL    O10   31  -0.086  -0.013   0.392
    1UNL    C22   32  -0.023  -0.215   0.490
    1UNL    C23   33   0.082  -0.147   0.557
    1UNL    C24   34   0.175  -0.224   0.632
    1UNL    C25   35   0.162  -0.365   0.629
    1UNL    C26   36   0.052  -0.428   0.564
    1UNL    C27   37  -0.035  -0.351   0.491
    1UNL    C28   38  -0.328   0.007   0.056
    1UNL    O11   39  -0.326  -0.024  -0.081
    1UNL    C29   40  -0.348   0.081  -0.183
    1UNL    O12   41  -0.293   0.214  -0.170
    1UNL    C30   42  -0.307   0.278  -0.300
    1UNL    C31   43  -0.275   0.429  -0.283
    1UNL    O13   44  -0.188   0.448  -0.164
    1UNL    C32   45  -0.208   0.213  -0.401
    1UNL    O14   46  -0.082   0.280  -0.417
    1UNL    C33   47  -0.192   0.063  -0.379
    1UNL    O15   48  -0.085   0.036  -0.296
    1UNL    C34   49  -0.317   0.012  -0.318
    1UNL    O16   50  -0.430   0.021  -0.403
    1UNL    C35   51  -0.256   0.139   0.086
    1UNL    O17   52  -0.274   0.183   0.221
    1UNL    C36   53  -0.099   0.128   0.051
    1UNL    O18   54  -0.055   0.210  -0.060
    1UNL     H1   55   0.013  -0.284   0.188
    1UNL     H2   56   0.182  -0.316   0.248
    1UNL     H3   57   0.132  -0.149   0.218
    1UNL     H4   58   0.077  -0.447  -0.015
    1UNL     H5   59   0.228  -0.468   0.059
    1UNL     H6   60   0.311  -0.569  -0.223
    1UNL     H7   61   0.434  -0.163  -0.128
    1UNL     H8   62   0.144  -0.018  -0.306
    1UNL     H9   63   0.306  -0.071  -0.351
    1UNL    H10   64   0.136   0.424  -0.153
    1UNL    H11   65   0.209   0.592  -0.009
    1UNL    H12   66   0.401   0.650   0.137
    1UNL    H13   67   0.509   0.318   0.135
    1UNL    H14   68   0.436   0.159  -0.022
    1UNL    H15   69   0.153  -0.300  -0.348
    1UNL    H16   70  -0.026  -0.163  -0.236
    1UNL    H17   71  -0.054  -0.307  -0.144
    1UNL    H18   72  -0.125  -0.052  -0.062
    1UNL    H19   73  -0.294  -0.205   0.063
    1UNL    H20   74  -0.277  -0.026   0.319
    1UNL    H21   75  -0.402  -0.148   0.296
    1UNL    H22   76   0.104  -0.048   0.541
    1UNL    H23   77   0.257  -0.183   0.691
    1UNL    H24   78   0.225  -0.427   0.689
    1UNL    H25   79   0.054  -0.535   0.577
    1UNL    H26   80  -0.120  -0.405   0.437
    1UNL    H27   81  -0.425   0.019   0.106
    1UNL    H28   82  -0.459   0.111  -0.175
    1UNL    H29   83  -0.408   0.261  -0.327
    1UNL    H30   84  -0.365   0.480  -0.264
    1UNL    H31   85  -0.229   0.471  -0.372
    1UNL    H32   86  -0.172   0.368  -0.120
    1UNL    H33   87  -0.248   0.234  -0.499
    1UNL    H34   88  -0.025   0.247  -0.351
    1UNL    H35   89  -0.159   0.013  -0.473
    1UNL    H36   90  -0.087   0.101  -0.219
    1UNL    H37   91  -0.289  -0.086  -0.295
    1UNL    H38   92  -0.474  -0.069  -0.420
    1UNL    H39   93  -0.308   0.216   0.023
    1UNL    H40   94  -0.222   0.123   0.284
    1UNL    H41   95  -0.039   0.164   0.138
    1UNL    H42   96   0.039   0.206  -0.086
   0.00000   0.00000   0.00000   0.00000   0.00000   0.00000   0.00000   0.00000   0.00000
Generated with MDTraj, t= 87.0
 96
    1UNL     C1    1   0.123  -0.236   0.185
    1UNL     C2    2   0.179  -0.263   0.048
    1UNL     C3    3   0.184  -0.411  -0.007
    1UNL     C4    4   0.226  -0.407  -0.148
    1UNL     O1    5   0.209  -0.537  -0.207
    1UNL     O2    6   0.364  -0.363  -0.148
    1UNL     C5    7   0.355  -0.223  -0.095
    1UNL     O3    8   0.318  -0.225   0.040
    1UNL     C6    9   0.223  -0.165  -0.173
    1UNL     C7   10   0.228  -0.040  -0.266
    1UNL     O4   11   0.302   0.059  -0.190
    1UNL     C8   12   0.234   0.179  -0.200
    1UNL     O5   13   0.141   0.209  -0.266
    1UNL     C9   14   0.280   0.280  -0.100
    1UNL    C10   15   0.215   0.405  -0.095
    1UNL    C11   16   0.264   0.504  -0.006
    1UNL    C12   17   0.370   0.472   0.084
    1UNL     O6   18   0.433   0.572   0.164
    1UNL    C13   19   0.428   0.348   0.079
    1UNL    C14   20   0.384   0.253  -0.013
    1UNL    C15   21   0.154  -0.299  -0.228
    1UNL    C16   22   0.024  -0.246  -0.165
    1UNL    C17   23   0.116  -0.173  -0.061
    1UNL     O7   24   0.072  -0.042  -0.011
    1UNL    C18   25  -0.062  -0.031   0.014
    1UNL     O8   26  -0.117  -0.122   0.112
    1UNL    C19   27  -0.262  -0.108   0.130
    1UNL    C20   28  -0.312  -0.124   0.275
    1UNL     O9   29  -0.223  -0.206   0.350
    1UNL    C21   30  -0.118  -0.134   0.397
    1UNL    O10   31  -0.096  -0.015   0.383
    1UNL    C22   32  -0.023  -0.208   0.475
    1UNL    C23   33   0.078  -0.135   0.549
    1UNL    C24   34   0.170  -0.208   0.621
    1UNL    C25   35   0.158  -0.345   0.634
    1UNL    C26   36   0.070  -0.416   0.556
    1UNL    C27   37  -0.028  -0.353   0.475
    1UNL    C28   38  -0.320   0.016   0.054
    1UNL    O11   39  -0.312  -0.022  -0.088
    1UNL    C29   40  -0.366   0.071  -0.184
    1UNL    O12   41  -0.293   0.195  -0.182
    1UNL    C30   42  -0.307   0.278  -0.291
    1UNL    C31   43  -0.257   0.416  -0.256
    1UNL    O13   44  -0.156   0.428  -0.163
    1UNL    C32   45  -0.224   0.219  -0.409
    1UNL    O14   46  -0.099   0.278  -0.434
    1UNL    C33   47  -0.202   0.063  -0.390
    1UNL    O15   48  -0.087   0.048  -0.313
    1UNL    C34   49  -0.334   0.002  -0.326
    1UNL    O16   50  -0.443   0.015  -0.419
    1UNL    C35   51  -0.238   0.143   0.095
    1UNL    O17   52  -0.252   0.178   0.236
    1UNL    C36   53  -0.084   0.113   0.070
    1UNL    O18   54  -0.031   0.207  -0.024
    1UNL     H1   55   0.023  -0.276   0.187
    1UNL     H2   56   0.195  -0.279   0.264
    1UNL     H3   57   0.122  -0.128   0.196
    1UNL     H4   58   0.096  -0.460   0.027
    1UNL     H5   59   0.257  -0.461   0.049
    1UNL     H6   60   0.290  -0.585  -0.218
    1UNL     H7   61   0.436  -0.161  -0.100
    1UNL     H8   62   0.128   0.002  -0.287
    1UNL     H9   63   0.285  -0.063  -0.355
    1UNL    H10   64   0.131   0.425  -0.160
    1UNL    H11   65   0.227   0.607  -0.001
    1UNL    H12   66   0.395   0.660   0.151
    1UNL    H13   67   0.523   0.341   0.130
    1UNL    H14   68   0.421   0.149  -0.021
    1UNL    H15   69   0.160  -0.301  -0.338
    1UNL    H16   70  -0.024  -0.168  -0.221
    1UNL    H17   71  -0.049  -0.311  -0.118
    1UNL    H18   72  -0.125  -0.047  -0.068
    1UNL    H19   73  -0.307  -0.191   0.064
    1UNL    H20   74  -0.310  -0.029   0.323
    1UNL    H21   75  -0.411  -0.175   0.278
    1UNL    H22   76   0.074  -0.022   0.545
    1UNL    H23   77   0.252  -0.156   0.668
    1UNL    H24   78   0.237  -0.394   0.688
    1UNL    H25   79   0.058  -0.523   0.549
    1UNL    H26   80  -0.099  -0.403   0.422
    1UNL    H27   81  -0.424   0.045   0.072
    1UNL    H28   82  -0.477   0.093  -0.171
    1UNL    H29   83  -0.408   0.281  -0.315
    1UNL    H30   84  -0.336   0.478  -0.219
    1UNL    H31   85  -0.215   0.456  -0.351
    1UNL    H32   86  -0.123   0.344  -0.124
    1UNL    H33   87  -0.273   0.231  -0.502
    1UNL    H34   88  -0.020   0.251  -0.377
    1UNL    H35   89  -0.186   0.020  -0.489
    1UNL    H36   90  -0.101   0.091  -0.225
    1UNL    H37   91  -0.332  -0.100  -0.308
    1UNL    H38   92  -0.430   0.070  -0.507
    1UNL    H39   93  -0.275   0.231   0.037
    1UNL    H40   94  -0.198   0.111   0.287
    1UNL    H41   95  -0.026   0.113   0.167
    1UNL    H42   96   0.058   0.169  -0.048
   0.00000   0.00000   0.00000   0.00000   0.00000   0.00000   0.00000   0.00000   0.00000
Generated with MDTraj, t= 88.0
 96
    1UNL     C1    1   0.143  -0.229   0.199
    1UNL     C2    2   0.188  -0.264   0.057
    1UNL     C3    3   0.181  -0.414   0.003
    1UNL     C4    4   0.223  -0.414  -0.148
    1UNL     O1    5   0.203  -0.537  -0.218
    1UNL     O2    6   0.355  -0.365  -0.165
    1UNL     C5    7   0.346  -0.232  -0.112
    1UNL     O3    8   0.326  -0.230   0.033
    1UNL     C6    9   0.212  -0.171  -0.168
    1UNL     C7   10   0.218  -0.044  -0.251
    1UNL     O4   11   0.292   0.058  -0.178
    1UNL     C8   12   0.232   0.184  -0.179
    1UNL     O5   13   0.130   0.197  -0.241
    1UNL     C9   14   0.287   0.284  -0.089
    1UNL    C10   15   0.222   0.413  -0.093
    1UNL    C11   16   0.272   0.509  -0.013
    1UNL    C12   17   0.371   0.485   0.082
    1UNL     O6   18   0.407   0.571   0.181
    1UNL    C13   19   0.443   0.368   0.070
    1UNL    C14   20   0.393   0.264  -0.011
    1UNL    C15   21   0.138  -0.304  -0.223
    1UNL    C16   22   0.013  -0.249  -0.150
    1UNL    C17   23   0.110  -0.177  -0.052
    1UNL     O7   24   0.083  -0.044  -0.006
    1UNL    C18   25  -0.056  -0.028   0.019
    1UNL     O8   26  -0.103  -0.122   0.115
    1UNL    C19   27  -0.252  -0.127   0.115
    1UNL    C20   28  -0.308  -0.152   0.258
    1UNL     O9   29  -0.218  -0.216   0.346
    1UNL    C21   30  -0.131  -0.129   0.397
    1UNL    O10   31  -0.134  -0.007   0.390
    1UNL    C22   32  -0.023  -0.194   0.480
    1UNL    C23   33   0.075  -0.127   0.542
    1UNL    C24   34   0.172  -0.189   0.608
    1UNL    C25   35   0.170  -0.332   0.619
    1UNL    C26   36   0.078  -0.405   0.550
    1UNL    C27   37  -0.019  -0.333   0.479
    1UNL    C28   38  -0.309  -0.012   0.039
    1UNL    O11   39  -0.292  -0.035  -0.096
    1UNL    C29   40  -0.343   0.062  -0.184
    1UNL    O12   41  -0.277   0.185  -0.161
    1UNL    C30   42  -0.293   0.282  -0.269
    1UNL    C31   43  -0.227   0.425  -0.231
    1UNL    O13   44  -0.089   0.432  -0.223
    1UNL    C32   45  -0.225   0.221  -0.399
    1UNL    O14   46  -0.095   0.276  -0.424
    1UNL    C33   47  -0.219   0.065  -0.394
    1UNL    O15   48  -0.103   0.038  -0.322
    1UNL    C34   49  -0.353   0.011  -0.333
    1UNL    O16   50  -0.476   0.051  -0.398
    1UNL    C35   51  -0.250   0.124   0.079
    1UNL    O17   52  -0.278   0.172   0.210
    1UNL    C36   53  -0.093   0.114   0.060
    1UNL    O18   54  -0.047   0.211  -0.034
    1UNL     H1   55   0.034  -0.242   0.212
    1UNL     H2   56   0.205  -0.295   0.265
    1UNL     H3   57   0.170  -0.127   0.220
    1UNL     H4   58   0.089  -0.455   0.024
    1UNL     H5   59   0.240  -0.472   0.067
    1UNL     H6   60   0.266  -0.605  -0.202
    1UNL     H7   61   0.427  -0.174  -0.137
    1UNL     H8   62   0.111  -0.012  -0.265
    1UNL     H9   63   0.272  -0.077  -0.342
    1UNL    H10   64   0.131   0.441  -0.146
    1UNL    H11   65   0.224   0.603  -0.018
    1UNL    H12   66   0.340   0.638   0.191
    1UNL    H13   67   0.529   0.347   0.134
    1UNL    H14   68   0.449   0.173  -0.007
    1UNL    H15   69   0.118  -0.302  -0.332
    1UNL    H16   70  -0.040  -0.179  -0.214
    1UNL    H17   71  -0.051  -0.326  -0.112
    1UNL    H18   72  -0.103  -0.044  -0.076
    1UNL    H19   73  -0.286  -0.227   0.063
    1UNL    H20   74  -0.335  -0.059   0.299
    1UNL    H21   75  -0.386  -0.229   0.251
    1UNL    H22   76   0.065  -0.026   0.561
    1UNL    H23   77   0.262  -0.144   0.647
    1UNL    H24   78   0.257  -0.380   0.666
    1UNL    H25   79   0.091  -0.512   0.554
    1UNL    H26   80  -0.106  -0.391   0.434
    1UNL    H27   81  -0.415  -0.006   0.055
    1UNL    H28   82  -0.448   0.084  -0.150
    1UNL    H29   83  -0.394   0.298  -0.286
    1UNL    H30   84  -0.262   0.456  -0.132
    1UNL    H31   85  -0.249   0.509  -0.303
    1UNL    H32   86  -0.055   0.354  -0.163
    1UNL    H33   87  -0.278   0.238  -0.488
    1UNL    H34   88  -0.012   0.237  -0.372
    1UNL    H35   89  -0.208   0.015  -0.489
    1UNL    H36   90  -0.108   0.083  -0.233
    1UNL    H37   91  -0.338  -0.093  -0.326
    1UNL    H38   92  -0.451   0.048  -0.494
    1UNL    H39   93  -0.288   0.203   0.011
    1UNL    H40   94  -0.235   0.116   0.277
    1UNL    H41   95  -0.050   0.147   0.157
    1UNL    H42   96   0.050   0.186  -0.050
   0.00000   0.00000   0.00000   0.00000   0.00000   0.00000   0.00000   0.00000   0.00000
Generated with MDTraj, t= 89.0
 96
    1UNL     C1    1   0.166  -0.248   0.196
    1UNL     C2    2   0.203  -0.274   0.052
    1UNL     C3    3   0.177  -0.415  -0.001
    1UNL     C4    4   0.210  -0.407  -0.154
    1UNL     O1    5   0.185  -0.538  -0.208
    1UNL     O2    6   0.352  -0.368  -0.161
    1UNL     C5    7   0.355  -0.233  -0.110
    1UNL     O3    8   0.340  -0.237   0.036
    1UNL     C6    9   0.223  -0.164  -0.169
    1UNL     C7   10   0.245  -0.038  -0.259
    1UNL     O4   11   0.307   0.068  -0.195
    1UNL     C8   12   0.226   0.180  -0.184
    1UNL     O5   13   0.122   0.190  -0.244
    1UNL     C9   14   0.275   0.287  -0.096
    1UNL    C10   15   0.209   0.410  -0.092
    1UNL    C11   16   0.257   0.512  -0.006
    1UNL    C12   17   0.370   0.484   0.073
    1UNL     O6   18   0.419   0.579   0.170
    1UNL    C13   19   0.428   0.358   0.064
    1UNL    C14   20   0.381   0.254  -0.018
    1UNL    C15   21   0.142  -0.285  -0.231
    1UNL    C16   22   0.019  -0.233  -0.145
    1UNL    C17   23   0.124  -0.174  -0.047
    1UNL     O7   24   0.079  -0.045   0.007
    1UNL    C18   25  -0.063  -0.035   0.030
    1UNL     O8   26  -0.120  -0.143   0.112
    1UNL    C19   27  -0.271  -0.143   0.111
    1UNL    C20   28  -0.315  -0.173   0.253
    1UNL     O9   29  -0.219  -0.235   0.345
    1UNL    C21   30  -0.149  -0.144   0.415
    1UNL    O10   31  -0.165  -0.023   0.407
    1UNL    C22   32  -0.028  -0.200   0.476
    1UNL    C23   33   0.066  -0.118   0.535
    1UNL    C24   34   0.179  -0.165   0.592
    1UNL    C25   35   0.197  -0.298   0.605
    1UNL    C26   36   0.103  -0.384   0.562
    1UNL    C27   37  -0.007  -0.336   0.497
    1UNL    C28   38  -0.322  -0.012   0.046
    1UNL    O11   39  -0.313  -0.025  -0.096
    1UNL    C29   40  -0.351   0.087  -0.181
    1UNL    O12   41  -0.272   0.207  -0.181
    1UNL    C30   42  -0.283   0.289  -0.297
    1UNL    C31   43  -0.207   0.415  -0.261
    1UNL    O13   44  -0.086   0.390  -0.190
    1UNL    C32   45  -0.217   0.226  -0.422
    1UNL    O14   46  -0.083   0.275  -0.439
    1UNL    C33   47  -0.219   0.067  -0.411
    1UNL    O15   48  -0.103   0.019  -0.332
    1UNL    C34   49  -0.357   0.030  -0.335
    1UNL    O16   50  -0.460   0.098  -0.395
    1UNL    C35   51  -0.250   0.121   0.099
    1UNL    O17   52  -0.294   0.162   0.230
    1UNL    C36   53  -0.090   0.104   0.088
    1UNL    O18   54  -0.038   0.208   0.011
    1UNL     H1   55   0.054  -0.256   0.209
    1UNL     H2   56   0.218  -0.306   0.271
    1UNL     H3   57   0.186  -0.143   0.217
    1UNL     H4   58   0.085  -0.448   0.032
    1UNL     H5   59   0.237  -0.479   0.054
    1UNL     H6   60   0.253  -0.598  -0.182
    1UNL     H7   61   0.449  -0.205  -0.143
    1UNL     H8   62   0.139  -0.023  -0.295
    1UNL     H9   63   0.323  -0.071  -0.333
    1UNL    H10   64   0.112   0.419  -0.139
    1UNL    H11   65   0.208   0.609   0.010
    1UNL    H12   66   0.357   0.653   0.179
    1UNL    H13   67   0.509   0.331   0.128
    1UNL    H14   68   0.419   0.150  -0.025
    1UNL    H15   69   0.132  -0.268  -0.340
    1UNL    H16   70  -0.044  -0.161  -0.200
    1UNL    H17   71  -0.042  -0.301  -0.093
    1UNL    H18   72  -0.102  -0.039  -0.069
    1UNL    H19   73  -0.305  -0.239   0.054
    1UNL    H20   74  -0.339  -0.083   0.295
    1UNL    H21   75  -0.396  -0.244   0.242
    1UNL    H22   76   0.048  -0.009   0.515
    1UNL    H23   77   0.239  -0.085   0.635
    1UNL    H24   78   0.292  -0.326   0.644
    1UNL    H25   79   0.113  -0.492   0.576
    1UNL    H26   80  -0.081  -0.396   0.455
    1UNL    H27   81  -0.431  -0.004   0.052
    1UNL    H28   82  -0.457   0.113  -0.164
    1UNL    H29   83  -0.384   0.315  -0.308
    1UNL    H30   84  -0.257   0.499  -0.208
    1UNL    H31   85  -0.166   0.465  -0.356
    1UNL    H32   86  -0.096   0.312  -0.136
    1UNL    H33   87  -0.264   0.269  -0.507
    1UNL    H34   88  -0.028   0.242  -0.361
    1UNL    H35   89  -0.217   0.027  -0.510
    1UNL    H36   90  -0.082   0.081  -0.262
    1UNL    H37   91  -0.379  -0.075  -0.329
    1UNL    H38   92  -0.473   0.098  -0.488
    1UNL    H39   93  -0.279   0.199   0.024
    1UNL    H40   94  -0.243   0.103   0.293
    1UNL    H41   95  -0.052   0.105   0.191
    1UNL    H42   96   0.045   0.166  -0.015
   0.00000   0.00000   0.00000   0.00000   0.00000   0.00000   0.00000   0.00000   0.00000
Generated with MDTraj, t= 90.0
 96
    1UNL     C1    1   0.131  -0.253   0.188
    1UNL     C2    2   0.180  -0.262   0.047
    1UNL     C3    3   0.174  -0.412  -0.006
    1UNL     C4    4   0.221  -0.406  -0.155
    1UNL     O1    5   0.204  -0.539  -0.215
    1UNL     O2    6   0.358  -0.359  -0.158
    1UNL     C5    7   0.346  -0.222  -0.108
    1UNL     O3    8   0.319  -0.229   0.035
    1UNL     C6    9   0.214  -0.168  -0.172
    1UNL     C7   10   0.231  -0.038  -0.259
    1UNL     O4   11   0.293   0.066  -0.204
    1UNL     C8   12   0.208   0.156  -0.156
    1UNL     O5   13   0.091   0.155  -0.184
    1UNL     C9   14   0.268   0.270  -0.087
    1UNL    C10   15   0.204   0.387  -0.097
    1UNL    C11   16   0.243   0.489  -0.012
    1UNL    C12   17   0.361   0.475   0.063
    1UNL     O6   18   0.415   0.584   0.133
    1UNL    C13   19   0.434   0.349   0.063
    1UNL    C14   20   0.387   0.250  -0.016
    1UNL    C15   21   0.139  -0.292  -0.226
    1UNL    C16   22   0.011  -0.240  -0.156
    1UNL    C17   23   0.105  -0.165  -0.057
    1UNL     O7   24   0.088  -0.031  -0.001
    1UNL    C18   25  -0.044  -0.021   0.031
    1UNL     O8   26  -0.096  -0.136   0.100
    1UNL    C19   27  -0.247  -0.144   0.097
    1UNL    C20   28  -0.316  -0.179   0.226
    1UNL     O9   29  -0.220  -0.241   0.311
    1UNL    C21   30  -0.155  -0.149   0.392
    1UNL    O10   31  -0.177  -0.029   0.402
    1UNL    C22   32  -0.033  -0.197   0.464
    1UNL    C23   33   0.056  -0.099   0.502
    1UNL    C24   34   0.168  -0.135   0.576
    1UNL    C25   35   0.201  -0.263   0.596
    1UNL    C26   36   0.103  -0.360   0.558
    1UNL    C27   37  -0.008  -0.328   0.484
    1UNL    C28   38  -0.305  -0.011   0.041
    1UNL    O11   39  -0.304  -0.025  -0.101
    1UNL    C29   40  -0.335   0.090  -0.176
    1UNL    O12   41  -0.243   0.199  -0.172
    1UNL    C30   42  -0.265   0.293  -0.283
    1UNL    C31   43  -0.199   0.432  -0.240
    1UNL    O13   44  -0.071   0.411  -0.184
    1UNL    C32   45  -0.199   0.224  -0.409
    1UNL    O14   46  -0.062   0.258  -0.423
    1UNL    C33   47  -0.222   0.069  -0.388
    1UNL    O15   48  -0.115   0.008  -0.311
    1UNL    C34   49  -0.357   0.037  -0.320
    1UNL    O16   50  -0.469   0.085  -0.384
    1UNL    C35   51  -0.244   0.115   0.098
    1UNL    O17   52  -0.303   0.143   0.221
    1UNL    C36   53  -0.083   0.105   0.109
    1UNL    O18   54  -0.014   0.218   0.069
    1UNL     H1   55   0.031  -0.306   0.190
    1UNL     H2   56   0.194  -0.307   0.252
    1UNL     H3   57   0.111  -0.150   0.226
    1UNL     H4   58   0.076  -0.447   0.014
    1UNL     H5   59   0.228  -0.475   0.054
    1UNL     H6   60   0.290  -0.583  -0.228
    1UNL     H7   61   0.428  -0.160  -0.126
    1UNL     H8   62   0.128  -0.001  -0.280
    1UNL     H9   63   0.283  -0.083  -0.346
    1UNL    H10   64   0.124   0.410  -0.165
    1UNL    H11   65   0.182   0.574  -0.007
    1UNL    H12   66   0.344   0.651   0.126
    1UNL    H13   67   0.532   0.341   0.109
    1UNL    H14   68   0.432   0.155  -0.014
    1UNL    H15   69   0.116  -0.291  -0.334
    1UNL    H16   70  -0.048  -0.166  -0.212
    1UNL    H17   71  -0.050  -0.315  -0.114
    1UNL    H18   72  -0.091  -0.017  -0.066
    1UNL    H19   73  -0.276  -0.219   0.018
    1UNL    H20   74  -0.363  -0.101   0.271
    1UNL    H21   75  -0.382  -0.260   0.201
    1UNL    H22   76   0.027   0.001   0.488
    1UNL    H23   77   0.239  -0.060   0.607
    1UNL    H24   78   0.285  -0.289   0.661
    1UNL    H25   79   0.135  -0.459   0.572
    1UNL    H26   80  -0.076  -0.409   0.456
    1UNL    H27   81  -0.413  -0.006   0.066
    1UNL    H28   82  -0.426   0.138  -0.142
    1UNL    H29   83  -0.371   0.303  -0.293
    1UNL    H30   84  -0.261   0.481  -0.163
    1UNL    H31   85  -0.186   0.512  -0.321
    1UNL    H32   86  -0.079   0.348  -0.114
    1UNL    H33   87  -0.251   0.252  -0.499
    1UNL    H34   88  -0.007   0.238  -0.349
    1UNL    H35   89  -0.226   0.023  -0.485
    1UNL    H36   90  -0.074   0.079  -0.254
    1UNL    H37   91  -0.345  -0.073  -0.316
    1UNL    H38   92  -0.483   0.035  -0.466
    1UNL    H39   93  -0.263   0.204   0.033
    1UNL    H40   94  -0.264   0.091   0.295
    1UNL    H41   95  -0.065   0.093   0.216
    1UNL    H42   96   0.018   0.206  -0.022
   0.00000   0.00000   0.00000   0.00000   0.00000   0.00000   0.00000   0.00000   0.00000
Generated with MDTraj, t= 91.0
 96
    1UNL     C1    1   0.139  -0.241   0.201
    1UNL     C2    2   0.183  -0.270   0.053
    1UNL     C3    3   0.180  -0.417  -0.009
    1UNL     C4    4   0.220  -0.412  -0.155
    1UNL     O1    5   0.193  -0.537  -0.219
    1UNL     O2    6   0.357  -0.364  -0.160
    1UNL     C5    7   0.351  -0.226  -0.111
    1UNL     O3    8   0.326  -0.232   0.032
    1UNL     C6    9   0.219  -0.170  -0.172
    1UNL     C7   10   0.234  -0.036  -0.262
    1UNL     O4   11   0.305   0.060  -0.195
    1UNL     C8   12   0.216   0.165  -0.165
    1UNL     O5   13   0.097   0.152  -0.192
    1UNL     C9   14   0.273   0.282  -0.102
    1UNL    C10   15   0.213   0.403  -0.101
    1UNL    C11   16   0.264   0.497  -0.013
    1UNL    C12   17   0.377   0.480   0.059
    1UNL     O6   18   0.438   0.585   0.124
    1UNL    C13   19   0.435   0.351   0.063
    1UNL    C14   20   0.375   0.255  -0.014
    1UNL    C15   21   0.147  -0.297  -0.230
    1UNL    C16   22   0.022  -0.251  -0.145
    1UNL    C17   23   0.112  -0.168  -0.052
    1UNL     O7   24   0.068  -0.048   0.002
    1UNL    C18   25  -0.067  -0.042   0.031
    1UNL     O8   26  -0.123  -0.154   0.104
    1UNL    C19   27  -0.269  -0.158   0.103
    1UNL    C20   28  -0.317  -0.203   0.237
    1UNL     O9   29  -0.214  -0.251   0.324
    1UNL    C21   30  -0.150  -0.143   0.387
    1UNL    O10   31  -0.186  -0.028   0.383
    1UNL    C22   32  -0.025  -0.180   0.460
    1UNL    C23   33   0.060  -0.077   0.498
    1UNL    C24   34   0.175  -0.119   0.563
    1UNL    C25   35   0.203  -0.250   0.593
    1UNL    C26   36   0.118  -0.350   0.550
    1UNL    C27   37  -0.002  -0.317   0.491
    1UNL    C28   38  -0.333  -0.017   0.048
    1UNL    O11   39  -0.308  -0.025  -0.098
    1UNL    C29   40  -0.344   0.090  -0.178
    1UNL    O12   41  -0.262   0.209  -0.158
    1UNL    C30   42  -0.259   0.291  -0.269
    1UNL    C31   43  -0.211   0.427  -0.214
    1UNL    O13   44  -0.097   0.416  -0.149
    1UNL    C32   45  -0.183   0.229  -0.391
    1UNL    O14   46  -0.050   0.263  -0.392
    1UNL    C33   47  -0.208   0.078  -0.412
    1UNL    O15   48  -0.100  -0.005  -0.366
    1UNL    C34   49  -0.339   0.043  -0.332
    1UNL    O16   50  -0.444   0.114  -0.384
    1UNL    C35   51  -0.267   0.108   0.102
    1UNL    O17   52  -0.313   0.157   0.225
    1UNL    C36   53  -0.107   0.093   0.107
    1UNL    O18   54  -0.040   0.195   0.040
    1UNL     H1   55   0.029  -0.241   0.220
    1UNL     H2   56   0.189  -0.305   0.271
    1UNL     H3   57   0.170  -0.134   0.214
    1UNL     H4   58   0.087  -0.462   0.018
    1UNL     H5   59   0.250  -0.474   0.045
    1UNL     H6   60   0.275  -0.592  -0.212
    1UNL     H7   61   0.436  -0.170  -0.131
    1UNL     H8   62   0.130  -0.015  -0.296
    1UNL     H9   63   0.294  -0.058  -0.351
    1UNL    H10   64   0.118   0.414  -0.159
    1UNL    H11   65   0.214   0.598  -0.008
    1UNL    H12   66   0.396   0.672   0.099
    1UNL    H13   67   0.518   0.328   0.127
    1UNL    H14   68   0.408   0.150  -0.018
    1UNL    H15   69   0.139  -0.307  -0.340
    1UNL    H16   70  -0.037  -0.183  -0.202
    1UNL    H17   71  -0.042  -0.328  -0.103
    1UNL    H18   72  -0.117  -0.049  -0.062
    1UNL    H19   73  -0.289  -0.228   0.022
    1UNL    H20   74  -0.370  -0.135   0.293
    1UNL    H21   75  -0.381  -0.291   0.220
    1UNL    H22   76   0.027   0.027   0.487
    1UNL    H23   77   0.230  -0.036   0.612
    1UNL    H24   78   0.299  -0.284   0.628
    1UNL    H25   79   0.133  -0.455   0.585
    1UNL    H26   80  -0.067  -0.400   0.458
    1UNL    H27   81  -0.439  -0.012   0.085
    1UNL    H28   82  -0.445   0.117  -0.154
    1UNL    H29   83  -0.362   0.302  -0.306
    1UNL    H30   84  -0.283   0.465  -0.144
    1UNL    H31   85  -0.201   0.497  -0.301
    1UNL    H32   86  -0.096   0.340  -0.091
    1UNL    H33   87  -0.231   0.271  -0.481
    1UNL    H34   88   0.007   0.212  -0.324
    1UNL    H35   89  -0.231   0.062  -0.517
    1UNL    H36   90  -0.059   0.048  -0.295
    1UNL    H37   91  -0.351  -0.070  -0.323
    1UNL    H38   92  -0.477   0.086  -0.477
    1UNL    H39   93  -0.283   0.198   0.036
    1UNL    H40   94  -0.279   0.092   0.293
    1UNL    H41   95  -0.069   0.084   0.208
    1UNL    H42   96   0.005   0.165  -0.046
   0.00000   0.00000   0.00000   0.00000   0.00000   0.00000   0.00000   0.00000   0.00000
Generated with MDTraj, t= 92.0
 96
    1UNL     C1    1   0.137  -0.247   0.190
    1UNL     C2    2   0.192  -0.270   0.050
    1UNL     C3    3   0.173  -0.421  -0.007
    1UNL     C4    4   0.215  -0.415  -0.148
    1UNL     O1    5   0.195  -0.543  -0.210
    1UNL     O2    6   0.357  -0.375  -0.145
    1UNL     C5    7   0.358  -0.239  -0.098
    1UNL     O3    8   0.332  -0.241   0.041
    1UNL     C6    9   0.224  -0.180  -0.162
    1UNL     C7   10   0.235  -0.051  -0.249
    1UNL     O4   11   0.310   0.053  -0.195
    1UNL     C8   12   0.226   0.161  -0.167
    1UNL     O5   13   0.104   0.168  -0.197
    1UNL     C9   14   0.282   0.269  -0.083
    1UNL    C10   15   0.226   0.397  -0.089
    1UNL    C11   16   0.277   0.502  -0.023
    1UNL    C12   17   0.399   0.481   0.053
    1UNL     O6   18   0.445   0.595   0.115
    1UNL    C13   19   0.455   0.353   0.050
    1UNL    C14   20   0.398   0.243  -0.009
    1UNL    C15   21   0.146  -0.300  -0.221
    1UNL    C16   22   0.021  -0.247  -0.160
    1UNL    C17   23   0.114  -0.175  -0.052
    1UNL     O7   24   0.067  -0.056   0.000
    1UNL    C18   25  -0.070  -0.051   0.021
    1UNL     O8   26  -0.123  -0.162   0.086
    1UNL    C19   27  -0.271  -0.159   0.095
    1UNL    C20   28  -0.319  -0.179   0.236
    1UNL     O9   29  -0.222  -0.234   0.326
    1UNL    C21   30  -0.149  -0.136   0.395
    1UNL    O10   31  -0.180  -0.020   0.402
    1UNL    C22   32  -0.024  -0.182   0.473
    1UNL    C23   33   0.064  -0.082   0.503
    1UNL    C24   34   0.188  -0.107   0.562
    1UNL    C25   35   0.215  -0.241   0.589
    1UNL    C26   36   0.133  -0.344   0.557
    1UNL    C27   37   0.011  -0.315   0.499
    1UNL    C28   38  -0.336  -0.034   0.023
    1UNL    O11   39  -0.308  -0.048  -0.126
    1UNL    C29   40  -0.343   0.069  -0.194
    1UNL    O12   41  -0.261   0.181  -0.163
    1UNL    C30   42  -0.274   0.297  -0.246
    1UNL    C31   43  -0.216   0.432  -0.182
    1UNL    O13   44  -0.089   0.417  -0.134
    1UNL    C32   45  -0.216   0.255  -0.386
    1UNL    O14   46  -0.091   0.311  -0.409
    1UNL    C33   47  -0.205   0.101  -0.403
    1UNL    O15   48  -0.092   0.048  -0.340
    1UNL    C34   49  -0.340   0.042  -0.350
    1UNL    O16   50  -0.461   0.101  -0.407
    1UNL    C35   51  -0.282   0.096   0.085
    1UNL    O17   52  -0.342   0.138   0.206
    1UNL    C36   53  -0.122   0.078   0.097
    1UNL    O18   54  -0.057   0.195   0.045
    1UNL     H1   55   0.029  -0.259   0.195
    1UNL     H2   56   0.188  -0.307   0.268
    1UNL     H3   57   0.153  -0.137   0.200
    1UNL     H4   58   0.072  -0.455   0.008
    1UNL     H5   59   0.234  -0.483   0.060
    1UNL     H6   60   0.274  -0.596  -0.175
    1UNL     H7   61   0.452  -0.199  -0.118
    1UNL     H8   62   0.137  -0.015  -0.282
    1UNL     H9   63   0.279  -0.098  -0.336
    1UNL    H10   64   0.137   0.415  -0.140
    1UNL    H11   65   0.240   0.598  -0.037
    1UNL    H12   66   0.381   0.673   0.104
    1UNL    H13   67   0.547   0.336   0.104
    1UNL    H14   68   0.448   0.149  -0.004
    1UNL    H15   69   0.151  -0.312  -0.330
    1UNL    H16   70  -0.028  -0.175  -0.222
    1UNL    H17   71  -0.039  -0.329  -0.116
    1UNL    H18   72  -0.115  -0.056  -0.074
    1UNL    H19   73  -0.293  -0.238   0.026
    1UNL    H20   74  -0.358  -0.096   0.286
    1UNL    H21   75  -0.403  -0.254   0.246
    1UNL    H22   76   0.032   0.020   0.483
    1UNL    H23   77   0.254  -0.029   0.587
    1UNL    H24   78   0.310  -0.260   0.635
    1UNL    H25   79   0.166  -0.442   0.552
    1UNL    H26   80  -0.059  -0.390   0.479
    1UNL    H27   81  -0.447  -0.025   0.040
    1UNL    H28   82  -0.444   0.096  -0.179
    1UNL    H29   83  -0.385   0.319  -0.261
    1UNL    H30   84  -0.283   0.441  -0.099
    1UNL    H31   85  -0.221   0.521  -0.247
    1UNL    H32   86  -0.099   0.336  -0.070
    1UNL    H33   87  -0.282   0.299  -0.466
    1UNL    H34   88  -0.032   0.280  -0.339
    1UNL    H35   89  -0.190   0.095  -0.512
    1UNL    H36   90  -0.102   0.082  -0.250
    1UNL    H37   91  -0.327  -0.072  -0.361
    1UNL    H38   92  -0.469   0.064  -0.503
    1UNL    H39   93  -0.311   0.177   0.014
    1UNL    H40   94  -0.297   0.092   0.279
    1UNL    H41   95  -0.101   0.079   0.203
    1UNL    H42   96  -0.001   0.158  -0.026
   0.00000   0.00000   0.00000   0.00000   0.00000   0.00000   0.00000   0.00000   0.00000
Generated with MDTraj, t= 93.0
 96
    1UNL     C1    1   0.106  -0.260   0.200
    1UNL     C2    2   0.166  -0.275   0.061
    1UNL     C3    3   0.164  -0.424   0.008
    1UNL     C4    4   0.213  -0.420  -0.138
    1UNL     O1    5   0.216  -0.553  -0.203
    1UNL     O2    6   0.354  -0.364  -0.137
    1UNL     C5    7   0.340  -0.230  -0.093
    1UNL     O3    8   0.306  -0.233   0.047
    1UNL     C6    9   0.207  -0.181  -0.168
    1UNL     C7   10   0.230  -0.048  -0.252
    1UNL     O4   11   0.294   0.056  -0.175
    1UNL     C8   12   0.218   0.168  -0.159
    1UNL     O5   13   0.099   0.172  -0.203
    1UNL     C9   14   0.284   0.274  -0.080
    1UNL    C10   15   0.221   0.400  -0.073
    1UNL    C11   16   0.291   0.505  -0.021
    1UNL    C12   17   0.413   0.486   0.040
    1UNL     O6   18   0.466   0.588   0.117
    1UNL    C13   19   0.476   0.364   0.030
    1UNL    C14   20   0.411   0.258  -0.029
    1UNL    C15   21   0.140  -0.309  -0.224
    1UNL    C16   22   0.012  -0.251  -0.159
    1UNL    C17   23   0.101  -0.181  -0.058
    1UNL     O7   24   0.066  -0.055  -0.009
    1UNL    C18   25  -0.066  -0.052   0.015
    1UNL     O8   26  -0.117  -0.169   0.072
    1UNL    C19   27  -0.262  -0.169   0.076
    1UNL    C20   28  -0.303  -0.208   0.217
    1UNL     O9   29  -0.196  -0.231   0.311
    1UNL    C21   30  -0.147  -0.123   0.384
    1UNL    O10   31  -0.179  -0.008   0.391
    1UNL    C22   32  -0.023  -0.167   0.456
    1UNL    C23   33   0.072  -0.075   0.494
    1UNL    C24   34   0.187  -0.106   0.562
    1UNL    C25   35   0.202  -0.242   0.589
    1UNL    C26   36   0.109  -0.337   0.553
    1UNL    C27   37  -0.004  -0.296   0.489
    1UNL    C28   38  -0.327  -0.035   0.024
    1UNL    O11   39  -0.306  -0.047  -0.120
    1UNL    C29   40  -0.342   0.065  -0.193
    1UNL    O12   41  -0.268   0.184  -0.153
    1UNL    C30   42  -0.286   0.292  -0.246
    1UNL    C31   43  -0.235   0.427  -0.178
    1UNL    O13   44  -0.106   0.411  -0.133
    1UNL    C32   45  -0.219   0.265  -0.386
    1UNL    O14   46  -0.098   0.332  -0.389
    1UNL    C33   47  -0.202   0.112  -0.404
    1UNL    O15   48  -0.085   0.066  -0.343
    1UNL    C34   49  -0.329   0.031  -0.347
    1UNL    O16   50  -0.454   0.067  -0.412
    1UNL    C35   51  -0.259   0.090   0.092
    1UNL    O17   52  -0.321   0.131   0.216
    1UNL    C36   53  -0.103   0.066   0.103
    1UNL    O18   54  -0.035   0.188   0.063
    1UNL     H1   55   0.009  -0.306   0.198
    1UNL     H2   56   0.171  -0.319   0.273
    1UNL     H3   57   0.089  -0.153   0.220
    1UNL     H4   58   0.062  -0.463   0.016
    1UNL     H5   59   0.231  -0.487   0.074
    1UNL     H6   60   0.293  -0.600  -0.157
    1UNL     H7   61   0.426  -0.174  -0.114
    1UNL     H8   62   0.132  -0.024  -0.287
    1UNL     H9   63   0.280  -0.074  -0.343
    1UNL    H10   64   0.121   0.394  -0.124
    1UNL    H11   65   0.237   0.601  -0.006
    1UNL    H12   66   0.397   0.655   0.148
    1UNL    H13   67   0.571   0.360   0.080
    1UNL    H14   68   0.448   0.156  -0.027
    1UNL    H15   69   0.158  -0.318  -0.333
    1UNL    H16   70  -0.033  -0.179  -0.225
    1UNL    H17   71  -0.048  -0.343  -0.133
    1UNL    H18   72  -0.118  -0.042  -0.077
    1UNL    H19   73  -0.301  -0.246   0.019
    1UNL    H20   74  -0.351  -0.129   0.267
    1UNL    H21   75  -0.379  -0.293   0.236
    1UNL    H22   76   0.062   0.026   0.465
    1UNL    H23   77   0.261  -0.030   0.597
    1UNL    H24   78   0.291  -0.268   0.647
    1UNL    H25   79   0.136  -0.449   0.559
    1UNL    H26   80  -0.066  -0.375   0.438
    1UNL    H27   81  -0.437  -0.034   0.046
    1UNL    H28   82  -0.444   0.084  -0.181
    1UNL    H29   83  -0.398   0.304  -0.275
    1UNL    H30   84  -0.304   0.462  -0.105
    1UNL    H31   85  -0.241   0.495  -0.263
    1UNL    H32   86  -0.097   0.339  -0.068
    1UNL    H33   87  -0.289   0.304  -0.468
    1UNL    H34   88  -0.042   0.300  -0.320
    1UNL    H35   89  -0.195   0.081  -0.512
    1UNL    H36   90  -0.068   0.117  -0.257
    1UNL    H37   91  -0.308  -0.083  -0.330
    1UNL    H38   92  -0.461   0.021  -0.499
    1UNL    H39   93  -0.276   0.176   0.023
    1UNL    H40   94  -0.267   0.094   0.290
    1UNL    H41   95  -0.070   0.049   0.204
    1UNL    H42   96   0.017   0.179  -0.018
   0.00000   0.00000   0.00000   0.00000   0.00000   0.00000   0.00000   0.00000   0.00000
Generated with MDTraj, t= 94.0
 96
    1UNL     C1    1   0.120  -0.260   0.196
    1UNL     C2    2   0.170  -0.276   0.052
    1UNL     C3    3   0.179  -0.426  -0.001
    1UNL     C4    4   0.228  -0.415  -0.154
    1UNL     O1    5   0.215  -0.542  -0.216
    1UNL     O2    6   0.367  -0.371  -0.135
    1UNL     C5    7   0.351  -0.235  -0.091
    1UNL     O3    8   0.307  -0.241   0.050
    1UNL     C6    9   0.220  -0.171  -0.164
    1UNL     C7   10   0.245  -0.043  -0.248
    1UNL     O4   11   0.300   0.063  -0.181
    1UNL     C8   12   0.214   0.169  -0.161
    1UNL     O5   13   0.094   0.177  -0.194
    1UNL     C9   14   0.272   0.283  -0.091
    1UNL    C10   15   0.211   0.403  -0.055
    1UNL    C11   16   0.281   0.501   0.009
    1UNL    C12   17   0.421   0.490   0.044
    1UNL     O6   18   0.497   0.589   0.105
    1UNL    C13   19   0.483   0.365   0.011
    1UNL    C14   20   0.410   0.273  -0.059
    1UNL    C15   21   0.154  -0.294  -0.234
    1UNL    C16   22   0.018  -0.251  -0.162
    1UNL    C17   23   0.107  -0.177  -0.058
    1UNL     O7   24   0.057  -0.046  -0.009
    1UNL    C18   25  -0.084  -0.046   0.015
    1UNL     O8   26  -0.142  -0.167   0.075
    1UNL    C19   27  -0.290  -0.157   0.094
    1UNL    C20   28  -0.325  -0.190   0.239
    1UNL     O9   29  -0.221  -0.242   0.321
    1UNL    C21   30  -0.145  -0.144   0.387
    1UNL    O10   31  -0.168  -0.027   0.394
    1UNL    C22   32  -0.025  -0.190   0.464
    1UNL    C23   33   0.071  -0.086   0.491
    1UNL    C24   34   0.185  -0.112   0.561
    1UNL    C25   35   0.217  -0.236   0.607
    1UNL    C26   36   0.131  -0.342   0.586
    1UNL    C27   37   0.008  -0.320   0.513
    1UNL    C28   38  -0.353  -0.031   0.033
    1UNL    O11   39  -0.334  -0.039  -0.111
    1UNL    C29   40  -0.352   0.075  -0.191
    1UNL    O12   41  -0.261   0.183  -0.160
    1UNL    C30   42  -0.272   0.287  -0.261
    1UNL    C31   43  -0.232   0.423  -0.197
    1UNL    O13   44  -0.121   0.418  -0.112
    1UNL    C32   45  -0.193   0.261  -0.392
    1UNL    O14   46  -0.061   0.319  -0.375
    1UNL    C33   47  -0.200   0.102  -0.418
    1UNL    O15   48  -0.085   0.024  -0.373
    1UNL    C34   49  -0.333   0.037  -0.345
    1UNL    O16   50  -0.456   0.072  -0.412
    1UNL    C35   51  -0.284   0.100   0.085
    1UNL    O17   52  -0.325   0.144   0.217
    1UNL    C36   53  -0.130   0.076   0.095
    1UNL    O18   54  -0.054   0.193   0.047
    1UNL     H1   55   0.013  -0.271   0.216
    1UNL     H2   56   0.178  -0.323   0.271
    1UNL     H3   57   0.137  -0.154   0.208
    1UNL     H4   58   0.073  -0.468   0.016
    1UNL     H5   59   0.255  -0.480   0.064
    1UNL     H6   60   0.296  -0.599  -0.193
    1UNL     H7   61   0.434  -0.174  -0.102
    1UNL     H8   62   0.153  -0.022  -0.301
    1UNL     H9   63   0.312  -0.077  -0.327
    1UNL    H10   64   0.108   0.419  -0.065
    1UNL    H11   65   0.229   0.592   0.030
    1UNL    H12   66   0.447   0.670   0.131
    1UNL    H13   67   0.585   0.348   0.045
    1UNL    H14   68   0.464   0.182  -0.081
    1UNL    H15   69   0.164  -0.305  -0.344
    1UNL    H16   70  -0.053  -0.189  -0.218
    1UNL    H17   71  -0.022  -0.342  -0.111
    1UNL    H18   72  -0.127  -0.041  -0.082
    1UNL    H19   73  -0.330  -0.234   0.038
    1UNL    H20   74  -0.366  -0.106   0.294
    1UNL    H21   75  -0.411  -0.267   0.248
    1UNL    H22   76   0.034   0.015   0.463
    1UNL    H23   77   0.243  -0.028   0.586
    1UNL    H24   78   0.302  -0.254   0.668
    1UNL    H25   79   0.152  -0.436   0.620
    1UNL    H26   80  -0.049  -0.397   0.474
    1UNL    H27   81  -0.465  -0.020   0.034
    1UNL    H28   82  -0.448   0.115  -0.188
    1UNL    H29   83  -0.387   0.289  -0.285
    1UNL    H30   84  -0.322   0.447  -0.140
    1UNL    H31   85  -0.214   0.506  -0.270
    1UNL    H32   86  -0.128   0.341  -0.048
    1UNL    H33   87  -0.243   0.328  -0.471
    1UNL    H34   88  -0.000   0.255  -0.324
    1UNL    H35   89  -0.210   0.078  -0.528
    1UNL    H36   90  -0.033   0.071  -0.305
    1UNL    H37   91  -0.319  -0.078  -0.329
    1UNL    H38   92  -0.458   0.021  -0.491
    1UNL    H39   93  -0.308   0.181   0.015
    1UNL    H40   94  -0.285   0.085   0.283
    1UNL    H41   95  -0.093   0.053   0.194
    1UNL    H42   96   0.013   0.168  -0.017
   0.00000   0.00000   0.00000   0.00000   0.00000   0.00000   0.00000   0.00000   0.00000
Generated with MDTraj, t= 95.0
 96
    1UNL     C1    1   0.106  -0.248   0.180
    1UNL     C2    2   0.171  -0.268   0.051
    1UNL     C3    3   0.173  -0.420  -0.011
    1UNL     C4    4   0.233  -0.408  -0.161
    1UNL     O1    5   0.216  -0.528  -0.238
    1UNL     O2    6   0.366  -0.341  -0.147
    1UNL     C5    7   0.340  -0.210  -0.088
    1UNL     O3    8   0.306  -0.224   0.050
    1UNL     C6    9   0.212  -0.165  -0.163
    1UNL     C7   10   0.238  -0.049  -0.259
    1UNL     O4   11   0.305   0.055  -0.198
    1UNL     C8   12   0.228   0.158  -0.151
    1UNL     O5   13   0.104   0.165  -0.161
    1UNL     C9   14   0.295   0.269  -0.093
    1UNL    C10   15   0.223   0.374  -0.044
    1UNL    C11   16   0.273   0.483   0.027
    1UNL    C12   17   0.411   0.488   0.038
    1UNL     O6   18   0.467   0.599   0.088
    1UNL    C13   19   0.491   0.383  -0.007
    1UNL    C14   20   0.437   0.278  -0.074
    1UNL    C15   21   0.150  -0.296  -0.229
    1UNL    C16   22   0.013  -0.240  -0.167
    1UNL    C17   23   0.097  -0.170  -0.059
    1UNL     O7   24   0.057  -0.043   0.001
    1UNL    C18   25  -0.079  -0.042   0.028
    1UNL     O8   26  -0.126  -0.158   0.096
    1UNL    C19   27  -0.273  -0.165   0.093
    1UNL    C20   28  -0.321  -0.198   0.236
    1UNL     O9   29  -0.212  -0.232   0.322
    1UNL    C21   30  -0.146  -0.129   0.380
    1UNL    O10   31  -0.177  -0.012   0.386
    1UNL    C22   32  -0.031  -0.178   0.468
    1UNL    C23   33   0.069  -0.085   0.494
    1UNL    C24   34   0.180  -0.130   0.559
    1UNL    C25   35   0.202  -0.260   0.608
    1UNL    C26   36   0.095  -0.352   0.579
    1UNL    C27   37  -0.015  -0.313   0.506
    1UNL    C28   38  -0.326  -0.037   0.027
    1UNL    O11   39  -0.297  -0.046  -0.111
    1UNL    C29   40  -0.350   0.063  -0.186
    1UNL    O12   41  -0.276   0.190  -0.156
    1UNL    C30   42  -0.272   0.292  -0.259
    1UNL    C31   43  -0.229   0.428  -0.201
    1UNL    O13   44  -0.097   0.424  -0.157
    1UNL    C32   45  -0.186   0.239  -0.377
    1UNL    O14   46  -0.049   0.290  -0.373
    1UNL    C33   47  -0.204   0.082  -0.387
    1UNL    O15   48  -0.099   0.007  -0.339
    1UNL    C34   49  -0.344   0.032  -0.338
    1UNL    O16   50  -0.453   0.091  -0.404
    1UNL    C35   51  -0.275   0.087   0.096
    1UNL    O17   52  -0.340   0.130   0.220
    1UNL    C36   53  -0.121   0.081   0.108
    1UNL    O18   54  -0.064   0.202   0.043
    1UNL     H1   55   0.002  -0.287   0.180
    1UNL     H2   56   0.152  -0.323   0.248
    1UNL     H3   57   0.102  -0.146   0.215
    1UNL     H4   58   0.062  -0.456  -0.018
    1UNL     H5   59   0.239  -0.492   0.048
    1UNL     H6   60   0.292  -0.590  -0.217
    1UNL     H7   61   0.422  -0.148  -0.106
    1UNL     H8   62   0.140  -0.016  -0.293
    1UNL     H9   63   0.288  -0.079  -0.353
    1UNL    H10   64   0.117   0.362  -0.071
    1UNL    H11   65   0.215   0.564   0.065
    1UNL    H12   66   0.405   0.673   0.077
    1UNL    H13   67   0.596   0.387   0.011
    1UNL    H14   68   0.497   0.199  -0.122
    1UNL    H15   69   0.143  -0.302  -0.339
    1UNL    H16   70  -0.051  -0.169  -0.225
    1UNL    H17   71  -0.058  -0.313  -0.126
    1UNL    H18   72  -0.118  -0.026  -0.069
    1UNL    H19   73  -0.297  -0.248   0.036
    1UNL    H20   74  -0.385  -0.114   0.272
    1UNL    H21   75  -0.386  -0.291   0.230
    1UNL    H22   76   0.059   0.018   0.481
    1UNL    H23   77   0.251  -0.061   0.607
    1UNL    H24   78   0.287  -0.286   0.672
    1UNL    H25   79   0.112  -0.455   0.615
    1UNL    H26   80  -0.095  -0.387   0.479
    1UNL    H27   81  -0.435  -0.038   0.041
    1UNL    H28   82  -0.451   0.089  -0.176
    1UNL    H29   83  -0.383   0.292  -0.290
    1UNL    H30   84  -0.290   0.475  -0.120
    1UNL    H31   85  -0.226   0.499  -0.288
    1UNL    H32   86  -0.099   0.337  -0.102
    1UNL    H33   87  -0.223   0.291  -0.471
    1UNL    H34   88  -0.001   0.264  -0.292
    1UNL    H35   89  -0.201   0.052  -0.497
    1UNL    H36   90  -0.058   0.040  -0.259
    1UNL    H37   91  -0.359  -0.083  -0.339
    1UNL    H38   92  -0.456   0.059  -0.493
    1UNL    H39   93  -0.301   0.176   0.036
    1UNL    H40   94  -0.296   0.082   0.292
    1UNL    H41   95  -0.090   0.082   0.213
    1UNL    H42   96   0.020   0.167  -0.003
   0.00000   0.00000   0.00000   0.00000   0.00000   0.00000   0.00000   0.00000   0.00000
Generated with MDTraj, t= 96.0
 96
    1UNL     C1    1   0.131  -0.246   0.192
    1UNL     C2    2   0.184  -0.265   0.046
    1UNL     C3    3   0.175  -0.403  -0.012
    1UNL     C4    4   0.219  -0.396  -0.161
    1UNL     O1    5   0.198  -0.521  -0.216
    1UNL     O2    6   0.356  -0.360  -0.157
    1UNL     C5    7   0.356  -0.229  -0.104
    1UNL     O3    8   0.323  -0.228   0.036
    1UNL     C6    9   0.233  -0.159  -0.171
    1UNL     C7   10   0.249  -0.039  -0.262
    1UNL     O4   11   0.308   0.066  -0.197
    1UNL     C8   12   0.223   0.167  -0.168
    1UNL     O5   13   0.100   0.179  -0.186
    1UNL     C9   14   0.293   0.285  -0.099
    1UNL    C10   15   0.215   0.392  -0.048
    1UNL    C11   16   0.268   0.496   0.019
    1UNL    C12   17   0.405   0.499   0.032
    1UNL     O6   18   0.476   0.602   0.093
    1UNL    C13   19   0.488   0.389  -0.014
    1UNL    C14   20   0.432   0.288  -0.083
    1UNL    C15   21   0.148  -0.285  -0.232
    1UNL    C16   22   0.023  -0.234  -0.161
    1UNL    C17   23   0.115  -0.165  -0.055
    1UNL     O7   24   0.063  -0.039  -0.003
    1UNL    C18   25  -0.073  -0.047   0.038
    1UNL     O8   26  -0.130  -0.166   0.096
    1UNL    C19   27  -0.278  -0.165   0.101
    1UNL    C20   28  -0.327  -0.191   0.245
    1UNL     O9   29  -0.221  -0.235   0.326
    1UNL    C21   30  -0.151  -0.139   0.391
    1UNL    O10   31  -0.176  -0.021   0.386
    1UNL    C22   32  -0.044  -0.189   0.471
    1UNL    C23   33   0.060  -0.104   0.507
    1UNL    C24   34   0.180  -0.147   0.568
    1UNL    C25   35   0.183  -0.277   0.606
    1UNL    C26   36   0.081  -0.364   0.576
    1UNL    C27   37  -0.028  -0.326   0.507
    1UNL    C28   38  -0.342  -0.026   0.043
    1UNL    O11   39  -0.326  -0.044  -0.098
    1UNL    C29   40  -0.352   0.067  -0.188
    1UNL    O12   41  -0.279   0.188  -0.153
    1UNL    C30   42  -0.270   0.277  -0.270
    1UNL    C31   43  -0.208   0.404  -0.220
    1UNL    O13   44  -0.109   0.394  -0.119
    1UNL    C32   45  -0.195   0.224  -0.396
    1UNL    O14   46  -0.058   0.263  -0.417
    1UNL    C33   47  -0.193   0.072  -0.392
    1UNL    O15   48  -0.099   0.031  -0.297
    1UNL    C34   49  -0.338   0.030  -0.346
    1UNL    O16   50  -0.436   0.099  -0.411
    1UNL    C35   51  -0.274   0.100   0.095
    1UNL    O17   52  -0.329   0.151   0.222
    1UNL    C36   53  -0.116   0.083   0.114
    1UNL    O18   54  -0.043   0.198   0.059
    1UNL     H1   55   0.019  -0.263   0.202
    1UNL     H2   56   0.168  -0.325   0.256
    1UNL     H3   57   0.148  -0.145   0.229
    1UNL     H4   58   0.067  -0.444   0.006
    1UNL     H5   59   0.265  -0.459   0.038
    1UNL     H6   60   0.275  -0.580  -0.205
    1UNL     H7   61   0.448  -0.186  -0.126
    1UNL     H8   62   0.148  -0.007  -0.292
    1UNL     H9   63   0.293  -0.058  -0.365
    1UNL    H10   64   0.109   0.393  -0.070
    1UNL    H11   65   0.205   0.578   0.063
    1UNL    H12   66   0.419   0.679   0.098
    1UNL    H13   67   0.596   0.400   0.004
    1UNL    H14   68   0.501   0.212  -0.116
    1UNL    H15   69   0.154  -0.289  -0.342
    1UNL    H16   70  -0.043  -0.162  -0.219
    1UNL    H17   71  -0.042  -0.311  -0.119
    1UNL    H18   72  -0.116  -0.046  -0.061
    1UNL    H19   73  -0.303  -0.240   0.030
    1UNL    H20   74  -0.386  -0.096   0.279
    1UNL    H21   75  -0.399  -0.273   0.226
    1UNL    H22   76   0.051   0.001   0.469
    1UNL    H23   77   0.244  -0.070   0.600
    1UNL    H24   78   0.267  -0.309   0.666
    1UNL    H25   79   0.096  -0.472   0.595
    1UNL    H26   80  -0.096  -0.384   0.452
    1UNL    H27   81  -0.448  -0.017   0.061
    1UNL    H28   82  -0.449   0.106  -0.173
    1UNL    H29   83  -0.381   0.275  -0.294
    1UNL    H30   84  -0.296   0.455  -0.168
    1UNL    H31   85  -0.165   0.462  -0.307
    1UNL    H32   86  -0.138   0.322  -0.062
    1UNL    H33   87  -0.237   0.270  -0.488
    1UNL    H34   88  -0.004   0.225  -0.346
    1UNL    H35   89  -0.165   0.023  -0.490
    1UNL    H36   90  -0.109   0.097  -0.219
    1UNL    H37   91  -0.356  -0.081  -0.355
    1UNL    H38   92  -0.424   0.084  -0.509
    1UNL    H39   93  -0.301   0.184   0.030
    1UNL    H40   94  -0.283   0.104   0.296
    1UNL    H41   95  -0.089   0.063   0.219
    1UNL    H42   96   0.015   0.185  -0.025
   0.00000   0.00000   0.00000   0.00000   0.00000   0.00000   0.00000   0.00000   0.00000
Generated with MDTraj, t= 97.0
 96
    1UNL     C1    1   0.145  -0.252   0.206
    1UNL     C2    2   0.191  -0.264   0.053
    1UNL     C3    3   0.179  -0.412   0.002
    1UNL     C4    4   0.213  -0.413  -0.147
    1UNL     O1    5   0.206  -0.539  -0.208
    1UNL     O2    6   0.347  -0.358  -0.161
    1UNL     C5    7   0.343  -0.225  -0.116
    1UNL     O3    8   0.333  -0.225   0.027
    1UNL     C6    9   0.211  -0.160  -0.175
    1UNL     C7   10   0.228  -0.034  -0.257
    1UNL     O4   11   0.289   0.069  -0.182
    1UNL     C8   12   0.212   0.181  -0.167
    1UNL     O5   13   0.094   0.192  -0.196
    1UNL     C9   14   0.276   0.301  -0.102
    1UNL    C10   15   0.208   0.418  -0.071
    1UNL    C11   16   0.276   0.522  -0.010
    1UNL    C12   17   0.412   0.515   0.030
    1UNL     O6   18   0.476   0.605   0.108
    1UNL    C13   19   0.482   0.409  -0.012
    1UNL    C14   20   0.416   0.300  -0.075
    1UNL    C15   21   0.135  -0.300  -0.220
    1UNL    C16   22   0.011  -0.249  -0.147
    1UNL    C17   23   0.112  -0.168  -0.048
    1UNL     O7   24   0.064  -0.042  -0.012
    1UNL    C18   25  -0.071  -0.037   0.027
    1UNL     O8   26  -0.125  -0.148   0.087
    1UNL    C19   27  -0.272  -0.145   0.096
    1UNL    C20   28  -0.328  -0.171   0.238
    1UNL     O9   29  -0.237  -0.237   0.327
    1UNL    C21   30  -0.155  -0.156   0.398
    1UNL    O10   31  -0.172  -0.033   0.402
    1UNL    C22   32  -0.046  -0.215   0.474
    1UNL    C23   33   0.048  -0.126   0.512
    1UNL    C24   34   0.161  -0.157   0.583
    1UNL    C25   35   0.179  -0.292   0.615
    1UNL    C26   36   0.083  -0.389   0.578
    1UNL    C27   37  -0.024  -0.346   0.503
    1UNL    C28   38  -0.326  -0.010   0.034
    1UNL    O11   39  -0.325  -0.041  -0.105
    1UNL    C29   40  -0.348   0.072  -0.185
    1UNL    O12   41  -0.270   0.190  -0.152
    1UNL    C30   42  -0.270   0.284  -0.259
    1UNL    C31   43  -0.205   0.419  -0.220
    1UNL    O13   44  -0.076   0.409  -0.167
    1UNL    C32   45  -0.191   0.228  -0.382
    1UNL    O14   46  -0.058   0.267  -0.402
    1UNL    C33   47  -0.200   0.074  -0.381
    1UNL    O15   48  -0.088   0.011  -0.326
    1UNL    C34   49  -0.336   0.022  -0.332
    1UNL    O16   50  -0.444   0.056  -0.406
    1UNL    C35   51  -0.257   0.112   0.096
    1UNL    O17   52  -0.319   0.149   0.222
    1UNL    C36   53  -0.099   0.086   0.109
    1UNL    O18   54  -0.032   0.198   0.046
    1UNL     H1   55   0.052  -0.309   0.232
    1UNL     H2   56   0.216  -0.303   0.265
    1UNL     H3   57   0.131  -0.144   0.228
    1UNL     H4   58   0.073  -0.451   0.019
    1UNL     H5   59   0.266  -0.468   0.057
    1UNL     H6   60   0.292  -0.577  -0.217
    1UNL     H7   61   0.422  -0.166  -0.152
    1UNL     H8   62   0.136   0.011  -0.295
    1UNL     H9   63   0.283  -0.043  -0.355
    1UNL    H10   64   0.106   0.424  -0.096
    1UNL    H11   65   0.229   0.612   0.007
    1UNL    H12   66   0.414   0.666   0.147
    1UNL    H13   67   0.583   0.401   0.017
    1UNL    H14   68   0.464   0.210  -0.111
    1UNL    H15   69   0.112  -0.304  -0.328
    1UNL    H16   70  -0.061  -0.186  -0.209
    1UNL    H17   71  -0.051  -0.327  -0.102
    1UNL    H18   72  -0.114  -0.034  -0.070
    1UNL    H19   73  -0.293  -0.227   0.027
    1UNL    H20   74  -0.361  -0.066   0.274
    1UNL    H21   75  -0.418  -0.229   0.224
    1UNL    H22   76   0.032  -0.025   0.497
    1UNL    H23   77   0.245  -0.088   0.605
    1UNL    H24   78   0.256  -0.326   0.682
    1UNL    H25   79   0.111  -0.489   0.584
    1UNL    H26   80  -0.074  -0.426   0.449
    1UNL    H27   81  -0.427  -0.003   0.068
    1UNL    H28   82  -0.447   0.111  -0.166
    1UNL    H29   83  -0.376   0.286  -0.289
    1UNL    H30   84  -0.271   0.474  -0.144
    1UNL    H31   85  -0.192   0.474  -0.317
    1UNL    H32   86  -0.074   0.331  -0.109
    1UNL    H33   87  -0.225   0.277  -0.475
    1UNL    H34   88  -0.001   0.267  -0.320
    1UNL    H35   89  -0.200   0.040  -0.487
    1UNL    H36   90  -0.036   0.073  -0.276
    1UNL    H37   91  -0.339  -0.088  -0.327
    1UNL    H38   92  -0.440   0.021  -0.504
    1UNL    H39   93  -0.276   0.196   0.030
    1UNL    H40   94  -0.272   0.097   0.290
    1UNL    H41   95  -0.058   0.069   0.212
    1UNL    H42   96   0.058   0.163   0.013
   0.00000   0.00000   0.00000   0.00000   0.00000   0.00000   0.00000   0.00000   0.00000
Generated with MDTraj, t= 98.0
 96
    1UNL     C1    1   0.138  -0.248   0.203
    1UNL     C2    2   0.187  -0.264   0.060
    1UNL     C3    3   0.181  -0.414   0.002
    1UNL     C4    4   0.228  -0.403  -0.148
    1UNL     O1    5   0.214  -0.524  -0.226
    1UNL     O2    6   0.367  -0.351  -0.140
    1UNL     C5    7   0.349  -0.218  -0.089
    1UNL     O3    8   0.325  -0.224   0.046
    1UNL     C6    9   0.211  -0.163  -0.158
    1UNL     C7   10   0.216  -0.044  -0.244
    1UNL     O4   11   0.301   0.061  -0.198
    1UNL     C8   12   0.223   0.172  -0.170
    1UNL     O5   13   0.104   0.185  -0.198
    1UNL     C9   14   0.288   0.284  -0.098
    1UNL    C10   15   0.223   0.408  -0.089
    1UNL    C11   16   0.286   0.518  -0.039
    1UNL    C12   17   0.412   0.508   0.015
    1UNL     O6   18   0.465   0.619   0.080
    1UNL    C13   19   0.474   0.384   0.013
    1UNL    C14   20   0.409   0.276  -0.039
    1UNL    C15   21   0.133  -0.295  -0.214
    1UNL    C16   22   0.005  -0.243  -0.141
    1UNL    C17   23   0.102  -0.169  -0.042
    1UNL     O7   24   0.076  -0.034   0.005
    1UNL    C18   25  -0.064  -0.032   0.048
    1UNL     O8   26  -0.115  -0.141   0.122
    1UNL    C19   27  -0.265  -0.149   0.112
    1UNL    C20   28  -0.324  -0.198   0.243
    1UNL     O9   29  -0.229  -0.246   0.333
    1UNL    C21   30  -0.153  -0.148   0.391
    1UNL    O10   31  -0.169  -0.025   0.394
    1UNL    C22   32  -0.037  -0.208   0.474
    1UNL    C23   33   0.058  -0.129   0.542
    1UNL    C24   34   0.165  -0.194   0.607
    1UNL    C25   35   0.168  -0.332   0.624
    1UNL    C26   36   0.079  -0.409   0.560
    1UNL    C27   37  -0.029  -0.347   0.489
    1UNL    C28   38  -0.323  -0.020   0.046
    1UNL    O11   39  -0.298  -0.033  -0.097
    1UNL    C29   40  -0.328   0.075  -0.184
    1UNL    O12   41  -0.243   0.193  -0.170
    1UNL    C30   42  -0.280   0.286  -0.270
    1UNL    C31   43  -0.214   0.421  -0.241
    1UNL    O13   44  -0.089   0.405  -0.184
    1UNL    C32   45  -0.219   0.238  -0.406
    1UNL    O14   46  -0.092   0.291  -0.431
    1UNL    C33   47  -0.213   0.083  -0.407
    1UNL    O15   48  -0.088   0.050  -0.353
    1UNL    C34   49  -0.341   0.022  -0.337
    1UNL    O16   50  -0.464   0.063  -0.396
    1UNL    C35   51  -0.262   0.113   0.105
    1UNL    O17   52  -0.321   0.146   0.229
    1UNL    C36   53  -0.104   0.098   0.108
    1UNL    O18   54  -0.041   0.212   0.036
    1UNL     H1   55   0.032  -0.272   0.208
    1UNL     H2   56   0.186  -0.323   0.263
    1UNL     H3   57   0.158  -0.139   0.222
    1UNL     H4   58   0.076  -0.454  -0.001
    1UNL     H5   59   0.252  -0.486   0.055
    1UNL     H6   60   0.265  -0.512  -0.305
    1UNL     H7   61   0.433  -0.157  -0.107
    1UNL     H8   62   0.123   0.004  -0.281
    1UNL     H9   63   0.260  -0.063  -0.345
    1UNL    H10   64   0.118   0.422  -0.127
    1UNL    H11   65   0.235   0.621  -0.046
    1UNL    H12   66   0.400   0.692   0.088
    1UNL    H13   67   0.576   0.376   0.054
    1UNL    H14   68   0.464   0.182  -0.027
    1UNL    H15   69   0.133  -0.275  -0.324
    1UNL    H16   70  -0.070  -0.175  -0.192
    1UNL    H17   71  -0.064  -0.318  -0.097
    1UNL    H18   72  -0.116  -0.037  -0.045
    1UNL    H19   73  -0.271  -0.224   0.027
    1UNL    H20   74  -0.391  -0.117   0.290
    1UNL    H21   75  -0.393  -0.274   0.227
    1UNL    H22   76   0.044  -0.019   0.532
    1UNL    H23   77   0.225  -0.135   0.670
    1UNL    H24   78   0.246  -0.381   0.681
    1UNL    H25   79   0.073  -0.520   0.553
    1UNL    H26   80  -0.095  -0.405   0.428
    1UNL    H27   81  -0.428  -0.022   0.061
    1UNL    H28   82  -0.428   0.111  -0.155
    1UNL    H29   83  -0.386   0.292  -0.285
    1UNL    H30   84  -0.276   0.469  -0.162
    1UNL    H31   85  -0.205   0.480  -0.334
    1UNL    H32   86  -0.095   0.339  -0.110
    1UNL    H33   87  -0.275   0.281  -0.486
    1UNL    H34   88  -0.028   0.260  -0.360
    1UNL    H35   89  -0.208   0.041  -0.507
    1UNL    H36   90  -0.069   0.101  -0.269
    1UNL    H37   91  -0.345  -0.086  -0.347
    1UNL    H38   92  -0.464   0.041  -0.495
    1UNL    H39   93  -0.289   0.192   0.035
    1UNL    H40   94  -0.279   0.088   0.298
    1UNL    H41   95  -0.068   0.111   0.214
    1UNL    H42   96   0.010   0.181  -0.038
   0.00000   0.00000   0.00000   0.00000   0.00000   0.00000   0.00000   0.00000   0.00000
Generated with MDTraj, t= 99.0
 96
    1UNL     C1    1   0.129  -0.237   0.206
    1UNL     C2    2   0.188  -0.260   0.063
    1UNL     C3    3   0.178  -0.410   0.008
    1UNL     C4    4   0.228  -0.404  -0.142
    1UNL     O1    5   0.201  -0.532  -0.214
    1UNL     O2    6   0.369  -0.365  -0.137
    1UNL     C5    7   0.365  -0.226  -0.085
    1UNL     O3    8   0.329  -0.223   0.057
    1UNL     C6    9   0.243  -0.152  -0.159
    1UNL     C7   10   0.248  -0.041  -0.254
    1UNL     O4   11   0.305   0.075  -0.191
    1UNL     C8   12   0.213   0.179  -0.183
    1UNL     O5   13   0.104   0.179  -0.234
    1UNL     C9   14   0.272   0.294  -0.111
    1UNL    C10   15   0.223   0.428  -0.127
    1UNL    C11   16   0.290   0.536  -0.065
    1UNL    C12   17   0.404   0.501   0.012
    1UNL     O6   18   0.483   0.604   0.056
    1UNL    C13   19   0.440   0.366   0.035
    1UNL    C14   20   0.373   0.260  -0.025
    1UNL    C15   21   0.162  -0.274  -0.217
    1UNL    C16   22   0.039  -0.219  -0.147
    1UNL    C17   23   0.132  -0.156  -0.043
    1UNL     O7   24   0.079  -0.029   0.019
    1UNL    C18   25  -0.059  -0.027   0.038
    1UNL     O8   26  -0.115  -0.142   0.109
    1UNL    C19   27  -0.264  -0.145   0.102
    1UNL    C20   28  -0.323  -0.174   0.241
    1UNL     O9   29  -0.242  -0.234   0.340
    1UNL    C21   30  -0.150  -0.153   0.400
    1UNL    O10   31  -0.148  -0.028   0.398
    1UNL    C22   32  -0.046  -0.228   0.486
    1UNL    C23   33   0.045  -0.151   0.558
    1UNL    C24   34   0.149  -0.211   0.630
    1UNL    C25   35   0.173  -0.352   0.620
    1UNL    C26   36   0.079  -0.424   0.557
    1UNL    C27   37  -0.031  -0.368   0.483
    1UNL    C28   38  -0.320  -0.018   0.031
    1UNL    O11   39  -0.286  -0.028  -0.108
    1UNL    C29   40  -0.342   0.076  -0.185
    1UNL    O12   41  -0.259   0.191  -0.165
    1UNL    C30   42  -0.279   0.286  -0.266
    1UNL    C31   43  -0.233   0.420  -0.223
    1UNL    O13   44  -0.103   0.425  -0.176
    1UNL    C32   45  -0.212   0.239  -0.403
    1UNL    O14   46  -0.085   0.289  -0.418
    1UNL    C33   47  -0.219   0.078  -0.398
    1UNL    O15   48  -0.111   0.015  -0.335
    1UNL    C34   49  -0.349   0.029  -0.336
    1UNL    O16   50  -0.466   0.084  -0.393
    1UNL    C35   51  -0.260   0.115   0.099
    1UNL    O17   52  -0.308   0.138   0.229
    1UNL    C36   53  -0.109   0.105   0.097
    1UNL    O18   54  -0.048   0.213   0.025
    1UNL     H1   55   0.024  -0.247   0.204
    1UNL     H2   56   0.162  -0.309   0.282
    1UNL     H3   57   0.153  -0.127   0.217
    1UNL     H4   58   0.075  -0.455   0.015
    1UNL     H5   59   0.243  -0.476   0.068
    1UNL     H6   60   0.235  -0.599  -0.155
    1UNL     H7   61   0.453  -0.172  -0.102
    1UNL     H8   62   0.149  -0.011  -0.289
    1UNL     H9   63   0.288  -0.053  -0.357
    1UNL    H10   64   0.145   0.442  -0.194
    1UNL    H11   65   0.256   0.633  -0.082
    1UNL    H12   66   0.449   0.690   0.019
    1UNL    H13   67   0.527   0.343   0.093
    1UNL    H14   68   0.391   0.157  -0.011
    1UNL    H15   69   0.160  -0.279  -0.328
    1UNL    H16   70  -0.039  -0.163  -0.206
    1UNL    H17   71  -0.019  -0.303  -0.106
    1UNL    H18   72  -0.104  -0.033  -0.059
    1UNL    H19   73  -0.298  -0.234   0.035
    1UNL    H20   74  -0.344  -0.074   0.296
    1UNL    H21   75  -0.420  -0.210   0.240
    1UNL    H22   76   0.030  -0.049   0.580
    1UNL    H23   77   0.204  -0.151   0.705
    1UNL    H24   78   0.251  -0.394   0.679
    1UNL    H25   79   0.097  -0.527   0.550
    1UNL    H26   80  -0.107  -0.438   0.442
    1UNL    H27   81  -0.425  -0.021   0.042
    1UNL    H28   82  -0.449   0.079  -0.150
    1UNL    H29   83  -0.382   0.288  -0.283
    1UNL    H30   84  -0.296   0.447  -0.141
    1UNL    H31   85  -0.239   0.488  -0.306
    1UNL    H32   86  -0.080   0.357  -0.103
    1UNL    H33   87  -0.276   0.276  -0.479
    1UNL    H34   88  -0.026   0.263  -0.344
    1UNL    H35   89  -0.219   0.036  -0.497
    1UNL    H36   90  -0.054   0.085  -0.292
    1UNL    H37   91  -0.349  -0.075  -0.338
    1UNL    H38   92  -0.474   0.065  -0.488
    1UNL    H39   93  -0.296   0.198   0.038
    1UNL    H40   94  -0.251   0.090   0.295
    1UNL    H41   95  -0.070   0.102   0.202
    1UNL    H42   96   0.026   0.183  -0.034
   0.00000   0.00000   0.00000   0.00000   0.00000   0.00000   0.00000   0.00000   0.00000
