1TPCN00685
20
    1res  C1    1    0.092   0.013  -0.443
    1res  C2    2    0.447  -0.057  -0.420
    1res  C3    3    0.360   0.159  -0.270
    1res  C4    4    0.340  -0.143  -0.187
    1res  C5    5    0.346   0.081   0.091
    1res  C6    6    0.645   0.204   0.132
    1res  C7    7    0.903   0.299   0.257
    1res  C8    8    0.653   0.227   0.433
    1res  C9    9    0.138  -0.037  -0.191
    1res  C10   10   -0.053  -0.078  -0.037
    1res  C11   11   -0.265   0.162   0.098
    1res  C12   12   -0.185   0.510   0.149
    1res  C13   13   -0.036   0.708   0.076
    1res  C14   14    0.013   0.463  -0.075
    1res  C15   15   -0.200  -0.277  -0.006
    1res  C16   16   -0.574  -0.192   0.103
    1res  C17   17   -0.797  -0.139   0.291
    1res  C18   18   -0.680  -0.433   0.130
    1res  C19   19   -0.414  -0.426   0.103
    1res  C20   20   -0.044  -0.240  -0.202
  10.00000  10.00000  10.00000
