[ moleculetype ]
; name        nrexcl
res           1

[ atoms ]
;    nr  type resnr resid  atom  cgnr     charge       mass
      1 SC4       1 res   C1        1      0.000     54.000
      2 TC3       1 res   C2        2      0.000     36.000
      3 SC3       1 res   C3        3      0.000     54.000
      4 SP2       1 res   C4        4      0.000     54.000
      5 TC3       1 res   C5        5      0.000     36.000
      6 TC5       1 res   C6        6      0.000     36.000
      7 SP2       1 res   C7        7      0.000     54.000
      8 TC3       1 res   C8        8      0.000     36.000
      9 SC4       1 res   C9        9      0.000     54.000
     10 SC4       1 res   C10      10      0.000     54.000
     11 SC3       1 res   C11      11      0.000     54.000
     12 TC4       1 res   C12      12      0.000     36.000
     13 SN6       1 res   C13      13      0.000     54.000
     14 TN6       1 res   C14      14      0.000     36.000
     15 TC5       1 res   C15      15      0.000     36.000
     16 TN4a      1 res   C16      16      0.000     36.000
     17 TC5       1 res   C17      17      0.000     36.000
     18 SN6       1 res   C18      18      0.000     54.000
     19 SN6       1 res   C19      19      0.000     54.000
     20 SN6       1 res   C20      20      0.000     54.000
     21 TC3       1 res   C21      21      0.000     36.000

[ bonds ]
;  ai    aj   funct      b0(nm)        k
    1     2     1      0.28632    20000
    2     3     1      0.20523    20000
    3     4     1      0.31144    20000
    3     5     1      0.28421    20000
    3     6     1      0.32401    20000
    5     6     1      0.27395    20000
    6     7     1      0.33302    20000
    6     8     1      0.24827    20000
    6     9     1      0.24931    20000
    8     9     1      0.35964    20000
    9    10     1      0.38263    20000
    9    21     1      0.27802    20000
   10    11     1      0.31231    20000
   10    21     1      0.35825    20000
   11    12     1      0.42773    20000
   12    13     1      0.29731    20000
   12    15     1      0.29339    20000
   13    14     1      0.35726    20000
   14    15     1      0.27272    20000
   15    16     1      0.25728    20000
   15    20     1      0.27364    20000
   16    17     1      0.24055    20000
   16    20     1      0.26476    20000
   17    18     1      0.30792    20000
   17    19     1      0.34473    20000
   18    19     1      0.28507    20000
