[ moleculetype ]
; name        nrexcl
res           1

[ atoms ]
;    nr  type  resnr resid  atom  cgnr     charge       mass
      1 N4a       1 res   C1        1      0.000     72.000
      2 TC3       1 res   C2        2      0.000     36.000
      3 TC5       1 res   C3        3      0.000     36.000
      4 TN6d      1 res   C4        4      0.000     36.000
      5 TC5       1 res   C5        5      0.000     36.000
      6 TC5       1 res   C6        6      0.000     36.000
      7 TC5       1 res   C7        7      0.000     36.000
      8 TC3       1 res   C8        8      0.000     36.000
      9 SN1       1 res   C9        9      0.000     54.000
     10 SP1       1 res   C10      10      0.000     54.000
     11 TC3       1 res   C11      11      0.000     36.000

[ constraints ]
;  ai    aj   funct      b0(nm)
    1     2     1      0.36300
    3     5     1      0.19129
    2     3     1      0.26170
    4     5     1      0.21995
    3     8     1      0.26691
    3    11     1      0.25136
    2     9     1      0.28050
    5     7     1      0.24811
    9    11     1      0.28176
    3     4     1      0.22001
    5     6     1      0.24863
    9    10     1      0.28454
    6     7     1      0.28976
    2    11     1      0.24916
    8     9     1      0.29888

[ bonds ]
;  ai    aj   funct      b0(nm)          k(kJ/mol/nm^2)

[ angles ]
;  ai    aj    ak  funct     th0(deg)        k(kJ/mol/rad^2)
    1     2     3     1     89.67901          2012.41
    1     2     9     1    141.90618           193.41
    1     2    11     1    137.20962           464.71
    2     3     4     1     97.89643           901.78
    2     3     5     1    145.14681           491.23
    2     3     8     1    108.86769          1870.76
    2     3    11     1     58.06241          5735.93
    2     9     8     1     95.81152          1150.59
    2     9    10     1     79.85710          1764.38
    2     9    11     1     52.59651          6464.58
    2    11     3     1     63.04493          5848.05
    2    11     9     1     63.44279          2726.36
    3     2     9     1     78.40391          2353.15
    3     2    11     1     58.89277          3632.19
    3     4     5     1     51.54249          5243.12
    3     5     4     1     64.23683          4257.31
    3     5     6     1    159.24255          1213.20
    3     5     7     1    128.19613          1318.85
    3     8     9     1     74.38235          2463.76
    3    11     9     1     79.87597          1802.88
    4     3     5     1     64.22075          2851.04
    4     3     8     1    138.94900           284.25
    4     3    11     1    129.44944           325.29
    4     5     6     1     95.66194          1323.30
    4     5     7     1    165.03054           866.99
    5     3     8     1    103.11494           809.36
    5     3    11     1    108.84487           821.30
    5     6     7     1     54.22908         11861.31
    5     7     6     1     54.39753          9565.05
    6     5     7     1     71.37339          6666.08
    8     3    11     1     91.32247          1377.16
    8     9    10     1    141.06003           116.82
    8     9    11     1     79.33078          1472.22
    9     2    11     1     63.96062          2740.12
   10     9    11     1    123.05076           376.53

[ dihedrals ]
;  ai    aj    ak    al  funct   phi0(deg)        k(kJ/mol)   mult
    1     2     3     4     1    162.00065       10.811      1
    1     2     3     5     1    108.85380       12.912      1
    1     2     3     8     1    -50.86278       14.313      1
    1     2     3    11     1     30.97766       12.929      1
    1     2     9     8     1    117.15130       11.456      1
    1     2     9    10     1   -102.91034       12.964      1
    1     2     9    11     1     45.33203        9.990      1
    1     2    11     3     1   -133.27391       14.350      1
    1     2    11     9     1    -42.85404       14.323      1
    2     3     4     5     1     31.03406        8.562      1
    2     3     5     4     1   -115.94162        9.339      1
    2     3     5     6     1   -113.38869       21.961      1
    2     3     5     7     1     69.37077       12.840      1
    2     3     8     9     1   -168.90459        7.049      1
    2     3    11     9     1    114.98621        4.024      1
    2     9     8     3     1    169.92148        6.296      1
    2     9    11     3     1   -115.00459        3.969      1
    2    11     3     4     1    108.91070        7.036      1
    2    11     3     5     1     35.97180        7.800      1
    2    11     3     8     1    -68.04905        6.290      1
    2    11     9     8     1     72.12686        6.278      1
    2    11     9    10     1   -141.93854       13.665      1
    3     2     9     8     1   -169.93203        6.301      1
    3     2     9    10     1    -27.89325       13.686      1
    3     2     9    11     1    119.96769        4.709      1
    3     2    11     9     1    -87.08102        5.498      1
    3     4     5     6     1      1.30699       10.017      1
    3     4     5     7     1    -16.10352       26.300      1
    3     5     6     7     1      4.82334       20.638      1
    3     5     7     6     1     -2.49620       12.862      1
    3     8     9    10     1     91.61207       11.366      1
    3     8     9    11     1   -140.98447        5.535      1
    3    11     2     9     1     87.08102        5.498      1
    3    11     9     8     1    138.96794        5.530      1
    3    11     9    10     1    -76.85642       12.947      1
    4     3     2     9     1     17.07738        9.999      1
    4     3     2    11     1    -49.88497        9.304      1
    4     3     5     6     1    179.50242       22.181      1
    4     3     5     7     1      4.88994       15.631      1
    4     3     8     9     1    -39.35058        8.488      1
    4     3    11     9     1     44.08042        7.772      1
    4     5     3     8     1     40.16858       10.780      1
    4     5     3    11     1    -55.90682        9.336      1
    4     5     6     7     1      4.78248       12.853      1
    4     5     7     6     1   -162.88444       26.606      1
    5     3     2     9     1    -35.86848        9.269      1
    5     3     2    11     1   -103.77441        9.267      1
    5     3     8     9     1     25.98876        7.735      1
    5     3    11     9     1    -29.02164        8.546      1
    5     4     3     8     1   -101.05087       11.500      1
    5     4     3    11     1     86.93311        8.491      1
    6     5     3     8     1     40.06931       20.781      1
    6     5     3    11     1    -54.65796       20.044      1
    7     5     3     8     1   -132.50047       15.680      1
    7     5     3    11     1    132.28832       14.994      1
    8     3     2     9     1    167.91198        7.776      1
    8     3     2    11     1     99.86451        7.730      1
    8     3    11     9     1   -133.05208        6.988      1
    8     9     2    11     1   -107.78294        6.245      1
    9     2     3    11     1   -113.95115        4.764      1
    9     8     3    11     1    135.97132        4.801      1
   10     9     2    11     1     32.28407       13.637      1
