1TPCN03639
27
    1res  C1    1   -0.914  -0.193  -0.437
    1res  C2    2   -0.776  -0.022  -0.209
    1res  C3    3   -0.493   0.099  -0.199
    1res  C4    4   -0.735   0.228   0.036
    1res  C5    5   -0.671   0.403  -0.191
    1res  C6    6   -0.625   0.489   0.114
    1res  C7    7   -0.743   0.317   0.276
    1res  C8    8   -0.577   0.162   0.281
    1res  C9    9   -0.415  -0.154  -0.045
    1res  C10   10   -0.366  -0.144   0.182
    1res  C11   11   -0.151   0.113   0.015
    1res  C12   12   -0.105  -0.128   0.255
    1res  C13   13    0.142  -0.070   0.235
    1res  C14   14    0.289   0.044   0.057
    1res  C15   15    0.445  -0.158   0.051
    1res  C16   16    0.667  -0.223  -0.092
    1res  C17   17    0.771  -0.479  -0.212
    1res  C18   18    0.915  -0.210  -0.154
    1res  C19   19    0.946  -0.130   0.044
    1res  C20   20    0.763  -0.028   0.053
    1res  C21   21    0.634   0.241  -0.023
    1res  C22   22    0.479   0.396  -0.238
    1res  C23   23    0.792   0.395  -0.184
    1res  C24   24    0.929   0.321  -0.032
    1res  C25   25    0.801   0.270   0.165
    1res  C26   26    0.362  -0.308   0.223
    1res  C27   27   -0.010  -0.345   0.171
  10.00000  10.00000  10.00000
