[ moleculetype ]
; name        nrexcl
res           1

[ atoms ]
;    nr  type resnr resid  atom  cgnr     charge       mass
      1 SC4       1 res   C1        1      0.000     54.000
      2 TC3       1 res   C2        2      0.000     36.000
      3 SC5       1 res   C3        3      0.000     54.000
      4 SN4a      1 res   C4        4      0.000     54.000
      5 SN4a      1 res   C5        5      0.000     54.000
      6 TP1       1 res   C6        6      0.000     36.000
      7 TN6       1 res   C7        7      0.000     36.000
      8 TN6       1 res   C8        8      0.000     36.000
      9 TN6       1 res   C9        9      0.000     36.000
     10 TC3       1 res   C10      10      0.000     36.000
     11 SC4       1 res   C11      11      0.000     54.000
     12 TC3       1 res   C12      12      0.000     36.000
     13 SC4       1 res   C13      13      0.000     54.000
     14 SC4       1 res   C14      14      0.000     54.000
     15 SN6       1 res   C15      15      0.000     54.000
     16 TN6       1 res   C16      16      0.000     36.000
     17 TC4       1 res   C17      17      0.000     36.000
     18 TP1       1 res   C18      18      0.000     36.000
     19 TC3       1 res   C19      19      0.000     36.000

[ bonds ]
;  ai    aj   funct      b0(nm)        k
    1     2     1      0.29163    20000
    1     3     1      0.27060    20000
    2     3     1      0.28190    20000
    3     4     1      0.30201    20000
    3    10     1      0.38344    20000
    3    11     1      0.35444    20000
    4     5     1      0.34138    20000
    5     6     1      0.24302    20000
    5     7     1      0.29340    20000
    5     9     1      0.28670    20000
    7     8     1      0.24931    20000
    8     9     1      0.24946    20000
   10    11     1      0.30571    20000
   11    12     1      0.33908    20000
   11    13     1      0.31201    20000
   12    13     1      0.28666    20000
   13    14     1      0.28741    20000
   13    19     1      0.28549    20000
   14    15     1      0.31753    20000
   14    17     1      0.39132    20000
   14    19     1      0.33999    20000
   15    16     1      0.28651    20000
   16    17     1      0.24653    20000
   17    18     1      0.28731    20000
