[ moleculetype ]
; name        nrexcl
res           1

[ atoms ]
;    nr  type  resnr resid  atom  cgnr     charge       mass
      1 TN2a      1 res   C1        1      0.000     36.000
      2 TC5       1 res   C2        2      0.000     36.000
      3 SC4       1 res   C3        3      0.000     54.000
      4 TC5       1 res   C4        4      0.000     36.000
      5 P4        1 res   C5        5      0.000     72.000
      6 SN4a      1 res   C6        6      0.000     54.000
      7 N4a       1 res   C7        7      0.000     72.000
      8 SC2       1 res   C8        8      0.000     54.000

[ constraints ]
;  ai    aj   funct      b0(nm)
    1     2     1      0.29431
    2     3     1      0.33490
    2     5     1      0.27624
    3     4     1      0.31295
    7     8     1      0.34096
    2     4     1      0.24935

[ bonds ]
;  ai    aj   funct      b0(nm)          k(kJ/mol/nm^2)
    5     7     1      0.29423          12568.9
    5     6     1      0.35031          19843.2

[ angles ]
;  ai    aj    ak  funct     th0(deg)        k(kJ/mol/rad^2)
    1     2     3     1     88.50909           914.86
    1     2     4     1    149.34225           846.46
    1     2     5     1    105.96306           218.50
    2     3     4     1     45.10915         13518.92
    2     4     3     1     72.11211          3883.40
    2     5     6     1    147.37233           135.95
    2     5     7     1     78.03835           683.01
    3     2     4     1     62.77872          4453.05
    3     2     5     1    155.65164           179.08
    4     2     5     1    101.03178           359.14
    5     7     8     1    111.71289           141.67
    6     5     7     1    110.13048            83.51

[ dihedrals ]
;  ai    aj    ak    al  funct   phi0(deg)        k(kJ/mol)   mult
    1     2     3     4     1     -0.14802       17.837      1
    1     2     4     3     1   -179.30492       26.019      1
    1     2     5     6     1    135.87423       28.687      1
    1     2     5     7     1   -108.63840       23.358      1
    2     5     7     8     1      8.75583       23.554      1
    3     2     5     6     1    -93.70963       29.175      1
    3     2     5     7     1     19.93069       22.104      1
    3     4     2     5     1     18.86555       12.910      1
    4     2     5     6     1    -49.74990       29.127      1
    4     2     5     7     1     62.84707       20.998      1
    4     3     2     5     1   -136.34815       20.321      1
    6     5     7     8     1    155.60477       24.113      1
