[ moleculetype ]
; name        nrexcl
res           1

[ atoms ]
;    nr  type  resnr resid  atom  cgnr     charge       mass
      1 TX3       1 res   C1        1      0.000     36.000
      2 TX3       1 res   C2        2      0.000     36.000
      3 TX3       1 res   C3        3      0.000     36.000
      4 TX3       1 res   C4        4      0.000     36.000
      5 TC5       1 res   C5        5      0.000     36.000

[ bonds ]
;  ai    aj   funct      b0(nm)          k(kJ/mol/nm^2)
    1     2     1      0.21536         113870.2
    1     5     1      0.26930         120367.7
    2     3     1      0.22195         139267.3
    3     4     1      0.22149          98728.8
    4     5     1      0.26767         124491.6

[ angles ]
;  ai    aj    ak  funct     th0(deg)        k(kJ/mol/rad^2)
    1     2     3     1    100.92503          2235.42
    1     5     4     1    101.49626          4578.60
    2     1     5     1     96.23343          3798.62
    2     3     4     1    105.29011          2590.01
    3     4     5     1     88.38606          3231.50

[ dihedrals ]
;  ai    aj    ak    al  funct   phi0(deg)        k(kJ/mol)   mult
    1     2     3     4     1   -103.00854        5.534      1
    1     2     3     4     1    -26.01710        5.495      2
    1     2     3     4     1     50.97432        5.430      3
    1     5     4     3     1   -153.03996        7.063      1
    1     5     4     3     1   -126.08023        6.980      2
    1     5     4     3     1    -99.12113        6.842      3
    2     1     5     4     1   -170.92276        8.568      1
    2     1     5     4     1   -161.84423        8.415      2
    2     1     5     4     1   -152.76305        8.165      3
    2     3     4     5     1    121.95824        6.248      1
    2     3     4     5     1     63.91616        6.191      2
    2     3     4     5     1      5.87343        6.095      3
    3     2     1     5     1    136.99976        7.057      1
    3     2     1     5     1     93.99907        6.974      2
    3     2     1     5     1     50.99746        6.836      3
