[ moleculetype ]
; name        nrexcl
res           1

[ atoms ]
;    nr  type resnr resid  atom  cgnr     charge       mass
      1 TC4       1 res   C1        1      0.000     36.000
      2 TN4a      1 res   C2        2      0.000     36.000
      3 TN6       1 res   C3        3      0.000     36.000
      4 SN4a      1 res   C4        4      0.000     54.000
      5 SN4a      1 res   C5        5      0.000     54.000
      6 SC5       1 res   C6        6      0.000     54.000
      7 TC3       1 res   C7        7      0.000     36.000
      8 SC4       1 res   C8        8      0.000     54.000
      9 SC4       1 res   C9        9      0.000     54.000
     10 TC3       1 res   C10      10      0.000     36.000
     11 SC4       1 res   C11      11      0.000     54.000
     12 SC4       1 res   C12      12      0.000     54.000
     13 SN6       1 res   C13      13      0.000     54.000
     14 TN6       1 res   C14      14      0.000     36.000
     15 SN4a      1 res   C15      15      0.000     54.000
     16 TP1       1 res   C16      16      0.000     36.000
     17 TN6       1 res   C17      17      0.000     36.000
     18 TN6       1 res   C18      18      0.000     36.000
     19 TN6       1 res   C19      19      0.000     36.000
     20 TC4       1 res   C20      20      0.000     36.000
     21 TP1       1 res   C21      21      0.000     36.000
     22 TC3       1 res   C22      22      0.000     36.000
     23 TC3       1 res   C23      23      0.000     36.000
     24 TN6       1 res   C24      24      0.000     36.000
     25 TN6       1 res   C25      25      0.000     36.000
     26 SN4a      1 res   C26      26      0.000     54.000
     27 TN6       1 res   C27      27      0.000     36.000
     28 TP1       1 res   C28      28      0.000     36.000
     29 TN6       1 res   C29      29      0.000     36.000
     30 TN6       1 res   C30      30      0.000     36.000
     31 SN6       1 res   C31      31      0.000     54.000
     32 TN6       1 res   C32      32      0.000     36.000
     33 TN4a      1 res   C33      33      0.000     36.000
     34 TN6       1 res   C34      34      0.000     36.000
     35 TN6       1 res   C35      35      0.000     36.000
     36 TN6       1 res   C36      36      0.000     36.000

[ bonds ]
;  ai    aj   funct      b0(nm)        k
    1     2     1      0.32116    20000
    1    31     1      0.34351    20000
    2     3     1      0.22608    20000
    2    30     1      0.20937    20000
    3     4     1      0.27829    20000
    3    25     1      0.20998    20000
    4     5     1      0.31373    20000
    4    24     1      0.26280    20000
    5     6     1      0.31223    20000
    6     7     1      0.27998    20000
    6     8     1      0.27697    20000
    6     9     1      0.35346    20000
    6    23     1      0.36671    20000
    7     8     1      0.29441    20000
    9    10     1      0.34681    20000
    9    11     1      0.31073    20000
    9    23     1      0.30805    20000
   10    11     1      0.27736    20000
   11    12     1      0.37767    20000
   11    22     1      0.28704    20000
   12    13     1      0.31398    20000
   12    20     1      0.41133    20000
   12    22     1      0.36961    20000
   13    14     1      0.27166    20000
   14    15     1      0.27607    20000
   14    20     1      0.28493    20000
   15    16     1      0.25565    20000
   15    17     1      0.25891    20000
   15    19     1      0.30357    20000
   17    18     1      0.21970    20000
   18    19     1      0.22012    20000
   20    21     1      0.29711    20000
   24    25     1      0.21926    20000
   25    26     1      0.33752    20000
   26    27     1      0.22451    20000
   26    29     1      0.27816    20000
   27    28     1      0.26660    20000
   27    29     1      0.29958    20000
   30    31     1      0.27273    20000
   31    32     1      0.25694    20000
   32    33     1      0.26222    20000
   32    36     1      0.24131    20000
   33    34     1      0.22971    20000
   34    35     1      0.24458    20000
   35    36     1      0.24864    20000
