1TPCN00066
14
    1res  C1    1   -0.149   0.009   0.204
    1res  C2    2   -0.093  -0.120  -0.013
    1res  C3    3   -0.152   0.133  -0.104
    1res  C4    4   -0.119   0.470   0.015
    1res  C5    5    0.077   0.027  -0.047
    1res  C6    6    0.190   0.185   0.079
    1res  C7    7    0.219  -0.036   0.059
    1res  C8    8    0.441  -0.080   0.246
    1res  C9    9    0.290  -0.274   0.091
    1res  C10   10    0.106  -0.125  -0.266
    1res  C11   11   -0.125  -0.231  -0.195
    1res  C12   12   -0.180  -0.360  -0.297
    1res  C13   13   -0.361  -0.145  -0.135
    1res  C14   14   -0.332  -0.229  -0.031
  10.00000  10.00000  10.00000
