[ moleculetype ]
; name        nrexcl
res           1

[ atoms ]
;    nr  type  resnr resid  atom  cgnr     charge       mass
      1 TC3       1 res   C1        1      0.000     36.000
      2 TC5       1 res   C2        2      0.000     36.000
      3 TC3       1 res   C3        3      0.000     36.000
      4 N4a       1 res   C4        4      0.000     72.000
      5 TC5       1 res   C5        5      0.000     36.000
      6 TN6d      1 res   C6        6      0.000     36.000
      7 TC5       1 res   C7        7      0.000     36.000
      8 SN6       1 res   C8        8      0.000     54.000
      9 TC5       1 res   C9        9      0.000     36.000
     10 TC3       1 res   C10      10      0.000     36.000
     11 TN6d      1 res   C11      11      0.000     36.000
     12 TN6a      1 res   C12      12      0.000     36.000
     13 TC5       1 res   C13      13      0.000     36.000
     14 P4        1 res   C14      14      0.000     72.000

[ constraints ]
;  ai    aj   funct      b0(nm)
    1     2     1      0.32858
    2    13     1      0.22575
    3     5     1      0.27666
    2     3     1      0.22136
   10    11     1      0.27255
   11    12     1      0.17115
    5    10     1      0.28253
    7     9     1      0.24835
    5     7     1      0.19027
   13    14     1      0.12284
    2     5     1      0.21237
    3     4     1      0.37933
    7     8     1      0.28880
    5     6     1      0.21979
    6     7     1      0.21822
    2    11     1      0.21879
   11    13     1      0.20318

[ bonds ]
;  ai    aj   funct      b0(nm)          k(kJ/mol/nm^2)
    8     9     1      0.29445          18450.0

[ angles ]
;  ai    aj    ak  funct     th0(deg)        k(kJ/mol/rad^2)
    1     2     3     1     70.16742          1160.64
    1     2     5     1     97.21670           890.92
    1     2    11     1    101.64039           734.96
    1     2    13     1     64.04089          1060.85
    2     3     4     1    132.20961          1400.27
    2     3     5     1     48.94814          3783.18
    2     5     3     1     51.80192          4004.43
    2     5     6     1    146.96413           486.16
    2     5     7     1    119.57643          1026.57
    2     5    10     1     73.72565          2798.72
    2    11    10     1     75.01665          2254.95
    2    11    12     1    148.79695           182.42
    2    11    13     1     64.55139          1697.06
    2    13    11     1     61.08816          1858.03
    2    13    14     1    144.06066           187.92
    3     2     5     1     79.24984          2258.29
    3     2    11     1    162.44404          1317.09
    3     2    13     1    108.91342          1612.56
    3     5     6     1     99.08381           698.71
    3     5     7     1    129.45064           629.16
    3     5    10     1    120.64952          1055.10
    4     3     5     1     83.54833          2066.05
    5     2    11     1    117.23871          1845.51
    5     2    13     1    153.25162           603.98
    5     6     7     1     51.50285          3847.57
    5     7     6     1     64.67283          4486.82
    5     7     8     1    164.38001           526.34
    5     7     9     1    127.44868          1295.92
    5    10    11     1     83.04578          4804.98
    6     5     7     1     63.82430          3859.45
    6     5    10     1    138.66859           623.69
    6     7     8     1    100.79804           566.54
    6     7     9     1    163.86682           574.09
    7     5    10     1     94.54926          1410.26
    7     8     9     1     50.37116          3818.15
    7     9     8     1     63.62019          2025.60
    8     7     9     1     66.00799           873.59
   10    11    12     1    117.61228           620.33
   10    11    13     1    139.39672          1208.03
   11     2    13     1     54.36008          2067.94
   11    13    14     1    151.97098            91.21
   12    11    13     1     97.48952           718.11

[ dihedrals ]
;  ai    aj    ak    al  funct   phi0(deg)        k(kJ/mol)   mult
    1     2     3     4     1     73.91003       12.186      1
    1     2     3     5     1     78.98410        7.048      1
    1     2     5     3     1   -111.04033        5.567      1
    1     2     5     6     1   -144.59607       12.863      1
    1     2     5     7     1    129.92441        9.278      1
    1     2     5    10     1     43.02929        8.548      1
    1     2    11    10     1    -45.01136        8.499      1
    1     2    11    12     1     78.97860       14.961      1
    1     2    11    13     1    134.00896        7.793      1
    1     2    13    11     1    -51.05734        8.539      1
    1     2    13    14     1    111.37393       23.280      1
    2     3     5     6     1    -17.49011        8.523      1
    2     3     5     7     1    -80.03888        7.823      1
    2     3     5    10     1    152.62193        8.510      1
    2     5     3     4     1     -3.94111        9.303      1
    2     5     6     7     1     73.67770       10.660      1
    2     5     7     6     1    -36.22879        9.303      1
    2     5     7     8     1    -46.77368       23.728      1
    2     5     7     9     1    154.48374       12.194      1
    2     5    10    11     1   -159.01570        5.538      1
    2    11    10     5     1    159.08946        5.517      1
    2    11    13    14     1      0.93000       21.445      1
    2    13    11    10     1    179.11137       11.447      1
    2    13    11    12     1    -26.97074       12.934      1
    3     2     5     6     1    149.25489       12.834      1
    3     2     5     7     1     61.77258        9.237      1
    3     2     5    10     1    -25.92291        9.232      1
    3     2    11    10     1     15.39778       18.488      1
    3     2    11    12     1    139.00150       20.948      1
    3     2    11    13     1   -165.01896       19.781      1
    3     2    13    11     1      4.95381        8.538      1
    3     2    13    14     1    166.23001       23.743      1
    3     5     2    11     1     -4.96228        8.554      1
    3     5     2    13     1    -68.11293       10.790      1
    3     5     6     7     1     48.66784        7.036      1
    3     5     7     6     1    -99.06342        9.999      1
    3     5     7     8     1   -110.37019       25.793      1
    3     5     7     9     1     90.30905       12.167      1
    3     5    10    11     1   -138.84605        9.966      1
    4     3     2     5     1    175.84077       10.801      1
    4     3     2    11     1      9.89906       17.682      1
    4     3     2    13     1     24.81286       11.488      1
    4     3     5     6     1    160.14254        9.270      1
    4     3     5     7     1     95.86190        9.217      1
    4     3     5    10     1    -31.18699        8.578      1
    5     2    11    10     1   -148.11037        7.772      1
    5     2    11    12     1    -25.62173       16.408      1
    5     2    11    13     1     28.90762        8.533      1
    5     2    13    11     1    -99.45901       10.023      1
    5     2    13    14     1     65.56356       25.403      1
    5     3     2    11     1     11.11709       18.476      1
    5     3     2    13     1     24.90394        7.065      1
    5     6     7     8     1     -3.00805       10.048      1
    5     6     7     9     1    -26.70177       26.871      1
    5     7     8     9     1     18.94798       26.952      1
    5     7     9     8     1     -6.96552       12.918      1
    5    10    11    12     1     10.01129       15.055      1
    5    10    11    13     1    160.91536       12.897      1
    6     5     2    11     1    -36.71865       11.486      1
    6     5     2    13     1   -101.87676       14.963      1
    6     5     7     8     1    168.36131       25.361      1
    6     5     7     9     1     12.00228       12.272      1
    6     5    10    11     1     27.28187       11.401      1
    6     7     5    10     1     36.08752        9.279      1
    6     7     8     9     1      8.15222       10.789      1
    6     7     9     8     1   -155.89948       25.698      1
    7     5     2    11     1   -123.98164        7.863      1
    7     5     2    13     1    169.88133       12.201      1
    7     5    10    11     1     81.01227        7.070      1
    7     6     5    10     1   -117.13955       11.434      1
    8     7     5    10     1     28.15312       26.386      1
    9     7     5    10     1   -132.05030       12.203      1
   10     5     2    11     1    150.94360        7.057      1
   10     5     2    13     1     84.92970       11.485      1
   10    11     2    13     1      0.01457        7.808      1
   10    11    13    14     1      6.03084       23.306      1
   11     2    13    14     1    -17.59202       22.752      1
   12    11     2    13     1    124.91612       14.919      1
   12    11    13    14     1    158.52710       25.183      1
