[ moleculetype ]
; name        nrexcl
res           1

[ atoms ]
;    nr  type resnr resid  atom  cgnr     charge       mass
      1 TC4       1 res   C1        1      0.000     36.000
      2 TN4a      1 res   C2        2      0.000     36.000
      3 TN6       1 res   C3        3      0.000     36.000
      4 TN6       1 res   C4        4      0.000     36.000
      5 TC3       1 res   C5        5      0.000     36.000
      6 SC4       1 res   C6        6      0.000     54.000
      7 SN6       1 res   C7        7      0.000     54.000
      8 SC4       1 res   C8        8      0.000     54.000
      9 SC3       1 res   C9        9      0.000     54.000
     10 SN4a      1 res   C10      10      0.000     54.000
     11 SC3       1 res   C11      11      0.000     54.000
     12 P1        1 res   C12      12      0.000     72.000
     13 SC4       1 res   C13      13      0.000     54.000
     14 TC3       1 res   C14      14      0.000     36.000
     15 TN6       1 res   C15      15      0.000     36.000
     16 SC4       1 res   C16      16      0.000     54.000
     17 TN4a      1 res   C17      17      0.000     36.000
     18 TP1       1 res   C18      18      0.000     36.000
     19 TN6       1 res   C19      19      0.000     36.000
     20 TN6       1 res   C20      20      0.000     36.000
     21 TN6       1 res   C21      21      0.000     36.000
     22 TN6       1 res   C22      22      0.000     36.000
     23 TN6       1 res   C23      23      0.000     36.000

[ bonds ]
;  ai    aj   funct      b0(nm)        k
    1     2     1      0.30534    20000
    1    23     1      0.26725    20000
    2     3     1      0.20144    20000
    2    21     1      0.24639    20000
    3     4     1      0.21126    20000
    3    20     1      0.21145    20000
    4     5     1      0.22412    20000
    4    17     1      0.26879    20000
    5     6     1      0.23262    20000
    5    13     1      0.35315    20000
    6     7     1      0.28500    20000
    6     8     1      0.31902    20000
    6    13     1      0.36747    20000
    7     8     1      0.38332    20000
    8     9     1      0.24923    20000
    9    10     1      0.38693    20000
   10    11     1      0.25370    20000
   11    12     1      0.33699    20000
   13    14     1      0.28927    20000
   13    16     1      0.38160    20000
   14    15     1      0.27933    20000
   15    16     1      0.26484    20000
   17    18     1      0.23612    20000
   17    19     1      0.23757    20000
   19    20     1      0.21837    20000
   21    22     1      0.26899    20000
   22    23     1      0.22110    20000
