1TPCN05895
16
    1res  C1    1   -0.513   0.301  -0.056
    1res  C2    2   -0.695   0.111  -0.174
    1res  C3    3   -0.607  -0.041   0.016
    1res  C4    4   -0.489  -0.235  -0.156
    1res  C5    5   -0.391  -0.273   0.094
    1res  C6    6   -0.233  -0.057   0.240
    1res  C7    7   -0.112  -0.315   0.051
    1res  C8    8   -0.040   0.074  -0.013
    1res  C9    9    0.186   0.091   0.128
    1res  C10   10    0.422   0.228  -0.092
    1res  C11   11    0.679   0.175   0.057
    1res  C12   12    0.936   0.154   0.161
    1res  C13   13    1.177   0.071   0.121
    1res  C14   14    0.986  -0.143   0.173
    1res  C15   15    0.301  -0.088  -0.126
    1res  C16   16   -0.044  -0.196  -0.177
  10.00000  10.00000  10.00000
