[ moleculetype ]
; name        nrexcl
res           1

[ atoms ]
;    nr  type resnr resid  atom  cgnr     charge       mass
      1 TN2a      1 res   C1        1      0.000     36.000
      2 TC5       1 res   C2        2      0.000     36.000
      3 TC5       1 res   C3        3      0.000     36.000
      4 SC4       1 res   C4        4      0.000     54.000
      5 TC3       1 res   C5        5      0.000     36.000
      6 TC3       1 res   C6        6      0.000     36.000
      7 TC3       1 res   C7        7      0.000     36.000
      8 TN6d      1 res   C8        8      0.000     36.000
      9 TN6a      1 res   C9        9      0.000     36.000
     10 TC3       1 res   C10      10      0.000     36.000
     11 SN3r      1 res   C11      11      0.000     54.000
     12 SN4a      1 res   C12      12      0.000     54.000
     13 SN4a      1 res   C13      13      0.000     54.000

[ bonds ]
;  ai    aj   funct      b0(nm)        k
    1     2     1      0.25189    20000
    2     3     1      0.30376    20000
    2     4     1      0.23633    20000
    3     4     1      0.31061    20000
    4     5     1      0.30419    20000
    4     6     1      0.31880    20000
    4     9     1      0.16546    20000
    5     6     1      0.26329    20000
    5     8     1      0.29686    20000
    6     7     1      0.25065    20000
    6    13     1      0.36237    20000
    7     8     1      0.24621    20000
    7    10     1      0.27595    20000
    8     9     1      0.22948    20000
    8    10     1      0.25304    20000
   10    11     1      0.26079    20000
   11    12     1      0.37120    20000
