1TPCN04732
33
    1res  C1    1    1.227   0.058  -0.219
    1res  C2    2    1.046  -0.027  -0.071
    1res  C3    3    0.910   0.065   0.054
    1res  C4    4    0.711   0.043   0.109
    1res  C5    5    0.424   0.174   0.042
    1res  C6    6    0.233   0.065  -0.194
    1res  C7    7    0.183  -0.180   0.015
    1res  C8    8    0.065   0.002   0.171
    1res  C9    9   -0.028   0.265   0.028
    1res  C10   10   -0.144   0.008  -0.099
    1res  C11   11   -0.324   0.074   0.198
    1res  C12   12   -0.512  -0.061   0.019
    1res  C13   13   -0.646  -0.272  -0.129
    1res  C14   14   -0.585  -0.289  -0.374
    1res  C15   15   -0.833  -0.407  -0.238
    1res  C16   16   -0.877  -0.432  -0.023
    1res  C17   17   -0.845  -0.203   0.048
    1res  C18   18   -0.856   0.011   0.088
    1res  C19   19   -0.849   0.289  -0.066
    1res  C20   20   -1.047   0.157  -0.131
    1res  C21   21   -1.197   0.046  -0.009
    1res  C22   22   -1.054  -0.021   0.209
    1res  C23   23   -0.525   0.043   0.346
    1res  C24   24   -0.624   0.308   0.216
    1res  C25   25   -0.396   0.321   0.068
    1res  C26   26   -0.246  -0.176   0.128
    1res  C27   27    0.541  -0.092  -0.134
    1res  C28   28    0.743   0.139   0.355
    1res  C29   29    0.966   0.116   0.412
    1res  C30   30    1.046   0.200   0.196
    1res  C31   31    0.980  -0.273  -0.057
    1res  C32   32    1.033  -0.214  -0.284
    1res  C33   33    1.293  -0.216  -0.215
  10.00000  10.00000  10.00000
