1TPCN00199
25
    1res  C1    1   -0.559  -0.363  -0.247
    1res  C2    2   -0.669  -0.179  -0.108
    1res  C3    3   -0.806   0.054  -0.050
    1res  C4    4   -0.567   0.043  -0.030
    1res  C5    5   -0.477   0.184   0.063
    1res  C6    6   -0.174   0.131  -0.131
    1res  C7    7   -0.328   0.282  -0.119
    1res  C8    8   -0.234   0.413  -0.312
    1res  C9    9   -0.469   0.487  -0.153
    1res  C10   10   -0.248  -0.107   0.073
    1res  C11   11   -0.025  -0.084   0.064
    1res  C12   12    0.174   0.005   0.102
    1res  C13   13    0.254  -0.181   0.028
    1res  C14   14    0.351   0.003   0.093
    1res  C15   15    0.073   0.189   0.168
    1res  C16   16   -0.096   0.338   0.276
    1res  C17   17    0.468   0.233   0.128
    1res  C18   18    0.490   0.139  -0.149
    1res  C19   19    0.491  -0.114  -0.208
    1res  C20   20    0.733  -0.045  -0.173
    1res  C21   21    0.933   0.023   0.022
    1res  C22   22    0.590  -0.023   0.053
    1res  C23   23    0.606  -0.385   0.105
    1res  C24   24   -0.444  -0.073   0.045
    1res  C25   25   -0.607  -0.314   0.270
  10.00000  10.00000  10.00000
