[ moleculetype ]
; name        nrexcl
res           1

[ atoms ]
;    nr  type  resnr resid  atom  cgnr     charge       mass
      1 SC4       1 res   C1        1      0.000     54.000
      2 SC3       1 res   C2        2      0.000     54.000
      3 N4a       1 res   C3        3      0.000     72.000
      4 TC5       1 res   C4        4      0.000     36.000
      5 TC5       1 res   C5        5      0.000     36.000
      6 TC5       1 res   C6        6      0.000     36.000
      7 P1        1 res   C7        7      0.000     72.000
      8 TN6a      1 res   C8        8      0.000     36.000

[ constraints ]
;  ai    aj   funct      b0(nm)
    1     2     1      0.35943
    1     8     1      0.26124
    4     5     1      0.25613
    2     8     1      0.27323
    5     6     1      0.28749
    2     7     1      0.25434
    4     6     1      0.29785

[ bonds ]
;  ai    aj   funct      b0(nm)          k(kJ/mol/nm^2)
    2     3     1      0.38278           9984.8
    3     4     1      0.31712          14534.9

[ angles ]
;  ai    aj    ak  funct     th0(deg)        k(kJ/mol/rad^2)
    1     2     3     1    111.44995           541.40
    1     2     7     1    105.58462           374.07
    1     2     8     1     46.33560          2778.76
    1     8     2     1     84.51500          2061.71
    2     1     8     1     49.14942          7739.83
    2     3     4     1    129.85766           173.00
    3     2     7     1    115.97513           381.47
    3     2     8     1    149.04052           252.94
    3     4     5     1    147.82027           209.87
    3     4     6     1     90.48964           221.47
    4     5     6     1     66.16762          2189.51
    4     6     5     1     51.83916          8512.69
    5     4     6     1     61.99316          2318.69
    7     2     8     1     92.66024           291.12

[ dihedrals ]
;  ai    aj    ak    al  funct   phi0(deg)        k(kJ/mol)   mult
    1     2     3     4     1    -87.69300       22.081      1
    1     8     2     3     1   -131.03586       18.214      1
    1     8     2     7     1     70.88468       12.867      1
    2     3     4     5     1     -1.17328       26.703      1
    2     3     4     6     1    -28.42932       27.497      1
    3     2     1     8     1     24.92455       14.361      1
    3     4     5     6     1    146.69247       17.091      1
    3     4     6     5     1    -16.96947       10.051      1
    4     3     2     7     1     33.64681       22.846      1
    4     3     2     8     1   -122.28786       24.744      1
    7     2     1     8     1   -101.05618       12.979      1
