Generated with MDTraj, t= 0.0
 52
    1UNL     C1    1  -0.619  -0.111  -0.008
    1UNL     C2    2  -0.480  -0.049  -0.025
    1UNL     C3    3  -0.384  -0.153  -0.083
    1UNL     C4    4  -0.482   0.088  -0.108
    1UNL     C5    5  -0.569   0.181  -0.017
    1UNL     C6    6  -0.529   0.138   0.128
    1UNL     C7    7  -0.424   0.024   0.107
    1UNL     C8    8  -0.398  -0.065   0.227
    1UNL     C9    9  -0.294   0.095   0.050
    1UNL     O1   10  -0.182   0.009   0.051
    1UNL    C10   11  -0.068   0.081   0.028
    1UNL     O2   12  -0.066   0.201   0.008
    1UNL    C11   13   0.057   0.005   0.028
    1UNL    C12   14   0.175   0.064   0.010
    1UNL    C13   15   0.300  -0.006   0.010
    1UNL    C14   16   0.418   0.056  -0.007
    1UNL    C15   17   0.548  -0.010  -0.007
    1UNL    C16   18   0.561  -0.149   0.004
    1UNL    C17   19   0.685  -0.210   0.004
    1UNL    C18   20   0.799  -0.132  -0.006
    1UNL    C19   21   0.788   0.010  -0.017
    1UNL    C20   22   0.663   0.069  -0.018
    1UNL     O3   23   0.914   0.066  -0.026
    1UNL    C21   24   1.003  -0.045  -0.021
    1UNL     O4   25   0.933  -0.168  -0.008
    1UNL    C22   26  -0.335   0.138  -0.095
    1UNL     H1   27  -0.658  -0.145  -0.104
    1UNL     H2   28  -0.614  -0.198   0.058
    1UNL     H3   29  -0.690  -0.042   0.034
    1UNL     H4   30  -0.382  -0.243  -0.021
    1UNL     H5   31  -0.414  -0.182  -0.184
    1UNL     H6   32  -0.282  -0.116  -0.089
    1UNL     H7   33  -0.518   0.076  -0.211
    1UNL     H8   34  -0.546   0.286  -0.036
    1UNL     H9   35  -0.676   0.168  -0.036
    1UNL    H10   36  -0.615   0.102   0.186
    1UNL    H11   37  -0.485   0.221   0.185
    1UNL    H12   38  -0.361  -0.007   0.311
    1UNL    H13   39  -0.489  -0.116   0.259
    1UNL    H14   40  -0.323  -0.141   0.203
    1UNL    H15   41  -0.268   0.181   0.112
    1UNL    H16   42   0.051  -0.101   0.044
    1UNL    H17   43   0.176   0.171  -0.006
    1UNL    H18   44   0.296  -0.112   0.025
    1UNL    H19   45   0.418   0.162  -0.020
    1UNL    H20   46   0.474  -0.210   0.011
    1UNL    H21   47   0.695  -0.316   0.012
    1UNL    H22   48   0.656   0.176  -0.026
    1UNL    H23   49   1.070  -0.033   0.065
    1UNL    H24   50   1.063  -0.047  -0.114
    1UNL    H25   51  -0.327   0.246  -0.108
    1UNL    H26   52  -0.268   0.091  -0.168
   0.00000   0.00000   0.00000   0.00000   0.00000   0.00000   0.00000   0.00000   0.00000
Generated with MDTraj, t= 1.0
 52
    1UNL     C1    1  -0.637  -0.086  -0.004
    1UNL     C2    2  -0.500  -0.042  -0.026
    1UNL     C3    3  -0.408  -0.163  -0.092
    1UNL     C4    4  -0.496   0.088  -0.118
    1UNL     C5    5  -0.557   0.200  -0.027
    1UNL     C6    6  -0.532   0.148   0.120
    1UNL     C7    7  -0.434   0.028   0.100
    1UNL     C8    8  -0.394  -0.067   0.214
    1UNL     C9    9  -0.298   0.094   0.042
    1UNL     O1   10  -0.189   0.006   0.047
    1UNL    C10   11  -0.063   0.067   0.045
    1UNL     O2   12  -0.062   0.189   0.041
    1UNL    C11   13   0.065  -0.010   0.047
    1UNL    C12   14   0.181   0.046   0.027
    1UNL    C13   15   0.312  -0.016   0.041
    1UNL    C14   16   0.422   0.049  -0.008
    1UNL    C15   17   0.551  -0.014  -0.006
    1UNL    C16   18   0.571  -0.151   0.009
    1UNL    C17   19   0.695  -0.210   0.012
    1UNL    C18   20   0.811  -0.132  -0.013
    1UNL    C19   21   0.787   0.011  -0.028
    1UNL    C20   22   0.662   0.069  -0.010
    1UNL     O3   23   0.912   0.076  -0.046
    1UNL    C21   24   1.010  -0.027  -0.030
    1UNL     O4   25   0.953  -0.158  -0.011
    1UNL    C22   26  -0.345   0.127  -0.108
    1UNL     H1   27  -0.671  -0.101  -0.106
    1UNL     H2   28  -0.641  -0.189   0.041
    1UNL     H3   29  -0.705  -0.020   0.046
    1UNL     H4   30  -0.404  -0.236  -0.012
    1UNL     H5   31  -0.452  -0.204  -0.176
    1UNL     H6   32  -0.302  -0.123  -0.106
    1UNL     H7   33  -0.533   0.076  -0.218
    1UNL     H8   34  -0.504   0.283  -0.057
    1UNL     H9   35  -0.663   0.216  -0.058
    1UNL    H10   36  -0.617   0.107   0.163
    1UNL    H11   37  -0.478   0.221   0.184
    1UNL    H12   38  -0.330   0.000   0.274
    1UNL    H13   39  -0.480  -0.106   0.272
    1UNL    H14   40  -0.339  -0.146   0.186
    1UNL    H15   41  -0.270   0.187   0.097
    1UNL    H16   42   0.076  -0.116   0.076
    1UNL    H17   43   0.173   0.148  -0.008
    1UNL    H18   44   0.319  -0.103   0.101
    1UNL    H19   45   0.420   0.140  -0.070
    1UNL    H20   46   0.489  -0.214   0.019
    1UNL    H21   47   0.701  -0.316  -0.005
    1UNL    H22   48   0.642   0.173  -0.012
    1UNL    H23   49   1.092  -0.006   0.042
    1UNL    H24   50   1.057  -0.036  -0.128
    1UNL    H25   51  -0.337   0.231  -0.124
    1UNL    H26   52  -0.290   0.072  -0.177
   0.00000   0.00000   0.00000   0.00000   0.00000   0.00000   0.00000   0.00000   0.00000
Generated with MDTraj, t= 2.0
 52
    1UNL     C1    1  -0.642  -0.083  -0.002
    1UNL     C2    2  -0.496  -0.040  -0.032
    1UNL     C3    3  -0.415  -0.146  -0.092
    1UNL     C4    4  -0.471   0.095  -0.123
    1UNL     C5    5  -0.547   0.201  -0.028
    1UNL     C6    6  -0.524   0.159   0.115
    1UNL     C7    7  -0.433   0.031   0.101
    1UNL     C8    8  -0.416  -0.056   0.225
    1UNL     C9    9  -0.291   0.079   0.036
    1UNL     O1   10  -0.186  -0.012   0.035
    1UNL    C10   11  -0.068   0.058   0.043
    1UNL     O2   12  -0.061   0.179   0.048
    1UNL    C11   13   0.057  -0.025   0.045
    1UNL    C12   14   0.176   0.042   0.043
    1UNL    C13   15   0.307  -0.019   0.023
    1UNL    C14   16   0.427   0.045   0.023
    1UNL    C15   17   0.556  -0.017   0.002
    1UNL    C16   18   0.580  -0.158   0.031
    1UNL    C17   19   0.706  -0.217   0.022
    1UNL    C18   20   0.809  -0.127  -0.005
    1UNL    C19   21   0.787   0.011  -0.032
    1UNL    C20   22   0.665   0.066  -0.033
    1UNL     O3   23   0.896   0.085  -0.049
    1UNL    C21   24   0.994  -0.012  -0.053
    1UNL     O4   25   0.939  -0.146  -0.020
    1UNL    C22   26  -0.321   0.118  -0.109
    1UNL     H1   27  -0.681  -0.182  -0.028
    1UNL     H2   28  -0.672  -0.067   0.104
    1UNL     H3   29  -0.700  -0.014  -0.061
    1UNL     H4   30  -0.438  -0.238  -0.038
    1UNL     H5   31  -0.436  -0.158  -0.193
    1UNL     H6   32  -0.306  -0.125  -0.072
    1UNL     H7   33  -0.502   0.101  -0.224
    1UNL     H8   34  -0.507   0.292  -0.045
    1UNL     H9   35  -0.655   0.223  -0.052
    1UNL    H10   36  -0.610   0.130   0.162
    1UNL    H11   37  -0.464   0.235   0.171
    1UNL    H12   38  -0.397   0.009   0.310
    1UNL    H13   39  -0.507  -0.115   0.232
    1UNL    H14   40  -0.340  -0.128   0.216
    1UNL    H15   41  -0.269   0.170   0.102
    1UNL    H16   42   0.032  -0.126   0.035
    1UNL    H17   43   0.174   0.141   0.089
    1UNL    H18   44   0.305  -0.131   0.006
    1UNL    H19   45   0.431   0.148   0.047
    1UNL    H20   46   0.491  -0.229   0.040
    1UNL    H21   47   0.719  -0.324  -0.003
    1UNL    H22   48   0.652   0.175  -0.053
    1UNL    H23   49   1.056   0.014   0.038
    1UNL    H24   50   1.059  -0.015  -0.143
    1UNL    H25   51  -0.295   0.215  -0.131
    1UNL    H26   52  -0.272   0.056  -0.175
   0.00000   0.00000   0.00000   0.00000   0.00000   0.00000   0.00000   0.00000   0.00000
Generated with MDTraj, t= 3.0
 52
    1UNL     C1    1  -0.639  -0.071  -0.031
    1UNL     C2    2  -0.485  -0.032  -0.034
    1UNL     C3    3  -0.405  -0.150  -0.079
    1UNL     C4    4  -0.469   0.101  -0.117
    1UNL     C5    5  -0.548   0.206  -0.034
    1UNL     C6    6  -0.528   0.155   0.115
    1UNL     C7    7  -0.430   0.031   0.106
    1UNL     C8    8  -0.425  -0.055   0.228
    1UNL     C9    9  -0.288   0.088   0.044
    1UNL     O1   10  -0.181  -0.012   0.038
    1UNL    C10   11  -0.063   0.049   0.045
    1UNL     O2   12  -0.055   0.170   0.043
    1UNL    C11   13   0.059  -0.040   0.043
    1UNL    C12   14   0.177   0.015   0.024
    1UNL    C13   15   0.300  -0.044   0.023
    1UNL    C14   16   0.407   0.035   0.025
    1UNL    C15   17   0.545  -0.012   0.025
    1UNL    C16   18   0.575  -0.148   0.051
    1UNL    C17   19   0.701  -0.198   0.027
    1UNL    C18   20   0.810  -0.119  -0.008
    1UNL    C19   21   0.782   0.020  -0.022
    1UNL    C20   22   0.654   0.069  -0.010
    1UNL     O3   23   0.900   0.083  -0.064
    1UNL    C21   24   1.002  -0.015  -0.069
    1UNL     O4   25   0.945  -0.144  -0.040
    1UNL    C22   26  -0.317   0.142  -0.102
    1UNL     H1   27  -0.648  -0.153   0.043
    1UNL     H2   28  -0.706   0.004   0.009
    1UNL     H3   29  -0.669  -0.122  -0.125
    1UNL     H4   30  -0.423  -0.241  -0.020
    1UNL     H5   31  -0.437  -0.182  -0.178
    1UNL     H6   32  -0.299  -0.144  -0.083
    1UNL     H7   33  -0.496   0.070  -0.213
    1UNL     H8   34  -0.517   0.307  -0.052
    1UNL     H9   35  -0.655   0.216  -0.064
    1UNL    H10   36  -0.620   0.117   0.152
    1UNL    H11   37  -0.481   0.224   0.186
    1UNL    H12   38  -0.363  -0.009   0.300
    1UNL    H13   39  -0.520  -0.085   0.262
    1UNL    H14   40  -0.374  -0.153   0.204
    1UNL    H15   41  -0.271   0.172   0.122
    1UNL    H16   42   0.040  -0.145   0.077
    1UNL    H17   43   0.178   0.124   0.029
    1UNL    H18   44   0.307  -0.147   0.023
    1UNL    H19   45   0.384   0.143   0.031
    1UNL    H20   46   0.498  -0.217   0.055
    1UNL    H21   47   0.723  -0.299   0.040
    1UNL    H22   48   0.641   0.171  -0.009
    1UNL    H23   49   1.098  -0.003  -0.010
    1UNL    H24   50   1.023  -0.022  -0.176
    1UNL    H25   51  -0.295   0.239  -0.122
    1UNL    H26   52  -0.256   0.098  -0.171
   0.00000   0.00000   0.00000   0.00000   0.00000   0.00000   0.00000   0.00000   0.00000
Generated with MDTraj, t= 4.0
 52
    1UNL     C1    1  -0.631  -0.077  -0.037
    1UNL     C2    2  -0.483  -0.039  -0.042
    1UNL     C3    3  -0.393  -0.154  -0.097
    1UNL     C4    4  -0.463   0.109  -0.115
    1UNL     C5    5  -0.546   0.201  -0.029
    1UNL     C6    6  -0.534   0.152   0.116
    1UNL     C7    7  -0.432   0.025   0.096
    1UNL     C8    8  -0.427  -0.064   0.217
    1UNL     C9    9  -0.294   0.087   0.060
    1UNL     O1   10  -0.189   0.001   0.069
    1UNL    C10   11  -0.066   0.065   0.040
    1UNL     O2   12  -0.059   0.182   0.006
    1UNL    C11   13   0.047  -0.022   0.042
    1UNL    C12   14   0.166   0.029   0.052
    1UNL    C13   15   0.292  -0.044   0.054
    1UNL    C14   16   0.408   0.021   0.032
    1UNL    C15   17   0.546  -0.024   0.022
    1UNL    C16   18   0.583  -0.156   0.040
    1UNL    C17   19   0.712  -0.207   0.026
    1UNL    C18   20   0.813  -0.120  -0.015
    1UNL    C19   21   0.778   0.019  -0.034
    1UNL    C20   22   0.650   0.064  -0.009
    1UNL     O3   23   0.901   0.088  -0.077
    1UNL    C21   24   1.000  -0.017  -0.079
    1UNL     O4   25   0.953  -0.142  -0.028
    1UNL    C22   26  -0.313   0.133  -0.082
    1UNL     H1   27  -0.663  -0.053   0.066
    1UNL     H2   28  -0.693  -0.010  -0.094
    1UNL     H3   29  -0.645  -0.188  -0.054
    1UNL     H4   30  -0.386  -0.253  -0.053
    1UNL     H5   31  -0.429  -0.173  -0.203
    1UNL     H6   32  -0.298  -0.118  -0.109
    1UNL     H7   33  -0.495   0.116  -0.214
    1UNL     H8   34  -0.522   0.315  -0.032
    1UNL     H9   35  -0.647   0.209  -0.069
    1UNL    H10   36  -0.627   0.121   0.165
    1UNL    H11   37  -0.478   0.222   0.175
    1UNL    H12   38  -0.388  -0.017   0.302
    1UNL    H13   39  -0.518  -0.112   0.229
    1UNL    H14   40  -0.356  -0.153   0.201
    1UNL    H15   41  -0.267   0.176   0.130
    1UNL    H16   42   0.036  -0.124   0.056
    1UNL    H17   43   0.170   0.137   0.038
    1UNL    H18   44   0.291  -0.152   0.074
    1UNL    H19   45   0.392   0.123   0.011
    1UNL    H20   46   0.499  -0.219   0.073
    1UNL    H21   47   0.737  -0.309   0.066
    1UNL    H22   48   0.625   0.174  -0.016
    1UNL    H23   49   1.072   0.008   0.003
    1UNL    H24   50   1.053  -0.034  -0.172
    1UNL    H25   51  -0.285   0.232  -0.088
    1UNL    H26   52  -0.244   0.091  -0.148
   0.00000   0.00000   0.00000   0.00000   0.00000   0.00000   0.00000   0.00000   0.00000
Generated with MDTraj, t= 5.0
 52
    1UNL     C1    1  -0.620  -0.100  -0.044
    1UNL     C2    2  -0.480  -0.031  -0.044
    1UNL     C3    3  -0.377  -0.130  -0.110
    1UNL     C4    4  -0.470   0.105  -0.117
    1UNL     C5    5  -0.553   0.200  -0.022
    1UNL     C6    6  -0.525   0.141   0.121
    1UNL     C7    7  -0.432   0.021   0.094
    1UNL     C8    8  -0.428  -0.076   0.217
    1UNL     C9    9  -0.295   0.089   0.057
    1UNL     O1   10  -0.188  -0.003   0.076
    1UNL    C10   11  -0.072   0.061   0.050
    1UNL     O2   12  -0.055   0.177   0.014
    1UNL    C11   13   0.049  -0.017   0.076
    1UNL    C12   14   0.167   0.044   0.049
    1UNL    C13   15   0.299  -0.024   0.054
    1UNL    C14   16   0.415   0.040   0.023
    1UNL    C15   17   0.548  -0.020   0.017
    1UNL    C16   18   0.575  -0.159   0.042
    1UNL    C17   19   0.705  -0.210   0.026
    1UNL    C18   20   0.806  -0.121  -0.012
    1UNL    C19   21   0.784   0.017  -0.043
    1UNL    C20   22   0.655   0.062  -0.040
    1UNL     O3   23   0.903   0.078  -0.077
    1UNL    C21   24   0.995  -0.023  -0.059
    1UNL     O4   25   0.933  -0.151  -0.029
    1UNL    C22   26  -0.320   0.149  -0.089
    1UNL     H1   27  -0.712  -0.042  -0.070
    1UNL     H2   28  -0.618  -0.170  -0.130
    1UNL     H3   29  -0.636  -0.164   0.047
    1UNL     H4   30  -0.400  -0.229  -0.079
    1UNL     H5   31  -0.399  -0.125  -0.220
    1UNL     H6   32  -0.276  -0.100  -0.082
    1UNL     H7   33  -0.503   0.095  -0.215
    1UNL     H8   34  -0.543   0.320  -0.035
    1UNL     H9   35  -0.655   0.195  -0.051
    1UNL    H10   36  -0.623   0.097   0.160
    1UNL    H11   37  -0.479   0.211   0.184
    1UNL    H12   38  -0.413  -0.008   0.298
    1UNL    H13   39  -0.515  -0.133   0.230
    1UNL    H14   40  -0.342  -0.145   0.224
    1UNL    H15   41  -0.272   0.176   0.131
    1UNL    H16   42   0.055  -0.126   0.084
    1UNL    H17   43   0.167   0.148   0.027
    1UNL    H18   44   0.291  -0.131   0.068
    1UNL    H19   45   0.413   0.150   0.004
    1UNL    H20   46   0.503  -0.210   0.109
    1UNL    H21   47   0.722  -0.311   0.048
    1UNL    H22   48   0.637   0.152  -0.089
    1UNL    H23   49   1.065   0.006   0.021
    1UNL    H24   50   1.052  -0.048  -0.146
    1UNL    H25   51  -0.301   0.254  -0.095
    1UNL    H26   52  -0.251   0.101  -0.152
   0.00000   0.00000   0.00000   0.00000   0.00000   0.00000   0.00000   0.00000   0.00000
Generated with MDTraj, t= 6.0
 52
    1UNL     C1    1  -0.617  -0.093  -0.069
    1UNL     C2    2  -0.473  -0.045  -0.047
    1UNL     C3    3  -0.369  -0.153  -0.089
    1UNL     C4    4  -0.458   0.097  -0.113
    1UNL     C5    5  -0.565   0.174  -0.022
    1UNL     C6    6  -0.531   0.132   0.120
    1UNL     C7    7  -0.431   0.021   0.098
    1UNL     C8    8  -0.424  -0.089   0.207
    1UNL     C9    9  -0.295   0.092   0.061
    1UNL     O1   10  -0.184   0.003   0.069
    1UNL    C10   11  -0.061   0.072   0.059
    1UNL     O2   12  -0.057   0.193   0.059
    1UNL    C11   13   0.068   0.004   0.067
    1UNL    C12   14   0.182   0.064   0.023
    1UNL    C13   15   0.303  -0.004   0.033
    1UNL    C14   16   0.413   0.058  -0.008
    1UNL    C15   17   0.540  -0.012   0.007
    1UNL    C16   18   0.562  -0.150   0.039
    1UNL    C17   19   0.688  -0.198   0.034
    1UNL    C18   20   0.797  -0.123   0.000
    1UNL    C19   21   0.779   0.010  -0.038
    1UNL    C20   22   0.650   0.060  -0.032
    1UNL     O3   23   0.903   0.064  -0.070
    1UNL    C21   24   0.992  -0.044  -0.073
    1UNL     O4   25   0.931  -0.164  -0.013
    1UNL    C22   26  -0.322   0.154  -0.075
    1UNL     H1   27  -0.683  -0.045   0.007
    1UNL     H2   28  -0.660  -0.045  -0.164
    1UNL     H3   29  -0.643  -0.200  -0.068
    1UNL     H4   30  -0.392  -0.236  -0.028
    1UNL     H5   31  -0.385  -0.188  -0.191
    1UNL     H6   32  -0.264  -0.110  -0.068
    1UNL     H7   33  -0.467   0.097  -0.217
    1UNL     H8   34  -0.547   0.290  -0.038
    1UNL     H9   35  -0.670   0.174  -0.044
    1UNL    H10   36  -0.627   0.103   0.175
    1UNL    H11   37  -0.488   0.219   0.159
    1UNL    H12   38  -0.378  -0.058   0.301
    1UNL    H13   39  -0.520  -0.138   0.218
    1UNL    H14   40  -0.364  -0.162   0.169
    1UNL    H15   41  -0.272   0.181   0.132
    1UNL    H16   42   0.059  -0.103   0.087
    1UNL    H17   43   0.179   0.161  -0.032
    1UNL    H18   44   0.301  -0.100   0.073
    1UNL    H19   45   0.406   0.151  -0.057
    1UNL    H20   46   0.493  -0.212   0.080
    1UNL    H21   47   0.713  -0.298   0.075
    1UNL    H22   48   0.635   0.158  -0.078
    1UNL    H23   49   1.093  -0.030  -0.031
    1UNL    H24   50   1.011  -0.077  -0.176
    1UNL    H25   51  -0.333   0.263  -0.060
    1UNL    H26   52  -0.244   0.119  -0.145
   0.00000   0.00000   0.00000   0.00000   0.00000   0.00000   0.00000   0.00000   0.00000
Generated with MDTraj, t= 7.0
 52
    1UNL     C1    1  -0.593  -0.117  -0.056
    1UNL     C2    2  -0.460  -0.045  -0.050
    1UNL     C3    3  -0.359  -0.144  -0.115
    1UNL     C4    4  -0.466   0.101  -0.116
    1UNL     C5    5  -0.572   0.180  -0.032
    1UNL     C6    6  -0.544   0.128   0.120
    1UNL     C7    7  -0.432   0.012   0.098
    1UNL     C8    8  -0.416  -0.098   0.205
    1UNL     C9    9  -0.296   0.087   0.081
    1UNL     O1   10  -0.183   0.006   0.093
    1UNL    C10   11  -0.076   0.087   0.074
    1UNL     O2   12  -0.074   0.209   0.073
    1UNL    C11   13   0.049   0.019   0.042
    1UNL    C12   14   0.170   0.079   0.041
    1UNL    C13   15   0.293   0.016   0.009
    1UNL    C14   16   0.419   0.067   0.005
    1UNL    C15   17   0.550   0.000  -0.010
    1UNL    C16   18   0.561  -0.131   0.035
    1UNL    C17   19   0.681  -0.205   0.036
    1UNL    C18   20   0.792  -0.138  -0.012
    1UNL    C19   21   0.789   0.002  -0.054
    1UNL    C20   22   0.665   0.065  -0.053
    1UNL     O3   23   0.916   0.049  -0.089
    1UNL    C21   24   0.997  -0.058  -0.048
    1UNL     O4   25   0.926  -0.179   0.002
    1UNL    C22   26  -0.317   0.147  -0.075
    1UNL     H1   27  -0.673  -0.059  -0.005
    1UNL     H2   28  -0.631  -0.131  -0.165
    1UNL     H3   29  -0.588  -0.214  -0.005
    1UNL     H4   30  -0.353  -0.245  -0.074
    1UNL     H5   31  -0.384  -0.159  -0.220
    1UNL     H6   32  -0.252  -0.105  -0.116
    1UNL     H7   33  -0.489   0.096  -0.218
    1UNL     H8   34  -0.579   0.290  -0.048
    1UNL     H9   35  -0.675   0.151  -0.061
    1UNL    H10   36  -0.634   0.083   0.170
    1UNL    H11   37  -0.507   0.209   0.178
    1UNL    H12   38  -0.395  -0.045   0.297
    1UNL    H13   39  -0.503  -0.162   0.214
    1UNL    H14   40  -0.337  -0.161   0.191
    1UNL    H15   41  -0.293   0.174   0.155
    1UNL    H16   42   0.042  -0.084   0.026
    1UNL    H17   43   0.166   0.182   0.034
    1UNL    H18   44   0.289  -0.095  -0.001
    1UNL    H19   45   0.423   0.177   0.009
    1UNL    H20   46   0.470  -0.182   0.081
    1UNL    H21   47   0.699  -0.291   0.096
    1UNL    H22   48   0.664   0.175  -0.059
    1UNL    H23   49   1.039  -0.036   0.053
    1UNL    H24   50   1.078  -0.090  -0.117
    1UNL    H25   51  -0.302   0.259  -0.083
    1UNL    H26   52  -0.250   0.090  -0.146
   0.00000   0.00000   0.00000   0.00000   0.00000   0.00000   0.00000   0.00000   0.00000
Generated with MDTraj, t= 8.0
 52
    1UNL     C1    1  -0.591  -0.135  -0.068
    1UNL     C2    2  -0.455  -0.050  -0.052
    1UNL     C3    3  -0.343  -0.130  -0.112
    1UNL     C4    4  -0.464   0.103  -0.106
    1UNL     C5    5  -0.571   0.158  -0.013
    1UNL     C6    6  -0.540   0.101   0.126
    1UNL     C7    7  -0.417   0.008   0.100
    1UNL     C8    8  -0.404  -0.094   0.209
    1UNL     C9    9  -0.293   0.098   0.065
    1UNL     O1   10  -0.180   0.022   0.068
    1UNL    C10   11  -0.068   0.101   0.063
    1UNL     O2   12  -0.078   0.222   0.068
    1UNL    C11   13   0.059   0.031   0.054
    1UNL    C12   14   0.176   0.089   0.037
    1UNL    C13   15   0.299   0.013   0.034
    1UNL    C14   16   0.411   0.067  -0.019
    1UNL    C15   17   0.538   0.002  -0.006
    1UNL    C16   18   0.543  -0.132   0.034
    1UNL    C17   19   0.668  -0.202   0.033
    1UNL    C18   20   0.788  -0.133   0.010
    1UNL    C19   21   0.783   0.000  -0.039
    1UNL    C20   22   0.660   0.064  -0.051
    1UNL     O3   23   0.907   0.040  -0.074
    1UNL    C21   24   0.989  -0.070  -0.057
    1UNL     O4   25   0.917  -0.184  -0.009
    1UNL    C22   26  -0.321   0.157  -0.075
    1UNL     H1   27  -0.685  -0.092  -0.023
    1UNL     H2   28  -0.605  -0.168  -0.176
    1UNL     H3   29  -0.559  -0.227  -0.011
    1UNL     H4   30  -0.318  -0.232  -0.067
    1UNL     H5   31  -0.360  -0.156  -0.217
    1UNL     H6   32  -0.248  -0.086  -0.117
    1UNL     H7   33  -0.489   0.116  -0.208
    1UNL     H8   34  -0.573   0.260  -0.009
    1UNL     H9   35  -0.674   0.129  -0.053
    1UNL    H10   36  -0.619   0.039   0.169
    1UNL    H11   37  -0.510   0.182   0.195
    1UNL    H12   38  -0.396  -0.051   0.306
    1UNL    H13   39  -0.481  -0.168   0.199
    1UNL    H14   40  -0.311  -0.153   0.197
    1UNL    H15   41  -0.289   0.176   0.150
    1UNL    H16   42   0.056  -0.081   0.058
    1UNL    H17   43   0.175   0.201   0.015
    1UNL    H18   44   0.305  -0.077   0.089
    1UNL    H19   45   0.413   0.163  -0.063
    1UNL    H20   46   0.455  -0.191   0.046
    1UNL    H21   47   0.657  -0.306   0.068
    1UNL    H22   48   0.661   0.164  -0.078
    1UNL    H23   49   1.077  -0.062   0.010
    1UNL    H24   50   1.018  -0.111  -0.157
    1UNL    H25   51  -0.320   0.269  -0.049
    1UNL    H26   52  -0.238   0.131  -0.151
   0.00000   0.00000   0.00000   0.00000   0.00000   0.00000   0.00000   0.00000   0.00000
Generated with MDTraj, t= 9.0
 52
    1UNL     C1    1  -0.582  -0.138  -0.069
    1UNL     C2    2  -0.454  -0.057  -0.057
    1UNL     C3    3  -0.335  -0.131  -0.113
    1UNL     C4    4  -0.469   0.094  -0.109
    1UNL     C5    5  -0.582   0.156  -0.004
    1UNL     C6    6  -0.545   0.087   0.128
    1UNL     C7    7  -0.420  -0.007   0.095
    1UNL     C8    8  -0.396  -0.111   0.207
    1UNL     C9    9  -0.299   0.098   0.069
    1UNL     O1   10  -0.169   0.032   0.067
    1UNL    C10   11  -0.064   0.124   0.055
    1UNL     O2   12  -0.068   0.243   0.027
    1UNL    C11   13   0.065   0.053   0.085
    1UNL    C12   14   0.181   0.096   0.025
    1UNL    C13   15   0.302   0.019   0.038
    1UNL    C14   16   0.421   0.075   0.000
    1UNL    C15   17   0.545  -0.003   0.004
    1UNL    C16   18   0.550  -0.139   0.031
    1UNL    C17   19   0.668  -0.210   0.034
    1UNL    C18   20   0.781  -0.144  -0.001
    1UNL    C19   21   0.773  -0.010  -0.040
    1UNL    C20   22   0.656   0.061  -0.038
    1UNL     O3   23   0.898   0.036  -0.076
    1UNL    C21   24   0.987  -0.069  -0.056
    1UNL     O4   25   0.916  -0.189  -0.017
    1UNL    C22   26  -0.345   0.173  -0.064
    1UNL     H1   27  -0.662  -0.082  -0.012
    1UNL     H2   28  -0.614  -0.145  -0.174
    1UNL     H3   29  -0.575  -0.247  -0.027
    1UNL     H4   30  -0.326  -0.237  -0.069
    1UNL     H5   31  -0.339  -0.139  -0.221
    1UNL     H6   32  -0.247  -0.079  -0.091
    1UNL     H7   33  -0.487   0.099  -0.215
    1UNL     H8   34  -0.580   0.258   0.003
    1UNL     H9   35  -0.689   0.131  -0.034
    1UNL    H10   36  -0.618   0.014   0.157
    1UNL    H11   37  -0.527   0.146   0.223
    1UNL    H12   38  -0.350  -0.068   0.290
    1UNL    H13   39  -0.481  -0.170   0.225
    1UNL    H14   40  -0.316  -0.184   0.171
    1UNL    H15   41  -0.307   0.170   0.154
    1UNL    H16   42   0.059  -0.035   0.140
    1UNL    H17   43   0.189   0.189  -0.020
    1UNL    H18   44   0.296  -0.080   0.080
    1UNL    H19   45   0.426   0.182  -0.021
    1UNL    H20   46   0.464  -0.184   0.075
    1UNL    H21   47   0.663  -0.316   0.030
    1UNL    H22   48   0.653   0.171  -0.057
    1UNL    H23   49   1.044  -0.050   0.034
    1UNL    H24   50   1.050  -0.106  -0.139
    1UNL    H25   51  -0.368   0.288  -0.055
    1UNL    H26   52  -0.260   0.150  -0.138
   0.00000   0.00000   0.00000   0.00000   0.00000   0.00000   0.00000   0.00000   0.00000
Generated with MDTraj, t= 10.0
 52
    1UNL     C1    1  -0.565  -0.140  -0.049
    1UNL     C2    2  -0.446  -0.045  -0.055
    1UNL     C3    3  -0.317  -0.118  -0.121
    1UNL     C4    4  -0.478   0.103  -0.108
    1UNL     C5    5  -0.584   0.154  -0.008
    1UNL     C6    6  -0.560   0.081   0.120
    1UNL     C7    7  -0.426  -0.004   0.098
    1UNL     C8    8  -0.381  -0.108   0.201
    1UNL     C9    9  -0.307   0.100   0.077
    1UNL     O1   10  -0.189   0.033   0.086
    1UNL    C10   11  -0.077   0.107   0.045
    1UNL     O2   12  -0.082   0.221   0.007
    1UNL    C11   13   0.055   0.042   0.051
    1UNL    C12   14   0.176   0.105   0.047
    1UNL    C13   15   0.305   0.040   0.047
    1UNL    C14   16   0.427   0.078   0.007
    1UNL    C15   17   0.548   0.002  -0.006
    1UNL    C16   18   0.547  -0.134   0.032
    1UNL    C17   19   0.660  -0.211   0.039
    1UNL    C18   20   0.780  -0.150  -0.006
    1UNL    C19   21   0.782  -0.011  -0.046
    1UNL    C20   22   0.669   0.067  -0.032
    1UNL     O3   23   0.912   0.035  -0.065
    1UNL    C21   24   0.994  -0.076  -0.066
    1UNL     O4   25   0.913  -0.196  -0.019
    1UNL    C22   26  -0.346   0.168  -0.054
    1UNL     H1   27  -0.666  -0.098  -0.020
    1UNL     H2   28  -0.579  -0.177  -0.154
    1UNL     H3   29  -0.553  -0.240   0.009
    1UNL     H4   30  -0.326  -0.222  -0.082
    1UNL     H5   31  -0.335  -0.118  -0.229
    1UNL     H6   32  -0.224  -0.071  -0.091
    1UNL     H7   33  -0.497   0.111  -0.215
    1UNL     H8   34  -0.550   0.258  -0.004
    1UNL     H9   35  -0.685   0.157  -0.052
    1UNL    H10   36  -0.641   0.023   0.156
    1UNL    H11   37  -0.537   0.152   0.207
    1UNL    H12   38  -0.383  -0.064   0.297
    1UNL    H13   39  -0.439  -0.195   0.187
    1UNL    H14   40  -0.273  -0.137   0.188
    1UNL    H15   41  -0.303   0.179   0.155
    1UNL    H16   42   0.053  -0.068   0.062
    1UNL    H17   43   0.173   0.216   0.057
    1UNL    H18   44   0.304  -0.058   0.099
    1UNL    H19   45   0.431   0.177  -0.038
    1UNL    H20   46   0.450  -0.176   0.068
    1UNL    H21   47   0.668  -0.317   0.058
    1UNL    H22   48   0.687   0.169  -0.036
    1UNL    H23   49   1.081  -0.074  -0.004
    1UNL    H24   50   1.016  -0.104  -0.169
    1UNL    H25   51  -0.367   0.284  -0.036
    1UNL    H26   52  -0.258   0.159  -0.130
   0.00000   0.00000   0.00000   0.00000   0.00000   0.00000   0.00000   0.00000   0.00000
Generated with MDTraj, t= 11.0
 52
    1UNL     C1    1  -0.570  -0.144  -0.065
    1UNL     C2    2  -0.447  -0.053  -0.048
    1UNL     C3    3  -0.326  -0.127  -0.102
    1UNL     C4    4  -0.457   0.096  -0.106
    1UNL     C5    5  -0.571   0.160  -0.010
    1UNL     C6    6  -0.551   0.083   0.129
    1UNL     C7    7  -0.423   0.003   0.101
    1UNL     C8    8  -0.394  -0.107   0.202
    1UNL     C9    9  -0.293   0.107   0.082
    1UNL     O1   10  -0.179   0.027   0.072
    1UNL    C10   11  -0.070   0.107   0.045
    1UNL     O2   12  -0.082   0.225   0.024
    1UNL    C11   13   0.061   0.041   0.055
    1UNL    C12   14   0.173   0.091   0.006
    1UNL    C13   15   0.299   0.029   0.014
    1UNL    C14   16   0.418   0.086   0.015
    1UNL    C15   17   0.539   0.006   0.020
    1UNL    C16   18   0.543  -0.134   0.049
    1UNL    C17   19   0.659  -0.205   0.026
    1UNL    C18   20   0.782  -0.145  -0.008
    1UNL    C19   21   0.775  -0.002  -0.025
    1UNL    C20   22   0.659   0.074  -0.024
    1UNL     O3   23   0.897   0.029  -0.073
    1UNL    C21   24   0.987  -0.077  -0.062
    1UNL     O4   25   0.906  -0.193  -0.029
    1UNL    C22   26  -0.323   0.169  -0.060
    1UNL     H1   27  -0.649  -0.111   0.008
    1UNL     H2   28  -0.619  -0.144  -0.170
    1UNL     H3   29  -0.547  -0.252  -0.042
    1UNL     H4   30  -0.306  -0.215  -0.046
    1UNL     H5   31  -0.348  -0.147  -0.208
    1UNL     H6   32  -0.235  -0.058  -0.089
    1UNL     H7   33  -0.488   0.095  -0.212
    1UNL     H8   34  -0.558   0.273  -0.008
    1UNL     H9   35  -0.664   0.139  -0.055
    1UNL    H10   36  -0.634   0.018   0.143
    1UNL    H11   37  -0.545   0.140   0.229
    1UNL    H12   38  -0.343  -0.067   0.290
    1UNL    H13   39  -0.487  -0.159   0.216
    1UNL    H14   40  -0.327  -0.180   0.165
    1UNL    H15   41  -0.282   0.174   0.168
    1UNL    H16   42   0.074  -0.051   0.110
    1UNL    H17   43   0.168   0.193  -0.029
    1UNL    H18   44   0.297  -0.072   0.038
    1UNL    H19   45   0.425   0.188  -0.016
    1UNL    H20   46   0.454  -0.184   0.064
    1UNL    H21   47   0.652  -0.315   0.030
    1UNL    H22   48   0.663   0.183  -0.034
    1UNL    H23   49   1.051  -0.070   0.025
    1UNL    H24   50   1.041  -0.106  -0.156
    1UNL    H25   51  -0.326   0.287  -0.062
    1UNL    H26   52  -0.239   0.150  -0.139
   0.00000   0.00000   0.00000   0.00000   0.00000   0.00000   0.00000   0.00000   0.00000
Generated with MDTraj, t= 12.0
 52
    1UNL     C1    1  -0.585  -0.132  -0.064
    1UNL     C2    2  -0.453  -0.051  -0.050
    1UNL     C3    3  -0.347  -0.142  -0.105
    1UNL     C4    4  -0.464   0.099  -0.106
    1UNL     C5    5  -0.574   0.164  -0.015
    1UNL     C6    6  -0.551   0.094   0.123
    1UNL     C7    7  -0.424   0.005   0.105
    1UNL     C8    8  -0.404  -0.101   0.217
    1UNL     C9    9  -0.297   0.094   0.068
    1UNL     O1   10  -0.174   0.026   0.060
    1UNL    C10   11  -0.064   0.111   0.049
    1UNL     O2   12  -0.063   0.231   0.058
    1UNL    C11   13   0.057   0.033   0.035
    1UNL    C12   14   0.176   0.092   0.050
    1UNL    C13   15   0.297   0.014   0.019
    1UNL    C14   16   0.421   0.072   0.010
    1UNL    C15   17   0.544   0.005  -0.003
    1UNL    C16   18   0.549  -0.129   0.031
    1UNL    C17   19   0.662  -0.205   0.028
    1UNL    C18   20   0.779  -0.137   0.002
    1UNL    C19   21   0.776  -0.003  -0.032
    1UNL    C20   22   0.664   0.068  -0.040
    1UNL     O3   23   0.912   0.040  -0.063
    1UNL    C21   24   0.988  -0.074  -0.067
    1UNL     O4   25   0.914  -0.183  -0.016
    1UNL    C22   26  -0.328   0.153  -0.071
    1UNL     H1   27  -0.678  -0.069  -0.086
    1UNL     H2   28  -0.568  -0.208  -0.152
    1UNL     H3   29  -0.592  -0.194   0.028
    1UNL     H4   30  -0.356  -0.238  -0.062
    1UNL     H5   31  -0.359  -0.153  -0.215
    1UNL     H6   32  -0.238  -0.122  -0.083
    1UNL     H7   33  -0.489   0.107  -0.215
    1UNL     H8   34  -0.556   0.277   0.007
    1UNL     H9   35  -0.669   0.149  -0.054
    1UNL    H10   36  -0.644   0.042   0.145
    1UNL    H11   37  -0.533   0.169   0.205
    1UNL    H12   38  -0.391  -0.065   0.320
    1UNL    H13   39  -0.486  -0.170   0.196
    1UNL    H14   40  -0.324  -0.161   0.202
    1UNL    H15   41  -0.278   0.164   0.147
    1UNL    H16   42   0.051  -0.069   0.008
    1UNL    H17   43   0.189   0.190   0.090
    1UNL    H18   44   0.283  -0.095   0.004
    1UNL    H19   45   0.427   0.181  -0.009
    1UNL    H20   46   0.450  -0.176   0.044
    1UNL    H21   47   0.665  -0.305   0.061
    1UNL    H22   48   0.663   0.171  -0.070
    1UNL    H23   49   1.077  -0.073  -0.003
    1UNL    H24   50   1.015  -0.111  -0.172
    1UNL    H25   51  -0.311   0.267  -0.064
    1UNL    H26   52  -0.251   0.129  -0.155
   0.00000   0.00000   0.00000   0.00000   0.00000   0.00000   0.00000   0.00000   0.00000
Generated with MDTraj, t= 13.0
 52
    1UNL     C1    1  -0.607  -0.125  -0.036
    1UNL     C2    2  -0.469  -0.055  -0.051
    1UNL     C3    3  -0.360  -0.138  -0.134
    1UNL     C4    4  -0.480   0.090  -0.118
    1UNL     C5    5  -0.579   0.169  -0.024
    1UNL     C6    6  -0.537   0.126   0.122
    1UNL     C7    7  -0.431   0.009   0.089
    1UNL     C8    8  -0.408  -0.081   0.211
    1UNL     C9    9  -0.297   0.090   0.059
    1UNL     O1   10  -0.175   0.013   0.058
    1UNL    C10   11  -0.071   0.094   0.071
    1UNL     O2   12  -0.076   0.212   0.082
    1UNL    C11   13   0.057   0.024   0.073
    1UNL    C12   14   0.171   0.081   0.035
    1UNL    C13   15   0.299   0.013   0.037
    1UNL    C14   16   0.423   0.068   0.006
    1UNL    C15   17   0.552   0.000  -0.000
    1UNL    C16   18   0.558  -0.139   0.028
    1UNL    C17   19   0.679  -0.208   0.025
    1UNL    C18   20   0.794  -0.141  -0.023
    1UNL    C19   21   0.788   0.002  -0.049
    1UNL    C20   22   0.669   0.072  -0.034
    1UNL     O3   23   0.918   0.044  -0.073
    1UNL    C21   24   1.004  -0.060  -0.043
    1UNL     O4   25   0.928  -0.179  -0.021
    1UNL    C22   26  -0.340   0.152  -0.081
    1UNL     H1   27  -0.671  -0.097   0.056
    1UNL     H2   28  -0.669  -0.106  -0.130
    1UNL     H3   29  -0.588  -0.236  -0.028
    1UNL     H4   30  -0.345  -0.240  -0.100
    1UNL     H5   31  -0.384  -0.142  -0.244
    1UNL     H6   32  -0.259  -0.104  -0.124
    1UNL     H7   33  -0.496   0.094  -0.230
    1UNL     H8   34  -0.561   0.283  -0.027
    1UNL     H9   35  -0.680   0.146  -0.035
    1UNL    H10   36  -0.626   0.084   0.176
    1UNL    H11   37  -0.501   0.208   0.187
    1UNL    H12   38  -0.378  -0.024   0.300
    1UNL    H13   39  -0.483  -0.159   0.223
    1UNL    H14   40  -0.321  -0.140   0.200
    1UNL    H15   41  -0.278   0.164   0.131
    1UNL    H16   42   0.053  -0.083   0.107
    1UNL    H17   43   0.178   0.189   0.004
    1UNL    H18   44   0.301  -0.094   0.042
    1UNL    H19   45   0.421   0.168  -0.027
    1UNL    H20   46   0.478  -0.176   0.088
    1UNL    H21   47   0.693  -0.309   0.071
    1UNL    H22   48   0.663   0.178  -0.043
    1UNL    H23   49   1.061  -0.047   0.051
    1UNL    H24   50   1.081  -0.083  -0.123
    1UNL    H25   51  -0.340   0.262  -0.083
    1UNL    H26   52  -0.261   0.122  -0.152
   0.00000   0.00000   0.00000   0.00000   0.00000   0.00000   0.00000   0.00000   0.00000
Generated with MDTraj, t= 14.0
 52
    1UNL     C1    1  -0.622  -0.102  -0.047
    1UNL     C2    2  -0.481  -0.044  -0.051
    1UNL     C3    3  -0.381  -0.148  -0.095
    1UNL     C4    4  -0.469   0.098  -0.122
    1UNL     C5    5  -0.555   0.180  -0.022
    1UNL     C6    6  -0.521   0.124   0.125
    1UNL     C7    7  -0.419   0.009   0.096
    1UNL     C8    8  -0.392  -0.095   0.208
    1UNL     C9    9  -0.293   0.096   0.048
    1UNL     O1   10  -0.186   0.014   0.057
    1UNL    C10   11  -0.067   0.085   0.062
    1UNL     O2   12  -0.068   0.206   0.069
    1UNL    C11   13   0.061   0.007   0.052
    1UNL    C12   14   0.177   0.067   0.050
    1UNL    C13   15   0.299  -0.000   0.051
    1UNL    C14   16   0.411   0.050   0.003
    1UNL    C15   17   0.540  -0.014   0.009
    1UNL    C16   18   0.563  -0.156   0.017
    1UNL    C17   19   0.688  -0.212   0.015
    1UNL    C18   20   0.800  -0.126   0.002
    1UNL    C19   21   0.780   0.013  -0.032
    1UNL    C20   22   0.652   0.067  -0.028
    1UNL     O3   23   0.902   0.061  -0.064
    1UNL    C21   24   0.995  -0.044  -0.067
    1UNL     O4   25   0.932  -0.163  -0.014
    1UNL    C22   26  -0.327   0.153  -0.098
    1UNL     H1   27  -0.702  -0.025  -0.074
    1UNL     H2   28  -0.640  -0.180  -0.124
    1UNL     H3   29  -0.656  -0.148   0.056
    1UNL     H4   30  -0.386  -0.232  -0.022
    1UNL     H5   31  -0.413  -0.181  -0.197
    1UNL     H6   32  -0.284  -0.107  -0.088
    1UNL     H7   33  -0.499   0.120  -0.229
    1UNL     H8   34  -0.532   0.289  -0.031
    1UNL     H9   35  -0.664   0.178  -0.041
    1UNL    H10   36  -0.617   0.095   0.179
    1UNL    H11   37  -0.491   0.203   0.194
    1UNL    H12   38  -0.327  -0.053   0.281
    1UNL    H13   39  -0.475  -0.156   0.238
    1UNL    H14   40  -0.323  -0.177   0.174
    1UNL    H15   41  -0.275   0.175   0.114
    1UNL    H16   42   0.056  -0.097   0.056
    1UNL    H17   43   0.178   0.170   0.040
    1UNL    H18   44   0.310  -0.103   0.079
    1UNL    H19   45   0.408   0.149  -0.048
    1UNL    H20   46   0.486  -0.223   0.050
    1UNL    H21   47   0.706  -0.313   0.027
    1UNL    H22   48   0.642   0.167  -0.074
    1UNL    H23   49   1.093  -0.022  -0.025
    1UNL    H24   50   1.024  -0.066  -0.173
    1UNL    H25   51  -0.337   0.258  -0.091
    1UNL    H26   52  -0.254   0.125  -0.171
   0.00000   0.00000   0.00000   0.00000   0.00000   0.00000   0.00000   0.00000   0.00000
Generated with MDTraj, t= 15.0
 52
    1UNL     C1    1  -0.623  -0.101  -0.043
    1UNL     C2    2  -0.477  -0.040  -0.042
    1UNL     C3    3  -0.379  -0.142  -0.107
    1UNL     C4    4  -0.478   0.106  -0.109
    1UNL     C5    5  -0.568   0.195  -0.018
    1UNL     C6    6  -0.525   0.155   0.128
    1UNL     C7    7  -0.434   0.030   0.097
    1UNL     C8    8  -0.432  -0.067   0.210
    1UNL     C9    9  -0.289   0.088   0.062
    1UNL     O1   10  -0.186  -0.005   0.069
    1UNL    C10   11  -0.065   0.063   0.046
    1UNL     O2   12  -0.051   0.183   0.024
    1UNL    C11   13   0.056  -0.027   0.042
    1UNL    C12   14   0.173   0.040   0.046
    1UNL    C13   15   0.301  -0.020   0.028
    1UNL    C14   16   0.417   0.047   0.038
    1UNL    C15   17   0.555  -0.010   0.019
    1UNL    C16   18   0.576  -0.147   0.045
    1UNL    C17   19   0.697  -0.208   0.017
    1UNL    C18   20   0.797  -0.125  -0.018
    1UNL    C19   21   0.782   0.012  -0.037
    1UNL    C20   22   0.659   0.066  -0.032
    1UNL     O3   23   0.909   0.078  -0.065
    1UNL    C21   24   1.000  -0.029  -0.051
    1UNL     O4   25   0.930  -0.155  -0.039
    1UNL    C22   26  -0.323   0.139  -0.088
    1UNL     H1   27  -0.689  -0.068   0.045
    1UNL     H2   28  -0.675  -0.077  -0.138
    1UNL     H3   29  -0.616  -0.216  -0.039
    1UNL     H4   30  -0.405  -0.235  -0.047
    1UNL     H5   31  -0.407  -0.155  -0.211
    1UNL     H6   32  -0.277  -0.116  -0.085
    1UNL     H7   33  -0.512   0.102  -0.218
    1UNL     H8   34  -0.556   0.297  -0.048
    1UNL     H9   35  -0.680   0.173  -0.041
    1UNL    H10   36  -0.606   0.129   0.206
    1UNL    H11   37  -0.474   0.236   0.179
    1UNL    H12   38  -0.398  -0.029   0.303
    1UNL    H13   39  -0.520  -0.126   0.203
    1UNL    H14   40  -0.352  -0.145   0.185
    1UNL    H15   41  -0.269   0.162   0.132
    1UNL    H16   42   0.050  -0.136   0.047
    1UNL    H17   43   0.166   0.153   0.041
    1UNL    H18   44   0.297  -0.120  -0.018
    1UNL    H19   45   0.415   0.148   0.061
    1UNL    H20   46   0.491  -0.197   0.094
    1UNL    H21   47   0.725  -0.314   0.039
    1UNL    H22   48   0.642   0.169  -0.043
    1UNL    H23   49   1.056  -0.013   0.041
    1UNL    H24   50   1.084  -0.032  -0.122
    1UNL    H25   51  -0.307   0.241  -0.099
    1UNL    H26   52  -0.264   0.079  -0.150
   0.00000   0.00000   0.00000   0.00000   0.00000   0.00000   0.00000   0.00000   0.00000
Generated with MDTraj, t= 16.0
 52
    1UNL     C1    1  -0.624  -0.085  -0.046
    1UNL     C2    2  -0.483  -0.031  -0.043
    1UNL     C3    3  -0.403  -0.146  -0.098
    1UNL     C4    4  -0.468   0.110  -0.111
    1UNL     C5    5  -0.555   0.208  -0.014
    1UNL     C6    6  -0.528   0.154   0.124
    1UNL     C7    7  -0.430   0.027   0.106
    1UNL     C8    8  -0.435  -0.070   0.229
    1UNL     C9    9  -0.292   0.086   0.065
    1UNL     O1   10  -0.185  -0.012   0.064
    1UNL    C10   11  -0.070   0.050   0.033
    1UNL     O2   12  -0.064   0.166   0.001
    1UNL    C11   13   0.054  -0.016   0.043
    1UNL    C12   14   0.176   0.039   0.018
    1UNL    C13   15   0.300  -0.032   0.045
    1UNL    C14   16   0.410   0.033   0.011
    1UNL    C15   17   0.546  -0.022   0.021
    1UNL    C16   18   0.581  -0.158   0.034
    1UNL    C17   19   0.711  -0.210   0.023
    1UNL    C18   20   0.815  -0.122  -0.009
    1UNL    C19   21   0.784   0.017  -0.021
    1UNL    C20   22   0.654   0.068   0.005
    1UNL     O3   23   0.903   0.085  -0.049
    1UNL    C21   24   0.994  -0.021  -0.085
    1UNL     O4   25   0.950  -0.141  -0.034
    1UNL    C22   26  -0.318   0.146  -0.079
    1UNL     H1   27  -0.700  -0.003  -0.054
    1UNL     H2   28  -0.629  -0.145  -0.144
    1UNL     H3   29  -0.636  -0.158   0.037
    1UNL     H4   30  -0.407  -0.243  -0.041
    1UNL     H5   31  -0.441  -0.170  -0.193
    1UNL     H6   32  -0.292  -0.126  -0.111
    1UNL     H7   33  -0.493   0.117  -0.223
    1UNL     H8   34  -0.533   0.309  -0.031
    1UNL     H9   35  -0.668   0.190  -0.041
    1UNL    H10   36  -0.624   0.129   0.180
    1UNL    H11   37  -0.470   0.226   0.180
    1UNL    H12   38  -0.408  -0.020   0.319
    1UNL    H13   39  -0.532  -0.117   0.224
    1UNL    H14   40  -0.359  -0.152   0.222
    1UNL    H15   41  -0.278   0.167   0.130
    1UNL    H16   42   0.047  -0.121   0.074
    1UNL    H17   43   0.179   0.140  -0.010
    1UNL    H18   44   0.303  -0.129   0.086
    1UNL    H19   45   0.404   0.132  -0.040
    1UNL    H20   46   0.505  -0.231   0.032
    1UNL    H21   47   0.716  -0.307   0.063
    1UNL    H22   48   0.651   0.176   0.027
    1UNL    H23   49   1.097   0.001  -0.052
    1UNL    H24   50   0.993  -0.025  -0.194
    1UNL    H25   51  -0.299   0.246  -0.079
    1UNL    H26   52  -0.261   0.097  -0.148
   0.00000   0.00000   0.00000   0.00000   0.00000   0.00000   0.00000   0.00000   0.00000
Generated with MDTraj, t= 17.0
 52
    1UNL     C1    1  -0.646  -0.073  -0.028
    1UNL     C2    2  -0.494  -0.036  -0.038
    1UNL     C3    3  -0.413  -0.152  -0.094
    1UNL     C4    4  -0.462   0.107  -0.115
    1UNL     C5    5  -0.543   0.203  -0.017
    1UNL     C6    6  -0.519   0.146   0.125
    1UNL     C7    7  -0.430   0.027   0.096
    1UNL     C8    8  -0.402  -0.068   0.214
    1UNL     C9    9  -0.289   0.093   0.052
    1UNL     O1   10  -0.187   0.001   0.075
    1UNL    C10   11  -0.067   0.058   0.042
    1UNL     O2   12  -0.052   0.170  -0.002
    1UNL    C11   13   0.047  -0.027   0.061
    1UNL    C12   14   0.170   0.015   0.031
    1UNL    C13   15   0.300  -0.045   0.035
    1UNL    C14   16   0.410   0.032   0.019
    1UNL    C15   17   0.546  -0.024   0.008
    1UNL    C16   18   0.575  -0.160   0.029
    1UNL    C17   19   0.707  -0.210   0.010
    1UNL    C18   20   0.808  -0.117  -0.014
    1UNL    C19   21   0.783   0.024  -0.030
    1UNL    C20   22   0.645   0.065  -0.024
    1UNL     O3   23   0.904   0.092  -0.058
    1UNL    C21   24   1.000  -0.014  -0.034
    1UNL     O4   25   0.941  -0.138  -0.030
    1UNL    C22   26  -0.313   0.146  -0.089
    1UNL     H1   27  -0.706  -0.005   0.033
    1UNL     H2   28  -0.701  -0.071  -0.132
    1UNL     H3   29  -0.660  -0.174   0.011
    1UNL     H4   30  -0.425  -0.253  -0.057
    1UNL     H5   31  -0.431  -0.163  -0.198
    1UNL     H6   32  -0.298  -0.141  -0.093
    1UNL     H7   33  -0.498   0.095  -0.224
    1UNL     H8   34  -0.506   0.301  -0.035
    1UNL     H9   35  -0.653   0.197  -0.046
    1UNL    H10   36  -0.607   0.097   0.176
    1UNL    H11   37  -0.461   0.212   0.191
    1UNL    H12   38  -0.328  -0.036   0.286
    1UNL    H13   39  -0.502  -0.095   0.255
    1UNL    H14   40  -0.362  -0.160   0.179
    1UNL    H15   41  -0.270   0.176   0.116
    1UNL    H16   42   0.030  -0.127   0.083
    1UNL    H17   43   0.169   0.124   0.009
    1UNL    H18   44   0.311  -0.151   0.061
    1UNL    H19   45   0.393   0.135  -0.002
    1UNL    H20   46   0.494  -0.227   0.067
    1UNL    H21   47   0.732  -0.316  -0.010
    1UNL    H22   48   0.625   0.169  -0.036
    1UNL    H23   49   1.043   0.008   0.068
    1UNL    H24   50   1.071  -0.005  -0.119
    1UNL    H25   51  -0.292   0.246  -0.097
    1UNL    H26   52  -0.247   0.102  -0.152
   0.00000   0.00000   0.00000   0.00000   0.00000   0.00000   0.00000   0.00000   0.00000
Generated with MDTraj, t= 18.0
 52
    1UNL     C1    1  -0.629  -0.089  -0.008
    1UNL     C2    2  -0.492  -0.031  -0.037
    1UNL     C3    3  -0.396  -0.151  -0.084
    1UNL     C4    4  -0.477   0.111  -0.110
    1UNL     C5    5  -0.547   0.216  -0.024
    1UNL     C6    6  -0.514   0.160   0.117
    1UNL     C7    7  -0.435   0.025   0.103
    1UNL     C8    8  -0.436  -0.064   0.229
    1UNL     C9    9  -0.292   0.079   0.049
    1UNL     O1   10  -0.198  -0.019   0.039
    1UNL    C10   11  -0.071   0.050   0.041
    1UNL     O2   12  -0.057   0.173   0.038
    1UNL    C11   13   0.055  -0.030   0.036
    1UNL    C12   14   0.175   0.032   0.041
    1UNL    C13   15   0.297  -0.033   0.020
    1UNL    C14   16   0.412   0.033  -0.006
    1UNL    C15   17   0.550  -0.020  -0.016
    1UNL    C16   18   0.580  -0.156  -0.003
    1UNL    C17   19   0.707  -0.209   0.011
    1UNL    C18   20   0.807  -0.120   0.001
    1UNL    C19   21   0.788   0.017  -0.029
    1UNL    C20   22   0.659   0.064  -0.032
    1UNL     O3   23   0.906   0.090  -0.040
    1UNL    C21   24   1.008  -0.017  -0.035
    1UNL     O4   25   0.950  -0.143  -0.001
    1UNL    C22   26  -0.329   0.144  -0.090
    1UNL     H1   27  -0.695  -0.007   0.027
    1UNL     H2   28  -0.683  -0.122  -0.099
    1UNL     H3   29  -0.639  -0.172   0.064
    1UNL     H4   30  -0.417  -0.238  -0.024
    1UNL     H5   31  -0.433  -0.180  -0.186
    1UNL     H6   32  -0.287  -0.132  -0.088
    1UNL     H7   33  -0.515   0.104  -0.219
    1UNL     H8   34  -0.510   0.318  -0.045
    1UNL     H9   35  -0.650   0.224  -0.050
    1UNL    H10   36  -0.605   0.140   0.175
    1UNL    H11   37  -0.451   0.228   0.180
    1UNL    H12   38  -0.415  -0.001   0.317
    1UNL    H13   39  -0.534  -0.114   0.242
    1UNL    H14   40  -0.360  -0.133   0.238
    1UNL    H15   41  -0.260   0.149   0.127
    1UNL    H16   42   0.056  -0.140   0.016
    1UNL    H17   43   0.174   0.139   0.051
    1UNL    H18   44   0.302  -0.132   0.060
    1UNL    H19   45   0.402   0.139  -0.032
    1UNL    H20   46   0.504  -0.227   0.015
    1UNL    H21   47   0.731  -0.311  -0.015
    1UNL    H22   48   0.649   0.168  -0.062
    1UNL    H23   49   1.075   0.028   0.045
    1UNL    H24   50   1.045  -0.017  -0.139
    1UNL    H25   51  -0.307   0.245  -0.089
    1UNL    H26   52  -0.271   0.108  -0.169
   0.00000   0.00000   0.00000   0.00000   0.00000   0.00000   0.00000   0.00000   0.00000
Generated with MDTraj, t= 19.0
 52
    1UNL     C1    1  -0.641  -0.090  -0.018
    1UNL     C2    2  -0.495  -0.044  -0.028
    1UNL     C3    3  -0.413  -0.164  -0.080
    1UNL     C4    4  -0.479   0.098  -0.110
    1UNL     C5    5  -0.551   0.203  -0.017
    1UNL     C6    6  -0.527   0.152   0.127
    1UNL     C7    7  -0.429   0.030   0.100
    1UNL     C8    8  -0.414  -0.063   0.217
    1UNL     C9    9  -0.288   0.089   0.050
    1UNL     O1   10  -0.181  -0.000   0.058
    1UNL    C10   11  -0.059   0.067   0.050
    1UNL     O2   12  -0.047   0.188   0.060
    1UNL    C11   13   0.061  -0.015   0.038
    1UNL    C12   14   0.173   0.039  -0.016
    1UNL    C13   15   0.299  -0.029  -0.024
    1UNL    C14   16   0.411   0.043  -0.021
    1UNL    C15   17   0.542  -0.020  -0.013
    1UNL    C16   18   0.566  -0.157   0.011
    1UNL    C17   19   0.700  -0.206   0.014
    1UNL    C18   20   0.812  -0.126  -0.013
    1UNL    C19   21   0.787   0.012  -0.026
    1UNL    C20   22   0.659   0.065  -0.016
    1UNL     O3   23   0.902   0.081  -0.035
    1UNL    C21   24   1.011  -0.020  -0.013
    1UNL     O4   25   0.948  -0.149  -0.009
    1UNL    C22   26  -0.325   0.125  -0.099
    1UNL     H1   27  -0.702  -0.017   0.038
    1UNL     H2   28  -0.675  -0.083  -0.117
    1UNL     H3   29  -0.653  -0.196   0.019
    1UNL     H4   30  -0.440  -0.249  -0.020
    1UNL     H5   31  -0.449  -0.178  -0.189
    1UNL     H6   32  -0.315  -0.126  -0.071
    1UNL     H7   33  -0.519   0.094  -0.219
    1UNL     H8   34  -0.512   0.309  -0.019
    1UNL     H9   35  -0.648   0.217  -0.042
    1UNL    H10   36  -0.621   0.119   0.169
    1UNL    H11   37  -0.481   0.223   0.203
    1UNL    H12   38  -0.357  -0.011   0.296
    1UNL    H13   39  -0.508  -0.100   0.254
    1UNL    H14   40  -0.348  -0.143   0.198
    1UNL    H15   41  -0.264   0.182   0.108
    1UNL    H16   42   0.059  -0.116   0.069
    1UNL    H17   43   0.172   0.145  -0.036
    1UNL    H18   44   0.297  -0.135  -0.004
    1UNL    H19   45   0.406   0.151  -0.002
    1UNL    H20   46   0.486  -0.228   0.033
    1UNL    H21   47   0.710  -0.311   0.038
    1UNL    H22   48   0.632   0.166   0.007
    1UNL    H23   49   1.062   0.018   0.080
    1UNL    H24   50   1.072  -0.007  -0.101
    1UNL    H25   51  -0.305   0.227  -0.116
    1UNL    H26   52  -0.263   0.073  -0.169
   0.00000   0.00000   0.00000   0.00000   0.00000   0.00000   0.00000   0.00000   0.00000
Generated with MDTraj, t= 20.0
 52
    1UNL     C1    1  -0.621  -0.107  -0.012
    1UNL     C2    2  -0.479  -0.036  -0.021
    1UNL     C3    3  -0.400  -0.150  -0.089
    1UNL     C4    4  -0.469   0.097  -0.104
    1UNL     C5    5  -0.561   0.189  -0.015
    1UNL     C6    6  -0.535   0.137   0.133
    1UNL     C7    7  -0.426   0.027   0.110
    1UNL     C8    8  -0.394  -0.057   0.231
    1UNL     C9    9  -0.291   0.092   0.053
    1UNL     O1   10  -0.186  -0.001   0.054
    1UNL    C10   11  -0.071   0.063   0.023
    1UNL     O2   12  -0.056   0.182   0.018
    1UNL    C11   13   0.050  -0.014   0.014
    1UNL    C12   14   0.168   0.052   0.025
    1UNL    C13   15   0.302  -0.008   0.007
    1UNL    C14   16   0.419   0.054  -0.027
    1UNL    C15   17   0.546  -0.006  -0.022
    1UNL    C16   18   0.561  -0.149  -0.008
    1UNL    C17   19   0.684  -0.210  -0.005
    1UNL    C18   20   0.800  -0.129   0.003
    1UNL    C19   21   0.785   0.011  -0.016
    1UNL    C20   22   0.662   0.068  -0.037
    1UNL     O3   23   0.910   0.077  -0.018
    1UNL    C21   24   1.001  -0.040  -0.018
    1UNL     O4   25   0.935  -0.160   0.009
    1UNL    C22   26  -0.322   0.143  -0.089
    1UNL     H1   27  -0.702  -0.057   0.044
    1UNL     H2   28  -0.654  -0.134  -0.108
    1UNL     H3   29  -0.589  -0.200   0.040
    1UNL     H4   30  -0.406  -0.232  -0.018
    1UNL     H5   31  -0.451  -0.179  -0.187
    1UNL     H6   32  -0.302  -0.114  -0.106
    1UNL     H7   33  -0.501   0.078  -0.214
    1UNL     H8   34  -0.528   0.295  -0.016
    1UNL     H9   35  -0.660   0.192  -0.045
    1UNL    H10   36  -0.626   0.102   0.175
    1UNL    H11   37  -0.495   0.222   0.196
    1UNL    H12   38  -0.333  -0.006   0.306
    1UNL    H13   39  -0.480  -0.102   0.272
    1UNL    H14   40  -0.323  -0.136   0.195
    1UNL    H15   41  -0.269   0.183   0.119
    1UNL    H16   42   0.042  -0.120  -0.001
    1UNL    H17   43   0.160   0.161   0.035
    1UNL    H18   44   0.312  -0.109   0.046
    1UNL    H19   45   0.421   0.159  -0.036
    1UNL    H20   46   0.479  -0.214  -0.037
    1UNL    H21   47   0.699  -0.315   0.020
    1UNL    H22   48   0.664   0.176  -0.043
    1UNL    H23   49   1.063  -0.017   0.070
    1UNL    H24   50   1.059  -0.029  -0.107
    1UNL    H25   51  -0.294   0.249  -0.108
    1UNL    H26   52  -0.254   0.084  -0.153
   0.00000   0.00000   0.00000   0.00000   0.00000   0.00000   0.00000   0.00000   0.00000
Generated with MDTraj, t= 21.0
 52
    1UNL     C1    1  -0.603  -0.126  -0.001
    1UNL     C2    2  -0.476  -0.052  -0.023
    1UNL     C3    3  -0.379  -0.145  -0.093
    1UNL     C4    4  -0.486   0.091  -0.098
    1UNL     C5    5  -0.567   0.189  -0.001
    1UNL     C6    6  -0.533   0.131   0.138
    1UNL     C7    7  -0.422   0.019   0.111
    1UNL     C8    8  -0.398  -0.079   0.226
    1UNL     C9    9  -0.299   0.099   0.056
    1UNL     O1   10  -0.183   0.017   0.052
    1UNL    C10   11  -0.070   0.085   0.014
    1UNL     O2   12  -0.072   0.196  -0.034
    1UNL    C11   13   0.060   0.022   0.044
    1UNL    C12   14   0.172   0.070  -0.000
    1UNL    C13   15   0.297   0.003   0.009
    1UNL    C14   16   0.423   0.057  -0.007
    1UNL    C15   17   0.551  -0.012  -0.008
    1UNL    C16   18   0.561  -0.153  -0.008
    1UNL    C17   19   0.683  -0.210  -0.019
    1UNL    C18   20   0.804  -0.141  -0.012
    1UNL    C19   21   0.785   0.001  -0.011
    1UNL    C20   22   0.663   0.063  -0.022
    1UNL     O3   23   0.912   0.064  -0.020
    1UNL    C21   24   0.999  -0.048   0.007
    1UNL     O4   25   0.938  -0.168  -0.004
    1UNL    C22   26  -0.345   0.147  -0.087
    1UNL     H1   27  -0.667  -0.056   0.049
    1UNL     H2   28  -0.658  -0.159  -0.089
    1UNL     H3   29  -0.593  -0.208   0.064
    1UNL     H4   30  -0.359  -0.243  -0.045
    1UNL     H5   31  -0.412  -0.168  -0.194
    1UNL     H6   32  -0.278  -0.107  -0.113
    1UNL     H7   33  -0.527   0.083  -0.206
    1UNL     H8   34  -0.537   0.292  -0.018
    1UNL     H9   35  -0.678   0.194  -0.015
    1UNL    H10   36  -0.630   0.111   0.181
    1UNL    H11   37  -0.496   0.220   0.197
    1UNL    H12   38  -0.372  -0.034   0.319
    1UNL    H13   39  -0.478  -0.148   0.235
    1UNL    H14   40  -0.300  -0.130   0.201
    1UNL    H15   41  -0.281   0.186   0.130
    1UNL    H16   42   0.064  -0.053   0.125
    1UNL    H17   43   0.162   0.140  -0.079
    1UNL    H18   44   0.293  -0.096   0.045
    1UNL    H19   45   0.422   0.168  -0.019
    1UNL    H20   46   0.476  -0.215   0.003
    1UNL    H21   47   0.694  -0.316  -0.022
    1UNL    H22   48   0.649   0.168  -0.037
    1UNL    H23   49   1.046  -0.030   0.104
    1UNL    H24   50   1.076  -0.030  -0.066
    1UNL    H25   51  -0.334   0.261  -0.094
    1UNL    H26   52  -0.270   0.103  -0.159
   0.00000   0.00000   0.00000   0.00000   0.00000   0.00000   0.00000   0.00000   0.00000
Generated with MDTraj, t= 22.0
 52
    1UNL     C1    1  -0.612  -0.131  -0.009
    1UNL     C2    2  -0.469  -0.061  -0.018
    1UNL     C3    3  -0.363  -0.154  -0.074
    1UNL     C4    4  -0.487   0.085  -0.096
    1UNL     C5    5  -0.578   0.168  -0.001
    1UNL     C6    6  -0.539   0.116   0.146
    1UNL     C7    7  -0.428   0.012   0.112
    1UNL     C8    8  -0.384  -0.080   0.225
    1UNL     C9    9  -0.302   0.105   0.062
    1UNL     O1   10  -0.180   0.043   0.053
    1UNL    C10   11  -0.069   0.105   0.001
    1UNL     O2   12  -0.067   0.220  -0.041
    1UNL    C11   13   0.058   0.023   0.014
    1UNL    C12   14   0.178   0.077  -0.007
    1UNL    C13   15   0.302   0.008  -0.001
    1UNL    C14   16   0.425   0.059  -0.029
    1UNL    C15   17   0.546  -0.005  -0.012
    1UNL    C16   18   0.551  -0.145  -0.018
    1UNL    C17   19   0.675  -0.210   0.002
    1UNL    C18   20   0.798  -0.141  -0.010
    1UNL    C19   21   0.788   0.002  -0.004
    1UNL    C20   22   0.671   0.066   0.008
    1UNL     O3   23   0.917   0.053   0.012
    1UNL    C21   24   1.001  -0.061  -0.022
    1UNL     O4   25   0.930  -0.180  -0.008
    1UNL    C22   26  -0.350   0.152  -0.081
    1UNL     H1   27  -0.689  -0.088   0.048
    1UNL     H2   28  -0.653  -0.150  -0.110
    1UNL     H3   29  -0.609  -0.227   0.028
    1UNL     H4   30  -0.358  -0.260  -0.038
    1UNL     H5   31  -0.355  -0.159  -0.177
    1UNL     H6   32  -0.257  -0.120  -0.051
    1UNL     H7   33  -0.530   0.072  -0.202
    1UNL     H8   34  -0.565   0.271  -0.016
    1UNL     H9   35  -0.690   0.143  -0.024
    1UNL    H10   36  -0.614   0.062   0.203
    1UNL    H11   37  -0.502   0.202   0.208
    1UNL    H12   38  -0.334  -0.022   0.298
    1UNL    H13   39  -0.474  -0.125   0.269
    1UNL    H14   40  -0.306  -0.157   0.206
    1UNL    H15   41  -0.284   0.200   0.126
    1UNL    H16   42   0.048  -0.079   0.035
    1UNL    H17   43   0.183   0.185  -0.035
    1UNL    H18   44   0.292  -0.096   0.036
    1UNL    H19   45   0.430   0.158  -0.061
    1UNL    H20   46   0.460  -0.203   0.006
    1UNL    H21   47   0.674  -0.319   0.017
    1UNL    H22   48   0.672   0.173  -0.002
    1UNL    H23   49   1.092  -0.037   0.038
    1UNL    H24   50   1.034  -0.041  -0.125
    1UNL    H25   51  -0.356   0.268  -0.076
    1UNL    H26   52  -0.269   0.127  -0.161
   0.00000   0.00000   0.00000   0.00000   0.00000   0.00000   0.00000   0.00000   0.00000
Generated with MDTraj, t= 23.0
 52
    1UNL     C1    1  -0.583  -0.149   0.005
    1UNL     C2    2  -0.467  -0.058  -0.022
    1UNL     C3    3  -0.355  -0.143  -0.090
    1UNL     C4    4  -0.483   0.081  -0.098
    1UNL     C5    5  -0.580   0.157  -0.007
    1UNL     C6    6  -0.524   0.118   0.133
    1UNL     C7    7  -0.409   0.017   0.114
    1UNL     C8    8  -0.365  -0.059   0.239
    1UNL     C9    9  -0.288   0.095   0.052
    1UNL     O1   10  -0.176   0.019   0.044
    1UNL    C10   11  -0.069   0.100   0.012
    1UNL     O2   12  -0.081   0.222  -0.001
    1UNL    C11   13   0.049   0.021  -0.004
    1UNL    C12   14   0.165   0.091  -0.012
    1UNL    C13   15   0.295   0.022  -0.032
    1UNL    C14   16   0.419   0.074  -0.002
    1UNL    C15   17   0.548   0.005  -0.003
    1UNL    C16   18   0.545  -0.136  -0.006
    1UNL    C17   19   0.663  -0.209  -0.016
    1UNL    C18   20   0.784  -0.144  -0.008
    1UNL    C19   21   0.782  -0.001  -0.007
    1UNL    C20   22   0.669   0.073  -0.003
    1UNL     O3   23   0.911   0.049  -0.017
    1UNL    C21   24   0.990  -0.074   0.014
    1UNL     O4   25   0.914  -0.193  -0.006
    1UNL    C22   26  -0.343   0.153  -0.084
    1UNL     H1   27  -0.661  -0.092   0.046
    1UNL     H2   28  -0.612  -0.193  -0.089
    1UNL     H3   29  -0.554  -0.230   0.067
    1UNL     H4   30  -0.316  -0.215  -0.013
    1UNL     H5   31  -0.395  -0.198  -0.170
    1UNL     H6   32  -0.275  -0.077  -0.132
    1UNL     H7   33  -0.515   0.075  -0.207
    1UNL     H8   34  -0.574   0.261  -0.019
    1UNL     H9   35  -0.690   0.118  -0.019
    1UNL    H10   36  -0.600   0.076   0.202
    1UNL    H11   37  -0.479   0.206   0.178
    1UNL    H12   38  -0.328   0.013   0.309
    1UNL    H13   39  -0.448  -0.118   0.289
    1UNL    H14   40  -0.274  -0.114   0.226
    1UNL    H15   41  -0.272   0.188   0.119
    1UNL    H16   42   0.031  -0.086  -0.029
    1UNL    H17   43   0.169   0.189   0.019
    1UNL    H18   44   0.282  -0.074  -0.072
    1UNL    H19   45   0.417   0.181   0.030
    1UNL    H20   46   0.454  -0.182   0.021
    1UNL    H21   47   0.660  -0.315  -0.021
    1UNL    H22   48   0.662   0.181  -0.014
    1UNL    H23   49   1.023  -0.052   0.118
    1UNL    H24   50   1.086  -0.066  -0.044
    1UNL    H25   51  -0.346   0.270  -0.081
    1UNL    H26   52  -0.279   0.118  -0.174
   0.00000   0.00000   0.00000   0.00000   0.00000   0.00000   0.00000   0.00000   0.00000
Generated with MDTraj, t= 24.0
 52
    1UNL     C1    1  -0.600  -0.148   0.011
    1UNL     C2    2  -0.470  -0.070  -0.017
    1UNL     C3    3  -0.369  -0.167  -0.087
    1UNL     C4    4  -0.491   0.067  -0.101
    1UNL     C5    5  -0.584   0.150   0.002
    1UNL     C6    6  -0.522   0.123   0.136
    1UNL     C7    7  -0.411   0.015   0.106
    1UNL     C8    8  -0.361  -0.067   0.222
    1UNL     C9    9  -0.290   0.103   0.041
    1UNL     O1   10  -0.164   0.033   0.026
    1UNL    C10   11  -0.061   0.119   0.026
    1UNL     O2   12  -0.070   0.241   0.033
    1UNL    C11   13   0.061   0.051  -0.004
    1UNL    C12   14   0.181   0.102  -0.006
    1UNL    C13   15   0.295   0.021  -0.021
    1UNL    C14   16   0.419   0.078  -0.024
    1UNL    C15   17   0.543   0.003  -0.015
    1UNL    C16   18   0.540  -0.137  -0.015
    1UNL    C17   19   0.657  -0.202  -0.016
    1UNL    C18   20   0.782  -0.144   0.002
    1UNL    C19   21   0.783  -0.003   0.004
    1UNL    C20   22   0.665   0.067  -0.016
    1UNL     O3   23   0.916   0.042   0.002
    1UNL    C21   24   0.995  -0.080  -0.008
    1UNL     O4   25   0.916  -0.194   0.011
    1UNL    C22   26  -0.353   0.133  -0.097
    1UNL     H1   27  -0.663  -0.069   0.039
    1UNL     H2   28  -0.633  -0.199  -0.071
    1UNL     H3   29  -0.587  -0.218   0.092
    1UNL     H4   30  -0.365  -0.250  -0.015
    1UNL     H5   31  -0.412  -0.202  -0.183
    1UNL     H6   32  -0.277  -0.113  -0.094
    1UNL     H7   33  -0.523   0.037  -0.206
    1UNL     H8   34  -0.579   0.257  -0.018
    1UNL     H9   35  -0.694   0.124   0.005
    1UNL    H10   36  -0.592   0.084   0.215
    1UNL    H11   37  -0.477   0.210   0.181
    1UNL    H12   38  -0.337  -0.004   0.310
    1UNL    H13   39  -0.443  -0.138   0.251
    1UNL    H14   40  -0.269  -0.113   0.203
    1UNL    H15   41  -0.278   0.189   0.115
    1UNL    H16   42   0.058  -0.053  -0.019
    1UNL    H17   43   0.196   0.210   0.016
    1UNL    H18   44   0.284  -0.086  -0.012
    1UNL    H19   45   0.428   0.181  -0.046
    1UNL    H20   46   0.453  -0.193  -0.050
    1UNL    H21   47   0.657  -0.313  -0.018
    1UNL    H22   48   0.678   0.169  -0.009
    1UNL    H23   49   1.072  -0.076   0.071
    1UNL    H24   50   1.046  -0.069  -0.107
    1UNL    H25   51  -0.356   0.249  -0.118
    1UNL    H26   52  -0.274   0.084  -0.168
   0.00000   0.00000   0.00000   0.00000   0.00000   0.00000   0.00000   0.00000   0.00000
Generated with MDTraj, t= 25.0
 52
    1UNL     C1    1  -0.605  -0.143   0.011
    1UNL     C2    2  -0.475  -0.060  -0.015
    1UNL     C3    3  -0.378  -0.163  -0.078
    1UNL     C4    4  -0.511   0.063  -0.100
    1UNL     C5    5  -0.594   0.145   0.001
    1UNL     C6    6  -0.519   0.130   0.139
    1UNL     C7    7  -0.408   0.019   0.112
    1UNL     C8    8  -0.360  -0.073   0.222
    1UNL     C9    9  -0.303   0.099   0.026
    1UNL     O1   10  -0.180   0.034   0.014
    1UNL    C10   11  -0.066   0.115   0.028
    1UNL     O2   12  -0.074   0.238   0.027
    1UNL    C11   13   0.062   0.045   0.024
    1UNL    C12   14   0.182   0.099  -0.004
    1UNL    C13   15   0.306   0.027   0.002
    1UNL    C14   16   0.430   0.077  -0.013
    1UNL    C15   17   0.553   0.007  -0.024
    1UNL    C16   18   0.551  -0.133  -0.008
    1UNL    C17   19   0.670  -0.208  -0.020
    1UNL    C18   20   0.792  -0.141  -0.022
    1UNL    C19   21   0.800   0.002  -0.021
    1UNL    C20   22   0.676   0.077  -0.023
    1UNL     O3   23   0.929   0.038   0.010
    1UNL    C21   24   0.997  -0.087   0.017
    1UNL     O4   25   0.912  -0.197  -0.001
    1UNL    C22   26  -0.371   0.132  -0.108
    1UNL     H1   27  -0.689  -0.102   0.060
    1UNL     H2   28  -0.636  -0.179  -0.080
    1UNL     H3   29  -0.578  -0.233   0.061
    1UNL     H4   30  -0.371  -0.255  -0.025
    1UNL     H5   31  -0.406  -0.188  -0.187
    1UNL     H6   32  -0.280  -0.126  -0.080
    1UNL     H7   33  -0.575   0.030  -0.187
    1UNL     H8   34  -0.603   0.254  -0.033
    1UNL     H9   35  -0.694   0.108  -0.004
    1UNL    H10   36  -0.587   0.106   0.227
    1UNL    H11   37  -0.470   0.218   0.171
    1UNL    H12   38  -0.304  -0.010   0.297
    1UNL    H13   39  -0.450  -0.114   0.266
    1UNL    H14   40  -0.289  -0.143   0.188
    1UNL    H15   41  -0.277   0.200   0.066
    1UNL    H16   42   0.069  -0.061   0.056
    1UNL    H17   43   0.182   0.202  -0.031
    1UNL    H18   44   0.301  -0.080   0.013
    1UNL    H19   45   0.440   0.182  -0.040
    1UNL    H20   46   0.459  -0.187  -0.009
    1UNL    H21   47   0.675  -0.312  -0.007
    1UNL    H22   48   0.673   0.184   0.011
    1UNL    H23   49   1.041  -0.100   0.116
    1UNL    H24   50   1.066  -0.089  -0.070
    1UNL    H25   51  -0.383   0.248  -0.123
    1UNL    H26   52  -0.311   0.104  -0.204
   0.00000   0.00000   0.00000   0.00000   0.00000   0.00000   0.00000   0.00000   0.00000
Generated with MDTraj, t= 26.0
 52
    1UNL     C1    1  -0.597  -0.141   0.022
    1UNL     C2    2  -0.468  -0.065  -0.013
    1UNL     C3    3  -0.371  -0.155  -0.092
    1UNL     C4    4  -0.499   0.070  -0.100
    1UNL     C5    5  -0.580   0.156  -0.001
    1UNL     C6    6  -0.509   0.139   0.138
    1UNL     C7    7  -0.404   0.027   0.106
    1UNL     C8    8  -0.355  -0.055   0.222
    1UNL     C9    9  -0.290   0.105   0.033
    1UNL     O1   10  -0.180   0.014   0.024
    1UNL    C10   11  -0.070   0.093   0.010
    1UNL     O2   12  -0.081   0.218  -0.001
    1UNL    C11   13   0.059   0.025   0.008
    1UNL    C12   14   0.179   0.095   0.021
    1UNL    C13   15   0.302   0.022   0.018
    1UNL    C14   16   0.423   0.074   0.003
    1UNL    C15   17   0.545  -0.004  -0.006
    1UNL    C16   18   0.549  -0.141  -0.032
    1UNL    C17   19   0.666  -0.212  -0.028
    1UNL    C18   20   0.778  -0.139  -0.013
    1UNL    C19   21   0.785   0.005  -0.006
    1UNL    C20   22   0.665   0.073  -0.002
    1UNL     O3   23   0.919   0.052   0.002
    1UNL    C21   24   0.991  -0.068  -0.004
    1UNL     O4   25   0.909  -0.186   0.002
    1UNL    C22   26  -0.355   0.136  -0.102
    1UNL     H1   27  -0.668  -0.073   0.059
    1UNL     H2   28  -0.647  -0.201  -0.051
    1UNL     H3   29  -0.589  -0.201   0.105
    1UNL     H4   30  -0.316  -0.232  -0.043
    1UNL     H5   31  -0.414  -0.208  -0.182
    1UNL     H6   32  -0.286  -0.103  -0.133
    1UNL     H7   33  -0.545   0.055  -0.200
    1UNL     H8   34  -0.594   0.263  -0.044
    1UNL     H9   35  -0.672   0.108  -0.000
    1UNL    H10   36  -0.590   0.114   0.213
    1UNL    H11   37  -0.456   0.227   0.168
    1UNL    H12   38  -0.309   0.014   0.298
    1UNL    H13   39  -0.427  -0.117   0.267
    1UNL    H14   40  -0.268  -0.111   0.185
    1UNL    H15   41  -0.260   0.192   0.091
    1UNL    H16   42   0.060  -0.081  -0.003
    1UNL    H17   43   0.188   0.200   0.048
    1UNL    H18   44   0.295  -0.082   0.004
    1UNL    H19   45   0.434   0.182  -0.001
    1UNL    H20   46   0.463  -0.204  -0.039
    1UNL    H21   47   0.664  -0.313  -0.074
    1UNL    H22   48   0.663   0.177   0.013
    1UNL    H23   49   1.054  -0.067   0.084
    1UNL    H24   50   1.038  -0.082  -0.106
    1UNL    H25   51  -0.360   0.246  -0.133
    1UNL    H26   52  -0.287   0.100  -0.188
   0.00000   0.00000   0.00000   0.00000   0.00000   0.00000   0.00000   0.00000   0.00000
Generated with MDTraj, t= 27.0
 52
    1UNL     C1    1  -0.618  -0.123   0.014
    1UNL     C2    2  -0.478  -0.057  -0.013
    1UNL     C3    3  -0.383  -0.159  -0.074
    1UNL     C4    4  -0.499   0.074  -0.106
    1UNL     C5    5  -0.591   0.165  -0.010
    1UNL     C6    6  -0.527   0.134   0.131
    1UNL     C7    7  -0.412   0.025   0.112
    1UNL     C8    8  -0.364  -0.059   0.233
    1UNL     C9    9  -0.298   0.102   0.039
    1UNL     O1   10  -0.170   0.028   0.052
    1UNL    C10   11  -0.059   0.094   0.009
    1UNL     O2   12  -0.061   0.214  -0.019
    1UNL    C11   13   0.064   0.021  -0.005
    1UNL    C12   14   0.184   0.080  -0.014
    1UNL    C13   15   0.300  -0.002  -0.009
    1UNL    C14   16   0.418   0.065  -0.005
    1UNL    C15   17   0.545  -0.010   0.021
    1UNL    C16   18   0.552  -0.150   0.001
    1UNL    C17   19   0.681  -0.212  -0.023
    1UNL    C18   20   0.794  -0.136  -0.015
    1UNL    C19   21   0.785   0.002   0.012
    1UNL    C20   22   0.663   0.062   0.036
    1UNL     O3   23   0.912   0.057   0.008
    1UNL    C21   24   1.006  -0.051  -0.010
    1UNL     O4   25   0.923  -0.168  -0.052
    1UNL    C22   26  -0.353   0.132  -0.101
    1UNL     H1   27  -0.683  -0.057   0.061
    1UNL     H2   28  -0.664  -0.168  -0.071
    1UNL     H3   29  -0.604  -0.199   0.080
    1UNL     H4   30  -0.389  -0.240  -0.004
    1UNL     H5   31  -0.421  -0.198  -0.168
    1UNL     H6   32  -0.273  -0.132  -0.079
    1UNL     H7   33  -0.543   0.051  -0.204
    1UNL     H8   34  -0.568   0.276  -0.031
    1UNL     H9   35  -0.694   0.147  -0.015
    1UNL    H10   36  -0.604   0.092   0.198
    1UNL    H11   37  -0.492   0.231   0.168
    1UNL    H12   38  -0.335   0.006   0.316
    1UNL    H13   39  -0.444  -0.120   0.267
    1UNL    H14   40  -0.273  -0.122   0.212
    1UNL    H15   41  -0.277   0.190   0.094
    1UNL    H16   42   0.060  -0.086   0.001
    1UNL    H17   43   0.199   0.188  -0.013
    1UNL    H18   44   0.295  -0.113  -0.008
    1UNL    H19   45   0.420   0.170  -0.019
    1UNL    H20   46   0.458  -0.208   0.006
    1UNL    H21   47   0.691  -0.308  -0.071
    1UNL    H22   48   0.664   0.170   0.036
    1UNL    H23   49   1.048  -0.080   0.088
    1UNL    H24   50   1.076  -0.031  -0.096
    1UNL    H25   51  -0.352   0.240  -0.125
    1UNL    H26   52  -0.286   0.082  -0.178
   0.00000   0.00000   0.00000   0.00000   0.00000   0.00000   0.00000   0.00000   0.00000
Generated with MDTraj, t= 28.0
 52
    1UNL     C1    1  -0.623  -0.116   0.014
    1UNL     C2    2  -0.489  -0.048  -0.016
    1UNL     C3    3  -0.380  -0.152  -0.064
    1UNL     C4    4  -0.492   0.082  -0.101
    1UNL     C5    5  -0.580   0.179  -0.010
    1UNL     C6    6  -0.531   0.148   0.134
    1UNL     C7    7  -0.429   0.033   0.113
    1UNL     C8    8  -0.406  -0.045   0.235
    1UNL     C9    9  -0.295   0.090   0.045
    1UNL     O1   10  -0.178   0.005   0.042
    1UNL    C10   11  -0.071   0.078   0.002
    1UNL     O2   12  -0.071   0.198  -0.030
    1UNL    C11   13   0.053   0.010   0.002
    1UNL    C12   14   0.172   0.063   0.011
    1UNL    C13   15   0.299  -0.008  -0.008
    1UNL    C14   16   0.419   0.048   0.021
    1UNL    C15   17   0.551  -0.015   0.006
    1UNL    C16   18   0.572  -0.151  -0.024
    1UNL    C17   19   0.695  -0.217  -0.035
    1UNL    C18   20   0.808  -0.129  -0.027
    1UNL    C19   21   0.793   0.008   0.007
    1UNL    C20   22   0.666   0.062   0.025
    1UNL     O3   23   0.917   0.067   0.012
    1UNL    C21   24   1.013  -0.036  -0.024
    1UNL     O4   25   0.941  -0.165  -0.022
    1UNL    C22   26  -0.343   0.133  -0.102
    1UNL     H1   27  -0.690  -0.053   0.064
    1UNL     H2   28  -0.657  -0.148  -0.079
    1UNL     H3   29  -0.604  -0.205   0.069
    1UNL     H4   30  -0.363  -0.220   0.021
    1UNL     H5   31  -0.402  -0.200  -0.154
    1UNL     H6   32  -0.291  -0.086  -0.075
    1UNL     H7   33  -0.528   0.073  -0.202
    1UNL     H8   34  -0.566   0.288  -0.030
    1UNL     H9   35  -0.686   0.155  -0.014
    1UNL    H10   36  -0.607   0.115   0.202
    1UNL    H11   37  -0.478   0.235   0.180
    1UNL    H12   38  -0.342   0.011   0.297
    1UNL    H13   39  -0.499  -0.067   0.290
    1UNL    H14   40  -0.349  -0.140   0.218
    1UNL    H15   41  -0.257   0.175   0.093
    1UNL    H16   42   0.047  -0.099   0.001
    1UNL    H17   43   0.177   0.169   0.013
    1UNL    H18   44   0.307  -0.106  -0.044
    1UNL    H19   45   0.421   0.153   0.056
    1UNL    H20   46   0.484  -0.203  -0.047
    1UNL    H21   47   0.699  -0.325  -0.033
    1UNL    H22   48   0.672   0.164   0.068
    1UNL    H23   49   1.096  -0.053   0.047
    1UNL    H24   50   1.047  -0.016  -0.129
    1UNL    H25   51  -0.345   0.240  -0.118
    1UNL    H26   52  -0.289   0.080  -0.181
   0.00000   0.00000   0.00000   0.00000   0.00000   0.00000   0.00000   0.00000   0.00000
Generated with MDTraj, t= 29.0
 52
    1UNL     C1    1  -0.624  -0.096   0.018
    1UNL     C2    2  -0.484  -0.039  -0.010
    1UNL     C3    3  -0.400  -0.156  -0.072
    1UNL     C4    4  -0.485   0.093  -0.110
    1UNL     C5    5  -0.550   0.192  -0.020
    1UNL     C6    6  -0.517   0.151   0.125
    1UNL     C7    7  -0.416   0.034   0.109
    1UNL     C8    8  -0.391  -0.049   0.237
    1UNL     C9    9  -0.291   0.094   0.040
    1UNL     O1   10  -0.189  -0.000   0.038
    1UNL    C10   11  -0.070   0.062   0.017
    1UNL     O2   12  -0.059   0.184  -0.009
    1UNL    C11   13   0.052  -0.020   0.035
    1UNL    C12   14   0.173   0.035   0.015
    1UNL    C13   15   0.298  -0.029   0.027
    1UNL    C14   16   0.409   0.042   0.008
    1UNL    C15   17   0.546  -0.014  -0.012
    1UNL    C16   18   0.566  -0.151  -0.023
    1UNL    C17   19   0.688  -0.202  -0.051
    1UNL    C18   20   0.799  -0.119  -0.032
    1UNL    C19   21   0.785   0.022  -0.007
    1UNL    C20   22   0.656   0.073  -0.012
    1UNL     O3   23   0.914   0.073   0.017
    1UNL    C21   24   1.001  -0.031   0.009
    1UNL     O4   25   0.937  -0.151  -0.031
    1UNL    C22   26  -0.332   0.128  -0.113
    1UNL     H1   27  -0.686  -0.015   0.051
    1UNL     H2   28  -0.668  -0.135  -0.065
    1UNL     H3   29  -0.627  -0.168   0.100
    1UNL     H4   30  -0.405  -0.247  -0.006
    1UNL     H5   31  -0.423  -0.183  -0.172
    1UNL     H6   32  -0.297  -0.122  -0.067
    1UNL     H7   33  -0.522   0.077  -0.208
    1UNL     H8   34  -0.514   0.289  -0.048
    1UNL     H9   35  -0.663   0.198  -0.030
    1UNL    H10   36  -0.595   0.115   0.188
    1UNL    H11   37  -0.477   0.232   0.194
    1UNL    H12   38  -0.376   0.014   0.318
    1UNL    H13   39  -0.481  -0.117   0.257
    1UNL    H14   40  -0.300  -0.112   0.234
    1UNL    H15   41  -0.256   0.173   0.100
    1UNL    H16   42   0.042  -0.117   0.071
    1UNL    H17   43   0.179   0.140  -0.019
    1UNL    H18   44   0.300  -0.137   0.046
    1UNL    H19   45   0.403   0.146   0.003
    1UNL    H20   46   0.474  -0.211  -0.036
    1UNL    H21   47   0.707  -0.308  -0.044
    1UNL    H22   48   0.628   0.173  -0.008
    1UNL    H23   49   1.046  -0.058   0.105
    1UNL    H24   50   1.085  -0.019  -0.061
    1UNL    H25   51  -0.321   0.231  -0.134
    1UNL    H26   52  -0.279   0.066  -0.181
   0.00000   0.00000   0.00000   0.00000   0.00000   0.00000   0.00000   0.00000   0.00000
Generated with MDTraj, t= 30.0
 52
    1UNL     C1    1  -0.643  -0.067   0.015
    1UNL     C2    2  -0.491  -0.045  -0.018
    1UNL     C3    3  -0.420  -0.166  -0.079
    1UNL     C4    4  -0.474   0.084  -0.110
    1UNL     C5    5  -0.544   0.208  -0.030
    1UNL     C6    6  -0.522   0.155   0.115
    1UNL     C7    7  -0.423   0.033   0.111
    1UNL     C8    8  -0.408  -0.047   0.235
    1UNL     C9    9  -0.292   0.090   0.046
    1UNL     O1   10  -0.186  -0.008   0.049
    1UNL    C10   11  -0.067   0.055   0.037
    1UNL     O2   12  -0.057   0.179   0.026
    1UNL    C11   13   0.060  -0.022   0.042
    1UNL    C12   14   0.178   0.040   0.014
    1UNL    C13   15   0.305  -0.030   0.005
    1UNL    C14   16   0.414   0.033  -0.031
    1UNL    C15   17   0.546  -0.018  -0.019
    1UNL    C16   18   0.577  -0.155  -0.048
    1UNL    C17   19   0.703  -0.207  -0.040
    1UNL    C18   20   0.805  -0.119  -0.014
    1UNL    C19   21   0.781   0.020   0.010
    1UNL    C20   22   0.657   0.074   0.001
    1UNL     O3   23   0.906   0.079   0.015
    1UNL    C21   24   0.997  -0.016  -0.010
    1UNL     O4   25   0.942  -0.147  -0.019
    1UNL    C22   26  -0.324   0.114  -0.103
    1UNL     H1   27  -0.692   0.013   0.069
    1UNL     H2   28  -0.704  -0.080  -0.069
    1UNL     H3   29  -0.660  -0.157   0.073
    1UNL     H4   30  -0.439  -0.262  -0.026
    1UNL     H5   31  -0.463  -0.183  -0.177
    1UNL     H6   32  -0.316  -0.175  -0.101
    1UNL     H7   33  -0.519   0.060  -0.201
    1UNL     H8   34  -0.498   0.301  -0.043
    1UNL     H9   35  -0.653   0.223  -0.065
    1UNL    H10   36  -0.608   0.131   0.172
    1UNL    H11   37  -0.487   0.241   0.181
    1UNL    H12   38  -0.334   0.009   0.292
    1UNL    H13   39  -0.507  -0.051   0.289
    1UNL    H14   40  -0.363  -0.145   0.219
    1UNL    H15   41  -0.257   0.177   0.097
    1UNL    H16   42   0.048  -0.130   0.066
    1UNL    H17   43   0.180   0.142  -0.004
    1UNL    H18   44   0.310  -0.131   0.043
    1UNL    H19   45   0.416   0.144  -0.045
    1UNL    H20   46   0.497  -0.224  -0.064
    1UNL    H21   47   0.739  -0.306  -0.063
    1UNL    H22   48   0.646   0.184  -0.020
    1UNL    H23   49   1.081  -0.011   0.058
    1UNL    H24   50   1.042  -0.013  -0.109
    1UNL    H25   51  -0.306   0.214  -0.122
    1UNL    H26   52  -0.272   0.052  -0.168
   0.00000   0.00000   0.00000   0.00000   0.00000   0.00000   0.00000   0.00000   0.00000
Generated with MDTraj, t= 31.0
 52
    1UNL     C1    1  -0.644  -0.070  -0.007
    1UNL     C2    2  -0.495  -0.035  -0.013
    1UNL     C3    3  -0.420  -0.157  -0.051
    1UNL     C4    4  -0.471   0.097  -0.112
    1UNL     C5    5  -0.545   0.206  -0.028
    1UNL     C6    6  -0.540   0.161   0.117
    1UNL     C7    7  -0.442   0.039   0.109
    1UNL     C8    8  -0.434  -0.044   0.244
    1UNL     C9    9  -0.295   0.082   0.046
    1UNL     O1   10  -0.190  -0.019   0.052
    1UNL    C10   11  -0.069   0.044   0.041
    1UNL     O2   12  -0.059   0.167   0.038
    1UNL    C11   13   0.057  -0.026   0.023
    1UNL    C12   14   0.173   0.033   0.007
    1UNL    C13   15   0.306  -0.025  -0.029
    1UNL    C14   16   0.426   0.039  -0.009
    1UNL    C15   17   0.555  -0.024  -0.022
    1UNL    C16   18   0.577  -0.161  -0.036
    1UNL    C17   19   0.704  -0.206  -0.031
    1UNL    C18   20   0.816  -0.121  -0.031
    1UNL    C19   21   0.791   0.021  -0.022
    1UNL    C20   22   0.662   0.065   0.007
    1UNL     O3   23   0.914   0.088  -0.011
    1UNL    C21   24   1.011  -0.010   0.014
    1UNL     O4   25   0.949  -0.142  -0.018
    1UNL    C22   26  -0.317   0.119  -0.099
    1UNL     H1   27  -0.700   0.017   0.018
    1UNL     H2   28  -0.683  -0.117  -0.100
    1UNL     H3   29  -0.657  -0.142   0.069
    1UNL     H4   30  -0.407  -0.239   0.019
    1UNL     H5   31  -0.447  -0.200  -0.151
    1UNL     H6   32  -0.320  -0.131  -0.066
    1UNL     H7   33  -0.510   0.085  -0.207
    1UNL     H8   34  -0.484   0.290  -0.041
    1UNL     H9   35  -0.651   0.212  -0.074
    1UNL    H10   36  -0.634   0.124   0.152
    1UNL    H11   37  -0.499   0.243   0.182
    1UNL    H12   38  -0.393   0.022   0.327
    1UNL    H13   39  -0.534  -0.082   0.269
    1UNL    H14   40  -0.362  -0.126   0.242
    1UNL    H15   41  -0.256   0.166   0.103
    1UNL    H16   42   0.050  -0.131   0.018
    1UNL    H17   43   0.173   0.145   0.008
    1UNL    H18   44   0.308  -0.129  -0.048
    1UNL    H19   45   0.424   0.135   0.032
    1UNL    H20   46   0.495  -0.227  -0.013
    1UNL    H21   47   0.719  -0.313  -0.031
    1UNL    H22   48   0.645   0.168   0.010
    1UNL    H23   49   1.032  -0.024   0.122
    1UNL    H24   50   1.112  -0.003  -0.027
    1UNL    H25   51  -0.286   0.213  -0.122
    1UNL    H26   52  -0.265   0.049  -0.153
   0.00000   0.00000   0.00000   0.00000   0.00000   0.00000   0.00000   0.00000   0.00000
Generated with MDTraj, t= 32.0
 52
    1UNL     C1    1  -0.624  -0.088   0.006
    1UNL     C2    2  -0.486  -0.029  -0.020
    1UNL     C3    3  -0.389  -0.145  -0.073
    1UNL     C4    4  -0.474   0.096  -0.111
    1UNL     C5    5  -0.550   0.207  -0.024
    1UNL     C6    6  -0.527   0.155   0.125
    1UNL     C7    7  -0.423   0.037   0.108
    1UNL     C8    8  -0.419  -0.049   0.226
    1UNL     C9    9  -0.289   0.087   0.048
    1UNL     O1   10  -0.184  -0.011   0.053
    1UNL    C10   11  -0.064   0.051   0.036
    1UNL     O2   12  -0.049   0.175   0.024
    1UNL    C11   13   0.055  -0.032   0.029
    1UNL    C12   14   0.170   0.026   0.019
    1UNL    C13   15   0.298  -0.040   0.004
    1UNL    C14   16   0.410   0.032  -0.017
    1UNL    C15   17   0.542  -0.018  -0.014
    1UNL    C16   18   0.569  -0.156  -0.025
    1UNL    C17   19   0.697  -0.207  -0.021
    1UNL    C18   20   0.803  -0.118  -0.016
    1UNL    C19   21   0.773   0.018  -0.003
    1UNL    C20   22   0.648   0.073  -0.006
    1UNL     O3   23   0.896   0.085  -0.003
    1UNL    C21   24   1.002  -0.013  -0.023
    1UNL     O4   25   0.944  -0.146  -0.018
    1UNL    C22   26  -0.316   0.125  -0.102
    1UNL     H1   27  -0.687  -0.025   0.067
    1UNL     H2   28  -0.669  -0.097  -0.098
    1UNL     H3   29  -0.623  -0.186   0.043
    1UNL     H4   30  -0.409  -0.233  -0.019
    1UNL     H5   31  -0.415  -0.162  -0.181
    1UNL     H6   32  -0.284  -0.122  -0.059
    1UNL     H7   33  -0.508   0.075  -0.207
    1UNL     H8   34  -0.505   0.303  -0.042
    1UNL     H9   35  -0.660   0.211  -0.046
    1UNL    H10   36  -0.621   0.125   0.172
    1UNL    H11   37  -0.474   0.232   0.185
    1UNL    H12   38  -0.377   0.015   0.314
    1UNL    H13   39  -0.517  -0.085   0.247
    1UNL    H14   40  -0.346  -0.128   0.219
    1UNL    H15   41  -0.254   0.180   0.099
    1UNL    H16   42   0.042  -0.139   0.018
    1UNL    H17   43   0.172   0.130   0.018
    1UNL    H18   44   0.308  -0.147   0.030
    1UNL    H19   45   0.395   0.140  -0.021
    1UNL    H20   46   0.480  -0.215  -0.047
    1UNL    H21   47   0.718  -0.311  -0.030
    1UNL    H22   48   0.644   0.180   0.007
    1UNL    H23   49   1.091  -0.018   0.046
    1UNL    H24   50   1.038   0.002  -0.126
    1UNL    H25   51  -0.297   0.223  -0.126
    1UNL    H26   52  -0.263   0.066  -0.166
   0.00000   0.00000   0.00000   0.00000   0.00000   0.00000   0.00000   0.00000   0.00000
Generated with MDTraj, t= 33.0
 52
    1UNL     C1    1  -0.621  -0.089  -0.006
    1UNL     C2    2  -0.478  -0.042  -0.031
    1UNL     C3    3  -0.387  -0.145  -0.091
    1UNL     C4    4  -0.480   0.099  -0.109
    1UNL     C5    5  -0.559   0.194  -0.016
    1UNL     C6    6  -0.526   0.137   0.125
    1UNL     C7    7  -0.426   0.020   0.103
    1UNL     C8    8  -0.394  -0.066   0.222
    1UNL     C9    9  -0.293   0.096   0.050
    1UNL     O1   10  -0.184   0.009   0.055
    1UNL    C10   11  -0.068   0.077   0.032
    1UNL     O2   12  -0.064   0.198  -0.001
    1UNL    C11   13   0.054  -0.005   0.054
    1UNL    C12   14   0.176   0.031   0.008
    1UNL    C13   15   0.296  -0.039   0.036
    1UNL    C14   16   0.410   0.024   0.008
    1UNL    C15   17   0.548  -0.027  -0.001
    1UNL    C16   18   0.568  -0.165   0.010
    1UNL    C17   19   0.696  -0.215  -0.024
    1UNL    C18   20   0.805  -0.124  -0.020
    1UNL    C19   21   0.781   0.016  -0.016
    1UNL    C20   22   0.655   0.065  -0.020
    1UNL     O3   23   0.901   0.079  -0.015
    1UNL    C21   24   1.001  -0.015  -0.023
    1UNL     O4   25   0.942  -0.143  -0.032
    1UNL    C22   26  -0.330   0.136  -0.094
    1UNL     H1   27  -0.690  -0.011   0.030
    1UNL     H2   28  -0.670  -0.128  -0.098
    1UNL     H3   29  -0.628  -0.170   0.066
    1UNL     H4   30  -0.401  -0.223  -0.023
    1UNL     H5   31  -0.419  -0.164  -0.196
    1UNL     H6   32  -0.282  -0.105  -0.072
    1UNL     H7   33  -0.518   0.094  -0.207
    1UNL     H8   34  -0.536   0.304  -0.018
    1UNL     H9   35  -0.666   0.197  -0.025
    1UNL    H10   36  -0.614   0.092   0.181
    1UNL    H11   37  -0.492   0.214   0.193
    1UNL    H12   38  -0.336  -0.012   0.303
    1UNL    H13   39  -0.489  -0.098   0.260
    1UNL    H14   40  -0.330  -0.154   0.205
    1UNL    H15   41  -0.270   0.182   0.123
    1UNL    H16   42   0.035  -0.103   0.099
    1UNL    H17   43   0.183   0.128  -0.044
    1UNL    H18   44   0.288  -0.134   0.079
    1UNL    H19   45   0.392   0.127  -0.019
    1UNL    H20   46   0.481  -0.224  -0.002
    1UNL    H21   47   0.717  -0.320  -0.034
    1UNL    H22   48   0.634   0.172  -0.018
    1UNL    H23   49   1.054  -0.011   0.077
    1UNL    H24   50   1.062  -0.008  -0.115
    1UNL    H25   51  -0.322   0.239  -0.107
    1UNL    H26   52  -0.267   0.090  -0.162
   0.00000   0.00000   0.00000   0.00000   0.00000   0.00000   0.00000   0.00000   0.00000
Generated with MDTraj, t= 34.0
 52
    1UNL     C1    1  -0.627  -0.105  -0.029
    1UNL     C2    2  -0.485  -0.046  -0.029
    1UNL     C3    3  -0.382  -0.140  -0.096
    1UNL     C4    4  -0.487   0.097  -0.105
    1UNL     C5    5  -0.584   0.174  -0.017
    1UNL     C6    6  -0.541   0.133   0.132
    1UNL     C7    7  -0.435   0.022   0.112
    1UNL     C8    8  -0.421  -0.070   0.231
    1UNL     C9    9  -0.304   0.095   0.059
    1UNL     O1   10  -0.183   0.008   0.061
    1UNL    C10   11  -0.069   0.074   0.029
    1UNL     O2   12  -0.083   0.193  -0.002
    1UNL    C11   13   0.056  -0.001   0.028
    1UNL    C12   14   0.182   0.055   0.026
    1UNL    C13   15   0.310  -0.010   0.018
    1UNL    C14   16   0.430   0.049   0.014
    1UNL    C15   17   0.559  -0.011   0.001
    1UNL    C16   18   0.579  -0.149   0.009
    1UNL    C17   19   0.698  -0.215   0.008
    1UNL    C18   20   0.806  -0.133  -0.018
    1UNL    C19   21   0.796   0.013  -0.028
    1UNL    C20   22   0.672   0.070  -0.012
    1UNL     O3   23   0.923   0.066  -0.036
    1UNL    C21   24   1.011  -0.043  -0.046
    1UNL     O4   25   0.943  -0.163  -0.015
    1UNL    C22   26  -0.341   0.158  -0.082
    1UNL     H1   27  -0.702  -0.036   0.017
    1UNL     H2   28  -0.658  -0.126  -0.131
    1UNL     H3   29  -0.627  -0.204   0.027
    1UNL     H4   30  -0.354  -0.226  -0.037
    1UNL     H5   31  -0.423  -0.170  -0.191
    1UNL     H6   32  -0.284  -0.086  -0.113
    1UNL     H7   33  -0.503   0.109  -0.208
    1UNL     H8   34  -0.575   0.287  -0.035
    1UNL     H9   35  -0.685   0.159  -0.040
    1UNL    H10   36  -0.634   0.101   0.194
    1UNL    H11   37  -0.499   0.210   0.193
    1UNL    H12   38  -0.389  -0.012   0.318
    1UNL    H13   39  -0.509  -0.135   0.252
    1UNL    H14   40  -0.326  -0.128   0.222
    1UNL    H15   41  -0.269   0.178   0.133
    1UNL    H16   42   0.044  -0.105   0.026
    1UNL    H17   43   0.176   0.160   0.023
    1UNL    H18   44   0.306  -0.119   0.016
    1UNL    H19   45   0.433   0.155   0.014
    1UNL    H20   46   0.493  -0.219   0.021
    1UNL    H21   47   0.698  -0.322   0.009
    1UNL    H22   48   0.662   0.172   0.000
    1UNL    H23   49   1.090  -0.022   0.030
    1UNL    H24   50   1.039  -0.059  -0.150
    1UNL    H25   51  -0.331   0.264  -0.080
    1UNL    H26   52  -0.272   0.122  -0.157
   0.00000   0.00000   0.00000   0.00000   0.00000   0.00000   0.00000   0.00000   0.00000
Generated with MDTraj, t= 35.0
 52
    1UNL     C1    1  -0.611  -0.112  -0.036
    1UNL     C2    2  -0.469  -0.046  -0.034
    1UNL     C3    3  -0.366  -0.143  -0.102
    1UNL     C4    4  -0.475   0.094  -0.103
    1UNL     C5    5  -0.571   0.174  -0.000
    1UNL     C6    6  -0.525   0.135   0.141
    1UNL     C7    7  -0.421   0.013   0.104
    1UNL     C8    8  -0.403  -0.093   0.216
    1UNL     C9    9  -0.291   0.090   0.055
    1UNL     O1   10  -0.171   0.012   0.061
    1UNL    C10   11  -0.062   0.080   0.039
    1UNL     O2   12  -0.071   0.201   0.027
    1UNL    C11   13   0.067   0.012   0.024
    1UNL    C12   14   0.183   0.076   0.011
    1UNL    C13   15   0.302   0.002   0.003
    1UNL    C14   16   0.421   0.069  -0.008
    1UNL    C15   17   0.548   0.005   0.008
    1UNL    C16   18   0.552  -0.137   0.037
    1UNL    C17   19   0.673  -0.207   0.034
    1UNL    C18   20   0.784  -0.134  -0.000
    1UNL    C19   21   0.778   0.005  -0.025
    1UNL    C20   22   0.659   0.080  -0.008
    1UNL     O3   23   0.906   0.057  -0.060
    1UNL    C21   24   0.992  -0.058  -0.044
    1UNL     O4   25   0.911  -0.179  -0.025
    1UNL    C22   26  -0.328   0.140  -0.090
    1UNL     H1   27  -0.692  -0.042  -0.006
    1UNL     H2   28  -0.635  -0.156  -0.131
    1UNL     H3   29  -0.592  -0.196   0.042
    1UNL     H4   30  -0.369  -0.250  -0.069
    1UNL     H5   31  -0.374  -0.148  -0.207
    1UNL     H6   32  -0.260  -0.128  -0.084
    1UNL     H7   33  -0.515   0.091  -0.202
    1UNL     H8   34  -0.556   0.287  -0.018
    1UNL     H9   35  -0.672   0.154  -0.015
    1UNL    H10   36  -0.616   0.105   0.204
    1UNL    H11   37  -0.477   0.219   0.188
    1UNL    H12   38  -0.357  -0.056   0.304
    1UNL    H13   39  -0.502  -0.148   0.229
    1UNL    H14   40  -0.324  -0.168   0.186
    1UNL    H15   41  -0.263   0.182   0.122
    1UNL    H16   42   0.073  -0.099   0.033
    1UNL    H17   43   0.179   0.185   0.013
    1UNL    H18   44   0.293  -0.107  -0.001
    1UNL    H19   45   0.427   0.181  -0.014
    1UNL    H20   46   0.466  -0.186   0.074
    1UNL    H21   47   0.682  -0.315   0.023
    1UNL    H22   48   0.651   0.187  -0.041
    1UNL    H23   49   1.056  -0.054   0.046
    1UNL    H24   50   1.045  -0.064  -0.138
    1UNL    H25   51  -0.330   0.249  -0.099
    1UNL    H26   52  -0.260   0.101  -0.168
   0.00000   0.00000   0.00000   0.00000   0.00000   0.00000   0.00000   0.00000   0.00000
Generated with MDTraj, t= 36.0
 52
    1UNL     C1    1  -0.596  -0.120  -0.042
    1UNL     C2    2  -0.463  -0.048  -0.047
    1UNL     C3    3  -0.364  -0.140  -0.105
    1UNL     C4    4  -0.484   0.095  -0.109
    1UNL     C5    5  -0.578   0.164   0.000
    1UNL     C6    6  -0.522   0.114   0.140
    1UNL     C7    7  -0.415   0.007   0.101
    1UNL     C8    8  -0.379  -0.101   0.201
    1UNL     C9    9  -0.290   0.092   0.061
    1UNL     O1   10  -0.170   0.010   0.057
    1UNL    C10   11  -0.064   0.095   0.045
    1UNL     O2   12  -0.079   0.218   0.046
    1UNL    C11   13   0.064   0.027   0.033
    1UNL    C12   14   0.178   0.096   0.022
    1UNL    C13   15   0.298   0.021   0.017
    1UNL    C14   16   0.419   0.080  -0.009
    1UNL    C15   17   0.546   0.006   0.006
    1UNL    C16   18   0.547  -0.134   0.042
    1UNL    C17   19   0.667  -0.201   0.040
    1UNL    C18   20   0.782  -0.133   0.007
    1UNL    C19   21   0.784   0.000  -0.035
    1UNL    C20   22   0.664   0.071  -0.041
    1UNL     O3   23   0.913   0.042  -0.078
    1UNL    C21   24   0.992  -0.078  -0.053
    1UNL     O4   25   0.907  -0.183   0.003
    1UNL    C22   26  -0.336   0.147  -0.083
    1UNL     H1   27  -0.674  -0.058   0.007
    1UNL     H2   28  -0.635  -0.136  -0.146
    1UNL     H3   29  -0.590  -0.221   0.009
    1UNL     H4   30  -0.338  -0.224  -0.032
    1UNL     H5   31  -0.404  -0.188  -0.193
    1UNL     H6   32  -0.272  -0.093  -0.121
    1UNL     H7   33  -0.521   0.087  -0.211
    1UNL     H8   34  -0.577   0.276  -0.009
    1UNL     H9   35  -0.679   0.133  -0.019
    1UNL    H10   36  -0.608   0.070   0.196
    1UNL    H11   37  -0.484   0.205   0.189
    1UNL    H12   38  -0.343  -0.070   0.295
    1UNL    H13   39  -0.474  -0.165   0.198
    1UNL    H14   40  -0.290  -0.159   0.163
    1UNL    H15   41  -0.274   0.173   0.143
    1UNL    H16   42   0.059  -0.077   0.042
    1UNL    H17   43   0.168   0.204   0.028
    1UNL    H18   44   0.290  -0.084   0.015
    1UNL    H19   45   0.418   0.182  -0.023
    1UNL    H20   46   0.463  -0.199   0.068
    1UNL    H21   47   0.665  -0.307   0.062
    1UNL    H22   48   0.672   0.167  -0.083
    1UNL    H23   49   1.071  -0.055   0.020
    1UNL    H24   50   1.031  -0.110  -0.150
    1UNL    H25   51  -0.335   0.259  -0.091
    1UNL    H26   52  -0.272   0.104  -0.163
   0.00000   0.00000   0.00000   0.00000   0.00000   0.00000   0.00000   0.00000   0.00000
Generated with MDTraj, t= 37.0
 52
    1UNL     C1    1  -0.599  -0.141  -0.044
    1UNL     C2    2  -0.476  -0.050  -0.051
    1UNL     C3    3  -0.357  -0.120  -0.126
    1UNL     C4    4  -0.494   0.093  -0.107
    1UNL     C5    5  -0.594   0.142  -0.003
    1UNL     C6    6  -0.545   0.093   0.139
    1UNL     C7    7  -0.427   0.005   0.097
    1UNL     C8    8  -0.392  -0.095   0.208
    1UNL     C9    9  -0.304   0.097   0.060
    1UNL     O1   10  -0.181   0.025   0.057
    1UNL    C10   11  -0.070   0.109   0.051
    1UNL     O2   12  -0.080   0.231   0.048
    1UNL    C11   13   0.064   0.045   0.040
    1UNL    C12   14   0.185   0.106   0.024
    1UNL    C13   15   0.303   0.028   0.029
    1UNL    C14   16   0.425   0.075   0.003
    1UNL    C15   17   0.551   0.002  -0.003
    1UNL    C16   18   0.567  -0.121   0.059
    1UNL    C17   19   0.685  -0.200   0.049
    1UNL    C18   20   0.797  -0.143  -0.004
    1UNL    C19   21   0.792  -0.007  -0.058
    1UNL    C20   22   0.669   0.054  -0.057
    1UNL     O3   23   0.926   0.028  -0.086
    1UNL    C21   24   1.005  -0.090  -0.053
    1UNL     O4   25   0.925  -0.187   0.009
    1UNL    C22   26  -0.354   0.161  -0.068
    1UNL     H1   27  -0.701  -0.099  -0.024
    1UNL     H2   28  -0.624  -0.180  -0.153
    1UNL     H3   29  -0.589  -0.233   0.015
    1UNL     H4   30  -0.347  -0.224  -0.089
    1UNL     H5   31  -0.390  -0.124  -0.229
    1UNL     H6   32  -0.269  -0.065  -0.106
    1UNL     H7   33  -0.527   0.099  -0.211
    1UNL     H8   34  -0.595   0.250  -0.013
    1UNL     H9   35  -0.696   0.104  -0.031
    1UNL    H10   36  -0.619   0.039   0.199
    1UNL    H11   37  -0.494   0.172   0.202
    1UNL    H12   38  -0.345  -0.048   0.295
    1UNL    H13   39  -0.482  -0.157   0.230
    1UNL    H14   40  -0.306  -0.159   0.173
    1UNL    H15   41  -0.294   0.173   0.147
    1UNL    H16   42   0.060  -0.062   0.062
    1UNL    H17   43   0.179   0.209   0.007
    1UNL    H18   44   0.284  -0.080   0.048
    1UNL    H19   45   0.422   0.185  -0.024
    1UNL    H20   46   0.479  -0.166   0.102
    1UNL    H21   47   0.697  -0.274   0.129
    1UNL    H22   48   0.662   0.157  -0.087
    1UNL    H23   49   1.081  -0.047   0.016
    1UNL    H24   50   1.053  -0.136  -0.142
    1UNL    H25   51  -0.369   0.274  -0.055
    1UNL    H26   52  -0.283   0.141  -0.154
   0.00000   0.00000   0.00000   0.00000   0.00000   0.00000   0.00000   0.00000   0.00000
Generated with MDTraj, t= 38.0
 52
    1UNL     C1    1  -0.584  -0.132  -0.053
    1UNL     C2    2  -0.455  -0.052  -0.053
    1UNL     C3    3  -0.337  -0.127  -0.123
    1UNL     C4    4  -0.476   0.098  -0.103
    1UNL     C5    5  -0.577   0.156   0.005
    1UNL     C6    6  -0.536   0.095   0.136
    1UNL     C7    7  -0.410  -0.006   0.095
    1UNL     C8    8  -0.373  -0.116   0.209
    1UNL     C9    9  -0.292   0.096   0.060
    1UNL     O1   10  -0.168   0.030   0.052
    1UNL    C10   11  -0.064   0.119   0.047
    1UNL     O2   12  -0.064   0.240   0.034
    1UNL    C11   13   0.057   0.040   0.045
    1UNL    C12   14   0.177   0.088   0.016
    1UNL    C13   15   0.291   0.011   0.033
    1UNL    C14   16   0.410   0.065  -0.001
    1UNL    C15   17   0.537  -0.004   0.011
    1UNL    C16   18   0.549  -0.130   0.073
    1UNL    C17   19   0.670  -0.196   0.069
    1UNL    C18   20   0.779  -0.129   0.008
    1UNL    C19   21   0.775   0.001  -0.048
    1UNL    C20   22   0.649   0.053  -0.051
    1UNL     O3   23   0.902   0.034  -0.099
    1UNL    C21   24   0.976  -0.084  -0.070
    1UNL     O4   25   0.914  -0.177   0.005
    1UNL    C22   26  -0.340   0.165  -0.069
    1UNL     H1   27  -0.669  -0.085   0.007
    1UNL     H2   28  -0.635  -0.133  -0.158
    1UNL     H3   29  -0.567  -0.235  -0.018
    1UNL     H4   30  -0.324  -0.226  -0.088
    1UNL     H5   31  -0.371  -0.136  -0.227
    1UNL     H6   32  -0.240  -0.075  -0.114
    1UNL     H7   33  -0.501   0.105  -0.211
    1UNL     H8   34  -0.586   0.262   0.005
    1UNL     H9   35  -0.683   0.117  -0.023
    1UNL    H10   36  -0.603   0.023   0.176
    1UNL    H11   37  -0.504   0.164   0.223
    1UNL    H12   38  -0.353  -0.073   0.314
    1UNL    H13   39  -0.445  -0.197   0.207
    1UNL    H14   40  -0.270  -0.155   0.195
    1UNL    H15   41  -0.276   0.171   0.145
    1UNL    H16   42   0.043  -0.066   0.063
    1UNL    H17   43   0.181   0.196  -0.013
    1UNL    H18   44   0.272  -0.079   0.085
    1UNL    H19   45   0.406   0.157  -0.052
    1UNL    H20   46   0.464  -0.172   0.124
    1UNL    H21   47   0.691  -0.287   0.120
    1UNL    H22   48   0.637   0.149  -0.107
    1UNL    H23   49   1.074  -0.050  -0.026
    1UNL    H24   50   0.998  -0.123  -0.173
    1UNL    H25   51  -0.357   0.278  -0.046
    1UNL    H26   52  -0.260   0.161  -0.153
   0.00000   0.00000   0.00000   0.00000   0.00000   0.00000   0.00000   0.00000   0.00000
Generated with MDTraj, t= 39.0
 52
    1UNL     C1    1  -0.587  -0.137  -0.061
    1UNL     C2    2  -0.453  -0.049  -0.054
    1UNL     C3    3  -0.328  -0.118  -0.120
    1UNL     C4    4  -0.469   0.107  -0.100
    1UNL     C5    5  -0.576   0.173  -0.001
    1UNL     C6    6  -0.546   0.098   0.134
    1UNL     C7    7  -0.423   0.001   0.104
    1UNL     C8    8  -0.396  -0.110   0.201
    1UNL     C9    9  -0.298   0.099   0.075
    1UNL     O1   10  -0.182   0.014   0.068
    1UNL    C10   11  -0.073   0.092   0.041
    1UNL     O2   12  -0.074   0.210   0.013
    1UNL    C11   13   0.056   0.025   0.053
    1UNL    C12   14   0.172   0.088   0.034
    1UNL    C13   15   0.297   0.016   0.028
    1UNL    C14   16   0.417   0.079   0.013
    1UNL    C15   17   0.548   0.013   0.015
    1UNL    C16   18   0.558  -0.118   0.071
    1UNL    C17   19   0.674  -0.185   0.071
    1UNL    C18   20   0.789  -0.131   0.011
    1UNL    C19   21   0.780  -0.006  -0.060
    1UNL    C20   22   0.660   0.070  -0.052
    1UNL     O3   23   0.899   0.021  -0.118
    1UNL    C21   24   0.984  -0.086  -0.068
    1UNL     O4   25   0.914  -0.181   0.004
    1UNL    C22   26  -0.332   0.165  -0.063
    1UNL     H1   27  -0.678  -0.076  -0.030
    1UNL     H2   28  -0.598  -0.159  -0.171
    1UNL     H3   29  -0.563  -0.233  -0.004
    1UNL     H4   30  -0.297  -0.210  -0.084
    1UNL     H5   31  -0.354  -0.139  -0.224
    1UNL     H6   32  -0.231  -0.062  -0.121
    1UNL     H7   33  -0.496   0.118  -0.208
    1UNL     H8   34  -0.566   0.278   0.006
    1UNL     H9   35  -0.687   0.161  -0.037
    1UNL    H10   36  -0.624   0.039   0.177
    1UNL    H11   37  -0.518   0.175   0.215
    1UNL    H12   38  -0.338  -0.093   0.304
    1UNL    H13   39  -0.485  -0.171   0.205
    1UNL    H14   40  -0.321  -0.170   0.150
    1UNL    H15   41  -0.281   0.163   0.166
    1UNL    H16   42   0.058  -0.080   0.050
    1UNL    H17   43   0.169   0.191   0.031
    1UNL    H18   44   0.288  -0.091   0.048
    1UNL    H19   45   0.415   0.186  -0.004
    1UNL    H20   46   0.479  -0.153   0.135
    1UNL    H21   47   0.681  -0.288   0.104
    1UNL    H22   48   0.647   0.147  -0.120
    1UNL    H23   49   1.058  -0.040  -0.003
    1UNL    H24   50   1.044  -0.114  -0.158
    1UNL    H25   51  -0.323   0.282  -0.063
    1UNL    H26   52  -0.259   0.133  -0.148
   0.00000   0.00000   0.00000   0.00000   0.00000   0.00000   0.00000   0.00000   0.00000
Generated with MDTraj, t= 40.0
 52
    1UNL     C1    1  -0.603  -0.119  -0.073
    1UNL     C2    2  -0.467  -0.044  -0.050
    1UNL     C3    3  -0.364  -0.131  -0.110
    1UNL     C4    4  -0.468   0.102  -0.104
    1UNL     C5    5  -0.571   0.174  -0.018
    1UNL     C6    6  -0.561   0.104   0.124
    1UNL     C7    7  -0.434   0.003   0.102
    1UNL     C8    8  -0.425  -0.115   0.204
    1UNL     C9    9  -0.300   0.091   0.082
    1UNL     O1   10  -0.186   0.012   0.077
    1UNL    C10   11  -0.077   0.092   0.050
    1UNL     O2   12  -0.082   0.210   0.026
    1UNL    C11   13   0.061   0.033   0.061
    1UNL    C12   14   0.179   0.090   0.029
    1UNL    C13   15   0.313   0.025   0.033
    1UNL    C14   16   0.431   0.071  -0.010
    1UNL    C15   17   0.550   0.003   0.005
    1UNL    C16   18   0.572  -0.115   0.080
    1UNL    C17   19   0.695  -0.180   0.083
    1UNL    C18   20   0.801  -0.137   0.010
    1UNL    C19   21   0.785  -0.009  -0.047
    1UNL    C20   22   0.668   0.062  -0.043
    1UNL     O3   23   0.906   0.033  -0.111
    1UNL    C21   24   0.997  -0.082  -0.089
    1UNL     O4   25   0.929  -0.182  -0.013
    1UNL    C22   26  -0.325   0.154  -0.060
    1UNL     H1   27  -0.687  -0.081  -0.008
    1UNL     H2   28  -0.631  -0.101  -0.178
    1UNL     H3   29  -0.576  -0.233  -0.060
    1UNL     H4   30  -0.376  -0.231  -0.073
    1UNL     H5   31  -0.363  -0.133  -0.218
    1UNL     H6   32  -0.265  -0.107  -0.072
    1UNL     H7   33  -0.491   0.113  -0.213
    1UNL     H8   34  -0.539   0.278  -0.022
    1UNL     H9   35  -0.674   0.164  -0.060
    1UNL    H10   36  -0.655   0.052   0.139
    1UNL    H11   37  -0.547   0.179   0.207
    1UNL    H12   38  -0.402  -0.092   0.315
    1UNL    H13   39  -0.515  -0.178   0.192
    1UNL    H14   40  -0.338  -0.177   0.180
    1UNL    H15   41  -0.287   0.151   0.175
    1UNL    H16   42   0.063  -0.070   0.103
    1UNL    H17   43   0.174   0.194  -0.014
    1UNL    H18   44   0.311  -0.069   0.089
    1UNL    H19   45   0.434   0.170  -0.059
    1UNL    H20   46   0.492  -0.147   0.145
    1UNL    H21   47   0.710  -0.268   0.145
    1UNL    H22   48   0.666   0.166  -0.084
    1UNL    H23   49   1.089  -0.041  -0.054
    1UNL    H24   50   1.027  -0.122  -0.187
    1UNL    H25   51  -0.327   0.271  -0.069
    1UNL    H26   52  -0.245   0.118  -0.138
   0.00000   0.00000   0.00000   0.00000   0.00000   0.00000   0.00000   0.00000   0.00000
Generated with MDTraj, t= 41.0
 52
    1UNL     C1    1  -0.601  -0.111  -0.048
    1UNL     C2    2  -0.465  -0.045  -0.055
    1UNL     C3    3  -0.364  -0.142  -0.119
    1UNL     C4    4  -0.463   0.098  -0.124
    1UNL     C5    5  -0.559   0.183  -0.021
    1UNL     C6    6  -0.545   0.114   0.122
    1UNL     C7    7  -0.426   0.010   0.090
    1UNL     C8    8  -0.399  -0.091   0.197
    1UNL     C9    9  -0.293   0.086   0.062
    1UNL     O1   10  -0.177   0.007   0.058
    1UNL    C10   11  -0.066   0.090   0.066
    1UNL     O2   12  -0.050   0.210   0.059
    1UNL    C11   13   0.060   0.011   0.090
    1UNL    C12   14   0.177   0.063   0.052
    1UNL    C13   15   0.304   0.000   0.047
    1UNL    C14   16   0.414   0.062  -0.001
    1UNL    C15   17   0.544  -0.002   0.007
    1UNL    C16   18   0.559  -0.125   0.074
    1UNL    C17   19   0.683  -0.186   0.070
    1UNL    C18   20   0.794  -0.127   0.015
    1UNL    C19   21   0.765  -0.007  -0.056
    1UNL    C20   22   0.650   0.057  -0.068
    1UNL     O3   23   0.883   0.041  -0.118
    1UNL    C21   24   0.982  -0.057  -0.080
    1UNL     O4   25   0.927  -0.159  -0.001
    1UNL    C22   26  -0.319   0.148  -0.080
    1UNL     H1   27  -0.689  -0.044  -0.027
    1UNL     H2   28  -0.632  -0.147  -0.149
    1UNL     H3   29  -0.604  -0.208   0.018
    1UNL     H4   30  -0.388  -0.244  -0.082
    1UNL     H5   31  -0.394  -0.137  -0.222
    1UNL     H6   32  -0.263  -0.113  -0.105
    1UNL     H7   33  -0.480   0.107  -0.237
    1UNL     H8   34  -0.525   0.290  -0.011
    1UNL     H9   35  -0.656   0.191  -0.061
    1UNL    H10   36  -0.641   0.063   0.148
    1UNL    H11   37  -0.529   0.185   0.202
    1UNL    H12   38  -0.356  -0.052   0.288
    1UNL    H13   39  -0.487  -0.163   0.211
    1UNL    H14   40  -0.312  -0.149   0.161
    1UNL    H15   41  -0.264   0.166   0.128
    1UNL    H16   42   0.052  -0.082   0.136
    1UNL    H17   43   0.176   0.158   0.006
    1UNL    H18   44   0.315  -0.092   0.095
    1UNL    H19   45   0.401   0.159  -0.038
    1UNL    H20   46   0.478  -0.192   0.100
    1UNL    H21   47   0.702  -0.273   0.127
    1UNL    H22   48   0.641   0.153  -0.111
    1UNL    H23   49   1.057   0.006  -0.037
    1UNL    H24   50   1.023  -0.098  -0.175
    1UNL    H25   51  -0.332   0.264  -0.078
    1UNL    H26   52  -0.240   0.129  -0.163
   0.00000   0.00000   0.00000   0.00000   0.00000   0.00000   0.00000   0.00000   0.00000
Generated with MDTraj, t= 42.0
 52
    1UNL     C1    1  -0.604  -0.118  -0.045
    1UNL     C2    2  -0.472  -0.044  -0.053
    1UNL     C3    3  -0.357  -0.140  -0.105
    1UNL     C4    4  -0.465   0.103  -0.124
    1UNL     C5    5  -0.553   0.188  -0.037
    1UNL     C6    6  -0.532   0.130   0.105
    1UNL     C7    7  -0.429   0.017   0.086
    1UNL     C8    8  -0.414  -0.071   0.217
    1UNL     C9    9  -0.295   0.096   0.046
    1UNL     O1   10  -0.184   0.007   0.043
    1UNL    C10   11  -0.070   0.083   0.064
    1UNL     O2   12  -0.065   0.201   0.090
    1UNL    C11   13   0.056   0.001   0.066
    1UNL    C12   14   0.174   0.057   0.082
    1UNL    C13   15   0.299  -0.016   0.072
    1UNL    C14   16   0.410   0.036   0.014
    1UNL    C15   17   0.540  -0.021  -0.003
    1UNL    C16   18   0.572  -0.138   0.069
    1UNL    C17   19   0.698  -0.194   0.063
    1UNL    C18   20   0.807  -0.122   0.005
    1UNL    C19   21   0.771  -0.002  -0.066
    1UNL    C20   22   0.639   0.042  -0.077
    1UNL     O3   23   0.883   0.050  -0.122
    1UNL    C21   24   0.990  -0.036  -0.075
    1UNL     O4   25   0.944  -0.141  -0.001
    1UNL    C22   26  -0.326   0.153  -0.090
    1UNL     H1   27  -0.692  -0.075   0.013
    1UNL     H2   28  -0.663  -0.142  -0.141
    1UNL     H3   29  -0.592  -0.219  -0.001
    1UNL     H4   30  -0.348  -0.223  -0.029
    1UNL     H5   31  -0.390  -0.179  -0.197
    1UNL     H6   32  -0.264  -0.094  -0.119
    1UNL     H7   33  -0.490   0.107  -0.236
    1UNL     H8   34  -0.510   0.294  -0.040
    1UNL     H9   35  -0.649   0.200  -0.069
    1UNL    H10   36  -0.633   0.081   0.128
    1UNL    H11   37  -0.516   0.197   0.187
    1UNL    H12   38  -0.370  -0.028   0.302
    1UNL    H13   39  -0.516  -0.118   0.240
    1UNL    H14   40  -0.343  -0.156   0.196
    1UNL    H15   41  -0.267   0.157   0.127
    1UNL    H16   42   0.043  -0.107   0.054
    1UNL    H17   43   0.181   0.166   0.096
    1UNL    H18   44   0.310  -0.122   0.100
    1UNL    H19   45   0.408   0.145  -0.016
    1UNL    H20   46   0.493  -0.181   0.127
    1UNL    H21   47   0.716  -0.295   0.103
    1UNL    H22   48   0.618   0.137  -0.126
    1UNL    H23   49   1.045   0.031  -0.010
    1UNL    H24   50   1.042  -0.055  -0.174
    1UNL    H25   51  -0.306   0.266  -0.092
    1UNL    H26   52  -0.253   0.106  -0.167
   0.00000   0.00000   0.00000   0.00000   0.00000   0.00000   0.00000   0.00000   0.00000
Generated with MDTraj, t= 43.0
 52
    1UNL     C1    1  -0.622  -0.114  -0.045
    1UNL     C2    2  -0.483  -0.045  -0.055
    1UNL     C3    3  -0.374  -0.150  -0.093
    1UNL     C4    4  -0.468   0.099  -0.129
    1UNL     C5    5  -0.561   0.202  -0.047
    1UNL     C6    6  -0.550   0.142   0.095
    1UNL     C7    7  -0.440   0.027   0.087
    1UNL     C8    8  -0.426  -0.061   0.215
    1UNL     C9    9  -0.299   0.104   0.050
    1UNL     O1   10  -0.187   0.013   0.065
    1UNL    C10   11  -0.070   0.076   0.084
    1UNL     O2   12  -0.061   0.195   0.093
    1UNL    C11   13   0.047  -0.015   0.084
    1UNL    C12   14   0.166   0.032   0.041
    1UNL    C13   15   0.296  -0.035   0.044
    1UNL    C14   16   0.415   0.032   0.024
    1UNL    C15   17   0.553  -0.018   0.024
    1UNL    C16   18   0.587  -0.144   0.070
    1UNL    C17   19   0.717  -0.190   0.068
    1UNL    C18   20   0.814  -0.119  -0.009
    1UNL    C19   21   0.783   0.004  -0.065
    1UNL    C20   22   0.652   0.055  -0.035
    1UNL     O3   23   0.897   0.065  -0.116
    1UNL    C21   24   1.001  -0.038  -0.096
    1UNL     O4   25   0.952  -0.143  -0.021
    1UNL    C22   26  -0.321   0.142  -0.101
    1UNL     H1   27  -0.708  -0.049  -0.010
    1UNL     H2   28  -0.658  -0.141  -0.155
    1UNL     H3   29  -0.619  -0.213   0.002
    1UNL     H4   30  -0.384  -0.251  -0.052
    1UNL     H5   31  -0.372  -0.160  -0.198
    1UNL     H6   32  -0.271  -0.119  -0.076
    1UNL     H7   33  -0.495   0.092  -0.241
    1UNL     H8   34  -0.525   0.309  -0.049
    1UNL     H9   35  -0.661   0.206  -0.079
    1UNL    H10   36  -0.653   0.105   0.127
    1UNL    H11   37  -0.515   0.200   0.177
    1UNL    H12   38  -0.404  -0.003   0.302
    1UNL    H13   39  -0.520  -0.117   0.226
    1UNL    H14   40  -0.337  -0.133   0.213
    1UNL    H15   41  -0.281   0.186   0.113
    1UNL    H16   42   0.034  -0.121   0.103
    1UNL    H17   43   0.173   0.138   0.016
    1UNL    H18   44   0.303  -0.136   0.072
    1UNL    H19   45   0.417   0.133  -0.004
    1UNL    H20   46   0.507  -0.190   0.128
    1UNL    H21   47   0.741  -0.288   0.100
    1UNL    H22   48   0.622   0.152  -0.071
    1UNL    H23   49   1.090   0.013  -0.055
    1UNL    H24   50   1.009  -0.065  -0.206
    1UNL    H25   51  -0.296   0.249  -0.118
    1UNL    H26   52  -0.251   0.088  -0.171
   0.00000   0.00000   0.00000   0.00000   0.00000   0.00000   0.00000   0.00000   0.00000
Generated with MDTraj, t= 44.0
 52
    1UNL     C1    1  -0.615  -0.095  -0.044
    1UNL     C2    2  -0.472  -0.040  -0.046
    1UNL     C3    3  -0.390  -0.164  -0.088
    1UNL     C4    4  -0.444   0.096  -0.125
    1UNL     C5    5  -0.534   0.201  -0.052
    1UNL     C6    6  -0.532   0.162   0.097
    1UNL     C7    7  -0.439   0.028   0.093
    1UNL     C8    8  -0.445  -0.059   0.218
    1UNL     C9    9  -0.287   0.080   0.061
    1UNL     O1   10  -0.185  -0.013   0.074
    1UNL    C10   11  -0.061   0.054   0.061
    1UNL     O2   12  -0.055   0.172   0.039
    1UNL    C11   13   0.060  -0.020   0.068
    1UNL    C12   14   0.173   0.052   0.058
    1UNL    C13   15   0.298  -0.016   0.062
    1UNL    C14   16   0.407   0.050   0.026
    1UNL    C15   17   0.543  -0.011   0.016
    1UNL    C16   18   0.572  -0.137   0.067
    1UNL    C17   19   0.697  -0.195   0.047
    1UNL    C18   20   0.797  -0.121  -0.006
    1UNL    C19   21   0.774   0.015  -0.044
    1UNL    C20   22   0.650   0.070  -0.037
    1UNL     O3   23   0.887   0.075  -0.097
    1UNL    C21   24   0.984  -0.037  -0.095
    1UNL     O4   25   0.930  -0.151  -0.031
    1UNL    C22   26  -0.291   0.132  -0.082
    1UNL     H1   27  -0.680  -0.010  -0.011
    1UNL     H2   28  -0.643  -0.127  -0.152
    1UNL     H3   29  -0.616  -0.188   0.015
    1UNL     H4   30  -0.405  -0.244  -0.023
    1UNL     H5   31  -0.413  -0.195  -0.188
    1UNL     H6   32  -0.280  -0.146  -0.094
    1UNL     H7   33  -0.460   0.073  -0.237
    1UNL     H8   34  -0.496   0.301  -0.065
    1UNL     H9   35  -0.635   0.197  -0.092
    1UNL    H10   36  -0.630   0.134   0.144
    1UNL    H11   37  -0.484   0.235   0.160
    1UNL    H12   38  -0.413  -0.016   0.317
    1UNL    H13   39  -0.547  -0.090   0.215
    1UNL    H14   40  -0.385  -0.151   0.204
    1UNL    H15   41  -0.268   0.162   0.125
    1UNL    H16   42   0.062  -0.124   0.072
    1UNL    H17   43   0.170   0.156   0.042
    1UNL    H18   44   0.303  -0.122   0.083
    1UNL    H19   45   0.401   0.150  -0.021
    1UNL    H20   46   0.505  -0.192   0.127
    1UNL    H21   47   0.712  -0.303   0.056
    1UNL    H22   48   0.633   0.166  -0.081
    1UNL    H23   49   1.061   0.016  -0.038
    1UNL    H24   50   1.009  -0.061  -0.201
    1UNL    H25   51  -0.276   0.240  -0.086
    1UNL    H26   52  -0.215   0.087  -0.145
   0.00000   0.00000   0.00000   0.00000   0.00000   0.00000   0.00000   0.00000   0.00000
Generated with MDTraj, t= 45.0
 52
    1UNL     C1    1  -0.621  -0.088  -0.060
    1UNL     C2    2  -0.479  -0.040  -0.042
    1UNL     C3    3  -0.399  -0.165  -0.076
    1UNL     C4    4  -0.452   0.090  -0.125
    1UNL     C5    5  -0.532   0.196  -0.049
    1UNL     C6    6  -0.522   0.155   0.102
    1UNL     C7    7  -0.433   0.032   0.096
    1UNL     C8    8  -0.429  -0.057   0.215
    1UNL     C9    9  -0.285   0.090   0.061
    1UNL     O1   10  -0.185  -0.007   0.091
    1UNL    C10   11  -0.063   0.052   0.057
    1UNL     O2   12  -0.060   0.159  -0.001
    1UNL    C11   13   0.062  -0.016   0.093
    1UNL    C12   14   0.177   0.049   0.070
    1UNL    C13   15   0.306  -0.007   0.064
    1UNL    C14   16   0.416   0.060   0.030
    1UNL    C15   17   0.544  -0.008   0.032
    1UNL    C16   18   0.564  -0.144   0.051
    1UNL    C17   19   0.691  -0.202   0.020
    1UNL    C18   20   0.794  -0.125  -0.017
    1UNL    C19   21   0.775   0.018  -0.044
    1UNL    C20   22   0.648   0.072  -0.024
    1UNL     O3   23   0.896   0.077  -0.090
    1UNL    C21   24   0.993  -0.033  -0.075
    1UNL     O4   25   0.924  -0.155  -0.042
    1UNL    C22   26  -0.307   0.127  -0.090
    1UNL     H1   27  -0.691  -0.001  -0.049
    1UNL     H2   28  -0.634  -0.133  -0.159
    1UNL     H3   29  -0.635  -0.176   0.011
    1UNL     H4   30  -0.441  -0.242  -0.021
    1UNL     H5   31  -0.410  -0.179  -0.184
    1UNL     H6   32  -0.290  -0.154  -0.059
    1UNL     H7   33  -0.475   0.076  -0.237
    1UNL     H8   34  -0.506   0.291  -0.078
    1UNL     H9   35  -0.637   0.184  -0.088
    1UNL    H10   36  -0.617   0.138   0.149
    1UNL    H11   37  -0.473   0.230   0.165
    1UNL    H12   38  -0.375   0.001   0.301
    1UNL    H13   39  -0.523  -0.100   0.239
    1UNL    H14   40  -0.354  -0.133   0.196
    1UNL    H15   41  -0.281   0.177   0.125
    1UNL    H16   42   0.069  -0.124   0.125
    1UNL    H17   43   0.172   0.160   0.048
    1UNL    H18   44   0.312  -0.115   0.076
    1UNL    H19   45   0.412   0.162  -0.003
    1UNL    H20   46   0.475  -0.212   0.051
    1UNL    H21   47   0.717  -0.303   0.045
    1UNL    H22   48   0.637   0.178  -0.047
    1UNL    H23   49   1.062  -0.003   0.003
    1UNL    H24   50   1.042  -0.044  -0.172
    1UNL    H25   51  -0.287   0.229  -0.115
    1UNL    H26   52  -0.245   0.056  -0.140
   0.00000   0.00000   0.00000   0.00000   0.00000   0.00000   0.00000   0.00000   0.00000
Generated with MDTraj, t= 46.0
 52
    1UNL     C1    1  -0.620  -0.114  -0.034
    1UNL     C2    2  -0.481  -0.050  -0.038
    1UNL     C3    3  -0.381  -0.159  -0.076
    1UNL     C4    4  -0.474   0.084  -0.133
    1UNL     C5    5  -0.568   0.190  -0.044
    1UNL     C6    6  -0.524   0.162   0.101
    1UNL     C7    7  -0.435   0.031   0.093
    1UNL     C8    8  -0.437  -0.046   0.223
    1UNL     C9    9  -0.301   0.093   0.048
    1UNL     O1   10  -0.195   0.011   0.074
    1UNL    C10   11  -0.069   0.073   0.055
    1UNL     O2   12  -0.066   0.188   0.021
    1UNL    C11   13   0.057  -0.002   0.078
    1UNL    C12   14   0.178   0.053   0.048
    1UNL    C13   15   0.302  -0.019   0.065
    1UNL    C14   16   0.418   0.036   0.022
    1UNL    C15   17   0.554  -0.021   0.023
    1UNL    C16   18   0.586  -0.155   0.037
    1UNL    C17   19   0.705  -0.215   0.008
    1UNL    C18   20   0.806  -0.128  -0.026
    1UNL    C19   21   0.791   0.012  -0.026
    1UNL    C20   22   0.661   0.068   0.006
    1UNL     O3   23   0.907   0.080  -0.062
    1UNL    C21   24   0.995  -0.030  -0.085
    1UNL     O4   25   0.941  -0.154  -0.047
    1UNL    C22   26  -0.327   0.128  -0.102
    1UNL     H1   27  -0.705  -0.047  -0.018
    1UNL     H2   28  -0.649  -0.162  -0.124
    1UNL     H3   29  -0.625  -0.205   0.037
    1UNL     H4   30  -0.395  -0.248  -0.017
    1UNL     H5   31  -0.391  -0.173  -0.185
    1UNL     H6   32  -0.281  -0.127  -0.063
    1UNL     H7   33  -0.508   0.078  -0.243
    1UNL     H8   34  -0.546   0.283  -0.079
    1UNL     H9   35  -0.677   0.178  -0.072
    1UNL    H10   36  -0.600   0.145   0.170
    1UNL    H11   37  -0.471   0.253   0.139
    1UNL    H12   38  -0.401   0.026   0.306
    1UNL    H13   39  -0.534  -0.091   0.241
    1UNL    H14   40  -0.362  -0.120   0.229
    1UNL    H15   41  -0.285   0.191   0.100
    1UNL    H16   42   0.051  -0.092   0.132
    1UNL    H17   43   0.183   0.146   0.005
    1UNL    H18   44   0.308  -0.120   0.096
    1UNL    H19   45   0.412   0.136  -0.015
    1UNL    H20   46   0.507  -0.220   0.067
    1UNL    H21   47   0.725  -0.318   0.038
    1UNL    H22   48   0.655   0.174   0.016
    1UNL    H23   49   1.088  -0.021  -0.026
    1UNL    H24   50   1.026  -0.021  -0.190
    1UNL    H25   51  -0.310   0.231  -0.109
    1UNL    H26   52  -0.252   0.081  -0.154
   0.00000   0.00000   0.00000   0.00000   0.00000   0.00000   0.00000   0.00000   0.00000
Generated with MDTraj, t= 47.0
 52
    1UNL     C1    1  -0.609  -0.121  -0.014
    1UNL     C2    2  -0.473  -0.058  -0.028
    1UNL     C3    3  -0.369  -0.172  -0.066
    1UNL     C4    4  -0.473   0.075  -0.120
    1UNL     C5    5  -0.574   0.174  -0.047
    1UNL     C6    6  -0.530   0.155   0.096
    1UNL     C7    7  -0.426   0.032   0.095
    1UNL     C8    8  -0.411  -0.040   0.229
    1UNL     C9    9  -0.289   0.101   0.042
    1UNL     O1   10  -0.177   0.016   0.058
    1UNL    C10   11  -0.063   0.091   0.053
    1UNL     O2   12  -0.051   0.210   0.055
    1UNL    C11   13   0.049   0.006   0.020
    1UNL    C12   14   0.174   0.049   0.046
    1UNL    C13   15   0.292  -0.025   0.023
    1UNL    C14   16   0.407   0.041   0.042
    1UNL    C15   17   0.545  -0.018   0.022
    1UNL    C16   18   0.565  -0.161   0.020
    1UNL    C17   19   0.691  -0.216  -0.003
    1UNL    C18   20   0.796  -0.127  -0.024
    1UNL    C19   21   0.783   0.014  -0.030
    1UNL    C20   22   0.654   0.063  -0.015
    1UNL     O3   23   0.907   0.073  -0.040
    1UNL    C21   24   0.996  -0.033  -0.050
    1UNL     O4   25   0.933  -0.156  -0.036
    1UNL    C22   26  -0.336   0.143  -0.113
    1UNL     H1   27  -0.691  -0.051   0.003
    1UNL     H2   28  -0.643  -0.186  -0.092
    1UNL     H3   29  -0.603  -0.195   0.070
    1UNL     H4   30  -0.347  -0.230   0.025
    1UNL     H5   31  -0.392  -0.236  -0.150
    1UNL     H6   32  -0.276  -0.132  -0.087
    1UNL     H7   33  -0.506   0.048  -0.226
    1UNL     H8   34  -0.564   0.274  -0.089
    1UNL     H9   35  -0.679   0.140  -0.059
    1UNL    H10   36  -0.609   0.139   0.161
    1UNL    H11   37  -0.478   0.251   0.123
    1UNL    H12   38  -0.385   0.030   0.308
    1UNL    H13   39  -0.494  -0.110   0.258
    1UNL    H14   40  -0.319  -0.097   0.231
    1UNL    H15   41  -0.276   0.198   0.097
    1UNL    H16   42   0.031  -0.094  -0.015
    1UNL    H17   43   0.186   0.156   0.078
    1UNL    H18   44   0.296  -0.129  -0.012
    1UNL    H19   45   0.410   0.149   0.065
    1UNL    H20   46   0.482  -0.213   0.067
    1UNL    H21   47   0.711  -0.319  -0.015
    1UNL    H22   48   0.631   0.166  -0.047
    1UNL    H23   49   1.084  -0.023   0.021
    1UNL    H24   50   1.047  -0.032  -0.147
    1UNL    H25   51  -0.336   0.245  -0.128
    1UNL    H26   52  -0.266   0.117  -0.184
   0.00000   0.00000   0.00000   0.00000   0.00000   0.00000   0.00000   0.00000   0.00000
Generated with MDTraj, t= 48.0
 52
    1UNL     C1    1  -0.609  -0.133   0.005
    1UNL     C2    2  -0.473  -0.062  -0.022
    1UNL     C3    3  -0.375  -0.170  -0.076
    1UNL     C4    4  -0.480   0.071  -0.119
    1UNL     C5    5  -0.581   0.155  -0.040
    1UNL     C6    6  -0.522   0.143   0.111
    1UNL     C7    7  -0.418   0.034   0.101
    1UNL     C8    8  -0.374  -0.028   0.231
    1UNL     C9    9  -0.296   0.098   0.032
    1UNL     O1   10  -0.182   0.019   0.033
    1UNL    C10   11  -0.063   0.093   0.045
    1UNL     O2   12  -0.062   0.212   0.064
    1UNL    C11   13   0.054   0.012   0.027
    1UNL    C12   14   0.174   0.072   0.022
    1UNL    C13   15   0.292  -0.005   0.011
    1UNL    C14   16   0.409   0.060   0.017
    1UNL    C15   17   0.541  -0.008   0.008
    1UNL    C16   18   0.555  -0.145  -0.004
    1UNL    C17   19   0.676  -0.213  -0.023
    1UNL    C18   20   0.793  -0.133  -0.020
    1UNL    C19   21   0.781   0.011  -0.011
    1UNL    C20   22   0.661   0.068   0.000
    1UNL     O3   23   0.914   0.061  -0.020
    1UNL    C21   24   1.004  -0.051  -0.031
    1UNL     O4   25   0.926  -0.171  -0.022
    1UNL    C22   26  -0.338   0.135  -0.113
    1UNL     H1   27  -0.680  -0.053   0.025
    1UNL     H2   28  -0.642  -0.186  -0.085
    1UNL     H3   29  -0.603  -0.212   0.076
    1UNL     H4   30  -0.369  -0.250  -0.001
    1UNL     H5   31  -0.401  -0.202  -0.171
    1UNL     H6   32  -0.273  -0.131  -0.077
    1UNL     H7   33  -0.511   0.047  -0.227
    1UNL     H8   34  -0.579   0.266  -0.066
    1UNL     H9   35  -0.683   0.126  -0.032
    1UNL    H10   36  -0.593   0.135   0.189
    1UNL    H11   37  -0.473   0.242   0.123
    1UNL    H12   38  -0.323   0.039   0.291
    1UNL    H13   39  -0.467  -0.067   0.281
    1UNL    H14   40  -0.308  -0.117   0.223
    1UNL    H15   41  -0.277   0.192   0.096
    1UNL    H16   42   0.042  -0.100   0.016
    1UNL    H17   43   0.173   0.178   0.031
    1UNL    H18   44   0.293  -0.110  -0.007
    1UNL    H19   45   0.421   0.163   0.035
    1UNL    H20   46   0.469  -0.204   0.028
    1UNL    H21   47   0.683  -0.322  -0.046
    1UNL    H22   48   0.656   0.172  -0.012
    1UNL    H23   49   1.088  -0.044   0.045
    1UNL    H24   50   1.061  -0.058  -0.125
    1UNL    H25   51  -0.322   0.234  -0.134
    1UNL    H26   52  -0.272   0.091  -0.179
   0.00000   0.00000   0.00000   0.00000   0.00000   0.00000   0.00000   0.00000   0.00000
Generated with MDTraj, t= 49.0
 52
    1UNL     C1    1  -0.613  -0.136   0.020
    1UNL     C2    2  -0.483  -0.061  -0.013
    1UNL     C3    3  -0.395  -0.167  -0.075
    1UNL     C4    4  -0.505   0.057  -0.110
    1UNL     C5    5  -0.581   0.161  -0.022
    1UNL     C6    6  -0.521   0.137   0.121
    1UNL     C7    7  -0.419   0.025   0.100
    1UNL     C8    8  -0.374  -0.056   0.225
    1UNL     C9    9  -0.295   0.098   0.029
    1UNL     O1   10  -0.180   0.023   0.020
    1UNL    C10   11  -0.070   0.105   0.026
    1UNL     O2   12  -0.076   0.224   0.033
    1UNL    C11   13   0.058   0.033   0.036
    1UNL    C12   14   0.176   0.094   0.022
    1UNL    C13   15   0.301   0.026   0.025
    1UNL    C14   16   0.423   0.072  -0.020
    1UNL    C15   17   0.555   0.001  -0.008
    1UNL    C16   18   0.563  -0.138  -0.024
    1UNL    C17   19   0.679  -0.209  -0.034
    1UNL    C18   20   0.798  -0.139  -0.029
    1UNL    C19   21   0.796   0.001  -0.004
    1UNL    C20   22   0.676   0.074   0.011
    1UNL     O3   23   0.929   0.045   0.012
    1UNL    C21   24   1.012  -0.068  -0.006
    1UNL     O4   25   0.925  -0.185  -0.025
    1UNL    C22   26  -0.359   0.120  -0.113
    1UNL     H1   27  -0.683  -0.068   0.066
    1UNL     H2   28  -0.663  -0.173  -0.072
    1UNL     H3   29  -0.591  -0.222   0.073
    1UNL     H4   30  -0.382  -0.244   0.001
    1UNL     H5   31  -0.440  -0.202  -0.162
    1UNL     H6   32  -0.295  -0.124  -0.098
    1UNL     H7   33  -0.549   0.020  -0.209
    1UNL     H8   34  -0.585   0.277  -0.047
    1UNL     H9   35  -0.682   0.135  -0.015
    1UNL    H10   36  -0.599   0.106   0.189
    1UNL    H11   37  -0.478   0.226   0.164
    1UNL    H12   38  -0.343   0.020   0.289
    1UNL    H13   39  -0.459  -0.111   0.267
    1UNL    H14   40  -0.288  -0.130   0.222
    1UNL    H15   41  -0.278   0.203   0.072
    1UNL    H16   42   0.052  -0.068   0.041
    1UNL    H17   43   0.174   0.200   0.015
    1UNL    H18   44   0.309  -0.076   0.059
    1UNL    H19   45   0.426   0.175  -0.060
    1UNL    H20   46   0.471  -0.182  -0.048
    1UNL    H21   47   0.679  -0.313  -0.020
    1UNL    H22   48   0.675   0.179   0.044
    1UNL    H23   49   1.075  -0.096   0.082
    1UNL    H24   50   1.080  -0.058  -0.090
    1UNL    H25   51  -0.364   0.222  -0.131
    1UNL    H26   52  -0.294   0.082  -0.184
   0.00000   0.00000   0.00000   0.00000   0.00000   0.00000   0.00000   0.00000   0.00000
Generated with MDTraj, t= 50.0
 52
    1UNL     C1    1  -0.605  -0.137   0.027
    1UNL     C2    2  -0.477  -0.066  -0.005
    1UNL     C3    3  -0.379  -0.169  -0.074
    1UNL     C4    4  -0.498   0.063  -0.096
    1UNL     C5    5  -0.566   0.164   0.000
    1UNL     C6    6  -0.517   0.133   0.141
    1UNL     C7    7  -0.413   0.023   0.113
    1UNL     C8    8  -0.364  -0.072   0.222
    1UNL     C9    9  -0.297   0.097   0.033
    1UNL     O1   10  -0.178   0.024   0.025
    1UNL    C10   11  -0.065   0.105   0.002
    1UNL     O2   12  -0.068   0.224  -0.020
    1UNL    C11   13   0.063   0.031   0.009
    1UNL    C12   14   0.180   0.093   0.018
    1UNL    C13   15   0.303   0.029  -0.017
    1UNL    C14   16   0.426   0.083   0.006
    1UNL    C15   17   0.544   0.010  -0.010
    1UNL    C16   18   0.544  -0.131  -0.034
    1UNL    C17   19   0.661  -0.197  -0.051
    1UNL    C18   20   0.780  -0.136  -0.022
    1UNL    C19   21   0.787  -0.001   0.008
    1UNL    C20   22   0.670   0.078   0.008
    1UNL     O3   23   0.923   0.039   0.020
    1UNL    C21   24   0.995  -0.076   0.024
    1UNL     O4   25   0.913  -0.187  -0.013
    1UNL    C22   26  -0.354   0.120  -0.109
    1UNL     H1   27  -0.675  -0.064   0.058
    1UNL     H2   28  -0.656  -0.186  -0.055
    1UNL     H3   29  -0.590  -0.211   0.102
    1UNL     H4   30  -0.357  -0.256  -0.015
    1UNL     H5   31  -0.422  -0.199  -0.169
    1UNL     H6   32  -0.279  -0.129  -0.097
    1UNL     H7   33  -0.555   0.035  -0.192
    1UNL     H8   34  -0.527   0.270  -0.035
    1UNL     H9   35  -0.668   0.170  -0.028
    1UNL    H10   36  -0.603   0.114   0.210
    1UNL    H11   37  -0.469   0.216   0.184
    1UNL    H12   38  -0.316  -0.015   0.301
    1UNL    H13   39  -0.442  -0.135   0.259
    1UNL    H14   40  -0.279  -0.135   0.187
    1UNL    H15   41  -0.284   0.205   0.068
    1UNL    H16   42   0.053  -0.079  -0.007
    1UNL    H17   43   0.182   0.204   0.039
    1UNL    H18   44   0.304  -0.070  -0.062
    1UNL    H19   45   0.429   0.181   0.043
    1UNL    H20   46   0.447  -0.171  -0.066
    1UNL    H21   47   0.671  -0.304  -0.078
    1UNL    H22   48   0.685   0.182   0.028
    1UNL    H23   49   1.029  -0.104   0.126
    1UNL    H24   50   1.074  -0.074  -0.049
    1UNL    H25   51  -0.341   0.223  -0.131
    1UNL    H26   52  -0.294   0.060  -0.171
   0.00000   0.00000   0.00000   0.00000   0.00000   0.00000   0.00000   0.00000   0.00000
Generated with MDTraj, t= 51.0
 52
    1UNL     C1    1  -0.600  -0.141   0.026
    1UNL     C2    2  -0.463  -0.065   0.001
    1UNL     C3    3  -0.371  -0.158  -0.078
    1UNL     C4    4  -0.485   0.076  -0.088
    1UNL     C5    5  -0.581   0.160   0.008
    1UNL     C6    6  -0.520   0.124   0.150
    1UNL     C7    7  -0.404   0.018   0.128
    1UNL     C8    8  -0.357  -0.064   0.253
    1UNL     C9    9  -0.285   0.096   0.047
    1UNL     O1   10  -0.175   0.013   0.016
    1UNL    C10   11  -0.068   0.096  -0.020
    1UNL     O2   12  -0.072   0.216  -0.032
    1UNL    C11   13   0.058   0.023  -0.043
    1UNL    C12   14   0.172   0.097  -0.047
    1UNL    C13   15   0.300   0.033  -0.036
    1UNL    C14   16   0.424   0.086  -0.024
    1UNL    C15   17   0.542   0.004  -0.007
    1UNL    C16   18   0.549  -0.129  -0.036
    1UNL    C17   19   0.662  -0.204  -0.042
    1UNL    C18   20   0.784  -0.141  -0.012
    1UNL    C19   21   0.780   0.001   0.029
    1UNL    C20   22   0.662   0.073   0.033
    1UNL     O3   23   0.907   0.036   0.058
    1UNL    C21   24   0.991  -0.069   0.017
    1UNL     O4   25   0.914  -0.185  -0.015
    1UNL    C22   26  -0.348   0.146  -0.090
    1UNL     H1   27  -0.659  -0.081   0.089
    1UNL     H2   28  -0.664  -0.161  -0.052
    1UNL     H3   29  -0.578  -0.238   0.070
    1UNL     H4   30  -0.331  -0.237  -0.021
    1UNL     H5   31  -0.415  -0.198  -0.174
    1UNL     H6   32  -0.284  -0.105  -0.104
    1UNL     H7   33  -0.538   0.042  -0.183
    1UNL     H8   34  -0.576   0.270  -0.018
    1UNL     H9   35  -0.685   0.133  -0.018
    1UNL    H10   36  -0.602   0.087   0.216
    1UNL    H11   37  -0.480   0.207   0.198
    1UNL    H12   38  -0.296   0.003   0.320
    1UNL    H13   39  -0.441  -0.098   0.305
    1UNL    H14   40  -0.285  -0.144   0.232
    1UNL    H15   41  -0.260   0.180   0.117
    1UNL    H16   42   0.062  -0.087  -0.035
    1UNL    H17   43   0.164   0.200  -0.047
    1UNL    H18   44   0.291  -0.074  -0.022
    1UNL    H19   45   0.437   0.196  -0.024
    1UNL    H20   46   0.459  -0.178  -0.066
    1UNL    H21   47   0.669  -0.293  -0.099
    1UNL    H22   48   0.652   0.177   0.053
    1UNL    H23   49   1.058  -0.099   0.100
    1UNL    H24   50   1.039  -0.055  -0.079
    1UNL    H25   51  -0.350   0.254  -0.092
    1UNL    H26   52  -0.278   0.101  -0.161
   0.00000   0.00000   0.00000   0.00000   0.00000   0.00000   0.00000   0.00000   0.00000
Generated with MDTraj, t= 52.0
 52
    1UNL     C1    1  -0.602  -0.141   0.039
    1UNL     C2    2  -0.472  -0.058  -0.002
    1UNL     C3    3  -0.373  -0.146  -0.084
    1UNL     C4    4  -0.501   0.080  -0.075
    1UNL     C5    5  -0.581   0.163   0.031
    1UNL     C6    6  -0.524   0.108   0.161
    1UNL     C7    7  -0.398   0.018   0.124
    1UNL     C8    8  -0.334  -0.067   0.225
    1UNL     C9    9  -0.287   0.108   0.049
    1UNL     O1   10  -0.175   0.036   0.033
    1UNL    C10   11  -0.070   0.109  -0.021
    1UNL     O2   12  -0.077   0.223  -0.054
    1UNL    C11   13   0.049   0.033  -0.036
    1UNL    C12   14   0.169   0.091  -0.051
    1UNL    C13   15   0.290   0.012  -0.058
    1UNL    C14   16   0.414   0.056  -0.023
    1UNL    C15   17   0.542  -0.016  -0.028
    1UNL    C16   18   0.556  -0.149  -0.062
    1UNL    C17   19   0.679  -0.209  -0.055
    1UNL    C18   20   0.796  -0.137  -0.020
    1UNL    C19   21   0.782   0.002   0.009
    1UNL    C20   22   0.659   0.053   0.013
    1UNL     O3   23   0.899   0.050   0.065
    1UNL    C21   24   0.997  -0.054   0.065
    1UNL     O4   25   0.932  -0.176   0.017
    1UNL    C22   26  -0.357   0.142  -0.089
    1UNL     H1   27  -0.678  -0.079   0.078
    1UNL     H2   28  -0.649  -0.186  -0.039
    1UNL     H3   29  -0.573  -0.223   0.105
    1UNL     H4   30  -0.357  -0.238  -0.031
    1UNL     H5   31  -0.404  -0.167  -0.190
    1UNL     H6   32  -0.279  -0.102  -0.079
    1UNL     H7   33  -0.553   0.066  -0.175
    1UNL     H8   34  -0.564   0.271   0.030
    1UNL     H9   35  -0.696   0.142   0.021
    1UNL    H10   36  -0.595   0.038   0.211
    1UNL    H11   37  -0.497   0.187   0.225
    1UNL    H12   38  -0.308   0.010   0.305
    1UNL    H13   39  -0.395  -0.145   0.265
    1UNL    H14   40  -0.238  -0.101   0.197
    1UNL    H15   41  -0.271   0.202   0.104
    1UNL    H16   42   0.044  -0.068  -0.036
    1UNL    H17   43   0.172   0.202  -0.040
    1UNL    H18   44   0.276  -0.087  -0.094
    1UNL    H19   45   0.427   0.150   0.024
    1UNL    H20   46   0.462  -0.201  -0.073
    1UNL    H21   47   0.695  -0.310  -0.093
    1UNL    H22   48   0.649   0.154   0.058
    1UNL    H23   49   1.036  -0.079   0.165
    1UNL    H24   50   1.074  -0.035  -0.011
    1UNL    H25   51  -0.365   0.252  -0.096
    1UNL    H26   52  -0.295   0.106  -0.175
   0.00000   0.00000   0.00000   0.00000   0.00000   0.00000   0.00000   0.00000   0.00000
Generated with MDTraj, t= 53.0
 52
    1UNL     C1    1  -0.582  -0.138   0.046
    1UNL     C2    2  -0.473  -0.045   0.002
    1UNL     C3    3  -0.378  -0.135  -0.086
    1UNL     C4    4  -0.514   0.093  -0.075
    1UNL     C5    5  -0.585   0.163   0.038
    1UNL     C6    6  -0.507   0.124   0.175
    1UNL     C7    7  -0.400   0.022   0.125
    1UNL     C8    8  -0.356  -0.077   0.225
    1UNL     C9    9  -0.293   0.095   0.046
    1UNL     O1   10  -0.178   0.017   0.007
    1UNL    C10   11  -0.068   0.091  -0.026
    1UNL     O2   12  -0.053   0.209  -0.041
    1UNL    C11   13   0.053   0.014  -0.044
    1UNL    C12   14   0.171   0.071  -0.050
    1UNL    C13   15   0.295   0.001  -0.045
    1UNL    C14   16   0.416   0.062  -0.063
    1UNL    C15   17   0.546  -0.004  -0.045
    1UNL    C16   18   0.563  -0.142  -0.072
    1UNL    C17   19   0.688  -0.199  -0.060
    1UNL    C18   20   0.794  -0.132   0.001
    1UNL    C19   21   0.775   0.003   0.027
    1UNL    C20   22   0.657   0.072  -0.004
    1UNL     O3   23   0.893   0.051   0.074
    1UNL    C21   24   0.990  -0.055   0.072
    1UNL     O4   25   0.925  -0.179   0.028
    1UNL    C22   26  -0.371   0.155  -0.080
    1UNL     H1   27  -0.632  -0.088   0.125
    1UNL     H2   28  -0.659  -0.154  -0.026
    1UNL     H3   29  -0.545  -0.231   0.076
    1UNL     H4   30  -0.322  -0.197  -0.018
    1UNL     H5   31  -0.427  -0.193  -0.164
    1UNL     H6   32  -0.297  -0.074  -0.127
    1UNL     H7   33  -0.560   0.081  -0.178
    1UNL     H8   34  -0.568   0.268   0.023
    1UNL     H9   35  -0.701   0.143   0.059
    1UNL    H10   36  -0.560   0.067   0.251
    1UNL    H11   37  -0.459   0.212   0.213
    1UNL    H12   38  -0.295  -0.021   0.297
    1UNL    H13   39  -0.441  -0.130   0.273
    1UNL    H14   40  -0.290  -0.149   0.187
    1UNL    H15   41  -0.259   0.179   0.104
    1UNL    H16   42   0.039  -0.100  -0.051
    1UNL    H17   43   0.174   0.177  -0.052
    1UNL    H18   44   0.299  -0.107  -0.027
    1UNL    H19   45   0.419   0.169  -0.086
    1UNL    H20   46   0.477  -0.191  -0.121
    1UNL    H21   47   0.705  -0.300  -0.095
    1UNL    H22   48   0.647   0.172   0.022
    1UNL    H23   49   1.029  -0.090   0.171
    1UNL    H24   50   1.071  -0.032  -0.000
    1UNL    H25   51  -0.371   0.269  -0.086
    1UNL    H26   52  -0.320   0.120  -0.175
   0.00000   0.00000   0.00000   0.00000   0.00000   0.00000   0.00000   0.00000   0.00000
Generated with MDTraj, t= 54.0
 52
    1UNL     C1    1  -0.626  -0.105   0.035
    1UNL     C2    2  -0.485  -0.050  -0.002
    1UNL     C3    3  -0.410  -0.153  -0.084
    1UNL     C4    4  -0.500   0.089  -0.072
    1UNL     C5    5  -0.551   0.179   0.051
    1UNL     C6    6  -0.485   0.120   0.175
    1UNL     C7    7  -0.393   0.014   0.122
    1UNL     C8    8  -0.335  -0.082   0.219
    1UNL     C9    9  -0.283   0.093   0.037
    1UNL     O1   10  -0.175   0.002   0.009
    1UNL    C10   11  -0.065   0.082  -0.008
    1UNL     O2   12  -0.062   0.203  -0.019
    1UNL    C11   13   0.063   0.008  -0.026
    1UNL    C12   14   0.174   0.074  -0.065
    1UNL    C13   15   0.301   0.008  -0.082
    1UNL    C14   16   0.421   0.066  -0.066
    1UNL    C15   17   0.543  -0.003  -0.043
    1UNL    C16   18   0.558  -0.138  -0.073
    1UNL    C17   19   0.681  -0.196  -0.059
    1UNL    C18   20   0.787  -0.127   0.001
    1UNL    C19   21   0.775   0.012   0.026
    1UNL    C20   22   0.653   0.075  -0.002
    1UNL     O3   23   0.900   0.059   0.073
    1UNL    C21   24   0.978  -0.055   0.085
    1UNL     O4   25   0.912  -0.174   0.030
    1UNL    C22   26  -0.357   0.132  -0.094
    1UNL     H1   27  -0.684  -0.036   0.088
    1UNL     H2   28  -0.694  -0.139  -0.043
    1UNL     H3   29  -0.612  -0.186   0.093
    1UNL     H4   30  -0.420  -0.253  -0.039
    1UNL     H5   31  -0.434  -0.151  -0.186
    1UNL     H6   32  -0.300  -0.134  -0.068
    1UNL     H7   33  -0.567   0.084  -0.160
    1UNL     H8   34  -0.538   0.287   0.037
    1UNL     H9   35  -0.664   0.173   0.072
    1UNL    H10   36  -0.559   0.081   0.242
    1UNL    H11   37  -0.435   0.203   0.227
    1UNL    H12   38  -0.271  -0.020   0.276
    1UNL    H13   39  -0.409  -0.130   0.287
    1UNL    H14   40  -0.272  -0.156   0.172
    1UNL    H15   41  -0.239   0.170   0.096
    1UNL    H16   42   0.053  -0.097  -0.004
    1UNL    H17   43   0.162   0.177  -0.094
    1UNL    H18   44   0.310  -0.098  -0.086
    1UNL    H19   45   0.423   0.174  -0.067
    1UNL    H20   46   0.490  -0.192  -0.130
    1UNL    H21   47   0.689  -0.301  -0.073
    1UNL    H22   48   0.643   0.184   0.021
    1UNL    H23   49   0.999  -0.081   0.190
    1UNL    H24   50   1.071  -0.057   0.025
    1UNL    H25   51  -0.355   0.249  -0.100
    1UNL    H26   52  -0.309   0.090  -0.188
   0.00000   0.00000   0.00000   0.00000   0.00000   0.00000   0.00000   0.00000   0.00000
Generated with MDTraj, t= 55.0
 52
    1UNL     C1    1  -0.639  -0.088   0.046
    1UNL     C2    2  -0.491  -0.049   0.002
    1UNL     C3    3  -0.441  -0.163  -0.097
    1UNL     C4    4  -0.497   0.099  -0.071
    1UNL     C5    5  -0.552   0.191   0.044
    1UNL     C6    6  -0.485   0.130   0.176
    1UNL     C7    7  -0.394   0.010   0.121
    1UNL     C8    8  -0.364  -0.095   0.237
    1UNL     C9    9  -0.279   0.077   0.043
    1UNL     O1   10  -0.170  -0.013   0.011
    1UNL    C10   11  -0.066   0.070  -0.025
    1UNL     O2   12  -0.074   0.191  -0.015
    1UNL    C11   13   0.065   0.009  -0.068
    1UNL    C12   14   0.180   0.078  -0.048
    1UNL    C13   15   0.304   0.013  -0.073
    1UNL    C14   16   0.424   0.069  -0.062
    1UNL    C15   17   0.553   0.004  -0.057
    1UNL    C16   18   0.566  -0.136  -0.082
    1UNL    C17   19   0.689  -0.198  -0.050
    1UNL    C18   20   0.794  -0.126  -0.008
    1UNL    C19   21   0.782   0.015   0.021
    1UNL    C20   22   0.662   0.075  -0.001
    1UNL     O3   23   0.904   0.063   0.077
    1UNL    C21   24   0.984  -0.050   0.078
    1UNL     O4   25   0.916  -0.172   0.040
    1UNL    C22   26  -0.342   0.135  -0.083
    1UNL     H1   27  -0.685  -0.013   0.100
    1UNL     H2   28  -0.711  -0.112  -0.030
    1UNL     H3   29  -0.630  -0.175   0.104
    1UNL     H4   30  -0.411  -0.256  -0.043
    1UNL     H5   31  -0.512  -0.187  -0.169
    1UNL     H6   32  -0.345  -0.135  -0.146
    1UNL     H7   33  -0.558   0.099  -0.163
    1UNL     H8   34  -0.539   0.301   0.021
    1UNL     H9   35  -0.658   0.189   0.042
    1UNL    H10   36  -0.553   0.100   0.250
    1UNL    H11   37  -0.426   0.211   0.219
    1UNL    H12   38  -0.324  -0.039   0.314
    1UNL    H13   39  -0.460  -0.137   0.272
    1UNL    H14   40  -0.293  -0.178   0.217
    1UNL    H15   41  -0.238   0.155   0.101
    1UNL    H16   42   0.067  -0.086  -0.107
    1UNL    H17   43   0.180   0.176   0.001
    1UNL    H18   44   0.295  -0.089  -0.109
    1UNL    H19   45   0.429   0.175  -0.042
    1UNL    H20   46   0.473  -0.198  -0.082
    1UNL    H21   47   0.701  -0.307  -0.051
    1UNL    H22   48   0.646   0.174   0.032
    1UNL    H23   49   1.007  -0.067   0.182
    1UNL    H24   50   1.076  -0.055   0.018
    1UNL    H25   51  -0.316   0.250  -0.092
    1UNL    H26   52  -0.294   0.089  -0.178
   0.00000   0.00000   0.00000   0.00000   0.00000   0.00000   0.00000   0.00000   0.00000
Generated with MDTraj, t= 56.0
 52
    1UNL     C1    1  -0.629  -0.098   0.044
    1UNL     C2    2  -0.493  -0.036  -0.004
    1UNL     C3    3  -0.422  -0.147  -0.100
    1UNL     C4    4  -0.512   0.114  -0.066
    1UNL     C5    5  -0.563   0.194   0.057
    1UNL     C6    6  -0.492   0.134   0.180
    1UNL     C7    7  -0.405   0.018   0.120
    1UNL     C8    8  -0.363  -0.098   0.215
    1UNL     C9    9  -0.289   0.087   0.037
    1UNL     O1   10  -0.175  -0.006   0.015
    1UNL    C10   11  -0.061   0.063  -0.022
    1UNL     O2   12  -0.061   0.184  -0.036
    1UNL    C11   13   0.057  -0.012  -0.029
    1UNL    C12   14   0.173   0.043  -0.067
    1UNL    C13   15   0.304  -0.015  -0.061
    1UNL    C14   16   0.415   0.061  -0.047
    1UNL    C15   17   0.547  -0.001  -0.024
    1UNL    C16   18   0.571  -0.132  -0.066
    1UNL    C17   19   0.694  -0.194  -0.059
    1UNL    C18   20   0.798  -0.119  -0.003
    1UNL    C19   21   0.787   0.020   0.023
    1UNL    C20   22   0.660   0.077   0.011
    1UNL     O3   23   0.906   0.068   0.067
    1UNL    C21   24   0.993  -0.048   0.074
    1UNL     O4   25   0.929  -0.166   0.017
    1UNL    C22   26  -0.357   0.148  -0.092
    1UNL     H1   27  -0.674  -0.017   0.094
    1UNL     H2   28  -0.693  -0.126  -0.031
    1UNL     H3   29  -0.606  -0.183   0.109
    1UNL     H4   30  -0.423  -0.247  -0.053
    1UNL     H5   31  -0.473  -0.152  -0.196
    1UNL     H6   32  -0.317  -0.126  -0.111
    1UNL     H7   33  -0.578   0.112  -0.153
    1UNL     H8   34  -0.555   0.307   0.046
    1UNL     H9   35  -0.663   0.175   0.056
    1UNL    H10   36  -0.554   0.106   0.258
    1UNL    H11   37  -0.421   0.209   0.219
    1UNL    H12   38  -0.287  -0.064   0.281
    1UNL    H13   39  -0.441  -0.149   0.267
    1UNL    H14   40  -0.315  -0.180   0.154
    1UNL    H15   41  -0.245   0.174   0.082
    1UNL    H16   42   0.059  -0.123   0.003
    1UNL    H17   43   0.170   0.147  -0.077
    1UNL    H18   44   0.304  -0.124  -0.053
    1UNL    H19   45   0.415   0.170  -0.056
    1UNL    H20   46   0.492  -0.197  -0.089
    1UNL    H21   47   0.708  -0.295  -0.087
    1UNL    H22   48   0.655   0.183   0.005
    1UNL    H23   49   1.041  -0.080   0.165
    1UNL    H24   50   1.075  -0.024   0.005
    1UNL    H25   51  -0.337   0.259  -0.123
    1UNL    H26   52  -0.312   0.086  -0.181
   0.00000   0.00000   0.00000   0.00000   0.00000   0.00000   0.00000   0.00000   0.00000
Generated with MDTraj, t= 57.0
 52
    1UNL     C1    1  -0.629  -0.095   0.021
    1UNL     C2    2  -0.493  -0.030  -0.013
    1UNL     C3    3  -0.406  -0.131  -0.088
    1UNL     C4    4  -0.505   0.111  -0.072
    1UNL     C5    5  -0.562   0.184   0.057
    1UNL     C6    6  -0.489   0.126   0.178
    1UNL     C7    7  -0.401   0.019   0.116
    1UNL     C8    8  -0.353  -0.088   0.208
    1UNL     C9    9  -0.288   0.095   0.033
    1UNL     O1   10  -0.182   0.003   0.012
    1UNL    C10   11  -0.072   0.072  -0.028
    1UNL     O2   12  -0.075   0.191  -0.053
    1UNL    C11   13   0.052  -0.006  -0.029
    1UNL    C12   14   0.173   0.047  -0.015
    1UNL    C13   15   0.293  -0.030  -0.024
    1UNL    C14   16   0.411   0.035  -0.034
    1UNL    C15   17   0.543  -0.027  -0.025
    1UNL    C16   18   0.574  -0.163  -0.053
    1UNL    C17   19   0.706  -0.210  -0.059
    1UNL    C18   20   0.811  -0.124  -0.016
    1UNL    C19   21   0.780   0.007   0.031
    1UNL    C20   22   0.647   0.052   0.010
    1UNL     O3   23   0.889   0.078   0.067
    1UNL    C21   24   0.999  -0.011   0.039
    1UNL     O4   25   0.948  -0.143   0.004
    1UNL    C22   26  -0.358   0.155  -0.086
    1UNL     H1   27  -0.674  -0.035   0.098
    1UNL     H2   28  -0.699  -0.094  -0.054
    1UNL     H3   29  -0.612  -0.200   0.048
    1UNL     H4   30  -0.398  -0.221  -0.027
    1UNL     H5   31  -0.447  -0.156  -0.190
    1UNL     H6   32  -0.308  -0.095  -0.098
    1UNL     H7   33  -0.571   0.108  -0.156
    1UNL     H8   34  -0.541   0.294   0.058
    1UNL     H9   35  -0.665   0.173   0.069
    1UNL    H10   36  -0.551   0.077   0.248
    1UNL    H11   37  -0.429   0.198   0.233
    1UNL    H12   38  -0.311  -0.039   0.298
    1UNL    H13   39  -0.438  -0.142   0.234
    1UNL    H14   40  -0.277  -0.161   0.174
    1UNL    H15   41  -0.239   0.170   0.100
    1UNL    H16   42   0.047  -0.112  -0.026
    1UNL    H17   43   0.186   0.158  -0.009
    1UNL    H18   44   0.288  -0.133  -0.002
    1UNL    H19   45   0.407   0.138  -0.060
    1UNL    H20   46   0.489  -0.227  -0.072
    1UNL    H21   47   0.728  -0.313  -0.089
    1UNL    H22   48   0.634   0.158   0.038
    1UNL    H23   49   1.058  -0.030   0.129
    1UNL    H24   50   1.077   0.030  -0.031
    1UNL    H25   51  -0.364   0.270  -0.072
    1UNL    H26   52  -0.294   0.120  -0.180
   0.00000   0.00000   0.00000   0.00000   0.00000   0.00000   0.00000   0.00000   0.00000
Generated with MDTraj, t= 58.0
 52
    1UNL     C1    1  -0.621  -0.096   0.026
    1UNL     C2    2  -0.494  -0.030  -0.018
    1UNL     C3    3  -0.416  -0.126  -0.111
    1UNL     C4    4  -0.509   0.116  -0.085
    1UNL     C5    5  -0.579   0.187   0.034
    1UNL     C6    6  -0.507   0.127   0.166
    1UNL     C7    7  -0.414   0.017   0.115
    1UNL     C8    8  -0.376  -0.079   0.222
    1UNL     C9    9  -0.292   0.091   0.054
    1UNL     O1   10  -0.185  -0.006   0.021
    1UNL    C10   11  -0.066   0.062  -0.015
    1UNL     O2   12  -0.056   0.185  -0.027
    1UNL    C11   13   0.053  -0.022  -0.038
    1UNL    C12   14   0.177   0.036  -0.038
    1UNL    C13   15   0.305  -0.028  -0.046
    1UNL    C14   16   0.410   0.031   0.008
    1UNL    C15   17   0.549  -0.019   0.008
    1UNL    C16   18   0.576  -0.157  -0.026
    1UNL    C17   19   0.706  -0.204  -0.049
    1UNL    C18   20   0.812  -0.120  -0.027
    1UNL    C19   21   0.787   0.016   0.007
    1UNL    C20   22   0.658   0.063   0.031
    1UNL     O3   23   0.907   0.080   0.038
    1UNL    C21   24   1.000  -0.022   0.027
    1UNL     O4   25   0.947  -0.145  -0.014
    1UNL    C22   26  -0.357   0.162  -0.076
    1UNL     H1   27  -0.700  -0.030   0.059
    1UNL     H2   28  -0.675  -0.150  -0.054
    1UNL     H3   29  -0.600  -0.172   0.096
    1UNL     H4   30  -0.389  -0.219  -0.067
    1UNL     H5   31  -0.466  -0.147  -0.210
    1UNL     H6   32  -0.318  -0.088  -0.141
    1UNL     H7   33  -0.550   0.122  -0.183
    1UNL     H8   34  -0.553   0.291   0.031
    1UNL     H9   35  -0.689   0.177   0.039
    1UNL    H10   36  -0.577   0.079   0.232
    1UNL    H11   37  -0.446   0.191   0.227
    1UNL    H12   38  -0.316  -0.012   0.291
    1UNL    H13   39  -0.463  -0.113   0.273
    1UNL    H14   40  -0.311  -0.161   0.200
    1UNL    H15   41  -0.246   0.160   0.130
    1UNL    H16   42   0.038  -0.125  -0.034
    1UNL    H17   43   0.179   0.138  -0.023
    1UNL    H18   44   0.310  -0.132  -0.080
    1UNL    H19   45   0.390   0.131   0.048
    1UNL    H20   46   0.494  -0.222  -0.059
    1UNL    H21   47   0.722  -0.309  -0.043
    1UNL    H22   48   0.651   0.156   0.081
    1UNL    H23   49   1.056  -0.027   0.122
    1UNL    H24   50   1.076  -0.003  -0.056
    1UNL    H25   51  -0.355   0.277  -0.059
    1UNL    H26   52  -0.304   0.130  -0.172
   0.00000   0.00000   0.00000   0.00000   0.00000   0.00000   0.00000   0.00000   0.00000
Generated with MDTraj, t= 59.0
 52
    1UNL     C1    1  -0.639  -0.078   0.006
    1UNL     C2    2  -0.492  -0.045  -0.021
    1UNL     C3    3  -0.418  -0.154  -0.109
    1UNL     C4    4  -0.486   0.107  -0.086
    1UNL     C5    5  -0.547   0.194   0.023
    1UNL     C6    6  -0.501   0.135   0.153
    1UNL     C7    7  -0.414   0.010   0.110
    1UNL     C8    8  -0.385  -0.095   0.213
    1UNL     C9    9  -0.286   0.082   0.045
    1UNL     O1   10  -0.176  -0.004   0.023
    1UNL    C10   11  -0.066   0.070   0.008
    1UNL     O2   12  -0.062   0.192   0.020
    1UNL    C11   13   0.055  -0.005  -0.020
    1UNL    C12   14   0.178   0.045   0.000
    1UNL    C13   15   0.303  -0.018  -0.013
    1UNL    C14   16   0.415   0.050  -0.007
    1UNL    C15   17   0.546  -0.012  -0.001
    1UNL    C16   18   0.561  -0.147  -0.022
    1UNL    C17   19   0.688  -0.202  -0.035
    1UNL    C18   20   0.800  -0.124  -0.013
    1UNL    C19   21   0.781   0.013   0.017
    1UNL    C20   22   0.658   0.071   0.017
    1UNL     O3   23   0.912   0.076   0.029
    1UNL    C21   24   0.996  -0.025  -0.015
    1UNL     O4   25   0.933  -0.152  -0.022
    1UNL    C22   26  -0.333   0.136  -0.098
    1UNL     H1   27  -0.684  -0.015   0.081
    1UNL     H2   28  -0.719  -0.064  -0.076
    1UNL     H3   29  -0.646  -0.177   0.040
    1UNL     H4   30  -0.406  -0.242  -0.051
    1UNL     H5   31  -0.466  -0.184  -0.204
    1UNL     H6   32  -0.312  -0.121  -0.137
    1UNL     H7   33  -0.529   0.127  -0.180
    1UNL     H8   34  -0.510   0.289   0.013
    1UNL     H9   35  -0.660   0.197   0.012
    1UNL    H10   36  -0.585   0.097   0.211
    1UNL    H11   37  -0.446   0.201   0.214
    1UNL    H12   38  -0.331  -0.048   0.299
    1UNL    H13   39  -0.475  -0.151   0.240
    1UNL    H14   40  -0.315  -0.161   0.174
    1UNL    H15   41  -0.247   0.173   0.103
    1UNL    H16   42   0.047  -0.115  -0.055
    1UNL    H17   43   0.180   0.146   0.049
    1UNL    H18   44   0.302  -0.124  -0.020
    1UNL    H19   45   0.408   0.153   0.021
    1UNL    H20   46   0.483  -0.219  -0.020
    1UNL    H21   47   0.695  -0.302  -0.078
    1UNL    H22   48   0.642   0.174   0.047
    1UNL    H23   49   1.083  -0.034   0.051
    1UNL    H24   50   1.025   0.002  -0.119
    1UNL    H25   51  -0.320   0.251  -0.098
    1UNL    H26   52  -0.301   0.097  -0.199
   0.00000   0.00000   0.00000   0.00000   0.00000   0.00000   0.00000   0.00000   0.00000
Generated with MDTraj, t= 60.0
 52
    1UNL     C1    1  -0.649  -0.089  -0.015
    1UNL     C2    2  -0.495  -0.039  -0.029
    1UNL     C3    3  -0.416  -0.144  -0.107
    1UNL     C4    4  -0.491   0.104  -0.102
    1UNL     C5    5  -0.562   0.205   0.012
    1UNL     C6    6  -0.515   0.132   0.149
    1UNL     C7    7  -0.419   0.011   0.103
    1UNL     C8    8  -0.399  -0.103   0.210
    1UNL     C9    9  -0.297   0.081   0.029
    1UNL     O1   10  -0.185  -0.009   0.024
    1UNL    C10   11  -0.070   0.062   0.042
    1UNL     O2   12  -0.074   0.183   0.042
    1UNL    C11   13   0.058  -0.002   0.050
    1UNL    C12   14   0.174   0.063   0.032
    1UNL    C13   15   0.306  -0.001   0.015
    1UNL    C14   16   0.428   0.062   0.015
    1UNL    C15   17   0.557   0.004   0.005
    1UNL    C16   18   0.570  -0.138  -0.017
    1UNL    C17   19   0.692  -0.201  -0.037
    1UNL    C18   20   0.808  -0.127  -0.028
    1UNL    C19   21   0.798   0.017  -0.023
    1UNL    C20   22   0.674   0.077  -0.002
    1UNL     O3   23   0.927   0.071  -0.011
    1UNL    C21   24   1.012  -0.046  -0.002
    1UNL     O4   25   0.938  -0.169  -0.030
    1UNL    C22   26  -0.339   0.133  -0.113
    1UNL     H1   27  -0.712  -0.004   0.009
    1UNL     H2   28  -0.690  -0.120  -0.115
    1UNL     H3   29  -0.655  -0.175   0.051
    1UNL     H4   30  -0.440  -0.239  -0.058
    1UNL     H5   31  -0.448  -0.148  -0.209
    1UNL     H6   32  -0.304  -0.123  -0.102
    1UNL     H7   33  -0.539   0.093  -0.195
    1UNL     H8   34  -0.524   0.298  -0.006
    1UNL     H9   35  -0.675   0.222  -0.002
    1UNL    H10   36  -0.603   0.084   0.196
    1UNL    H11   37  -0.475   0.200   0.216
    1UNL    H12   38  -0.341  -0.067   0.294
    1UNL    H13   39  -0.501  -0.138   0.240
    1UNL    H14   40  -0.349  -0.186   0.170
    1UNL    H15   41  -0.262   0.163   0.103
    1UNL    H16   42   0.057  -0.106   0.064
    1UNL    H17   43   0.165   0.166   0.017
    1UNL    H18   44   0.306  -0.110   0.022
    1UNL    H19   45   0.432   0.170   0.028
    1UNL    H20   46   0.478  -0.198  -0.009
    1UNL    H21   47   0.692  -0.297  -0.089
    1UNL    H22   48   0.670   0.184   0.002
    1UNL    H23   49   1.031  -0.059   0.104
    1UNL    H24   50   1.098  -0.022  -0.066
    1UNL    H25   51  -0.323   0.245  -0.137
    1UNL    H26   52  -0.293   0.066  -0.187
   0.00000   0.00000   0.00000   0.00000   0.00000   0.00000   0.00000   0.00000   0.00000
Generated with MDTraj, t= 61.0
 52
    1UNL     C1    1  -0.627  -0.094  -0.021
    1UNL     C2    2  -0.485  -0.044  -0.044
    1UNL     C3    3  -0.397  -0.147  -0.119
    1UNL     C4    4  -0.481   0.100  -0.111
    1UNL     C5    5  -0.574   0.177  -0.016
    1UNL     C6    6  -0.543   0.123   0.120
    1UNL     C7    7  -0.430   0.014   0.097
    1UNL     C8    8  -0.415  -0.087   0.206
    1UNL     C9    9  -0.295   0.085   0.057
    1UNL     O1   10  -0.180   0.001   0.049
    1UNL    C10   11  -0.067   0.075   0.049
    1UNL     O2   12  -0.054   0.197   0.066
    1UNL    C11   13   0.062   0.001   0.041
    1UNL    C12   14   0.180   0.067   0.056
    1UNL    C13   15   0.306   0.001   0.037
    1UNL    C14   16   0.424   0.065   0.005
    1UNL    C15   17   0.551  -0.008  -0.008
    1UNL    C16   18   0.562  -0.150  -0.014
    1UNL    C17   19   0.686  -0.205  -0.020
    1UNL    C18   20   0.805  -0.127  -0.030
    1UNL    C19   21   0.793   0.011  -0.016
    1UNL    C20   22   0.668   0.068   0.002
    1UNL     O3   23   0.916   0.068  -0.019
    1UNL    C21   24   1.007  -0.041  -0.048
    1UNL     O4   25   0.940  -0.167  -0.029
    1UNL    C22   26  -0.333   0.144  -0.080
    1UNL     H1   27  -0.691  -0.026   0.038
    1UNL     H2   28  -0.672  -0.095  -0.119
    1UNL     H3   29  -0.614  -0.201   0.019
    1UNL     H4   30  -0.385  -0.244  -0.061
    1UNL     H5   31  -0.437  -0.169  -0.216
    1UNL     H6   32  -0.298  -0.103  -0.131
    1UNL     H7   33  -0.517   0.106  -0.208
    1UNL     H8   34  -0.569   0.286  -0.027
    1UNL     H9   35  -0.679   0.158  -0.052
    1UNL    H10   36  -0.629   0.088   0.179
    1UNL    H11   37  -0.497   0.205   0.168
    1UNL    H12   38  -0.378  -0.053   0.298
    1UNL    H13   39  -0.510  -0.143   0.215
    1UNL    H14   40  -0.342  -0.160   0.171
    1UNL    H15   41  -0.258   0.160   0.137
    1UNL    H16   42   0.058  -0.098   0.016
    1UNL    H17   43   0.183   0.176   0.058
    1UNL    H18   44   0.307  -0.105   0.056
    1UNL    H19   45   0.416   0.169  -0.012
    1UNL    H20   46   0.478  -0.215  -0.015
    1UNL    H21   47   0.700  -0.310  -0.028
    1UNL    H22   48   0.658   0.167   0.039
    1UNL    H23   49   1.101  -0.020   0.007
    1UNL    H24   50   1.014  -0.037  -0.157
    1UNL    H25   51  -0.328   0.255  -0.092
    1UNL    H26   52  -0.258   0.101  -0.147
   0.00000   0.00000   0.00000   0.00000   0.00000   0.00000   0.00000   0.00000   0.00000
Generated with MDTraj, t= 62.0
 52
    1UNL     C1    1  -0.586  -0.111  -0.062
    1UNL     C2    2  -0.457  -0.043  -0.049
    1UNL     C3    3  -0.344  -0.131  -0.099
    1UNL     C4    4  -0.460   0.096  -0.121
    1UNL     C5    5  -0.555   0.172  -0.029
    1UNL     C6    6  -0.544   0.111   0.120
    1UNL     C7    7  -0.422   0.010   0.093
    1UNL     C8    8  -0.403  -0.081   0.211
    1UNL     C9    9  -0.298   0.096   0.067
    1UNL     O1   10  -0.186   0.008   0.082
    1UNL    C10   11  -0.071   0.087   0.068
    1UNL     O2   12  -0.056   0.211   0.068
    1UNL    C11   13   0.050   0.008   0.059
    1UNL    C12   14   0.166   0.065   0.021
    1UNL    C13   15   0.287  -0.010   0.012
    1UNL    C14   16   0.409   0.042   0.034
    1UNL    C15   17   0.535  -0.020   0.026
    1UNL    C16   18   0.556  -0.157   0.027
    1UNL    C17   19   0.677  -0.209  -0.019
    1UNL    C18   20   0.792  -0.129  -0.034
    1UNL    C19   21   0.773   0.011  -0.022
    1UNL    C20   22   0.649   0.061  -0.001
    1UNL     O3   23   0.897   0.073  -0.040
    1UNL    C21   24   0.991  -0.038  -0.053
    1UNL     O4   25   0.925  -0.159  -0.064
    1UNL    C22   26  -0.317   0.156  -0.076
    1UNL     H1   27  -0.676  -0.048  -0.033
    1UNL     H2   28  -0.611  -0.133  -0.163
    1UNL     H3   29  -0.576  -0.209  -0.001
    1UNL     H4   30  -0.348  -0.236  -0.055
    1UNL     H5   31  -0.355  -0.144  -0.207
    1UNL     H6   32  -0.245  -0.099  -0.083
    1UNL     H7   33  -0.480   0.096  -0.224
    1UNL     H8   34  -0.539   0.287  -0.036
    1UNL     H9   35  -0.658   0.166  -0.067
    1UNL    H10   36  -0.626   0.049   0.152
    1UNL    H11   37  -0.521   0.182   0.198
    1UNL    H12   38  -0.377  -0.025   0.295
    1UNL    H13   39  -0.490  -0.142   0.234
    1UNL    H14   40  -0.315  -0.149   0.203
    1UNL    H15   41  -0.272   0.178   0.140
    1UNL    H16   42   0.041  -0.109   0.061
    1UNL    H17   43   0.167   0.174   0.005
    1UNL    H18   44   0.271  -0.114   0.000
    1UNL    H19   45   0.408   0.151   0.044
    1UNL    H20   46   0.468  -0.221   0.020
    1UNL    H21   47   0.693  -0.318  -0.025
    1UNL    H22   48   0.633   0.169  -0.000
    1UNL    H23   49   1.039  -0.029   0.049
    1UNL    H24   50   1.062  -0.023  -0.135
    1UNL    H25   51  -0.313   0.264  -0.082
    1UNL    H26   52  -0.232   0.129  -0.141
   0.00000   0.00000   0.00000   0.00000   0.00000   0.00000   0.00000   0.00000   0.00000
Generated with MDTraj, t= 63.0
 52
    1UNL     C1    1  -0.563  -0.131  -0.085
    1UNL     C2    2  -0.434  -0.046  -0.055
    1UNL     C3    3  -0.303  -0.115  -0.082
    1UNL     C4    4  -0.443   0.102  -0.117
    1UNL     C5    5  -0.564   0.168  -0.041
    1UNL     C6    6  -0.554   0.106   0.102
    1UNL     C7    7  -0.436   0.011   0.095
    1UNL     C8    8  -0.446  -0.092   0.210
    1UNL     C9    9  -0.304   0.106   0.079
    1UNL     O1   10  -0.193   0.018   0.096
    1UNL    C10   11  -0.077   0.088   0.070
    1UNL     O2   12  -0.072   0.210   0.046
    1UNL    C11   13   0.044   0.005   0.066
    1UNL    C12   14   0.163   0.064   0.071
    1UNL    C13   15   0.289  -0.004   0.055
    1UNL    C14   16   0.410   0.050   0.030
    1UNL    C15   17   0.538  -0.012   0.013
    1UNL    C16   18   0.553  -0.154   0.003
    1UNL    C17   19   0.678  -0.208  -0.018
    1UNL    C18   20   0.792  -0.133  -0.029
    1UNL    C19   21   0.777   0.012  -0.024
    1UNL    C20   22   0.653   0.071  -0.011
    1UNL     O3   23   0.906   0.064  -0.054
    1UNL    C21   24   0.986  -0.052  -0.089
    1UNL     O4   25   0.925  -0.167  -0.048
    1UNL    C22   26  -0.311   0.164  -0.058
    1UNL     H1   27  -0.660  -0.075  -0.061
    1UNL     H2   28  -0.587  -0.152  -0.192
    1UNL     H3   29  -0.566  -0.229  -0.032
    1UNL     H4   30  -0.295  -0.208  -0.024
    1UNL     H5   31  -0.314  -0.146  -0.189
    1UNL     H6   32  -0.213  -0.056  -0.073
    1UNL     H7   33  -0.442   0.108  -0.221
    1UNL     H8   34  -0.555   0.287  -0.028
    1UNL     H9   35  -0.667   0.159  -0.073
    1UNL    H10   36  -0.643   0.053   0.125
    1UNL    H11   37  -0.525   0.177   0.183
    1UNL    H12   38  -0.440  -0.044   0.305
    1UNL    H13   39  -0.537  -0.142   0.203
    1UNL    H14   40  -0.360  -0.165   0.209
    1UNL    H15   41  -0.297   0.181   0.159
    1UNL    H16   42   0.039  -0.099   0.053
    1UNL    H17   43   0.165   0.168   0.082
    1UNL    H18   44   0.276  -0.114   0.057
    1UNL    H19   45   0.410   0.156   0.035
    1UNL    H20   46   0.469  -0.214   0.022
    1UNL    H21   47   0.688  -0.312  -0.022
    1UNL    H22   48   0.638   0.176  -0.015
    1UNL    H23   49   1.087  -0.048  -0.040
    1UNL    H24   50   0.998  -0.043  -0.198
    1UNL    H25   51  -0.325   0.267  -0.044
    1UNL    H26   52  -0.226   0.150  -0.126
   0.00000   0.00000   0.00000   0.00000   0.00000   0.00000   0.00000   0.00000   0.00000
Generated with MDTraj, t= 64.0
 52
    1UNL     C1    1  -0.570  -0.117  -0.092
    1UNL     C2    2  -0.437  -0.051  -0.061
    1UNL     C3    3  -0.315  -0.142  -0.112
    1UNL     C4    4  -0.438   0.101  -0.116
    1UNL     C5    5  -0.566   0.160  -0.053
    1UNL     C6    6  -0.563   0.100   0.087
    1UNL     C7    7  -0.434   0.001   0.088
    1UNL     C8    8  -0.440  -0.116   0.194
    1UNL     C9    9  -0.307   0.104   0.085
    1UNL     O1   10  -0.179   0.030   0.114
    1UNL    C10   11  -0.065   0.103   0.105
    1UNL     O2   12  -0.062   0.217   0.060
    1UNL    C11   13   0.056   0.029   0.125
    1UNL    C12   14   0.170   0.074   0.073
    1UNL    C13   15   0.297   0.004   0.073
    1UNL    C14   16   0.413   0.059   0.024
    1UNL    C15   17   0.543  -0.004   0.014
    1UNL    C16   18   0.550  -0.145   0.023
    1UNL    C17   19   0.666  -0.208  -0.004
    1UNL    C18   20   0.777  -0.136  -0.049
    1UNL    C19   21   0.770   0.004  -0.055
    1UNL    C20   22   0.657   0.074  -0.015
    1UNL     O3   23   0.901   0.056  -0.074
    1UNL    C21   24   0.988  -0.058  -0.067
    1UNL     O4   25   0.909  -0.174  -0.071
    1UNL    C22   26  -0.308   0.165  -0.060
    1UNL     H1   27  -0.665  -0.067  -0.057
    1UNL     H2   28  -0.582  -0.105  -0.208
    1UNL     H3   29  -0.571  -0.224  -0.066
    1UNL     H4   30  -0.331  -0.243  -0.088
    1UNL     H5   31  -0.302  -0.135  -0.223
    1UNL     H6   32  -0.224  -0.101  -0.058
    1UNL     H7   33  -0.442   0.099  -0.221
    1UNL     H8   34  -0.558   0.276  -0.061
    1UNL     H9   35  -0.659   0.132  -0.105
    1UNL    H10   36  -0.651   0.045   0.098
    1UNL    H11   37  -0.549   0.180   0.164
    1UNL    H12   38  -0.458  -0.081   0.297
    1UNL    H13   39  -0.518  -0.178   0.164
    1UNL    H14   40  -0.346  -0.173   0.194
    1UNL    H15   41  -0.322   0.173   0.166
    1UNL    H16   42   0.046  -0.057   0.180
    1UNL    H17   43   0.163   0.171   0.018
    1UNL    H18   44   0.294  -0.095   0.106
    1UNL    H19   45   0.406   0.165  -0.002
    1UNL    H20   46   0.482  -0.206   0.085
    1UNL    H21   47   0.683  -0.316   0.015
    1UNL    H22   48   0.656   0.181  -0.031
    1UNL    H23   49   1.059  -0.048   0.018
    1UNL    H24   50   1.050  -0.038  -0.155
    1UNL    H25   51  -0.310   0.270  -0.070
    1UNL    H26   52  -0.233   0.127  -0.125
   0.00000   0.00000   0.00000   0.00000   0.00000   0.00000   0.00000   0.00000   0.00000
Generated with MDTraj, t= 65.0
 52
    1UNL     C1    1  -0.562  -0.118  -0.099
    1UNL     C2    2  -0.428  -0.050  -0.067
    1UNL     C3    3  -0.314  -0.144  -0.123
    1UNL     C4    4  -0.421   0.097  -0.126
    1UNL     C5    5  -0.549   0.164  -0.049
    1UNL     C6    6  -0.547   0.096   0.095
    1UNL     C7    7  -0.419   0.000   0.084
    1UNL     C8    8  -0.411  -0.101   0.193
    1UNL     C9    9  -0.294   0.088   0.078
    1UNL     O1   10  -0.175   0.012   0.088
    1UNL    C10   11  -0.073   0.091   0.108
    1UNL     O2   12  -0.088   0.212   0.110
    1UNL    C11   13   0.060   0.035   0.118
    1UNL    C12   14   0.174   0.103   0.094
    1UNL    C13   15   0.298   0.031   0.079
    1UNL    C14   16   0.408   0.074   0.014
    1UNL    C15   17   0.532   0.004   0.012
    1UNL    C16   18   0.538  -0.137   0.022
    1UNL    C17   19   0.655  -0.214   0.007
    1UNL    C18   20   0.771  -0.141  -0.023
    1UNL    C19   21   0.760  -0.001  -0.038
    1UNL    C20   22   0.643   0.071  -0.023
    1UNL     O3   23   0.877   0.048  -0.091
    1UNL    C21   24   0.967  -0.064  -0.107
    1UNL     O4   25   0.901  -0.177  -0.044
    1UNL    C22   26  -0.289   0.156  -0.067
    1UNL     H1   27  -0.648  -0.047  -0.111
    1UNL     H2   28  -0.548  -0.156  -0.209
    1UNL     H3   29  -0.581  -0.201  -0.028
    1UNL     H4   30  -0.318  -0.240  -0.080
    1UNL     H5   31  -0.328  -0.158  -0.233
    1UNL     H6   32  -0.210  -0.101  -0.103
    1UNL     H7   33  -0.426   0.098  -0.233
    1UNL     H8   34  -0.530   0.271  -0.045
    1UNL     H9   35  -0.634   0.159  -0.126
    1UNL    H10   36  -0.625   0.032   0.123
    1UNL    H11   37  -0.524   0.175   0.170
    1UNL    H12   38  -0.376  -0.063   0.293
    1UNL    H13   39  -0.506  -0.148   0.195
    1UNL    H14   40  -0.340  -0.173   0.163
    1UNL    H15   41  -0.287   0.156   0.158
    1UNL    H16   42   0.059  -0.080   0.137
    1UNL    H17   43   0.163   0.205   0.078
    1UNL    H18   44   0.292  -0.074   0.112
    1UNL    H19   45   0.412   0.172  -0.029
    1UNL    H20   46   0.448  -0.187   0.049
    1UNL    H21   47   0.653  -0.320   0.013
    1UNL    H22   48   0.632   0.173  -0.056
    1UNL    H23   49   1.059  -0.020  -0.065
    1UNL    H24   50   0.993  -0.078  -0.211
    1UNL    H25   51  -0.303   0.261  -0.067
    1UNL    H26   52  -0.203   0.134  -0.121
   0.00000   0.00000   0.00000   0.00000   0.00000   0.00000   0.00000   0.00000   0.00000
Generated with MDTraj, t= 66.0
 52
    1UNL     C1    1  -0.556  -0.130  -0.110
    1UNL     C2    2  -0.435  -0.051  -0.078
    1UNL     C3    3  -0.315  -0.125  -0.111
    1UNL     C4    4  -0.439   0.093  -0.136
    1UNL     C5    5  -0.557   0.155  -0.053
    1UNL     C6    6  -0.547   0.099   0.087
    1UNL     C7    7  -0.425   0.002   0.076
    1UNL     C8    8  -0.425  -0.103   0.184
    1UNL     C9    9  -0.300   0.096   0.068
    1UNL     O1   10  -0.184   0.016   0.093
    1UNL    C10   11  -0.074   0.092   0.123
    1UNL     O2   12  -0.082   0.211   0.154
    1UNL    C11   13   0.059   0.022   0.112
    1UNL    C12   14   0.176   0.089   0.102
    1UNL    C13   15   0.304   0.036   0.070
    1UNL    C14   16   0.418   0.098   0.041
    1UNL    C15   17   0.542   0.017   0.018
    1UNL    C16   18   0.554  -0.118   0.066
    1UNL    C17   19   0.655  -0.202   0.021
    1UNL    C18   20   0.768  -0.141  -0.034
    1UNL    C19   21   0.765  -0.002  -0.066
    1UNL    C20   22   0.651   0.072  -0.048
    1UNL     O3   23   0.892   0.034  -0.113
    1UNL    C21   24   0.977  -0.080  -0.098
    1UNL     O4   25   0.899  -0.188  -0.061
    1UNL    C22   26  -0.305   0.152  -0.079
    1UNL     H1   27  -0.642  -0.091  -0.048
    1UNL     H2   28  -0.589  -0.122  -0.218
    1UNL     H3   29  -0.535  -0.239  -0.074
    1UNL     H4   30  -0.314  -0.219  -0.055
    1UNL     H5   31  -0.324  -0.152  -0.218
    1UNL     H6   32  -0.215  -0.080  -0.097
    1UNL     H7   33  -0.456   0.106  -0.242
    1UNL     H8   34  -0.554   0.262  -0.052
    1UNL     H9   35  -0.657   0.137  -0.113
    1UNL    H10   36  -0.630   0.035   0.111
    1UNL    H11   37  -0.540   0.170   0.171
    1UNL    H12   38  -0.409  -0.058   0.284
    1UNL    H13   39  -0.507  -0.177   0.183
    1UNL    H14   40  -0.332  -0.149   0.178
    1UNL    H15   41  -0.299   0.158   0.153
    1UNL    H16   42   0.054  -0.082   0.098
    1UNL    H17   43   0.165   0.199   0.118
    1UNL    H18   44   0.296  -0.068   0.046
    1UNL    H19   45   0.424   0.205   0.031
    1UNL    H20   46   0.468  -0.164   0.111
    1UNL    H21   47   0.656  -0.301   0.067
    1UNL    H22   48   0.648   0.174  -0.082
    1UNL    H23   49   1.051  -0.047  -0.023
    1UNL    H24   50   1.028  -0.088  -0.194
    1UNL    H25   51  -0.317   0.255  -0.081
    1UNL    H26   52  -0.220   0.126  -0.133
   0.00000   0.00000   0.00000   0.00000   0.00000   0.00000   0.00000   0.00000   0.00000
Generated with MDTraj, t= 67.0
 52
    1UNL     C1    1  -0.561  -0.129  -0.105
    1UNL     C2    2  -0.430  -0.049  -0.077
    1UNL     C3    3  -0.304  -0.131  -0.112
    1UNL     C4    4  -0.442   0.101  -0.134
    1UNL     C5    5  -0.556   0.163  -0.055
    1UNL     C6    6  -0.553   0.093   0.090
    1UNL     C7    7  -0.428  -0.006   0.074
    1UNL     C8    8  -0.436  -0.116   0.176
    1UNL     C9    9  -0.303   0.096   0.072
    1UNL     O1   10  -0.178   0.018   0.092
    1UNL    C10   11  -0.068   0.102   0.111
    1UNL     O2   12  -0.069   0.222   0.143
    1UNL    C11   13   0.060   0.032   0.083
    1UNL    C12   14   0.177   0.095   0.083
    1UNL    C13   15   0.297   0.021   0.078
    1UNL    C14   16   0.416   0.078   0.055
    1UNL    C15   17   0.547   0.007   0.038
    1UNL    C16   18   0.561  -0.127   0.079
    1UNL    C17   19   0.674  -0.206   0.046
    1UNL    C18   20   0.776  -0.144  -0.027
    1UNL    C19   21   0.763  -0.005  -0.058
    1UNL    C20   22   0.652   0.072  -0.029
    1UNL     O3   23   0.879   0.043  -0.123
    1UNL    C21   24   0.953  -0.077  -0.138
    1UNL     O4   25   0.910  -0.174  -0.054
    1UNL    C22   26  -0.315   0.163  -0.066
    1UNL     H1   27  -0.663  -0.080  -0.085
    1UNL     H2   28  -0.564  -0.156  -0.212
    1UNL     H3   29  -0.556  -0.228  -0.042
    1UNL     H4   30  -0.302  -0.239  -0.072
    1UNL     H5   31  -0.296  -0.125  -0.222
    1UNL     H6   32  -0.214  -0.085  -0.079
    1UNL     H7   33  -0.440   0.115  -0.243
    1UNL     H8   34  -0.538   0.266  -0.039
    1UNL     H9   35  -0.663   0.158  -0.102
    1UNL    H10   36  -0.647   0.042   0.120
    1UNL    H11   37  -0.529   0.156   0.173
    1UNL    H12   38  -0.438  -0.075   0.277
    1UNL    H13   39  -0.522  -0.183   0.153
    1UNL    H14   40  -0.346  -0.169   0.185
    1UNL    H15   41  -0.304   0.165   0.151
    1UNL    H16   42   0.054  -0.072   0.072
    1UNL    H17   43   0.176   0.201   0.091
    1UNL    H18   44   0.282  -0.085   0.085
    1UNL    H19   45   0.413   0.182   0.025
    1UNL    H20   46   0.478  -0.182   0.122
    1UNL    H21   47   0.686  -0.310   0.073
    1UNL    H22   48   0.654   0.176  -0.060
    1UNL    H23   49   1.064  -0.067  -0.131
    1UNL    H24   50   0.924  -0.100  -0.243
    1UNL    H25   51  -0.324   0.265  -0.063
    1UNL    H26   52  -0.235   0.136  -0.127
   0.00000   0.00000   0.00000   0.00000   0.00000   0.00000   0.00000   0.00000   0.00000
Generated with MDTraj, t= 68.0
 52
    1UNL     C1    1  -0.563  -0.113  -0.109
    1UNL     C2    2  -0.432  -0.043  -0.081
    1UNL     C3    3  -0.306  -0.123  -0.137
    1UNL     C4    4  -0.434   0.111  -0.122
    1UNL     C5    5  -0.558   0.166  -0.041
    1UNL     C6    6  -0.548   0.094   0.092
    1UNL     C7    7  -0.423  -0.005   0.079
    1UNL     C8    8  -0.411  -0.112   0.193
    1UNL     C9    9  -0.299   0.093   0.078
    1UNL     O1   10  -0.180   0.012   0.089
    1UNL    C10   11  -0.069   0.088   0.089
    1UNL     O2   12  -0.073   0.208   0.058
    1UNL    C11   13   0.054   0.013   0.117
    1UNL    C12   14   0.169   0.073   0.091
    1UNL    C13   15   0.295   0.004   0.094
    1UNL    C14   16   0.410   0.070   0.069
    1UNL    C15   17   0.537   0.008   0.052
    1UNL    C16   18   0.571  -0.121   0.099
    1UNL    C17   19   0.680  -0.194   0.053
    1UNL    C18   20   0.775  -0.135  -0.024
    1UNL    C19   21   0.757   0.002  -0.066
    1UNL    C20   22   0.638   0.068  -0.022
    1UNL     O3   23   0.870   0.048  -0.136
    1UNL    C21   24   0.960  -0.069  -0.137
    1UNL     O4   25   0.898  -0.177  -0.066
    1UNL    C22   26  -0.299   0.175  -0.050
    1UNL     H1   27  -0.659  -0.061  -0.075
    1UNL     H2   28  -0.569  -0.128  -0.220
    1UNL     H3   29  -0.562  -0.216  -0.063
    1UNL     H4   30  -0.311  -0.228  -0.087
    1UNL     H5   31  -0.297  -0.122  -0.246
    1UNL     H6   32  -0.218  -0.074  -0.104
    1UNL     H7   33  -0.431   0.125  -0.233
    1UNL     H8   34  -0.556   0.274  -0.031
    1UNL     H9   35  -0.655   0.129  -0.081
    1UNL    H10   36  -0.642   0.035   0.112
    1UNL    H11   37  -0.532   0.164   0.170
    1UNL    H12   38  -0.388  -0.079   0.292
    1UNL    H13   39  -0.502  -0.173   0.181
    1UNL    H14   40  -0.327  -0.180   0.179
    1UNL    H15   41  -0.293   0.160   0.160
    1UNL    H16   42   0.045  -0.099   0.149
    1UNL    H17   43   0.165   0.178   0.068
    1UNL    H18   44   0.294  -0.105   0.107
    1UNL    H19   45   0.404   0.174   0.046
    1UNL    H20   46   0.507  -0.167   0.171
    1UNL    H21   47   0.679  -0.300   0.061
    1UNL    H22   48   0.614   0.157  -0.076
    1UNL    H23   49   1.042  -0.032  -0.071
    1UNL    H24   50   0.999  -0.095  -0.238
    1UNL    H25   51  -0.319   0.273  -0.030
    1UNL    H26   52  -0.214   0.163  -0.109
   0.00000   0.00000   0.00000   0.00000   0.00000   0.00000   0.00000   0.00000   0.00000
Generated with MDTraj, t= 69.0
 52
    1UNL     C1    1  -0.575  -0.104  -0.118
    1UNL     C2    2  -0.445  -0.041  -0.074
    1UNL     C3    3  -0.327  -0.120  -0.137
    1UNL     C4    4  -0.434   0.114  -0.116
    1UNL     C5    5  -0.558   0.174  -0.034
    1UNL     C6    6  -0.549   0.095   0.106
    1UNL     C7    7  -0.430  -0.000   0.085
    1UNL     C8    8  -0.427  -0.123   0.182
    1UNL     C9    9  -0.297   0.092   0.082
    1UNL     O1   10  -0.176   0.011   0.095
    1UNL    C10   11  -0.066   0.080   0.076
    1UNL     O2   12  -0.062   0.189   0.021
    1UNL    C11   13   0.054   0.016   0.115
    1UNL    C12   14   0.172   0.078   0.119
    1UNL    C13   15   0.300   0.010   0.115
    1UNL    C14   16   0.407   0.066   0.054
    1UNL    C15   17   0.543   0.003   0.045
    1UNL    C16   18   0.574  -0.127   0.090
    1UNL    C17   19   0.689  -0.192   0.059
    1UNL    C18   20   0.785  -0.128  -0.016
    1UNL    C19   21   0.765   0.003  -0.066
    1UNL    C20   22   0.644   0.070  -0.033
    1UNL     O3   23   0.870   0.046  -0.142
    1UNL    C21   24   0.964  -0.063  -0.133
    1UNL     O4   25   0.912  -0.173  -0.051
    1UNL    C22   26  -0.306   0.169  -0.051
    1UNL     H1   27  -0.656  -0.055  -0.059
    1UNL     H2   28  -0.592  -0.081  -0.231
    1UNL     H3   29  -0.587  -0.212  -0.099
    1UNL     H4   30  -0.344  -0.220  -0.086
    1UNL     H5   31  -0.343  -0.122  -0.245
    1UNL     H6   32  -0.221  -0.089  -0.118
    1UNL     H7   33  -0.441   0.134  -0.229
    1UNL     H8   34  -0.558   0.285  -0.034
    1UNL     H9   35  -0.640   0.142  -0.087
    1UNL    H10   36  -0.645   0.043   0.133
    1UNL    H11   37  -0.520   0.160   0.183
    1UNL    H12   38  -0.415  -0.098   0.283
    1UNL    H13   39  -0.522  -0.171   0.161
    1UNL    H14   40  -0.346  -0.202   0.164
    1UNL    H15   41  -0.293   0.148   0.173
    1UNL    H16   42   0.052  -0.088   0.120
    1UNL    H17   43   0.173   0.189   0.115
    1UNL    H18   44   0.303  -0.088   0.152
    1UNL    H19   45   0.394   0.169   0.020
    1UNL    H20   46   0.502  -0.183   0.148
    1UNL    H21   47   0.704  -0.298   0.085
    1UNL    H22   48   0.620   0.169  -0.069
    1UNL    H23   49   1.062  -0.017  -0.118
    1UNL    H24   50   0.956  -0.110  -0.235
    1UNL    H25   51  -0.311   0.273  -0.049
    1UNL    H26   52  -0.227   0.135  -0.109
   0.00000   0.00000   0.00000   0.00000   0.00000   0.00000   0.00000   0.00000   0.00000
Generated with MDTraj, t= 70.0
 52
    1UNL     C1    1  -0.586  -0.105  -0.102
    1UNL     C2    2  -0.454  -0.036  -0.073
    1UNL     C3    3  -0.338  -0.121  -0.130
    1UNL     C4    4  -0.459   0.112  -0.122
    1UNL     C5    5  -0.557   0.182  -0.022
    1UNL     C6    6  -0.541   0.110   0.113
    1UNL     C7    7  -0.436   0.002   0.086
    1UNL     C8    8  -0.435  -0.123   0.169
    1UNL     C9    9  -0.300   0.083   0.072
    1UNL     O1   10  -0.184   0.004   0.083
    1UNL    C10   11  -0.067   0.080   0.091
    1UNL     O2   12  -0.060   0.204   0.085
    1UNL    C11   13   0.059   0.005   0.096
    1UNL    C12   14   0.175   0.065   0.064
    1UNL    C13   15   0.303   0.003   0.077
    1UNL    C14   16   0.416   0.063   0.037
    1UNL    C15   17   0.550   0.005   0.045
    1UNL    C16   18   0.577  -0.119   0.103
    1UNL    C17   19   0.694  -0.191   0.071
    1UNL    C18   20   0.790  -0.129  -0.011
    1UNL    C19   21   0.767   0.001  -0.066
    1UNL    C20   22   0.653   0.066  -0.033
    1UNL     O3   23   0.873   0.044  -0.141
    1UNL    C21   24   0.967  -0.058  -0.124
    1UNL     O4   25   0.923  -0.166  -0.040
    1UNL    C22   26  -0.311   0.153  -0.069
    1UNL     H1   27  -0.674  -0.041  -0.086
    1UNL     H2   28  -0.587  -0.139  -0.212
    1UNL     H3   29  -0.602  -0.194  -0.039
    1UNL     H4   30  -0.346  -0.226  -0.101
    1UNL     H5   31  -0.350  -0.111  -0.241
    1UNL     H6   32  -0.226  -0.096  -0.116
    1UNL     H7   33  -0.495   0.137  -0.231
    1UNL     H8   34  -0.519   0.288  -0.018
    1UNL     H9   35  -0.649   0.191  -0.065
    1UNL    H10   36  -0.635   0.061   0.140
    1UNL    H11   37  -0.517   0.179   0.192
    1UNL    H12   38  -0.421  -0.099   0.271
    1UNL    H13   39  -0.523  -0.178   0.144
    1UNL    H14   40  -0.347  -0.189   0.138
    1UNL    H15   41  -0.283   0.154   0.155
    1UNL    H16   42   0.058  -0.091   0.136
    1UNL    H17   43   0.171   0.159   0.020
    1UNL    H18   44   0.305  -0.097   0.125
    1UNL    H19   45   0.410   0.158  -0.007
    1UNL    H20   46   0.495  -0.168   0.151
    1UNL    H21   47   0.728  -0.278   0.120
    1UNL    H22   48   0.644   0.169  -0.057
    1UNL    H23   49   1.049  -0.013  -0.069
    1UNL    H24   50   1.002  -0.085  -0.227
    1UNL    H25   51  -0.295   0.256  -0.064
    1UNL    H26   52  -0.236   0.119  -0.133
   0.00000   0.00000   0.00000   0.00000   0.00000   0.00000   0.00000   0.00000   0.00000
Generated with MDTraj, t= 71.0
 52
    1UNL     C1    1  -0.601  -0.097  -0.098
    1UNL     C2    2  -0.465  -0.035  -0.068
    1UNL     C3    3  -0.358  -0.124  -0.129
    1UNL     C4    4  -0.455   0.114  -0.119
    1UNL     C5    5  -0.564   0.182  -0.028
    1UNL     C6    6  -0.544   0.119   0.114
    1UNL     C7    7  -0.428   0.004   0.082
    1UNL     C8    8  -0.417  -0.110   0.188
    1UNL     C9    9  -0.296   0.088   0.073
    1UNL     O1   10  -0.188  -0.005   0.065
    1UNL    C10   11  -0.072   0.066   0.090
    1UNL     O2   12  -0.061   0.183   0.133
    1UNL    C11   13   0.058  -0.004   0.062
    1UNL    C12   14   0.175   0.061   0.073
    1UNL    C13   15   0.298   0.007   0.035
    1UNL    C14   16   0.417   0.071   0.025
    1UNL    C15   17   0.543  -0.003   0.013
    1UNL    C16   18   0.573  -0.117   0.083
    1UNL    C17   19   0.695  -0.180   0.072
    1UNL    C18   20   0.803  -0.121   0.006
    1UNL    C19   21   0.772   0.002  -0.064
    1UNL    C20   22   0.643   0.048  -0.068
    1UNL     O3   23   0.891   0.047  -0.119
    1UNL    C21   24   0.982  -0.064  -0.108
    1UNL     O4   25   0.935  -0.155  -0.012
    1UNL    C22   26  -0.320   0.158  -0.069
    1UNL     H1   27  -0.680  -0.059  -0.029
    1UNL     H2   28  -0.631  -0.094  -0.202
    1UNL     H3   29  -0.585  -0.206  -0.068
    1UNL     H4   30  -0.335  -0.216  -0.078
    1UNL     H5   31  -0.365  -0.131  -0.242
    1UNL     H6   32  -0.259  -0.066  -0.122
    1UNL     H7   33  -0.466   0.123  -0.236
    1UNL     H8   34  -0.548   0.290  -0.031
    1UNL     H9   35  -0.663   0.170  -0.066
    1UNL    H10   36  -0.633   0.077   0.155
    1UNL    H11   37  -0.503   0.178   0.199
    1UNL    H12   38  -0.396  -0.065   0.285
    1UNL    H13   39  -0.496  -0.184   0.187
    1UNL    H14   40  -0.327  -0.169   0.169
    1UNL    H15   41  -0.280   0.165   0.154
    1UNL    H16   42   0.054  -0.111   0.020
    1UNL    H17   43   0.172   0.173   0.090
    1UNL    H18   44   0.306  -0.096   0.016
    1UNL    H19   45   0.422   0.180   0.033
    1UNL    H20   46   0.490  -0.152   0.144
    1UNL    H21   47   0.709  -0.273   0.130
    1UNL    H22   48   0.623   0.140  -0.122
    1UNL    H23   49   1.085  -0.047  -0.071
    1UNL    H24   50   0.991  -0.114  -0.206
    1UNL    H25   51  -0.336   0.263  -0.066
    1UNL    H26   52  -0.241   0.149  -0.140
   0.00000   0.00000   0.00000   0.00000   0.00000   0.00000   0.00000   0.00000   0.00000
Generated with MDTraj, t= 72.0
 52
    1UNL     C1    1  -0.622  -0.099  -0.078
    1UNL     C2    2  -0.471  -0.035  -0.064
    1UNL     C3    3  -0.366  -0.122  -0.138
    1UNL     C4    4  -0.458   0.119  -0.110
    1UNL     C5    5  -0.563   0.183  -0.020
    1UNL     C6    6  -0.535   0.116   0.119
    1UNL     C7    7  -0.425   0.004   0.092
    1UNL     C8    8  -0.412  -0.105   0.192
    1UNL     C9    9  -0.297   0.083   0.062
    1UNL     O1   10  -0.184  -0.006   0.049
    1UNL    C10   11  -0.071   0.066   0.081
    1UNL     O2   12  -0.067   0.178   0.132
    1UNL    C11   13   0.054  -0.007   0.066
    1UNL    C12   14   0.166   0.065   0.043
    1UNL    C13   15   0.295   0.000   0.035
    1UNL    C14   16   0.413   0.062  -0.002
    1UNL    C15   17   0.547  -0.002   0.002
    1UNL    C16   18   0.569  -0.128   0.065
    1UNL    C17   19   0.694  -0.185   0.071
    1UNL    C18   20   0.803  -0.122   0.006
    1UNL    C19   21   0.777  -0.005  -0.063
    1UNL    C20   22   0.656   0.060  -0.069
    1UNL     O3   23   0.896   0.046  -0.116
    1UNL    C21   24   0.996  -0.042  -0.067
    1UNL     O4   25   0.937  -0.156  -0.003
    1UNL    C22   26  -0.315   0.168  -0.065
    1UNL     H1   27  -0.707  -0.035  -0.043
    1UNL     H2   28  -0.629  -0.118  -0.181
    1UNL     H3   29  -0.633  -0.201  -0.029
    1UNL     H4   30  -0.369  -0.223  -0.097
    1UNL     H5   31  -0.383  -0.114  -0.252
    1UNL     H6   32  -0.265  -0.082  -0.121
    1UNL     H7   33  -0.471   0.135  -0.225
    1UNL     H8   34  -0.546   0.285  -0.006
    1UNL     H9   35  -0.672   0.179  -0.048
    1UNL    H10   36  -0.619   0.061   0.153
    1UNL    H11   37  -0.511   0.191   0.201
    1UNL    H12   38  -0.352  -0.077   0.283
    1UNL    H13   39  -0.509  -0.146   0.216
    1UNL    H14   40  -0.359  -0.185   0.152
    1UNL    H15   41  -0.287   0.142   0.162
    1UNL    H16   42   0.042  -0.108   0.050
    1UNL    H17   43   0.162   0.168   0.038
    1UNL    H18   44   0.311  -0.104   0.062
    1UNL    H19   45   0.409   0.162  -0.039
    1UNL    H20   46   0.490  -0.164   0.128
    1UNL    H21   47   0.710  -0.281   0.111
    1UNL    H22   48   0.650   0.147  -0.131
    1UNL    H23   49   1.078  -0.003  -0.002
    1UNL    H24   50   1.046  -0.092  -0.153
    1UNL    H25   51  -0.310   0.272  -0.040
    1UNL    H26   52  -0.233   0.148  -0.135
   0.00000   0.00000   0.00000   0.00000   0.00000   0.00000   0.00000   0.00000   0.00000
Generated with MDTraj, t= 73.0
 52
    1UNL     C1    1  -0.619  -0.093  -0.066
    1UNL     C2    2  -0.476  -0.033  -0.060
    1UNL     C3    3  -0.377  -0.128  -0.136
    1UNL     C4    4  -0.470   0.123  -0.100
    1UNL     C5    5  -0.555   0.201   0.004
    1UNL     C6    6  -0.532   0.112   0.133
    1UNL     C7    7  -0.433  -0.002   0.093
    1UNL     C8    8  -0.423  -0.129   0.185
    1UNL     C9    9  -0.293   0.082   0.068
    1UNL     O1   10  -0.174   0.005   0.058
    1UNL    C10   11  -0.064   0.083   0.063
    1UNL     O2   12  -0.055   0.204   0.064
    1UNL    C11   13   0.051   0.004   0.075
    1UNL    C12   14   0.174   0.046   0.041
    1UNL    C13   15   0.298  -0.026   0.030
    1UNL    C14   16   0.407   0.036  -0.021
    1UNL    C15   17   0.540  -0.013  -0.011
    1UNL    C16   18   0.565  -0.141   0.040
    1UNL    C17   19   0.694  -0.188   0.058
    1UNL    C18   20   0.802  -0.119   0.013
    1UNL    C19   21   0.779   0.009  -0.046
    1UNL    C20   22   0.655   0.068  -0.041
    1UNL     O3   23   0.901   0.055  -0.099
    1UNL    C21   24   1.003  -0.036  -0.066
    1UNL     O4   25   0.941  -0.150   0.011
    1UNL    C22   26  -0.324   0.159  -0.069
    1UNL     H1   27  -0.685  -0.030  -0.005
    1UNL     H2   28  -0.655  -0.095  -0.169
    1UNL     H3   29  -0.631  -0.194  -0.028
    1UNL     H4   30  -0.403  -0.228  -0.093
    1UNL     H5   31  -0.391  -0.121  -0.250
    1UNL     H6   32  -0.274  -0.111  -0.115
    1UNL     H7   33  -0.510   0.148  -0.206
    1UNL     H8   34  -0.537   0.300   0.024
    1UNL     H9   35  -0.664   0.190  -0.025
    1UNL    H10   36  -0.617   0.067   0.177
    1UNL    H11   37  -0.483   0.179   0.209
    1UNL    H12   38  -0.422  -0.106   0.294
    1UNL    H13   39  -0.501  -0.202   0.164
    1UNL    H14   40  -0.335  -0.182   0.171
    1UNL    H15   41  -0.275   0.156   0.157
    1UNL    H16   42   0.031  -0.101   0.091
    1UNL    H17   43   0.182   0.154   0.014
    1UNL    H18   44   0.314  -0.117   0.084
    1UNL    H19   45   0.401   0.130  -0.077
    1UNL    H20   46   0.478  -0.193   0.077
    1UNL    H21   47   0.716  -0.285   0.103
    1UNL    H22   48   0.637   0.170  -0.074
    1UNL    H23   49   1.062   0.020   0.008
    1UNL    H24   50   1.068  -0.089  -0.140
    1UNL    H25   51  -0.317   0.268  -0.065
    1UNL    H26   52  -0.255   0.121  -0.146
   0.00000   0.00000   0.00000   0.00000   0.00000   0.00000   0.00000   0.00000   0.00000
Generated with MDTraj, t= 74.0
 52
    1UNL     C1    1  -0.611  -0.096  -0.071
    1UNL     C2    2  -0.481  -0.029  -0.049
    1UNL     C3    3  -0.372  -0.112  -0.127
    1UNL     C4    4  -0.476   0.122  -0.091
    1UNL     C5    5  -0.561   0.194   0.020
    1UNL     C6    6  -0.540   0.113   0.154
    1UNL     C7    7  -0.432   0.011   0.102
    1UNL     C8    8  -0.418  -0.114   0.197
    1UNL     C9    9  -0.301   0.085   0.078
    1UNL     O1   10  -0.192   0.001   0.065
    1UNL    C10   11  -0.075   0.068   0.029
    1UNL     O2   12  -0.071   0.183  -0.013
    1UNL    C11   13   0.048  -0.006   0.044
    1UNL    C12   14   0.173   0.050   0.031
    1UNL    C13   15   0.298  -0.020   0.026
    1UNL    C14   16   0.414   0.040  -0.000
    1UNL    C15   17   0.548  -0.020  -0.005
    1UNL    C16   18   0.580  -0.143   0.042
    1UNL    C17   19   0.701  -0.204   0.039
    1UNL    C18   20   0.811  -0.128   0.005
    1UNL    C19   21   0.785   0.010  -0.039
    1UNL    C20   22   0.655   0.054  -0.058
    1UNL     O3   23   0.904   0.067  -0.069
    1UNL    C21   24   1.005  -0.019  -0.032
    1UNL     O4   25   0.947  -0.154  -0.002
    1UNL    C22   26  -0.324   0.167  -0.052
    1UNL     H1   27  -0.683  -0.046  -0.011
    1UNL     H2   28  -0.647  -0.101  -0.178
    1UNL     H3   29  -0.612  -0.193  -0.033
    1UNL     H4   30  -0.361  -0.218  -0.085
    1UNL     H5   31  -0.392  -0.111  -0.235
    1UNL     H6   32  -0.269  -0.076  -0.123
    1UNL     H7   33  -0.511   0.143  -0.198
    1UNL     H8   34  -0.519   0.290   0.017
    1UNL     H9   35  -0.669   0.198  -0.009
    1UNL    H10   36  -0.632   0.063   0.184
    1UNL    H11   37  -0.502   0.180   0.233
    1UNL    H12   38  -0.360  -0.085   0.286
    1UNL    H13   39  -0.518  -0.143   0.227
    1UNL    H14   40  -0.370  -0.201   0.157
    1UNL    H15   41  -0.279   0.162   0.160
    1UNL    H16   42   0.048  -0.115   0.072
    1UNL    H17   43   0.180   0.158   0.019
    1UNL    H18   44   0.302  -0.118   0.068
    1UNL    H19   45   0.414   0.142  -0.034
    1UNL    H20   46   0.498  -0.207   0.068
    1UNL    H21   47   0.715  -0.301   0.083
    1UNL    H22   48   0.640   0.158  -0.082
    1UNL    H23   49   1.058   0.010   0.059
    1UNL    H24   50   1.065  -0.036  -0.121
    1UNL    H25   51  -0.318   0.276  -0.028
    1UNL    H26   52  -0.245   0.149  -0.126
   0.00000   0.00000   0.00000   0.00000   0.00000   0.00000   0.00000   0.00000   0.00000
Generated with MDTraj, t= 75.0
 52
    1UNL     C1    1  -0.616  -0.093  -0.045
    1UNL     C2    2  -0.475  -0.024  -0.039
    1UNL     C3    3  -0.389  -0.113  -0.122
    1UNL     C4    4  -0.473   0.128  -0.091
    1UNL     C5    5  -0.569   0.191   0.019
    1UNL     C6    6  -0.535   0.109   0.148
    1UNL     C7    7  -0.429   0.011   0.112
    1UNL     C8    8  -0.392  -0.102   0.207
    1UNL     C9    9  -0.295   0.097   0.080
    1UNL     O1   10  -0.189  -0.006   0.060
    1UNL    C10   11  -0.070   0.057   0.013
    1UNL     O2   12  -0.060   0.177  -0.018
    1UNL    C11   13   0.050  -0.030   0.011
    1UNL    C12   14   0.167   0.034  -0.021
    1UNL    C13   15   0.299  -0.018   0.002
    1UNL    C14   16   0.416   0.052  -0.000
    1UNL    C15   17   0.549  -0.016   0.002
    1UNL    C16   18   0.565  -0.154   0.031
    1UNL    C17   19   0.695  -0.210   0.032
    1UNL    C18   20   0.805  -0.124   0.009
    1UNL    C19   21   0.790   0.012  -0.021
    1UNL    C20   22   0.660   0.065  -0.026
    1UNL     O3   23   0.907   0.077  -0.038
    1UNL    C21   24   0.996  -0.025  -0.047
    1UNL     O4   25   0.945  -0.148   0.009
    1UNL    C22   26  -0.335   0.174  -0.049
    1UNL     H1   27  -0.694  -0.057   0.019
    1UNL     H2   28  -0.657  -0.103  -0.147
    1UNL     H3   29  -0.594  -0.192  -0.015
    1UNL     H4   30  -0.369  -0.218  -0.078
    1UNL     H5   31  -0.436  -0.113  -0.218
    1UNL     H6   32  -0.287  -0.071  -0.143
    1UNL     H7   33  -0.502   0.137  -0.199
    1UNL     H8   34  -0.550   0.302   0.025
    1UNL     H9   35  -0.672   0.176  -0.013
    1UNL    H10   36  -0.631   0.064   0.190
    1UNL    H11   37  -0.500   0.179   0.224
    1UNL    H12   38  -0.370  -0.061   0.302
    1UNL    H13   39  -0.474  -0.172   0.214
    1UNL    H14   40  -0.299  -0.155   0.171
    1UNL    H15   41  -0.274   0.178   0.158
    1UNL    H16   42   0.051  -0.115   0.065
    1UNL    H17   43   0.160   0.138  -0.044
    1UNL    H18   44   0.302  -0.120   0.043
    1UNL    H19   45   0.411   0.158  -0.019
    1UNL    H20   46   0.476  -0.211   0.052
    1UNL    H21   47   0.720  -0.313   0.050
    1UNL    H22   48   0.658   0.171  -0.039
    1UNL    H23   49   1.086  -0.018   0.015
    1UNL    H24   50   1.017  -0.043  -0.150
    1UNL    H25   51  -0.330   0.286  -0.032
    1UNL    H26   52  -0.260   0.156  -0.130
   0.00000   0.00000   0.00000   0.00000   0.00000   0.00000   0.00000   0.00000   0.00000
Generated with MDTraj, t= 76.0
 52
    1UNL     C1    1  -0.627  -0.100  -0.012
    1UNL     C2    2  -0.486  -0.037  -0.033
    1UNL     C3    3  -0.400  -0.139  -0.118
    1UNL     C4    4  -0.485   0.118  -0.083
    1UNL     C5    5  -0.555   0.198   0.031
    1UNL     C6    6  -0.512   0.129   0.159
    1UNL     C7    7  -0.419   0.011   0.104
    1UNL     C8    8  -0.401  -0.107   0.198
    1UNL     C9    9  -0.289   0.087   0.056
    1UNL     O1   10  -0.174   0.002   0.040
    1UNL    C10   11  -0.059   0.071   0.009
    1UNL     O2   12  -0.050   0.192   0.002
    1UNL    C11   13   0.061  -0.007  -0.006
    1UNL    C12   14   0.175   0.056  -0.026
    1UNL    C13   15   0.294  -0.017  -0.012
    1UNL    C14   16   0.412   0.048  -0.017
    1UNL    C15   17   0.542  -0.017  -0.005
    1UNL    C16   18   0.563  -0.154   0.016
    1UNL    C17   19   0.692  -0.209   0.025
    1UNL    C18   20   0.801  -0.129   0.003
    1UNL    C19   21   0.780   0.011  -0.016
    1UNL    C20   22   0.652   0.065  -0.017
    1UNL     O3   23   0.897   0.081  -0.016
    1UNL    C21   24   0.996  -0.023  -0.010
    1UNL     O4   25   0.940  -0.157  -0.003
    1UNL    C22   26  -0.335   0.150  -0.074
    1UNL     H1   27  -0.684  -0.031   0.048
    1UNL     H2   28  -0.674  -0.111  -0.104
    1UNL     H3   29  -0.620  -0.196   0.037
    1UNL     H4   30  -0.414  -0.242  -0.073
    1UNL     H5   31  -0.417  -0.131  -0.224
    1UNL     H6   32  -0.292  -0.115  -0.091
    1UNL     H7   33  -0.532   0.138  -0.179
    1UNL     H8   34  -0.514   0.308   0.031
    1UNL     H9   35  -0.661   0.207   0.021
    1UNL    H10   36  -0.607   0.087   0.212
    1UNL    H11   37  -0.467   0.185   0.240
    1UNL    H12   38  -0.357  -0.074   0.287
    1UNL    H13   39  -0.495  -0.153   0.222
    1UNL    H14   40  -0.332  -0.188   0.156
    1UNL    H15   41  -0.281   0.167   0.133
    1UNL    H16   42   0.059  -0.115   0.024
    1UNL    H17   43   0.177   0.166  -0.022
    1UNL    H18   44   0.294  -0.116   0.024
    1UNL    H19   45   0.414   0.155  -0.037
    1UNL    H20   46   0.476  -0.213   0.049
    1UNL    H21   47   0.690  -0.318   0.027
    1UNL    H22   48   0.646   0.175  -0.030
    1UNL    H23   49   1.052  -0.019   0.086
    1UNL    H24   50   1.075  -0.028  -0.087
    1UNL    H25   51  -0.299   0.259  -0.072
    1UNL    H26   52  -0.267   0.100  -0.149
   0.00000   0.00000   0.00000   0.00000   0.00000   0.00000   0.00000   0.00000   0.00000
Generated with MDTraj, t= 77.0
 52
    1UNL     C1    1  -0.641  -0.107   0.003
    1UNL     C2    2  -0.505  -0.038  -0.023
    1UNL     C3    3  -0.418  -0.145  -0.102
    1UNL     C4    4  -0.508   0.113  -0.086
    1UNL     C5    5  -0.567   0.202   0.032
    1UNL     C6    6  -0.507   0.127   0.159
    1UNL     C7    7  -0.419   0.011   0.106
    1UNL     C8    8  -0.386  -0.089   0.214
    1UNL     C9    9  -0.292   0.081   0.033
    1UNL     O1   10  -0.185  -0.001   0.011
    1UNL    C10   11  -0.065   0.065   0.014
    1UNL     O2   12  -0.066   0.186   0.022
    1UNL    C11   13   0.055  -0.008   0.001
    1UNL    C12   14   0.174   0.051   0.011
    1UNL    C13   15   0.300  -0.006  -0.027
    1UNL    C14   16   0.419   0.057  -0.023
    1UNL    C15   17   0.556  -0.004  -0.032
    1UNL    C16   18   0.570  -0.138  -0.037
    1UNL    C17   19   0.694  -0.203  -0.007
    1UNL    C18   20   0.808  -0.126   0.013
    1UNL    C19   21   0.798   0.014  -0.005
    1UNL    C20   22   0.674   0.073  -0.022
    1UNL     O3   23   0.929   0.068  -0.012
    1UNL    C21   24   1.014  -0.040   0.027
    1UNL     O4   25   0.936  -0.166   0.024
    1UNL    C22   26  -0.356   0.153  -0.103
    1UNL     H1   27  -0.699  -0.046   0.070
    1UNL     H2   28  -0.689  -0.110  -0.088
    1UNL     H3   29  -0.635  -0.207   0.046
    1UNL     H4   30  -0.407  -0.223  -0.025
    1UNL     H5   31  -0.466  -0.181  -0.196
    1UNL     H6   32  -0.312  -0.113  -0.122
    1UNL     H7   33  -0.564   0.114  -0.175
    1UNL     H8   34  -0.533   0.314   0.044
    1UNL     H9   35  -0.674   0.204   0.026
    1UNL    H10   36  -0.581   0.090   0.240
    1UNL    H11   37  -0.443   0.189   0.220
    1UNL    H12   38  -0.326  -0.038   0.285
    1UNL    H13   39  -0.469  -0.134   0.266
    1UNL    H14   40  -0.320  -0.171   0.175
    1UNL    H15   41  -0.262   0.167   0.090
    1UNL    H16   42   0.047  -0.111  -0.035
    1UNL    H17   43   0.170   0.150   0.047
    1UNL    H18   44   0.305  -0.114  -0.052
    1UNL    H19   45   0.424   0.163  -0.010
    1UNL    H20   46   0.488  -0.204  -0.046
    1UNL    H21   47   0.699  -0.310  -0.009
    1UNL    H22   48   0.665   0.176  -0.029
    1UNL    H23   49   1.083  -0.024   0.116
    1UNL    H24   50   1.087  -0.065  -0.053
    1UNL    H25   51  -0.347   0.266  -0.099
    1UNL    H26   52  -0.282   0.129  -0.188
   0.00000   0.00000   0.00000   0.00000   0.00000   0.00000   0.00000   0.00000   0.00000
Generated with MDTraj, t= 78.0
 52
    1UNL     C1    1  -0.633  -0.102   0.028
    1UNL     C2    2  -0.498  -0.050  -0.018
    1UNL     C3    3  -0.440  -0.159  -0.102
    1UNL     C4    4  -0.501   0.099  -0.088
    1UNL     C5    5  -0.565   0.180   0.022
    1UNL     C6    6  -0.500   0.128   0.152
    1UNL     C7    7  -0.410   0.014   0.103
    1UNL     C8    8  -0.354  -0.072   0.213
    1UNL     C9    9  -0.289   0.086   0.031
    1UNL     O1   10  -0.182   0.006   0.001
    1UNL    C10   11  -0.068   0.080   0.012
    1UNL     O2   12  -0.065   0.197   0.047
    1UNL    C11   13   0.056   0.003  -0.016
    1UNL    C12   14   0.175   0.066  -0.024
    1UNL    C13   15   0.300  -0.005  -0.029
    1UNL    C14   16   0.419   0.056  -0.034
    1UNL    C15   17   0.553  -0.007  -0.025
    1UNL    C16   18   0.566  -0.151  -0.035
    1UNL    C17   19   0.691  -0.210  -0.025
    1UNL    C18   20   0.802  -0.129  -0.004
    1UNL    C19   21   0.791   0.012   0.009
    1UNL    C20   22   0.669   0.071  -0.002
    1UNL     O3   23   0.921   0.066   0.028
    1UNL    C21   24   1.003  -0.041   0.033
    1UNL     O4   25   0.936  -0.165  -0.001
    1UNL    C22   26  -0.357   0.151  -0.100
    1UNL     H1   27  -0.675  -0.030   0.092
    1UNL     H2   28  -0.704  -0.128  -0.047
    1UNL     H3   29  -0.622  -0.183   0.095
    1UNL     H4   30  -0.439  -0.254  -0.047
    1UNL     H5   31  -0.481  -0.162  -0.212
    1UNL     H6   32  -0.333  -0.144  -0.112
    1UNL     H7   33  -0.560   0.106  -0.173
    1UNL     H8   34  -0.537   0.290   0.013
    1UNL     H9   35  -0.675   0.173   0.023
    1UNL    H10   36  -0.573   0.094   0.231
    1UNL    H11   37  -0.449   0.216   0.197
    1UNL    H12   38  -0.315  -0.006   0.291
    1UNL    H13   39  -0.435  -0.126   0.261
    1UNL    H14   40  -0.281  -0.145   0.185
    1UNL    H15   41  -0.271   0.165   0.100
    1UNL    H16   42   0.047  -0.099  -0.026
    1UNL    H17   43   0.178   0.178  -0.030
    1UNL    H18   44   0.298  -0.110  -0.034
    1UNL    H19   45   0.425   0.163  -0.051
    1UNL    H20   46   0.480  -0.215  -0.054
    1UNL    H21   47   0.708  -0.315  -0.009
    1UNL    H22   48   0.666   0.178   0.029
    1UNL    H23   49   1.015  -0.057   0.143
    1UNL    H24   50   1.106  -0.024  -0.007
    1UNL    H25   51  -0.345   0.263  -0.114
    1UNL    H26   52  -0.301   0.104  -0.189
   0.00000   0.00000   0.00000   0.00000   0.00000   0.00000   0.00000   0.00000   0.00000
Generated with MDTraj, t= 79.0
 52
    1UNL     C1    1  -0.606  -0.117   0.040
    1UNL     C2    2  -0.479  -0.051  -0.006
    1UNL     C3    3  -0.409  -0.162  -0.092
    1UNL     C4    4  -0.508   0.085  -0.090
    1UNL     C5    5  -0.579   0.182   0.023
    1UNL     C6    6  -0.496   0.137   0.153
    1UNL     C7    7  -0.403   0.028   0.109
    1UNL     C8    8  -0.354  -0.067   0.215
    1UNL     C9    9  -0.292   0.104   0.031
    1UNL     O1   10  -0.184   0.013  -0.002
    1UNL    C10   11  -0.059   0.084  -0.006
    1UNL     O2   12  -0.052   0.204   0.014
    1UNL    C11   13   0.059   0.005  -0.029
    1UNL    C12   14   0.178   0.064  -0.023
    1UNL    C13   15   0.301  -0.011  -0.033
    1UNL    C14   16   0.415   0.050   0.002
    1UNL    C15   17   0.545  -0.008  -0.015
    1UNL    C16   18   0.567  -0.143  -0.059
    1UNL    C17   19   0.684  -0.207  -0.051
    1UNL    C18   20   0.796  -0.132  -0.010
    1UNL    C19   21   0.778   0.007   0.020
    1UNL    C20   22   0.652   0.073   0.013
    1UNL     O3   23   0.901   0.053   0.060
    1UNL    C21   24   0.996  -0.042   0.024
    1UNL     O4   25   0.932  -0.164  -0.002
    1UNL    C22   26  -0.366   0.142  -0.098
    1UNL     H1   27  -0.672  -0.058   0.094
    1UNL     H2   28  -0.653  -0.173  -0.041
    1UNL     H3   29  -0.571  -0.190   0.103
    1UNL     H4   30  -0.407  -0.262  -0.046
    1UNL     H5   31  -0.452  -0.154  -0.200
    1UNL     H6   32  -0.304  -0.144  -0.109
    1UNL     H7   33  -0.553   0.065  -0.180
    1UNL     H8   34  -0.567   0.284  -0.016
    1UNL     H9   35  -0.689   0.161   0.049
    1UNL    H10   36  -0.565   0.113   0.233
    1UNL    H11   37  -0.439   0.231   0.189
    1UNL    H12   38  -0.308   0.003   0.290
    1UNL    H13   39  -0.433  -0.118   0.271
    1UNL    H14   40  -0.285  -0.138   0.183
    1UNL    H15   41  -0.275   0.193   0.086
    1UNL    H16   42   0.046  -0.107  -0.049
    1UNL    H17   43   0.185   0.167  -0.016
    1UNL    H18   44   0.302  -0.103  -0.092
    1UNL    H19   45   0.404   0.151   0.036
    1UNL    H20   46   0.480  -0.197  -0.086
    1UNL    H21   47   0.689  -0.314  -0.066
    1UNL    H22   48   0.630   0.172   0.047
    1UNL    H23   49   1.068  -0.059   0.105
    1UNL    H24   50   1.036  -0.004  -0.070
    1UNL    H25   51  -0.364   0.257  -0.102
    1UNL    H26   52  -0.310   0.109  -0.192
   0.00000   0.00000   0.00000   0.00000   0.00000   0.00000   0.00000   0.00000   0.00000
Generated with MDTraj, t= 80.0
 52
    1UNL     C1    1  -0.604  -0.141   0.027
    1UNL     C2    2  -0.481  -0.055   0.002
    1UNL     C3    3  -0.380  -0.148  -0.066
    1UNL     C4    4  -0.521   0.080  -0.079
    1UNL     C5    5  -0.586   0.171   0.030
    1UNL     C6    6  -0.507   0.144   0.154
    1UNL     C7    7  -0.408   0.033   0.116
    1UNL     C8    8  -0.348  -0.055   0.225
    1UNL     C9    9  -0.298   0.106   0.024
    1UNL     O1   10  -0.187   0.019   0.005
    1UNL    C10   11  -0.073   0.091  -0.024
    1UNL     O2   12  -0.070   0.211  -0.033
    1UNL    C11   13   0.051   0.015  -0.041
    1UNL    C12   14   0.173   0.063  -0.022
    1UNL    C13   15   0.302  -0.006  -0.016
    1UNL    C14   16   0.424   0.047   0.017
    1UNL    C15   17   0.548  -0.012  -0.004
    1UNL    C16   18   0.565  -0.136  -0.062
    1UNL    C17   19   0.687  -0.203  -0.077
    1UNL    C18   20   0.799  -0.131  -0.028
    1UNL    C19   21   0.787  -0.002   0.028
    1UNL    C20   22   0.666   0.057   0.037
    1UNL     O3   23   0.909   0.046   0.074
    1UNL    C21   24   1.005  -0.059   0.047
    1UNL     O4   25   0.937  -0.155  -0.032
    1UNL    C22   26  -0.378   0.142  -0.107
    1UNL     H1   27  -0.676  -0.086   0.081
    1UNL     H2   28  -0.643  -0.174  -0.067
    1UNL     H3   29  -0.578  -0.228   0.077
    1UNL     H4   30  -0.313  -0.188   0.012
    1UNL     H5   31  -0.431  -0.220  -0.134
    1UNL     H6   32  -0.316  -0.090  -0.135
    1UNL     H7   33  -0.587   0.066  -0.157
    1UNL     H8   34  -0.587   0.273  -0.006
    1UNL     H9   35  -0.700   0.138   0.044
    1UNL    H10   36  -0.561   0.111   0.242
    1UNL    H11   37  -0.456   0.244   0.186
    1UNL    H12   38  -0.316   0.021   0.301
    1UNL    H13   39  -0.421  -0.116   0.276
    1UNL    H14   40  -0.269  -0.118   0.195
    1UNL    H15   41  -0.274   0.205   0.059
    1UNL    H16   42   0.048  -0.088  -0.059
    1UNL    H17   43   0.183   0.170   0.006
    1UNL    H18   44   0.302  -0.099  -0.071
    1UNL    H19   45   0.420   0.150   0.051
    1UNL    H20   46   0.474  -0.197  -0.074
    1UNL    H21   47   0.701  -0.296  -0.130
    1UNL    H22   48   0.661   0.155   0.077
    1UNL    H23   49   1.039  -0.102   0.142
    1UNL    H24   50   1.079  -0.015  -0.021
    1UNL    H25   51  -0.371   0.258  -0.123
    1UNL    H26   52  -0.330   0.105  -0.204
   0.00000   0.00000   0.00000   0.00000   0.00000   0.00000   0.00000   0.00000   0.00000
Generated with MDTraj, t= 81.0
 52
    1UNL     C1    1  -0.613  -0.141   0.057
    1UNL     C2    2  -0.483  -0.060   0.005
    1UNL     C3    3  -0.399  -0.166  -0.081
    1UNL     C4    4  -0.508   0.071  -0.084
    1UNL     C5    5  -0.591   0.158   0.011
    1UNL     C6    6  -0.511   0.139   0.144
    1UNL     C7    7  -0.402   0.028   0.113
    1UNL     C8    8  -0.332  -0.047   0.222
    1UNL     C9    9  -0.290   0.102   0.025
    1UNL     O1   10  -0.173   0.027   0.028
    1UNL    C10   11  -0.064   0.103  -0.016
    1UNL     O2   12  -0.076   0.219  -0.049
    1UNL    C11   13   0.059   0.027  -0.029
    1UNL    C12   14   0.179   0.084  -0.027
    1UNL    C13   15   0.304   0.012  -0.016
    1UNL    C14   16   0.426   0.073  -0.000
    1UNL    C15   17   0.549  -0.007   0.002
    1UNL    C16   18   0.564  -0.125  -0.081
    1UNL    C17   19   0.686  -0.194  -0.087
    1UNL    C18   20   0.796  -0.136  -0.032
    1UNL    C19   21   0.775  -0.017   0.048
    1UNL    C20   22   0.659   0.038   0.077
    1UNL     O3   23   0.896   0.031   0.087
    1UNL    C21   24   0.998  -0.059   0.029
    1UNL     O4   25   0.931  -0.162  -0.042
    1UNL    C22   26  -0.366   0.130  -0.112
    1UNL     H1   27  -0.668  -0.059   0.098
    1UNL     H2   28  -0.676  -0.180  -0.014
    1UNL     H3   29  -0.598  -0.216   0.131
    1UNL     H4   30  -0.416  -0.262  -0.025
    1UNL     H5   31  -0.428  -0.167  -0.183
    1UNL     H6   32  -0.287  -0.150  -0.074
    1UNL     H7   33  -0.562   0.041  -0.169
    1UNL     H8   34  -0.595   0.264  -0.017
    1UNL     H9   35  -0.700   0.119   0.010
    1UNL    H10   36  -0.558   0.123   0.241
    1UNL    H11   37  -0.448   0.234   0.168
    1UNL    H12   38  -0.276   0.026   0.280
    1UNL    H13   39  -0.400  -0.090   0.291
    1UNL    H14   40  -0.270  -0.130   0.182
    1UNL    H15   41  -0.267   0.194   0.084
    1UNL    H16   42   0.049  -0.078  -0.012
    1UNL    H17   43   0.189   0.188  -0.018
    1UNL    H18   44   0.301  -0.094  -0.023
    1UNL    H19   45   0.427   0.180  -0.001
    1UNL    H20   46   0.485  -0.163  -0.138
    1UNL    H21   47   0.701  -0.279  -0.150
    1UNL    H22   48   0.649   0.130   0.140
    1UNL    H23   49   1.043  -0.097   0.123
    1UNL    H24   50   1.072  -0.010  -0.038
    1UNL    H25   51  -0.371   0.242  -0.145
    1UNL    H26   52  -0.296   0.078  -0.185
   0.00000   0.00000   0.00000   0.00000   0.00000   0.00000   0.00000   0.00000   0.00000
Generated with MDTraj, t= 82.0
 52
    1UNL     C1    1  -0.612  -0.121   0.056
    1UNL     C2    2  -0.479  -0.063   0.003
    1UNL     C3    3  -0.392  -0.184  -0.049
    1UNL     C4    4  -0.503   0.064  -0.097
    1UNL     C5    5  -0.581   0.162  -0.002
    1UNL     C6    6  -0.505   0.145   0.132
    1UNL     C7    7  -0.400   0.026   0.117
    1UNL     C8    8  -0.354  -0.049   0.239
    1UNL     C9    9  -0.289   0.089   0.029
    1UNL     O1   10  -0.176   0.011   0.008
    1UNL    C10   11  -0.067   0.093  -0.019
    1UNL     O2   12  -0.075   0.213  -0.029
    1UNL    C11   13   0.062   0.023  -0.032
    1UNL    C12   14   0.179   0.090  -0.014
    1UNL    C13   15   0.305   0.025  -0.033
    1UNL    C14   16   0.420   0.075   0.014
    1UNL    C15   17   0.548   0.020  -0.013
    1UNL    C16   18   0.555  -0.101  -0.087
    1UNL    C17   19   0.671  -0.172  -0.101
    1UNL    C18   20   0.792  -0.128  -0.041
    1UNL    C19   21   0.781  -0.014   0.040
    1UNL    C20   22   0.664   0.061   0.051
    1UNL     O3   23   0.909   0.021   0.095
    1UNL    C21   24   0.991  -0.093   0.055
    1UNL     O4   25   0.921  -0.175  -0.040
    1UNL    C22   26  -0.354   0.125  -0.106
    1UNL     H1   27  -0.678  -0.045   0.083
    1UNL     H2   28  -0.658  -0.181  -0.012
    1UNL     H3   29  -0.589  -0.189   0.136
    1UNL     H4   30  -0.336  -0.240   0.034
    1UNL     H5   31  -0.439  -0.248  -0.119
    1UNL     H6   32  -0.310  -0.136  -0.106
    1UNL     H7   33  -0.551   0.028  -0.187
    1UNL     H8   34  -0.574   0.271  -0.027
    1UNL     H9   35  -0.687   0.140   0.009
    1UNL    H10   36  -0.571   0.126   0.217
    1UNL    H11   37  -0.447   0.235   0.165
    1UNL    H12   38  -0.332   0.025   0.311
    1UNL    H13   39  -0.424  -0.114   0.285
    1UNL    H14   40  -0.262  -0.111   0.213
    1UNL    H15   41  -0.266   0.184   0.088
    1UNL    H16   42   0.060  -0.090  -0.036
    1UNL    H17   43   0.184   0.191   0.028
    1UNL    H18   44   0.311  -0.072  -0.083
    1UNL    H19   45   0.419   0.168   0.068
    1UNL    H20   46   0.474  -0.127  -0.157
    1UNL    H21   47   0.666  -0.263  -0.160
    1UNL    H22   48   0.659   0.140   0.119
    1UNL    H23   49   1.022  -0.154   0.142
    1UNL    H24   50   1.086  -0.041   0.022
    1UNL    H25   51  -0.371   0.239  -0.114
    1UNL    H26   52  -0.277   0.094  -0.186
   0.00000   0.00000   0.00000   0.00000   0.00000   0.00000   0.00000   0.00000   0.00000
Generated with MDTraj, t= 83.0
 52
    1UNL     C1    1  -0.614  -0.135   0.047
    1UNL     C2    2  -0.479  -0.070   0.008
    1UNL     C3    3  -0.385  -0.172  -0.051
    1UNL     C4    4  -0.506   0.053  -0.095
    1UNL     C5    5  -0.566   0.165  -0.006
    1UNL     C6    6  -0.504   0.147   0.133
    1UNL     C7    7  -0.406   0.025   0.115
    1UNL     C8    8  -0.371  -0.037   0.243
    1UNL     C9    9  -0.294   0.093   0.020
    1UNL     O1   10  -0.175   0.015   0.015
    1UNL    C10   11  -0.066   0.101  -0.001
    1UNL     O2   12  -0.071   0.221  -0.001
    1UNL    C11   13   0.054   0.025   0.002
    1UNL    C12   14   0.175   0.082  -0.016
    1UNL    C13   15   0.301   0.016  -0.029
    1UNL    C14   16   0.422   0.077  -0.012
    1UNL    C15   17   0.557   0.028  -0.038
    1UNL    C16   18   0.570  -0.089  -0.119
    1UNL    C17   19   0.684  -0.167  -0.113
    1UNL    C18   20   0.794  -0.126  -0.034
    1UNL    C19   21   0.787  -0.008   0.041
    1UNL    C20   22   0.670   0.071   0.031
    1UNL     O3   23   0.908   0.008   0.113
    1UNL    C21   24   0.982  -0.101   0.060
    1UNL     O4   25   0.916  -0.185  -0.028
    1UNL    C22   26  -0.365   0.109  -0.115
    1UNL     H1   27  -0.679  -0.074   0.099
    1UNL     H2   28  -0.669  -0.185  -0.029
    1UNL     H3   29  -0.584  -0.215   0.110
    1UNL     H4   30  -0.378  -0.269   0.007
    1UNL     H5   31  -0.393  -0.190  -0.157
    1UNL     H6   32  -0.283  -0.136  -0.040
    1UNL     H7   33  -0.562   0.027  -0.188
    1UNL     H8   34  -0.532   0.269  -0.041
    1UNL     H9   35  -0.670   0.151  -0.013
    1UNL    H10   36  -0.585   0.119   0.207
    1UNL    H11   37  -0.454   0.239   0.165
    1UNL    H12   38  -0.315   0.038   0.291
    1UNL    H13   39  -0.459  -0.051   0.306
    1UNL    H14   40  -0.317  -0.135   0.234
    1UNL    H15   41  -0.274   0.204   0.051
    1UNL    H16   42   0.054  -0.075   0.024
    1UNL    H17   43   0.181   0.190  -0.013
    1UNL    H18   44   0.305  -0.087  -0.054
    1UNL    H19   45   0.421   0.179   0.022
    1UNL    H20   46   0.491  -0.108  -0.188
    1UNL    H21   47   0.698  -0.254  -0.175
    1UNL    H22   48   0.662   0.166   0.084
    1UNL    H23   49   1.019  -0.155   0.146
    1UNL    H24   50   1.069  -0.043   0.020
    1UNL    H25   51  -0.367   0.218  -0.152
    1UNL    H26   52  -0.317   0.040  -0.196
   0.00000   0.00000   0.00000   0.00000   0.00000   0.00000   0.00000   0.00000   0.00000
Generated with MDTraj, t= 84.0
 52
    1UNL     C1    1  -0.606  -0.135   0.047
    1UNL     C2    2  -0.476  -0.065   0.004
    1UNL     C3    3  -0.387  -0.176  -0.059
    1UNL     C4    4  -0.493   0.053  -0.108
    1UNL     C5    5  -0.577   0.157  -0.016
    1UNL     C6    6  -0.516   0.139   0.129
    1UNL     C7    7  -0.412   0.031   0.117
    1UNL     C8    8  -0.362  -0.036   0.247
    1UNL     C9    9  -0.296   0.098   0.032
    1UNL     O1   10  -0.177   0.023   0.028
    1UNL    C10   11  -0.064   0.105   0.016
    1UNL     O2   12  -0.068   0.225   0.016
    1UNL    C11   13   0.061   0.031   0.012
    1UNL    C12   14   0.179   0.091  -0.010
    1UNL    C13   15   0.301   0.022  -0.019
    1UNL    C14   16   0.419   0.084  -0.046
    1UNL    C15   17   0.551   0.010  -0.055
    1UNL    C16   18   0.575  -0.102  -0.136
    1UNL    C17   19   0.690  -0.177  -0.112
    1UNL    C18   20   0.796  -0.128  -0.038
    1UNL    C19   21   0.776  -0.010   0.043
    1UNL    C20   22   0.652   0.045   0.036
    1UNL     O3   23   0.891   0.014   0.117
    1UNL    C21   24   0.978  -0.092   0.066
    1UNL     O4   25   0.926  -0.173  -0.032
    1UNL    C22   26  -0.346   0.109  -0.117
    1UNL     H1   27  -0.667  -0.058   0.087
    1UNL     H2   28  -0.672  -0.187  -0.021
    1UNL     H3   29  -0.588  -0.203   0.121
    1UNL     H4   30  -0.360  -0.242   0.023
    1UNL     H5   31  -0.446  -0.240  -0.132
    1UNL     H6   32  -0.294  -0.155  -0.107
    1UNL     H7   33  -0.544   0.024  -0.205
    1UNL     H8   34  -0.548   0.257  -0.065
    1UNL     H9   35  -0.680   0.147  -0.015
    1UNL    H10   36  -0.603   0.110   0.201
    1UNL    H11   37  -0.470   0.228   0.163
    1UNL    H12   38  -0.336   0.046   0.312
    1UNL    H13   39  -0.434  -0.098   0.305
    1UNL    H14   40  -0.272  -0.093   0.225
    1UNL    H15   41  -0.267   0.202   0.077
    1UNL    H16   42   0.070  -0.081   0.026
    1UNL    H17   43   0.191   0.197  -0.019
    1UNL    H18   44   0.304  -0.085  -0.001
    1UNL    H19   45   0.417   0.190  -0.062
    1UNL    H20   46   0.508  -0.152  -0.204
    1UNL    H21   47   0.712  -0.257  -0.179
    1UNL    H22   48   0.637   0.135   0.097
    1UNL    H23   49   0.990  -0.140   0.162
    1UNL    H24   50   1.073  -0.046   0.036
    1UNL    H25   51  -0.337   0.217  -0.151
    1UNL    H26   52  -0.280   0.043  -0.188
   0.00000   0.00000   0.00000   0.00000   0.00000   0.00000   0.00000   0.00000   0.00000
Generated with MDTraj, t= 85.0
 52
    1UNL     C1    1  -0.597  -0.133   0.040
    1UNL     C2    2  -0.466  -0.063   0.001
    1UNL     C3    3  -0.367  -0.173  -0.053
    1UNL     C4    4  -0.482   0.057  -0.097
    1UNL     C5    5  -0.582   0.156  -0.027
    1UNL     C6    6  -0.543   0.136   0.124
    1UNL     C7    7  -0.416   0.040   0.121
    1UNL     C8    8  -0.368  -0.036   0.242
    1UNL     C9    9  -0.290   0.106   0.047
    1UNL     O1   10  -0.177   0.025   0.045
    1UNL    C10   11  -0.060   0.094   0.020
    1UNL     O2   12  -0.060   0.213   0.005
    1UNL    C11   13   0.057   0.013  -0.004
    1UNL    C12   14   0.173   0.084  -0.021
    1UNL    C13   15   0.299   0.020  -0.051
    1UNL    C14   16   0.418   0.077  -0.021
    1UNL    C15   17   0.546   0.012  -0.039
    1UNL    C16   18   0.564  -0.099  -0.119
    1UNL    C17   19   0.684  -0.180  -0.112
    1UNL    C18   20   0.795  -0.135  -0.041
    1UNL    C19   21   0.779  -0.012   0.035
    1UNL    C20   22   0.656   0.051   0.035
    1UNL     O3   23   0.895   0.032   0.096
    1UNL    C21   24   0.980  -0.094   0.074
    1UNL     O4   25   0.925  -0.174  -0.032
    1UNL    C22   26  -0.342   0.122  -0.100
    1UNL     H1   27  -0.671  -0.056   0.052
    1UNL     H2   28  -0.638  -0.191  -0.040
    1UNL     H3   29  -0.587  -0.203   0.115
    1UNL     H4   30  -0.382  -0.261   0.003
    1UNL     H5   31  -0.381  -0.199  -0.164
    1UNL     H6   32  -0.268  -0.134  -0.029
    1UNL     H7   33  -0.521   0.023  -0.201
    1UNL     H8   34  -0.568   0.258  -0.071
    1UNL     H9   35  -0.686   0.137  -0.043
    1UNL    H10   36  -0.628   0.093   0.188
    1UNL    H11   37  -0.524   0.230   0.171
    1UNL    H12   38  -0.331   0.038   0.315
    1UNL    H13   39  -0.459  -0.073   0.294
    1UNL    H14   40  -0.301  -0.114   0.225
    1UNL    H15   41  -0.245   0.203   0.090
    1UNL    H16   42   0.053  -0.091  -0.022
    1UNL    H17   43   0.181   0.195  -0.026
    1UNL    H18   44   0.297  -0.081  -0.089
    1UNL    H19   45   0.411   0.173   0.029
    1UNL    H20   46   0.481  -0.135  -0.181
    1UNL    H21   47   0.691  -0.273  -0.168
    1UNL    H22   48   0.644   0.129   0.100
    1UNL    H23   49   0.990  -0.139   0.172
    1UNL    H24   50   1.079  -0.061   0.038
    1UNL    H25   51  -0.349   0.233  -0.130
    1UNL    H26   52  -0.267   0.075  -0.174
   0.00000   0.00000   0.00000   0.00000   0.00000   0.00000   0.00000   0.00000   0.00000
Generated with MDTraj, t= 86.0
 52
    1UNL     C1    1  -0.599  -0.135   0.020
    1UNL     C2    2  -0.467  -0.055  -0.001
    1UNL     C3    3  -0.351  -0.160  -0.042
    1UNL     C4    4  -0.478   0.067  -0.102
    1UNL     C5    5  -0.564   0.163  -0.021
    1UNL     C6    6  -0.528   0.137   0.129
    1UNL     C7    7  -0.417   0.029   0.124
    1UNL     C8    8  -0.393  -0.053   0.252
    1UNL     C9    9  -0.292   0.100   0.053
    1UNL     O1   10  -0.174   0.015   0.044
    1UNL    C10   11  -0.070   0.092   0.000
    1UNL     O2   12  -0.078   0.210  -0.017
    1UNL    C11   13   0.056   0.023  -0.015
    1UNL    C12   14   0.174   0.087  -0.029
    1UNL    C13   15   0.299   0.018  -0.025
    1UNL    C14   16   0.418   0.079  -0.009
    1UNL    C15   17   0.546   0.009  -0.022
    1UNL    C16   18   0.557  -0.114  -0.094
    1UNL    C17   19   0.677  -0.188  -0.096
    1UNL    C18   20   0.790  -0.142  -0.031
    1UNL    C19   21   0.779  -0.018   0.031
    1UNL    C20   22   0.664   0.060   0.033
    1UNL     O3   23   0.895   0.033   0.087
    1UNL    C21   24   0.989  -0.070   0.035
    1UNL     O4   25   0.925  -0.181  -0.030
    1UNL    C22   26  -0.340   0.134  -0.094
    1UNL     H1   27  -0.670  -0.078   0.075
    1UNL     H2   28  -0.646  -0.156  -0.072
    1UNL     H3   29  -0.571  -0.233   0.057
    1UNL     H4   30  -0.306  -0.207   0.040
    1UNL     H5   31  -0.387  -0.242  -0.109
    1UNL     H6   32  -0.268  -0.103  -0.089
    1UNL     H7   33  -0.514   0.038  -0.209
    1UNL     H8   34  -0.557   0.267  -0.040
    1UNL     H9   35  -0.671   0.146  -0.038
    1UNL    H10   36  -0.610   0.093   0.189
    1UNL    H11   37  -0.504   0.229   0.184
    1UNL    H12   38  -0.368   0.009   0.343
    1UNL    H13   39  -0.488  -0.098   0.282
    1UNL    H14   40  -0.327  -0.132   0.235
    1UNL    H15   41  -0.262   0.194   0.108
    1UNL    H16   42   0.058  -0.083  -0.030
    1UNL    H17   43   0.182   0.189  -0.041
    1UNL    H18   44   0.303  -0.087  -0.047
    1UNL    H19   45   0.412   0.178   0.030
    1UNL    H20   46   0.477  -0.149  -0.153
    1UNL    H21   47   0.664  -0.289  -0.132
    1UNL    H22   48   0.671   0.154   0.094
    1UNL    H23   49   1.032  -0.114   0.127
    1UNL    H24   50   1.074  -0.017  -0.017
    1UNL    H25   51  -0.337   0.244  -0.134
    1UNL    H26   52  -0.270   0.080  -0.164
   0.00000   0.00000   0.00000   0.00000   0.00000   0.00000   0.00000   0.00000   0.00000
Generated with MDTraj, t= 87.0
 52
    1UNL     C1    1  -0.609  -0.130   0.018
    1UNL     C2    2  -0.474  -0.061  -0.018
    1UNL     C3    3  -0.368  -0.151  -0.084
    1UNL     C4    4  -0.493   0.072  -0.104
    1UNL     C5    5  -0.573   0.167  -0.003
    1UNL     C6    6  -0.531   0.123   0.139
    1UNL     C7    7  -0.415   0.023   0.109
    1UNL     C8    8  -0.368  -0.057   0.235
    1UNL     C9    9  -0.304   0.104   0.044
    1UNL     O1   10  -0.179   0.036   0.063
    1UNL    C10   11  -0.069   0.104   0.006
    1UNL     O2   12  -0.076   0.215  -0.041
    1UNL    C11   13   0.053   0.027   0.022
    1UNL    C12   14   0.175   0.068  -0.013
    1UNL    C13   15   0.305   0.010   0.005
    1UNL    C14   16   0.424   0.073   0.003
    1UNL    C15   17   0.550   0.000  -0.016
    1UNL    C16   18   0.556  -0.134  -0.064
    1UNL    C17   19   0.677  -0.200  -0.072
    1UNL    C18   20   0.795  -0.136  -0.036
    1UNL    C19   21   0.785  -0.007   0.018
    1UNL    C20   22   0.666   0.064   0.018
    1UNL     O3   23   0.909   0.038   0.064
    1UNL    C21   24   0.993  -0.067   0.028
    1UNL     O4   25   0.926  -0.174  -0.038
    1UNL    C22   26  -0.345   0.122  -0.097
    1UNL     H1   27  -0.684  -0.060   0.044
    1UNL     H2   28  -0.653  -0.190  -0.054
    1UNL     H3   29  -0.583  -0.199   0.102
    1UNL     H4   30  -0.366  -0.253  -0.041
    1UNL     H5   31  -0.391  -0.170  -0.185
    1UNL     H6   32  -0.261  -0.121  -0.075
    1UNL     H7   33  -0.527   0.051  -0.215
    1UNL     H8   34  -0.552   0.266  -0.007
    1UNL     H9   35  -0.683   0.164  -0.015
    1UNL    H10   36  -0.613   0.080   0.190
    1UNL    H11   37  -0.491   0.204   0.207
    1UNL    H12   38  -0.342   0.010   0.319
    1UNL    H13   39  -0.430  -0.133   0.278
    1UNL    H14   40  -0.277  -0.106   0.199
    1UNL    H15   41  -0.301   0.201   0.096
    1UNL    H16   42   0.053  -0.070   0.079
    1UNL    H17   43   0.179   0.161  -0.079
    1UNL    H18   44   0.308  -0.100   0.008
    1UNL    H19   45   0.434   0.178   0.032
    1UNL    H20   46   0.464  -0.187  -0.089
    1UNL    H21   47   0.680  -0.304  -0.096
    1UNL    H22   48   0.662   0.162   0.057
    1UNL    H23   49   1.045  -0.107   0.119
    1UNL    H24   50   1.065  -0.010  -0.036
    1UNL    H25   51  -0.336   0.236  -0.120
    1UNL    H26   52  -0.273   0.075  -0.169
   0.00000   0.00000   0.00000   0.00000   0.00000   0.00000   0.00000   0.00000   0.00000
Generated with MDTraj, t= 88.0
 52
    1UNL     C1    1  -0.610  -0.121   0.004
    1UNL     C2    2  -0.471  -0.054  -0.026
    1UNL     C3    3  -0.384  -0.147  -0.094
    1UNL     C4    4  -0.495   0.080  -0.102
    1UNL     C5    5  -0.590   0.159  -0.009
    1UNL     C6    6  -0.536   0.127   0.141
    1UNL     C7    7  -0.418   0.018   0.109
    1UNL     C8    8  -0.388  -0.063   0.238
    1UNL     C9    9  -0.292   0.100   0.048
    1UNL     O1   10  -0.180   0.011   0.040
    1UNL    C10   11  -0.068   0.088   0.009
    1UNL     O2   12  -0.068   0.206  -0.022
    1UNL    C11   13   0.064   0.018   0.018
    1UNL    C12   14   0.183   0.087   0.017
    1UNL    C13   15   0.307   0.014   0.016
    1UNL    C14   16   0.427   0.068  -0.011
    1UNL    C15   17   0.552  -0.001  -0.018
    1UNL    C16   18   0.561  -0.136  -0.047
    1UNL    C17   19   0.675  -0.213  -0.030
    1UNL    C18   20   0.798  -0.146  -0.014
    1UNL    C19   21   0.788  -0.001   0.007
    1UNL    C20   22   0.666   0.062   0.017
    1UNL     O3   23   0.916   0.051   0.020
    1UNL    C21   24   1.003  -0.054   0.004
    1UNL     O4   25   0.934  -0.178  -0.024
    1UNL    C22   26  -0.354   0.153  -0.086
    1UNL     H1   27  -0.674  -0.063   0.064
    1UNL     H2   28  -0.675  -0.130  -0.080
    1UNL     H3   29  -0.601  -0.224   0.043
    1UNL     H4   30  -0.361  -0.237  -0.029
    1UNL     H5   31  -0.422  -0.184  -0.184
    1UNL     H6   32  -0.288  -0.098  -0.110
    1UNL     H7   33  -0.547   0.064  -0.206
    1UNL     H8   34  -0.587   0.261  -0.033
    1UNL     H9   35  -0.691   0.125  -0.035
    1UNL    H10   36  -0.613   0.091   0.200
    1UNL    H11   37  -0.491   0.220   0.187
    1UNL    H12   38  -0.355   0.010   0.311
    1UNL    H13   39  -0.470  -0.108   0.288
    1UNL    H14   40  -0.307  -0.141   0.219
    1UNL    H15   41  -0.261   0.182   0.110
    1UNL    H16   42   0.069  -0.084   0.031
    1UNL    H17   43   0.184   0.189  -0.004
    1UNL    H18   44   0.294  -0.088   0.046
    1UNL    H19   45   0.442   0.173  -0.022
    1UNL    H20   46   0.473  -0.193  -0.065
    1UNL    H21   47   0.683  -0.322  -0.044
    1UNL    H22   48   0.668   0.169   0.024
    1UNL    H23   49   1.066  -0.057   0.096
    1UNL    H24   50   1.062  -0.032  -0.086
    1UNL    H25   51  -0.366   0.265  -0.079
    1UNL    H26   52  -0.290   0.128  -0.176
   0.00000   0.00000   0.00000   0.00000   0.00000   0.00000   0.00000   0.00000   0.00000
Generated with MDTraj, t= 89.0
 52
    1UNL     C1    1  -0.619  -0.108  -0.012
    1UNL     C2    2  -0.479  -0.045  -0.027
    1UNL     C3    3  -0.373  -0.159  -0.083
    1UNL     C4    4  -0.483   0.097  -0.104
    1UNL     C5    5  -0.567   0.179   0.002
    1UNL     C6    6  -0.522   0.126   0.140
    1UNL     C7    7  -0.414   0.019   0.108
    1UNL     C8    8  -0.386  -0.083   0.214
    1UNL     C9    9  -0.288   0.093   0.045
    1UNL     O1   10  -0.180   0.011   0.039
    1UNL    C10   11  -0.067   0.089   0.026
    1UNL     O2   12  -0.071   0.211   0.030
    1UNL    C11   13   0.055   0.009   0.009
    1UNL    C12   14   0.173   0.069  -0.001
    1UNL    C13   15   0.297  -0.000  -0.017
    1UNL    C14   16   0.416   0.061   0.004
    1UNL    C15   17   0.545  -0.004  -0.002
    1UNL    C16   18   0.551  -0.146  -0.000
    1UNL    C17   19   0.676  -0.204   0.011
    1UNL    C18   20   0.794  -0.132  -0.001
    1UNL    C19   21   0.786   0.010  -0.006
    1UNL    C20   22   0.665   0.073  -0.000
    1UNL     O3   23   0.912   0.056  -0.036
    1UNL    C21   24   1.003  -0.052  -0.009
    1UNL     O4   25   0.930  -0.172  -0.016
    1UNL    C22   26  -0.334   0.140  -0.101
    1UNL     H1   27  -0.701  -0.035  -0.010
    1UNL     H2   28  -0.645  -0.154  -0.109
    1UNL     H3   29  -0.623  -0.187   0.060
    1UNL     H4   30  -0.382  -0.254  -0.025
    1UNL     H5   31  -0.396  -0.186  -0.183
    1UNL     H6   32  -0.274  -0.123  -0.076
    1UNL     H7   33  -0.534   0.085  -0.208
    1UNL     H8   34  -0.548   0.285  -0.025
    1UNL     H9   35  -0.670   0.161  -0.013
    1UNL    H10   36  -0.602   0.085   0.196
    1UNL    H11   37  -0.469   0.213   0.187
    1UNL    H12   38  -0.344  -0.048   0.305
    1UNL    H13   39  -0.478  -0.135   0.240
    1UNL    H14   40  -0.321  -0.157   0.158
    1UNL    H15   41  -0.261   0.174   0.108
    1UNL    H16   42   0.040  -0.101   0.001
    1UNL    H17   43   0.178   0.176   0.016
    1UNL    H18   44   0.293  -0.106  -0.036
    1UNL    H19   45   0.406   0.163   0.039
    1UNL    H20   46   0.463  -0.209  -0.002
    1UNL    H21   47   0.675  -0.309   0.010
    1UNL    H22   48   0.656   0.182  -0.018
    1UNL    H23   49   1.025  -0.036   0.097
    1UNL    H24   50   1.095  -0.076  -0.064
    1UNL    H25   51  -0.326   0.249  -0.117
    1UNL    H26   52  -0.272   0.081  -0.176
   0.00000   0.00000   0.00000   0.00000   0.00000   0.00000   0.00000   0.00000   0.00000
Generated with MDTraj, t= 90.0
 52
    1UNL     C1    1  -0.617  -0.103  -0.017
    1UNL     C2    2  -0.482  -0.042  -0.038
    1UNL     C3    3  -0.389  -0.139  -0.116
    1UNL     C4    4  -0.479   0.101  -0.105
    1UNL     C5    5  -0.571   0.185   0.000
    1UNL     C6    6  -0.517   0.139   0.136
    1UNL     C7    7  -0.418   0.015   0.099
    1UNL     C8    8  -0.406  -0.089   0.216
    1UNL     C9    9  -0.291   0.086   0.047
    1UNL     O1   10  -0.181   0.001   0.041
    1UNL    C10   11  -0.072   0.075   0.040
    1UNL     O2   12  -0.068   0.195   0.057
    1UNL    C11   13   0.052   0.002   0.010
    1UNL    C12   14   0.169   0.055   0.010
    1UNL    C13   15   0.299  -0.010   0.001
    1UNL    C14   16   0.421   0.054  -0.004
    1UNL    C15   17   0.550  -0.004  -0.013
    1UNL    C16   18   0.564  -0.138   0.032
    1UNL    C17   19   0.690  -0.195   0.049
    1UNL    C18   20   0.801  -0.118   0.014
    1UNL    C19   21   0.789   0.013  -0.023
    1UNL    C20   22   0.668   0.075  -0.036
    1UNL     O3   23   0.915   0.060  -0.048
    1UNL    C21   24   1.004  -0.054  -0.047
    1UNL     O4   25   0.930  -0.169  -0.000
    1UNL    C22   26  -0.336   0.143  -0.096
    1UNL     H1   27  -0.675  -0.039   0.055
    1UNL     H2   28  -0.682  -0.101  -0.108
    1UNL     H3   29  -0.597  -0.200   0.016
    1UNL     H4   30  -0.395  -0.237  -0.075
    1UNL     H5   31  -0.434  -0.148  -0.217
    1UNL     H6   32  -0.287  -0.108  -0.120
    1UNL     H7   33  -0.506   0.096  -0.218
    1UNL     H8   34  -0.571   0.299  -0.020
    1UNL     H9   35  -0.671   0.158  -0.005
    1UNL    H10   36  -0.590   0.087   0.197
    1UNL    H11   37  -0.466   0.220   0.193
    1UNL    H12   38  -0.392  -0.045   0.312
    1UNL    H13   39  -0.508  -0.135   0.225
    1UNL    H14   40  -0.334  -0.169   0.198
    1UNL    H15   41  -0.272   0.164   0.115
    1UNL    H16   42   0.036  -0.101  -0.009
    1UNL    H17   43   0.169   0.161   0.037
    1UNL    H18   44   0.299  -0.118   0.000
    1UNL    H19   45   0.410   0.161   0.003
    1UNL    H20   46   0.474  -0.198   0.030
    1UNL    H21   47   0.702  -0.293   0.101
    1UNL    H22   48   0.666   0.174  -0.064
    1UNL    H23   49   1.100  -0.056   0.013
    1UNL    H24   50   1.021  -0.083  -0.150
    1UNL    H25   51  -0.321   0.250  -0.113
    1UNL    H26   52  -0.279   0.089  -0.177
   0.00000   0.00000   0.00000   0.00000   0.00000   0.00000   0.00000   0.00000   0.00000
Generated with MDTraj, t= 91.0
 52
    1UNL     C1    1  -0.639  -0.080  -0.044
    1UNL     C2    2  -0.485  -0.039  -0.049
    1UNL     C3    3  -0.402  -0.134  -0.128
    1UNL     C4    4  -0.489   0.108  -0.104
    1UNL     C5    5  -0.570   0.182   0.003
    1UNL     C6    6  -0.531   0.118   0.137
    1UNL     C7    7  -0.430   0.011   0.097
    1UNL     C8    8  -0.406  -0.091   0.205
    1UNL     C9    9  -0.294   0.090   0.055
    1UNL     O1   10  -0.187  -0.001   0.046
    1UNL    C10   11  -0.065   0.066   0.043
    1UNL     O2   12  -0.059   0.187   0.041
    1UNL    C11   13   0.062  -0.008   0.035
    1UNL    C12   14   0.180   0.052   0.009
    1UNL    C13   15   0.308  -0.010   0.044
    1UNL    C14   16   0.427   0.053   0.021
    1UNL    C15   17   0.553  -0.014   0.003
    1UNL    C16   18   0.576  -0.135   0.063
    1UNL    C17   19   0.699  -0.188   0.069
    1UNL    C18   20   0.809  -0.126   0.005
    1UNL    C19   21   0.783   0.005  -0.056
    1UNL    C20   22   0.656   0.054  -0.062
    1UNL     O3   23   0.913   0.052  -0.094
    1UNL    C21   24   1.010  -0.035  -0.050
    1UNL     O4   25   0.943  -0.151   0.011
    1UNL    C22   26  -0.340   0.157  -0.079
    1UNL     H1   27  -0.720  -0.002  -0.035
    1UNL     H2   28  -0.667  -0.121  -0.143
    1UNL     H3   29  -0.646  -0.160   0.027
    1UNL     H4   30  -0.389  -0.228  -0.089
    1UNL     H5   31  -0.453  -0.147  -0.227
    1UNL     H6   32  -0.302  -0.099  -0.152
    1UNL     H7   33  -0.521   0.132  -0.211
    1UNL     H8   34  -0.539   0.294   0.014
    1UNL     H9   35  -0.673   0.200  -0.008
    1UNL    H10   36  -0.610   0.068   0.197
    1UNL    H11   37  -0.480   0.180   0.211
    1UNL    H12   38  -0.367  -0.049   0.298
    1UNL    H13   39  -0.501  -0.146   0.232
    1UNL    H14   40  -0.332  -0.159   0.170
    1UNL    H15   41  -0.263   0.156   0.133
    1UNL    H16   42   0.052  -0.106   0.078
    1UNL    H17   43   0.174   0.148  -0.034
    1UNL    H18   44   0.298  -0.114   0.074
    1UNL    H19   45   0.427   0.157  -0.009
    1UNL    H20   46   0.495  -0.190   0.107
    1UNL    H21   47   0.715  -0.281   0.114
    1UNL    H22   48   0.638   0.157  -0.103
    1UNL    H23   49   1.065  -0.010   0.046
    1UNL    H24   50   1.076  -0.064  -0.132
    1UNL    H25   51  -0.327   0.266  -0.066
    1UNL    H26   52  -0.278   0.141  -0.169
   0.00000   0.00000   0.00000   0.00000   0.00000   0.00000   0.00000   0.00000   0.00000
Generated with MDTraj, t= 92.0
 52
    1UNL     C1    1  -0.625  -0.078  -0.057
    1UNL     C2    2  -0.481  -0.029  -0.059
    1UNL     C3    3  -0.385  -0.121  -0.131
    1UNL     C4    4  -0.479   0.124  -0.102
    1UNL     C5    5  -0.557   0.194   0.007
    1UNL     C6    6  -0.523   0.116   0.147
    1UNL     C7    7  -0.426   0.001   0.087
    1UNL     C8    8  -0.416  -0.115   0.187
    1UNL     C9    9  -0.292   0.083   0.058
    1UNL     O1   10  -0.182  -0.002   0.061
    1UNL    C10   11  -0.070   0.072   0.044
    1UNL     O2   12  -0.061   0.193   0.015
    1UNL    C11   13   0.055  -0.009   0.056
    1UNL    C12   14   0.179   0.049   0.044
    1UNL    C13   15   0.305  -0.019   0.057
    1UNL    C14   16   0.415   0.030   0.001
    1UNL    C15   17   0.545  -0.028   0.002
    1UNL    C16   18   0.581  -0.144   0.081
    1UNL    C17   19   0.711  -0.175   0.100
    1UNL    C18   20   0.809  -0.102   0.032
    1UNL    C19   21   0.774   0.009  -0.058
    1UNL    C20   22   0.644   0.048  -0.066
    1UNL     O3   23   0.894   0.049  -0.114
    1UNL    C21   24   0.987  -0.039  -0.085
    1UNL     O4   25   0.943  -0.136   0.012
    1UNL    C22   26  -0.324   0.154  -0.077
    1UNL     H1   27  -0.687  -0.024   0.014
    1UNL     H2   28  -0.668  -0.044  -0.153
    1UNL     H3   29  -0.634  -0.193  -0.045
    1UNL     H4   30  -0.402  -0.219  -0.097
    1UNL     H5   31  -0.397  -0.120  -0.239
    1UNL     H6   32  -0.281  -0.099  -0.107
    1UNL     H7   33  -0.518   0.135  -0.205
    1UNL     H8   34  -0.532   0.306   0.010
    1UNL     H9   35  -0.664   0.202  -0.011
    1UNL    H10   36  -0.622   0.095   0.199
    1UNL    H11   37  -0.470   0.169   0.222
    1UNL    H12   38  -0.357  -0.088   0.279
    1UNL    H13   39  -0.514  -0.157   0.215
    1UNL    H14   40  -0.356  -0.191   0.144
    1UNL    H15   41  -0.275   0.156   0.137
    1UNL    H16   42   0.047  -0.117   0.067
    1UNL    H17   43   0.174   0.157   0.017
    1UNL    H18   44   0.293  -0.117   0.099
    1UNL    H19   45   0.413   0.121  -0.055
    1UNL    H20   46   0.504  -0.209   0.125
    1UNL    H21   47   0.742  -0.274   0.136
    1UNL    H22   48   0.614   0.120  -0.137
    1UNL    H23   49   1.080   0.012  -0.048
    1UNL    H24   50   1.018  -0.095  -0.176
    1UNL    H25   51  -0.296   0.262  -0.072
    1UNL    H26   52  -0.263   0.119  -0.157
   0.00000   0.00000   0.00000   0.00000   0.00000   0.00000   0.00000   0.00000   0.00000
Generated with MDTraj, t= 93.0
 52
    1UNL     C1    1  -0.610  -0.087  -0.070
    1UNL     C2    2  -0.472  -0.015  -0.060
    1UNL     C3    3  -0.364  -0.102  -0.131
    1UNL     C4    4  -0.463   0.136  -0.102
    1UNL     C5    5  -0.565   0.200   0.008
    1UNL     C6    6  -0.539   0.119   0.135
    1UNL     C7    7  -0.432   0.009   0.087
    1UNL     C8    8  -0.431  -0.115   0.184
    1UNL     C9    9  -0.295   0.083   0.067
    1UNL     O1   10  -0.192  -0.013   0.070
    1UNL    C10   11  -0.072   0.050   0.052
    1UNL     O2   12  -0.066   0.170   0.026
    1UNL    C11   13   0.054  -0.024   0.070
    1UNL    C12   14   0.168   0.031   0.029
    1UNL    C13   15   0.298  -0.028   0.042
    1UNL    C14   16   0.409   0.032   0.000
    1UNL    C15   17   0.546  -0.008   0.011
    1UNL    C16   18   0.586  -0.110   0.101
    1UNL    C17   19   0.719  -0.152   0.115
    1UNL    C18   20   0.811  -0.102   0.023
    1UNL    C19   21   0.777  -0.001  -0.062
    1UNL    C20   22   0.648   0.054  -0.065
    1UNL     O3   23   0.885   0.026  -0.144
    1UNL    C21   24   0.997  -0.040  -0.079
    1UNL     O4   25   0.944  -0.144  -0.003
    1UNL    C22   26  -0.316   0.167  -0.063
    1UNL     H1   27  -0.693  -0.024  -0.038
    1UNL     H2   28  -0.632  -0.107  -0.178
    1UNL     H3   29  -0.614  -0.185  -0.008
    1UNL     H4   30  -0.369  -0.201  -0.085
    1UNL     H5   31  -0.385  -0.107  -0.232
    1UNL     H6   32  -0.266  -0.062  -0.112
    1UNL     H7   33  -0.483   0.150  -0.207
    1UNL     H8   34  -0.561   0.310   0.018
    1UNL     H9   35  -0.670   0.183  -0.039
    1UNL    H10   36  -0.644   0.080   0.159
    1UNL    H11   37  -0.507   0.185   0.211
    1UNL    H12   38  -0.423  -0.110   0.298
    1UNL    H13   39  -0.510  -0.179   0.155
    1UNL    H14   40  -0.342  -0.170   0.155
    1UNL    H15   41  -0.267   0.154   0.146
    1UNL    H16   42   0.054  -0.125   0.103
    1UNL    H17   43   0.154   0.127  -0.008
    1UNL    H18   44   0.297  -0.136   0.059
    1UNL    H19   45   0.390   0.134  -0.034
    1UNL    H20   46   0.508  -0.154   0.160
    1UNL    H21   47   0.753  -0.235   0.173
    1UNL    H22   48   0.620   0.141  -0.122
    1UNL    H23   49   1.050   0.040  -0.028
    1UNL    H24   50   1.082  -0.088  -0.132
    1UNL    H25   51  -0.303   0.274  -0.047
    1UNL    H26   52  -0.241   0.135  -0.132
   0.00000   0.00000   0.00000   0.00000   0.00000   0.00000   0.00000   0.00000   0.00000
Generated with MDTraj, t= 94.0
 52
    1UNL     C1    1  -0.610  -0.065  -0.100
    1UNL     C2    2  -0.465  -0.026  -0.061
    1UNL     C3    3  -0.360  -0.123  -0.123
    1UNL     C4    4  -0.446   0.127  -0.102
    1UNL     C5    5  -0.560   0.195  -0.012
    1UNL     C6    6  -0.554   0.109   0.121
    1UNL     C7    7  -0.439   0.007   0.096
    1UNL     C8    8  -0.440  -0.116   0.190
    1UNL     C9    9  -0.294   0.074   0.086
    1UNL     O1   10  -0.181  -0.013   0.078
    1UNL    C10   11  -0.067   0.057   0.062
    1UNL     O2   12  -0.065   0.180   0.054
    1UNL    C11   13   0.059  -0.014   0.048
    1UNL    C12   14   0.172   0.051   0.037
    1UNL    C13   15   0.296  -0.016   0.034
    1UNL    C14   16   0.413   0.045  -0.002
    1UNL    C15   17   0.544  -0.017   0.003
    1UNL    C16   18   0.580  -0.114   0.098
    1UNL    C17   19   0.711  -0.149   0.120
    1UNL    C18   20   0.808  -0.096   0.036
    1UNL    C19   21   0.775  -0.005  -0.070
    1UNL    C20   22   0.644   0.041  -0.074
    1UNL     O3   23   0.881   0.026  -0.149
    1UNL    C21   24   0.992  -0.065  -0.103
    1UNL     O4   25   0.943  -0.123   0.016
    1UNL    C22   26  -0.310   0.168  -0.038
    1UNL     H1   27  -0.704  -0.020  -0.051
    1UNL     H2   28  -0.619  -0.047  -0.211
    1UNL     H3   29  -0.614  -0.176  -0.086
    1UNL     H4   30  -0.373  -0.231  -0.098
    1UNL     H5   31  -0.383  -0.110  -0.223
    1UNL     H6   32  -0.260  -0.097  -0.106
    1UNL     H7   33  -0.454   0.149  -0.205
    1UNL     H8   34  -0.543   0.300   0.013
    1UNL     H9   35  -0.665   0.194  -0.071
    1UNL    H10   36  -0.653   0.054   0.127
    1UNL    H11   37  -0.532   0.171   0.205
    1UNL    H12   38  -0.397  -0.100   0.292
    1UNL    H13   39  -0.539  -0.148   0.195
    1UNL    H14   40  -0.385  -0.203   0.148
    1UNL    H15   41  -0.276   0.129   0.181
    1UNL    H16   42   0.054  -0.122   0.057
    1UNL    H17   43   0.161   0.161   0.016
    1UNL    H18   44   0.296  -0.122   0.038
    1UNL    H19   45   0.397   0.147  -0.027
    1UNL    H20   46   0.507  -0.176   0.147
    1UNL    H21   47   0.731  -0.208   0.207
    1UNL    H22   48   0.624   0.123  -0.145
    1UNL    H23   49   1.082  -0.004  -0.099
    1UNL    H24   50   1.020  -0.144  -0.175
    1UNL    H25   51  -0.292   0.273  -0.026
    1UNL    H26   52  -0.237   0.128  -0.106
   0.00000   0.00000   0.00000   0.00000   0.00000   0.00000   0.00000   0.00000   0.00000
Generated with MDTraj, t= 95.0
 52
    1UNL     C1    1  -0.597  -0.086  -0.091
    1UNL     C2    2  -0.462  -0.032  -0.073
    1UNL     C3    3  -0.357  -0.110  -0.142
    1UNL     C4    4  -0.455   0.123  -0.112
    1UNL     C5    5  -0.554   0.190  -0.016
    1UNL     C6    6  -0.553   0.105   0.119
    1UNL     C7    7  -0.433  -0.001   0.084
    1UNL     C8    8  -0.421  -0.118   0.184
    1UNL     C9    9  -0.293   0.084   0.075
    1UNL     O1   10  -0.186  -0.001   0.071
    1UNL    C10   11  -0.068   0.063   0.094
    1UNL     O2   12  -0.057   0.186   0.102
    1UNL    C11   13   0.061  -0.008   0.093
    1UNL    C12   14   0.171   0.053   0.040
    1UNL    C13   15   0.303  -0.002   0.051
    1UNL    C14   16   0.409   0.053  -0.014
    1UNL    C15   17   0.543  -0.006  -0.005
    1UNL    C16   18   0.576  -0.097   0.098
    1UNL    C17   19   0.707  -0.152   0.112
    1UNL    C18   20   0.797  -0.111   0.020
    1UNL    C19   21   0.764  -0.005  -0.080
    1UNL    C20   22   0.635   0.033  -0.100
    1UNL     O3   23   0.886   0.023  -0.147
    1UNL    C21   24   0.987  -0.059  -0.080
    1UNL     O4   25   0.926  -0.149   0.010
    1UNL    C22   26  -0.310   0.160  -0.063
    1UNL     H1   27  -0.679  -0.032  -0.030
    1UNL     H2   28  -0.633  -0.087  -0.202
    1UNL     H3   29  -0.594  -0.187  -0.051
    1UNL     H4   30  -0.364  -0.218  -0.129
    1UNL     H5   31  -0.368  -0.092  -0.246
    1UNL     H6   32  -0.259  -0.089  -0.115
    1UNL     H7   33  -0.463   0.144  -0.214
    1UNL     H8   34  -0.518   0.293   0.000
    1UNL     H9   35  -0.665   0.197  -0.048
    1UNL    H10   36  -0.646   0.044   0.135
    1UNL    H11   37  -0.518   0.155   0.209
    1UNL    H12   38  -0.404  -0.084   0.285
    1UNL    H13   39  -0.507  -0.184   0.181
    1UNL    H14   40  -0.333  -0.185   0.165
    1UNL    H15   41  -0.289   0.147   0.169
    1UNL    H16   42   0.067  -0.098   0.151
    1UNL    H17   43   0.152   0.141  -0.013
    1UNL    H18   44   0.307  -0.102   0.099
    1UNL    H19   45   0.397   0.147  -0.072
    1UNL    H20   46   0.504  -0.124   0.174
    1UNL    H21   47   0.737  -0.227   0.189
    1UNL    H22   48   0.618   0.090  -0.185
    1UNL    H23   49   1.050   0.003  -0.013
    1UNL    H24   50   1.030  -0.097  -0.178
    1UNL    H25   51  -0.299   0.262  -0.046
    1UNL    H26   52  -0.241   0.137  -0.143
   0.00000   0.00000   0.00000   0.00000   0.00000   0.00000   0.00000   0.00000   0.00000
Generated with MDTraj, t= 96.0
 52
    1UNL     C1    1  -0.591  -0.110  -0.088
    1UNL     C2    2  -0.453  -0.036  -0.073
    1UNL     C3    3  -0.336  -0.113  -0.133
    1UNL     C4    4  -0.455   0.114  -0.119
    1UNL     C5    5  -0.548   0.184  -0.011
    1UNL     C6    6  -0.548   0.096   0.116
    1UNL     C7    7  -0.430  -0.007   0.083
    1UNL     C8    8  -0.424  -0.121   0.170
    1UNL     C9    9  -0.297   0.086   0.069
    1UNL     O1   10  -0.183   0.012   0.068
    1UNL    C10   11  -0.074   0.090   0.096
    1UNL     O2   12  -0.088   0.211   0.121
    1UNL    C11   13   0.054   0.019   0.090
    1UNL    C12   14   0.176   0.076   0.060
    1UNL    C13   15   0.299   0.006   0.062
    1UNL    C14   16   0.408   0.052   0.003
    1UNL    C15   17   0.538  -0.018  -0.001
    1UNL    C16   18   0.568  -0.127   0.078
    1UNL    C17   19   0.700  -0.169   0.096
    1UNL    C18   20   0.799  -0.110   0.018
    1UNL    C19   21   0.769  -0.013  -0.078
    1UNL    C20   22   0.640   0.039  -0.082
    1UNL     O3   23   0.888   0.018  -0.153
    1UNL    C21   24   0.982  -0.070  -0.101
    1UNL     O4   25   0.936  -0.137   0.013
    1UNL    C22   26  -0.310   0.160  -0.072
    1UNL     H1   27  -0.676  -0.046  -0.052
    1UNL     H2   28  -0.607  -0.110  -0.203
    1UNL     H3   29  -0.603  -0.213  -0.049
    1UNL     H4   30  -0.333  -0.205  -0.085
    1UNL     H5   31  -0.360  -0.136  -0.237
    1UNL     H6   32  -0.239  -0.068  -0.127
    1UNL     H7   33  -0.471   0.131  -0.220
    1UNL     H8   34  -0.501   0.287   0.010
    1UNL     H9   35  -0.650   0.210  -0.040
    1UNL    H10   36  -0.634   0.032   0.131
    1UNL    H11   37  -0.522   0.147   0.210
    1UNL    H12   38  -0.408  -0.098   0.271
    1UNL    H13   39  -0.510  -0.192   0.150
    1UNL    H14   40  -0.332  -0.172   0.137
    1UNL    H15   41  -0.295   0.156   0.160
    1UNL    H16   42   0.057  -0.089   0.099
    1UNL    H17   43   0.175   0.187   0.052
    1UNL    H18   44   0.295  -0.088   0.107
    1UNL    H19   45   0.408   0.146  -0.042
    1UNL    H20   46   0.495  -0.164   0.147
    1UNL    H21   47   0.718  -0.242   0.170
    1UNL    H22   48   0.605   0.097  -0.170
    1UNL    H23   49   1.073  -0.014  -0.065
    1UNL    H24   50   0.982  -0.139  -0.193
    1UNL    H25   51  -0.305   0.263  -0.051
    1UNL    H26   52  -0.238   0.141  -0.149
   0.00000   0.00000   0.00000   0.00000   0.00000   0.00000   0.00000   0.00000   0.00000
Generated with MDTraj, t= 97.0
 52
    1UNL     C1    1  -0.575  -0.116  -0.099
    1UNL     C2    2  -0.445  -0.040  -0.072
    1UNL     C3    3  -0.327  -0.117  -0.126
    1UNL     C4    4  -0.450   0.116  -0.115
    1UNL     C5    5  -0.572   0.167  -0.028
    1UNL     C6    6  -0.561   0.086   0.100
    1UNL     C7    7  -0.428  -0.005   0.082
    1UNL     C8    8  -0.418  -0.116   0.190
    1UNL     C9    9  -0.304   0.093   0.076
    1UNL     O1   10  -0.182   0.020   0.080
    1UNL    C10   11  -0.068   0.093   0.084
    1UNL     O2   12  -0.068   0.217   0.083
    1UNL    C11   13   0.055   0.019   0.090
    1UNL    C12   14   0.175   0.072   0.068
    1UNL    C13   15   0.299   0.003   0.071
    1UNL    C14   16   0.412   0.062   0.031
    1UNL    C15   17   0.545   0.006   0.015
    1UNL    C16   18   0.575  -0.113   0.089
    1UNL    C17   19   0.694  -0.175   0.087
    1UNL    C18   20   0.789  -0.132  -0.003
    1UNL    C19   21   0.772  -0.012  -0.073
    1UNL    C20   22   0.646   0.057  -0.065
    1UNL     O3   23   0.880   0.021  -0.148
    1UNL    C21   24   0.979  -0.064  -0.098
    1UNL     O4   25   0.921  -0.176  -0.027
    1UNL    C22   26  -0.326   0.174  -0.055
    1UNL     H1   27  -0.660  -0.092  -0.035
    1UNL     H2   28  -0.600  -0.086  -0.206
    1UNL     H3   29  -0.560  -0.232  -0.099
    1UNL     H4   30  -0.342  -0.213  -0.095
    1UNL     H5   31  -0.320  -0.113  -0.235
    1UNL     H6   32  -0.240  -0.074  -0.078
    1UNL     H7   33  -0.465   0.126  -0.217
    1UNL     H8   34  -0.568   0.285  -0.020
    1UNL     H9   35  -0.659   0.155  -0.084
    1UNL    H10   36  -0.643   0.021   0.114
    1UNL    H11   37  -0.546   0.143   0.195
    1UNL    H12   38  -0.378  -0.084   0.283
    1UNL    H13   39  -0.517  -0.170   0.201
    1UNL    H14   40  -0.347  -0.189   0.151
    1UNL    H15   41  -0.303   0.151   0.176
    1UNL    H16   42   0.050  -0.089   0.106
    1UNL    H17   43   0.176   0.179   0.062
    1UNL    H18   44   0.308  -0.100   0.111
    1UNL    H19   45   0.406   0.170   0.004
    1UNL    H20   46   0.501  -0.144   0.159
    1UNL    H21   47   0.715  -0.258   0.157
    1UNL    H22   48   0.626   0.139  -0.129
    1UNL    H23   49   1.041   0.001  -0.032
    1UNL    H24   50   1.046  -0.109  -0.172
    1UNL    H25   51  -0.329   0.281  -0.053
    1UNL    H26   52  -0.249   0.134  -0.114
   0.00000   0.00000   0.00000   0.00000   0.00000   0.00000   0.00000   0.00000   0.00000
Generated with MDTraj, t= 98.0
 52
    1UNL     C1    1  -0.564  -0.122  -0.098
    1UNL     C2    2  -0.435  -0.046  -0.071
    1UNL     C3    3  -0.311  -0.119  -0.125
    1UNL     C4    4  -0.442   0.110  -0.114
    1UNL     C5    5  -0.571   0.160  -0.031
    1UNL     C6    6  -0.557   0.087   0.100
    1UNL     C7    7  -0.423  -0.001   0.084
    1UNL     C8    8  -0.421  -0.109   0.194
    1UNL     C9    9  -0.295   0.091   0.085
    1UNL     O1   10  -0.178   0.014   0.091
    1UNL    C10   11  -0.069   0.088   0.072
    1UNL     O2   12  -0.074   0.206   0.035
    1UNL    C11   13   0.062   0.023   0.092
    1UNL    C12   14   0.177   0.089   0.063
    1UNL    C13   15   0.300   0.019   0.064
    1UNL    C14   16   0.418   0.083   0.040
    1UNL    C15   17   0.542   0.008   0.031
    1UNL    C16   18   0.557  -0.121   0.082
    1UNL    C17   19   0.677  -0.194   0.071
    1UNL    C18   20   0.785  -0.133   0.004
    1UNL    C19   21   0.769   0.003  -0.044
    1UNL    C20   22   0.651   0.071  -0.026
    1UNL     O3   23   0.873   0.039  -0.120
    1UNL    C21   24   0.949  -0.083  -0.138
    1UNL     O4   25   0.905  -0.186  -0.044
    1UNL    C22   26  -0.310   0.170  -0.040
    1UNL     H1   27  -0.661  -0.069  -0.086
    1UNL     H2   28  -0.556  -0.172  -0.197
    1UNL     H3   29  -0.561  -0.212  -0.023
    1UNL     H4   30  -0.294  -0.219  -0.092
    1UNL     H5   31  -0.315  -0.115  -0.231
    1UNL     H6   32  -0.221  -0.062  -0.103
    1UNL     H7   33  -0.438   0.122  -0.218
    1UNL     H8   34  -0.577   0.276  -0.020
    1UNL     H9   35  -0.650   0.142  -0.096
    1UNL    H10   36  -0.645   0.037   0.122
    1UNL    H11   37  -0.544   0.163   0.181
    1UNL    H12   38  -0.443  -0.067   0.291
    1UNL    H13   39  -0.485  -0.195   0.167
    1UNL    H14   40  -0.318  -0.142   0.196
    1UNL    H15   41  -0.297   0.151   0.182
    1UNL    H16   42   0.062  -0.077   0.120
    1UNL    H17   43   0.179   0.191   0.031
    1UNL    H18   44   0.305  -0.080   0.103
    1UNL    H19   45   0.421   0.183   0.015
    1UNL    H20   46   0.474  -0.183   0.118
    1UNL    H21   47   0.711  -0.284   0.117
    1UNL    H22   48   0.646   0.166  -0.078
    1UNL    H23   49   1.058  -0.069  -0.133
    1UNL    H24   50   0.958  -0.136  -0.232
    1UNL    H25   51  -0.318   0.274  -0.019
    1UNL    H26   52  -0.225   0.161  -0.099
   0.00000   0.00000   0.00000   0.00000   0.00000   0.00000   0.00000   0.00000   0.00000
Generated with MDTraj, t= 99.0
 52
    1UNL     C1    1  -0.561  -0.136  -0.097
    1UNL     C2    2  -0.436  -0.052  -0.062
    1UNL     C3    3  -0.314  -0.126  -0.110
    1UNL     C4    4  -0.449   0.095  -0.124
    1UNL     C5    5  -0.563   0.159  -0.041
    1UNL     C6    6  -0.548   0.094   0.107
    1UNL     C7    7  -0.425  -0.003   0.085
    1UNL     C8    8  -0.408  -0.118   0.189
    1UNL     C9    9  -0.300   0.098   0.072
    1UNL     O1   10  -0.183   0.029   0.109
    1UNL    C10   11  -0.069   0.101   0.076
    1UNL     O2   12  -0.075   0.220   0.040
    1UNL    C11   13   0.062   0.032   0.085
    1UNL    C12   14   0.178   0.099   0.073
    1UNL    C13   15   0.303   0.028   0.079
    1UNL    C14   16   0.425   0.085   0.064
    1UNL    C15   17   0.546   0.006   0.046
    1UNL    C16   18   0.555  -0.126   0.083
    1UNL    C17   19   0.665  -0.198   0.045
    1UNL    C18   20   0.769  -0.142  -0.026
    1UNL    C19   21   0.766   0.003  -0.051
    1UNL    C20   22   0.656   0.069  -0.022
    1UNL     O3   23   0.887   0.041  -0.110
    1UNL    C21   24   0.967  -0.079  -0.107
    1UNL     O4   25   0.886  -0.195  -0.078
    1UNL    C22   26  -0.313   0.163  -0.073
    1UNL     H1   27  -0.650  -0.110  -0.029
    1UNL     H2   28  -0.595  -0.135  -0.204
    1UNL     H3   29  -0.538  -0.245  -0.077
    1UNL     H4   30  -0.305  -0.230  -0.071
    1UNL     H5   31  -0.329  -0.132  -0.212
    1UNL     H6   32  -0.216  -0.088  -0.095
    1UNL     H7   33  -0.466   0.090  -0.228
    1UNL     H8   34  -0.565   0.269  -0.025
    1UNL     H9   35  -0.659   0.144  -0.083
    1UNL    H10   36  -0.636   0.046   0.140
    1UNL    H11   37  -0.524   0.176   0.178
    1UNL    H12   38  -0.375  -0.077   0.289
    1UNL    H13   39  -0.498  -0.174   0.199
    1UNL    H14   40  -0.329  -0.187   0.165
    1UNL    H15   41  -0.306   0.178   0.152
    1UNL    H16   42   0.058  -0.079   0.089
    1UNL    H17   43   0.186   0.207   0.048
    1UNL    H18   44   0.298  -0.079   0.093
    1UNL    H19   45   0.432   0.195   0.053
    1UNL    H20   46   0.479  -0.171   0.141
    1UNL    H21   47   0.664  -0.303   0.074
    1UNL    H22   48   0.647   0.172  -0.043
    1UNL    H23   49   1.045  -0.082  -0.025
    1UNL    H24   50   0.995  -0.102  -0.209
    1UNL    H25   51  -0.303   0.269  -0.076
    1UNL    H26   52  -0.245   0.136  -0.148
   0.00000   0.00000   0.00000   0.00000   0.00000   0.00000   0.00000   0.00000   0.00000
