[ moleculetype ]
; name        nrexcl
res           1

[ atoms ]
;    nr  type resnr resid  atom  cgnr     charge       mass
      1 TC4       1 res   C1        1      0.000     36.000
      2 SP2       1 res   C2        2      0.000     54.000
      3 SC3       1 res   C3        3      0.000     54.000
      4 SC4       1 res   C4        4      0.000     54.000
      5 TC5       1 res   C5        5      0.000     36.000
      6 SN6       1 res   C6        6      0.000     54.000
      7 SN6       1 res   C7        7      0.000     54.000
      8 SP1       1 res   C8        8      0.000     54.000
      9 TP1       1 res   C9        9      0.000     36.000
     10 TN6a      1 res   C10      10      0.000     36.000
     11 TN6       1 res   C11      11      0.000     36.000

[ bonds ]
;  ai    aj   funct      b0(nm)        k
    1     2     1      0.29740    20000
    1     3     1      0.35761    20000
    1     4     1      0.40272    20000
    3     4     1      0.30410    20000
    4     5     1      0.22713    20000
    4    11     1      0.28383    20000
    5     6     1      0.26472    20000
    5     7     1      0.24964    20000
    5    10     1      0.24457    20000
    6     7     1      0.39451    20000
    7     8     1      0.32057    20000
    8     9     1      0.27912    20000
   10    11     1      0.21292    20000
