1TPCN04014
32
    1res  C1    1   -0.744   0.259  -0.051
    1res  C2    2   -0.770   0.026  -0.271
    1res  C3    3   -0.826  -0.167  -0.189
    1res  C4    4   -0.661  -0.140  -0.059
    1res  C5    5   -0.450  -0.194   0.047
    1res  C6    6   -0.326  -0.099  -0.182
    1res  C7    7   -0.139  -0.148  -0.002
    1res  C8    8    0.143   0.002  -0.084
    1res  C9    9    0.377  -0.122  -0.151
    1res  C10   10    0.466  -0.339   0.045
    1res  C11   11    0.535  -0.136   0.207
    1res  C12   12    0.586   0.145   0.098
    1res  C13   13    0.820  -0.147   0.128
    1res  C14   14    0.894   0.066   0.107
    1res  C15   15    0.922   0.065  -0.060
    1res  C16   16    1.049   0.190  -0.288
    1res  C17   17    0.808   0.350  -0.244
    1res  C18   18    0.865  -0.193  -0.149
    1res  C19   19    0.117  -0.257   0.134
    1res  C20   20   -0.276  -0.112   0.155
    1res  C21   21   -0.184   0.125   0.325
    1res  C22   22   -0.128   0.444   0.274
    1res  C23   23   -0.408   0.307   0.264
    1res  C24   24   -0.510   0.147   0.384
    1res  C25   25   -0.341  -0.041   0.450
    1res  C26   26   -0.773  -0.304   0.122
    1res  C27   27   -0.806  -0.113   0.273
    1res  C28   28   -1.013  -0.269   0.101
    1res  C29   29   -0.979  -0.336  -0.130
    1res  C30   30   -0.939   0.035  -0.427
    1res  C31   31   -1.087   0.174  -0.248
    1res  C32   32   -0.955   0.348  -0.189
  10.00000  10.00000  10.00000
