[ moleculetype ]
; name        nrexcl
res           1

[ atoms ]
;    nr  type resnr resid  atom  cgnr     charge       mass
      1 SC4       1 res   C1        1      0.000     54.000
      2 TC3       1 res   C2        2      0.000     36.000
      3 SC5       1 res   C3        3      0.000     54.000
      4 SN4a      1 res   C4        4      0.000     54.000
      5 SN4a      1 res   C5        5      0.000     54.000
      6 TN3r      1 res   C6        6      0.000     36.000
      7 SN4a      1 res   C7        7      0.000     54.000
      8 N4a       1 res   C8        8      0.000     72.000
      9 SP1       1 res   C9        9      0.000     54.000
     10 SP2       1 res   C10      10      0.000     54.000
     11 TN6       1 res   C11      11      0.000     36.000
     12 TN6       1 res   C12      12      0.000     36.000
     13 TN6       1 res   C13      13      0.000     36.000
     14 SN4a      1 res   C14      14      0.000     54.000
     15 TP1       1 res   C15      15      0.000     36.000
     16 TN6       1 res   C16      16      0.000     36.000
     17 TN6       1 res   C17      17      0.000     36.000
     18 TN6       1 res   C18      18      0.000     36.000
     19 TN6       1 res   C19      19      0.000     36.000
     20 TN6       1 res   C20      20      0.000     36.000
     21 TN6       1 res   C21      21      0.000     36.000
     22 SN6       1 res   C22      22      0.000     54.000
     23 SC4       1 res   C23      23      0.000     54.000
     24 TC3       1 res   C24      24      0.000     36.000
     25 SC4       1 res   C25      25      0.000     54.000
     26 SC4       1 res   C26      26      0.000     54.000
     27 TC3       1 res   C27      27      0.000     36.000
     28 TN6       1 res   C28      28      0.000     36.000
     29 TC4       1 res   C29      29      0.000     36.000
     30 SN4a      1 res   C30      30      0.000     54.000
     31 SN4a      1 res   C31      31      0.000     54.000
     32 TP1       1 res   C32      32      0.000     36.000
     33 TN6       1 res   C33      33      0.000     36.000
     34 TN6       1 res   C34      34      0.000     36.000
     35 TN6       1 res   C35      35      0.000     36.000
     36 TC3       1 res   C36      36      0.000     36.000

[ bonds ]
;  ai    aj   funct      b0(nm)        k
    1     2     1      0.29706    20000
    1     3     1      0.30345    20000
    2     3     1      0.30669    20000
    3     4     1      0.28899    20000
    3    22     1      0.38634    20000
    3    23     1      0.37166    20000
    4     5     1      0.30574    20000
    5     6     1      0.28989    20000
    5    19     1      0.28603    20000
    5    21     1      0.28097    20000
    6     7     1      0.28248    20000
    7     8     1      0.37528    20000
    7    11     1      0.27421    20000
    7    13     1      0.26228    20000
    8     9     1      0.41661    20000
    9    10     1      0.33432    20000
   11    12     1      0.21328    20000
   12    13     1      0.23503    20000
   13    14     1      0.27092    20000
   14    15     1      0.28067    20000
   14    16     1      0.30517    20000
   14    18     1      0.28082    20000
   16    17     1      0.26865    20000
   17    18     1      0.22735    20000
   19    20     1      0.25800    20000
   20    21     1      0.21970    20000
   22    23     1      0.30990    20000
   23    24     1      0.33392    20000
   23    25     1      0.31205    20000
   24    25     1      0.28229    20000
   25    26     1      0.27110    20000
   25    36     1      0.28828    20000
   26    27     1      0.28319    20000
   26    29     1      0.39270    20000
   26    36     1      0.34034    20000
   27    28     1      0.27931    20000
   28    29     1      0.27336    20000
   29    30     1      0.27717    20000
   30    31     1      0.34346    20000
   31    32     1      0.21819    20000
   31    33     1      0.29901    20000
   31    35     1      0.27885    20000
   33    34     1      0.24713    20000
   34    35     1      0.24884    20000
