[ moleculetype ]
; name        nrexcl
res           1

[ atoms ]
;    nr  type  resnr resid  atom  cgnr     charge       mass
      1 TC5       1 res   C1        1      0.000     36.000
      2 TX3       1 res   C2        2      0.000     36.000
      3 TX3       1 res   C3        3      0.000     36.000
      4 SX3       1 res   C4        4      0.000     54.000

[ constraints ]
;  ai    aj   funct      b0(nm)
    1     2     1      0.28010
    2     3     1      0.22582
    1     4     1      0.30416
    3     4     1      0.28237

[ bonds ]
;  ai    aj   funct      b0(nm)          k(kJ/mol/nm^2)

[ angles ]
;  ai    aj    ak  funct     th0(deg)        k(kJ/mol/rad^2)
    1     2     3     1     96.24322          3560.31
    1     4     3     1     80.26609          5611.80
    2     1     4     1     83.49074          3538.07
    2     3     4     1     99.46530          2152.93

[ dihedrals ]
;  ai    aj    ak    al  funct   phi0(deg)        k(kJ/mol)   mult
    1     2     3     4     1   -179.90299       10.799      1
    1     4     3     2     1    179.13822       10.061      1
    2     1     4     3     1   -179.17216        8.559      1
    3     2     1     4     1    179.12587       10.071      1
