1TPCN02332
8
    1res  C1    1    0.509  -0.062  -0.011
    1res  C2    2    0.264  -0.028  -0.032
    1res  C3    3   -0.046  -0.038  -0.129
    1res  C4    4    0.097   0.096   0.205
    1res  C5    5    0.365   0.071   0.258
    1res  C6    6   -0.177   0.104   0.055
    1res  C7    7   -0.437   0.121   0.106
    1res  C8    8   -0.431  -0.073  -0.110
  10.00000  10.00000  10.00000
