[ moleculetype ]
; name        nrexcl
res           1

[ atoms ]
;    nr  type  resnr resid  atom  cgnr     charge       mass
      1 SC4       1 res   C1        1      0.000     54.000
      2 TN4a      1 res   C2        2      0.000     36.000
      3 TN6a      1 res   C3        3      0.000     36.000
      4 SN6       1 res   C4        4      0.000     54.000
      5 SN3r      1 res   C5        5      0.000     54.000
      6 SN4a      1 res   C6        6      0.000     54.000
      7 N4a       1 res   C7        7      0.000     72.000
      8 TC5       1 res   C8        8      0.000     36.000
      9 TC5       1 res   C9        9      0.000     36.000
     10 SN6       1 res   C10      10      0.000     54.000
     11 TC5       1 res   C11      11      0.000     36.000
     12 SP4       1 res   C12      12      0.000     54.000
     13 TN6       1 res   C13      13      0.000     36.000

[ constraints ]
;  ai    aj   funct      b0(nm)
    1     2     1      0.32514
   10    11     1      0.28472
    2     3     1      0.26684
    6    12     1      0.26860
    4     5     1      0.33009
    9    11     1      0.29884
    3     4     1      0.31473
    7     8     1      0.33289
    9    10     1      0.30180
   12    13     1      0.27527
    2     4     1      0.21842
    6    13     1      0.28483
    8     9     1      0.22655

[ bonds ]
;  ai    aj   funct      b0(nm)          k(kJ/mol/nm^2)
    5     6     1      0.32458           7654.9
    6     7     1      0.28277          17893.1

[ angles ]
;  ai    aj    ak  funct     th0(deg)        k(kJ/mol/rad^2)
    1     2     3     1    137.08524            44.31
    1     2     4     1     93.60419            91.81
    2     3     4     1     43.12935          3689.15
    2     4     3     1     56.66885          2026.13
    2     4     5     1    108.62768           536.90
    3     2     4     1     80.20163          1507.22
    3     4     5     1     55.00507          1194.78
    4     5     6     1    120.68801            29.27
    5     6     7     1     79.82317           342.63
    5     6    12     1    123.98906           178.48
    5     6    13     1     79.85781           141.49
    6     7     8     1    117.08532           132.34
    6    12    13     1     63.17334          1851.94
    6    13    12     1     57.26028          3803.07
    7     6    12     1     92.11365           504.68
    7     6    13     1    123.37021           192.03
    7     8     9     1    148.54875           605.72
    8     9    10     1    151.28712          1288.78
    8     9    11     1     95.50149          1597.79
    9    10    11     1     61.18256          7108.49
    9    11    10     1     62.23033          7149.01
   10     9    11     1     56.58713          9055.58
   12     6    13     1     59.56628          1736.44

[ dihedrals ]
;  ai    aj    ak    al  funct   phi0(deg)        k(kJ/mol)   mult
    1     2     3     4     1    -86.19968       19.171      1
    1     2     4     3     1     53.88530       16.026      1
    1     2     4     5     1     31.68999       21.228      1
    2     3     4     5     1    -19.00204       18.543      1
    2     4     5     6     1    119.39619       19.625      1
    3     2     4     5     1    164.01513       16.516      1
    3     4     5     6     1    110.25985       17.724      1
    4     5     6     7     1    121.60416       28.222      1
    4     5     6    12     1   -147.61555       26.179      1
    4     5     6    13     1   -105.33478       26.830      1
    5     6     7     8     1     87.91113       12.228      1
    5     6    12    13     1   -132.02476       15.083      1
    5     6    13    12     1     39.84348       10.805      1
    6     7     8     9     1    -97.37233       24.926      1
    7     6    12    13     1    -50.10358       12.228      1
    7     6    13    12     1    109.99316        9.331      1
    7     8     9    10     1     -1.51378       23.970      1
    7     8     9    11     1     -3.81963       17.693      1
    8     7     6    12     1    -38.25080        9.298      1
    8     7     6    13     1     16.08499       10.759      1
    8     9    10    11     1    179.02285       21.617      1
    8     9    11    10     1     -1.99595       12.268      1
