[ moleculetype ]
; name        nrexcl
res           1

[ atoms ]
;    nr  type  resnr resid  atom  cgnr     charge       mass
      1 SC4       1 res   C1        1      0.000     54.000
      2 TN4a      1 res   C2        2      0.000     36.000
      3 TN6a      1 res   C3        3      0.000     36.000
      4 SN6       1 res   C4        4      0.000     54.000
      5 SN3r      1 res   C5        5      0.000     54.000
      6 SN4a      1 res   C6        6      0.000     54.000
      7 N4a       1 res   C7        7      0.000     72.000
      8 TC5       1 res   C8        8      0.000     36.000
      9 TC5       1 res   C9        9      0.000     36.000
     10 SN6       1 res   C10      10      0.000     54.000
     11 TC5       1 res   C11      11      0.000     36.000
     12 SP4       1 res   C12      12      0.000     54.000
     13 TN6       1 res   C13      13      0.000     36.000

[ constraints ]
;  ai    aj   funct      b0(nm)
    1     2     1      0.32726
   10    11     1      0.28312
    2     3     1      0.26757
    6    12     1      0.26763
    4     5     1      0.33362
    9    11     1      0.29881
    3     4     1      0.31473
    7     8     1      0.33217
    9    10     1      0.30119
   12    13     1      0.27700
    6     7     1      0.28247
    2     4     1      0.21985
    6    13     1      0.28555
    8     9     1      0.22712

[ bonds ]
;  ai    aj   funct      b0(nm)          k(kJ/mol/nm^2)
    5     6     1      0.32406           6129.0

[ angles ]
;  ai    aj    ak  funct     th0(deg)        k(kJ/mol/rad^2)
    1     2     3     1    140.30233           153.77
    1     2     4     1     90.58073           388.67
    2     3     4     1     43.42397          3668.08
    2     4     3     1     56.80548          2397.32
    2     4     5     1    109.05094           752.95
    3     2     4     1     79.77049          2525.56
    3     4     5     1     54.61378          1095.30
    4     5     6     1    125.82481            37.08
    5     6     7     1     80.40253           205.76
    5     6    12     1    124.41398           149.55
    5     6    13     1     80.19736           130.02
    6     7     8     1    117.95057           110.82
    6    12    13     1     63.24048          1640.92
    6    13    12     1     56.76452          4118.79
    7     6    12     1     91.92626           644.31
    7     6    13     1    124.30211           174.64
    7     8     9     1    148.19513           331.35
    8     9    10     1    151.21307          1374.37
    8     9    11     1     95.62883          2438.16
    9    10    11     1     61.41964         11166.14
    9    11    10     1     62.27204          8070.41
   10     9    11     1     56.30832         11917.78
   12     6    13     1     59.99491          1258.08

[ dihedrals ]
;  ai    aj    ak    al  funct   phi0(deg)        k(kJ/mol)   mult
    1     2     3     4     1    -98.55294       14.284      1
    1     2     4     3     1     37.94383       13.628      1
    1     2     4     5     1     27.13813       18.305      1
    2     3     4     5     1    -15.07394       18.418      1
    2     4     5     6     1    119.45091       22.197      1
    3     2     4     5     1    167.79152       16.459      1
    3     4     5     6     1    107.31454       20.128      1
    4     5     6     7     1    118.94209       25.176      1
    4     5     6    12     1   -155.28708       29.775      1
    4     5     6    13     1   -114.43522       26.238      1
    5     6     7     8     1     83.68141       16.898      1
    5     6    12    13     1   -134.80657       15.725      1
    5     6    13    12     1     38.17600       12.195      1
    6     7     8     9     1    -92.63048       23.348      1
    7     6    12    13     1    -50.86759       11.509      1
    7     6    13    12     1    111.87633        9.273      1
    7     8     9    10     1     -5.09774       25.513      1
    7     8     9    11     1     -6.74012       22.247      1
    8     7     6    12     1    -38.95244       15.687      1
    8     7     6    13     1     14.13080       16.322      1
    8     9    10    11     1   -179.64563       20.977      1
    8     9    11    10     1     -0.14234       13.606      1
