1TPCN04539
17
    1res  C1    1    0.566   0.244   0.163
    1res  C2    2    0.457   0.163  -0.114
    1res  C3    3    0.514  -0.077  -0.019
    1res  C4    4    0.287  -0.292  -0.065
    1res  C5    5    0.199  -0.107   0.158
    1res  C6    6    0.115   0.079  -0.162
    1res  C7    7   -0.038   0.270  -0.114
    1res  C8    8   -0.202   0.324   0.060
    1res  C9    9   -0.235   0.588  -0.080
    1res  C10   10   -0.447   0.589   0.155
    1res  C11   11   -0.383   0.277   0.284
    1res  C12   12   -0.049  -0.062   0.076
    1res  C13   13   -0.217  -0.135  -0.260
    1res  C14   14   -0.378   0.025  -0.082
    1res  C15   15   -0.470  -0.165   0.087
    1res  C16   16   -0.449  -0.363  -0.086
    1res  C17   17   -0.097  -0.333   0.020
  10.00000  10.00000  10.00000
