1TPCN04425
13
    1res  C1    1    0.541   0.281   0.019
    1res  C2    2    0.568  -0.010   0.030
    1res  C3    3    0.314   0.108   0.048
    1res  C4    4    0.303  -0.081  -0.227
    1res  C5    5    0.269  -0.275   0.044
    1res  C6    6    0.092  -0.103   0.224
    1res  C7    7   -0.043   0.170   0.091
    1res  C8    8   -0.141  -0.197   0.118
    1res  C9    9   -0.367  -0.076   0.053
    1res  C10   10   -0.473   0.152   0.113
    1res  C11   11   -0.524   0.236  -0.125
    1res  C12   12   -0.498  -0.018  -0.242
    1res  C13   13   -0.154  -0.133  -0.159
  10.00000  10.00000  10.00000
