[ moleculetype ]
; name        nrexcl
res           1

[ atoms ]
;    nr  type resnr resid  atom  cgnr     charge       mass
      1 TC3       1 res   C1        1      0.000     36.000
      2 TN6d      1 res   C2        2      0.000     36.000
      3 TC5       1 res   C3        3      0.000     36.000
      4 SN3r      1 res   C4        4      0.000     54.000
      5 TC5       1 res   C5        5      0.000     36.000
      6 TN6       1 res   C6        6      0.000     36.000
      7 TC5       1 res   C7        7      0.000     36.000
      8 TC5       1 res   C8        8      0.000     36.000
      9 TC3       1 res   C9        9      0.000     36.000
     10 TN6a      1 res   C10      10      0.000     36.000
     11 TN6       1 res   C11      11      0.000     36.000
     12 TC3       1 res   C12      12      0.000     36.000
     13 TN3r      1 res   C13      13      0.000     36.000
     14 SN6       1 res   C14      14      0.000     54.000
     15 TN3r      1 res   C15      15      0.000     36.000

[ bonds ]
;  ai    aj   funct      b0(nm)        k
    1     2     1      0.26478    20000
    2     3     1      0.27748    20000
    2     7     1      0.28784    20000
    3     4     1      0.35647    20000
    3     5     1      0.27715    20000
    3     7     1      0.27302    20000
    3    14     1      0.30140    20000
    5     6     1      0.27505    20000
    6     7     1      0.26572    20000
    7     8     1      0.22184    20000
    7    14     1      0.24282    20000
    8     9     1      0.25735    20000
    8    10     1      0.23019    20000
    8    11     1      0.31117    20000
    9    10     1      0.26930    20000
    9    12     1      0.31881    20000
   11    12     1      0.26294    20000
   11    14     1      0.26447    20000
   12    13     1      0.30829    20000
   14    15     1      0.34809    20000
