1TPCN04354
19
    1res  C1    1    0.722   0.419  -0.172
    1res  C2    2    0.684   0.116  -0.035
    1res  C3    3    0.519   0.029   0.110
    1res  C4    4    0.349  -0.175  -0.019
    1res  C5    5    0.211   0.103   0.157
    1res  C6    6    0.017   0.048  -0.027
    1res  C7    7   -0.027  -0.221  -0.152
    1res  C8    8   -0.129  -0.292   0.091
    1res  C9    9   -0.213   0.006   0.236
    1res  C10   10   -0.400  -0.202   0.109
    1res  C11   11   -0.521   0.074   0.031
    1res  C12   12   -0.750   0.220   0.090
    1res  C13   13   -0.694   0.103  -0.183
    1res  C14   14   -0.405   0.260  -0.255
    1res  C15   15   -0.423  -0.150  -0.215
    1res  C16   16    0.214  -0.314   0.196
    1res  C17   17    0.658  -0.164   0.133
    1res  C18   18    0.855  -0.078   0.153
    1res  C19   19    0.884   0.135   0.075
  10.00000  10.00000  10.00000
