[ moleculetype ]
; name        nrexcl
res           1

[ atoms ]
;    nr  type  resnr resid  atom  cgnr     charge       mass
      1 TC3       1 res   C1        1      0.000     36.000
      2 TX3       1 res   C2        2      0.000     36.000
      3 TX3       1 res   C3        3      0.000     36.000
      4 TC3       1 res   C4        4      0.000     36.000

[ bonds ]
;  ai    aj   funct      b0(nm)          k(kJ/mol/nm^2)
    1     2     1      0.25212          68454.5
    1     4     1      0.27621          71877.2
    2     3     1      0.22270          57520.5
    3     4     1      0.26073          66247.5

[ angles ]
;  ai    aj    ak  funct     th0(deg)        k(kJ/mol/rad^2)
    1     2     3     1     95.68472          1469.72
    1     4     3     1     81.99894          2978.88
    2     1     4     1     78.91515          1768.91
    2     3     4     1     87.76217          1567.15

[ dihedrals ]
;  ai    aj    ak    al  funct   phi0(deg)        k(kJ/mol)   mult
    1     2     3     4     1   -147.08272        8.534      1
    1     2     3     4     1   -114.16697        8.383      2
    1     2     3     4     1    -81.25438        8.135      3
    1     4     3     2     1    151.19305        7.065      1
    1     4     3     2     1    122.37634        6.970      2
    1     4     3     2     1     93.53968        6.813      3
    2     1     4     3     1   -154.95508        7.065      1
    2     1     4     3     1   -129.90976        6.981      2
    2     1     4     3     1   -104.86364        6.843      3
    3     2     1     4     1    149.96146        7.818      1
    3     2     1     4     1    119.92263        7.704      2
    3     2     1     4     1     89.88323        7.515      3
