[ moleculetype ]
; name        nrexcl
res           1

[ atoms ]
;    nr  type resnr resid  atom  cgnr     charge       mass
      1 C4        1 res   C1        1      0.000     72.000
      2 SN4a      1 res   C2        2      0.000     54.000
      3 SC4       1 res   C3        3      0.000     54.000
      4 TP1       1 res   C4        4      0.000     36.000
      5 SC4       1 res   C5        5      0.000     54.000
      6 TN6a      1 res   C6        6      0.000     36.000
      7 TN4a      1 res   C7        7      0.000     36.000
      8 TC3       1 res   C8        8      0.000     36.000
      9 TC5       1 res   C9        9      0.000     36.000
     10 SN6       1 res   C10      10      0.000     54.000

[ bonds ]
;  ai    aj   funct      b0(nm)        k
    1     2     1      0.38455    20000
    1     5     1      0.44157    20000
    1     8     1      0.25766    20000
    2     3     1      0.28262    20000
    3     4     1      0.37053    20000
    5     6     1      0.25168    20000
    5     7     1      0.29872    20000
    6     7     1      0.25727    20000
    7     8     1      0.24618    20000
    8     9     1      0.23542    20000
    8    10     1      0.28870    20000
    9    10     1      0.29931    20000
