[ moleculetype ]
; name        nrexcl
res           1

[ atoms ]
;    nr  type resnr resid  atom  cgnr     charge       mass
      1 SC4       1 res   C1        1      0.000     54.000
      2 TC3       1 res   C2        2      0.000     36.000
      3 SC3       1 res   C3        3      0.000     54.000
      4 SP2       1 res   C4        4      0.000     54.000
      5 TC3       1 res   C5        5      0.000     36.000
      6 TC5       1 res   C6        6      0.000     36.000
      7 N4a       1 res   C7        7      0.000     72.000
      8 TC5       1 res   C8        8      0.000     36.000
      9 SN6       1 res   C9        9      0.000     54.000
     10 SN6       1 res   C10      10      0.000     54.000
     11 TC3       1 res   C11      11      0.000     36.000
     12 SC4       1 res   C12      12      0.000     54.000
     13 SC4       1 res   C13      13      0.000     54.000
     14 SC3       1 res   C14      14      0.000     54.000
     15 TN4a      1 res   C15      15      0.000     36.000
     16 TC3       1 res   C16      16      0.000     36.000

[ bonds ]
;  ai    aj   funct      b0(nm)        k
    1     2     1      0.29485    20000
    2     3     1      0.19006    20000
    3     4     1      0.28395    20000
    3     5     1      0.25950    20000
    3     6     1      0.25679    20000
    5     6     1      0.26634    20000
    6     7     1      0.34568    20000
    6    11     1      0.24310    20000
    6    12     1      0.24645    20000
    7     8     1      0.35632    20000
    8     9     1      0.30179    20000
    8    10     1      0.34346    20000
    9    10     1      0.30769    20000
   11    12     1      0.30241    20000
   12    13     1      0.29269    20000
   12    16     1      0.25453    20000
   13    14     1      0.33528    20000
   13    16     1      0.35584    20000
   14    15     1      0.40645    20000
