[ moleculetype ]
; name        nrexcl
res           1

[ atoms ]
;    nr  type  resnr resid  atom  cgnr     charge       mass
      1 TC5       1 res   C1        1      0.000     36.000
      2 SN6       1 res   C2        2      0.000     54.000
      3 SN4a      1 res   C3        3      0.000     54.000
      4 TP1       1 res   C4        4      0.000     36.000
      5 SP4       1 res   C5        5      0.000     54.000
      6 TN6       1 res   C6        6      0.000     36.000
      7 TN4a      1 res   C7        7      0.000     36.000
      8 TC5       1 res   C8        8      0.000     36.000
      9 TN6a      1 res   C9        9      0.000     36.000
     10 SN6d      1 res   C10      10      0.000     54.000
     11 TC3       1 res   C11      11      0.000     36.000
     12 TC5       1 res   C12      12      0.000     36.000
     13 TN6d      1 res   C13      13      0.000     36.000
     14 TC5       1 res   C14      14      0.000     36.000
     15 TC5       1 res   C15      15      0.000     36.000
     16 TC5       1 res   C16      16      0.000     36.000

[ constraints ]
;  ai    aj   funct      b0(nm)
   13    14     1      0.21831
    9    10     1      0.32499
   10    12     1      0.25051
    2     7     1      0.27944
    3     6     1      0.27831
   14    15     1      0.25076
   15    16     1      0.29150
   10    11     1      0.36411
    3     5     1      0.26903
    2     3     1      0.27455
   11    12     1      0.24643
   12    14     1      0.18339
    8    10     1      0.21916
    7     8     1      0.26203
    3     4     1      0.21555
   12    13     1      0.21892
    2     8     1      0.26470
   14    16     1      0.25011
    8     9     1      0.26909

[ bonds ]
;  ai    aj   funct      b0(nm)          k(kJ/mol/nm^2)
    5     6     1      0.31216          18550.4
    1     2     1      0.29710          15158.3

[ angles ]
;  ai    aj    ak  funct     th0(deg)        k(kJ/mol/rad^2)
    1     2     3     1    112.92615           292.93
    1     2     7     1    101.68454           348.46
    1     2     8     1     77.02414           222.93
    2     3     4     1    110.33846           210.89
    2     3     5     1    146.22944           418.57
    2     3     6     1     81.36802           911.46
    2     7     8     1     58.42190          5184.12
    2     8     7     1     64.07709          4291.45
    2     8     9     1    120.64468           496.57
    2     8    10     1    103.84403           882.45
    3     2     7     1    139.78551           296.83
    3     2     8     1    111.96577           227.10
    3     5     6     1     56.63094          1638.30
    3     6     5     1     53.86084          1535.75
    4     3     5     1     87.58493          1012.99
    4     3     6     1    144.62501           264.84
    5     3     6     1     69.50804          1222.99
    7     2     8     1     57.50095          4460.78
    7     8     9     1     66.60611          2364.17
    7     8    10     1    128.18410           545.22
    8     9    10     1     41.97053          3742.15
    8    10     9     1     55.24323          2107.40
    8    10    11     1    105.67402           891.35
    8    10    12     1    135.28011            60.32
    9     8    10     1     82.78602          1770.90
    9    10    11     1     51.25140          2307.15
    9    10    12     1     83.98521           155.17
   10    11    12     1     43.31506          3998.25
   10    12    11     1     94.25191          1879.38
   10    12    13     1     71.29854          1573.91
   10    12    14     1    134.68921           906.03
   11    10    12     1     42.43315          6814.11
   11    12    13     1    163.16374           946.32
   11    12    14     1    129.70773          1791.82
   12    13    14     1     49.59945          6026.71
   12    14    13     1     65.37210          5028.76
   12    14    15     1    160.86926          1518.98
   12    14    16     1    126.86696          1380.00
   13    12    14     1     65.02845          4910.54
   13    14    15     1     96.09621          1658.44
   13    14    16     1    165.90060           838.94
   14    15    16     1     54.30627         11388.92
   14    16    15     1     54.51308          9471.00
   15    14    16     1     71.18061          8829.63

[ dihedrals ]
;  ai    aj    ak    al  funct   phi0(deg)        k(kJ/mol)   mult
    1     2     3     4     1   -141.02596       23.571      1
    1     2     3     5     1    -21.61005       29.131      1
    1     2     3     6     1      2.07921       23.004      1
    1     2     7     8     1   -116.85080       12.933      1
    1     2     8     7     1     64.12721       12.211      1
    1     2     8     9     1     29.23781       14.311      1
    1     2     8    10     1    -61.66430       12.911      1
    2     3     5     6     1   -152.22343       22.764      1
    2     3     6     5     1     15.95944       15.017      1
    2     7     8     9     1    -33.95824       10.788      1
    2     7     8    10     1    -91.11712        8.491      1
    2     8     9    10     1     76.70687        8.472      1
    2     8    10     9     1    -60.01652        7.863      1
    2     8    10    11     1    -52.15279       10.797      1
    2     8    10    12     1    -79.80475       17.715      1
    3     2     7     8     1     87.64027       14.734      1
    3     2     8     7     1    -42.45586        9.968      1
    3     2     8     9     1    -78.81188       12.925      1
    3     2     8    10     1   -169.24642       12.858      1
    4     3     2     7     1      8.83453       24.191      1
    4     3     2     8     1    -61.85619       22.993      1
    4     3     5     6     1    -26.15394       12.216      1
    4     3     6     5     1    129.16657       15.686      1
    5     3     2     7     1    126.38217       32.626      1
    5     3     2     8     1     61.76633       26.756      1
    6     3     2     7     1    151.74150       25.807      1
    6     3     2     8     1     82.32043       20.260      1
    7     2     8     9     1    144.93843       10.008      1
    7     2     8    10     1     53.83486        7.806      1
    7     8     9    10     1     42.97773       10.046      1
    7     8    10     9     1   -128.91416       10.009      1
    7     8    10    11     1   -119.75193       12.194      1
    7     8    10    12     1   -150.11503       17.742      1
    8     9    10    11     1      9.03250       11.531      1
    8     9    10    12     1    -21.06801       18.442      1
    8    10    11    12     1     38.11222       23.387      1
    8    10    12    11     1   -128.03052       22.596      1
    8    10    12    13     1     49.94127       26.682      1
    8    10    12    14     1     61.80961       25.591      1
    9     8    10    11     1   -172.03569        9.338      1
    9     8    10    12     1    157.47903       18.333      1
    9    10    11    12     1     46.12422       21.497      1
    9    10    12    11     1   -146.50903       16.369      1
    9    10    12    13     1     33.77709       23.181      1
    9    10    12    14     1     42.03783       20.370      1
   10    11    12    13     1    171.11818       28.851      1
   10    11    12    14     1     -9.03528       12.977      1
   10    12    13    14     1     -9.03732       11.547      1
   10    12    14    13     1    169.12962       14.402      1
   10    12    14    15     1    169.66211       23.250      1
   10    12    14    16     1    -16.94355       15.769      1
   11    10    12    13     1     -0.39400       15.032      1
   11    10    12    14     1      9.98256       13.676      1
   11    12    13    14     1     -2.70818       29.541      1
   11    12    14    13     1      0.87643       17.049      1
   11    12    14    15     1      2.33007       23.933      1
   11    12    14    16     1    176.85823       19.677      1
   12    13    14    15     1      0.05532        9.319      1
   12    13    14    16     1      7.79874       27.513      1
   12    14    15    16     1     -3.29682       22.674      1
   12    14    16    15     1      1.14200       12.941      1
   13    12    14    15     1    179.78720       22.798      1
   13    12    14    16     1     -3.25055       14.313      1
   13    14    15    16     1     -1.40596       11.473      1
   13    14    16    15     1    174.90628       28.207      1
