Generated with MDTraj, t= 0.0
 50
    1UNL     C1    1  -0.393  -0.068   0.210
    1UNL     C2    2  -0.309   0.038   0.140
    1UNL     O1    3  -0.393   0.149   0.100
    1UNL     C3    4  -0.331   0.243   0.021
    1UNL     C4    5  -0.214   0.228  -0.045
    1UNL     C5    6  -0.147   0.340  -0.110
    1UNL     O2    7  -0.033   0.328  -0.152
    1UNL     O3    8  -0.216   0.457  -0.121
    1UNL     C6    9  -0.145   0.095  -0.043
    1UNL     C7   10  -0.094   0.046  -0.180
    1UNL     C8   11   0.004  -0.069  -0.156
    1UNL     C9   12   0.126  -0.022  -0.085
    1UNL     N1   13   0.170   0.108  -0.073
    1UNL    C10   14   0.276   0.110   0.016
    1UNL    C11   15   0.354   0.215   0.066
    1UNL    C12   16   0.452   0.186   0.157
    1UNL    C13   17   0.474   0.054   0.201
    1UNL    C14   18   0.398  -0.050   0.155
    1UNL    C15   19   0.298  -0.023   0.060
    1UNL    C16   20   0.200  -0.104  -0.003
    1UNL    C17   21   0.164  -0.247   0.021
    1UNL    C18   22   0.035  -0.291  -0.052
    1UNL    C19   23   0.070  -0.361  -0.182
    1UNL     O4   24   0.158  -0.443  -0.183
    1UNL     O5   25  -0.001  -0.328  -0.293
    1UNL     N2   26  -0.060  -0.178  -0.076
    1UNL    C20   27  -0.136  -0.137   0.048
    1UNL    C21   28  -0.229  -0.017   0.020
    1UNL     H1   29  -0.332  -0.148   0.250
    1UNL     H2   30  -0.450  -0.024   0.292
    1UNL     H3   31  -0.464  -0.111   0.140
    1UNL     H4   32  -0.237   0.081   0.212
    1UNL     H5   33  -0.381   0.338   0.016
    1UNL     H6   34  -0.157   0.520  -0.166
    1UNL     H7   35  -0.057   0.108   0.022
    1UNL     H8   36  -0.047   0.128  -0.236
    1UNL     H9   37  -0.179   0.013  -0.241
    1UNL    H10   38   0.034  -0.114  -0.252
    1UNL    H11   39   0.115   0.191  -0.102
    1UNL    H12   40   0.337   0.315   0.032
    1UNL    H13   41   0.513   0.265   0.196
    1UNL    H14   42   0.552   0.035   0.273
    1UNL    H15   43   0.414  -0.151   0.189
    1UNL    H16   44   0.155  -0.264   0.129
    1UNL    H17   45   0.247  -0.311  -0.013
    1UNL    H18   46  -0.018  -0.365   0.009
    1UNL    H19   47   0.034  -0.383  -0.366
    1UNL    H20   48  -0.192  -0.223   0.084
    1UNL    H21   49  -0.064  -0.111   0.126
    1UNL    H22   50  -0.303  -0.049  -0.055
   0.00000   0.00000   0.00000   0.00000   0.00000   0.00000   0.00000   0.00000   0.00000
Generated with MDTraj, t= 1.0
 50
    1UNL     C1    1  -0.418  -0.063   0.208
    1UNL     C2    2  -0.310   0.029   0.146
    1UNL     O1    3  -0.383   0.149   0.117
    1UNL     C3    4  -0.321   0.241   0.031
    1UNL     C4    5  -0.210   0.228  -0.044
    1UNL     C5    6  -0.148   0.338  -0.114
    1UNL     O2    7  -0.031   0.326  -0.150
    1UNL     O3    8  -0.224   0.454  -0.140
    1UNL     C6    9  -0.142   0.099  -0.045
    1UNL     C7   10  -0.097   0.049  -0.179
    1UNL     C8   11   0.004  -0.063  -0.159
    1UNL     C9   12   0.130  -0.015  -0.085
    1UNL     N1   13   0.178   0.115  -0.080
    1UNL    C10   14   0.280   0.112   0.014
    1UNL    C11   15   0.355   0.219   0.070
    1UNL    C12   16   0.451   0.194   0.169
    1UNL    C13   17   0.465   0.058   0.213
    1UNL    C14   18   0.386  -0.049   0.164
    1UNL    C15   19   0.298  -0.021   0.055
    1UNL    C16   20   0.202  -0.103  -0.007
    1UNL    C17   21   0.173  -0.250   0.016
    1UNL    C18   22   0.045  -0.292  -0.049
    1UNL    C19   23   0.063  -0.371  -0.185
    1UNL     O4   24   0.154  -0.459  -0.196
    1UNL     O5   25  -0.018  -0.341  -0.295
    1UNL     N2   26  -0.049  -0.172  -0.077
    1UNL    C20   27  -0.122  -0.129   0.046
    1UNL    C21   28  -0.225  -0.018   0.020
    1UNL     H1   29  -0.452  -0.121   0.123
    1UNL     H2   30  -0.372  -0.135   0.282
    1UNL     H3   31  -0.485  -0.006   0.256
    1UNL     H4   32  -0.239   0.065   0.222
    1UNL     H5   33  -0.381   0.334   0.038
    1UNL     H6   34  -0.170   0.525  -0.169
    1UNL     H7   35  -0.054   0.103   0.019
    1UNL     H8   36  -0.038   0.126  -0.229
    1UNL     H9   37  -0.180   0.022  -0.245
    1UNL    H10   38   0.054  -0.095  -0.254
    1UNL    H11   39   0.111   0.192  -0.108
    1UNL    H12   40   0.334   0.316   0.030
    1UNL    H13   41   0.519   0.269   0.202
    1UNL    H14   42   0.525   0.050   0.304
    1UNL    H15   43   0.393  -0.150   0.206
    1UNL    H16   44   0.171  -0.250   0.128
    1UNL    H17   45   0.260  -0.305  -0.014
    1UNL    H18   46   0.001  -0.368   0.021
    1UNL    H19   47   0.017  -0.384  -0.372
    1UNL    H20   48  -0.180  -0.212   0.081
    1UNL    H21   49  -0.048  -0.110   0.125
    1UNL    H22   50  -0.294  -0.060  -0.049
   0.00000   0.00000   0.00000   0.00000   0.00000   0.00000   0.00000   0.00000   0.00000
Generated with MDTraj, t= 2.0
 50
    1UNL     C1    1  -0.396  -0.074   0.199
    1UNL     C2    2  -0.300   0.026   0.140
    1UNL     O1    3  -0.377   0.145   0.112
    1UNL     C3    4  -0.321   0.244   0.035
    1UNL     C4    5  -0.209   0.235  -0.042
    1UNL     C5    6  -0.148   0.349  -0.113
    1UNL     O2    7  -0.037   0.342  -0.166
    1UNL     O3    8  -0.221   0.463  -0.137
    1UNL     C6    9  -0.136   0.102  -0.047
    1UNL     C7   10  -0.083   0.048  -0.183
    1UNL     C8   11   0.007  -0.066  -0.161
    1UNL     C9   12   0.133  -0.021  -0.087
    1UNL     N1   13   0.163   0.107  -0.063
    1UNL    C10   14   0.269   0.109   0.016
    1UNL    C11   15   0.327   0.216   0.079
    1UNL    C12   16   0.430   0.193   0.168
    1UNL    C13   17   0.467   0.053   0.203
    1UNL    C14   18   0.397  -0.053   0.150
    1UNL    C15   19   0.297  -0.023   0.060
    1UNL    C16   20   0.206  -0.104  -0.005
    1UNL    C17   21   0.169  -0.249   0.018
    1UNL    C18   22   0.041  -0.291  -0.052
    1UNL    C19   23   0.064  -0.370  -0.180
    1UNL     O4   24   0.155  -0.458  -0.191
    1UNL     O5   25  -0.022  -0.339  -0.276
    1UNL     N2   26  -0.053  -0.171  -0.081
    1UNL    C20   27  -0.118  -0.131   0.051
    1UNL    C21   28  -0.222  -0.020   0.018
    1UNL     H1   29  -0.491  -0.029   0.190
    1UNL     H2   30  -0.408  -0.166   0.137
    1UNL     H3   31  -0.361  -0.097   0.295
    1UNL     H4   32  -0.224   0.055   0.215
    1UNL     H5   33  -0.362   0.345   0.037
    1UNL     H6   34  -0.173   0.522  -0.187
    1UNL     H7   35  -0.045   0.116   0.007
    1UNL     H8   36  -0.025   0.121  -0.240
    1UNL     H9   37  -0.158   0.012  -0.255
    1UNL    H10   38   0.040  -0.120  -0.256
    1UNL    H11   39   0.120   0.195  -0.089
    1UNL    H12   40   0.311   0.319   0.045
    1UNL    H13   41   0.473   0.285   0.216
    1UNL    H14   42   0.550   0.023   0.265
    1UNL    H15   43   0.401  -0.150   0.190
    1UNL    H16   44   0.164  -0.260   0.130
    1UNL    H17   45   0.255  -0.301  -0.015
    1UNL    H18   46  -0.004  -0.368   0.017
    1UNL    H19   47  -0.007  -0.382  -0.360
    1UNL    H20   48  -0.162  -0.220   0.083
    1UNL    H21   49  -0.053  -0.100   0.137
    1UNL    H22   50  -0.293  -0.050  -0.051
   0.00000   0.00000   0.00000   0.00000   0.00000   0.00000   0.00000   0.00000   0.00000
Generated with MDTraj, t= 3.0
 50
    1UNL     C1    1  -0.395  -0.056   0.232
    1UNL     C2    2  -0.309   0.041   0.142
    1UNL     O1    3  -0.387   0.152   0.098
    1UNL     C3    4  -0.336   0.243   0.012
    1UNL     C4    5  -0.219   0.226  -0.057
    1UNL     C5    6  -0.147   0.338  -0.113
    1UNL     O2    7  -0.034   0.322  -0.159
    1UNL     O3    8  -0.204   0.462  -0.117
    1UNL     C6    9  -0.144   0.093  -0.049
    1UNL     C7   10  -0.091   0.049  -0.180
    1UNL     C8   11   0.004  -0.060  -0.159
    1UNL     C9   12   0.125  -0.012  -0.077
    1UNL     N1   13   0.164   0.114  -0.066
    1UNL    C10   14   0.270   0.112   0.017
    1UNL    C11   15   0.342   0.217   0.074
    1UNL    C12   16   0.438   0.190   0.179
    1UNL    C13   17   0.466   0.051   0.213
    1UNL    C14   18   0.397  -0.051   0.150
    1UNL    C15   19   0.297  -0.020   0.058
    1UNL    C16   20   0.203  -0.102  -0.010
    1UNL    C17   21   0.182  -0.248  -0.001
    1UNL    C18   22   0.050  -0.291  -0.058
    1UNL    C19   23   0.062  -0.369  -0.181
    1UNL     O4   24   0.159  -0.448  -0.183
    1UNL     O5   25  -0.012  -0.353  -0.291
    1UNL     N2   26  -0.052  -0.176  -0.082
    1UNL    C20   27  -0.126  -0.137   0.051
    1UNL    C21   28  -0.229  -0.021   0.019
    1UNL     H1   29  -0.387  -0.044   0.336
    1UNL     H2   30  -0.497  -0.042   0.223
    1UNL     H3   31  -0.368  -0.162   0.209
    1UNL     H4   32  -0.224   0.073   0.205
    1UNL     H5   33  -0.377   0.340  -0.001
    1UNL     H6   34  -0.140   0.509  -0.161
    1UNL     H7   35  -0.058   0.107   0.011
    1UNL     H8   36  -0.041   0.124  -0.243
    1UNL     H9   37  -0.177   0.017  -0.242
    1UNL    H10   38   0.038  -0.097  -0.263
    1UNL    H11   39   0.101   0.191  -0.100
    1UNL    H12   40   0.323   0.311   0.031
    1UNL    H13   41   0.505   0.263   0.206
    1UNL    H14   42   0.525   0.033   0.302
    1UNL    H15   43   0.406  -0.160   0.166
    1UNL    H16   44   0.196  -0.280   0.106
    1UNL    H17   45   0.256  -0.295  -0.062
    1UNL    H18   46   0.010  -0.362   0.022
    1UNL    H19   47   0.032  -0.407  -0.362
    1UNL    H20   48  -0.171  -0.220   0.092
    1UNL    H21   49  -0.050  -0.110   0.128
    1UNL    H22   50  -0.303  -0.057  -0.040
   0.00000   0.00000   0.00000   0.00000   0.00000   0.00000   0.00000   0.00000   0.00000
Generated with MDTraj, t= 4.0
 50
    1UNL     C1    1  -0.376  -0.067   0.220
    1UNL     C2    2  -0.294   0.034   0.137
    1UNL     O1    3  -0.386   0.144   0.097
    1UNL     C3    4  -0.329   0.236   0.010
    1UNL     C4    5  -0.215   0.222  -0.061
    1UNL     C5    6  -0.147   0.339  -0.115
    1UNL     O2    7  -0.028   0.338  -0.150
    1UNL     O3    8  -0.216   0.454  -0.106
    1UNL     C6    9  -0.141   0.093  -0.052
    1UNL     C7   10  -0.081   0.048  -0.180
    1UNL     C8   11   0.008  -0.073  -0.160
    1UNL     C9   12   0.130  -0.026  -0.082
    1UNL     N1   13   0.173   0.110  -0.078
    1UNL    C10   14   0.274   0.111   0.016
    1UNL    C11   15   0.346   0.220   0.067
    1UNL    C12   16   0.440   0.199   0.166
    1UNL    C13   17   0.468   0.061   0.207
    1UNL    C14   18   0.402  -0.050   0.151
    1UNL    C15   19   0.290  -0.022   0.070
    1UNL    C16   20   0.195  -0.108   0.009
    1UNL    C17   21   0.165  -0.250   0.019
    1UNL    C18   22   0.039  -0.298  -0.048
    1UNL    C19   23   0.061  -0.359  -0.181
    1UNL     O4   24   0.152  -0.440  -0.172
    1UNL     O5   25  -0.019  -0.332  -0.288
    1UNL     N2   26  -0.063  -0.176  -0.083
    1UNL    C20   27  -0.139  -0.138   0.033
    1UNL    C21   28  -0.231  -0.018   0.007
    1UNL     H1   29  -0.366  -0.052   0.324
    1UNL     H2   30  -0.474  -0.062   0.199
    1UNL     H3   31  -0.334  -0.169   0.200
    1UNL     H4   32  -0.217   0.089   0.199
    1UNL     H5   33  -0.386   0.328   0.015
    1UNL     H6   34  -0.164   0.525  -0.135
    1UNL     H7   35  -0.060   0.109   0.012
    1UNL     H8   36  -0.032   0.131  -0.233
    1UNL     H9   37  -0.167   0.023  -0.246
    1UNL    H10   38   0.043  -0.096  -0.266
    1UNL    H11   39   0.119   0.193  -0.107
    1UNL    H12   40   0.332   0.322   0.025
    1UNL    H13   41   0.508   0.276   0.214
    1UNL    H14   42   0.534   0.031   0.285
    1UNL    H15   43   0.413  -0.152   0.174
    1UNL    H16   44   0.152  -0.274   0.128
    1UNL    H17   45   0.246  -0.305  -0.025
    1UNL    H18   46  -0.001  -0.379   0.022
    1UNL    H19   47   0.019  -0.390  -0.364
    1UNL    H20   48  -0.182  -0.222   0.078
    1UNL    H21   49  -0.058  -0.105   0.101
    1UNL    H22   50  -0.308  -0.029  -0.059
   0.00000   0.00000   0.00000   0.00000   0.00000   0.00000   0.00000   0.00000   0.00000
Generated with MDTraj, t= 5.0
 50
    1UNL     C1    1  -0.405  -0.075   0.203
    1UNL     C2    2  -0.317   0.036   0.140
    1UNL     O1    3  -0.397   0.156   0.105
    1UNL     C3    4  -0.325   0.250   0.031
    1UNL     C4    5  -0.208   0.235  -0.037
    1UNL     C5    6  -0.147   0.344  -0.111
    1UNL     O2    7  -0.033   0.331  -0.155
    1UNL     O3    8  -0.212   0.462  -0.123
    1UNL     C6    9  -0.143   0.100  -0.044
    1UNL     C7   10  -0.096   0.049  -0.181
    1UNL     C8   11   0.000  -0.067  -0.158
    1UNL     C9   12   0.125  -0.020  -0.083
    1UNL     N1   13   0.172   0.115  -0.083
    1UNL    C10   14   0.276   0.111   0.006
    1UNL    C11   15   0.353   0.213   0.058
    1UNL    C12   16   0.448   0.181   0.153
    1UNL    C13   17   0.469   0.049   0.205
    1UNL    C14   18   0.389  -0.049   0.156
    1UNL    C15   19   0.281  -0.018   0.069
    1UNL    C16   20   0.191  -0.107  -0.000
    1UNL    C17   21   0.166  -0.248   0.012
    1UNL    C18   22   0.037  -0.298  -0.053
    1UNL    C19   23   0.078  -0.371  -0.180
    1UNL     O4   24   0.169  -0.448  -0.179
    1UNL     O5   25   0.020  -0.342  -0.298
    1UNL     N2   26  -0.069  -0.179  -0.071
    1UNL    C20   27  -0.124  -0.133   0.057
    1UNL    C21   28  -0.224  -0.013   0.028
    1UNL     H1   29  -0.504  -0.040   0.215
    1UNL     H2   30  -0.413  -0.160   0.135
    1UNL     H3   31  -0.368  -0.102   0.300
    1UNL     H4   32  -0.243   0.071   0.221
    1UNL     H5   33  -0.387   0.343   0.033
    1UNL     H6   34  -0.162   0.527  -0.178
    1UNL     H7   35  -0.056   0.115   0.011
    1UNL     H8   36  -0.046   0.137  -0.222
    1UNL     H9   37  -0.183   0.022  -0.246
    1UNL    H10   38   0.000  -0.125  -0.255
    1UNL    H11   39   0.108   0.191  -0.114
    1UNL    H12   40   0.356   0.311   0.020
    1UNL    H13   41   0.502   0.258   0.193
    1UNL    H14   42   0.538   0.013   0.282
    1UNL    H15   43   0.386  -0.150   0.196
    1UNL    H16   44   0.170  -0.285   0.115
    1UNL    H17   45   0.243  -0.298  -0.046
    1UNL    H18   46   0.005  -0.383   0.013
    1UNL    H19   47   0.062  -0.404  -0.364
    1UNL    H20   48  -0.170  -0.219   0.101
    1UNL    H21   49  -0.043  -0.103   0.123
    1UNL    H22   50  -0.287  -0.056  -0.043
   0.00000   0.00000   0.00000   0.00000   0.00000   0.00000   0.00000   0.00000   0.00000
Generated with MDTraj, t= 6.0
 50
    1UNL     C1    1  -0.400  -0.076   0.201
    1UNL     C2    2  -0.317   0.031   0.129
    1UNL     O1    3  -0.390   0.152   0.109
    1UNL     C3    4  -0.326   0.244   0.034
    1UNL     C4    5  -0.213   0.229  -0.044
    1UNL     C5    6  -0.149   0.341  -0.111
    1UNL     O2    7  -0.034   0.326  -0.149
    1UNL     O3    8  -0.219   0.456  -0.121
    1UNL     C6    9  -0.149   0.091  -0.048
    1UNL     C7   10  -0.091   0.043  -0.186
    1UNL     C8   11   0.002  -0.066  -0.150
    1UNL     C9   12   0.133  -0.025  -0.086
    1UNL     N1   13   0.177   0.115  -0.084
    1UNL    C10   14   0.286   0.109   0.003
    1UNL    C11   15   0.355   0.218   0.067
    1UNL    C12   16   0.454   0.187   0.159
    1UNL    C13   17   0.484   0.058   0.195
    1UNL    C14   18   0.407  -0.045   0.152
    1UNL    C15   19   0.304  -0.026   0.055
    1UNL    C16   20   0.199  -0.112  -0.003
    1UNL    C17   21   0.150  -0.243   0.045
    1UNL    C18   22   0.032  -0.297  -0.045
    1UNL    C19   23   0.073  -0.367  -0.178
    1UNL     O4   24   0.154  -0.451  -0.180
    1UNL     O5   25   0.021  -0.310  -0.285
    1UNL     N2   26  -0.065  -0.177  -0.070
    1UNL    C20   27  -0.152  -0.136   0.040
    1UNL    C21   28  -0.243  -0.015   0.005
    1UNL     H1   29  -0.404  -0.070   0.308
    1UNL     H2   30  -0.506  -0.055   0.165
    1UNL     H3   31  -0.370  -0.171   0.186
    1UNL     H4   32  -0.231   0.061   0.201
    1UNL     H5   33  -0.376   0.341   0.027
    1UNL     H6   34  -0.152   0.520  -0.164
    1UNL     H7   35  -0.068   0.093   0.016
    1UNL     H8   36  -0.028   0.119  -0.235
    1UNL     H9   37  -0.179   0.017  -0.250
    1UNL    H10   38   0.029  -0.110  -0.246
    1UNL    H11   39   0.129   0.204  -0.107
    1UNL    H12   40   0.334   0.320   0.033
    1UNL    H13   41   0.535   0.257   0.195
    1UNL    H14   42   0.540   0.044   0.285
    1UNL    H15   43   0.417  -0.149   0.178
    1UNL    H16   44   0.121  -0.246   0.151
    1UNL    H17   45   0.233  -0.311   0.021
    1UNL    H18   46  -0.018  -0.382   0.005
    1UNL    H19   47   0.040  -0.374  -0.355
    1UNL    H20   48  -0.217  -0.223   0.057
    1UNL    H21   49  -0.093  -0.114   0.127
    1UNL    H22   50  -0.310  -0.047  -0.069
   0.00000   0.00000   0.00000   0.00000   0.00000   0.00000   0.00000   0.00000   0.00000
Generated with MDTraj, t= 7.0
 50
    1UNL     C1    1  -0.406  -0.070   0.193
    1UNL     C2    2  -0.317   0.040   0.138
    1UNL     O1    3  -0.394   0.153   0.097
    1UNL     C3    4  -0.337   0.247   0.021
    1UNL     C4    5  -0.217   0.232  -0.039
    1UNL     C5    6  -0.146   0.340  -0.106
    1UNL     O2    7  -0.033   0.326  -0.150
    1UNL     O3    8  -0.217   0.452  -0.113
    1UNL     C6    9  -0.148   0.098  -0.038
    1UNL     C7   10  -0.097   0.047  -0.175
    1UNL     C8   11  -0.001  -0.063  -0.150
    1UNL     C9   12   0.123  -0.013  -0.075
    1UNL     N1   13   0.162   0.122  -0.057
    1UNL    C10   14   0.279   0.120   0.025
    1UNL    C11   15   0.369   0.222   0.067
    1UNL    C12   16   0.476   0.181   0.133
    1UNL    C13   17   0.481   0.052   0.185
    1UNL    C14   18   0.393  -0.044   0.154
    1UNL    C15   19   0.291  -0.018   0.068
    1UNL    C16   20   0.199  -0.101  -0.001
    1UNL    C17   21   0.164  -0.242   0.019
    1UNL    C18   22   0.039  -0.302  -0.051
    1UNL    C19   23   0.080  -0.375  -0.184
    1UNL     O4   24   0.143  -0.473  -0.173
    1UNL     O5   25   0.033  -0.335  -0.308
    1UNL     N2   26  -0.065  -0.182  -0.075
    1UNL    C20   27  -0.140  -0.136   0.044
    1UNL    C21   28  -0.238  -0.015   0.018
    1UNL     H1   29  -0.500  -0.036   0.230
    1UNL     H2   30  -0.434  -0.129   0.103
    1UNL     H3   31  -0.359  -0.124   0.273
    1UNL     H4   32  -0.249   0.096   0.217
    1UNL     H5   33  -0.381   0.342   0.015
    1UNL     H6   34  -0.157   0.521  -0.162
    1UNL     H7   35  -0.064   0.112   0.022
    1UNL     H8   36  -0.046   0.133  -0.225
    1UNL     H9   37  -0.174   0.013  -0.249
    1UNL    H10   38   0.028  -0.096  -0.248
    1UNL    H11   39   0.095   0.196  -0.078
    1UNL    H12   40   0.367   0.316   0.014
    1UNL    H13   41   0.556   0.249   0.145
    1UNL    H14   42   0.562   0.021   0.251
    1UNL    H15   43   0.399  -0.136   0.209
    1UNL    H16   44   0.158  -0.251   0.127
    1UNL    H17   45   0.254  -0.294  -0.020
    1UNL    H18   46  -0.003  -0.385   0.008
    1UNL    H19   47   0.085  -0.393  -0.362
    1UNL    H20   48  -0.203  -0.221   0.083
    1UNL    H21   49  -0.067  -0.107   0.115
    1UNL    H22   50  -0.310  -0.035  -0.059
   0.00000   0.00000   0.00000   0.00000   0.00000   0.00000   0.00000   0.00000   0.00000
Generated with MDTraj, t= 8.0
 50
    1UNL     C1    1  -0.387  -0.087   0.191
    1UNL     C2    2  -0.320   0.037   0.123
    1UNL     O1    3  -0.406   0.151   0.091
    1UNL     C3    4  -0.344   0.240   0.004
    1UNL     C4    5  -0.224   0.226  -0.056
    1UNL     C5    6  -0.159   0.342  -0.103
    1UNL     O2    7  -0.042   0.335  -0.140
    1UNL     O3    8  -0.225   0.458  -0.103
    1UNL     C6    9  -0.145   0.101  -0.049
    1UNL     C7   10  -0.084   0.054  -0.179
    1UNL     C8   11   0.002  -0.062  -0.155
    1UNL     C9   12   0.132  -0.025  -0.085
    1UNL     N1   13   0.165   0.108  -0.066
    1UNL    C10   14   0.279   0.107   0.010
    1UNL    C11   15   0.363   0.212   0.069
    1UNL    C12   16   0.469   0.179   0.151
    1UNL    C13   17   0.491   0.051   0.191
    1UNL    C14   18   0.413  -0.048   0.143
    1UNL    C15   19   0.309  -0.021   0.051
    1UNL    C16   20   0.212  -0.108  -0.009
    1UNL    C17   21   0.162  -0.242   0.022
    1UNL    C18   22   0.036  -0.286  -0.040
    1UNL    C19   23   0.062  -0.369  -0.168
    1UNL     O4   24   0.120  -0.472  -0.157
    1UNL     O5   25   0.030  -0.304  -0.283
    1UNL     N2   26  -0.061  -0.174  -0.073
    1UNL    C20   27  -0.134  -0.134   0.051
    1UNL    C21   28  -0.229  -0.017   0.009
    1UNL     H1   29  -0.424  -0.063   0.289
    1UNL     H2   30  -0.475  -0.099   0.133
    1UNL     H3   31  -0.331  -0.188   0.201
    1UNL     H4   32  -0.250   0.088   0.204
    1UNL     H5   33  -0.398   0.335   0.010
    1UNL     H6   34  -0.156   0.533  -0.136
    1UNL     H7   35  -0.072   0.114   0.026
    1UNL     H8   36  -0.023   0.133  -0.231
    1UNL     H9   37  -0.171   0.026  -0.244
    1UNL    H10   38   0.022  -0.105  -0.251
    1UNL    H11   39   0.106   0.194  -0.087
    1UNL    H12   40   0.359   0.311   0.032
    1UNL    H13   41   0.542   0.256   0.179
    1UNL    H14   42   0.570   0.035   0.261
    1UNL    H15   43   0.425  -0.144   0.198
    1UNL    H16   44   0.139  -0.222   0.126
    1UNL    H17   45   0.248  -0.311   0.019
    1UNL    H18   46  -0.009  -0.354   0.032
    1UNL    H19   47   0.064  -0.357  -0.354
    1UNL    H20   48  -0.183  -0.231   0.090
    1UNL    H21   49  -0.072  -0.091   0.124
    1UNL    H22   50  -0.296  -0.065  -0.062
   0.00000   0.00000   0.00000   0.00000   0.00000   0.00000   0.00000   0.00000   0.00000
Generated with MDTraj, t= 9.0
 50
    1UNL     C1    1  -0.406  -0.069   0.204
    1UNL     C2    2  -0.333   0.041   0.128
    1UNL     O1    3  -0.419   0.137   0.069
    1UNL     C3    4  -0.352   0.244   0.008
    1UNL     C4    5  -0.223   0.232  -0.041
    1UNL     C5    6  -0.150   0.347  -0.100
    1UNL     O2    7  -0.034   0.338  -0.138
    1UNL     O3    8  -0.230   0.459  -0.108
    1UNL     C6    9  -0.153   0.098  -0.031
    1UNL     C7   10  -0.090   0.052  -0.164
    1UNL     C8   11   0.001  -0.061  -0.149
    1UNL     C9   12   0.138  -0.014  -0.089
    1UNL     N1   13   0.181   0.114  -0.069
    1UNL    C10   14   0.292   0.113   0.012
    1UNL    C11   15   0.371   0.215   0.063
    1UNL    C12   16   0.465   0.182   0.157
    1UNL    C13   17   0.489   0.051   0.190
    1UNL    C14   18   0.411  -0.054   0.142
    1UNL    C15   19   0.309  -0.022   0.056
    1UNL    C16   20   0.215  -0.097  -0.015
    1UNL    C17   21   0.182  -0.245   0.001
    1UNL    C18   22   0.049  -0.287  -0.047
    1UNL    C19   23   0.062  -0.373  -0.171
    1UNL     O4   24   0.107  -0.486  -0.156
    1UNL     O5   25   0.041  -0.324  -0.295
    1UNL     N2   26  -0.055  -0.179  -0.073
    1UNL    C20   27  -0.138  -0.130   0.050
    1UNL    C21   28  -0.240  -0.020   0.024
    1UNL     H1   29  -0.483  -0.013   0.261
    1UNL     H2   30  -0.457  -0.134   0.139
    1UNL     H3   31  -0.339  -0.125   0.278
    1UNL     H4   32  -0.265   0.105   0.203
    1UNL     H5   33  -0.410   0.338   0.002
    1UNL     H6   34  -0.181   0.543  -0.154
    1UNL     H7   35  -0.070   0.112   0.034
    1UNL     H8   36  -0.038   0.131  -0.227
    1UNL     H9   37  -0.176   0.017  -0.226
    1UNL    H10   38   0.011  -0.110  -0.244
    1UNL    H11   39   0.143   0.199  -0.107
    1UNL    H12   40   0.364   0.321   0.032
    1UNL    H13   41   0.541   0.252   0.191
    1UNL    H14   42   0.557   0.046   0.275
    1UNL    H15   43   0.423  -0.150   0.184
    1UNL    H16   44   0.202  -0.281   0.099
    1UNL    H17   45   0.260  -0.294  -0.061
    1UNL    H18   46   0.006  -0.348   0.031
    1UNL    H19   47   0.085  -0.389  -0.354
    1UNL    H20   48  -0.196  -0.215   0.100
    1UNL    H21   49  -0.065  -0.095   0.118
    1UNL    H22   50  -0.300  -0.053  -0.061
   0.00000   0.00000   0.00000   0.00000   0.00000   0.00000   0.00000   0.00000   0.00000
Generated with MDTraj, t= 10.0
 50
    1UNL     C1    1  -0.401  -0.095   0.184
    1UNL     C2    2  -0.317   0.024   0.123
    1UNL     O1    3  -0.397   0.137   0.092
    1UNL     C3    4  -0.336   0.232   0.018
    1UNL     C4    5  -0.218   0.229  -0.053
    1UNL     C5    6  -0.150   0.348  -0.105
    1UNL     O2    7  -0.029   0.348  -0.121
    1UNL     O3    8  -0.228   0.457  -0.124
    1UNL     C6    9  -0.151   0.093  -0.055
    1UNL     C7   10  -0.092   0.045  -0.190
    1UNL     C8   11   0.005  -0.062  -0.157
    1UNL     C9   12   0.122  -0.009  -0.068
    1UNL     N1   13   0.179   0.115  -0.068
    1UNL    C10   14   0.283   0.116   0.025
    1UNL    C11   15   0.361   0.220   0.079
    1UNL    C12   16   0.475   0.192   0.149
    1UNL    C13   17   0.500   0.060   0.182
    1UNL    C14   18   0.422  -0.039   0.132
    1UNL    C15   19   0.300  -0.015   0.069
    1UNL    C16   20   0.198  -0.097   0.010
    1UNL    C17   21   0.175  -0.249   0.018
    1UNL    C18   22   0.038  -0.292  -0.047
    1UNL    C19   23   0.046  -0.375  -0.171
    1UNL     O4   24   0.078  -0.495  -0.159
    1UNL     O5   25   0.032  -0.311  -0.287
    1UNL     N2   26  -0.053  -0.169  -0.077
    1UNL    C20   27  -0.125  -0.121   0.049
    1UNL    C21   28  -0.228  -0.019   0.013
    1UNL     H1   29  -0.479  -0.056   0.257
    1UNL     H2   30  -0.461  -0.147   0.107
    1UNL     H3   31  -0.342  -0.170   0.235
    1UNL     H4   32  -0.251   0.078   0.208
    1UNL     H5   33  -0.389   0.326   0.014
    1UNL     H6   34  -0.162   0.533  -0.161
    1UNL     H7   35  -0.064   0.107   0.010
    1UNL     H8   36  -0.055   0.129  -0.260
    1UNL     H9   37  -0.164  -0.011  -0.253
    1UNL    H10   38   0.050  -0.104  -0.244
    1UNL    H11   39   0.121   0.199  -0.092
    1UNL    H12   40   0.341   0.316   0.044
    1UNL    H13   41   0.525   0.283   0.176
    1UNL    H14   42   0.585   0.031   0.239
    1UNL    H15   43   0.450  -0.139   0.171
    1UNL    H16   44   0.184  -0.281   0.119
    1UNL    H17   45   0.250  -0.315  -0.033
    1UNL    H18   46  -0.011  -0.354   0.026
    1UNL    H19   47   0.050  -0.375  -0.363
    1UNL    H20   48  -0.170  -0.215   0.089
    1UNL    H21   49  -0.056  -0.085   0.127
    1UNL    H22   50  -0.297  -0.055  -0.064
   0.00000   0.00000   0.00000   0.00000   0.00000   0.00000   0.00000   0.00000   0.00000
Generated with MDTraj, t= 11.0
 50
    1UNL     C1    1  -0.425  -0.081   0.195
    1UNL     C2    2  -0.324   0.029   0.133
    1UNL     O1    3  -0.403   0.147   0.095
    1UNL     C3    4  -0.340   0.238   0.019
    1UNL     C4    5  -0.216   0.237  -0.032
    1UNL     C5    6  -0.154   0.343  -0.108
    1UNL     O2    7  -0.039   0.338  -0.154
    1UNL     O3    8  -0.224   0.456  -0.125
    1UNL     C6    9  -0.146   0.103  -0.030
    1UNL     C7   10  -0.093   0.055  -0.171
    1UNL     C8   11   0.009  -0.058  -0.154
    1UNL     C9   12   0.132  -0.012  -0.081
    1UNL     N1   13   0.172   0.120  -0.063
    1UNL    C10   14   0.288   0.111   0.012
    1UNL    C11   15   0.356   0.217   0.072
    1UNL    C12   16   0.458   0.191   0.162
    1UNL    C13   17   0.497   0.058   0.186
    1UNL    C14   18   0.425  -0.053   0.141
    1UNL    C15   19   0.311  -0.023   0.057
    1UNL    C16   20   0.212  -0.098  -0.004
    1UNL    C17   21   0.188  -0.245  -0.012
    1UNL    C18   22   0.043  -0.288  -0.046
    1UNL    C19   23   0.056  -0.379  -0.168
    1UNL     O4   24   0.080  -0.502  -0.160
    1UNL     O5   25   0.062  -0.319  -0.288
    1UNL     N2   26  -0.053  -0.166  -0.071
    1UNL    C20   27  -0.150  -0.138   0.044
    1UNL    C21   28  -0.231  -0.014   0.020
    1UNL     H1   29  -0.482  -0.055   0.290
    1UNL     H2   30  -0.506  -0.085   0.111
    1UNL     H3   31  -0.393  -0.180   0.205
    1UNL     H4   32  -0.263   0.077   0.223
    1UNL     H5   33  -0.404   0.318  -0.005
    1UNL     H6   34  -0.162   0.521  -0.183
    1UNL     H7   35  -0.069   0.106   0.051
    1UNL     H8   36  -0.040   0.142  -0.222
    1UNL     H9   37  -0.175   0.030  -0.242
    1UNL    H10   38   0.053  -0.097  -0.247
    1UNL    H11   39   0.119   0.205  -0.089
    1UNL    H12   40   0.321   0.317   0.037
    1UNL    H13   41   0.523   0.267   0.208
    1UNL    H14   42   0.576   0.045   0.262
    1UNL    H15   43   0.453  -0.153   0.155
    1UNL    H16   44   0.210  -0.303   0.076
    1UNL    H17   45   0.252  -0.291  -0.089
    1UNL    H18   46   0.002  -0.341   0.038
    1UNL    H19   47   0.085  -0.386  -0.362
    1UNL    H20   48  -0.209  -0.228   0.065
    1UNL    H21   49  -0.074  -0.131   0.129
    1UNL    H22   50  -0.303  -0.048  -0.056
   0.00000   0.00000   0.00000   0.00000   0.00000   0.00000   0.00000   0.00000   0.00000
Generated with MDTraj, t= 12.0
 50
    1UNL     C1    1  -0.408  -0.079   0.199
    1UNL     C2    2  -0.313   0.025   0.140
    1UNL     O1    3  -0.390   0.141   0.104
    1UNL     C3    4  -0.340   0.229   0.014
    1UNL     C4    5  -0.226   0.223  -0.055
    1UNL     C5    6  -0.153   0.339  -0.109
    1UNL     O2    7  -0.035   0.335  -0.145
    1UNL     O3    8  -0.219   0.458  -0.112
    1UNL     C6    9  -0.149   0.101  -0.049
    1UNL     C7   10  -0.095   0.053  -0.195
    1UNL     C8   11   0.013  -0.053  -0.162
    1UNL     C9   12   0.135  -0.010  -0.090
    1UNL     N1   13   0.166   0.120  -0.056
    1UNL    C10   14   0.280   0.116   0.022
    1UNL    C11   15   0.353   0.223   0.073
    1UNL    C12   16   0.458   0.190   0.156
    1UNL    C13   17   0.486   0.049   0.194
    1UNL    C14   18   0.410  -0.051   0.137
    1UNL    C15   19   0.304  -0.021   0.049
    1UNL    C16   20   0.209  -0.100  -0.020
    1UNL    C17   21   0.178  -0.243   0.012
    1UNL    C18   22   0.042  -0.287  -0.048
    1UNL    C19   23   0.057  -0.374  -0.166
    1UNL     O4   24   0.051  -0.496  -0.153
    1UNL     O5   25   0.077  -0.307  -0.282
    1UNL     N2   26  -0.053  -0.171  -0.076
    1UNL    C20   27  -0.126  -0.122   0.045
    1UNL    C21   28  -0.228  -0.023   0.021
    1UNL     H1   29  -0.489  -0.032   0.256
    1UNL     H2   30  -0.457  -0.121   0.102
    1UNL     H3   31  -0.367  -0.164   0.257
    1UNL     H4   32  -0.231   0.069   0.217
    1UNL     H5   33  -0.404   0.318   0.014
    1UNL     H6   34  -0.158   0.534  -0.143
    1UNL     H7   35  -0.057   0.128   0.011
    1UNL     H8   36  -0.057   0.133  -0.266
    1UNL     H9   37  -0.180   0.009  -0.252
    1UNL    H10   38   0.043  -0.119  -0.246
    1UNL    H11   39   0.108   0.197  -0.089
    1UNL    H12   40   0.341   0.322   0.040
    1UNL    H13   41   0.530   0.264   0.181
    1UNL    H14   42   0.555   0.029   0.272
    1UNL    H15   43   0.422  -0.159   0.156
    1UNL    H16   44   0.178  -0.267   0.117
    1UNL    H17   45   0.247  -0.316  -0.030
    1UNL    H18   46  -0.006  -0.351   0.026
    1UNL    H19   47   0.087  -0.368  -0.358
    1UNL    H20   48  -0.163  -0.212   0.092
    1UNL    H21   49  -0.045  -0.075   0.116
    1UNL    H22   50  -0.287  -0.060  -0.065
   0.00000   0.00000   0.00000   0.00000   0.00000   0.00000   0.00000   0.00000   0.00000
Generated with MDTraj, t= 13.0
 50
    1UNL     C1    1  -0.393  -0.063   0.221
    1UNL     C2    2  -0.314   0.039   0.138
    1UNL     O1    3  -0.397   0.143   0.086
    1UNL     C3    4  -0.331   0.235   0.016
    1UNL     C4    5  -0.211   0.228  -0.046
    1UNL     C5    6  -0.152   0.348  -0.102
    1UNL     O2    7  -0.038   0.344  -0.146
    1UNL     O3    8  -0.227   0.467  -0.107
    1UNL     C6    9  -0.138   0.098  -0.036
    1UNL     C7   10  -0.088   0.056  -0.178
    1UNL     C8   11   0.011  -0.065  -0.158
    1UNL     C9   12   0.132  -0.023  -0.087
    1UNL     N1   13   0.158   0.113  -0.065
    1UNL    C10   14   0.269   0.112   0.018
    1UNL    C11   15   0.348   0.218   0.059
    1UNL    C12   16   0.457   0.199   0.145
    1UNL    C13   17   0.476   0.069   0.206
    1UNL    C14   18   0.406  -0.036   0.152
    1UNL    C15   19   0.303  -0.017   0.055
    1UNL    C16   20   0.215  -0.109  -0.015
    1UNL    C17   21   0.172  -0.248   0.015
    1UNL    C18   22   0.041  -0.297  -0.056
    1UNL    C19   23   0.056  -0.381  -0.178
    1UNL     O4   24   0.033  -0.497  -0.178
    1UNL     O5   25   0.107  -0.321  -0.288
    1UNL     N2   26  -0.056  -0.184  -0.085
    1UNL    C20   27  -0.129  -0.142   0.041
    1UNL    C21   28  -0.223  -0.027   0.025
    1UNL     H1   29  -0.479  -0.017   0.271
    1UNL     H2   30  -0.438  -0.133   0.147
    1UNL     H3   31  -0.331  -0.129   0.299
    1UNL     H4   32  -0.241   0.102   0.211
    1UNL     H5   33  -0.382   0.334   0.025
    1UNL     H6   34  -0.168   0.536  -0.148
    1UNL     H7   35  -0.048   0.124   0.030
    1UNL     H8   36  -0.048   0.145  -0.233
    1UNL     H9   37  -0.178   0.021  -0.236
    1UNL    H10   38   0.055  -0.107  -0.254
    1UNL    H11   39   0.111   0.201  -0.096
    1UNL    H12   40   0.330   0.308   0.001
    1UNL    H13   41   0.518   0.290   0.164
    1UNL    H14   42   0.551   0.037   0.281
    1UNL    H15   43   0.408  -0.130   0.203
    1UNL    H16   44   0.162  -0.259   0.124
    1UNL    H17   45   0.253  -0.314  -0.012
    1UNL    H18   46  -0.009  -0.366   0.014
    1UNL    H19   47   0.098  -0.377  -0.365
    1UNL    H20   48  -0.173  -0.229   0.091
    1UNL    H21   49  -0.048  -0.107   0.119
    1UNL    H22   50  -0.290  -0.062  -0.056
   0.00000   0.00000   0.00000   0.00000   0.00000   0.00000   0.00000   0.00000   0.00000
Generated with MDTraj, t= 14.0
 50
    1UNL     C1    1  -0.380  -0.073   0.224
    1UNL     C2    2  -0.305   0.036   0.134
    1UNL     O1    3  -0.394   0.147   0.102
    1UNL     C3    4  -0.340   0.240   0.027
    1UNL     C4    5  -0.228   0.229  -0.051
    1UNL     C5    6  -0.148   0.341  -0.106
    1UNL     O2    7  -0.032   0.318  -0.140
    1UNL     O3    8  -0.201   0.462  -0.124
    1UNL     C6    9  -0.158   0.092  -0.050
    1UNL     C7   10  -0.104   0.038  -0.179
    1UNL     C8   11  -0.001  -0.070  -0.157
    1UNL     C9   12   0.130  -0.014  -0.101
    1UNL     N1   13   0.163   0.120  -0.075
    1UNL    C10   14   0.280   0.121   0.010
    1UNL    C11   15   0.359   0.225   0.061
    1UNL    C12   16   0.448   0.193   0.163
    1UNL    C13   17   0.471   0.057   0.196
    1UNL    C14   18   0.389  -0.048   0.147
    1UNL    C15   19   0.299  -0.014   0.052
    1UNL    C16   20   0.206  -0.098  -0.017
    1UNL    C17   21   0.175  -0.244   0.010
    1UNL    C18   22   0.043  -0.295  -0.043
    1UNL    C19   23   0.066  -0.372  -0.170
    1UNL     O4   24   0.018  -0.479  -0.185
    1UNL     O5   25   0.134  -0.302  -0.269
    1UNL     N2   26  -0.059  -0.180  -0.080
    1UNL    C20   27  -0.132  -0.142   0.044
    1UNL    C21   28  -0.228  -0.027   0.017
    1UNL     H1   29  -0.402  -0.036   0.329
    1UNL     H2   30  -0.480  -0.097   0.184
    1UNL     H3   31  -0.329  -0.176   0.234
    1UNL     H4   32  -0.227   0.090   0.207
    1UNL     H5   33  -0.382   0.338   0.041
    1UNL     H6   34  -0.135   0.521  -0.165
    1UNL     H7   35  -0.071   0.118   0.023
    1UNL     H8   36  -0.060   0.122  -0.237
    1UNL     H9   37  -0.199   0.002  -0.232
    1UNL    H10   38   0.026  -0.115  -0.259
    1UNL    H11   39   0.104   0.199  -0.097
    1UNL    H12   40   0.326   0.323   0.027
    1UNL    H13   41   0.511   0.268   0.199
    1UNL    H14   42   0.535   0.047   0.279
    1UNL    H15   43   0.381  -0.153   0.176
    1UNL    H16   44   0.187  -0.250   0.120
    1UNL    H17   45   0.257  -0.301  -0.026
    1UNL    H18   46  -0.004  -0.365   0.029
    1UNL    H19   47   0.148  -0.359  -0.343
    1UNL    H20   48  -0.178  -0.226   0.099
    1UNL    H21   49  -0.052  -0.104   0.119
    1UNL    H22   50  -0.313  -0.074  -0.039
   0.00000   0.00000   0.00000   0.00000   0.00000   0.00000   0.00000   0.00000   0.00000
Generated with MDTraj, t= 15.0
 50
    1UNL     C1    1  -0.391  -0.071   0.201
    1UNL     C2    2  -0.298   0.046   0.144
    1UNL     O1    3  -0.382   0.155   0.110
    1UNL     C3    4  -0.322   0.245   0.032
    1UNL     C4    5  -0.205   0.231  -0.033
    1UNL     C5    6  -0.160   0.344  -0.111
    1UNL     O2    7  -0.051   0.335  -0.170
    1UNL     O3    8  -0.236   0.456  -0.122
    1UNL     C6    9  -0.134   0.096  -0.039
    1UNL     C7   10  -0.091   0.044  -0.177
    1UNL     C8   11  -0.007  -0.078  -0.151
    1UNL     C9   12   0.124  -0.031  -0.082
    1UNL     N1   13   0.174   0.100  -0.084
    1UNL    C10   14   0.271   0.111   0.011
    1UNL    C11   15   0.340   0.220   0.071
    1UNL    C12   16   0.450   0.197   0.154
    1UNL    C13   17   0.476   0.062   0.191
    1UNL    C14   18   0.404  -0.039   0.145
    1UNL    C15   19   0.294  -0.017   0.059
    1UNL    C16   20   0.197  -0.107   0.000
    1UNL    C17   21   0.164  -0.254   0.030
    1UNL    C18   22   0.040  -0.299  -0.053
    1UNL    C19   23   0.062  -0.371  -0.189
    1UNL     O4   24   0.010  -0.475  -0.215
    1UNL     O5   25   0.159  -0.307  -0.259
    1UNL     N2   26  -0.063  -0.189  -0.076
    1UNL    C20   27  -0.130  -0.133   0.048
    1UNL    C21   28  -0.221  -0.013   0.029
    1UNL     H1   29  -0.477  -0.020   0.264
    1UNL     H2   30  -0.446  -0.137   0.129
    1UNL     H3   31  -0.338  -0.136   0.266
    1UNL     H4   32  -0.210   0.087   0.215
    1UNL     H5   33  -0.383   0.331   0.023
    1UNL     H6   34  -0.185   0.512  -0.178
    1UNL     H7   35  -0.033   0.114   0.016
    1UNL     H8   36  -0.038   0.123  -0.234
    1UNL     H9   37  -0.189   0.018  -0.229
    1UNL    H10   38   0.007  -0.133  -0.251
    1UNL    H11   39   0.124   0.186  -0.118
    1UNL    H12   40   0.315   0.318   0.041
    1UNL    H13   41   0.510   0.288   0.180
    1UNL    H14   42   0.553   0.039   0.267
    1UNL    H15   43   0.432  -0.139   0.178
    1UNL    H16   44   0.160  -0.272   0.139
    1UNL    H17   45   0.252  -0.303  -0.003
    1UNL    H18   46  -0.016  -0.375   0.007
    1UNL    H19   47   0.165  -0.357  -0.341
    1UNL    H20   48  -0.194  -0.216   0.087
    1UNL    H21   49  -0.058  -0.113   0.134
    1UNL    H22   50  -0.293  -0.036  -0.053
   0.00000   0.00000   0.00000   0.00000   0.00000   0.00000   0.00000   0.00000   0.00000
Generated with MDTraj, t= 16.0
 50
    1UNL     C1    1  -0.390  -0.065   0.211
    1UNL     C2    2  -0.296   0.038   0.146
    1UNL     O1    3  -0.377   0.158   0.131
    1UNL     C3    4  -0.334   0.244   0.035
    1UNL     C4    5  -0.225   0.223  -0.045
    1UNL     C5    6  -0.164   0.329  -0.118
    1UNL     O2    7  -0.052   0.308  -0.163
    1UNL     O3    8  -0.230   0.446  -0.130
    1UNL     C6    9  -0.152   0.094  -0.053
    1UNL     C7   10  -0.100   0.032  -0.194
    1UNL     C8   11   0.000  -0.071  -0.152
    1UNL     C9   12   0.119  -0.010  -0.082
    1UNL     N1   13   0.174   0.117  -0.079
    1UNL    C10   14   0.282   0.110   0.007
    1UNL    C11   15   0.362   0.211   0.068
    1UNL    C12   16   0.464   0.182   0.152
    1UNL    C13   17   0.479   0.051   0.200
    1UNL    C14   18   0.392  -0.046   0.154
    1UNL    C15   19   0.290  -0.019   0.063
    1UNL    C16   20   0.189  -0.092   0.005
    1UNL    C17   21   0.167  -0.238   0.016
    1UNL    C18   22   0.041  -0.288  -0.046
    1UNL    C19   23   0.070  -0.358  -0.179
    1UNL     O4   24   0.003  -0.448  -0.224
    1UNL     O5   25   0.172  -0.317  -0.256
    1UNL     N2   26  -0.059  -0.182  -0.075
    1UNL    C20   27  -0.128  -0.129   0.046
    1UNL    C21   28  -0.232  -0.014   0.023
    1UNL     H1   29  -0.423  -0.022   0.310
    1UNL     H2   30  -0.489  -0.080   0.154
    1UNL     H3   31  -0.348  -0.163   0.224
    1UNL     H4   32  -0.206   0.066   0.220
    1UNL     H5   33  -0.395   0.335   0.025
    1UNL     H6   34  -0.182   0.507  -0.176
    1UNL     H7   35  -0.056   0.113   0.010
    1UNL     H8   36  -0.050   0.111  -0.255
    1UNL     H9   37  -0.187  -0.012  -0.254
    1UNL    H10   38   0.036  -0.124  -0.246
    1UNL    H11   39   0.137   0.201  -0.127
    1UNL    H12   40   0.361   0.317   0.034
    1UNL    H13   41   0.526   0.252   0.200
    1UNL    H14   42   0.562   0.030   0.262
    1UNL    H15   43   0.407  -0.144   0.189
    1UNL    H16   44   0.159  -0.257   0.124
    1UNL    H17   45   0.249  -0.292  -0.023
    1UNL    H18   46  -0.013  -0.363   0.017
    1UNL    H19   47   0.166  -0.381  -0.333
    1UNL    H20   48  -0.185  -0.220   0.088
    1UNL    H21   49  -0.056  -0.104   0.126
    1UNL    H22   50  -0.317  -0.057  -0.036
   0.00000   0.00000   0.00000   0.00000   0.00000   0.00000   0.00000   0.00000   0.00000
Generated with MDTraj, t= 17.0
 50
    1UNL     C1    1  -0.370  -0.067   0.222
    1UNL     C2    2  -0.301   0.043   0.139
    1UNL     O1    3  -0.398   0.144   0.102
    1UNL     C3    4  -0.330   0.242   0.034
    1UNL     C4    5  -0.209   0.233  -0.032
    1UNL     C5    6  -0.157   0.337  -0.113
    1UNL     O2    7  -0.046   0.324  -0.160
    1UNL     O3    8  -0.235   0.443  -0.139
    1UNL     C6    9  -0.142   0.101  -0.038
    1UNL     C7   10  -0.093   0.048  -0.174
    1UNL     C8   11   0.003  -0.066  -0.149
    1UNL     C9   12   0.126  -0.029  -0.078
    1UNL     N1   13   0.162   0.103  -0.064
    1UNL    C10   14   0.277   0.108   0.011
    1UNL    C11   15   0.359   0.219   0.050
    1UNL    C12   16   0.451   0.188   0.147
    1UNL    C13   17   0.477   0.061   0.184
    1UNL    C14   18   0.402  -0.046   0.149
    1UNL    C15   19   0.294  -0.024   0.058
    1UNL    C16   20   0.195  -0.111   0.006
    1UNL    C17   21   0.170  -0.252   0.022
    1UNL    C18   22   0.036  -0.292  -0.047
    1UNL    C19   23   0.068  -0.354  -0.185
    1UNL     O4   24  -0.012  -0.443  -0.224
    1UNL     O5   25   0.183  -0.314  -0.245
    1UNL     N2   26  -0.059  -0.179  -0.073
    1UNL    C20   27  -0.144  -0.140   0.044
    1UNL    C21   28  -0.231  -0.013   0.017
    1UNL     H1   29  -0.426  -0.035   0.306
    1UNL     H2   30  -0.444  -0.109   0.144
    1UNL     H3   31  -0.304  -0.155   0.241
    1UNL     H4   32  -0.231   0.107   0.208
    1UNL     H5   33  -0.384   0.337   0.017
    1UNL     H6   34  -0.188   0.504  -0.188
    1UNL     H7   35  -0.052   0.103   0.035
    1UNL     H8   36  -0.039   0.129  -0.229
    1UNL     H9   37  -0.182   0.016  -0.237
    1UNL    H10   38   0.042  -0.087  -0.253
    1UNL    H11   39   0.097   0.175  -0.093
    1UNL    H12   40   0.332   0.316   0.021
    1UNL    H13   41   0.524   0.262   0.184
    1UNL    H14   42   0.551   0.050   0.265
    1UNL    H15   43   0.426  -0.147   0.188
    1UNL    H16   44   0.154  -0.272   0.128
    1UNL    H17   45   0.250  -0.316  -0.013
    1UNL    H18   46  -0.020  -0.367   0.015
    1UNL    H19   47   0.192  -0.368  -0.329
    1UNL    H20   48  -0.214  -0.231   0.070
    1UNL    H21   49  -0.080  -0.133   0.132
    1UNL    H22   50  -0.311  -0.043  -0.058
   0.00000   0.00000   0.00000   0.00000   0.00000   0.00000   0.00000   0.00000   0.00000
Generated with MDTraj, t= 18.0
 50
    1UNL     C1    1  -0.391  -0.057   0.221
    1UNL     C2    2  -0.311   0.041   0.145
    1UNL     O1    3  -0.395   0.147   0.099
    1UNL     C3    4  -0.337   0.243   0.015
    1UNL     C4    5  -0.227   0.223  -0.060
    1UNL     C5    6  -0.156   0.339  -0.108
    1UNL     O2    7  -0.033   0.328  -0.127
    1UNL     O3    8  -0.231   0.454  -0.129
    1UNL     C6    9  -0.150   0.094  -0.046
    1UNL     C7   10  -0.107   0.040  -0.185
    1UNL     C8   11   0.001  -0.066  -0.156
    1UNL     C9   12   0.124  -0.019  -0.082
    1UNL     N1   13   0.158   0.112  -0.072
    1UNL    C10   14   0.265   0.112   0.016
    1UNL    C11   15   0.349   0.213   0.056
    1UNL    C12   16   0.449   0.183   0.142
    1UNL    C13   17   0.471   0.054   0.187
    1UNL    C14   18   0.411  -0.053   0.134
    1UNL    C15   19   0.303  -0.026   0.054
    1UNL    C16   20   0.204  -0.103  -0.008
    1UNL    C17   21   0.170  -0.243   0.028
    1UNL    C18   22   0.039  -0.296  -0.048
    1UNL    C19   23   0.075  -0.360  -0.177
    1UNL     O4   24  -0.007  -0.445  -0.220
    1UNL     O5   25   0.183  -0.325  -0.246
    1UNL     N2   26  -0.056  -0.179  -0.070
    1UNL    C20   27  -0.115  -0.129   0.057
    1UNL    C21   28  -0.225  -0.022   0.032
    1UNL     H1   29  -0.463  -0.014   0.283
    1UNL     H2   30  -0.438  -0.125   0.149
    1UNL     H3   31  -0.320  -0.132   0.275
    1UNL     H4   32  -0.241   0.097   0.218
    1UNL     H5   33  -0.374   0.342   0.020
    1UNL     H6   34  -0.173   0.518  -0.162
    1UNL     H7   35  -0.046   0.114   0.002
    1UNL     H8   36  -0.071   0.123  -0.251
    1UNL     H9   37  -0.187  -0.010  -0.246
    1UNL    H10   38   0.036  -0.109  -0.251
    1UNL    H11   39   0.106   0.195  -0.108
    1UNL    H12   40   0.347   0.318   0.022
    1UNL    H13   41   0.509   0.265   0.173
    1UNL    H14   42   0.548   0.029   0.256
    1UNL    H15   43   0.428  -0.146   0.179
    1UNL    H16   44   0.170  -0.276   0.131
    1UNL    H17   45   0.249  -0.306  -0.014
    1UNL    H18   46  -0.007  -0.374   0.017
    1UNL    H19   47   0.177  -0.367  -0.336
    1UNL    H20   48  -0.160  -0.217   0.122
    1UNL    H21   49  -0.035  -0.088   0.116
    1UNL    H22   50  -0.287  -0.064  -0.053
   0.00000   0.00000   0.00000   0.00000   0.00000   0.00000   0.00000   0.00000   0.00000
Generated with MDTraj, t= 19.0
 50
    1UNL     C1    1  -0.398  -0.067   0.221
    1UNL     C2    2  -0.315   0.028   0.145
    1UNL     O1    3  -0.403   0.135   0.093
    1UNL     C3    4  -0.344   0.234   0.012
    1UNL     C4    5  -0.223   0.224  -0.046
    1UNL     C5    6  -0.152   0.337  -0.108
    1UNL     O2    7  -0.039   0.325  -0.158
    1UNL     O3    8  -0.216   0.456  -0.109
    1UNL     C6    9  -0.149   0.094  -0.035
    1UNL     C7   10  -0.089   0.053  -0.170
    1UNL     C8   11   0.010  -0.059  -0.159
    1UNL     C9   12   0.135  -0.015  -0.089
    1UNL     N1   13   0.175   0.115  -0.077
    1UNL    C10   14   0.283   0.115   0.011
    1UNL    C11   15   0.358   0.222   0.055
    1UNL    C12   16   0.453   0.193   0.152
    1UNL    C13   17   0.488   0.067   0.191
    1UNL    C14   18   0.414  -0.040   0.146
    1UNL    C15   19   0.308  -0.018   0.053
    1UNL    C16   20   0.207  -0.101  -0.008
    1UNL    C17   21   0.167  -0.244   0.026
    1UNL    C18   22   0.039  -0.294  -0.049
    1UNL    C19   23   0.063  -0.371  -0.173
    1UNL     O4   24  -0.026  -0.453  -0.203
    1UNL     O5   25   0.159  -0.329  -0.255
    1UNL     N2   26  -0.055  -0.172  -0.078
    1UNL    C20   27  -0.138  -0.148   0.040
    1UNL    C21   28  -0.228  -0.021   0.024
    1UNL     H1   29  -0.465  -0.011   0.287
    1UNL     H2   30  -0.461  -0.122   0.159
    1UNL     H3   31  -0.351  -0.151   0.280
    1UNL     H4   32  -0.247   0.072   0.224
    1UNL     H5   33  -0.390   0.331   0.012
    1UNL     H6   34  -0.174   0.529  -0.163
    1UNL     H7   35  -0.060   0.104   0.039
    1UNL     H8   36  -0.053   0.136  -0.241
    1UNL     H9   37  -0.177   0.015  -0.229
    1UNL    H10   38   0.032  -0.110  -0.252
    1UNL    H11   39   0.111   0.192  -0.091
    1UNL    H12   40   0.347   0.321   0.018
    1UNL    H13   41   0.517   0.268   0.202
    1UNL    H14   42   0.574   0.057   0.256
    1UNL    H15   43   0.428  -0.142   0.186
    1UNL    H16   44   0.161  -0.256   0.132
    1UNL    H17   45   0.249  -0.315   0.005
    1UNL    H18   46  -0.002  -0.367   0.023
    1UNL    H19   47   0.166  -0.380  -0.338
    1UNL    H20   48  -0.200  -0.243   0.061
    1UNL    H21   49  -0.079  -0.137   0.132
    1UNL    H22   50  -0.304  -0.057  -0.052
   0.00000   0.00000   0.00000   0.00000   0.00000   0.00000   0.00000   0.00000   0.00000
Generated with MDTraj, t= 20.0
 50
    1UNL     C1    1  -0.413  -0.085   0.189
    1UNL     C2    2  -0.313   0.020   0.141
    1UNL     O1    3  -0.389   0.139   0.104
    1UNL     C3    4  -0.333   0.234   0.024
    1UNL     C4    5  -0.217   0.229  -0.049
    1UNL     C5    6  -0.159   0.349  -0.109
    1UNL     O2    7  -0.043   0.349  -0.149
    1UNL     O3    8  -0.218   0.476  -0.111
    1UNL     C6    9  -0.149   0.094  -0.049
    1UNL     C7   10  -0.098   0.044  -0.178
    1UNL     C8   11   0.006  -0.073  -0.163
    1UNL     C9   12   0.123  -0.020  -0.080
    1UNL     N1   13   0.165   0.117  -0.063
    1UNL    C10   14   0.276   0.119   0.017
    1UNL    C11   15   0.360   0.223   0.056
    1UNL    C12   16   0.466   0.193   0.135
    1UNL    C13   17   0.482   0.061   0.183
    1UNL    C14   18   0.397  -0.042   0.157
    1UNL    C15   19   0.297  -0.012   0.059
    1UNL    C16   20   0.207  -0.102  -0.003
    1UNL    C17   21   0.190  -0.249   0.001
    1UNL    C18   22   0.049  -0.293  -0.041
    1UNL    C19   23   0.052  -0.374  -0.168
    1UNL     O4   24  -0.012  -0.477  -0.188
    1UNL     O5   25   0.148  -0.330  -0.253
    1UNL     N2   26  -0.050  -0.178  -0.072
    1UNL    C20   27  -0.128  -0.137   0.048
    1UNL    C21   28  -0.224  -0.019   0.016
    1UNL     H1   29  -0.470  -0.043   0.278
    1UNL     H2   30  -0.482  -0.113   0.112
    1UNL     H3   31  -0.371  -0.174   0.215
    1UNL     H4   32  -0.250   0.048   0.229
    1UNL     H5   33  -0.397   0.324   0.017
    1UNL     H6   34  -0.146   0.543  -0.149
    1UNL     H7   35  -0.052   0.109   0.015
    1UNL     H8   36  -0.056   0.138  -0.232
    1UNL     H9   37  -0.181   0.019  -0.248
    1UNL    H10   38   0.045  -0.112  -0.255
    1UNL    H11   39   0.118   0.202  -0.104
    1UNL    H12   40   0.344   0.323   0.018
    1UNL    H13   41   0.536   0.271   0.155
    1UNL    H14   42   0.564   0.042   0.253
    1UNL    H15   43   0.420  -0.144   0.182
    1UNL    H16   44   0.212  -0.284   0.099
    1UNL    H17   45   0.271  -0.288  -0.065
    1UNL    H18   46   0.005  -0.352   0.040
    1UNL    H19   47   0.138  -0.371  -0.338
    1UNL    H20   48  -0.175  -0.211   0.114
    1UNL    H21   49  -0.047  -0.096   0.116
    1UNL    H22   50  -0.300  -0.049  -0.061
   0.00000   0.00000   0.00000   0.00000   0.00000   0.00000   0.00000   0.00000   0.00000
Generated with MDTraj, t= 21.0
 50
    1UNL     C1    1  -0.427  -0.084   0.194
    1UNL     C2    2  -0.326   0.017   0.134
    1UNL     O1    3  -0.396   0.139   0.101
    1UNL     C3    4  -0.339   0.245   0.035
    1UNL     C4    5  -0.216   0.234  -0.028
    1UNL     C5    6  -0.150   0.345  -0.104
    1UNL     O2    7  -0.033   0.333  -0.142
    1UNL     O3    8  -0.217   0.467  -0.125
    1UNL     C6    9  -0.146   0.096  -0.041
    1UNL     C7   10  -0.087   0.045  -0.179
    1UNL     C8   11   0.006  -0.068  -0.157
    1UNL     C9   12   0.127  -0.011  -0.085
    1UNL     N1   13   0.173   0.119  -0.079
    1UNL    C10   14   0.285   0.118   0.011
    1UNL    C11   15   0.348   0.222   0.077
    1UNL    C12   16   0.458   0.199   0.152
    1UNL    C13   17   0.493   0.061   0.192
    1UNL    C14   18   0.425  -0.042   0.132
    1UNL    C15   19   0.316  -0.019   0.043
    1UNL    C16   20   0.209  -0.097  -0.017
    1UNL    C17   21   0.169  -0.240   0.014
    1UNL    C18   22   0.039  -0.289  -0.045
    1UNL    C19   23   0.059  -0.379  -0.167
    1UNL     O4   24   0.013  -0.489  -0.166
    1UNL     O5   25   0.125  -0.324  -0.274
    1UNL     N2   26  -0.060  -0.177  -0.081
    1UNL    C20   27  -0.129  -0.132   0.046
    1UNL    C21   28  -0.232  -0.021   0.013
    1UNL     H1   29  -0.479  -0.034   0.275
    1UNL     H2   30  -0.489  -0.127   0.116
    1UNL     H3   31  -0.369  -0.161   0.231
    1UNL     H4   32  -0.256   0.044   0.214
    1UNL     H5   33  -0.404   0.332   0.015
    1UNL     H6   34  -0.149   0.530  -0.176
    1UNL     H7   35  -0.050   0.103   0.024
    1UNL     H8   36  -0.060   0.133  -0.249
    1UNL     H9   37  -0.174   0.003  -0.236
    1UNL    H10   38   0.035  -0.117  -0.248
    1UNL    H11   39   0.109   0.197  -0.089
    1UNL    H12   40   0.310   0.323   0.061
    1UNL    H13   41   0.498   0.287   0.202
    1UNL    H14   42   0.578   0.046   0.254
    1UNL    H15   43   0.454  -0.144   0.146
    1UNL    H16   44   0.166  -0.239   0.121
    1UNL    H17   45   0.247  -0.310  -0.024
    1UNL    H18   46  -0.019  -0.358   0.017
    1UNL    H19   47   0.146  -0.397  -0.331
    1UNL    H20   48  -0.176  -0.216   0.085
    1UNL    H21   49  -0.059  -0.100   0.131
    1UNL    H22   50  -0.305  -0.044  -0.070
   0.00000   0.00000   0.00000   0.00000   0.00000   0.00000   0.00000   0.00000   0.00000
Generated with MDTraj, t= 22.0
 50
    1UNL     C1    1  -0.408  -0.065   0.198
    1UNL     C2    2  -0.317   0.038   0.134
    1UNL     O1    3  -0.403   0.144   0.087
    1UNL     C3    4  -0.335   0.237   0.012
    1UNL     C4    5  -0.216   0.225  -0.044
    1UNL     C5    6  -0.154   0.343  -0.105
    1UNL     O2    7  -0.035   0.340  -0.137
    1UNL     O3    8  -0.225   0.459  -0.106
    1UNL     C6    9  -0.149   0.090  -0.047
    1UNL     C7   10  -0.099   0.041  -0.182
    1UNL     C8   11   0.006  -0.068  -0.155
    1UNL     C9   12   0.131  -0.021  -0.085
    1UNL     N1   13   0.173   0.108  -0.069
    1UNL    C10   14   0.281   0.118   0.012
    1UNL    C11   15   0.364   0.223   0.062
    1UNL    C12   16   0.468   0.193   0.157
    1UNL    C13   17   0.491   0.057   0.185
    1UNL    C14   18   0.409  -0.043   0.142
    1UNL    C15   19   0.305  -0.011   0.056
    1UNL    C16   20   0.214  -0.100  -0.012
    1UNL    C17   21   0.189  -0.249   0.009
    1UNL    C18   22   0.044  -0.290  -0.042
    1UNL    C19   23   0.054  -0.372  -0.168
    1UNL     O4   24   0.048  -0.489  -0.165
    1UNL     O5   25   0.093  -0.305  -0.281
    1UNL     N2   26  -0.053  -0.181  -0.068
    1UNL    C20   27  -0.147  -0.145   0.048
    1UNL    C21   28  -0.243  -0.018   0.015
    1UNL     H1   29  -0.460  -0.013   0.266
    1UNL     H2   30  -0.468  -0.104   0.118
    1UNL     H3   31  -0.359  -0.152   0.244
    1UNL     H4   32  -0.238   0.064   0.202
    1UNL     H5   33  -0.382   0.330  -0.010
    1UNL     H6   34  -0.169   0.540  -0.142
    1UNL     H7   35  -0.057   0.106   0.023
    1UNL     H8   36  -0.038   0.126  -0.226
    1UNL     H9   37  -0.190   0.029  -0.247
    1UNL    H10   38   0.029  -0.114  -0.249
    1UNL    H11   39   0.126   0.195  -0.103
    1UNL    H12   40   0.322   0.318   0.041
    1UNL    H13   41   0.529   0.268   0.205
    1UNL    H14   42   0.576   0.034   0.254
    1UNL    H15   43   0.420  -0.151   0.160
    1UNL    H16   44   0.199  -0.277   0.113
    1UNL    H17   45   0.263  -0.296  -0.057
    1UNL    H18   46  -0.014  -0.347   0.029
    1UNL    H19   47   0.100  -0.371  -0.352
    1UNL    H20   48  -0.194  -0.229   0.088
    1UNL    H21   49  -0.074  -0.119   0.132
    1UNL    H22   50  -0.321  -0.052  -0.057
   0.00000   0.00000   0.00000   0.00000   0.00000   0.00000   0.00000   0.00000   0.00000
Generated with MDTraj, t= 23.0
 50
    1UNL     C1    1  -0.374  -0.080   0.199
    1UNL     C2    2  -0.311   0.038   0.131
    1UNL     O1    3  -0.411   0.139   0.084
    1UNL     C3    4  -0.351   0.235   0.003
    1UNL     C4    5  -0.228   0.226  -0.058
    1UNL     C5    6  -0.153   0.340  -0.104
    1UNL     O2    7  -0.038   0.320  -0.144
    1UNL     O3    8  -0.214   0.464  -0.107
    1UNL     C6    9  -0.144   0.104  -0.043
    1UNL     C7   10  -0.092   0.056  -0.176
    1UNL     C8   11   0.002  -0.060  -0.148
    1UNL     C9   12   0.124  -0.014  -0.083
    1UNL     N1   13   0.168   0.113  -0.069
    1UNL    C10   14   0.273   0.109   0.030
    1UNL    C11   15   0.365   0.215   0.054
    1UNL    C12   16   0.470   0.188   0.138
    1UNL    C13   17   0.494   0.054   0.193
    1UNL    C14   18   0.408  -0.050   0.154
    1UNL    C15   19   0.300  -0.023   0.070
    1UNL    C16   20   0.197  -0.096   0.003
    1UNL    C17   21   0.171  -0.242   0.011
    1UNL    C18   22   0.029  -0.291  -0.047
    1UNL    C19   23   0.063  -0.371  -0.175
    1UNL     O4   24   0.080  -0.486  -0.153
    1UNL     O5   25   0.065  -0.304  -0.298
    1UNL     N2   26  -0.066  -0.178  -0.074
    1UNL    C20   27  -0.126  -0.133   0.051
    1UNL    C21   28  -0.226  -0.011   0.017
    1UNL     H1   29  -0.442  -0.059   0.276
    1UNL     H2   30  -0.414  -0.140   0.124
    1UNL     H3   31  -0.298  -0.148   0.238
    1UNL     H4   32  -0.247   0.096   0.192
    1UNL     H5   33  -0.402   0.329   0.003
    1UNL     H6   34  -0.151   0.530  -0.154
    1UNL     H7   35  -0.057   0.137   0.027
    1UNL     H8   36  -0.038   0.142  -0.227
    1UNL     H9   37  -0.183   0.027  -0.235
    1UNL    H10   38   0.032  -0.094  -0.247
    1UNL    H11   39   0.110   0.194  -0.095
    1UNL    H12   40   0.352   0.316   0.010
    1UNL    H13   41   0.537   0.272   0.157
    1UNL    H14   42   0.569   0.024   0.257
    1UNL    H15   43   0.416  -0.148   0.191
    1UNL    H16   44   0.172  -0.254   0.119
    1UNL    H17   45   0.251  -0.300  -0.037
    1UNL    H18   46  -0.024  -0.350   0.028
    1UNL    H19   47   0.100  -0.370  -0.364
    1UNL    H20   48  -0.173  -0.222   0.085
    1UNL    H21   49  -0.051  -0.111   0.132
    1UNL    H22   50  -0.301  -0.043  -0.060
   0.00000   0.00000   0.00000   0.00000   0.00000   0.00000   0.00000   0.00000   0.00000
Generated with MDTraj, t= 24.0
 50
    1UNL     C1    1  -0.399  -0.057   0.203
    1UNL     C2    2  -0.314   0.045   0.136
    1UNL     O1    3  -0.396   0.155   0.089
    1UNL     C3    4  -0.331   0.253   0.021
    1UNL     C4    5  -0.217   0.227  -0.051
    1UNL     C5    6  -0.158   0.343  -0.106
    1UNL     O2    7  -0.043   0.345  -0.145
    1UNL     O3    8  -0.245   0.448  -0.114
    1UNL     C6    9  -0.147   0.097  -0.042
    1UNL     C7   10  -0.098   0.047  -0.180
    1UNL     C8   11   0.007  -0.067  -0.149
    1UNL     C9   12   0.132  -0.023  -0.081
    1UNL     N1   13   0.175   0.112  -0.073
    1UNL    C10   14   0.283   0.114   0.016
    1UNL    C11   15   0.362   0.215   0.068
    1UNL    C12   16   0.464   0.183   0.160
    1UNL    C13   17   0.486   0.046   0.198
    1UNL    C14   18   0.411  -0.054   0.140
    1UNL    C15   19   0.310  -0.021   0.047
    1UNL    C16   20   0.206  -0.107  -0.004
    1UNL    C17   21   0.162  -0.246   0.027
    1UNL    C18   22   0.033  -0.292  -0.051
    1UNL    C19   23   0.072  -0.371  -0.174
    1UNL     O4   24   0.123  -0.482  -0.164
    1UNL     O5   25   0.046  -0.319  -0.299
    1UNL     N2   26  -0.054  -0.178  -0.075
    1UNL    C20   27  -0.141  -0.137   0.044
    1UNL    C21   28  -0.239  -0.013   0.017
    1UNL     H1   29  -0.434  -0.029   0.304
    1UNL     H2   30  -0.469  -0.098   0.140
    1UNL     H3   31  -0.337  -0.142   0.213
    1UNL     H4   32  -0.246   0.089   0.202
    1UNL     H5   33  -0.371   0.356   0.034
    1UNL     H6   34  -0.208   0.525  -0.163
    1UNL     H7   35  -0.050   0.111   0.018
    1UNL     H8   36  -0.054   0.138  -0.226
    1UNL     H9   37  -0.188   0.012  -0.239
    1UNL    H10   38   0.038  -0.105  -0.247
    1UNL    H11   39   0.114   0.192  -0.099
    1UNL    H12   40   0.347   0.305   0.017
    1UNL    H13   41   0.525   0.260   0.202
    1UNL    H14   42   0.578   0.017   0.256
    1UNL    H15   43   0.421  -0.155   0.183
    1UNL    H16   44   0.161  -0.267   0.134
    1UNL    H17   45   0.241  -0.308  -0.017
    1UNL    H18   46  -0.027  -0.356   0.016
    1UNL    H19   47   0.082  -0.393  -0.358
    1UNL    H20   48  -0.198  -0.224   0.076
    1UNL    H21   49  -0.070  -0.120   0.121
    1UNL    H22   50  -0.316  -0.042  -0.062
   0.00000   0.00000   0.00000   0.00000   0.00000   0.00000   0.00000   0.00000   0.00000
Generated with MDTraj, t= 25.0
 50
    1UNL     C1    1  -0.395  -0.082   0.191
    1UNL     C2    2  -0.310   0.036   0.140
    1UNL     O1    3  -0.398   0.153   0.110
    1UNL     C3    4  -0.328   0.250   0.042
    1UNL     C4    5  -0.217   0.233  -0.036
    1UNL     C5    6  -0.148   0.337  -0.111
    1UNL     O2    7  -0.030   0.325  -0.141
    1UNL     O3    8  -0.214   0.447  -0.150
    1UNL     C6    9  -0.151   0.099  -0.050
    1UNL     C7   10  -0.100   0.048  -0.186
    1UNL     C8   11   0.002  -0.068  -0.153
    1UNL     C9   12   0.121  -0.015  -0.085
    1UNL     N1   13   0.170   0.116  -0.067
    1UNL    C10   14   0.280   0.114   0.016
    1UNL    C11   15   0.359   0.220   0.070
    1UNL    C12   16   0.455   0.182   0.158
    1UNL    C13   17   0.481   0.044   0.189
    1UNL    C14   18   0.392  -0.057   0.152
    1UNL    C15   19   0.298  -0.023   0.052
    1UNL    C16   20   0.193  -0.098  -0.007
    1UNL    C17   21   0.164  -0.241   0.026
    1UNL    C18   22   0.032  -0.295  -0.053
    1UNL    C19   23   0.070  -0.366  -0.179
    1UNL     O4   24   0.150  -0.458  -0.172
    1UNL     O5   25   0.018  -0.323  -0.290
    1UNL     N2   26  -0.060  -0.175  -0.074
    1UNL    C20   27  -0.128  -0.126   0.052
    1UNL    C21   28  -0.225  -0.008   0.019
    1UNL     H1   29  -0.459  -0.037   0.271
    1UNL     H2   30  -0.451  -0.132   0.116
    1UNL     H3   31  -0.347  -0.162   0.231
    1UNL     H4   32  -0.251   0.054   0.223
    1UNL     H5   33  -0.373   0.349   0.036
    1UNL     H6   34  -0.154   0.503  -0.194
    1UNL     H7   35  -0.049   0.099   0.000
    1UNL     H8   36  -0.058   0.131  -0.246
    1UNL     H9   37  -0.195   0.008  -0.233
    1UNL    H10   38   0.035  -0.120  -0.246
    1UNL    H11   39   0.118   0.203  -0.093
    1UNL    H12   40   0.344   0.326   0.043
    1UNL    H13   41   0.517   0.262   0.196
    1UNL    H14   42   0.564   0.034   0.251
    1UNL    H15   43   0.400  -0.162   0.168
    1UNL    H16   44   0.135  -0.247   0.133
    1UNL    H17   45   0.250  -0.306   0.017
    1UNL    H18   46  -0.015  -0.372   0.011
    1UNL    H19   47   0.026  -0.388  -0.364
    1UNL    H20   48  -0.187  -0.212   0.087
    1UNL    H21   49  -0.066  -0.099   0.128
    1UNL    H22   50  -0.296  -0.056  -0.056
   0.00000   0.00000   0.00000   0.00000   0.00000   0.00000   0.00000   0.00000   0.00000
Generated with MDTraj, t= 26.0
 50
    1UNL     C1    1  -0.404  -0.064   0.204
    1UNL     C2    2  -0.309   0.045   0.147
    1UNL     O1    3  -0.387   0.156   0.105
    1UNL     C3    4  -0.329   0.248   0.017
    1UNL     C4    5  -0.210   0.236  -0.040
    1UNL     C5    6  -0.151   0.342  -0.113
    1UNL     O2    7  -0.034   0.328  -0.150
    1UNL     O3    8  -0.221   0.459  -0.132
    1UNL     C6    9  -0.139   0.099  -0.041
    1UNL     C7   10  -0.086   0.046  -0.177
    1UNL     C8   11   0.009  -0.083  -0.153
    1UNL     C9   12   0.126  -0.029  -0.078
    1UNL     N1   13   0.170   0.099  -0.074
    1UNL    C10   14   0.272   0.105   0.015
    1UNL    C11   15   0.348   0.211   0.062
    1UNL    C12   16   0.455   0.189   0.143
    1UNL    C13   17   0.473   0.066   0.209
    1UNL    C14   18   0.400  -0.041   0.169
    1UNL    C15   19   0.299  -0.026   0.067
    1UNL    C16   20   0.206  -0.110   0.004
    1UNL    C17   21   0.170  -0.254   0.025
    1UNL    C18   22   0.036  -0.299  -0.048
    1UNL    C19   23   0.074  -0.359  -0.184
    1UNL     O4   24   0.168  -0.439  -0.210
    1UNL     O5   25  -0.015  -0.338  -0.289
    1UNL     N2   26  -0.054  -0.180  -0.067
    1UNL    C20   27  -0.146  -0.138   0.042
    1UNL    C21   28  -0.230  -0.010   0.018
    1UNL     H1   29  -0.449  -0.026   0.295
    1UNL     H2   30  -0.474  -0.110   0.133
    1UNL     H3   31  -0.344  -0.145   0.238
    1UNL     H4   32  -0.255   0.085   0.225
    1UNL     H5   33  -0.386   0.335  -0.007
    1UNL     H6   34  -0.163   0.522  -0.164
    1UNL     H7   35  -0.044   0.099   0.018
    1UNL     H8   36  -0.038   0.131  -0.225
    1UNL     H9   37  -0.176   0.025  -0.242
    1UNL    H10   38   0.033  -0.150  -0.242
    1UNL    H11   39   0.120   0.185  -0.096
    1UNL    H12   40   0.313   0.308   0.038
    1UNL    H13   41   0.506   0.275   0.183
    1UNL    H14   42   0.548   0.050   0.289
    1UNL    H15   43   0.432  -0.133   0.217
    1UNL    H16   44   0.169  -0.286   0.132
    1UNL    H17   45   0.247  -0.310  -0.022
    1UNL    H18   46  -0.012  -0.385   0.004
    1UNL    H19   47   0.016  -0.378  -0.370
    1UNL    H20   48  -0.214  -0.218   0.077
    1UNL    H21   49  -0.084  -0.111   0.118
    1UNL    H22   50  -0.305  -0.033  -0.066
   0.00000   0.00000   0.00000   0.00000   0.00000   0.00000   0.00000   0.00000   0.00000
Generated with MDTraj, t= 27.0
 50
    1UNL     C1    1  -0.390  -0.057   0.224
    1UNL     C2    2  -0.301   0.037   0.143
    1UNL     O1    3  -0.390   0.139   0.098
    1UNL     C3    4  -0.335   0.234   0.011
    1UNL     C4    5  -0.213   0.223  -0.054
    1UNL     C5    6  -0.138   0.331  -0.119
    1UNL     O2    7  -0.028   0.321  -0.172
    1UNL     O3    8  -0.199   0.457  -0.108
    1UNL     C6    9  -0.144   0.090  -0.049
    1UNL     C7   10  -0.100   0.049  -0.187
    1UNL     C8   11   0.002  -0.066  -0.161
    1UNL     C9   12   0.124  -0.015  -0.092
    1UNL     N1   13   0.173   0.115  -0.075
    1UNL    C10   14   0.275   0.117   0.020
    1UNL    C11   15   0.361   0.223   0.073
    1UNL    C12   16   0.448   0.175   0.171
    1UNL    C13   17   0.463   0.044   0.208
    1UNL    C14   18   0.386  -0.055   0.151
    1UNL    C15   19   0.286  -0.016   0.061
    1UNL    C16   20   0.198  -0.099  -0.011
    1UNL    C17   21   0.164  -0.242   0.024
    1UNL    C18   22   0.034  -0.289  -0.051
    1UNL    C19   23   0.063  -0.359  -0.180
    1UNL     O4   24   0.179  -0.398  -0.193
    1UNL     O5   25  -0.031  -0.367  -0.271
    1UNL     N2   26  -0.059  -0.176  -0.078
    1UNL    C20   27  -0.124  -0.132   0.050
    1UNL    C21   28  -0.223  -0.022   0.017
    1UNL     H1   29  -0.424   0.001   0.301
    1UNL     H2   30  -0.471  -0.102   0.166
    1UNL     H3   31  -0.340  -0.146   0.275
    1UNL     H4   32  -0.238   0.089   0.207
    1UNL     H5   33  -0.380   0.331   0.001
    1UNL     H6   34  -0.145   0.524  -0.138
    1UNL     H7   35  -0.053   0.102   0.014
    1UNL     H8   36  -0.074   0.133  -0.253
    1UNL     H9   37  -0.195   0.011  -0.236
    1UNL    H10   38   0.050  -0.112  -0.254
    1UNL    H11   39   0.115   0.191  -0.122
    1UNL    H12   40   0.341   0.330   0.065
    1UNL    H13   41   0.504   0.247   0.228
    1UNL    H14   42   0.541   0.027   0.281
    1UNL    H15   43   0.411  -0.158   0.174
    1UNL    H16   44   0.144  -0.238   0.133
    1UNL    H17   45   0.242  -0.313   0.011
    1UNL    H18   46  -0.022  -0.350   0.021
    1UNL    H19   47  -0.002  -0.425  -0.341
    1UNL    H20   48  -0.182  -0.216   0.092
    1UNL    H21   49  -0.058  -0.095   0.121
    1UNL    H22   50  -0.296  -0.063  -0.063
   0.00000   0.00000   0.00000   0.00000   0.00000   0.00000   0.00000   0.00000   0.00000
Generated with MDTraj, t= 28.0
 50
    1UNL     C1    1  -0.372  -0.058   0.221
    1UNL     C2    2  -0.301   0.046   0.139
    1UNL     O1    3  -0.386   0.150   0.092
    1UNL     C3    4  -0.327   0.251   0.010
    1UNL     C4    5  -0.214   0.237  -0.064
    1UNL     C5    6  -0.145   0.357  -0.107
    1UNL     O2    7  -0.035   0.347  -0.155
    1UNL     O3    8  -0.210   0.479  -0.105
    1UNL     C6    9  -0.147   0.100  -0.048
    1UNL     C7   10  -0.085   0.045  -0.183
    1UNL     C8   11   0.006  -0.076  -0.164
    1UNL     C9   12   0.128  -0.031  -0.083
    1UNL     N1   13   0.162   0.100  -0.065
    1UNL    C10   14   0.270   0.101   0.022
    1UNL    C11   15   0.344   0.210   0.063
    1UNL    C12   16   0.430   0.193   0.165
    1UNL    C13   17   0.463   0.067   0.211
    1UNL    C14   18   0.403  -0.047   0.160
    1UNL    C15   19   0.299  -0.032   0.065
    1UNL    C16   20   0.199  -0.111  -0.001
    1UNL    C17   21   0.164  -0.256   0.018
    1UNL    C18   22   0.028  -0.306  -0.058
    1UNL    C19   23   0.067  -0.371  -0.182
    1UNL     O4   24   0.186  -0.386  -0.210
    1UNL     O5   25  -0.035  -0.414  -0.266
    1UNL     N2   26  -0.059  -0.188  -0.083
    1UNL    C20   27  -0.130  -0.139   0.043
    1UNL    C21   28  -0.230  -0.018   0.017
    1UNL     H1   29  -0.429  -0.001   0.289
    1UNL     H2   30  -0.433  -0.129   0.164
    1UNL     H3   31  -0.312  -0.120   0.296
    1UNL     H4   32  -0.229   0.088   0.198
    1UNL     H5   33  -0.362   0.355   0.020
    1UNL     H6   34  -0.160   0.548  -0.150
    1UNL     H7   35  -0.070   0.121   0.029
    1UNL     H8   36  -0.032   0.130  -0.227
    1UNL     H9   37  -0.166   0.030  -0.259
    1UNL    H10   38   0.061  -0.118  -0.256
    1UNL    H11   39   0.113   0.181  -0.096
    1UNL    H12   40   0.326   0.310   0.025
    1UNL    H13   41   0.493   0.276   0.198
    1UNL    H14   42   0.541   0.065   0.284
    1UNL    H15   43   0.437  -0.136   0.203
    1UNL    H16   44   0.167  -0.281   0.125
    1UNL    H17   45   0.245  -0.307  -0.029
    1UNL    H18   46  -0.043  -0.365   0.001
    1UNL    H19   47   0.014  -0.450  -0.341
    1UNL    H20   48  -0.179  -0.219   0.094
    1UNL    H21   49  -0.051  -0.105   0.109
    1UNL    H22   50  -0.309  -0.060  -0.055
   0.00000   0.00000   0.00000   0.00000   0.00000   0.00000   0.00000   0.00000   0.00000
Generated with MDTraj, t= 29.0
 50
    1UNL     C1    1  -0.391  -0.074   0.219
    1UNL     C2    2  -0.307   0.031   0.136
    1UNL     O1    3  -0.385   0.147   0.100
    1UNL     C3    4  -0.316   0.246   0.030
    1UNL     C4    5  -0.208   0.227  -0.047
    1UNL     C5    6  -0.136   0.340  -0.112
    1UNL     O2    7  -0.016   0.330  -0.138
    1UNL     O3    8  -0.199   0.458  -0.140
    1UNL     C6    9  -0.136   0.092  -0.041
    1UNL     C7   10  -0.092   0.048  -0.186
    1UNL     C8   11   0.003  -0.061  -0.167
    1UNL     C9   12   0.122  -0.015  -0.089
    1UNL     N1   13   0.173   0.109  -0.082
    1UNL    C10   14   0.265   0.119   0.019
    1UNL    C11   15   0.352   0.219   0.072
    1UNL    C12   16   0.442   0.180   0.167
    1UNL    C13   17   0.454   0.051   0.212
    1UNL    C14   18   0.380  -0.048   0.163
    1UNL    C15   19   0.288  -0.017   0.062
    1UNL    C16   20   0.194  -0.098  -0.005
    1UNL    C17   21   0.176  -0.244   0.013
    1UNL    C18   22   0.031  -0.288  -0.052
    1UNL    C19   23   0.065  -0.361  -0.183
    1UNL     O4   24   0.174  -0.352  -0.231
    1UNL     O5   25  -0.041  -0.428  -0.227
    1UNL     N2   26  -0.058  -0.179  -0.083
    1UNL    C20   27  -0.131  -0.140   0.036
    1UNL    C21   28  -0.227  -0.024   0.010
    1UNL     H1   29  -0.445  -0.023   0.309
    1UNL     H2   30  -0.457  -0.125   0.147
    1UNL     H3   31  -0.331  -0.149   0.271
    1UNL     H4   32  -0.237   0.072   0.199
    1UNL     H5   33  -0.360   0.346   0.029
    1UNL     H6   34  -0.132   0.521  -0.181
    1UNL     H7   35  -0.049   0.104   0.024
    1UNL     H8   36  -0.055   0.139  -0.237
    1UNL     H9   37  -0.179   0.012  -0.243
    1UNL    H10   38   0.042  -0.110  -0.261
    1UNL    H11   39   0.117   0.193  -0.114
    1UNL    H12   40   0.371   0.309   0.016
    1UNL    H13   41   0.511   0.254   0.201
    1UNL    H14   42   0.537   0.026   0.280
    1UNL    H15   43   0.387  -0.148   0.212
    1UNL    H16   44   0.186  -0.264   0.120
    1UNL    H17   45   0.252  -0.298  -0.044
    1UNL    H18   46  -0.032  -0.347   0.015
    1UNL    H19   47  -0.029  -0.472  -0.315
    1UNL    H20   48  -0.187  -0.223   0.063
    1UNL    H21   49  -0.069  -0.118   0.126
    1UNL    H22   50  -0.303  -0.035  -0.076
   0.00000   0.00000   0.00000   0.00000   0.00000   0.00000   0.00000   0.00000   0.00000
Generated with MDTraj, t= 30.0
 50
    1UNL     C1    1  -0.422  -0.056   0.189
    1UNL     C2    2  -0.305   0.036   0.149
    1UNL     O1    3  -0.380   0.156   0.110
    1UNL     C3    4  -0.329   0.244   0.021
    1UNL     C4    5  -0.212   0.234  -0.047
    1UNL     C5    6  -0.148   0.340  -0.124
    1UNL     O2    7  -0.029   0.336  -0.156
    1UNL     O3    8  -0.223   0.449  -0.133
    1UNL     C6    9  -0.142   0.100  -0.042
    1UNL     C7   10  -0.075   0.054  -0.180
    1UNL     C8   11   0.013  -0.069  -0.156
    1UNL     C9   12   0.135  -0.025  -0.085
    1UNL     N1   13   0.184   0.105  -0.074
    1UNL    C10   14   0.286   0.105   0.020
    1UNL    C11   15   0.352   0.220   0.078
    1UNL    C12   16   0.439   0.187   0.176
    1UNL    C13   17   0.473   0.056   0.211
    1UNL    C14   18   0.401  -0.050   0.168
    1UNL    C15   19   0.307  -0.028   0.065
    1UNL    C16   20   0.203  -0.108   0.005
    1UNL    C17   21   0.168  -0.255   0.012
    1UNL    C18   22   0.035  -0.292  -0.058
    1UNL    C19   23   0.063  -0.365  -0.186
    1UNL     O4   24   0.138  -0.322  -0.266
    1UNL     O5   25  -0.028  -0.466  -0.222
    1UNL     N2   26  -0.054  -0.183  -0.078
    1UNL    C20   27  -0.127  -0.128   0.045
    1UNL    C21   28  -0.224  -0.009   0.023
    1UNL     H1   29  -0.462  -0.019   0.294
    1UNL     H2   30  -0.494  -0.053   0.103
    1UNL     H3   31  -0.386  -0.155   0.212
    1UNL     H4   32  -0.242   0.056   0.227
    1UNL     H5   33  -0.395   0.326   0.009
    1UNL     H6   34  -0.176   0.520  -0.194
    1UNL     H7   35  -0.060   0.106   0.031
    1UNL     H8   36  -0.013   0.141  -0.213
    1UNL     H9   37  -0.157   0.039  -0.249
    1UNL    H10   38   0.050  -0.113  -0.252
    1UNL    H11   39   0.129   0.187  -0.101
    1UNL    H12   40   0.331   0.323   0.045
    1UNL    H13   41   0.485   0.264   0.237
    1UNL    H14   42   0.538   0.044   0.292
    1UNL    H15   43   0.415  -0.148   0.201
    1UNL    H16   44   0.152  -0.283   0.115
    1UNL    H17   45   0.252  -0.310  -0.032
    1UNL    H18   46  -0.026  -0.360   0.004
    1UNL    H19   47  -0.001  -0.502  -0.312
    1UNL    H20   48  -0.178  -0.196   0.101
    1UNL    H21   49  -0.040  -0.106   0.112
    1UNL    H22   50  -0.303  -0.035  -0.057
   0.00000   0.00000   0.00000   0.00000   0.00000   0.00000   0.00000   0.00000   0.00000
Generated with MDTraj, t= 31.0
 50
    1UNL     C1    1  -0.396  -0.070   0.182
    1UNL     C2    2  -0.309   0.037   0.129
    1UNL     O1    3  -0.390   0.159   0.101
    1UNL     C3    4  -0.327   0.247   0.022
    1UNL     C4    5  -0.208   0.240  -0.046
    1UNL     C5    6  -0.158   0.347  -0.125
    1UNL     O2    7  -0.050   0.334  -0.175
    1UNL     O3    8  -0.225   0.466  -0.137
    1UNL     C6    9  -0.136   0.106  -0.046
    1UNL     C7   10  -0.088   0.061  -0.188
    1UNL     C8   11   0.006  -0.063  -0.155
    1UNL     C9   12   0.118  -0.017  -0.070
    1UNL     N1   13   0.165   0.115  -0.054
    1UNL    C10   14   0.283   0.107   0.027
    1UNL    C11   15   0.358   0.200   0.091
    1UNL    C12   16   0.458   0.165   0.177
    1UNL    C13   17   0.479   0.028   0.210
    1UNL    C14   18   0.404  -0.067   0.152
    1UNL    C15   19   0.305  -0.026   0.062
    1UNL    C16   20   0.201  -0.103  -0.003
    1UNL    C17   21   0.178  -0.254   0.011
    1UNL    C18   22   0.032  -0.292  -0.048
    1UNL    C19   23   0.053  -0.360  -0.183
    1UNL     O4   24   0.104  -0.297  -0.272
    1UNL     O5   25   0.024  -0.492  -0.193
    1UNL     N2   26  -0.052  -0.173  -0.068
    1UNL    C20   27  -0.122  -0.121   0.048
    1UNL    C21   28  -0.218  -0.007   0.011
    1UNL     H1   29  -0.472  -0.026   0.254
    1UNL     H2   30  -0.441  -0.131   0.096
    1UNL     H3   31  -0.344  -0.139   0.259
    1UNL     H4   32  -0.245   0.062   0.206
    1UNL     H5   33  -0.396   0.327  -0.003
    1UNL     H6   34  -0.162   0.537  -0.184
    1UNL     H7   35  -0.053   0.113   0.023
    1UNL     H8   36  -0.044   0.153  -0.239
    1UNL     H9   37  -0.176   0.025  -0.239
    1UNL    H10   38   0.041  -0.111  -0.247
    1UNL    H11   39   0.120   0.198  -0.087
    1UNL    H12   40   0.317   0.297   0.085
    1UNL    H13   41   0.512   0.232   0.240
    1UNL    H14   42   0.554  -0.003   0.288
    1UNL    H15   43   0.423  -0.174   0.174
    1UNL    H16   44   0.180  -0.273   0.117
    1UNL    H17   45   0.262  -0.313  -0.030
    1UNL    H18   46  -0.016  -0.359   0.023
    1UNL    H19   47   0.043  -0.513  -0.288
    1UNL    H20   48  -0.168  -0.205   0.089
    1UNL    H21   49  -0.046  -0.098   0.125
    1UNL    H22   50  -0.280  -0.054  -0.076
   0.00000   0.00000   0.00000   0.00000   0.00000   0.00000   0.00000   0.00000   0.00000
Generated with MDTraj, t= 32.0
 50
    1UNL     C1    1  -0.385  -0.048   0.209
    1UNL     C2    2  -0.312   0.048   0.125
    1UNL     O1    3  -0.404   0.153   0.078
    1UNL     C3    4  -0.345   0.254   0.009
    1UNL     C4    5  -0.223   0.241  -0.044
    1UNL     C5    6  -0.151   0.352  -0.105
    1UNL     O2    7  -0.032   0.334  -0.137
    1UNL     O3    8  -0.230   0.462  -0.134
    1UNL     C6    9  -0.155   0.101  -0.052
    1UNL     C7   10  -0.090   0.056  -0.181
    1UNL     C8   11   0.015  -0.054  -0.153
    1UNL     C9   12   0.127  -0.011  -0.073
    1UNL     N1   13   0.177   0.113  -0.048
    1UNL    C10   14   0.288   0.106   0.033
    1UNL    C11   15   0.368   0.207   0.084
    1UNL    C12   16   0.469   0.162   0.167
    1UNL    C13   17   0.482   0.026   0.209
    1UNL    C14   18   0.403  -0.076   0.156
    1UNL    C15   19   0.302  -0.029   0.073
    1UNL    C16   20   0.204  -0.102  -0.008
    1UNL    C17   21   0.166  -0.247   0.017
    1UNL    C18   22   0.035  -0.285  -0.057
    1UNL    C19   23   0.063  -0.369  -0.187
    1UNL     O4   24   0.069  -0.312  -0.295
    1UNL     O5   25   0.072  -0.501  -0.168
    1UNL     N2   26  -0.052  -0.169  -0.088
    1UNL    C20   27  -0.143  -0.131   0.028
    1UNL    C21   28  -0.237  -0.013  -0.000
    1UNL     H1   29  -0.416  -0.010   0.306
    1UNL     H2   30  -0.475  -0.098   0.153
    1UNL     H3   31  -0.316  -0.137   0.253
    1UNL     H4   32  -0.249   0.105   0.185
    1UNL     H5   33  -0.392   0.354   0.010
    1UNL     H6   34  -0.173   0.534  -0.182
    1UNL     H7   35  -0.071   0.116   0.014
    1UNL     H8   36  -0.041   0.147  -0.231
    1UNL     H9   37  -0.169   0.019  -0.244
    1UNL    H10   38   0.050  -0.097  -0.246
    1UNL    H11   39   0.124   0.199  -0.081
    1UNL    H12   40   0.342   0.314   0.076
    1UNL    H13   41   0.529   0.246   0.200
    1UNL    H14   42   0.565  -0.000   0.267
    1UNL    H15   43   0.412  -0.181   0.168
    1UNL    H16   44   0.171  -0.276   0.120
    1UNL    H17   45   0.247  -0.305  -0.034
    1UNL    H18   46  -0.021  -0.356   0.006
    1UNL    H19   47   0.100  -0.537  -0.253
    1UNL    H20   48  -0.194  -0.214   0.074
    1UNL    H21   49  -0.078  -0.098   0.110
    1UNL    H22   50  -0.310  -0.031  -0.090
   0.00000   0.00000   0.00000   0.00000   0.00000   0.00000   0.00000   0.00000   0.00000
Generated with MDTraj, t= 33.0
 50
    1UNL     C1    1  -0.396  -0.056   0.185
    1UNL     C2    2  -0.317   0.053   0.124
    1UNL     O1    3  -0.408   0.153   0.074
    1UNL     C3    4  -0.341   0.248  -0.006
    1UNL     C4    5  -0.217   0.232  -0.056
    1UNL     C5    6  -0.138   0.347  -0.095
    1UNL     O2    7  -0.015   0.346  -0.106
    1UNL     O3    8  -0.210   0.464  -0.123
    1UNL     C6    9  -0.142   0.105  -0.043
    1UNL     C7   10  -0.090   0.056  -0.179
    1UNL     C8   11   0.011  -0.066  -0.159
    1UNL     C9   12   0.128  -0.026  -0.083
    1UNL     N1   13   0.172   0.101  -0.064
    1UNL    C10   14   0.272   0.104   0.029
    1UNL    C11   15   0.357   0.202   0.074
    1UNL    C12   16   0.464   0.177   0.159
    1UNL    C13   17   0.484   0.043   0.198
    1UNL    C14   18   0.398  -0.061   0.158
    1UNL    C15   19   0.294  -0.027   0.071
    1UNL    C16   20   0.195  -0.110   0.003
    1UNL    C17   21   0.157  -0.252   0.023
    1UNL    C18   22   0.032  -0.290  -0.057
    1UNL    C19   23   0.058  -0.365  -0.185
    1UNL     O4   24   0.033  -0.315  -0.295
    1UNL     O5   25   0.109  -0.485  -0.168
    1UNL     N2   26  -0.056  -0.172  -0.083
    1UNL    C20   27  -0.132  -0.129   0.044
    1UNL    C21   28  -0.227  -0.009   0.012
    1UNL     H1   29  -0.454  -0.027   0.275
    1UNL     H2   30  -0.465  -0.102   0.104
    1UNL     H3   31  -0.331  -0.139   0.237
    1UNL     H4   32  -0.263   0.101   0.202
    1UNL     H5   33  -0.370   0.353   0.008
    1UNL     H6   34  -0.145   0.530  -0.156
    1UNL     H7   35  -0.063   0.122   0.026
    1UNL     H8   36  -0.050   0.140  -0.244
    1UNL     H9   37  -0.180   0.030  -0.235
    1UNL    H10   38   0.043  -0.106  -0.253
    1UNL    H11   39   0.125   0.189  -0.077
    1UNL    H12   40   0.331   0.298   0.036
    1UNL    H13   41   0.539   0.253   0.170
    1UNL    H14   42   0.573   0.017   0.259
    1UNL    H15   43   0.416  -0.166   0.174
    1UNL    H16   44   0.127  -0.263   0.125
    1UNL    H17   45   0.245  -0.321   0.010
    1UNL    H18   46  -0.026  -0.371  -0.010
    1UNL    H19   47   0.110  -0.530  -0.252
    1UNL    H20   48  -0.193  -0.216   0.078
    1UNL    H21   49  -0.071  -0.112   0.131
    1UNL    H22   50  -0.302  -0.046  -0.071
   0.00000   0.00000   0.00000   0.00000   0.00000   0.00000   0.00000   0.00000   0.00000
Generated with MDTraj, t= 34.0
 50
    1UNL     C1    1  -0.425  -0.077   0.161
    1UNL     C2    2  -0.333   0.046   0.124
    1UNL     O1    3  -0.402   0.166   0.083
    1UNL     C3    4  -0.326   0.259   0.009
    1UNL     C4    5  -0.205   0.234  -0.048
    1UNL     C5    6  -0.130   0.347  -0.097
    1UNL     O2    7  -0.023   0.324  -0.149
    1UNL     O3    8  -0.186   0.472  -0.094
    1UNL     C6    9  -0.143   0.104  -0.039
    1UNL     C7   10  -0.098   0.048  -0.175
    1UNL     C8   11  -0.001  -0.071  -0.148
    1UNL     C9   12   0.123  -0.022  -0.085
    1UNL     N1   13   0.176   0.105  -0.080
    1UNL    C10   14   0.283   0.105   0.013
    1UNL    C11   15   0.363   0.207   0.068
    1UNL    C12   16   0.450   0.176   0.170
    1UNL    C13   17   0.475   0.038   0.209
    1UNL    C14   18   0.401  -0.064   0.150
    1UNL    C15   19   0.305  -0.028   0.051
    1UNL    C16   20   0.203  -0.102  -0.013
    1UNL    C17   21   0.171  -0.242   0.015
    1UNL    C18   22   0.039  -0.283  -0.040
    1UNL    C19   23   0.065  -0.358  -0.175
    1UNL     O4   24   0.016  -0.319  -0.281
    1UNL     O5   25   0.136  -0.466  -0.166
    1UNL     N2   26  -0.065  -0.176  -0.069
    1UNL    C20   27  -0.156  -0.143   0.043
    1UNL    C21   28  -0.239  -0.010   0.018
    1UNL     H1   29  -0.511  -0.035   0.228
    1UNL     H2   30  -0.464  -0.123   0.066
    1UNL     H3   31  -0.373  -0.151   0.225
    1UNL     H4   32  -0.275   0.072   0.210
    1UNL     H5   33  -0.359   0.360  -0.016
    1UNL     H6   34  -0.127   0.537  -0.129
    1UNL     H7   35  -0.055   0.114   0.019
    1UNL     H8   36  -0.056   0.132  -0.239
    1UNL     H9   37  -0.180   0.021  -0.243
    1UNL    H10   38   0.026  -0.114  -0.241
    1UNL    H11   39   0.116   0.186  -0.112
    1UNL    H12   40   0.376   0.301   0.015
    1UNL    H13   41   0.505   0.255   0.220
    1UNL    H14   42   0.553   0.016   0.280
    1UNL    H15   43   0.402  -0.169   0.186
    1UNL    H16   44   0.166  -0.256   0.121
    1UNL    H17   45   0.250  -0.313  -0.019
    1UNL    H18   46  -0.015  -0.357   0.021
    1UNL    H19   47   0.140  -0.504  -0.255
    1UNL    H20   48  -0.215  -0.239   0.058
    1UNL    H21   49  -0.107  -0.133   0.135
    1UNL    H22   50  -0.302  -0.039  -0.078
   0.00000   0.00000   0.00000   0.00000   0.00000   0.00000   0.00000   0.00000   0.00000
Generated with MDTraj, t= 35.0
 50
    1UNL     C1    1  -0.438  -0.064   0.153
    1UNL     C2    2  -0.321   0.037   0.123
    1UNL     O1    3  -0.396   0.161   0.099
    1UNL     C3    4  -0.323   0.258   0.031
    1UNL     C4    5  -0.207   0.240  -0.041
    1UNL     C5    6  -0.131   0.347  -0.098
    1UNL     O2    7  -0.023   0.334  -0.154
    1UNL     O3    8  -0.182   0.473  -0.079
    1UNL     C6    9  -0.152   0.102  -0.055
    1UNL     C7   10  -0.100   0.047  -0.188
    1UNL     C8   11   0.004  -0.071  -0.153
    1UNL     C9   12   0.130  -0.026  -0.084
    1UNL     N1   13   0.182   0.103  -0.071
    1UNL    C10   14   0.282   0.104   0.020
    1UNL    C11   15   0.363   0.213   0.063
    1UNL    C12   16   0.461   0.186   0.157
    1UNL    C13   17   0.483   0.051   0.204
    1UNL    C14   18   0.406  -0.051   0.160
    1UNL    C15   19   0.303  -0.027   0.062
    1UNL    C16   20   0.195  -0.106   0.005
    1UNL    C17   21   0.151  -0.248   0.024
    1UNL    C18   22   0.025  -0.295  -0.051
    1UNL    C19   23   0.063  -0.367  -0.180
    1UNL     O4   24   0.003  -0.345  -0.287
    1UNL     O5   25   0.157  -0.468  -0.160
    1UNL     N2   26  -0.064  -0.178  -0.083
    1UNL    C20   27  -0.151  -0.130   0.029
    1UNL    C21   28  -0.246  -0.011  -0.000
    1UNL     H1   29  -0.475  -0.050   0.265
    1UNL     H2   30  -0.520  -0.052   0.079
    1UNL     H3   31  -0.396  -0.163   0.142
    1UNL     H4   32  -0.255   0.065   0.204
    1UNL     H5   33  -0.365   0.357   0.027
    1UNL     H6   34  -0.120   0.531  -0.115
    1UNL     H7   35  -0.067   0.090   0.009
    1UNL     H8   36  -0.045   0.125  -0.243
    1UNL     H9   37  -0.185   0.026  -0.255
    1UNL    H10   38   0.033  -0.112  -0.248
    1UNL    H11   39   0.121   0.180  -0.101
    1UNL    H12   40   0.350   0.310   0.016
    1UNL    H13   41   0.516   0.264   0.206
    1UNL    H14   42   0.535   0.032   0.296
    1UNL    H15   43   0.412  -0.140   0.215
    1UNL    H16   44   0.153  -0.281   0.128
    1UNL    H17   45   0.230  -0.312  -0.017
    1UNL    H18   46  -0.033  -0.372   0.004
    1UNL    H19   47   0.169  -0.506  -0.250
    1UNL    H20   48  -0.221  -0.208   0.070
    1UNL    H21   49  -0.090  -0.112   0.111
    1UNL    H22   50  -0.326  -0.040  -0.083
   0.00000   0.00000   0.00000   0.00000   0.00000   0.00000   0.00000   0.00000   0.00000
Generated with MDTraj, t= 36.0
 50
    1UNL     C1    1  -0.427  -0.068   0.171
    1UNL     C2    2  -0.323   0.037   0.120
    1UNL     O1    3  -0.394   0.162   0.086
    1UNL     C3    4  -0.313   0.252   0.025
    1UNL     C4    5  -0.192   0.240  -0.030
    1UNL     C5    6  -0.128   0.352  -0.093
    1UNL     O2    7  -0.013   0.342  -0.130
    1UNL     O3    8  -0.192   0.472  -0.099
    1UNL     C6    9  -0.137   0.099  -0.054
    1UNL     C7   10  -0.100   0.053  -0.196
    1UNL     C8   11  -0.001  -0.065  -0.164
    1UNL     C9   12   0.121  -0.019  -0.087
    1UNL     N1   13   0.169   0.109  -0.077
    1UNL    C10   14   0.265   0.110   0.022
    1UNL    C11   15   0.359   0.208   0.067
    1UNL    C12   16   0.463   0.173   0.144
    1UNL    C13   17   0.480   0.042   0.192
    1UNL    C14   18   0.381  -0.053   0.165
    1UNL    C15   19   0.277  -0.024   0.077
    1UNL    C16   20   0.187  -0.105   0.002
    1UNL    C17   21   0.149  -0.251   0.022
    1UNL    C18   22   0.015  -0.298  -0.053
    1UNL    C19   23   0.064  -0.377  -0.173
    1UNL     O4   24   0.020  -0.345  -0.279
    1UNL     O5   25   0.164  -0.460  -0.166
    1UNL     N2   26  -0.069  -0.173  -0.088
    1UNL    C20   27  -0.135  -0.129   0.035
    1UNL    C21   28  -0.230  -0.011   0.010
    1UNL     H1   29  -0.505  -0.036   0.239
    1UNL     H2   30  -0.477  -0.134   0.096
    1UNL     H3   31  -0.365  -0.145   0.225
    1UNL     H4   32  -0.264   0.063   0.208
    1UNL     H5   33  -0.357   0.350   0.025
    1UNL     H6   34  -0.140   0.536  -0.137
    1UNL     H7   35  -0.053   0.084   0.009
    1UNL     H8   36  -0.050   0.133  -0.252
    1UNL     H9   37  -0.187   0.015  -0.255
    1UNL    H10   38   0.031  -0.105  -0.259
    1UNL    H11   39   0.125   0.198  -0.101
    1UNL    H12   40   0.348   0.310   0.038
    1UNL    H13   41   0.541   0.243   0.173
    1UNL    H14   42   0.566   0.017   0.255
    1UNL    H15   43   0.381  -0.162   0.196
    1UNL    H16   44   0.132  -0.266   0.131
    1UNL    H17   45   0.234  -0.317   0.009
    1UNL    H18   46  -0.042  -0.368   0.010
    1UNL    H19   47   0.171  -0.506  -0.256
    1UNL    H20   48  -0.197  -0.216   0.070
    1UNL    H21   49  -0.079  -0.108   0.122
    1UNL    H22   50  -0.307  -0.050  -0.071
   0.00000   0.00000   0.00000   0.00000   0.00000   0.00000   0.00000   0.00000   0.00000
Generated with MDTraj, t= 37.0
 50
    1UNL     C1    1  -0.408  -0.051   0.206
    1UNL     C2    2  -0.318   0.049   0.136
    1UNL     O1    3  -0.407   0.160   0.086
    1UNL     C3    4  -0.343   0.248   0.007
    1UNL     C4    5  -0.222   0.239  -0.057
    1UNL     C5    6  -0.139   0.350  -0.105
    1UNL     O2    7  -0.023   0.329  -0.138
    1UNL     O3    8  -0.200   0.471  -0.119
    1UNL     C6    9  -0.149   0.106  -0.045
    1UNL     C7   10  -0.089   0.055  -0.175
    1UNL     C8   11   0.001  -0.068  -0.158
    1UNL     C9   12   0.134  -0.028  -0.088
    1UNL     N1   13   0.185   0.101  -0.071
    1UNL    C10   14   0.299   0.093   0.003
    1UNL    C11   15   0.365   0.197   0.070
    1UNL    C12   16   0.457   0.168   0.170
    1UNL    C13   17   0.465   0.039   0.219
    1UNL    C14   18   0.404  -0.067   0.161
    1UNL    C15   19   0.311  -0.040   0.055
    1UNL    C16   20   0.201  -0.116  -0.011
    1UNL    C17   21   0.145  -0.246   0.029
    1UNL    C18   22   0.023  -0.292  -0.052
    1UNL    C19   23   0.073  -0.350  -0.181
    1UNL     O4   24   0.025  -0.308  -0.282
    1UNL     O5   25   0.160  -0.461  -0.176
    1UNL     N2   26  -0.070  -0.179  -0.081
    1UNL    C20   27  -0.161  -0.132   0.029
    1UNL    C21   28  -0.247  -0.007   0.013
    1UNL     H1   29  -0.463  -0.009   0.281
    1UNL     H2   30  -0.490  -0.100   0.149
    1UNL     H3   31  -0.358  -0.144   0.249
    1UNL     H4   32  -0.234   0.074   0.204
    1UNL     H5   33  -0.405   0.336  -0.008
    1UNL     H6   34  -0.138   0.536  -0.146
    1UNL     H7   35  -0.066   0.117   0.022
    1UNL     H8   36  -0.029   0.133  -0.219
    1UNL     H9   37  -0.168   0.023  -0.247
    1UNL    H10   38   0.017  -0.109  -0.261
    1UNL    H11   39   0.122   0.184  -0.090
    1UNL    H12   40   0.333   0.299   0.047
    1UNL    H13   41   0.514   0.249   0.211
    1UNL    H14   42   0.546   0.021   0.284
    1UNL    H15   43   0.427  -0.161   0.197
    1UNL    H16   44   0.145  -0.268   0.140
    1UNL    H17   45   0.227  -0.311   0.001
    1UNL    H18   46  -0.024  -0.375   0.001
    1UNL    H19   47   0.173  -0.500  -0.265
    1UNL    H20   48  -0.230  -0.211   0.069
    1UNL    H21   49  -0.097  -0.119   0.113
    1UNL    H22   50  -0.322  -0.026  -0.073
   0.00000   0.00000   0.00000   0.00000   0.00000   0.00000   0.00000   0.00000   0.00000
Generated with MDTraj, t= 38.0
 50
    1UNL     C1    1  -0.397  -0.053   0.210
    1UNL     C2    2  -0.307   0.048   0.137
    1UNL     O1    3  -0.398   0.150   0.079
    1UNL     C3    4  -0.342   0.241  -0.002
    1UNL     C4    5  -0.218   0.235  -0.060
    1UNL     C5    6  -0.144   0.344  -0.120
    1UNL     O2    7  -0.027   0.339  -0.159
    1UNL     O3    8  -0.213   0.462  -0.135
    1UNL     C6    9  -0.140   0.112  -0.041
    1UNL     C7   10  -0.094   0.063  -0.178
    1UNL     C8   11  -0.004  -0.056  -0.159
    1UNL     C9   12   0.109  -0.018  -0.067
    1UNL     N1   13   0.165   0.108  -0.052
    1UNL    C10   14   0.278   0.104   0.032
    1UNL    C11   15   0.376   0.196   0.076
    1UNL    C12   16   0.469   0.152   0.163
    1UNL    C13   17   0.478   0.024   0.214
    1UNL    C14   18   0.386  -0.069   0.166
    1UNL    C15   19   0.289  -0.031   0.072
    1UNL    C16   20   0.187  -0.106   0.006
    1UNL    C17   21   0.155  -0.253   0.015
    1UNL    C18   22   0.026  -0.290  -0.058
    1UNL    C19   23   0.061  -0.355  -0.188
    1UNL     O4   24   0.034  -0.301  -0.291
    1UNL     O5   25   0.139  -0.468  -0.183
    1UNL     N2   26  -0.072  -0.174  -0.085
    1UNL    C20   27  -0.122  -0.130   0.044
    1UNL    C21   28  -0.216  -0.013   0.026
    1UNL     H1   29  -0.462  -0.008   0.283
    1UNL     H2   30  -0.467  -0.110   0.151
    1UNL     H3   31  -0.333  -0.129   0.251
    1UNL     H4   32  -0.248   0.100   0.215
    1UNL     H5   33  -0.404   0.330   0.001
    1UNL     H6   34  -0.152   0.520  -0.188
    1UNL     H7   35  -0.056   0.127   0.023
    1UNL     H8   36  -0.037   0.138  -0.229
    1UNL     H9   37  -0.185   0.035  -0.237
    1UNL    H10   38   0.045  -0.080  -0.258
    1UNL    H11   39   0.127   0.190  -0.098
    1UNL    H12   40   0.381   0.299   0.053
    1UNL    H13   41   0.555   0.216   0.188
    1UNL    H14   42   0.552  -0.010   0.291
    1UNL    H15   43   0.401  -0.176   0.192
    1UNL    H16   44   0.149  -0.267   0.127
    1UNL    H17   45   0.239  -0.316  -0.008
    1UNL    H18   46  -0.030  -0.361   0.004
    1UNL    H19   47   0.163  -0.492  -0.272
    1UNL    H20   48  -0.164  -0.213   0.103
    1UNL    H21   49  -0.044  -0.096   0.112
    1UNL    H22   50  -0.296  -0.040  -0.051
   0.00000   0.00000   0.00000   0.00000   0.00000   0.00000   0.00000   0.00000   0.00000
Generated with MDTraj, t= 39.0
 50
    1UNL     C1    1  -0.393  -0.054   0.212
    1UNL     C2    2  -0.305   0.044   0.128
    1UNL     O1    3  -0.382   0.163   0.094
    1UNL     C3    4  -0.328   0.254   0.013
    1UNL     C4    5  -0.214   0.234  -0.054
    1UNL     C5    6  -0.156   0.353  -0.124
    1UNL     O2    7  -0.037   0.344  -0.152
    1UNL     O3    8  -0.238   0.461  -0.144
    1UNL     C6    9  -0.142   0.103  -0.048
    1UNL     C7   10  -0.083   0.058  -0.184
    1UNL     C8   11   0.014  -0.056  -0.164
    1UNL     C9   12   0.128  -0.017  -0.068
    1UNL     N1   13   0.175   0.106  -0.045
    1UNL    C10   14   0.279   0.097   0.045
    1UNL    C11   15   0.362   0.201   0.091
    1UNL    C12   16   0.463   0.166   0.178
    1UNL    C13   17   0.492   0.034   0.205
    1UNL    C14   18   0.414  -0.069   0.159
    1UNL    C15   19   0.302  -0.036   0.079
    1UNL    C16   20   0.196  -0.110   0.011
    1UNL    C17   21   0.155  -0.255   0.010
    1UNL    C18   22   0.027  -0.294  -0.056
    1UNL    C19   23   0.054  -0.364  -0.185
    1UNL     O4   24   0.032  -0.302  -0.289
    1UNL     O5   25   0.112  -0.487  -0.179
    1UNL     N2   26  -0.063  -0.172  -0.094
    1UNL    C20   27  -0.143  -0.130   0.025
    1UNL    C21   28  -0.240  -0.016  -0.001
    1UNL     H1   29  -0.452   0.010   0.281
    1UNL     H2   30  -0.467  -0.097   0.154
    1UNL     H3   31  -0.334  -0.127   0.252
    1UNL     H4   32  -0.227   0.079   0.202
    1UNL     H5   33  -0.372   0.353   0.018
    1UNL     H6   34  -0.194   0.528  -0.209
    1UNL     H7   35  -0.064   0.112   0.024
    1UNL     H8   36  -0.036   0.146  -0.223
    1UNL     H9   37  -0.158   0.032  -0.262
    1UNL    H10   38   0.056  -0.094  -0.264
    1UNL    H11   39   0.129   0.192  -0.082
    1UNL    H12   40   0.346   0.303   0.054
    1UNL    H13   41   0.517   0.236   0.238
    1UNL    H14   42   0.569   0.021   0.274
    1UNL    H15   43   0.425  -0.167   0.202
    1UNL    H16   44   0.149  -0.290   0.118
    1UNL    H17   45   0.236  -0.317  -0.023
    1UNL    H18   46  -0.043  -0.357  -0.001
    1UNL    H19   47   0.147  -0.515  -0.265
    1UNL    H20   48  -0.201  -0.211   0.069
    1UNL    H21   49  -0.076  -0.113   0.112
    1UNL    H22   50  -0.316  -0.037  -0.077
   0.00000   0.00000   0.00000   0.00000   0.00000   0.00000   0.00000   0.00000   0.00000
Generated with MDTraj, t= 40.0
 50
    1UNL     C1    1  -0.409  -0.063   0.192
    1UNL     C2    2  -0.313   0.042   0.134
    1UNL     O1    3  -0.399   0.155   0.103
    1UNL     C3    4  -0.334   0.256   0.031
    1UNL     C4    5  -0.215   0.243  -0.035
    1UNL     C5    6  -0.150   0.347  -0.118
    1UNL     O2    7  -0.036   0.329  -0.157
    1UNL     O3    8  -0.215   0.459  -0.150
    1UNL     C6    9  -0.145   0.110  -0.041
    1UNL     C7   10  -0.089   0.062  -0.183
    1UNL     C8   11   0.009  -0.052  -0.167
    1UNL     C9   12   0.128  -0.010  -0.088
    1UNL     N1   13   0.182   0.115  -0.065
    1UNL    C10   14   0.279   0.106   0.031
    1UNL    C11   15   0.354   0.205   0.098
    1UNL    C12   16   0.446   0.162   0.191
    1UNL    C13   17   0.468   0.024   0.212
    1UNL    C14   18   0.403  -0.074   0.149
    1UNL    C15   19   0.302  -0.034   0.057
    1UNL    C16   20   0.203  -0.101  -0.018
    1UNL    C17   21   0.172  -0.249  -0.005
    1UNL    C18   22   0.038  -0.288  -0.053
    1UNL    C19   23   0.056  -0.370  -0.179
    1UNL     O4   24   0.062  -0.305  -0.283
    1UNL     O5   25   0.085  -0.505  -0.168
    1UNL     N2   26  -0.054  -0.164  -0.083
    1UNL    C20   27  -0.126  -0.120   0.043
    1UNL    C21   28  -0.230  -0.008   0.016
    1UNL     H1   29  -0.484  -0.000   0.246
    1UNL     H2   30  -0.471  -0.099   0.120
    1UNL     H3   31  -0.360  -0.140   0.240
    1UNL     H4   32  -0.234   0.071   0.212
    1UNL     H5   33  -0.395   0.342   0.010
    1UNL     H6   34  -0.141   0.513  -0.204
    1UNL     H7   35  -0.066   0.125   0.028
    1UNL     H8   36  -0.038   0.136  -0.243
    1UNL     H9   37  -0.175   0.038  -0.248
    1UNL    H10   38   0.046  -0.090  -0.269
    1UNL    H11   39   0.134   0.204  -0.079
    1UNL    H12   40   0.350   0.308   0.071
    1UNL    H13   41   0.496   0.241   0.248
    1UNL    H14   42   0.538  -0.009   0.291
    1UNL    H15   43   0.412  -0.174   0.179
    1UNL    H16   44   0.211  -0.296   0.090
    1UNL    H17   45   0.235  -0.308  -0.071
    1UNL    H18   46  -0.019  -0.348   0.017
    1UNL    H19   47   0.120  -0.545  -0.252
    1UNL    H20   48  -0.162  -0.209   0.090
    1UNL    H21   49  -0.055  -0.087   0.126
    1UNL    H22   50  -0.283  -0.039  -0.071
   0.00000   0.00000   0.00000   0.00000   0.00000   0.00000   0.00000   0.00000   0.00000
Generated with MDTraj, t= 41.0
 50
    1UNL     C1    1  -0.401  -0.064   0.189
    1UNL     C2    2  -0.304   0.039   0.132
    1UNL     O1    3  -0.386   0.145   0.089
    1UNL     C3    4  -0.327   0.243   0.006
    1UNL     C4    5  -0.202   0.232  -0.049
    1UNL     C5    6  -0.135   0.352  -0.107
    1UNL     O2    7  -0.017   0.347  -0.131
    1UNL     O3    8  -0.214   0.462  -0.113
    1UNL     C6    9  -0.129   0.101  -0.050
    1UNL     C7   10  -0.082   0.047  -0.190
    1UNL     C8   11   0.014  -0.068  -0.164
    1UNL     C9   12   0.127  -0.023  -0.081
    1UNL     N1   13   0.168   0.109  -0.072
    1UNL    C10   14   0.279   0.113   0.019
    1UNL    C11   15   0.346   0.214   0.082
    1UNL    C12   16   0.434   0.191   0.182
    1UNL    C13   17   0.464   0.059   0.218
    1UNL    C14   18   0.395  -0.047   0.159
    1UNL    C15   19   0.301  -0.018   0.059
    1UNL    C16   20   0.207  -0.105  -0.004
    1UNL    C17   21   0.174  -0.253   0.007
    1UNL    C18   22   0.038  -0.299  -0.050
    1UNL    C19   23   0.040  -0.373  -0.179
    1UNL     O4   24   0.072  -0.310  -0.278
    1UNL     O5   25   0.022  -0.509  -0.191
    1UNL     N2   26  -0.057  -0.176  -0.083
    1UNL    C20   27  -0.125  -0.127   0.039
    1UNL    C21   28  -0.214  -0.006   0.016
    1UNL     H1   29  -0.456  -0.029   0.269
    1UNL     H2   30  -0.484  -0.087   0.130
    1UNL     H3   31  -0.348  -0.155   0.204
    1UNL     H4   32  -0.233   0.089   0.207
    1UNL     H5   33  -0.389   0.329  -0.019
    1UNL     H6   34  -0.151   0.541  -0.143
    1UNL     H7   35  -0.049   0.123   0.018
    1UNL     H8   36  -0.034   0.130  -0.241
    1UNL     H9   37  -0.159   0.013  -0.260
    1UNL    H10   38   0.046  -0.121  -0.261
    1UNL    H11   39   0.120   0.194  -0.106
    1UNL    H12   40   0.322   0.316   0.047
    1UNL    H13   41   0.494   0.273   0.215
    1UNL    H14   42   0.533   0.044   0.297
    1UNL    H15   43   0.422  -0.157   0.172
    1UNL    H16   44   0.181  -0.288   0.113
    1UNL    H17   45   0.257  -0.316  -0.029
    1UNL    H18   46  -0.008  -0.359   0.029
    1UNL    H19   47   0.011  -0.531  -0.288
    1UNL    H20   48  -0.188  -0.205   0.073
    1UNL    H21   49  -0.053  -0.126   0.129
    1UNL    H22   50  -0.277  -0.039  -0.059
   0.00000   0.00000   0.00000   0.00000   0.00000   0.00000   0.00000   0.00000   0.00000
Generated with MDTraj, t= 42.0
 50
    1UNL     C1    1  -0.388  -0.063   0.210
    1UNL     C2    2  -0.308   0.042   0.131
    1UNL     O1    3  -0.400   0.145   0.081
    1UNL     C3    4  -0.332   0.242   0.006
    1UNL     C4    5  -0.210   0.228  -0.052
    1UNL     C5    6  -0.131   0.349  -0.099
    1UNL     O2    7  -0.021   0.322  -0.138
    1UNL     O3    8  -0.180   0.470  -0.086
    1UNL     C6    9  -0.143   0.097  -0.051
    1UNL     C7   10  -0.093   0.046  -0.185
    1UNL     C8   11   0.008  -0.062  -0.165
    1UNL     C9   12   0.128  -0.017  -0.095
    1UNL     N1   13   0.165   0.116  -0.062
    1UNL    C10   14   0.281   0.116   0.018
    1UNL    C11   15   0.345   0.221   0.073
    1UNL    C12   16   0.443   0.191   0.167
    1UNL    C13   17   0.455   0.060   0.220
    1UNL    C14   18   0.389  -0.049   0.165
    1UNL    C15   19   0.293  -0.015   0.065
    1UNL    C16   20   0.201  -0.099  -0.010
    1UNL    C17   21   0.173  -0.241   0.005
    1UNL    C18   22   0.051  -0.288  -0.061
    1UNL    C19   23   0.065  -0.375  -0.179
    1UNL     O4   24   0.128  -0.344  -0.278
    1UNL     O5   25  -0.020  -0.484  -0.181
    1UNL     N2   26  -0.054  -0.177  -0.089
    1UNL    C20   27  -0.140  -0.140   0.023
    1UNL    C21   28  -0.224  -0.012   0.007
    1UNL     H1   29  -0.463  -0.031   0.268
    1UNL     H2   30  -0.449  -0.125   0.147
    1UNL     H3   31  -0.319  -0.133   0.252
    1UNL     H4   32  -0.240   0.111   0.196
    1UNL     H5   33  -0.375   0.342   0.004
    1UNL     H6   34  -0.107   0.537  -0.119
    1UNL     H7   35  -0.062   0.109   0.020
    1UNL     H8   36  -0.047   0.124  -0.247
    1UNL     H9   37  -0.178   0.006  -0.237
    1UNL    H10   38   0.034  -0.112  -0.264
    1UNL    H11   39   0.101   0.197  -0.086
    1UNL    H12   40   0.314   0.317   0.032
    1UNL    H13   41   0.497   0.274   0.211
    1UNL    H14   42   0.542   0.047   0.286
    1UNL    H15   43   0.406  -0.145   0.194
    1UNL    H16   44   0.182  -0.269   0.112
    1UNL    H17   45   0.254  -0.310  -0.029
    1UNL    H18   46   0.008  -0.351   0.019
    1UNL    H19   47  -0.017  -0.527  -0.269
    1UNL    H20   48  -0.194  -0.224   0.055
    1UNL    H21   49  -0.074  -0.130   0.117
    1UNL    H22   50  -0.300  -0.032  -0.058
   0.00000   0.00000   0.00000   0.00000   0.00000   0.00000   0.00000   0.00000   0.00000
Generated with MDTraj, t= 43.0
 50
    1UNL     C1    1  -0.394  -0.070   0.186
    1UNL     C2    2  -0.310   0.041   0.125
    1UNL     O1    3  -0.393   0.158   0.093
    1UNL     C3    4  -0.325   0.257   0.024
    1UNL     C4    5  -0.216   0.233  -0.052
    1UNL     C5    6  -0.143   0.355  -0.096
    1UNL     O2    7  -0.045   0.342  -0.166
    1UNL     O3    8  -0.195   0.477  -0.074
    1UNL     C6    9  -0.151   0.102  -0.059
    1UNL     C7   10  -0.097   0.051  -0.192
    1UNL     C8   11   0.008  -0.060  -0.161
    1UNL     C9   12   0.133  -0.026  -0.091
    1UNL     N1   13   0.165   0.107  -0.078
    1UNL    C10   14   0.267   0.110   0.023
    1UNL    C11   15   0.341   0.213   0.081
    1UNL    C12   16   0.443   0.185   0.168
    1UNL    C13   17   0.470   0.050   0.206
    1UNL    C14   18   0.396  -0.050   0.151
    1UNL    C15   19   0.296  -0.023   0.059
    1UNL    C16   20   0.215  -0.108  -0.015
    1UNL    C17   21   0.171  -0.251   0.014
    1UNL    C18   22   0.044  -0.293  -0.050
    1UNL    C19   23   0.069  -0.370  -0.174
    1UNL     O4   24   0.174  -0.364  -0.231
    1UNL     O5   25  -0.032  -0.459  -0.201
    1UNL     N2   26  -0.052  -0.180  -0.083
    1UNL    C20   27  -0.129  -0.136   0.029
    1UNL    C21   28  -0.227  -0.018   0.006
    1UNL     H1   29  -0.462  -0.020   0.258
    1UNL     H2   30  -0.467  -0.107   0.118
    1UNL     H3   31  -0.331  -0.146   0.218
    1UNL     H4   32  -0.228   0.075   0.202
    1UNL     H5   33  -0.365   0.356   0.042
    1UNL     H6   34  -0.137   0.536  -0.132
    1UNL     H7   35  -0.062   0.113  -0.001
    1UNL     H8   36  -0.053   0.132  -0.252
    1UNL     H9   37  -0.174   0.002  -0.248
    1UNL    H10   38   0.049  -0.103  -0.255
    1UNL    H11   39   0.124   0.193  -0.109
    1UNL    H12   40   0.311   0.314   0.062
    1UNL    H13   41   0.499   0.273   0.196
    1UNL    H14   42   0.533   0.019   0.287
    1UNL    H15   43   0.413  -0.158   0.173
    1UNL    H16   44   0.163  -0.280   0.120
    1UNL    H17   45   0.256  -0.323  -0.008
    1UNL    H18   46  -0.011  -0.362   0.018
    1UNL    H19   47  -0.017  -0.493  -0.290
    1UNL    H20   48  -0.182  -0.217   0.072
    1UNL    H21   49  -0.051  -0.119   0.110
    1UNL    H22   50  -0.288  -0.058  -0.065
   0.00000   0.00000   0.00000   0.00000   0.00000   0.00000   0.00000   0.00000   0.00000
Generated with MDTraj, t= 44.0
 50
    1UNL     C1    1  -0.414  -0.075   0.176
    1UNL     C2    2  -0.314   0.034   0.133
    1UNL     O1    3  -0.384   0.154   0.093
    1UNL     C3    4  -0.316   0.248   0.031
    1UNL     C4    5  -0.203   0.228  -0.035
    1UNL     C5    6  -0.138   0.342  -0.104
    1UNL     O2    7  -0.028   0.324  -0.152
    1UNL     O3    8  -0.215   0.452  -0.122
    1UNL     C6    9  -0.142   0.096  -0.040
    1UNL     C7   10  -0.097   0.046  -0.178
    1UNL     C8   11   0.005  -0.062  -0.155
    1UNL     C9   12   0.133  -0.015  -0.088
    1UNL     N1   13   0.177   0.112  -0.071
    1UNL    C10   14   0.280   0.109   0.021
    1UNL    C11   15   0.357   0.218   0.069
    1UNL    C12   16   0.458   0.192   0.164
    1UNL    C13   17   0.483   0.058   0.200
    1UNL    C14   18   0.403  -0.044   0.157
    1UNL    C15   19   0.297  -0.022   0.066
    1UNL    C16   20   0.196  -0.099   0.002
    1UNL    C17   21   0.156  -0.239   0.021
    1UNL    C18   22   0.031  -0.293  -0.052
    1UNL    C19   23   0.059  -0.369  -0.181
    1UNL     O4   24   0.171  -0.371  -0.220
    1UNL     O5   25  -0.042  -0.421  -0.257
    1UNL     N2   26  -0.065  -0.179  -0.078
    1UNL    C20   27  -0.124  -0.132   0.045
    1UNL    C21   28  -0.230  -0.021   0.018
    1UNL     H1   29  -0.473  -0.036   0.266
    1UNL     H2   30  -0.489  -0.086   0.103
    1UNL     H3   31  -0.357  -0.161   0.187
    1UNL     H4   32  -0.247   0.060   0.228
    1UNL     H5   33  -0.362   0.345   0.044
    1UNL     H6   34  -0.160   0.523  -0.160
    1UNL     H7   35  -0.057   0.108   0.023
    1UNL     H8   36  -0.046   0.122  -0.239
    1UNL     H9   37  -0.178   0.006  -0.235
    1UNL    H10   38   0.031  -0.110  -0.249
    1UNL    H11   39   0.111   0.192  -0.096
    1UNL    H12   40   0.315   0.308   0.022
    1UNL    H13   41   0.513   0.274   0.208
    1UNL    H14   42   0.557   0.051   0.280
    1UNL    H15   43   0.412  -0.140   0.208
    1UNL    H16   44   0.168  -0.269   0.126
    1UNL    H17   45   0.238  -0.309  -0.017
    1UNL    H18   46  -0.022  -0.367   0.012
    1UNL    H19   47   0.001  -0.474  -0.324
    1UNL    H20   48  -0.169  -0.220   0.089
    1UNL    H21   49  -0.058  -0.091   0.126
    1UNL    H22   50  -0.287  -0.055  -0.061
   0.00000   0.00000   0.00000   0.00000   0.00000   0.00000   0.00000   0.00000   0.00000
Generated with MDTraj, t= 45.0
 50
    1UNL     C1    1  -0.411  -0.070   0.196
    1UNL     C2    2  -0.312   0.037   0.139
    1UNL     O1    3  -0.395   0.158   0.105
    1UNL     C3    4  -0.336   0.241   0.021
    1UNL     C4    5  -0.216   0.228  -0.042
    1UNL     C5    6  -0.145   0.334  -0.112
    1UNL     O2    7  -0.024   0.330  -0.116
    1UNL     O3    8  -0.219   0.437  -0.168
    1UNL     C6    9  -0.142   0.095  -0.045
    1UNL     C7   10  -0.101   0.041  -0.182
    1UNL     C8   11  -0.003  -0.069  -0.142
    1UNL     C9   12   0.125  -0.023  -0.075
    1UNL     N1   13   0.179   0.107  -0.070
    1UNL    C10   14   0.289   0.107   0.013
    1UNL    C11   15   0.376   0.213   0.063
    1UNL    C12   16   0.472   0.187   0.156
    1UNL    C13   17   0.483   0.054   0.209
    1UNL    C14   18   0.399  -0.050   0.159
    1UNL    C15   19   0.300  -0.025   0.061
    1UNL    C16   20   0.203  -0.104   0.004
    1UNL    C17   21   0.172  -0.249   0.022
    1UNL    C18   22   0.041  -0.294  -0.045
    1UNL    C19   23   0.065  -0.346  -0.190
    1UNL     O4   24   0.180  -0.372  -0.214
    1UNL     O5   25  -0.039  -0.364  -0.278
    1UNL     N2   26  -0.064  -0.180  -0.063
    1UNL    C20   27  -0.151  -0.145   0.051
    1UNL    C21   28  -0.235  -0.019   0.016
    1UNL     H1   29  -0.483  -0.015   0.261
    1UNL     H2   30  -0.480  -0.106   0.122
    1UNL     H3   31  -0.363  -0.156   0.246
    1UNL     H4   32  -0.242   0.075   0.229
    1UNL     H5   33  -0.395   0.332   0.019
    1UNL     H6   34  -0.158   0.501  -0.193
    1UNL     H7   35  -0.062   0.111   0.023
    1UNL     H8   36  -0.043   0.115  -0.236
    1UNL     H9   37  -0.180   0.006  -0.245
    1UNL    H10   38   0.036  -0.108  -0.234
    1UNL    H11   39   0.136   0.194  -0.098
    1UNL    H12   40   0.387   0.305   0.011
    1UNL    H13   41   0.536   0.267   0.193
    1UNL    H14   42   0.563   0.032   0.278
    1UNL    H15   43   0.402  -0.142   0.205
    1UNL    H16   44   0.182  -0.287   0.123
    1UNL    H17   45   0.259  -0.307  -0.026
    1UNL    H18   46  -0.015  -0.374   0.008
    1UNL    H19   47  -0.003  -0.413  -0.352
    1UNL    H20   48  -0.230  -0.223   0.071
    1UNL    H21   49  -0.091  -0.137   0.143
    1UNL    H22   50  -0.302  -0.044  -0.062
   0.00000   0.00000   0.00000   0.00000   0.00000   0.00000   0.00000   0.00000   0.00000
Generated with MDTraj, t= 46.0
 50
    1UNL     C1    1  -0.384  -0.065   0.208
    1UNL     C2    2  -0.308   0.049   0.143
    1UNL     O1    3  -0.406   0.135   0.081
    1UNL     C3    4  -0.352   0.233   0.008
    1UNL     C4    5  -0.224   0.238  -0.041
    1UNL     C5    6  -0.165   0.344  -0.122
    1UNL     O2    7  -0.049   0.335  -0.152
    1UNL     O3    8  -0.235   0.453  -0.152
    1UNL     C6    9  -0.136   0.109  -0.034
    1UNL     C7   10  -0.084   0.051  -0.173
    1UNL     C8   11   0.007  -0.068  -0.150
    1UNL     C9   12   0.134  -0.024  -0.075
    1UNL     N1   13   0.171   0.110  -0.062
    1UNL    C10   14   0.276   0.104   0.027
    1UNL    C11   15   0.362   0.200   0.078
    1UNL    C12   16   0.469   0.166   0.156
    1UNL    C13   17   0.496   0.028   0.188
    1UNL    C14   18   0.406  -0.066   0.146
    1UNL    C15   19   0.299  -0.032   0.062
    1UNL    C16   20   0.197  -0.110   0.006
    1UNL    C17   21   0.162  -0.254   0.026
    1UNL    C18   22   0.029  -0.295  -0.044
    1UNL    C19   23   0.074  -0.347  -0.180
    1UNL     O4   24   0.186  -0.398  -0.194
    1UNL     O5   25  -0.012  -0.337  -0.282
    1UNL     N2   26  -0.064  -0.175  -0.071
    1UNL    C20   27  -0.136  -0.125   0.053
    1UNL    C21   28  -0.224  -0.005   0.029
    1UNL     H1   29  -0.450  -0.029   0.285
    1UNL     H2   30  -0.461  -0.120   0.147
    1UNL     H3   31  -0.311  -0.138   0.259
    1UNL     H4   32  -0.244   0.110   0.224
    1UNL     H5   33  -0.425   0.309  -0.020
    1UNL     H6   34  -0.179   0.502  -0.204
    1UNL     H7   35  -0.061   0.127   0.038
    1UNL     H8   36  -0.035   0.131  -0.228
    1UNL     H9   37  -0.166   0.029  -0.241
    1UNL    H10   38   0.035  -0.108  -0.243
    1UNL    H11   39   0.105   0.189  -0.087
    1UNL    H12   40   0.351   0.306   0.049
    1UNL    H13   41   0.545   0.238   0.170
    1UNL    H14   42   0.577   0.000   0.254
    1UNL    H15   43   0.444  -0.172   0.166
    1UNL    H16   44   0.153  -0.273   0.133
    1UNL    H17   45   0.246  -0.325  -0.004
    1UNL    H18   46  -0.024  -0.379   0.008
    1UNL    H19   47   0.045  -0.360  -0.359
    1UNL    H20   48  -0.187  -0.221   0.096
    1UNL    H21   49  -0.066  -0.096   0.129
    1UNL    H22   50  -0.296  -0.028  -0.049
   0.00000   0.00000   0.00000   0.00000   0.00000   0.00000   0.00000   0.00000   0.00000
Generated with MDTraj, t= 47.0
 50
    1UNL     C1    1  -0.386  -0.051   0.230
    1UNL     C2    2  -0.311   0.046   0.130
    1UNL     O1    3  -0.406   0.147   0.092
    1UNL     C3    4  -0.348   0.243   0.011
    1UNL     C4    5  -0.238   0.225  -0.066
    1UNL     C5    6  -0.182   0.346  -0.125
    1UNL     O2    7  -0.073   0.330  -0.175
    1UNL     O3    8  -0.246   0.463  -0.111
    1UNL     C6    9  -0.147   0.101  -0.056
    1UNL     C7   10  -0.088   0.050  -0.190
    1UNL     C8   11   0.013  -0.062  -0.158
    1UNL     C9   12   0.130  -0.016  -0.070
    1UNL     N1   13   0.182   0.115  -0.053
    1UNL    C10   14   0.289   0.106   0.030
    1UNL    C11   15   0.382   0.209   0.076
    1UNL    C12   16   0.484   0.160   0.159
    1UNL    C13   17   0.495   0.031   0.197
    1UNL    C14   18   0.411  -0.070   0.152
    1UNL    C15   19   0.302  -0.030   0.077
    1UNL    C16   20   0.200  -0.107   0.010
    1UNL    C17   21   0.164  -0.248   0.028
    1UNL    C18   22   0.038  -0.288  -0.053
    1UNL    C19   23   0.070  -0.360  -0.182
    1UNL     O4   24   0.159  -0.447  -0.175
    1UNL     O5   25   0.008  -0.317  -0.294
    1UNL     N2   26  -0.055  -0.175  -0.086
    1UNL    C20   27  -0.128  -0.129   0.047
    1UNL    C21   28  -0.226  -0.020   0.014
    1UNL     H1   29  -0.430  -0.006   0.316
    1UNL     H2   30  -0.487  -0.101   0.197
    1UNL     H3   31  -0.316  -0.130   0.275
    1UNL     H4   32  -0.225   0.105   0.191
    1UNL     H5   33  -0.408   0.330  -0.006
    1UNL     H6   34  -0.206   0.526  -0.165
    1UNL     H7   35  -0.066   0.122   0.009
    1UNL     H8   36  -0.051   0.129  -0.254
    1UNL     H9   37  -0.173   0.012  -0.247
    1UNL    H10   38   0.046  -0.104  -0.249
    1UNL    H11   39   0.143   0.211  -0.071
    1UNL    H12   40   0.369   0.310   0.049
    1UNL    H13   41   0.557   0.226   0.209
    1UNL    H14   42   0.587   0.009   0.250
    1UNL    H15   43   0.421  -0.170   0.177
    1UNL    H16   44   0.135  -0.269   0.132
    1UNL    H17   45   0.250  -0.318   0.005
    1UNL    H18   46  -0.012  -0.362   0.012
    1UNL    H19   47   0.053  -0.358  -0.373
    1UNL    H20   48  -0.186  -0.222   0.091
    1UNL    H21   49  -0.052  -0.110   0.121
    1UNL    H22   50  -0.295  -0.058  -0.063
   0.00000   0.00000   0.00000   0.00000   0.00000   0.00000   0.00000   0.00000   0.00000
Generated with MDTraj, t= 48.0
 50
    1UNL     C1    1  -0.384  -0.073   0.202
    1UNL     C2    2  -0.299   0.037   0.135
    1UNL     O1    3  -0.397   0.134   0.097
    1UNL     C3    4  -0.340   0.244   0.027
    1UNL     C4    5  -0.226   0.235  -0.046
    1UNL     C5    6  -0.178   0.351  -0.121
    1UNL     O2    7  -0.076   0.338  -0.184
    1UNL     O3    8  -0.253   0.468  -0.121
    1UNL     C6    9  -0.147   0.103  -0.038
    1UNL     C7   10  -0.084   0.057  -0.172
    1UNL     C8   11   0.012  -0.058  -0.156
    1UNL     C9   12   0.130  -0.016  -0.069
    1UNL     N1   13   0.183   0.112  -0.065
    1UNL    C10   14   0.299   0.105   0.014
    1UNL    C11   15   0.389   0.199   0.060
    1UNL    C12   16   0.475   0.173   0.157
    1UNL    C13   17   0.483   0.047   0.213
    1UNL    C14   18   0.409  -0.054   0.164
    1UNL    C15   19   0.310  -0.029   0.065
    1UNL    C16   20   0.202  -0.107   0.007
    1UNL    C17   21   0.167  -0.247   0.035
    1UNL    C18   22   0.036  -0.288  -0.053
    1UNL    C19   23   0.061  -0.368  -0.179
    1UNL     O4   24   0.106  -0.482  -0.169
    1UNL     O5   25   0.041  -0.304  -0.296
    1UNL     N2   26  -0.053  -0.172  -0.092
    1UNL    C20   27  -0.138  -0.136   0.033
    1UNL    C21   28  -0.226  -0.017   0.018
    1UNL     H1   29  -0.475  -0.031   0.248
    1UNL     H2   30  -0.437  -0.152   0.134
    1UNL     H3   31  -0.320  -0.121   0.280
    1UNL     H4   32  -0.236   0.101   0.216
    1UNL     H5   33  -0.391   0.338   0.034
    1UNL     H6   34  -0.216   0.522  -0.190
    1UNL     H7   35  -0.067   0.116   0.030
    1UNL     H8   36  -0.032   0.139  -0.216
    1UNL     H9   37  -0.162   0.033  -0.244
    1UNL    H10   38   0.045  -0.091  -0.252
    1UNL    H11   39   0.144   0.197  -0.115
    1UNL    H12   40   0.372   0.303   0.030
    1UNL    H13   41   0.528   0.253   0.199
    1UNL    H14   42   0.539   0.017   0.300
    1UNL    H15   43   0.418  -0.155   0.211
    1UNL    H16   44   0.149  -0.262   0.143
    1UNL    H17   45   0.254  -0.307  -0.000
    1UNL    H18   46  -0.013  -0.359   0.016
    1UNL    H19   47   0.078  -0.359  -0.369
    1UNL    H20   48  -0.187  -0.232   0.075
    1UNL    H21   49  -0.071  -0.107   0.116
    1UNL    H22   50  -0.304  -0.041  -0.056
   0.00000   0.00000   0.00000   0.00000   0.00000   0.00000   0.00000   0.00000   0.00000
Generated with MDTraj, t= 49.0
 50
    1UNL     C1    1  -0.409  -0.079   0.175
    1UNL     C2    2  -0.299   0.027   0.139
    1UNL     O1    3  -0.383   0.149   0.123
    1UNL     C3    4  -0.344   0.236   0.025
    1UNL     C4    5  -0.228   0.234  -0.043
    1UNL     C5    6  -0.172   0.348  -0.115
    1UNL     O2    7  -0.057   0.342  -0.152
    1UNL     O3    8  -0.254   0.456  -0.145
    1UNL     C6    9  -0.140   0.113  -0.036
    1UNL     C7   10  -0.092   0.062  -0.175
    1UNL     C8   11   0.001  -0.059  -0.158
    1UNL     C9   12   0.126  -0.016  -0.088
    1UNL     N1   13   0.183   0.113  -0.079
    1UNL    C10   14   0.285   0.103   0.014
    1UNL    C11   15   0.368   0.204   0.062
    1UNL    C12   16   0.459   0.172   0.155
    1UNL    C13   17   0.472   0.042   0.199
    1UNL    C14   18   0.393  -0.058   0.158
    1UNL    C15   19   0.302  -0.029   0.056
    1UNL    C16   20   0.203  -0.103  -0.014
    1UNL    C17   21   0.181  -0.246   0.018
    1UNL    C18   22   0.044  -0.290  -0.046
    1UNL    C19   23   0.069  -0.369  -0.172
    1UNL     O4   24   0.064  -0.491  -0.162
    1UNL     O5   25   0.092  -0.295  -0.284
    1UNL     N2   26  -0.056  -0.172  -0.073
    1UNL    C20   27  -0.110  -0.125   0.053
    1UNL    C21   28  -0.212  -0.016   0.024
    1UNL     H1   29  -0.451  -0.054   0.282
    1UNL     H2   30  -0.504  -0.057   0.116
    1UNL     H3   31  -0.374  -0.183   0.170
    1UNL     H4   32  -0.236   0.054   0.238
    1UNL     H5   33  -0.392   0.334   0.013
    1UNL     H6   34  -0.196   0.526  -0.186
    1UNL     H7   35  -0.056   0.141   0.022
    1UNL     H8   36  -0.040   0.133  -0.235
    1UNL     H9   37  -0.181   0.029  -0.229
    1UNL    H10   38   0.021  -0.103  -0.254
    1UNL    H11   39   0.131   0.197  -0.119
    1UNL    H12   40   0.365   0.305   0.028
    1UNL    H13   41   0.530   0.248   0.196
    1UNL    H14   42   0.539   0.027   0.284
    1UNL    H15   43   0.393  -0.162   0.181
    1UNL    H16   44   0.177  -0.246   0.130
    1UNL    H17   45   0.265  -0.301  -0.031
    1UNL    H18   46   0.002  -0.366   0.021
    1UNL    H19   47   0.105  -0.361  -0.354
    1UNL    H20   48  -0.166  -0.210   0.104
    1UNL    H21   49  -0.024  -0.097   0.121
    1UNL    H22   50  -0.274  -0.063  -0.056
   0.00000   0.00000   0.00000   0.00000   0.00000   0.00000   0.00000   0.00000   0.00000
Generated with MDTraj, t= 50.0
 50
    1UNL     C1    1  -0.423  -0.070   0.199
    1UNL     C2    2  -0.316   0.027   0.141
    1UNL     O1    3  -0.384   0.152   0.108
    1UNL     C3    4  -0.321   0.245   0.036
    1UNL     C4    5  -0.206   0.229  -0.025
    1UNL     C5    6  -0.147   0.334  -0.106
    1UNL     O2    7  -0.033   0.326  -0.145
    1UNL     O3    8  -0.232   0.438  -0.147
    1UNL     C6    9  -0.145   0.094  -0.031
    1UNL     C7   10  -0.098   0.049  -0.176
    1UNL     C8   11   0.009  -0.062  -0.160
    1UNL     C9   12   0.135  -0.018  -0.089
    1UNL     N1   13   0.167   0.110  -0.070
    1UNL    C10   14   0.275   0.116   0.015
    1UNL    C11   15   0.339   0.222   0.079
    1UNL    C12   16   0.451   0.198   0.159
    1UNL    C13   17   0.491   0.065   0.184
    1UNL    C14   18   0.420  -0.042   0.138
    1UNL    C15   19   0.308  -0.015   0.051
    1UNL    C16   20   0.204  -0.101  -0.001
    1UNL    C17   21   0.175  -0.243   0.020
    1UNL    C18   22   0.046  -0.283  -0.047
    1UNL    C19   23   0.063  -0.368  -0.178
    1UNL     O4   24   0.015  -0.477  -0.187
    1UNL     O5   25   0.128  -0.311  -0.279
    1UNL     N2   26  -0.054  -0.177  -0.079
    1UNL    C20   27  -0.146  -0.147   0.038
    1UNL    C21   28  -0.234  -0.023   0.020
    1UNL     H1   29  -0.511  -0.020   0.260
    1UNL     H2   30  -0.477  -0.116   0.115
    1UNL     H3   31  -0.370  -0.150   0.258
    1UNL     H4   32  -0.239   0.056   0.229
    1UNL     H5   33  -0.380   0.336   0.024
    1UNL     H6   34  -0.167   0.507  -0.186
    1UNL     H7   35  -0.058   0.100   0.029
    1UNL     H8   36  -0.059   0.131  -0.230
    1UNL     H9   37  -0.178   0.009  -0.237
    1UNL    H10   38   0.037  -0.100  -0.259
    1UNL    H11   39   0.109   0.188  -0.094
    1UNL    H12   40   0.316   0.323   0.048
    1UNL    H13   41   0.509   0.263   0.218
    1UNL    H14   42   0.587   0.046   0.227
    1UNL    H15   43   0.441  -0.141   0.172
    1UNL    H16   44   0.169  -0.262   0.132
    1UNL    H17   45   0.260  -0.285  -0.039
    1UNL    H18   46  -0.007  -0.351   0.019
    1UNL    H19   47   0.118  -0.370  -0.355
    1UNL    H20   48  -0.198  -0.241   0.070
    1UNL    H21   49  -0.076  -0.116   0.127
    1UNL    H22   50  -0.295  -0.054  -0.069
   0.00000   0.00000   0.00000   0.00000   0.00000   0.00000   0.00000   0.00000   0.00000
Generated with MDTraj, t= 51.0
 50
    1UNL     C1    1  -0.393  -0.067   0.215
    1UNL     C2    2  -0.314   0.033   0.137
    1UNL     O1    3  -0.401   0.144   0.096
    1UNL     C3    4  -0.335   0.237   0.025
    1UNL     C4    5  -0.224   0.225  -0.048
    1UNL     C5    6  -0.144   0.340  -0.109
    1UNL     O2    7  -0.028   0.328  -0.147
    1UNL     O3    8  -0.200   0.465  -0.111
    1UNL     C6    9  -0.160   0.090  -0.055
    1UNL     C7   10  -0.101   0.030  -0.192
    1UNL     C8   11   0.005  -0.069  -0.143
    1UNL     C9   12   0.118  -0.015  -0.064
    1UNL     N1   13   0.154   0.113  -0.054
    1UNL    C10   14   0.264   0.116   0.024
    1UNL    C11   15   0.345   0.226   0.060
    1UNL    C12   16   0.452   0.206   0.148
    1UNL    C13   17   0.489   0.074   0.181
    1UNL    C14   18   0.415  -0.034   0.142
    1UNL    C15   19   0.302  -0.018   0.060
    1UNL    C16   20   0.204  -0.100   0.005
    1UNL    C17   21   0.185  -0.254   0.001
    1UNL    C18   22   0.049  -0.300  -0.050
    1UNL    C19   23   0.062  -0.374  -0.179
    1UNL     O4   24  -0.022  -0.456  -0.207
    1UNL     O5   25   0.163  -0.327  -0.258
    1UNL     N2   26  -0.056  -0.190  -0.074
    1UNL    C20   27  -0.132  -0.136   0.043
    1UNL    C21   28  -0.235  -0.024   0.014
    1UNL     H1   29  -0.456  -0.034   0.300
    1UNL     H2   30  -0.469  -0.113   0.146
    1UNL     H3   31  -0.321  -0.152   0.251
    1UNL     H4   32  -0.233   0.081   0.211
    1UNL     H5   33  -0.394   0.326   0.036
    1UNL     H6   34  -0.128   0.531  -0.152
    1UNL     H7   35  -0.072   0.097   0.004
    1UNL     H8   36  -0.076   0.105  -0.264
    1UNL     H9   37  -0.177  -0.027  -0.241
    1UNL    H10   38   0.062  -0.106  -0.233
    1UNL    H11   39   0.100   0.189  -0.096
    1UNL    H12   40   0.330   0.331   0.039
    1UNL    H13   41   0.513   0.299   0.156
    1UNL    H14   42   0.578   0.044   0.237
    1UNL    H15   43   0.448  -0.139   0.158
    1UNL    H16   44   0.195  -0.274   0.112
    1UNL    H17   45   0.268  -0.300  -0.054
    1UNL    H18   46   0.007  -0.375   0.017
    1UNL    H19   47   0.145  -0.360  -0.347
    1UNL    H20   48  -0.183  -0.222   0.092
    1UNL    H21   49  -0.053  -0.102   0.127
    1UNL    H22   50  -0.309  -0.064  -0.061
   0.00000   0.00000   0.00000   0.00000   0.00000   0.00000   0.00000   0.00000   0.00000
Generated with MDTraj, t= 52.0
 50
    1UNL     C1    1  -0.370  -0.076   0.225
    1UNL     C2    2  -0.313   0.035   0.140
    1UNL     O1    3  -0.411   0.130   0.071
    1UNL     C3    4  -0.345   0.220   0.000
    1UNL     C4    5  -0.220   0.226  -0.053
    1UNL     C5    6  -0.160   0.349  -0.105
    1UNL     O2    7  -0.055   0.342  -0.162
    1UNL     O3    8  -0.224   0.466  -0.077
    1UNL     C6    9  -0.141   0.103  -0.039
    1UNL     C7   10  -0.095   0.045  -0.179
    1UNL     C8   11  -0.002  -0.069  -0.160
    1UNL     C9   12   0.137  -0.020  -0.098
    1UNL     N1   13   0.174   0.108  -0.083
    1UNL    C10   14   0.280   0.114   0.005
    1UNL    C11   15   0.358   0.216   0.052
    1UNL    C12   16   0.457   0.188   0.152
    1UNL    C13   17   0.472   0.056   0.197
    1UNL    C14   18   0.404  -0.049   0.140
    1UNL    C15   19   0.302  -0.013   0.050
    1UNL    C16   20   0.203  -0.099  -0.005
    1UNL    C17   21   0.172  -0.247   0.021
    1UNL    C18   22   0.036  -0.287  -0.042
    1UNL    C19   23   0.057  -0.368  -0.167
    1UNL     O4   24  -0.027  -0.437  -0.220
    1UNL     O5   25   0.179  -0.350  -0.224
    1UNL     N2   26  -0.055  -0.172  -0.077
    1UNL    C20   27  -0.117  -0.136   0.049
    1UNL    C21   28  -0.216  -0.016   0.027
    1UNL     H1   29  -0.423  -0.038   0.312
    1UNL     H2   30  -0.458  -0.125   0.170
    1UNL     H3   31  -0.295  -0.156   0.261
    1UNL     H4   32  -0.244   0.099   0.213
    1UNL     H5   33  -0.406   0.307  -0.012
    1UNL     H6   34  -0.167   0.542  -0.122
    1UNL     H7   35  -0.056   0.124   0.020
    1UNL     H8   36  -0.053   0.124  -0.238
    1UNL     H9   37  -0.179   0.015  -0.237
    1UNL    H10   38   0.025  -0.113  -0.261
    1UNL    H11   39   0.112   0.189  -0.110
    1UNL    H12   40   0.318   0.313   0.025
    1UNL    H13   41   0.514   0.264   0.198
    1UNL    H14   42   0.546   0.048   0.274
    1UNL    H15   43   0.409  -0.146   0.173
    1UNL    H16   44   0.187  -0.275   0.129
    1UNL    H17   45   0.252  -0.299  -0.035
    1UNL    H18   46  -0.018  -0.345   0.033
    1UNL    H19   47   0.171  -0.393  -0.313
    1UNL    H20   48  -0.171  -0.219   0.104
    1UNL    H21   49  -0.031  -0.110   0.122
    1UNL    H22   50  -0.298  -0.050  -0.044
   0.00000   0.00000   0.00000   0.00000   0.00000   0.00000   0.00000   0.00000   0.00000
Generated with MDTraj, t= 53.0
 50
    1UNL     C1    1  -0.392  -0.075   0.215
    1UNL     C2    2  -0.313   0.039   0.143
    1UNL     O1    3  -0.400   0.147   0.110
    1UNL     C3    4  -0.353   0.231   0.013
    1UNL     C4    5  -0.233   0.223  -0.051
    1UNL     C5    6  -0.163   0.341  -0.099
    1UNL     O2    7  -0.048   0.342  -0.137
    1UNL     O3    8  -0.248   0.452  -0.108
    1UNL     C6    9  -0.153   0.095  -0.042
    1UNL     C7   10  -0.094   0.050  -0.177
    1UNL     C8   11   0.001  -0.063  -0.156
    1UNL     C9   12   0.137  -0.020  -0.107
    1UNL     N1   13   0.189   0.110  -0.097
    1UNL    C10   14   0.289   0.107  -0.000
    1UNL    C11   15   0.372   0.210   0.048
    1UNL    C12   16   0.463   0.192   0.151
    1UNL    C13   17   0.477   0.059   0.203
    1UNL    C14   18   0.397  -0.046   0.153
    1UNL    C15   19   0.300  -0.022   0.055
    1UNL    C16   20   0.213  -0.101  -0.020
    1UNL    C17   21   0.170  -0.246   0.021
    1UNL    C18   22   0.041  -0.289  -0.053
    1UNL    C19   23   0.069  -0.367  -0.179
    1UNL     O4   24  -0.029  -0.421  -0.231
    1UNL     O5   25   0.197  -0.374  -0.216
    1UNL     N2   26  -0.058  -0.177  -0.077
    1UNL    C20   27  -0.126  -0.126   0.047
    1UNL    C21   28  -0.225  -0.010   0.025
    1UNL     H1   29  -0.476  -0.031   0.270
    1UNL     H2   30  -0.442  -0.156   0.145
    1UNL     H3   31  -0.323  -0.126   0.285
    1UNL     H4   32  -0.236   0.084   0.220
    1UNL     H5   33  -0.415   0.320   0.002
    1UNL     H6   34  -0.192   0.526  -0.153
    1UNL     H7   35  -0.070   0.123   0.017
    1UNL     H8   36  -0.046   0.134  -0.225
    1UNL     H9   37  -0.166   0.011  -0.243
    1UNL    H10   38   0.029  -0.099  -0.261
    1UNL    H11   39   0.130   0.191  -0.108
    1UNL    H12   40   0.365   0.310   0.008
    1UNL    H13   41   0.498   0.282   0.204
    1UNL    H14   42   0.557   0.040   0.274
    1UNL    H15   43   0.415  -0.152   0.186
    1UNL    H16   44   0.150  -0.243   0.133
    1UNL    H17   45   0.250  -0.316  -0.003
    1UNL    H18   46  -0.007  -0.357   0.020
    1UNL    H19   47   0.208  -0.429  -0.298
    1UNL    H20   48  -0.191  -0.208   0.093
    1UNL    H21   49  -0.061  -0.096   0.133
    1UNL    H22   50  -0.304  -0.045  -0.050
   0.00000   0.00000   0.00000   0.00000   0.00000   0.00000   0.00000   0.00000   0.00000
Generated with MDTraj, t= 54.0
 50
    1UNL     C1    1  -0.401  -0.084   0.197
    1UNL     C2    2  -0.309   0.028   0.143
    1UNL     O1    3  -0.386   0.144   0.117
    1UNL     C3    4  -0.326   0.245   0.038
    1UNL     C4    5  -0.212   0.230  -0.026
    1UNL     C5    6  -0.151   0.334  -0.106
    1UNL     O2    7  -0.038   0.330  -0.148
    1UNL     O3    8  -0.231   0.433  -0.157
    1UNL     C6    9  -0.152   0.091  -0.036
    1UNL     C7   10  -0.103   0.050  -0.177
    1UNL     C8   11  -0.005  -0.066  -0.153
    1UNL     C9   12   0.118  -0.016  -0.073
    1UNL     N1   13   0.158   0.114  -0.057
    1UNL    C10   14   0.268   0.114   0.028
    1UNL    C11   15   0.359   0.220   0.058
    1UNL    C12   16   0.472   0.199   0.130
    1UNL    C13   17   0.493   0.064   0.175
    1UNL    C14   18   0.407  -0.039   0.147
    1UNL    C15   19   0.299  -0.015   0.057
    1UNL    C16   20   0.197  -0.098   0.005
    1UNL    C17   21   0.170  -0.247   0.027
    1UNL    C18   22   0.039  -0.286  -0.048
    1UNL    C19   23   0.070  -0.354  -0.179
    1UNL     O4   24  -0.023  -0.388  -0.253
    1UNL     O5   25   0.195  -0.387  -0.229
    1UNL     N2   26  -0.063  -0.178  -0.070
    1UNL    C20   27  -0.137  -0.137   0.045
    1UNL    C21   28  -0.238  -0.022   0.017
    1UNL     H1   29  -0.431  -0.071   0.307
    1UNL     H2   30  -0.490  -0.091   0.132
    1UNL     H3   31  -0.344  -0.173   0.184
    1UNL     H4   32  -0.227   0.062   0.221
    1UNL     H5   33  -0.376   0.342   0.033
    1UNL     H6   34  -0.179   0.492  -0.217
    1UNL     H7   35  -0.066   0.102   0.026
    1UNL     H8   36  -0.049   0.127  -0.232
    1UNL     H9   37  -0.187   0.018  -0.232
    1UNL    H10   38   0.020  -0.119  -0.251
    1UNL    H11   39   0.095   0.190  -0.085
    1UNL    H12   40   0.338   0.314   0.013
    1UNL    H13   41   0.545   0.277   0.137
    1UNL    H14   42   0.566   0.043   0.251
    1UNL    H15   43   0.443  -0.136   0.166
    1UNL    H16   44   0.143  -0.267   0.136
    1UNL    H17   45   0.246  -0.314  -0.015
    1UNL    H18   46  -0.009  -0.358   0.022
    1UNL    H19   47   0.184  -0.437  -0.314
    1UNL    H20   48  -0.191  -0.221   0.105
    1UNL    H21   49  -0.065  -0.107   0.121
    1UNL    H22   50  -0.315  -0.061  -0.058
   0.00000   0.00000   0.00000   0.00000   0.00000   0.00000   0.00000   0.00000   0.00000
Generated with MDTraj, t= 55.0
 50
    1UNL     C1    1  -0.422  -0.069   0.198
    1UNL     C2    2  -0.317   0.026   0.147
    1UNL     O1    3  -0.381   0.160   0.131
    1UNL     C3    4  -0.328   0.252   0.033
    1UNL     C4    5  -0.220   0.228  -0.043
    1UNL     C5    6  -0.157   0.331  -0.125
    1UNL     O2    7  -0.045   0.318  -0.166
    1UNL     O3    8  -0.236   0.440  -0.146
    1UNL     C6    9  -0.154   0.096  -0.039
    1UNL     C7   10  -0.107   0.037  -0.177
    1UNL     C8   11  -0.006  -0.073  -0.140
    1UNL     C9   12   0.113  -0.020  -0.072
    1UNL     N1   13   0.152   0.113  -0.050
    1UNL    C10   14   0.273   0.112   0.020
    1UNL    C11   15   0.346   0.220   0.072
    1UNL    C12   16   0.463   0.191   0.142
    1UNL    C13   17   0.504   0.061   0.173
    1UNL    C14   18   0.423  -0.046   0.129
    1UNL    C15   19   0.311  -0.023   0.049
    1UNL    C16   20   0.202  -0.100  -0.002
    1UNL    C17   21   0.173  -0.246   0.026
    1UNL    C18   22   0.047  -0.297  -0.052
    1UNL    C19   23   0.081  -0.349  -0.191
    1UNL     O4   24  -0.012  -0.359  -0.266
    1UNL     O5   25   0.207  -0.392  -0.222
    1UNL     N2   26  -0.062  -0.188  -0.055
    1UNL    C20   27  -0.141  -0.138   0.064
    1UNL    C21   28  -0.232  -0.020   0.022
    1UNL     H1   29  -0.478  -0.009   0.278
    1UNL     H2   30  -0.491  -0.094   0.123
    1UNL     H3   31  -0.385  -0.162   0.241
    1UNL     H4   32  -0.234   0.052   0.225
    1UNL     H5   33  -0.365   0.352   0.024
    1UNL     H6   34  -0.189   0.503  -0.196
    1UNL     H7   35  -0.067   0.108   0.020
    1UNL     H8   36  -0.073   0.117  -0.241
    1UNL     H9   37  -0.190  -0.013  -0.219
    1UNL    H10   38   0.035  -0.113  -0.237
    1UNL    H11   39   0.105   0.199  -0.093
    1UNL    H12   40   0.312   0.317   0.036
    1UNL    H13   41   0.527   0.266   0.188
    1UNL    H14   42   0.604   0.053   0.216
    1UNL    H15   43   0.445  -0.149   0.156
    1UNL    H16   44   0.155  -0.264   0.138
    1UNL    H17   45   0.249  -0.307  -0.024
    1UNL    H18   46   0.002  -0.378   0.011
    1UNL    H19   47   0.214  -0.420  -0.315
    1UNL    H20   48  -0.194  -0.230   0.115
    1UNL    H21   49  -0.076  -0.103   0.143
    1UNL    H22   50  -0.306  -0.062  -0.054
   0.00000   0.00000   0.00000   0.00000   0.00000   0.00000   0.00000   0.00000   0.00000
Generated with MDTraj, t= 56.0
 50
    1UNL     C1    1  -0.398  -0.077   0.205
    1UNL     C2    2  -0.313   0.033   0.161
    1UNL     O1    3  -0.397   0.144   0.119
    1UNL     C3    4  -0.339   0.232   0.027
    1UNL     C4    5  -0.227   0.219  -0.047
    1UNL     C5    6  -0.166   0.331  -0.124
    1UNL     O2    7  -0.054   0.325  -0.173
    1UNL     O3    8  -0.238   0.450  -0.119
    1UNL     C6    9  -0.150   0.094  -0.031
    1UNL     C7   10  -0.098   0.046  -0.176
    1UNL     C8   11   0.003  -0.064  -0.155
    1UNL     C9   12   0.132  -0.022  -0.089
    1UNL     N1   13   0.180   0.108  -0.092
    1UNL    C10   14   0.287   0.110   0.001
    1UNL    C11   15   0.359   0.218   0.057
    1UNL    C12   16   0.454   0.184   0.145
    1UNL    C13   17   0.484   0.053   0.185
    1UNL    C14   18   0.401  -0.048   0.145
    1UNL    C15   19   0.306  -0.019   0.051
    1UNL    C16   20   0.207  -0.102  -0.007
    1UNL    C17   21   0.166  -0.240   0.035
    1UNL    C18   22   0.035  -0.292  -0.050
    1UNL    C19   23   0.069  -0.351  -0.178
    1UNL     O4   24  -0.002  -0.340  -0.273
    1UNL     O5   25   0.194  -0.408  -0.191
    1UNL     N2   26  -0.065  -0.171  -0.074
    1UNL    C20   27  -0.125  -0.130   0.061
    1UNL    C21   28  -0.227  -0.020   0.035
    1UNL     H1   29  -0.467  -0.049   0.279
    1UNL     H2   30  -0.457  -0.119   0.127
    1UNL     H3   31  -0.339  -0.157   0.252
    1UNL     H4   32  -0.242   0.075   0.244
    1UNL     H5   33  -0.396   0.320   0.006
    1UNL     H6   34  -0.181   0.512  -0.157
    1UNL     H7   35  -0.066   0.110   0.029
    1UNL     H8   36  -0.055   0.134  -0.217
    1UNL     H9   37  -0.182   0.023  -0.237
    1UNL    H10   38   0.027  -0.111  -0.252
    1UNL    H11   39   0.123   0.183  -0.121
    1UNL    H12   40   0.321   0.316   0.041
    1UNL    H13   41   0.502   0.274   0.181
    1UNL    H14   42   0.571   0.019   0.239
    1UNL    H15   43   0.407  -0.144   0.201
    1UNL    H16   44   0.128  -0.229   0.142
    1UNL    H17   45   0.246  -0.314   0.016
    1UNL    H18   46  -0.020  -0.368   0.011
    1UNL    H19   47   0.197  -0.444  -0.281
    1UNL    H20   48  -0.160  -0.216   0.123
    1UNL    H21   49  -0.039  -0.089   0.115
    1UNL    H22   50  -0.306  -0.061  -0.037
   0.00000   0.00000   0.00000   0.00000   0.00000   0.00000   0.00000   0.00000   0.00000
Generated with MDTraj, t= 57.0
 50
    1UNL     C1    1  -0.364  -0.076   0.240
    1UNL     C2    2  -0.310   0.035   0.146
    1UNL     O1    3  -0.404   0.133   0.094
    1UNL     C3    4  -0.342   0.230   0.020
    1UNL     C4    5  -0.227   0.227  -0.047
    1UNL     C5    6  -0.159   0.346  -0.104
    1UNL     O2    7  -0.040   0.346  -0.131
    1UNL     O3    8  -0.239   0.455  -0.105
    1UNL     C6    9  -0.146   0.097  -0.037
    1UNL     C7   10  -0.097   0.049  -0.179
    1UNL     C8   11   0.007  -0.066  -0.165
    1UNL     C9   12   0.121  -0.019  -0.088
    1UNL     N1   13   0.175   0.110  -0.093
    1UNL    C10   14   0.276   0.113  -0.002
    1UNL    C11   15   0.370   0.217   0.027
    1UNL    C12   16   0.465   0.191   0.124
    1UNL    C13   17   0.462   0.072   0.198
    1UNL    C14   18   0.377  -0.034   0.166
    1UNL    C15   19   0.289  -0.017   0.058
    1UNL    C16   20   0.190  -0.101  -0.002
    1UNL    C17   21   0.169  -0.246   0.019
    1UNL    C18   22   0.040  -0.294  -0.055
    1UNL    C19   23   0.074  -0.364  -0.186
    1UNL     O4   24   0.012  -0.339  -0.283
    1UNL     O5   25   0.174  -0.456  -0.167
    1UNL     N2   26  -0.057  -0.181  -0.080
    1UNL    C20   27  -0.126  -0.142   0.046
    1UNL    C21   28  -0.225  -0.020   0.020
    1UNL     H1   29  -0.388  -0.050   0.335
    1UNL     H2   30  -0.452  -0.124   0.197
    1UNL     H3   31  -0.283  -0.147   0.246
    1UNL     H4   32  -0.237   0.096   0.213
    1UNL     H5   33  -0.402   0.321   0.013
    1UNL     H6   34  -0.191   0.530  -0.136
    1UNL     H7   35  -0.065   0.120   0.025
    1UNL     H8   36  -0.062   0.130  -0.237
    1UNL     H9   37  -0.190   0.025  -0.226
    1UNL    H10   38   0.034  -0.111  -0.258
    1UNL    H11   39   0.133   0.201  -0.129
    1UNL    H12   40   0.339   0.320   0.006
    1UNL    H13   41   0.549   0.259   0.141
    1UNL    H14   42   0.526   0.075   0.285
    1UNL    H15   43   0.386  -0.114   0.231
    1UNL    H16   44   0.170  -0.272   0.129
    1UNL    H17   45   0.250  -0.289  -0.043
    1UNL    H18   46  -0.017  -0.360   0.013
    1UNL    H19   47   0.205  -0.487  -0.253
    1UNL    H20   48  -0.184  -0.230   0.066
    1UNL    H21   49  -0.058  -0.119   0.132
    1UNL    H22   50  -0.296  -0.047  -0.065
   0.00000   0.00000   0.00000   0.00000   0.00000   0.00000   0.00000   0.00000   0.00000
Generated with MDTraj, t= 58.0
 50
    1UNL     C1    1  -0.366  -0.079   0.233
    1UNL     C2    2  -0.303   0.025   0.140
    1UNL     O1    3  -0.395   0.140   0.100
    1UNL     C3    4  -0.336   0.243   0.029
    1UNL     C4    5  -0.224   0.227  -0.048
    1UNL     C5    6  -0.148   0.337  -0.094
    1UNL     O2    7  -0.033   0.332  -0.135
    1UNL     O3    8  -0.213   0.462  -0.098
    1UNL     C6    9  -0.157   0.087  -0.052
    1UNL     C7   10  -0.107   0.034  -0.189
    1UNL     C8   11   0.001  -0.071  -0.158
    1UNL     C9   12   0.117  -0.022  -0.086
    1UNL     N1   13   0.154   0.114  -0.080
    1UNL    C10   14   0.266   0.114   0.003
    1UNL    C11   15   0.341   0.230   0.051
    1UNL    C12   16   0.435   0.206   0.143
    1UNL    C13   17   0.474   0.077   0.184
    1UNL    C14   18   0.407  -0.033   0.130
    1UNL    C15   19   0.296  -0.016   0.044
    1UNL    C16   20   0.200  -0.099  -0.014
    1UNL    C17   21   0.170  -0.240   0.014
    1UNL    C18   22   0.040  -0.287  -0.053
    1UNL    C19   23   0.075  -0.364  -0.175
    1UNL     O4   24   0.055  -0.323  -0.286
    1UNL     O5   25   0.142  -0.484  -0.157
    1UNL     N2   26  -0.062  -0.177  -0.077
    1UNL    C20   27  -0.137  -0.137   0.043
    1UNL    C21   28  -0.236  -0.024   0.015
    1UNL     H1   29  -0.445  -0.023   0.276
    1UNL     H2   30  -0.412  -0.169   0.192
    1UNL     H3   31  -0.295  -0.106   0.299
    1UNL     H4   32  -0.222   0.080   0.206
    1UNL     H5   33  -0.390   0.338   0.042
    1UNL     H6   34  -0.158   0.523  -0.152
    1UNL     H7   35  -0.074   0.107   0.009
    1UNL     H8   36  -0.074   0.123  -0.236
    1UNL     H9   37  -0.184  -0.002  -0.254
    1UNL    H10   38   0.030  -0.119  -0.248
    1UNL    H11   39   0.098   0.196  -0.092
    1UNL    H12   40   0.323   0.329   0.013
    1UNL    H13   41   0.483   0.287   0.199
    1UNL    H14   42   0.568   0.082   0.239
    1UNL    H15   43   0.450  -0.135   0.152
    1UNL    H16   44   0.163  -0.242   0.126
    1UNL    H17   45   0.257  -0.299  -0.026
    1UNL    H18   46  -0.011  -0.355   0.018
    1UNL    H19   47   0.156  -0.520  -0.246
    1UNL    H20   48  -0.186  -0.216   0.087
    1UNL    H21   49  -0.056  -0.092   0.108
    1UNL    H22   50  -0.311  -0.066  -0.058
   0.00000   0.00000   0.00000   0.00000   0.00000   0.00000   0.00000   0.00000   0.00000
Generated with MDTraj, t= 59.0
 50
    1UNL     C1    1  -0.415  -0.069   0.202
    1UNL     C2    2  -0.308   0.028   0.150
    1UNL     O1    3  -0.389   0.148   0.118
    1UNL     C3    4  -0.325   0.233   0.036
    1UNL     C4    5  -0.207   0.224  -0.032
    1UNL     C5    6  -0.154   0.333  -0.107
    1UNL     O2    7  -0.060   0.327  -0.181
    1UNL     O3    8  -0.213   0.451  -0.093
    1UNL     C6    9  -0.146   0.088  -0.041
    1UNL     C7   10  -0.102   0.044  -0.180
    1UNL     C8   11  -0.003  -0.074  -0.161
    1UNL     C9   12   0.123  -0.017  -0.101
    1UNL     N1   13   0.158   0.116  -0.077
    1UNL    C10   14   0.263   0.126   0.014
    1UNL    C11   15   0.333   0.234   0.075
    1UNL    C12   16   0.432   0.209   0.158
    1UNL    C13   17   0.477   0.076   0.174
    1UNL    C14   18   0.415  -0.027   0.117
    1UNL    C15   19   0.302  -0.005   0.038
    1UNL    C16   20   0.206  -0.093  -0.019
    1UNL    C17   21   0.183  -0.239   0.014
    1UNL    C18   22   0.048  -0.295  -0.056
    1UNL    C19   23   0.080  -0.372  -0.178
    1UNL     O4   24   0.094  -0.317  -0.283
    1UNL     O5   25   0.087  -0.506  -0.168
    1UNL     N2   26  -0.051  -0.179  -0.066
    1UNL    C20   27  -0.119  -0.135   0.061
    1UNL    C21   28  -0.228  -0.027   0.028
    1UNL     H1   29  -0.444  -0.039   0.301
    1UNL     H2   30  -0.505  -0.067   0.156
    1UNL     H3   31  -0.376  -0.164   0.198
    1UNL     H4   32  -0.240   0.052   0.244
    1UNL     H5   33  -0.376   0.327   0.029
    1UNL     H6   34  -0.165   0.517  -0.155
    1UNL     H7   35  -0.056   0.092   0.013
    1UNL     H8   36  -0.061   0.126  -0.234
    1UNL     H9   37  -0.196   0.021  -0.227
    1UNL    H10   38   0.012  -0.118  -0.255
    1UNL    H11   39   0.105   0.197  -0.118
    1UNL    H12   40   0.314   0.332   0.031
    1UNL    H13   41   0.465   0.299   0.208
    1UNL    H14   42   0.567   0.058   0.231
    1UNL    H15   43   0.475  -0.112   0.124
    1UNL    H16   44   0.173  -0.244   0.125
    1UNL    H17   45   0.274  -0.295  -0.023
    1UNL    H18   46  -0.003  -0.361   0.015
    1UNL    H19   47   0.100  -0.546  -0.257
    1UNL    H20   48  -0.164  -0.223   0.094
    1UNL    H21   49  -0.042  -0.087   0.128
    1UNL    H22   50  -0.302  -0.072  -0.045
   0.00000   0.00000   0.00000   0.00000   0.00000   0.00000   0.00000   0.00000   0.00000
Generated with MDTraj, t= 60.0
 50
    1UNL     C1    1  -0.410  -0.097   0.189
    1UNL     C2    2  -0.301   0.010   0.147
    1UNL     O1    3  -0.361   0.139   0.143
    1UNL     C3    4  -0.327   0.231   0.044
    1UNL     C4    5  -0.221   0.223  -0.037
    1UNL     C5    6  -0.162   0.337  -0.111
    1UNL     O2    7  -0.053   0.313  -0.162
    1UNL     O3    8  -0.238   0.451  -0.118
    1UNL     C6    9  -0.138   0.095  -0.041
    1UNL     C7   10  -0.091   0.046  -0.182
    1UNL     C8   11   0.010  -0.066  -0.154
    1UNL     C9   12   0.132  -0.012  -0.095
    1UNL     N1   13   0.164   0.120  -0.086
    1UNL    C10   14   0.266   0.131   0.012
    1UNL    C11   15   0.353   0.238   0.041
    1UNL    C12   16   0.453   0.212   0.137
    1UNL    C13   17   0.474   0.089   0.194
    1UNL    C14   18   0.398  -0.020   0.153
    1UNL    C15   19   0.300   0.000   0.057
    1UNL    C16   20   0.210  -0.085  -0.009
    1UNL    C17   21   0.190  -0.236   0.004
    1UNL    C18   22   0.051  -0.295  -0.043
    1UNL    C19   23   0.066  -0.370  -0.172
    1UNL     O4   24   0.115  -0.314  -0.272
    1UNL     O5   25   0.007  -0.493  -0.180
    1UNL     N2   26  -0.043  -0.182  -0.074
    1UNL    C20   27  -0.130  -0.143   0.046
    1UNL    C21   28  -0.220  -0.026   0.018
    1UNL     H1   29  -0.464  -0.065   0.272
    1UNL     H2   30  -0.483  -0.127   0.125
    1UNL     H3   31  -0.353  -0.183   0.212
    1UNL     H4   32  -0.227   0.019   0.239
    1UNL     H5   33  -0.391   0.315   0.032
    1UNL     H6   34  -0.178   0.527  -0.158
    1UNL     H7   35  -0.044   0.098   0.005
    1UNL     H8   36  -0.042   0.125  -0.232
    1UNL     H9   37  -0.177   0.010  -0.235
    1UNL    H10   38   0.038  -0.108  -0.247
    1UNL    H11   39   0.098   0.197  -0.103
    1UNL    H12   40   0.335   0.331  -0.007
    1UNL    H13   41   0.522   0.290   0.166
    1UNL    H14   42   0.544   0.096   0.277
    1UNL    H15   43   0.417  -0.124   0.188
    1UNL    H16   44   0.221  -0.274   0.103
    1UNL    H17   45   0.257  -0.278  -0.078
    1UNL    H18   46   0.003  -0.355   0.036
    1UNL    H19   47   0.034  -0.544  -0.261
    1UNL    H20   48  -0.195  -0.225   0.063
    1UNL    H21   49  -0.058  -0.122   0.126
    1UNL    H22   50  -0.298  -0.052  -0.060
   0.00000   0.00000   0.00000   0.00000   0.00000   0.00000   0.00000   0.00000   0.00000
Generated with MDTraj, t= 61.0
 50
    1UNL     C1    1  -0.384  -0.089   0.205
    1UNL     C2    2  -0.303   0.021   0.150
    1UNL     O1    3  -0.395   0.130   0.122
    1UNL     C3    4  -0.329   0.229   0.047
    1UNL     C4    5  -0.219   0.223  -0.030
    1UNL     C5    6  -0.171   0.332  -0.108
    1UNL     O2    7  -0.052   0.339  -0.136
    1UNL     O3    8  -0.253   0.438  -0.144
    1UNL     C6    9  -0.143   0.092  -0.030
    1UNL     C7   10  -0.094   0.051  -0.171
    1UNL     C8   11   0.012  -0.063  -0.151
    1UNL     C9   12   0.134  -0.014  -0.090
    1UNL     N1   13   0.165   0.119  -0.081
    1UNL    C10   14   0.282   0.126  -0.004
    1UNL    C11   15   0.357   0.235   0.040
    1UNL    C12   16   0.452   0.213   0.139
    1UNL    C13   17   0.472   0.084   0.192
    1UNL    C14   18   0.403  -0.026   0.146
    1UNL    C15   19   0.306  -0.003   0.045
    1UNL    C16   20   0.215  -0.093  -0.018
    1UNL    C17   21   0.188  -0.241   0.005
    1UNL    C18   22   0.045  -0.288  -0.045
    1UNL    C19   23   0.063  -0.365  -0.178
    1UNL     O4   24   0.164  -0.351  -0.252
    1UNL     O5   25  -0.025  -0.467  -0.200
    1UNL     N2   26  -0.048  -0.183  -0.079
    1UNL    C20   27  -0.119  -0.136   0.048
    1UNL    C21   28  -0.224  -0.025   0.025
    1UNL     H1   29  -0.453  -0.054   0.270
    1UNL     H2   30  -0.441  -0.139   0.129
    1UNL     H3   31  -0.318  -0.161   0.240
    1UNL     H4   32  -0.228   0.062   0.231
    1UNL     H5   33  -0.376   0.327   0.052
    1UNL     H6   34  -0.185   0.508  -0.179
    1UNL     H7   35  -0.057   0.099   0.031
    1UNL     H8   36  -0.051   0.139  -0.215
    1UNL     H9   37  -0.175   0.013  -0.228
    1UNL    H10   38   0.045  -0.107  -0.244
    1UNL    H11   39   0.115   0.201  -0.113
    1UNL    H12   40   0.326   0.336   0.016
    1UNL    H13   41   0.495   0.300   0.186
    1UNL    H14   42   0.554   0.064   0.260
    1UNL    H15   43   0.409  -0.117   0.202
    1UNL    H16   44   0.198  -0.261   0.112
    1UNL    H17   45   0.258  -0.306  -0.058
    1UNL    H18   46   0.001  -0.346   0.036
    1UNL    H19   47  -0.003  -0.510  -0.288
    1UNL    H20   48  -0.159  -0.230   0.081
    1UNL    H21   49  -0.045  -0.098   0.113
    1UNL    H22   50  -0.302  -0.060  -0.050
   0.00000   0.00000   0.00000   0.00000   0.00000   0.00000   0.00000   0.00000   0.00000
Generated with MDTraj, t= 62.0
 50
    1UNL     C1    1  -0.369  -0.068   0.246
    1UNL     C2    2  -0.306   0.033   0.151
    1UNL     O1    3  -0.410   0.127   0.088
    1UNL     C3    4  -0.352   0.231   0.016
    1UNL     C4    5  -0.235   0.219  -0.050
    1UNL     C5    6  -0.169   0.334  -0.105
    1UNL     O2    7  -0.054   0.332  -0.139
    1UNL     O3    8  -0.258   0.436  -0.124
    1UNL     C6    9  -0.154   0.089  -0.045
    1UNL     C7   10  -0.105   0.040  -0.185
    1UNL     C8   11   0.003  -0.071  -0.151
    1UNL     C9   12   0.125  -0.011  -0.093
    1UNL     N1   13   0.167   0.120  -0.071
    1UNL    C10   14   0.282   0.126   0.007
    1UNL    C11   15   0.343   0.229   0.073
    1UNL    C12   16   0.452   0.202   0.151
    1UNL    C13   17   0.491   0.065   0.173
    1UNL    C14   18   0.421  -0.036   0.114
    1UNL    C15   19   0.315  -0.009   0.029
    1UNL    C16   20   0.210  -0.093  -0.018
    1UNL    C17   21   0.182  -0.239   0.014
    1UNL    C18   22   0.053  -0.291  -0.046
    1UNL    C19   23   0.076  -0.366  -0.172
    1UNL     O4   24   0.187  -0.358  -0.227
    1UNL     O5   25  -0.035  -0.421  -0.227
    1UNL     N2   26  -0.046  -0.184  -0.068
    1UNL    C20   27  -0.099  -0.135   0.063
    1UNL    C21   28  -0.217  -0.029   0.033
    1UNL     H1   29  -0.404  -0.013   0.330
    1UNL     H2   30  -0.459  -0.105   0.201
    1UNL     H3   31  -0.305  -0.145   0.268
    1UNL     H4   32  -0.236   0.104   0.211
    1UNL     H5   33  -0.390   0.334   0.017
    1UNL     H6   34  -0.224   0.514  -0.173
    1UNL     H7   35  -0.073   0.124   0.012
    1UNL     H8   36  -0.052   0.115  -0.240
    1UNL     H9   37  -0.184   0.005  -0.246
    1UNL    H10   38   0.037  -0.126  -0.241
    1UNL    H11   39   0.096   0.198  -0.088
    1UNL    H12   40   0.292   0.324   0.087
    1UNL    H13   41   0.504   0.292   0.190
    1UNL    H14   42   0.579   0.041   0.231
    1UNL    H15   43   0.452  -0.138   0.131
    1UNL    H16   44   0.155  -0.237   0.121
    1UNL    H17   45   0.271  -0.310  -0.004
    1UNL    H18   46   0.006  -0.355   0.028
    1UNL    H19   47  -0.002  -0.473  -0.303
    1UNL    H20   48  -0.144  -0.221   0.113
    1UNL    H21   49  -0.016  -0.100   0.111
    1UNL    H22   50  -0.291  -0.084  -0.033
   0.00000   0.00000   0.00000   0.00000   0.00000   0.00000   0.00000   0.00000   0.00000
Generated with MDTraj, t= 63.0
 50
    1UNL     C1    1  -0.354  -0.069   0.242
    1UNL     C2    2  -0.304   0.036   0.144
    1UNL     O1    3  -0.403   0.121   0.092
    1UNL     C3    4  -0.360   0.220   0.005
    1UNL     C4    5  -0.241   0.210  -0.058
    1UNL     C5    6  -0.178   0.326  -0.118
    1UNL     O2    7  -0.066   0.318  -0.163
    1UNL     O3    8  -0.242   0.451  -0.114
    1UNL     C6    9  -0.154   0.089  -0.034
    1UNL     C7   10  -0.101   0.033  -0.165
    1UNL     C8   11   0.003  -0.072  -0.139
    1UNL     C9   12   0.118  -0.016  -0.067
    1UNL     N1   13   0.158   0.111  -0.064
    1UNL    C10   14   0.274   0.119   0.017
    1UNL    C11   15   0.348   0.229   0.062
    1UNL    C12   16   0.469   0.209   0.129
    1UNL    C13   17   0.507   0.078   0.166
    1UNL    C14   18   0.426  -0.030   0.142
    1UNL    C15   19   0.309  -0.006   0.058
    1UNL    C16   20   0.208  -0.092   0.003
    1UNL    C17   21   0.195  -0.243   0.022
    1UNL    C18   22   0.057  -0.292  -0.048
    1UNL    C19   23   0.075  -0.351  -0.186
    1UNL     O4   24   0.181  -0.381  -0.237
    1UNL     O5   25  -0.038  -0.384  -0.248
    1UNL     N2   26  -0.049  -0.189  -0.062
    1UNL    C20   27  -0.123  -0.134   0.059
    1UNL    C21   28  -0.225  -0.022   0.024
    1UNL     H1   29  -0.434  -0.022   0.302
    1UNL     H2   30  -0.389  -0.155   0.197
    1UNL     H3   31  -0.271  -0.090   0.303
    1UNL     H4   32  -0.231   0.105   0.202
    1UNL     H5   33  -0.420   0.308  -0.002
    1UNL     H6   34  -0.186   0.510  -0.159
    1UNL     H7   35  -0.079   0.126   0.030
    1UNL     H8   36  -0.065   0.116  -0.223
    1UNL     H9   37  -0.176  -0.010  -0.225
    1UNL    H10   38   0.054  -0.108  -0.233
    1UNL    H11   39   0.109   0.187  -0.106
    1UNL    H12   40   0.307   0.321   0.026
    1UNL    H13   41   0.538   0.285   0.153
    1UNL    H14   42   0.605   0.074   0.211
    1UNL    H15   43   0.448  -0.138   0.150
    1UNL    H16   44   0.201  -0.276   0.127
    1UNL    H17   45   0.276  -0.288  -0.045
    1UNL    H18   46   0.013  -0.375   0.006
    1UNL    H19   47  -0.011  -0.418  -0.335
    1UNL    H20   48  -0.173  -0.219   0.107
    1UNL    H21   49  -0.056  -0.090   0.123
    1UNL    H22   50  -0.302  -0.051  -0.055
   0.00000   0.00000   0.00000   0.00000   0.00000   0.00000   0.00000   0.00000   0.00000
Generated with MDTraj, t= 64.0
 50
    1UNL     C1    1  -0.390  -0.092   0.211
    1UNL     C2    2  -0.303   0.024   0.160
    1UNL     O1    3  -0.388   0.135   0.129
    1UNL     C3    4  -0.345   0.224   0.030
    1UNL     C4    5  -0.227   0.214  -0.034
    1UNL     C5    6  -0.169   0.326  -0.113
    1UNL     O2    7  -0.055   0.322  -0.157
    1UNL     O3    8  -0.250   0.434  -0.133
    1UNL     C6    9  -0.154   0.085  -0.036
    1UNL     C7   10  -0.103   0.041  -0.179
    1UNL     C8   11  -0.000  -0.069  -0.153
    1UNL     C9   12   0.121  -0.010  -0.085
    1UNL     N1   13   0.175   0.118  -0.082
    1UNL    C10   14   0.278   0.131   0.005
    1UNL    C11   15   0.363   0.233   0.042
    1UNL    C12   16   0.472   0.209   0.122
    1UNL    C13   17   0.491   0.074   0.172
    1UNL    C14   18   0.405  -0.027   0.147
    1UNL    C15   19   0.301  -0.001   0.056
    1UNL    C16   20   0.206  -0.087  -0.004
    1UNL    C17   21   0.186  -0.238   0.019
    1UNL    C18   22   0.051  -0.288  -0.047
    1UNL    C19   23   0.080  -0.360  -0.180
    1UNL     O4   24   0.190  -0.400  -0.205
    1UNL     O5   25  -0.030  -0.363  -0.258
    1UNL     N2   26  -0.051  -0.180  -0.058
    1UNL    C20   27  -0.128  -0.146   0.063
    1UNL    C21   28  -0.227  -0.031   0.027
    1UNL     H1   29  -0.437  -0.072   0.307
    1UNL     H2   30  -0.465  -0.112   0.143
    1UNL     H3   31  -0.323  -0.179   0.223
    1UNL     H4   32  -0.220   0.054   0.233
    1UNL     H5   33  -0.422   0.293   0.001
    1UNL     H6   34  -0.208   0.495  -0.187
    1UNL     H7   35  -0.069   0.101   0.022
    1UNL     H8   36  -0.069   0.130  -0.229
    1UNL     H9   37  -0.183   0.009  -0.240
    1UNL    H10   38   0.034  -0.125  -0.246
    1UNL    H11   39   0.104   0.197  -0.101
    1UNL    H12   40   0.363   0.329  -0.011
    1UNL    H13   41   0.529   0.299   0.156
    1UNL    H14   42   0.576   0.049   0.234
    1UNL    H15   43   0.419  -0.123   0.190
    1UNL    H16   44   0.187  -0.260   0.127
    1UNL    H17   45   0.270  -0.294  -0.036
    1UNL    H18   46   0.003  -0.362   0.019
    1UNL    H19   47  -0.008  -0.407  -0.341
    1UNL    H20   48  -0.180  -0.232   0.102
    1UNL    H21   49  -0.055  -0.116   0.132
    1UNL    H22   50  -0.312  -0.061  -0.042
   0.00000   0.00000   0.00000   0.00000   0.00000   0.00000   0.00000   0.00000   0.00000
Generated with MDTraj, t= 65.0
 50
    1UNL     C1    1  -0.416  -0.092   0.194
    1UNL     C2    2  -0.318   0.011   0.156
    1UNL     O1    3  -0.384   0.144   0.144
    1UNL     C3    4  -0.326   0.233   0.055
    1UNL     C4    5  -0.214   0.221  -0.020
    1UNL     C5    6  -0.166   0.330  -0.109
    1UNL     O2    7  -0.051   0.338  -0.144
    1UNL     O3    8  -0.259   0.425  -0.128
    1UNL     C6    9  -0.145   0.092  -0.026
    1UNL     C7   10  -0.103   0.046  -0.174
    1UNL     C8   11  -0.000  -0.071  -0.163
    1UNL     C9   12   0.132  -0.016  -0.106
    1UNL     N1   13   0.167   0.112  -0.094
    1UNL    C10   14   0.279   0.118  -0.010
    1UNL    C11   15   0.349   0.231   0.032
    1UNL    C12   16   0.443   0.215   0.130
    1UNL    C13   17   0.482   0.087   0.177
    1UNL    C14   18   0.419  -0.028   0.125
    1UNL    C15   19   0.316  -0.011   0.027
    1UNL    C16   20   0.207  -0.096  -0.020
    1UNL    C17   21   0.169  -0.236   0.022
    1UNL    C18   22   0.037  -0.288  -0.043
    1UNL    C19   23   0.084  -0.370  -0.167
    1UNL     O4   24   0.192  -0.424  -0.164
    1UNL     O5   25   0.014  -0.362  -0.286
    1UNL     N2   26  -0.060  -0.176  -0.063
    1UNL    C20   27  -0.128  -0.135   0.061
    1UNL    C21   28  -0.224  -0.022   0.032
    1UNL     H1   29  -0.462  -0.062   0.284
    1UNL     H2   30  -0.502  -0.105   0.129
    1UNL     H3   31  -0.365  -0.190   0.217
    1UNL     H4   32  -0.238   0.019   0.238
    1UNL     H5   33  -0.380   0.327   0.045
    1UNL     H6   34  -0.226   0.500  -0.178
    1UNL     H7   35  -0.059   0.098   0.035
    1UNL     H8   36  -0.079   0.132  -0.232
    1UNL     H9   37  -0.193   0.007  -0.215
    1UNL    H10   38   0.026  -0.120  -0.262
    1UNL    H11   39   0.108   0.186  -0.127
    1UNL    H12   40   0.333   0.329  -0.004
    1UNL    H13   41   0.491   0.297   0.173
    1UNL    H14   42   0.538   0.076   0.267
    1UNL    H15   43   0.432  -0.127   0.174
    1UNL    H16   44   0.149  -0.233   0.131
    1UNL    H17   45   0.255  -0.307  -0.000
    1UNL    H18   46  -0.013  -0.353   0.031
    1UNL    H19   47   0.076  -0.417  -0.339
    1UNL    H20   48  -0.179  -0.217   0.102
    1UNL    H21   49  -0.055  -0.099   0.131
    1UNL    H22   50  -0.298  -0.058  -0.048
   0.00000   0.00000   0.00000   0.00000   0.00000   0.00000   0.00000   0.00000   0.00000
Generated with MDTraj, t= 66.0
 50
    1UNL     C1    1  -0.400  -0.100   0.209
    1UNL     C2    2  -0.309   0.012   0.160
    1UNL     O1    3  -0.382   0.137   0.138
    1UNL     C3    4  -0.322   0.232   0.054
    1UNL     C4    5  -0.227   0.220  -0.043
    1UNL     C5    6  -0.159   0.334  -0.107
    1UNL     O2    7  -0.051   0.323  -0.161
    1UNL     O3    8  -0.229   0.455  -0.098
    1UNL     C6    9  -0.159   0.084  -0.045
    1UNL     C7   10  -0.109   0.033  -0.186
    1UNL     C8   11  -0.001  -0.078  -0.158
    1UNL     C9   12   0.116  -0.021  -0.081
    1UNL     N1   13   0.151   0.114  -0.080
    1UNL    C10   14   0.259   0.131  -0.001
    1UNL    C11   15   0.349   0.235   0.020
    1UNL    C12   16   0.452   0.216   0.114
    1UNL    C13   17   0.479   0.094   0.168
    1UNL    C14   18   0.406  -0.018   0.130
    1UNL    C15   19   0.293   0.001   0.051
    1UNL    C16   20   0.209  -0.095  -0.016
    1UNL    C17   21   0.184  -0.238   0.026
    1UNL    C18   22   0.052  -0.288  -0.041
    1UNL    C19   23   0.093  -0.365  -0.171
    1UNL     O4   24   0.161  -0.464  -0.154
    1UNL     O5   25   0.040  -0.325  -0.287
    1UNL     N2   26  -0.055  -0.188  -0.073
    1UNL    C20   27  -0.136  -0.142   0.048
    1UNL    C21   28  -0.236  -0.026   0.023
    1UNL     H1   29  -0.479  -0.073   0.276
    1UNL     H2   30  -0.461  -0.150   0.125
    1UNL     H3   31  -0.336  -0.172   0.261
    1UNL     H4   32  -0.229   0.035   0.238
    1UNL     H5   33  -0.354   0.336   0.071
    1UNL     H6   34  -0.168   0.523  -0.140
    1UNL     H7   35  -0.074   0.094   0.018
    1UNL     H8   36  -0.075   0.121  -0.236
    1UNL     H9   37  -0.183  -0.023  -0.239
    1UNL    H10   38   0.046  -0.111  -0.255
    1UNL    H11   39   0.085   0.189  -0.112
    1UNL    H12   40   0.330   0.330  -0.030
    1UNL    H13   41   0.531   0.293   0.140
    1UNL    H14   42   0.572   0.082   0.223
    1UNL    H15   43   0.425  -0.116   0.165
    1UNL    H16   44   0.189  -0.245   0.139
    1UNL    H17   45   0.267  -0.298  -0.024
    1UNL    H18   46   0.005  -0.361   0.026
    1UNL    H19   47   0.065  -0.391  -0.356
    1UNL    H20   48  -0.185  -0.214   0.099
    1UNL    H21   49  -0.062  -0.095   0.114
    1UNL    H22   50  -0.315  -0.069  -0.046
   0.00000   0.00000   0.00000   0.00000   0.00000   0.00000   0.00000   0.00000   0.00000
Generated with MDTraj, t= 67.0
 50
    1UNL     C1    1  -0.374  -0.083   0.245
    1UNL     C2    2  -0.311   0.024   0.153
    1UNL     O1    3  -0.408   0.125   0.105
    1UNL     C3    4  -0.350   0.220   0.021
    1UNL     C4    5  -0.232   0.212  -0.044
    1UNL     C5    6  -0.159   0.329  -0.101
    1UNL     O2    7  -0.069   0.317  -0.180
    1UNL     O3    8  -0.196   0.454  -0.070
    1UNL     C6    9  -0.152   0.080  -0.031
    1UNL     C7   10  -0.103   0.035  -0.171
    1UNL     C8   11   0.001  -0.074  -0.158
    1UNL     C9   12   0.125  -0.010  -0.096
    1UNL     N1   13   0.155   0.120  -0.083
    1UNL    C10   14   0.264   0.130  -0.001
    1UNL    C11   15   0.345   0.243   0.034
    1UNL    C12   16   0.454   0.224   0.108
    1UNL    C13   17   0.481   0.097   0.165
    1UNL    C14   18   0.410  -0.012   0.133
    1UNL    C15   19   0.295   0.005   0.055
    1UNL    C16   20   0.195  -0.085  -0.004
    1UNL    C17   21   0.184  -0.233   0.025
    1UNL    C18   22   0.053  -0.297  -0.045
    1UNL    C19   23   0.081  -0.369  -0.168
    1UNL     O4   24   0.106  -0.489  -0.167
    1UNL     O5   25   0.077  -0.307  -0.291
    1UNL     N2   26  -0.048  -0.187  -0.073
    1UNL    C20   27  -0.128  -0.158   0.052
    1UNL    C21   28  -0.229  -0.037   0.031
    1UNL     H1   29  -0.390  -0.052   0.352
    1UNL     H2   30  -0.482  -0.109   0.211
    1UNL     H3   31  -0.301  -0.163   0.246
    1UNL     H4   32  -0.237   0.085   0.216
    1UNL     H5   33  -0.393   0.318   0.017
    1UNL     H6   34  -0.131   0.525  -0.111
    1UNL     H7   35  -0.068   0.101   0.028
    1UNL     H8   36  -0.062   0.111  -0.234
    1UNL     H9   37  -0.184  -0.010  -0.224
    1UNL    H10   38   0.027  -0.114  -0.260
    1UNL    H11   39   0.096   0.195  -0.126
    1UNL    H12   40   0.318   0.345   0.014
    1UNL    H13   41   0.514   0.308   0.124
    1UNL    H14   42   0.571   0.079   0.221
    1UNL    H15   43   0.452  -0.111   0.155
    1UNL    H16   44   0.175  -0.244   0.138
    1UNL    H17   45   0.282  -0.283  -0.003
    1UNL    H18   46  -0.002  -0.374   0.015
    1UNL    H19   47   0.080  -0.373  -0.365
    1UNL    H20   48  -0.185  -0.240   0.074
    1UNL    H21   49  -0.066  -0.136   0.140
    1UNL    H22   50  -0.310  -0.064  -0.045
   0.00000   0.00000   0.00000   0.00000   0.00000   0.00000   0.00000   0.00000   0.00000
Generated with MDTraj, t= 68.0
 50
    1UNL     C1    1  -0.372  -0.081   0.239
    1UNL     C2    2  -0.297   0.025   0.152
    1UNL     O1    3  -0.394   0.131   0.113
    1UNL     C3    4  -0.353   0.221   0.013
    1UNL     C4    5  -0.233   0.215  -0.049
    1UNL     C5    6  -0.168   0.333  -0.094
    1UNL     O2    7  -0.057   0.333  -0.140
    1UNL     O3    8  -0.242   0.452  -0.076
    1UNL     C6    9  -0.157   0.089  -0.045
    1UNL     C7   10  -0.118   0.031  -0.180
    1UNL     C8   11  -0.002  -0.071  -0.152
    1UNL     C9   12   0.126  -0.015  -0.099
    1UNL     N1   13   0.163   0.120  -0.101
    1UNL    C10   14   0.269   0.131  -0.020
    1UNL    C11   15   0.334   0.241   0.041
    1UNL    C12   16   0.434   0.216   0.128
    1UNL    C13   17   0.475   0.090   0.164
    1UNL    C14   18   0.410  -0.022   0.121
    1UNL    C15   19   0.306   0.001   0.031
    1UNL    C16   20   0.215  -0.092  -0.025
    1UNL    C17   21   0.186  -0.238   0.011
    1UNL    C18   22   0.054  -0.294  -0.047
    1UNL    C19   23   0.081  -0.384  -0.161
    1UNL     O4   24   0.057  -0.503  -0.165
    1UNL     O5   25   0.132  -0.313  -0.262
    1UNL     N2   26  -0.045  -0.184  -0.069
    1UNL    C20   27  -0.112  -0.133   0.060
    1UNL    C21   28  -0.223  -0.029   0.030
    1UNL     H1   29  -0.463  -0.018   0.278
    1UNL     H2   30  -0.422  -0.168   0.188
    1UNL     H3   31  -0.308  -0.103   0.326
    1UNL     H4   32  -0.217   0.072   0.221
    1UNL     H5   33  -0.413   0.309   0.007
    1UNL     H6   34  -0.183   0.531  -0.110
    1UNL     H7   35  -0.062   0.101  -0.003
    1UNL     H8   36  -0.075   0.106  -0.243
    1UNL     H9   37  -0.198  -0.009  -0.241
    1UNL    H10   38   0.024  -0.119  -0.249
    1UNL    H11   39   0.098   0.193  -0.121
    1UNL    H12   40   0.303   0.341   0.015
    1UNL    H13   41   0.492   0.293   0.184
    1UNL    H14   42   0.559   0.075   0.233
    1UNL    H15   43   0.455  -0.118   0.128
    1UNL    H16   44   0.189  -0.235   0.126
    1UNL    H17   45   0.276  -0.300  -0.011
    1UNL    H18   46   0.004  -0.356   0.031
    1UNL    H19   47   0.157  -0.361  -0.342
    1UNL    H20   48  -0.151  -0.214   0.114
    1UNL    H21   49  -0.035  -0.091   0.123
    1UNL    H22   50  -0.302  -0.075  -0.042
   0.00000   0.00000   0.00000   0.00000   0.00000   0.00000   0.00000   0.00000   0.00000
Generated with MDTraj, t= 69.0
 50
    1UNL     C1    1  -0.370  -0.098   0.220
    1UNL     C2    2  -0.293   0.017   0.155
    1UNL     O1    3  -0.393   0.114   0.120
    1UNL     C3    4  -0.342   0.218   0.048
    1UNL     C4    5  -0.222   0.221  -0.016
    1UNL     C5    6  -0.170   0.333  -0.095
    1UNL     O2    7  -0.055   0.344  -0.131
    1UNL     O3    8  -0.261   0.427  -0.139
    1UNL     C6    9  -0.148   0.095  -0.032
    1UNL     C7   10  -0.105   0.052  -0.171
    1UNL     C8   11  -0.002  -0.065  -0.153
    1UNL     C9   12   0.125  -0.010  -0.097
    1UNL     N1   13   0.162   0.125  -0.087
    1UNL    C10   14   0.280   0.127  -0.014
    1UNL    C11   15   0.341   0.245   0.039
    1UNL    C12   16   0.445   0.228   0.123
    1UNL    C13   17   0.480   0.100   0.169
    1UNL    C14   18   0.412  -0.012   0.128
    1UNL    C15   19   0.315  -0.004   0.026
    1UNL    C16   20   0.205  -0.091  -0.023
    1UNL    C17   21   0.191  -0.239  -0.006
    1UNL    C18   22   0.050  -0.291  -0.039
    1UNL    C19   23   0.061  -0.383  -0.159
    1UNL     O4   24  -0.009  -0.479  -0.188
    1UNL     O5   25   0.165  -0.347  -0.245
    1UNL     N2   26  -0.047  -0.179  -0.072
    1UNL    C20   27  -0.108  -0.131   0.053
    1UNL    C21   28  -0.222  -0.030   0.023
    1UNL     H1   29  -0.412  -0.063   0.323
    1UNL     H2   30  -0.462  -0.132   0.172
    1UNL     H3   31  -0.296  -0.186   0.246
    1UNL     H4   32  -0.222   0.063   0.234
    1UNL     H5   33  -0.406   0.305   0.034
    1UNL     H6   34  -0.215   0.497  -0.197
    1UNL     H7   35  -0.058   0.092   0.021
    1UNL     H8   36  -0.068   0.137  -0.228
    1UNL     H9   37  -0.187   0.024  -0.236
    1UNL    H10   38   0.019  -0.105  -0.252
    1UNL    H11   39   0.095   0.207  -0.107
    1UNL    H12   40   0.315   0.347   0.007
    1UNL    H13   41   0.492   0.307   0.177
    1UNL    H14   42   0.549   0.102   0.251
    1UNL    H15   43   0.421  -0.109   0.178
    1UNL    H16   44   0.230  -0.276   0.097
    1UNL    H17   45   0.273  -0.285  -0.067
    1UNL    H18   46   0.010  -0.341   0.052
    1UNL    H19   47   0.166  -0.401  -0.326
    1UNL    H20   48  -0.143  -0.227   0.091
    1UNL    H21   49  -0.036  -0.095   0.122
    1UNL    H22   50  -0.304  -0.078  -0.043
   0.00000   0.00000   0.00000   0.00000   0.00000   0.00000   0.00000   0.00000   0.00000
Generated with MDTraj, t= 70.0
 50
    1UNL     C1    1  -0.389  -0.094   0.226
    1UNL     C2    2  -0.301   0.011   0.161
    1UNL     O1    3  -0.381   0.132   0.143
    1UNL     C3    4  -0.338   0.223   0.052
    1UNL     C4    5  -0.233   0.212  -0.031
    1UNL     C5    6  -0.186   0.320  -0.116
    1UNL     O2    7  -0.072   0.315  -0.158
    1UNL     O3    8  -0.277   0.418  -0.151
    1UNL     C6    9  -0.153   0.085  -0.040
    1UNL     C7   10  -0.104   0.037  -0.180
    1UNL     C8   11   0.011  -0.069  -0.146
    1UNL     C9   12   0.130  -0.005  -0.080
    1UNL     N1   13   0.160   0.127  -0.070
    1UNL    C10   14   0.275   0.136   0.007
    1UNL    C11   15   0.355   0.240   0.050
    1UNL    C12   16   0.464   0.222   0.127
    1UNL    C13   17   0.500   0.094   0.164
    1UNL    C14   18   0.422  -0.012   0.132
    1UNL    C15   19   0.316   0.005   0.042
    1UNL    C16   20   0.219  -0.082  -0.015
    1UNL    C17   21   0.209  -0.226  -0.004
    1UNL    C18   22   0.070  -0.284  -0.050
    1UNL    C19   23   0.061  -0.359  -0.180
    1UNL     O4   24  -0.048  -0.409  -0.205
    1UNL     O5   25   0.170  -0.380  -0.253
    1UNL     N2   26  -0.037  -0.181  -0.062
    1UNL    C20   27  -0.119  -0.146   0.058
    1UNL    C21   28  -0.224  -0.035   0.030
    1UNL     H1   29  -0.436  -0.062   0.326
    1UNL     H2   30  -0.482  -0.131   0.171
    1UNL     H3   31  -0.321  -0.183   0.258
    1UNL     H4   32  -0.230   0.052   0.240
    1UNL     H5   33  -0.402   0.310   0.033
    1UNL     H6   34  -0.240   0.483  -0.212
    1UNL     H7   35  -0.064   0.101   0.013
    1UNL     H8   36  -0.060   0.121  -0.233
    1UNL     H9   37  -0.187   0.010  -0.245
    1UNL    H10   38   0.037  -0.109  -0.242
    1UNL    H11   39   0.099   0.201  -0.100
    1UNL    H12   40   0.335   0.335   0.013
    1UNL    H13   41   0.523   0.311   0.149
    1UNL    H14   42   0.578   0.066   0.235
    1UNL    H15   43   0.427  -0.100   0.194
    1UNL    H16   44   0.250  -0.259   0.099
    1UNL    H17   45   0.285  -0.278  -0.069
    1UNL    H18   46   0.039  -0.360   0.026
    1UNL    H19   47   0.139  -0.445  -0.321
    1UNL    H20   48  -0.174  -0.236   0.094
    1UNL    H21   49  -0.052  -0.119   0.134
    1UNL    H22   50  -0.307  -0.070  -0.042
   0.00000   0.00000   0.00000   0.00000   0.00000   0.00000   0.00000   0.00000   0.00000
Generated with MDTraj, t= 71.0
 50
    1UNL     C1    1  -0.378  -0.089   0.224
    1UNL     C2    2  -0.295   0.026   0.171
    1UNL     O1    3  -0.396   0.128   0.134
    1UNL     C3    4  -0.351   0.215   0.034
    1UNL     C4    5  -0.243   0.210  -0.046
    1UNL     C5    6  -0.204   0.317  -0.130
    1UNL     O2    7  -0.094   0.315  -0.183
    1UNL     O3    8  -0.278   0.435  -0.134
    1UNL     C6    9  -0.147   0.094  -0.028
    1UNL     C7   10  -0.101   0.036  -0.162
    1UNL     C8   11   0.012  -0.067  -0.141
    1UNL     C9   12   0.132  -0.011  -0.090
    1UNL     N1   13   0.156   0.121  -0.061
    1UNL    C10   14   0.269   0.135   0.019
    1UNL    C11   15   0.343   0.245   0.069
    1UNL    C12   16   0.462   0.214   0.137
    1UNL    C13   17   0.510   0.086   0.146
    1UNL    C14   18   0.436  -0.025   0.101
    1UNL    C15   19   0.312  -0.001   0.042
    1UNL    C16   20   0.217  -0.091  -0.018
    1UNL    C17   21   0.197  -0.237   0.006
    1UNL    C18   22   0.060  -0.293  -0.044
    1UNL    C19   23   0.076  -0.364  -0.181
    1UNL     O4   24  -0.030  -0.371  -0.237
    1UNL     O5   25   0.188  -0.412  -0.234
    1UNL     N2   26  -0.045  -0.178  -0.060
    1UNL    C20   27  -0.099  -0.129   0.068
    1UNL    C21   28  -0.211  -0.023   0.051
    1UNL     H1   29  -0.452  -0.058   0.308
    1UNL     H2   30  -0.451  -0.124   0.136
    1UNL     H3   31  -0.313  -0.172   0.258
    1UNL     H4   32  -0.224   0.067   0.249
    1UNL     H5   33  -0.410   0.304   0.034
    1UNL     H6   34  -0.222   0.489  -0.186
    1UNL     H7   35  -0.067   0.133   0.027
    1UNL     H8   36  -0.080   0.114  -0.235
    1UNL     H9   37  -0.187  -0.018  -0.202
    1UNL    H10   38   0.028  -0.107  -0.239
    1UNL    H11   39   0.091   0.196  -0.076
    1UNL    H12   40   0.306   0.350   0.053
    1UNL    H13   41   0.531   0.294   0.160
    1UNL    H14   42   0.609   0.071   0.185
    1UNL    H15   43   0.461  -0.130   0.109
    1UNL    H16   44   0.196  -0.264   0.117
    1UNL    H17   45   0.290  -0.292  -0.031
    1UNL    H18   46   0.010  -0.370   0.017
    1UNL    H19   47   0.153  -0.465  -0.310
    1UNL    H20   48  -0.131  -0.214   0.131
    1UNL    H21   49  -0.024  -0.074   0.113
    1UNL    H22   50  -0.280  -0.074  -0.028
   0.00000   0.00000   0.00000   0.00000   0.00000   0.00000   0.00000   0.00000   0.00000
Generated with MDTraj, t= 72.0
 50
    1UNL     C1    1  -0.350  -0.084   0.254
    1UNL     C2    2  -0.294   0.029   0.164
    1UNL     O1    3  -0.406   0.116   0.116
    1UNL     C3    4  -0.361   0.216   0.033
    1UNL     C4    5  -0.246   0.213  -0.038
    1UNL     C5    6  -0.200   0.335  -0.114
    1UNL     O2    7  -0.091   0.341  -0.165
    1UNL     O3    8  -0.293   0.430  -0.119
    1UNL     C6    9  -0.154   0.094  -0.034
    1UNL     C7   10  -0.113   0.046  -0.176
    1UNL     C8   11  -0.000  -0.070  -0.154
    1UNL     C9   12   0.128  -0.011  -0.091
    1UNL     N1   13   0.165   0.125  -0.087
    1UNL    C10   14   0.286   0.128  -0.009
    1UNL    C11   15   0.361   0.233   0.039
    1UNL    C12   16   0.468   0.211   0.126
    1UNL    C13   17   0.495   0.078   0.172
    1UNL    C14   18   0.431  -0.028   0.112
    1UNL    C15   19   0.313  -0.001   0.036
    1UNL    C16   20   0.214  -0.090  -0.021
    1UNL    C17   21   0.186  -0.234   0.019
    1UNL    C18   22   0.058  -0.291  -0.040
    1UNL    C19   23   0.079  -0.359  -0.179
    1UNL     O4   24   0.003  -0.340  -0.269
    1UNL     O5   25   0.188  -0.440  -0.180
    1UNL     N2   26  -0.045  -0.188  -0.065
    1UNL    C20   27  -0.114  -0.148   0.061
    1UNL    C21   28  -0.213  -0.026   0.045
    1UNL     H1   29  -0.422  -0.048   0.337
    1UNL     H2   30  -0.415  -0.149   0.182
    1UNL     H3   31  -0.265  -0.143   0.298
    1UNL     H4   32  -0.222   0.084   0.229
    1UNL     H5   33  -0.416   0.308   0.026
    1UNL     H6   34  -0.266   0.504  -0.168
    1UNL     H7   35  -0.069   0.132   0.017
    1UNL     H8   36  -0.078   0.134  -0.230
    1UNL     H9   37  -0.204   0.012  -0.225
    1UNL    H10   38   0.017  -0.114  -0.250
    1UNL    H11   39   0.100   0.200  -0.105
    1UNL    H12   40   0.335   0.329   0.005
    1UNL    H13   41   0.524   0.295   0.165
    1UNL    H14   42   0.580   0.062   0.236
    1UNL    H15   43   0.466  -0.130   0.126
    1UNL    H16   44   0.194  -0.249   0.132
    1UNL    H17   45   0.273  -0.300  -0.018
    1UNL    H18   46   0.014  -0.376   0.016
    1UNL    H19   47   0.195  -0.471  -0.273
    1UNL    H20   48  -0.172  -0.233   0.100
    1UNL    H21   49  -0.040  -0.122   0.130
    1UNL    H22   50  -0.295  -0.071  -0.025
   0.00000   0.00000   0.00000   0.00000   0.00000   0.00000   0.00000   0.00000   0.00000
Generated with MDTraj, t= 73.0
 50
    1UNL     C1    1  -0.342  -0.087   0.254
    1UNL     C2    2  -0.291   0.018   0.159
    1UNL     O1    3  -0.398   0.110   0.121
    1UNL     C3    4  -0.359   0.210   0.041
    1UNL     C4    5  -0.246   0.206  -0.032
    1UNL     C5    6  -0.201   0.332  -0.097
    1UNL     O2    7  -0.086   0.332  -0.132
    1UNL     O3    8  -0.286   0.437  -0.120
    1UNL     C6    9  -0.162   0.084  -0.033
    1UNL     C7   10  -0.116   0.039  -0.177
    1UNL     C8   11  -0.005  -0.064  -0.161
    1UNL     C9   12   0.122  -0.016  -0.097
    1UNL     N1   13   0.173   0.115  -0.097
    1UNL    C10   14   0.291   0.121  -0.019
    1UNL    C11   15   0.377   0.227  -0.001
    1UNL    C12   16   0.472   0.213   0.093
    1UNL    C13   17   0.485   0.089   0.173
    1UNL    C14   18   0.403  -0.014   0.149
    1UNL    C15   19   0.300  -0.001   0.053
    1UNL    C16   20   0.204  -0.088  -0.007
    1UNL    C17   21   0.180  -0.236   0.015
    1UNL    C18   22   0.048  -0.277  -0.055
    1UNL    C19   23   0.087  -0.353  -0.183
    1UNL     O4   24   0.070  -0.308  -0.292
    1UNL     O5   25   0.156  -0.465  -0.148
    1UNL     N2   26  -0.061  -0.176  -0.075
    1UNL    C20   27  -0.117  -0.131   0.057
    1UNL    C21   28  -0.225  -0.032   0.036
    1UNL     H1   29  -0.404  -0.045   0.343
    1UNL     H2   30  -0.398  -0.166   0.205
    1UNL     H3   31  -0.246  -0.129   0.305
    1UNL     H4   32  -0.224   0.082   0.213
    1UNL     H5   33  -0.426   0.297   0.040
    1UNL     H6   34  -0.226   0.500  -0.164
    1UNL     H7   35  -0.075   0.109   0.023
    1UNL     H8   36  -0.076   0.130  -0.226
    1UNL     H9   37  -0.204  -0.007  -0.221
    1UNL    H10   38   0.023  -0.108  -0.257
    1UNL    H11   39   0.123   0.195  -0.129
    1UNL    H12   40   0.367   0.323  -0.055
    1UNL    H13   41   0.531   0.302   0.114
    1UNL    H14   42   0.543   0.082   0.265
    1UNL    H15   43   0.424  -0.113   0.182
    1UNL    H16   44   0.177  -0.256   0.127
    1UNL    H17   45   0.275  -0.294  -0.014
    1UNL    H18   46   0.001  -0.355   0.007
    1UNL    H19   47   0.178  -0.510  -0.232
    1UNL    H20   48  -0.153  -0.217   0.114
    1UNL    H21   49  -0.037  -0.093   0.117
    1UNL    H22   50  -0.316  -0.070  -0.028
   0.00000   0.00000   0.00000   0.00000   0.00000   0.00000   0.00000   0.00000   0.00000
Generated with MDTraj, t= 74.0
 50
    1UNL     C1    1  -0.380  -0.092   0.235
    1UNL     C2    2  -0.296   0.013   0.162
    1UNL     O1    3  -0.394   0.120   0.134
    1UNL     C3    4  -0.346   0.219   0.054
    1UNL     C4    5  -0.231   0.214  -0.017
    1UNL     C5    6  -0.180   0.328  -0.097
    1UNL     O2    7  -0.076   0.322  -0.161
    1UNL     O3    8  -0.264   0.436  -0.105
    1UNL     C6    9  -0.155   0.084  -0.030
    1UNL     C7   10  -0.113   0.029  -0.174
    1UNL     C8   11  -0.008  -0.074  -0.160
    1UNL     C9   12   0.116  -0.011  -0.095
    1UNL     N1   13   0.157   0.117  -0.100
    1UNL    C10   14   0.263   0.129  -0.011
    1UNL    C11   15   0.341   0.241   0.020
    1UNL    C12   16   0.461   0.223   0.090
    1UNL    C13   17   0.495   0.096   0.141
    1UNL    C14   18   0.414  -0.010   0.120
    1UNL    C15   19   0.298   0.004   0.038
    1UNL    C16   20   0.202  -0.089  -0.014
    1UNL    C17   21   0.174  -0.230   0.026
    1UNL    C18   22   0.050  -0.286  -0.046
    1UNL    C19   23   0.104  -0.350  -0.170
    1UNL     O4   24   0.139  -0.280  -0.263
    1UNL     O5   25   0.108  -0.488  -0.168
    1UNL     N2   26  -0.055  -0.186  -0.070
    1UNL    C20   27  -0.125  -0.149   0.059
    1UNL    C21   28  -0.227  -0.035   0.032
    1UNL     H1   29  -0.407  -0.064   0.342
    1UNL     H2   30  -0.471  -0.109   0.183
    1UNL     H3   31  -0.332  -0.197   0.254
    1UNL     H4   32  -0.217   0.051   0.220
    1UNL     H5   33  -0.416   0.302   0.052
    1UNL     H6   34  -0.215   0.499  -0.171
    1UNL     H7   35  -0.063   0.102   0.022
    1UNL     H8   36  -0.064   0.113  -0.229
    1UNL     H9   37  -0.199  -0.017  -0.220
    1UNL    H10   38   0.018  -0.124  -0.256
    1UNL    H11   39   0.097   0.200  -0.128
    1UNL    H12   40   0.302   0.325  -0.036
    1UNL    H13   41   0.524   0.306   0.116
    1UNL    H14   42   0.581   0.099   0.206
    1UNL    H15   43   0.424  -0.114   0.158
    1UNL    H16   44   0.165  -0.233   0.139
    1UNL    H17   45   0.266  -0.300   0.013
    1UNL    H18   46   0.006  -0.365   0.015
    1UNL    H19   47   0.150  -0.514  -0.251
    1UNL    H20   48  -0.165  -0.242   0.094
    1UNL    H21   49  -0.049  -0.134   0.136
    1UNL    H22   50  -0.301  -0.073  -0.049
   0.00000   0.00000   0.00000   0.00000   0.00000   0.00000   0.00000   0.00000   0.00000
Generated with MDTraj, t= 75.0
 50
    1UNL     C1    1  -0.412  -0.097   0.209
    1UNL     C2    2  -0.304   0.006   0.171
    1UNL     O1    3  -0.374   0.133   0.149
    1UNL     C3    4  -0.334   0.220   0.054
    1UNL     C4    5  -0.233   0.203  -0.033
    1UNL     C5    6  -0.172   0.321  -0.108
    1UNL     O2    7  -0.069   0.301  -0.168
    1UNL     O3    8  -0.228   0.446  -0.092
    1UNL     C6    9  -0.160   0.072  -0.033
    1UNL     C7   10  -0.117   0.019  -0.177
    1UNL     C8   11  -0.006  -0.077  -0.152
    1UNL     C9   12   0.110  -0.010  -0.081
    1UNL     N1   13   0.141   0.122  -0.076
    1UNL    C10   14   0.261   0.148  -0.011
    1UNL    C11   15   0.330   0.262   0.036
    1UNL    C12   16   0.452   0.253   0.103
    1UNL    C13   17   0.496   0.121   0.125
    1UNL    C14   18   0.427   0.006   0.091
    1UNL    C15   19   0.308   0.014   0.020
    1UNL    C16   20   0.208  -0.080  -0.014
    1UNL    C17   21   0.188  -0.228   0.022
    1UNL    C18   22   0.061  -0.294  -0.032
    1UNL    C19   23   0.095  -0.364  -0.167
    1UNL     O4   24   0.176  -0.308  -0.242
    1UNL     O5   25   0.043  -0.484  -0.208
    1UNL     N2   26  -0.048  -0.197  -0.061
    1UNL    C20   27  -0.133  -0.163   0.061
    1UNL    C21   28  -0.231  -0.041   0.044
    1UNL     H1   29  -0.483  -0.049   0.279
    1UNL     H2   30  -0.469  -0.134   0.119
    1UNL     H3   31  -0.376  -0.178   0.268
    1UNL     H4   32  -0.240   0.022   0.250
    1UNL     H5   33  -0.379   0.316   0.059
    1UNL     H6   34  -0.189   0.523  -0.143
    1UNL     H7   35  -0.073   0.099   0.025
    1UNL     H8   36  -0.081   0.102  -0.244
    1UNL     H9   37  -0.195  -0.040  -0.223
    1UNL    H10   38   0.038  -0.122  -0.246
    1UNL    H11   39   0.079   0.193  -0.109
    1UNL    H12   40   0.297   0.360   0.011
    1UNL    H13   41   0.507   0.344   0.126
    1UNL    H14   42   0.592   0.100   0.170
    1UNL    H15   43   0.442  -0.087   0.138
    1UNL    H16   44   0.199  -0.247   0.133
    1UNL    H17   45   0.281  -0.284  -0.019
    1UNL    H18   46   0.021  -0.366   0.042
    1UNL    H19   47   0.082  -0.501  -0.295
    1UNL    H20   48  -0.177  -0.254   0.091
    1UNL    H21   49  -0.061  -0.148   0.143
    1UNL    H22   50  -0.308  -0.080  -0.034
   0.00000   0.00000   0.00000   0.00000   0.00000   0.00000   0.00000   0.00000   0.00000
Generated with MDTraj, t= 76.0
 50
    1UNL     C1    1  -0.397  -0.115   0.204
    1UNL     C2    2  -0.303  -0.003   0.158
    1UNL     O1    3  -0.388   0.112   0.134
    1UNL     C3    4  -0.326   0.211   0.058
    1UNL     C4    5  -0.227   0.204  -0.034
    1UNL     C5    6  -0.181   0.323  -0.103
    1UNL     O2    7  -0.077   0.314  -0.169
    1UNL     O3    8  -0.244   0.447  -0.084
    1UNL     C6    9  -0.146   0.079  -0.032
    1UNL     C7   10  -0.104   0.021  -0.170
    1UNL     C8   11   0.005  -0.079  -0.148
    1UNL     C9   12   0.128  -0.010  -0.093
    1UNL     N1   13   0.150   0.123  -0.092
    1UNL    C10   14   0.267   0.144  -0.016
    1UNL    C11   15   0.333   0.258   0.009
    1UNL    C12   16   0.442   0.251   0.096
    1UNL    C13   17   0.490   0.127   0.148
    1UNL    C14   18   0.416   0.013   0.125
    1UNL    C15   19   0.307   0.023   0.036
    1UNL    C16   20   0.217  -0.077  -0.015
    1UNL    C17   21   0.202  -0.219   0.011
    1UNL    C18   22   0.074  -0.293  -0.038
    1UNL    C19   23   0.075  -0.371  -0.169
    1UNL     O4   24   0.178  -0.346  -0.232
    1UNL     O5   25  -0.032  -0.448  -0.206
    1UNL     N2   26  -0.035  -0.195  -0.056
    1UNL    C20   27  -0.108  -0.150   0.068
    1UNL    C21   28  -0.215  -0.047   0.039
    1UNL     H1   29  -0.429  -0.102   0.304
    1UNL     H2   30  -0.488  -0.111   0.134
    1UNL     H3   31  -0.348  -0.207   0.203
    1UNL     H4   32  -0.252   0.031   0.240
    1UNL     H5   33  -0.378   0.304   0.072
    1UNL     H6   34  -0.185   0.501  -0.133
    1UNL     H7   35  -0.064   0.103   0.035
    1UNL     H8   36  -0.084   0.098  -0.248
    1UNL     H9   37  -0.188  -0.037  -0.208
    1UNL    H10   38   0.047  -0.119  -0.246
    1UNL    H11   39   0.078   0.190  -0.128
    1UNL    H12   40   0.303   0.361  -0.022
    1UNL    H13   41   0.507   0.337   0.098
    1UNL    H14   42   0.576   0.120   0.212
    1UNL    H15   43   0.446  -0.078   0.179
    1UNL    H16   44   0.202  -0.229   0.125
    1UNL    H17   45   0.286  -0.286  -0.029
    1UNL    H18   46   0.043  -0.365   0.038
    1UNL    H19   47  -0.020  -0.492  -0.291
    1UNL    H20   48  -0.150  -0.228   0.121
    1UNL    H21   49  -0.032  -0.105   0.138
    1UNL    H22   50  -0.286  -0.087  -0.043
   0.00000   0.00000   0.00000   0.00000   0.00000   0.00000   0.00000   0.00000   0.00000
Generated with MDTraj, t= 77.0
 50
    1UNL     C1    1  -0.365  -0.107   0.240
    1UNL     C2    2  -0.299   0.009   0.159
    1UNL     O1    3  -0.404   0.098   0.113
    1UNL     C3    4  -0.357   0.209   0.047
    1UNL     C4    5  -0.243   0.207  -0.025
    1UNL     C5    6  -0.194   0.330  -0.088
    1UNL     O2    7  -0.081   0.327  -0.134
    1UNL     O3    8  -0.272   0.436  -0.100
    1UNL     C6    9  -0.159   0.085  -0.034
    1UNL     C7   10  -0.104   0.043  -0.174
    1UNL     C8   11   0.005  -0.063  -0.160
    1UNL     C9   12   0.144  -0.012  -0.119
    1UNL     N1   13   0.172   0.125  -0.113
    1UNL    C10   14   0.275   0.146  -0.025
    1UNL    C11   15   0.344   0.258   0.017
    1UNL    C12   16   0.449   0.238   0.109
    1UNL    C13   17   0.468   0.118   0.170
    1UNL    C14   18   0.409   0.000   0.120
    1UNL    C15   19   0.309   0.016   0.025
    1UNL    C16   20   0.233  -0.083  -0.036
    1UNL    C17   21   0.210  -0.233  -0.003
    1UNL    C18   22   0.070  -0.289  -0.033
    1UNL    C19   23   0.080  -0.373  -0.154
    1UNL     O4   24   0.183  -0.401  -0.214
    1UNL     O5   25  -0.036  -0.422  -0.201
    1UNL     N2   26  -0.028  -0.175  -0.066
    1UNL    C20   27  -0.095  -0.141   0.061
    1UNL    C21   28  -0.211  -0.046   0.042
    1UNL     H1   29  -0.435  -0.079   0.313
    1UNL     H2   30  -0.418  -0.164   0.167
    1UNL     H3   31  -0.291  -0.167   0.291
    1UNL     H4   32  -0.245   0.059   0.228
    1UNL     H5   33  -0.411   0.305   0.046
    1UNL     H6   34  -0.229   0.503  -0.154
    1UNL     H7   35  -0.072   0.110   0.028
    1UNL     H8   36  -0.077   0.137  -0.229
    1UNL     H9   37  -0.185   0.009  -0.239
    1UNL    H10   38   0.027  -0.110  -0.262
    1UNL    H11   39   0.098   0.195  -0.137
    1UNL    H12   40   0.323   0.352  -0.022
    1UNL    H13   41   0.512   0.316   0.153
    1UNL    H14   42   0.545   0.116   0.246
    1UNL    H15   43   0.430  -0.099   0.156
    1UNL    H16   44   0.230  -0.257   0.107
    1UNL    H17   45   0.283  -0.290  -0.069
    1UNL    H18   46   0.026  -0.350   0.048
    1UNL    H19   47  -0.020  -0.461  -0.290
    1UNL    H20   48  -0.129  -0.230   0.104
    1UNL    H21   49  -0.022  -0.097   0.134
    1UNL    H22   50  -0.275  -0.100  -0.037
   0.00000   0.00000   0.00000   0.00000   0.00000   0.00000   0.00000   0.00000   0.00000
Generated with MDTraj, t= 78.0
 50
    1UNL     C1    1  -0.344  -0.081   0.257
    1UNL     C2    2  -0.286   0.021   0.155
    1UNL     O1    3  -0.397   0.101   0.119
    1UNL     C3    4  -0.366   0.195   0.026
    1UNL     C4    5  -0.247   0.199  -0.041
    1UNL     C5    6  -0.200   0.324  -0.098
    1UNL     O2    7  -0.081   0.334  -0.121
    1UNL     O3    8  -0.285   0.427  -0.117
    1UNL     C6    9  -0.153   0.086  -0.039
    1UNL     C7   10  -0.106   0.030  -0.174
    1UNL     C8   11   0.003  -0.069  -0.154
    1UNL     C9   12   0.126   0.001  -0.098
    1UNL     N1   13   0.147   0.132  -0.077
    1UNL    C10   14   0.268   0.144  -0.011
    1UNL    C11   15   0.337   0.257   0.049
    1UNL    C12   16   0.442   0.237   0.131
    1UNL    C13   17   0.498   0.107   0.151
    1UNL    C14   18   0.441   0.000   0.094
    1UNL    C15   19   0.318   0.014   0.021
    1UNL    C16   20   0.221  -0.077  -0.038
    1UNL    C17   21   0.214  -0.224  -0.013
    1UNL    C18   22   0.075  -0.288  -0.049
    1UNL    C19   23   0.077  -0.381  -0.165
    1UNL     O4   24   0.183  -0.435  -0.187
    1UNL     O5   25  -0.039  -0.407  -0.229
    1UNL     N2   26  -0.035  -0.184  -0.070
    1UNL    C20   27  -0.099  -0.134   0.055
    1UNL    C21   28  -0.208  -0.033   0.037
    1UNL     H1   29  -0.415  -0.037   0.322
    1UNL     H2   30  -0.394  -0.154   0.212
    1UNL     H3   31  -0.271  -0.115   0.332
    1UNL     H4   32  -0.226   0.086   0.205
    1UNL     H5   33  -0.433   0.279   0.015
    1UNL     H6   34  -0.234   0.507  -0.152
    1UNL     H7   35  -0.066   0.114   0.021
    1UNL     H8   36  -0.066   0.114  -0.237
    1UNL     H9   37  -0.187  -0.003  -0.241
    1UNL    H10   38   0.031  -0.124  -0.249
    1UNL    H11   39   0.079   0.208  -0.080
    1UNL    H12   40   0.304   0.362   0.037
    1UNL    H13   41   0.472   0.324   0.184
    1UNL    H14   42   0.577   0.086   0.220
    1UNL    H15   43   0.498  -0.090   0.091
    1UNL    H16   44   0.241  -0.240   0.098
    1UNL    H17   45   0.286  -0.277  -0.082
    1UNL    H18   46   0.046  -0.350   0.038
    1UNL    H19   47  -0.023  -0.483  -0.290
    1UNL    H20   48  -0.143  -0.216   0.103
    1UNL    H21   49  -0.020  -0.091   0.124
    1UNL    H22   50  -0.275  -0.086  -0.042
   0.00000   0.00000   0.00000   0.00000   0.00000   0.00000   0.00000   0.00000   0.00000
Generated with MDTraj, t= 79.0
 50
    1UNL     C1    1  -0.346  -0.095   0.251
    1UNL     C2    2  -0.279   0.019   0.167
    1UNL     O1    3  -0.389   0.106   0.124
    1UNL     C3    4  -0.355   0.197   0.028
    1UNL     C4    5  -0.235   0.205  -0.035
    1UNL     C5    6  -0.199   0.316  -0.114
    1UNL     O2    7  -0.087   0.312  -0.167
    1UNL     O3    8  -0.287   0.422  -0.131
    1UNL     C6    9  -0.146   0.085  -0.034
    1UNL     C7   10  -0.102   0.035  -0.173
    1UNL     C8   11   0.005  -0.075  -0.148
    1UNL     C9   12   0.116  -0.003  -0.074
    1UNL     N1   13   0.138   0.135  -0.043
    1UNL    C10   14   0.259   0.147   0.015
    1UNL    C11   15   0.330   0.260   0.062
    1UNL    C12   16   0.450   0.236   0.123
    1UNL    C13   17   0.506   0.109   0.128
    1UNL    C14   18   0.437   0.001   0.086
    1UNL    C15   19   0.312   0.016   0.032
    1UNL    C16   20   0.217  -0.076  -0.018
    1UNL    C17   21   0.219  -0.225  -0.025
    1UNL    C18   22   0.078  -0.284  -0.047
    1UNL    C19   23   0.076  -0.372  -0.165
    1UNL     O4   24   0.163  -0.451  -0.184
    1UNL     O5   25  -0.029  -0.358  -0.250
    1UNL     N2   26  -0.039  -0.187  -0.065
    1UNL    C20   27  -0.099  -0.143   0.060
    1UNL    C21   28  -0.210  -0.036   0.044
    1UNL     H1   29  -0.380  -0.075   0.350
    1UNL     H2   30  -0.427  -0.132   0.198
    1UNL     H3   31  -0.278  -0.172   0.276
    1UNL     H4   32  -0.228   0.088   0.221
    1UNL     H5   33  -0.435   0.265   0.013
    1UNL     H6   34  -0.230   0.488  -0.185
    1UNL     H7   35  -0.060   0.111   0.031
    1UNL     H8   36  -0.057   0.117  -0.237
    1UNL     H9   37  -0.185   0.018  -0.247
    1UNL    H10   38   0.043  -0.125  -0.241
    1UNL    H11   39   0.087   0.214  -0.093
    1UNL    H12   40   0.284   0.354   0.047
    1UNL    H13   41   0.509   0.318   0.168
    1UNL    H14   42   0.602   0.105   0.181
    1UNL    H15   43   0.484  -0.098   0.087
    1UNL    H16   44   0.269  -0.263   0.072
    1UNL    H17   45   0.284  -0.240  -0.117
    1UNL    H18   46   0.058  -0.346   0.043
    1UNL    H19   47  -0.020  -0.434  -0.313
    1UNL    H20   48  -0.141  -0.231   0.102
    1UNL    H21   49  -0.024  -0.102   0.131
    1UNL    H22   50  -0.291  -0.080  -0.026
   0.00000   0.00000   0.00000   0.00000   0.00000   0.00000   0.00000   0.00000   0.00000
Generated with MDTraj, t= 80.0
 50
    1UNL     C1    1  -0.373  -0.103   0.241
    1UNL     C2    2  -0.296   0.011   0.167
    1UNL     O1    3  -0.393   0.120   0.152
    1UNL     C3    4  -0.357   0.208   0.065
    1UNL     C4    5  -0.255   0.199  -0.027
    1UNL     C5    6  -0.209   0.308  -0.117
    1UNL     O2    7  -0.098   0.304  -0.169
    1UNL     O3    8  -0.290   0.410  -0.139
    1UNL     C6    9  -0.159   0.083  -0.032
    1UNL     C7   10  -0.107   0.033  -0.166
    1UNL     C8   11   0.014  -0.065  -0.147
    1UNL     C9   12   0.135  -0.010  -0.089
    1UNL     N1   13   0.162   0.125  -0.095
    1UNL    C10   14   0.278   0.143  -0.008
    1UNL    C11   15   0.349   0.261   0.035
    1UNL    C12   16   0.458   0.238   0.111
    1UNL    C13   17   0.503   0.115   0.159
    1UNL    C14   18   0.433   0.001   0.115
    1UNL    C15   19   0.321   0.016   0.031
    1UNL    C16   20   0.227  -0.083  -0.019
    1UNL    C17   21   0.211  -0.234  -0.011
    1UNL    C18   22   0.071  -0.286  -0.043
    1UNL    C19   23   0.082  -0.366  -0.171
    1UNL     O4   24   0.148  -0.464  -0.181
    1UNL     O5   25   0.006  -0.317  -0.272
    1UNL     N2   26  -0.033  -0.176  -0.059
    1UNL    C20   27  -0.102  -0.140   0.069
    1UNL    C21   28  -0.218  -0.039   0.047
    1UNL     H1   29  -0.425  -0.058   0.320
    1UNL     H2   30  -0.450  -0.147   0.176
    1UNL     H3   31  -0.323  -0.167   0.303
    1UNL     H4   32  -0.227   0.046   0.232
    1UNL     H5   33  -0.408   0.303   0.062
    1UNL     H6   34  -0.247   0.485  -0.190
    1UNL     H7   35  -0.069   0.118   0.025
    1UNL     H8   36  -0.095   0.109  -0.248
    1UNL     H9   37  -0.186  -0.025  -0.222
    1UNL    H10   38   0.044  -0.108  -0.244
    1UNL    H11   39   0.086   0.187  -0.114
    1UNL    H12   40   0.317   0.360  -0.002
    1UNL    H13   41   0.521   0.317   0.140
    1UNL    H14   42   0.595   0.110   0.209
    1UNL    H15   43   0.448  -0.091   0.163
    1UNL    H16   44   0.244  -0.256   0.097
    1UNL    H17   45   0.283  -0.273  -0.090
    1UNL    H18   46   0.046  -0.360   0.036
    1UNL    H19   47   0.027  -0.373  -0.349
    1UNL    H20   48  -0.134  -0.231   0.119
    1UNL    H21   49  -0.028  -0.104   0.142
    1UNL    H22   50  -0.287  -0.100  -0.024
   0.00000   0.00000   0.00000   0.00000   0.00000   0.00000   0.00000   0.00000   0.00000
Generated with MDTraj, t= 81.0
 50
    1UNL     C1    1  -0.376  -0.116   0.234
    1UNL     C2    2  -0.296   0.011   0.181
    1UNL     O1    3  -0.391   0.111   0.136
    1UNL     C3    4  -0.342   0.212   0.065
    1UNL     C4    5  -0.236   0.209  -0.020
    1UNL     C5    6  -0.204   0.324  -0.100
    1UNL     O2    7  -0.088   0.331  -0.144
    1UNL     O3    8  -0.308   0.413  -0.125
    1UNL     C6    9  -0.148   0.088  -0.023
    1UNL     C7   10  -0.119   0.035  -0.165
    1UNL     C8   11  -0.001  -0.071  -0.159
    1UNL     C9   12   0.125  -0.013  -0.109
    1UNL     N1   13   0.171   0.119  -0.116
    1UNL    C10   14   0.281   0.130  -0.033
    1UNL    C11   15   0.350   0.245   0.003
    1UNL    C12   16   0.451   0.236   0.094
    1UNL    C13   17   0.481   0.106   0.145
    1UNL    C14   18   0.409  -0.006   0.122
    1UNL    C15   19   0.309   0.006   0.028
    1UNL    C16   20   0.207  -0.082  -0.023
    1UNL    C17   21   0.183  -0.220   0.023
    1UNL    C18   22   0.059  -0.288  -0.044
    1UNL    C19   23   0.098  -0.367  -0.168
    1UNL     O4   24   0.152  -0.474  -0.153
    1UNL     O5   25   0.080  -0.302  -0.286
    1UNL     N2   26  -0.044  -0.183  -0.062
    1UNL    C20   27  -0.099  -0.133   0.071
    1UNL    C21   28  -0.215  -0.035   0.058
    1UNL     H1   29  -0.434  -0.101   0.316
    1UNL     H2   30  -0.433  -0.155   0.149
    1UNL     H3   31  -0.311  -0.188   0.272
    1UNL     H4   32  -0.232   0.051   0.248
    1UNL     H5   33  -0.401   0.304   0.082
    1UNL     H6   34  -0.269   0.474  -0.188
    1UNL     H7   35  -0.048   0.113   0.026
    1UNL     H8   36  -0.088   0.113  -0.235
    1UNL     H9   37  -0.216  -0.006  -0.206
    1UNL    H10   38   0.012  -0.120  -0.255
    1UNL    H11   39   0.109   0.201  -0.137
    1UNL    H12   40   0.320   0.343  -0.030
    1UNL    H13   41   0.507   0.331   0.109
    1UNL    H14   42   0.561   0.084   0.219
    1UNL    H15   43   0.438  -0.092   0.188
    1UNL    H16   44   0.162  -0.216   0.136
    1UNL    H17   45   0.280  -0.275  -0.003
    1UNL    H18   46   0.025  -0.367   0.026
    1UNL    H19   47   0.106  -0.365  -0.354
    1UNL    H20   48  -0.112  -0.213   0.148
    1UNL    H21   49  -0.021  -0.080   0.125
    1UNL    H22   50  -0.289  -0.081  -0.018
   0.00000   0.00000   0.00000   0.00000   0.00000   0.00000   0.00000   0.00000   0.00000
Generated with MDTraj, t= 82.0
 50
    1UNL     C1    1  -0.351  -0.104   0.251
    1UNL     C2    2  -0.291   0.009   0.168
    1UNL     O1    3  -0.394   0.112   0.141
    1UNL     C3    4  -0.354   0.208   0.051
    1UNL     C4    5  -0.247   0.200  -0.032
    1UNL     C5    6  -0.195   0.325  -0.094
    1UNL     O2    7  -0.082   0.333  -0.145
    1UNL     O3    8  -0.271   0.435  -0.093
    1UNL     C6    9  -0.163   0.079  -0.035
    1UNL     C7   10  -0.125   0.033  -0.175
    1UNL     C8   11  -0.010  -0.068  -0.157
    1UNL     C9   12   0.107  -0.007  -0.088
    1UNL     N1   13   0.147   0.122  -0.096
    1UNL    C10   14   0.269   0.137  -0.029
    1UNL    C11   15   0.350   0.250  -0.002
    1UNL    C12   16   0.464   0.235   0.077
    1UNL    C13   17   0.499   0.116   0.135
    1UNL    C14   18   0.417   0.002   0.111
    1UNL    C15   19   0.303   0.011   0.026
    1UNL    C16   20   0.201  -0.080  -0.021
    1UNL    C17   21   0.179  -0.216   0.036
    1UNL    C18   22   0.059  -0.291  -0.035
    1UNL    C19   23   0.111  -0.365  -0.161
    1UNL     O4   24   0.139  -0.482  -0.144
    1UNL     O5   25   0.128  -0.304  -0.280
    1UNL     N2   26  -0.051  -0.192  -0.075
    1UNL    C20   27  -0.139  -0.168   0.043
    1UNL    C21   28  -0.229  -0.047   0.042
    1UNL     H1   29  -0.373  -0.069   0.347
    1UNL     H2   30  -0.435  -0.144   0.198
    1UNL     H3   31  -0.282  -0.184   0.267
    1UNL     H4   32  -0.219   0.059   0.221
    1UNL     H5   33  -0.414   0.298   0.065
    1UNL     H6   34  -0.227   0.497  -0.148
    1UNL     H7   35  -0.068   0.109   0.021
    1UNL     H8   36  -0.099   0.121  -0.237
    1UNL     H9   37  -0.215  -0.024  -0.214
    1UNL    H10   38   0.015  -0.108  -0.254
    1UNL    H11   39   0.099   0.201  -0.143
    1UNL    H12   40   0.322   0.341  -0.053
    1UNL    H13   41   0.524   0.317   0.103
    1UNL    H14   42   0.583   0.120   0.200
    1UNL    H15   43   0.435  -0.098   0.139
    1UNL    H16   44   0.156  -0.210   0.148
    1UNL    H17   45   0.270  -0.282   0.018
    1UNL    H18   46   0.019  -0.370   0.032
    1UNL    H19   47   0.193  -0.358  -0.328
    1UNL    H20   48  -0.196  -0.265   0.061
    1UNL    H21   49  -0.086  -0.174   0.136
    1UNL    H22   50  -0.324  -0.066  -0.023
   0.00000   0.00000   0.00000   0.00000   0.00000   0.00000   0.00000   0.00000   0.00000
Generated with MDTraj, t= 83.0
 50
    1UNL     C1    1  -0.363  -0.105   0.250
    1UNL     C2    2  -0.297   0.007   0.166
    1UNL     O1    3  -0.394   0.104   0.129
    1UNL     C3    4  -0.359   0.205   0.044
    1UNL     C4    5  -0.246   0.198  -0.035
    1UNL     C5    6  -0.181   0.319  -0.097
    1UNL     O2    7  -0.085   0.303  -0.172
    1UNL     O3    8  -0.227   0.438  -0.062
    1UNL     C6    9  -0.171   0.072  -0.037
    1UNL     C7   10  -0.131   0.018  -0.173
    1UNL     C8   11  -0.012  -0.078  -0.153
    1UNL     C9   12   0.110  -0.011  -0.087
    1UNL     N1   13   0.140   0.125  -0.081
    1UNL    C10   14   0.257   0.147  -0.014
    1UNL    C11   15   0.338   0.257  -0.000
    1UNL    C12   16   0.460   0.238   0.059
    1UNL    C13   17   0.500   0.116   0.123
    1UNL    C14   18   0.422   0.007   0.103
    1UNL    C15   19   0.298   0.023   0.034
    1UNL    C16   20   0.204  -0.075  -0.007
    1UNL    C17   21   0.189  -0.213   0.033
    1UNL    C18   22   0.067  -0.285  -0.039
    1UNL    C19   23   0.105  -0.361  -0.165
    1UNL     O4   24   0.107  -0.485  -0.156
    1UNL     O5   25   0.148  -0.285  -0.271
    1UNL     N2   26  -0.050  -0.190  -0.065
    1UNL    C20   27  -0.133  -0.154   0.054
    1UNL    C21   28  -0.235  -0.046   0.036
    1UNL     H1   29  -0.430  -0.065   0.328
    1UNL     H2   30  -0.411  -0.170   0.186
    1UNL     H3   31  -0.301  -0.175   0.308
    1UNL     H4   32  -0.226   0.053   0.225
    1UNL     H5   33  -0.429   0.285   0.032
    1UNL     H6   34  -0.182   0.512  -0.105
    1UNL     H7   35  -0.080   0.098   0.028
    1UNL     H8   36  -0.098   0.109  -0.227
    1UNL     H9   37  -0.222  -0.039  -0.212
    1UNL    H10   38   0.019  -0.107  -0.252
    1UNL    H11   39   0.088   0.192  -0.134
    1UNL    H12   40   0.304   0.350  -0.047
    1UNL    H13   41   0.522   0.330   0.069
    1UNL    H14   42   0.592   0.105   0.182
    1UNL    H15   43   0.456  -0.092   0.135
    1UNL    H16   44   0.174  -0.220   0.144
    1UNL    H17   45   0.284  -0.275   0.012
    1UNL    H18   46   0.021  -0.357   0.033
    1UNL    H19   47   0.169  -0.347  -0.344
    1UNL    H20   48  -0.181  -0.245   0.104
    1UNL    H21   49  -0.065  -0.134   0.134
    1UNL    H22   50  -0.324  -0.090  -0.025
   0.00000   0.00000   0.00000   0.00000   0.00000   0.00000   0.00000   0.00000   0.00000
Generated with MDTraj, t= 84.0
 50
    1UNL     C1    1  -0.398  -0.107   0.229
    1UNL     C2    2  -0.319   0.003   0.164
    1UNL     O1    3  -0.407   0.108   0.122
    1UNL     C3    4  -0.349   0.208   0.046
    1UNL     C4    5  -0.227   0.201  -0.018
    1UNL     C5    6  -0.186   0.320  -0.091
    1UNL     O2    7  -0.090   0.312  -0.170
    1UNL     O3    8  -0.248   0.441  -0.063
    1UNL     C6    9  -0.155   0.069  -0.027
    1UNL     C7   10  -0.115   0.016  -0.169
    1UNL     C8   11  -0.005  -0.089  -0.151
    1UNL     C9   12   0.124  -0.022  -0.106
    1UNL     N1   13   0.152   0.116  -0.108
    1UNL    C10   14   0.264   0.135  -0.029
    1UNL    C11   15   0.331   0.259  -0.008
    1UNL    C12   16   0.439   0.260   0.076
    1UNL    C13   17   0.489   0.130   0.128
    1UNL    C14   18   0.424   0.011   0.110
    1UNL    C15   19   0.308   0.009   0.024
    1UNL    C16   20   0.218  -0.086  -0.025
    1UNL    C17   21   0.200  -0.229   0.022
    1UNL    C18   22   0.075  -0.292  -0.029
    1UNL    C19   23   0.101  -0.354  -0.157
    1UNL     O4   24   0.058  -0.468  -0.178
    1UNL     O5   25   0.156  -0.291  -0.260
    1UNL     N2   26  -0.040  -0.192  -0.045
    1UNL    C20   27  -0.097  -0.139   0.082
    1UNL    C21   28  -0.219  -0.047   0.053
    1UNL     H1   29  -0.433  -0.075   0.332
    1UNL     H2   30  -0.471  -0.143   0.166
    1UNL     H3   31  -0.349  -0.205   0.242
    1UNL     H4   32  -0.259   0.046   0.237
    1UNL     H5   33  -0.411   0.297   0.039
    1UNL     H6   34  -0.190   0.504  -0.120
    1UNL     H7   35  -0.061   0.096   0.033
    1UNL     H8   36  -0.077   0.100  -0.231
    1UNL     H9   37  -0.206  -0.041  -0.209
    1UNL    H10   38   0.011  -0.132  -0.248
    1UNL    H11   39   0.074   0.187  -0.120
    1UNL    H12   40   0.292   0.353  -0.036
    1UNL    H13   41   0.492   0.350   0.087
    1UNL    H14   42   0.583   0.128   0.179
    1UNL    H15   43   0.467  -0.078   0.151
    1UNL    H16   44   0.204  -0.237   0.136
    1UNL    H17   45   0.285  -0.298  -0.012
    1UNL    H18   46   0.030  -0.361   0.047
    1UNL    H19   47   0.148  -0.347  -0.341
    1UNL    H20   48  -0.127  -0.234   0.139
    1UNL    H21   49  -0.028  -0.096   0.149
    1UNL    H22   50  -0.280  -0.102  -0.030
   0.00000   0.00000   0.00000   0.00000   0.00000   0.00000   0.00000   0.00000   0.00000
Generated with MDTraj, t= 85.0
 50
    1UNL     C1    1  -0.382  -0.121   0.230
    1UNL     C2    2  -0.307  -0.006   0.170
    1UNL     O1    3  -0.399   0.105   0.148
    1UNL     C3    4  -0.352   0.203   0.062
    1UNL     C4    5  -0.238   0.199  -0.013
    1UNL     C5    6  -0.188   0.319  -0.089
    1UNL     O2    7  -0.067   0.316  -0.118
    1UNL     O3    8  -0.269   0.420  -0.121
    1UNL     C6    9  -0.162   0.071  -0.029
    1UNL     C7   10  -0.114   0.027  -0.171
    1UNL     C8   11   0.002  -0.069  -0.157
    1UNL     C9   12   0.128  -0.006  -0.100
    1UNL     N1   13   0.155   0.123  -0.117
    1UNL    C10   14   0.273   0.145  -0.044
    1UNL    C11   15   0.342   0.262  -0.003
    1UNL    C12   16   0.446   0.255   0.095
    1UNL    C13   17   0.483   0.133   0.147
    1UNL    C14   18   0.426   0.016   0.101
    1UNL    C15   19   0.318   0.024   0.008
    1UNL    C16   20   0.223  -0.072  -0.027
    1UNL    C17   21   0.206  -0.223   0.004
    1UNL    C18   22   0.071  -0.281  -0.037
    1UNL    C19   23   0.081  -0.366  -0.156
    1UNL     O4   24   0.005  -0.463  -0.163
    1UNL     O5   25   0.183  -0.335  -0.243
    1UNL     N2   26  -0.038  -0.180  -0.063
    1UNL    C20   27  -0.112  -0.149   0.062
    1UNL    C21   28  -0.230  -0.047   0.044
    1UNL     H1   29  -0.446  -0.073   0.306
    1UNL     H2   30  -0.429  -0.183   0.152
    1UNL     H3   31  -0.328  -0.203   0.281
    1UNL     H4   32  -0.235   0.029   0.239
    1UNL     H5   33  -0.408   0.297   0.055
    1UNL     H6   34  -0.214   0.492  -0.169
    1UNL     H7   35  -0.063   0.095   0.024
    1UNL     H8   36  -0.077   0.117  -0.229
    1UNL     H9   37  -0.197  -0.020  -0.229
    1UNL    H10   38   0.017  -0.126  -0.248
    1UNL    H11   39   0.090   0.201  -0.128
    1UNL    H12   40   0.303   0.354  -0.048
    1UNL    H13   41   0.495   0.341   0.144
    1UNL    H14   42   0.574   0.141   0.206
    1UNL    H15   43   0.445  -0.080   0.144
    1UNL    H16   44   0.222  -0.236   0.115
    1UNL    H17   45   0.288  -0.290  -0.037
    1UNL    H18   46   0.029  -0.345   0.045
    1UNL    H19   47   0.174  -0.378  -0.332
    1UNL    H20   48  -0.154  -0.243   0.112
    1UNL    H21   49  -0.042  -0.114   0.132
    1UNL    H22   50  -0.301  -0.082  -0.042
   0.00000   0.00000   0.00000   0.00000   0.00000   0.00000   0.00000   0.00000   0.00000
Generated with MDTraj, t= 86.0
 50
    1UNL     C1    1  -0.359  -0.110   0.244
    1UNL     C2    2  -0.288   0.007   0.169
    1UNL     O1    3  -0.392   0.098   0.137
    1UNL     C3    4  -0.357   0.197   0.048
    1UNL     C4    5  -0.243   0.202  -0.029
    1UNL     C5    6  -0.202   0.325  -0.099
    1UNL     O2    7  -0.084   0.343  -0.134
    1UNL     O3    8  -0.306   0.404  -0.123
    1UNL     C6    9  -0.150   0.089  -0.029
    1UNL     C7   10  -0.109   0.037  -0.163
    1UNL     C8   11  -0.002  -0.062  -0.149
    1UNL     C9   12   0.116   0.001  -0.086
    1UNL     N1   13   0.154   0.134  -0.073
    1UNL    C10   14   0.272   0.155  -0.005
    1UNL    C11   15   0.342   0.270   0.019
    1UNL    C12   16   0.456   0.246   0.093
    1UNL    C13   17   0.501   0.115   0.128
    1UNL    C14   18   0.428   0.006   0.095
    1UNL    C15   19   0.312   0.023   0.026
    1UNL    C16   20   0.211  -0.068  -0.015
    1UNL    C17   21   0.211  -0.214  -0.019
    1UNL    C18   22   0.077  -0.281  -0.045
    1UNL    C19   23   0.081  -0.390  -0.156
    1UNL     O4   24  -0.015  -0.461  -0.184
    1UNL     O5   25   0.195  -0.390  -0.231
    1UNL     N2   26  -0.042  -0.186  -0.077
    1UNL    C20   27  -0.104  -0.148   0.053
    1UNL    C21   28  -0.214  -0.030   0.038
    1UNL     H1   29  -0.417  -0.078   0.329
    1UNL     H2   30  -0.414  -0.169   0.157
    1UNL     H3   31  -0.289  -0.189   0.273
    1UNL     H4   32  -0.225   0.053   0.242
    1UNL     H5   33  -0.432   0.275   0.040
    1UNL     H6   34  -0.276   0.484  -0.176
    1UNL     H7   35  -0.061   0.109   0.043
    1UNL     H8   36  -0.086   0.119  -0.238
    1UNL     H9   37  -0.199  -0.010  -0.210
    1UNL    H10   38   0.032  -0.092  -0.250
    1UNL    H11   39   0.097   0.214  -0.103
    1UNL    H12   40   0.309   0.368  -0.005
    1UNL    H13   41   0.495   0.342   0.119
    1UNL    H14   42   0.585   0.101   0.194
    1UNL    H15   43   0.478  -0.090   0.119
    1UNL    H16   44   0.269  -0.259   0.069
    1UNL    H17   45   0.283  -0.242  -0.102
    1UNL    H18   46   0.046  -0.335   0.047
    1UNL    H19   47   0.192  -0.454  -0.302
    1UNL    H20   48  -0.145  -0.241   0.104
    1UNL    H21   49  -0.030  -0.113   0.120
    1UNL    H22   50  -0.292  -0.079  -0.032
   0.00000   0.00000   0.00000   0.00000   0.00000   0.00000   0.00000   0.00000   0.00000
Generated with MDTraj, t= 87.0
 50
    1UNL     C1    1  -0.327  -0.101   0.257
    1UNL     C2    2  -0.291   0.010   0.166
    1UNL     O1    3  -0.401   0.098   0.128
    1UNL     C3    4  -0.374   0.194   0.035
    1UNL     C4    5  -0.258   0.191  -0.041
    1UNL     C5    6  -0.227   0.312  -0.110
    1UNL     O2    7  -0.123   0.314  -0.177
    1UNL     O3    8  -0.306   0.424  -0.107
    1UNL     C6    9  -0.160   0.080  -0.038
    1UNL     C7   10  -0.104   0.043  -0.174
    1UNL     C8   11   0.010  -0.054  -0.154
    1UNL     C9   12   0.125   0.001  -0.084
    1UNL     N1   13   0.145   0.137  -0.067
    1UNL    C10   14   0.270   0.147   0.009
    1UNL    C11   15   0.345   0.250   0.063
    1UNL    C12   16   0.465   0.240   0.121
    1UNL    C13   17   0.521   0.115   0.123
    1UNL    C14   18   0.448   0.004   0.080
    1UNL    C15   19   0.320   0.020   0.021
    1UNL    C16   20   0.225  -0.073  -0.028
    1UNL    C17   21   0.218  -0.218  -0.022
    1UNL    C18   22   0.081  -0.279  -0.045
    1UNL    C19   23   0.073  -0.372  -0.160
    1UNL     O4   24  -0.037  -0.412  -0.185
    1UNL     O5   25   0.188  -0.414  -0.225
    1UNL     N2   26  -0.026  -0.172  -0.063
    1UNL    C20   27  -0.091  -0.137   0.066
    1UNL    C21   28  -0.212  -0.042   0.044
    1UNL     H1   29  -0.349  -0.059   0.356
    1UNL     H2   30  -0.416  -0.161   0.210
    1UNL     H3   31  -0.246  -0.178   0.267
    1UNL     H4   32  -0.226   0.081   0.220
    1UNL     H5   33  -0.449   0.270   0.026
    1UNL     H6   34  -0.262   0.482  -0.171
    1UNL     H7   35  -0.068   0.117   0.024
    1UNL     H8   36  -0.088   0.136  -0.241
    1UNL     H9   37  -0.179  -0.005  -0.239
    1UNL    H10   38   0.049  -0.098  -0.250
    1UNL    H11   39   0.077   0.212  -0.096
    1UNL    H12   40   0.295   0.347   0.056
    1UNL    H13   41   0.509   0.329   0.171
    1UNL    H14   42   0.620   0.113   0.167
    1UNL    H15   43   0.494  -0.090   0.079
    1UNL    H16   44   0.260  -0.252   0.078
    1UNL    H17   45   0.292  -0.265  -0.092
    1UNL    H18   46   0.051  -0.342   0.040
    1UNL    H19   47   0.164  -0.478  -0.293
    1UNL    H20   48  -0.133  -0.231   0.111
    1UNL    H21   49  -0.017  -0.099   0.135
    1UNL    H22   50  -0.287  -0.088  -0.032
   0.00000   0.00000   0.00000   0.00000   0.00000   0.00000   0.00000   0.00000   0.00000
Generated with MDTraj, t= 88.0
 50
    1UNL     C1    1  -0.335  -0.094   0.265
    1UNL     C2    2  -0.290   0.011   0.171
    1UNL     O1    3  -0.405   0.089   0.123
    1UNL     C3    4  -0.380   0.192   0.039
    1UNL     C4    5  -0.264   0.199  -0.031
    1UNL     C5    6  -0.235   0.315  -0.116
    1UNL     O2    7  -0.129   0.316  -0.180
    1UNL     O3    8  -0.320   0.416  -0.114
    1UNL     C6    9  -0.163   0.085  -0.032
    1UNL     C7   10  -0.105   0.034  -0.161
    1UNL     C8   11   0.014  -0.060  -0.141
    1UNL     C9   12   0.139  -0.001  -0.099
    1UNL     N1   13   0.162   0.138  -0.083
    1UNL    C10   14   0.278   0.145  -0.005
    1UNL    C11   15   0.346   0.259   0.042
    1UNL    C12   16   0.457   0.238   0.119
    1UNL    C13   17   0.499   0.106   0.149
    1UNL    C14   18   0.445  -0.010   0.104
    1UNL    C15   19   0.329   0.013   0.023
    1UNL    C16   20   0.241  -0.073  -0.042
    1UNL    C17   21   0.235  -0.218  -0.029
    1UNL    C18   22   0.093  -0.277  -0.047
    1UNL    C19   23   0.072  -0.365  -0.172
    1UNL     O4   24  -0.039  -0.381  -0.208
    1UNL     O5   25   0.175  -0.433  -0.230
    1UNL     N2   26  -0.018  -0.175  -0.042
    1UNL    C20   27  -0.082  -0.126   0.079
    1UNL    C21   28  -0.210  -0.039   0.051
    1UNL     H1   29  -0.430  -0.055   0.317
    1UNL     H2   30  -0.363  -0.180   0.200
    1UNL     H3   31  -0.266  -0.131   0.350
    1UNL     H4   32  -0.232   0.094   0.225
    1UNL     H5   33  -0.451   0.273   0.029
    1UNL     H6   34  -0.288   0.484  -0.172
    1UNL     H7   35  -0.072   0.134   0.024
    1UNL     H8   36  -0.075   0.109  -0.241
    1UNL     H9   37  -0.191  -0.011  -0.214
    1UNL    H10   38   0.034  -0.123  -0.233
    1UNL    H11   39   0.095   0.217  -0.096
    1UNL    H12   40   0.301   0.353   0.021
    1UNL    H13   41   0.514   0.313   0.167
    1UNL    H14   42   0.597   0.111   0.197
    1UNL    H15   43   0.482  -0.113   0.129
    1UNL    H16   44   0.294  -0.258   0.061
    1UNL    H17   45   0.294  -0.266  -0.112
    1UNL    H18   46   0.073  -0.340   0.041
    1UNL    H19   47   0.136  -0.491  -0.298
    1UNL    H20   48  -0.102  -0.207   0.151
    1UNL    H21   49  -0.011  -0.057   0.130
    1UNL    H22   50  -0.283  -0.091  -0.024
   0.00000   0.00000   0.00000   0.00000   0.00000   0.00000   0.00000   0.00000   0.00000
Generated with MDTraj, t= 89.0
 50
    1UNL     C1    1  -0.333  -0.117   0.258
    1UNL     C2    2  -0.282   0.002   0.177
    1UNL     O1    3  -0.385   0.090   0.147
    1UNL     C3    4  -0.360   0.184   0.050
    1UNL     C4    5  -0.249   0.196  -0.028
    1UNL     C5    6  -0.226   0.311  -0.115
    1UNL     O2    7  -0.109   0.341  -0.151
    1UNL     O3    8  -0.338   0.385  -0.144
    1UNL     C6    9  -0.144   0.089  -0.031
    1UNL     C7   10  -0.109   0.046  -0.165
    1UNL     C8   11   0.005  -0.056  -0.151
    1UNL     C9   12   0.134  -0.001  -0.101
    1UNL     N1   13   0.171   0.133  -0.097
    1UNL    C10   14   0.285   0.147  -0.023
    1UNL    C11   15   0.354   0.262   0.022
    1UNL    C12   16   0.452   0.238   0.109
    1UNL    C13   17   0.492   0.108   0.156
    1UNL    C14   18   0.424   0.004   0.110
    1UNL    C15   19   0.323   0.015   0.015
    1UNL    C16   20   0.220  -0.079  -0.025
    1UNL    C17   21   0.207  -0.227   0.004
    1UNL    C18   22   0.066  -0.285  -0.044
    1UNL    C19   23   0.063  -0.362  -0.172
    1UNL     O4   24  -0.029  -0.364  -0.246
    1UNL     O5   25   0.180  -0.427  -0.198
    1UNL     N2   26  -0.030  -0.170  -0.056
    1UNL    C20   27  -0.079  -0.122   0.074
    1UNL    C21   28  -0.200  -0.033   0.048
    1UNL     H1   29  -0.380  -0.091   0.364
    1UNL     H2   30  -0.414  -0.156   0.196
    1UNL     H3   31  -0.255  -0.201   0.280
    1UNL     H4   32  -0.213   0.061   0.248
    1UNL     H5   33  -0.439   0.260   0.040
    1UNL     H6   34  -0.307   0.463  -0.185
    1UNL     H7   35  -0.054   0.128   0.033
    1UNL     H8   36  -0.083   0.137  -0.227
    1UNL     H9   37  -0.191  -0.003  -0.220
    1UNL    H10   38   0.020  -0.107  -0.252
    1UNL    H11   39   0.100   0.209  -0.103
    1UNL    H12   40   0.319   0.365   0.011
    1UNL    H13   41   0.505   0.330   0.138
    1UNL    H14   42   0.569   0.086   0.228
    1UNL    H15   43   0.456  -0.091   0.142
    1UNL    H16   44   0.216  -0.257   0.112
    1UNL    H17   45   0.290  -0.286  -0.041
    1UNL    H18   46   0.025  -0.351   0.034
    1UNL    H19   47   0.161  -0.482  -0.279
    1UNL    H20   48  -0.100  -0.209   0.133
    1UNL    H21   49   0.004  -0.068   0.131
    1UNL    H22   50  -0.266  -0.107  -0.012
   0.00000   0.00000   0.00000   0.00000   0.00000   0.00000   0.00000   0.00000   0.00000
Generated with MDTraj, t= 90.0
 50
    1UNL     C1    1  -0.350  -0.106   0.267
    1UNL     C2    2  -0.291   0.010   0.194
    1UNL     O1    3  -0.383   0.118   0.167
    1UNL     C3    4  -0.351   0.201   0.065
    1UNL     C4    5  -0.245   0.200  -0.022
    1UNL     C5    6  -0.224   0.316  -0.112
    1UNL     O2    7  -0.111   0.335  -0.160
    1UNL     O3    8  -0.326   0.394  -0.147
    1UNL     C6    9  -0.157   0.077  -0.020
    1UNL     C7   10  -0.110   0.038  -0.163
    1UNL     C8   11  -0.001  -0.073  -0.150
    1UNL     C9   12   0.123  -0.003  -0.092
    1UNL     N1   13   0.154   0.134  -0.096
    1UNL    C10   14   0.273   0.139  -0.026
    1UNL    C11   15   0.348   0.250   0.009
    1UNL    C12   16   0.461   0.232   0.091
    1UNL    C13   17   0.498   0.112   0.143
    1UNL    C14   18   0.421  -0.002   0.114
    1UNL    C15   19   0.313   0.010   0.023
    1UNL    C16   20   0.215  -0.078  -0.024
    1UNL    C17   21   0.199  -0.228  -0.003
    1UNL    C18   22   0.064  -0.287  -0.054
    1UNL    C19   23   0.099  -0.351  -0.185
    1UNL     O4   24   0.032  -0.346  -0.285
    1UNL     O5   25   0.209  -0.427  -0.174
    1UNL     N2   26  -0.046  -0.183  -0.062
    1UNL    C20   27  -0.113  -0.149   0.072
    1UNL    C21   28  -0.221  -0.039   0.062
    1UNL     H1   29  -0.402  -0.069   0.364
    1UNL     H2   30  -0.429  -0.149   0.206
    1UNL     H3   31  -0.267  -0.178   0.309
    1UNL     H4   32  -0.208   0.066   0.256
    1UNL     H5   33  -0.423   0.281   0.055
    1UNL     H6   34  -0.292   0.455  -0.212
    1UNL     H7   35  -0.056   0.114   0.028
    1UNL     H8   36  -0.060   0.122  -0.218
    1UNL     H9   37  -0.193   0.011  -0.231
    1UNL    H10   38   0.035  -0.106  -0.252
    1UNL    H11   39   0.080   0.207  -0.110
    1UNL    H12   40   0.315   0.343  -0.035
    1UNL    H13   41   0.514   0.311   0.141
    1UNL    H14   42   0.591   0.102   0.198
    1UNL    H15   43   0.447  -0.102   0.149
    1UNL    H16   44   0.223  -0.251   0.103
    1UNL    H17   45   0.279  -0.278  -0.064
    1UNL    H18   46   0.026  -0.366   0.011
    1UNL    H19   47   0.226  -0.471  -0.262
    1UNL    H20   48  -0.151  -0.240   0.110
    1UNL    H21   49  -0.028  -0.121   0.146
    1UNL    H22   50  -0.310  -0.068  -0.006
   0.00000   0.00000   0.00000   0.00000   0.00000   0.00000   0.00000   0.00000   0.00000
Generated with MDTraj, t= 91.0
 50
    1UNL     C1    1  -0.341  -0.113   0.272
    1UNL     C2    2  -0.282   0.002   0.181
    1UNL     O1    3  -0.377   0.114   0.167
    1UNL     C3    4  -0.345   0.210   0.072
    1UNL     C4    5  -0.257   0.194  -0.038
    1UNL     C5    6  -0.210   0.308  -0.118
    1UNL     O2    7  -0.107   0.300  -0.186
    1UNL     O3    8  -0.275   0.423  -0.110
    1UNL     C6    9  -0.168   0.076  -0.030
    1UNL     C7   10  -0.126   0.022  -0.166
    1UNL     C8   11  -0.015  -0.084  -0.146
    1UNL     C9   12   0.109  -0.010  -0.089
    1UNL     N1   13   0.143   0.123  -0.093
    1UNL    C10   14   0.251   0.143  -0.012
    1UNL    C11   15   0.336   0.260   0.007
    1UNL    C12   16   0.461   0.240   0.070
    1UNL    C13   17   0.498   0.106   0.112
    1UNL    C14   18   0.419  -0.009   0.100
    1UNL    C15   19   0.296   0.014   0.034
    1UNL    C16   20   0.196  -0.080  -0.012
    1UNL    C17   21   0.185  -0.222   0.028
    1UNL    C18   22   0.064  -0.286  -0.042
    1UNL    C19   23   0.115  -0.334  -0.176
    1UNL     O4   24   0.079  -0.289  -0.285
    1UNL     O5   25   0.210  -0.432  -0.173
    1UNL     N2   26  -0.059  -0.195  -0.059
    1UNL    C20   27  -0.122  -0.152   0.067
    1UNL    C21   28  -0.229  -0.043   0.045
    1UNL     H1   29  -0.400  -0.064   0.355
    1UNL     H2   30  -0.426  -0.166   0.216
    1UNL     H3   31  -0.264  -0.182   0.321
    1UNL     H4   32  -0.189   0.046   0.239
    1UNL     H5   33  -0.391   0.303   0.097
    1UNL     H6   34  -0.235   0.484  -0.174
    1UNL     H7   35  -0.069   0.111   0.020
    1UNL     H8   36  -0.092   0.104  -0.231
    1UNL     H9   37  -0.213  -0.032  -0.211
    1UNL    H10   38   0.012  -0.126  -0.247
    1UNL    H11   39   0.075   0.193  -0.122
    1UNL    H12   40   0.317   0.363  -0.018
    1UNL    H13   41   0.528   0.324   0.093
    1UNL    H14   42   0.596   0.093   0.159
    1UNL    H15   43   0.461  -0.106   0.126
    1UNL    H16   44   0.173  -0.222   0.139
    1UNL    H17   45   0.283  -0.271   0.002
    1UNL    H18   46   0.026  -0.372   0.012
    1UNL    H19   47   0.221  -0.464  -0.267
    1UNL    H20   48  -0.166  -0.237   0.112
    1UNL    H21   49  -0.039  -0.120   0.141
    1UNL    H22   50  -0.325  -0.087  -0.005
   0.00000   0.00000   0.00000   0.00000   0.00000   0.00000   0.00000   0.00000   0.00000
Generated with MDTraj, t= 92.0
 50
    1UNL     C1    1  -0.355  -0.097   0.276
    1UNL     C2    2  -0.295   0.007   0.174
    1UNL     O1    3  -0.387   0.109   0.145
    1UNL     C3    4  -0.351   0.213   0.061
    1UNL     C4    5  -0.248   0.197  -0.026
    1UNL     C5    6  -0.192   0.318  -0.092
    1UNL     O2    7  -0.091   0.310  -0.168
    1UNL     O3    8  -0.251   0.433  -0.061
    1UNL     C6    9  -0.171   0.066  -0.026
    1UNL     C7   10  -0.128   0.027  -0.168
    1UNL     C8   11  -0.014  -0.084  -0.152
    1UNL     C9   12   0.110  -0.017  -0.095
    1UNL     N1   13   0.139   0.115  -0.109
    1UNL    C10   14   0.244   0.147  -0.032
    1UNL    C11   15   0.330   0.256  -0.016
    1UNL    C12   16   0.446   0.252   0.057
    1UNL    C13   17   0.491   0.131   0.118
    1UNL    C14   18   0.406   0.023   0.102
    1UNL    C15   19   0.288   0.026   0.028
    1UNL    C16   20   0.198  -0.079  -0.012
    1UNL    C17   21   0.179  -0.223   0.032
    1UNL    C18   22   0.067  -0.295  -0.049
    1UNL    C19   23   0.125  -0.358  -0.179
    1UNL     O4   24   0.105  -0.300  -0.287
    1UNL     O5   25   0.201  -0.469  -0.165
    1UNL     N2   26  -0.047  -0.196  -0.061
    1UNL    C20   27  -0.121  -0.162   0.065
    1UNL    C21   28  -0.235  -0.051   0.049
    1UNL     H1   29  -0.371  -0.061   0.379
    1UNL     H2   30  -0.465  -0.134   0.247
    1UNL     H3   31  -0.280  -0.178   0.280
    1UNL     H4   32  -0.202   0.053   0.231
    1UNL     H5   33  -0.408   0.305   0.079
    1UNL     H6   34  -0.200   0.506  -0.108
    1UNL     H7   35  -0.070   0.082   0.028
    1UNL     H8   36  -0.090   0.113  -0.219
    1UNL     H9   37  -0.217  -0.019  -0.219
    1UNL    H10   38   0.007  -0.125  -0.253
    1UNL    H11   39   0.070   0.187  -0.136
    1UNL    H12   40   0.304   0.356  -0.049
    1UNL    H13   41   0.507   0.340   0.058
    1UNL    H14   42   0.583   0.114   0.173
    1UNL    H15   43   0.433  -0.071   0.140
    1UNL    H16   44   0.160  -0.207   0.140
    1UNL    H17   45   0.280  -0.267   0.014
    1UNL    H18   46   0.027  -0.379   0.007
    1UNL    H19   47   0.232  -0.495  -0.253
    1UNL    H20   48  -0.153  -0.256   0.103
    1UNL    H21   49  -0.048  -0.123   0.143
    1UNL    H22   50  -0.321  -0.105  -0.009
   0.00000   0.00000   0.00000   0.00000   0.00000   0.00000   0.00000   0.00000   0.00000
Generated with MDTraj, t= 93.0
 50
    1UNL     C1    1  -0.351  -0.126   0.243
    1UNL     C2    2  -0.297  -0.005   0.168
    1UNL     O1    3  -0.401   0.095   0.138
    1UNL     C3    4  -0.352   0.194   0.060
    1UNL     C4    5  -0.235   0.195  -0.011
    1UNL     C5    6  -0.183   0.319  -0.071
    1UNL     O2    7  -0.073   0.324  -0.130
    1UNL     O3    8  -0.253   0.434  -0.049
    1UNL     C6    9  -0.159   0.066  -0.030
    1UNL     C7   10  -0.113   0.033  -0.168
    1UNL     C8   11  -0.007  -0.076  -0.156
    1UNL     C9   12   0.118  -0.002  -0.119
    1UNL     N1   13   0.152   0.130  -0.124
    1UNL    C10   14   0.271   0.147  -0.059
    1UNL    C11   15   0.327   0.274  -0.030
    1UNL    C12   16   0.426   0.265   0.067
    1UNL    C13   17   0.459   0.147   0.132
    1UNL    C14   18   0.407   0.022   0.100
    1UNL    C15   19   0.307   0.025   0.001
    1UNL    C16   20   0.209  -0.070  -0.045
    1UNL    C17   21   0.190  -0.203   0.018
    1UNL    C18   22   0.069  -0.285  -0.037
    1UNL    C19   23   0.100  -0.372  -0.155
    1UNL     O4   24   0.091  -0.330  -0.269
    1UNL     O5   25   0.143  -0.496  -0.134
    1UNL     N2   26  -0.044  -0.191  -0.063
    1UNL    C20   27  -0.109  -0.155   0.067
    1UNL    C21   28  -0.226  -0.054   0.043
    1UNL     H1   29  -0.431  -0.098   0.315
    1UNL     H2   30  -0.412  -0.191   0.168
    1UNL     H3   31  -0.272  -0.182   0.294
    1UNL     H4   32  -0.222   0.064   0.229
    1UNL     H5   33  -0.418   0.281   0.047
    1UNL     H6   34  -0.189   0.512  -0.072
    1UNL     H7   35  -0.057   0.085   0.023
    1UNL     H8   36  -0.082   0.120  -0.222
    1UNL     H9   37  -0.199  -0.013  -0.219
    1UNL    H10   38   0.009  -0.117  -0.256
    1UNL    H11   39   0.093   0.200  -0.175
    1UNL    H12   40   0.285   0.353  -0.087
    1UNL    H13   41   0.479   0.351   0.106
    1UNL    H14   42   0.547   0.159   0.193
    1UNL    H15   43   0.422  -0.077   0.147
    1UNL    H16   44   0.174  -0.174   0.125
    1UNL    H17   45   0.292  -0.248   0.004
    1UNL    H18   46   0.037  -0.358   0.039
    1UNL    H19   47   0.174  -0.529  -0.219
    1UNL    H20   48  -0.150  -0.239   0.122
    1UNL    H21   49  -0.029  -0.112   0.130
    1UNL    H22   50  -0.300  -0.096  -0.036
   0.00000   0.00000   0.00000   0.00000   0.00000   0.00000   0.00000   0.00000   0.00000
Generated with MDTraj, t= 94.0
 50
    1UNL     C1    1  -0.371  -0.139   0.222
    1UNL     C2    2  -0.308  -0.015   0.165
    1UNL     O1    3  -0.400   0.097   0.140
    1UNL     C3    4  -0.355   0.192   0.053
    1UNL     C4    5  -0.237   0.199  -0.016
    1UNL     C5    6  -0.192   0.323  -0.072
    1UNL     O2    7  -0.079   0.331  -0.125
    1UNL     O3    8  -0.279   0.428  -0.048
    1UNL     C6    9  -0.152   0.082  -0.027
    1UNL     C7   10  -0.114   0.033  -0.168
    1UNL     C8   11   0.002  -0.074  -0.150
    1UNL     C9   12   0.128  -0.009  -0.116
    1UNL     N1   13   0.145   0.130  -0.125
    1UNL    C10   14   0.264   0.157  -0.051
    1UNL    C11   15   0.329   0.277  -0.009
    1UNL    C12   16   0.437   0.276   0.072
    1UNL    C13   17   0.478   0.150   0.125
    1UNL    C14   18   0.416   0.038   0.094
    1UNL    C15   19   0.316   0.035   0.001
    1UNL    C16   20   0.227  -0.072  -0.040
    1UNL    C17   21   0.229  -0.222  -0.023
    1UNL    C18   22   0.086  -0.286  -0.039
    1UNL    C19   23   0.084  -0.384  -0.155
    1UNL     O4   24   0.090  -0.347  -0.267
    1UNL     O5   25   0.085  -0.515  -0.117
    1UNL     N2   26  -0.020  -0.178  -0.052
    1UNL    C20   27  -0.098  -0.141   0.069
    1UNL    C21   28  -0.220  -0.044   0.042
    1UNL     H1   29  -0.449  -0.116   0.302
    1UNL     H2   30  -0.432  -0.179   0.148
    1UNL     H3   31  -0.300  -0.216   0.265
    1UNL     H4   32  -0.242   0.039   0.247
    1UNL     H5   33  -0.419   0.277   0.042
    1UNL     H6   34  -0.233   0.515  -0.076
    1UNL     H7   35  -0.062   0.101   0.042
    1UNL     H8   36  -0.085   0.118  -0.228
    1UNL     H9   37  -0.197  -0.005  -0.222
    1UNL    H10   38   0.019  -0.123  -0.244
    1UNL    H11   39   0.067   0.193  -0.103
    1UNL    H12   40   0.294   0.374  -0.046
    1UNL    H13   41   0.498   0.365   0.079
    1UNL    H14   42   0.547   0.135   0.208
    1UNL    H15   43   0.450  -0.052   0.134
    1UNL    H16   44   0.273  -0.248   0.076
    1UNL    H17   45   0.292  -0.263  -0.107
    1UNL    H18   46   0.071  -0.348   0.051
    1UNL    H19   47   0.097  -0.565  -0.198
    1UNL    H20   48  -0.115  -0.232   0.129
    1UNL    H21   49  -0.033  -0.078   0.128
    1UNL    H22   50  -0.292  -0.097  -0.033
   0.00000   0.00000   0.00000   0.00000   0.00000   0.00000   0.00000   0.00000   0.00000
Generated with MDTraj, t= 95.0
 50
    1UNL     C1    1  -0.370  -0.144   0.230
    1UNL     C2    2  -0.312  -0.017   0.165
    1UNL     O1    3  -0.404   0.083   0.144
    1UNL     C3    4  -0.362   0.183   0.060
    1UNL     C4    5  -0.250   0.187  -0.019
    1UNL     C5    6  -0.201   0.307  -0.089
    1UNL     O2    7  -0.095   0.320  -0.154
    1UNL     O3    8  -0.284   0.415  -0.083
    1UNL     C6    9  -0.161   0.074  -0.027
    1UNL     C7   10  -0.105   0.036  -0.167
    1UNL     C8   11   0.009  -0.060  -0.145
    1UNL     C9   12   0.129   0.008  -0.101
    1UNL     N1   13   0.148   0.145  -0.084
    1UNL    C10   14   0.269   0.161  -0.018
    1UNL    C11   15   0.327   0.275   0.028
    1UNL    C12   16   0.451   0.263   0.082
    1UNL    C13   17   0.518   0.141   0.090
    1UNL    C14   18   0.451   0.023   0.064
    1UNL    C15   19   0.320   0.034   0.012
    1UNL    C16   20   0.232  -0.060  -0.043
    1UNL    C17   21   0.237  -0.205  -0.033
    1UNL    C18   22   0.091  -0.270  -0.036
    1UNL    C19   23   0.079  -0.373  -0.153
    1UNL     O4   24   0.099  -0.343  -0.266
    1UNL     O5   25   0.035  -0.494  -0.114
    1UNL     N2   26  -0.028  -0.177  -0.056
    1UNL    C20   27  -0.097  -0.134   0.073
    1UNL    C21   28  -0.219  -0.049   0.042
    1UNL     H1   29  -0.413  -0.130   0.333
    1UNL     H2   30  -0.450  -0.171   0.170
    1UNL     H3   31  -0.297  -0.230   0.236
    1UNL     H4   32  -0.240   0.028   0.246
    1UNL     H5   33  -0.422   0.271   0.067
    1UNL     H6   34  -0.264   0.485  -0.147
    1UNL     H7   35  -0.067   0.099   0.034
    1UNL     H8   36  -0.068   0.119  -0.226
    1UNL     H9   37  -0.181  -0.000  -0.227
    1UNL    H10   38   0.030  -0.119  -0.231
    1UNL    H11   39   0.084   0.220  -0.119
    1UNL    H12   40   0.288   0.370   0.008
    1UNL    H13   41   0.501   0.342   0.136
    1UNL    H14   42   0.615   0.131   0.135
    1UNL    H15   43   0.489  -0.077   0.090
    1UNL    H16   44   0.285  -0.240   0.062
    1UNL    H17   45   0.294  -0.241  -0.122
    1UNL    H18   46   0.087  -0.322   0.062
    1UNL    H19   47   0.021  -0.545  -0.196
    1UNL    H20   48  -0.139  -0.230   0.112
    1UNL    H21   49  -0.027  -0.097   0.142
    1UNL    H22   50  -0.283  -0.103  -0.041
   0.00000   0.00000   0.00000   0.00000   0.00000   0.00000   0.00000   0.00000   0.00000
Generated with MDTraj, t= 96.0
 50
    1UNL     C1    1  -0.352  -0.129   0.255
    1UNL     C2    2  -0.306  -0.007   0.169
    1UNL     O1    3  -0.407   0.091   0.132
    1UNL     C3    4  -0.368   0.190   0.046
    1UNL     C4    5  -0.262   0.189  -0.035
    1UNL     C5    6  -0.225   0.310  -0.098
    1UNL     O2    7  -0.110   0.338  -0.140
    1UNL     O3    8  -0.327   0.400  -0.118
    1UNL     C6    9  -0.170   0.072  -0.024
    1UNL     C7   10  -0.106   0.037  -0.156
    1UNL     C8   11   0.010  -0.058  -0.137
    1UNL     C9   12   0.125   0.008  -0.069
    1UNL     N1   13   0.145   0.147  -0.055
    1UNL    C10   14   0.274   0.161  -0.005
    1UNL    C11   15   0.346   0.271   0.041
    1UNL    C12   16   0.476   0.254   0.086
    1UNL    C13   17   0.532   0.130   0.086
    1UNL    C14   18   0.468   0.016   0.038
    1UNL    C15   19   0.329   0.033   0.005
    1UNL    C16   20   0.229  -0.068  -0.025
    1UNL    C17   21   0.236  -0.211  -0.043
    1UNL    C18   22   0.092  -0.272  -0.048
    1UNL    C19   23   0.085  -0.377  -0.164
    1UNL     O4   24   0.141  -0.352  -0.269
    1UNL     O5   25   0.007  -0.487  -0.136
    1UNL     N2   26  -0.022  -0.172  -0.052
    1UNL    C20   27  -0.100  -0.141   0.079
    1UNL    C21   28  -0.221  -0.054   0.050
    1UNL     H1   29  -0.431  -0.094   0.320
    1UNL     H2   30  -0.399  -0.200   0.187
    1UNL     H3   31  -0.275  -0.179   0.312
    1UNL     H4   32  -0.234   0.052   0.237
    1UNL     H5   33  -0.441   0.271   0.037
    1UNL     H6   34  -0.292   0.470  -0.169
    1UNL     H7   35  -0.080   0.111   0.035
    1UNL     H8   36  -0.068   0.122  -0.209
    1UNL     H9   37  -0.174   0.001  -0.225
    1UNL    H10   38   0.039  -0.102  -0.230
    1UNL    H11   39   0.085   0.220  -0.098
    1UNL    H12   40   0.302   0.371   0.041
    1UNL    H13   41   0.533   0.338   0.124
    1UNL    H14   42   0.626   0.125   0.140
    1UNL    H15   43   0.498  -0.085   0.054
    1UNL    H16   44   0.299  -0.263   0.033
    1UNL    H17   45   0.273  -0.239  -0.144
    1UNL    H18   46   0.083  -0.333   0.045
    1UNL    H19   47   0.000  -0.536  -0.222
    1UNL    H20   48  -0.122  -0.239   0.129
    1UNL    H21   49  -0.036  -0.095   0.147
    1UNL    H22   50  -0.289  -0.093  -0.035
   0.00000   0.00000   0.00000   0.00000   0.00000   0.00000   0.00000   0.00000   0.00000
Generated with MDTraj, t= 97.0
 50
    1UNL     C1    1  -0.317  -0.118   0.274
    1UNL     C2    2  -0.294  -0.012   0.168
    1UNL     O1    3  -0.413   0.066   0.129
    1UNL     C3    4  -0.387   0.168   0.042
    1UNL     C4    5  -0.271   0.189  -0.028
    1UNL     C5    6  -0.235   0.310  -0.104
    1UNL     O2    7  -0.117   0.343  -0.121
    1UNL     O3    8  -0.339   0.394  -0.141
    1UNL     C6    9  -0.164   0.084  -0.018
    1UNL     C7   10  -0.105   0.050  -0.156
    1UNL     C8   11   0.008  -0.055  -0.140
    1UNL     C9   12   0.128   0.012  -0.081
    1UNL     N1   13   0.161   0.148  -0.077
    1UNL    C10   14   0.283   0.156  -0.013
    1UNL    C11   15   0.360   0.265   0.015
    1UNL    C12   16   0.477   0.250   0.078
    1UNL    C13   17   0.526   0.118   0.100
    1UNL    C14   18   0.457   0.006   0.075
    1UNL    C15   19   0.328   0.020   0.022
    1UNL    C16   20   0.230  -0.068  -0.029
    1UNL    C17   21   0.220  -0.218  -0.022
    1UNL    C18   22   0.081  -0.275  -0.047
    1UNL    C19   23   0.079  -0.363  -0.167
    1UNL     O4   24   0.158  -0.347  -0.259
    1UNL     O5   25  -0.007  -0.459  -0.154
    1UNL     N2   26  -0.027  -0.168  -0.054
    1UNL    C20   27  -0.090  -0.135   0.079
    1UNL    C21   28  -0.213  -0.050   0.047
    1UNL     H1   29  -0.375  -0.076   0.350
    1UNL     H2   30  -0.376  -0.206   0.233
    1UNL     H3   31  -0.230  -0.163   0.308
    1UNL     H4   32  -0.240   0.064   0.230
    1UNL     H5   33  -0.468   0.242   0.031
    1UNL     H6   34  -0.309   0.477  -0.173
    1UNL     H7   35  -0.087   0.122   0.057
    1UNL     H8   36  -0.085   0.133  -0.217
    1UNL     H9   37  -0.177  -0.004  -0.210
    1UNL    H10   38   0.034  -0.091  -0.239
    1UNL    H11   39   0.099   0.228  -0.094
    1UNL    H12   40   0.333   0.363  -0.017
    1UNL    H13   41   0.541   0.337   0.070
    1UNL    H14   42   0.621   0.096   0.143
    1UNL    H15   43   0.504  -0.090   0.089
    1UNL    H16   44   0.241  -0.247   0.085
    1UNL    H17   45   0.302  -0.258  -0.086
    1UNL    H18   46   0.050  -0.344   0.036
    1UNL    H19   47  -0.014  -0.490  -0.250
    1UNL    H20   48  -0.103  -0.227   0.143
    1UNL    H21   49  -0.016  -0.078   0.125
    1UNL    H22   50  -0.290  -0.113  -0.012
   0.00000   0.00000   0.00000   0.00000   0.00000   0.00000   0.00000   0.00000   0.00000
Generated with MDTraj, t= 98.0
 50
    1UNL     C1    1  -0.342  -0.117   0.274
    1UNL     C2    2  -0.289  -0.002   0.185
    1UNL     O1    3  -0.401   0.073   0.144
    1UNL     C3    4  -0.382   0.168   0.048
    1UNL     C4    5  -0.265   0.188  -0.023
    1UNL     C5    6  -0.243   0.309  -0.109
    1UNL     O2    7  -0.135   0.338  -0.163
    1UNL     O3    8  -0.354   0.392  -0.114
    1UNL     C6    9  -0.162   0.074  -0.020
    1UNL     C7   10  -0.101   0.042  -0.158
    1UNL     C8   11   0.004  -0.064  -0.149
    1UNL     C9   12   0.141  -0.003  -0.107
    1UNL     N1   13   0.169   0.126  -0.101
    1UNL    C10   14   0.292   0.140  -0.037
    1UNL    C11   15   0.366   0.260  -0.005
    1UNL    C12   16   0.482   0.238   0.073
    1UNL    C13   17   0.516   0.118   0.134
    1UNL    C14   18   0.444   0.010   0.104
    1UNL    C15   19   0.328   0.020   0.021
    1UNL    C16   20   0.233  -0.070  -0.030
    1UNL    C17   21   0.217  -0.214   0.000
    1UNL    C18   22   0.081  -0.268  -0.042
    1UNL    C19   23   0.089  -0.353  -0.168
    1UNL     O4   24   0.168  -0.319  -0.257
    1UNL     O5   25  -0.007  -0.442  -0.189
    1UNL     N2   26  -0.030  -0.167  -0.044
    1UNL    C20   27  -0.083  -0.128   0.096
    1UNL    C21   28  -0.209  -0.047   0.064
    1UNL     H1   29  -0.395  -0.091   0.360
    1UNL     H2   30  -0.413  -0.176   0.215
    1UNL     H3   31  -0.272  -0.194   0.291
    1UNL     H4   32  -0.225   0.062   0.242
    1UNL     H5   33  -0.461   0.240   0.038
    1UNL     H6   34  -0.339   0.482  -0.150
    1UNL     H7   35  -0.074   0.122   0.034
    1UNL     H8   36  -0.066   0.124  -0.209
    1UNL     H9   37  -0.181   0.004  -0.216
    1UNL    H10   38   0.007  -0.120  -0.245
    1UNL    H11   39   0.119   0.199  -0.151
    1UNL    H12   40   0.341   0.351  -0.057
    1UNL    H13   41   0.556   0.317   0.090
    1UNL    H14   42   0.616   0.117   0.180
    1UNL    H15   43   0.458  -0.088   0.150
    1UNL    H16   44   0.233  -0.226   0.110
    1UNL    H17   45   0.296  -0.276  -0.048
    1UNL    H18   46   0.041  -0.342   0.030
    1UNL    H19   47   0.007  -0.475  -0.281
    1UNL    H20   48  -0.099  -0.216   0.164
    1UNL    H21   49  -0.010  -0.061   0.133
    1UNL    H22   50  -0.276  -0.108  -0.007
   0.00000   0.00000   0.00000   0.00000   0.00000   0.00000   0.00000   0.00000   0.00000
Generated with MDTraj, t= 99.0
 50
    1UNL     C1    1  -0.347  -0.127   0.265
    1UNL     C2    2  -0.286  -0.005   0.194
    1UNL     O1    3  -0.382   0.099   0.177
    1UNL     C3    4  -0.354   0.187   0.072
    1UNL     C4    5  -0.260   0.189  -0.027
    1UNL     C5    6  -0.251   0.302  -0.119
    1UNL     O2    7  -0.169   0.304  -0.213
    1UNL     O3    8  -0.342   0.405  -0.101
    1UNL     C6    9  -0.158   0.087  -0.022
    1UNL     C7   10  -0.116   0.038  -0.162
    1UNL     C8   11  -0.002  -0.062  -0.144
    1UNL     C9   12   0.130  -0.004  -0.090
    1UNL     N1   13   0.175   0.126  -0.101
    1UNL    C10   14   0.294   0.139  -0.034
    1UNL    C11   15   0.370   0.256  -0.005
    1UNL    C12   16   0.482   0.249   0.073
    1UNL    C13   17   0.516   0.121   0.129
    1UNL    C14   18   0.439   0.012   0.099
    1UNL    C15   19   0.324   0.010   0.017
    1UNL    C16   20   0.226  -0.082  -0.023
    1UNL    C17   21   0.198  -0.225   0.024
    1UNL    C18   22   0.065  -0.286  -0.034
    1UNL    C19   23   0.099  -0.340  -0.179
    1UNL     O4   24   0.194  -0.293  -0.244
    1UNL     O5   25   0.023  -0.448  -0.219
    1UNL     N2   26  -0.041  -0.179  -0.047
    1UNL    C20   27  -0.098  -0.138   0.081
    1UNL    C21   28  -0.210  -0.034   0.064
    1UNL     H1   29  -0.429  -0.099   0.327
    1UNL     H2   30  -0.384  -0.193   0.200
    1UNL     H3   31  -0.272  -0.189   0.312
    1UNL     H4   32  -0.209   0.035   0.254
    1UNL     H5   33  -0.428   0.265   0.075
    1UNL     H6   34  -0.310   0.470  -0.174
    1UNL     H7   35  -0.067   0.132   0.030
    1UNL     H8   36  -0.089   0.116  -0.221
    1UNL     H9   37  -0.202  -0.008  -0.202
    1UNL    H10   38   0.011  -0.109  -0.245
    1UNL    H11   39   0.111   0.201  -0.130
    1UNL    H12   40   0.343   0.350  -0.054
    1UNL    H13   41   0.548   0.331   0.092
    1UNL    H14   42   0.585   0.120   0.209
    1UNL    H15   43   0.471  -0.080   0.141
    1UNL    H16   44   0.203  -0.227   0.135
    1UNL    H17   45   0.289  -0.281  -0.007
    1UNL    H18   46   0.018  -0.372   0.018
    1UNL    H19   47   0.046  -0.473  -0.309
    1UNL    H20   48  -0.140  -0.225   0.133
    1UNL    H21   49  -0.017  -0.099   0.138
    1UNL    H22   50  -0.285  -0.075  -0.012
   0.00000   0.00000   0.00000   0.00000   0.00000   0.00000   0.00000   0.00000   0.00000
