1TPCN00111
12
    1res  C1    1    0.212   0.138  -0.276
    1res  C2    2    0.176  -0.075  -0.163
    1res  C3    3    0.120   0.010   0.085
    1res  C4    4   -0.070   0.113   0.113
    1res  C5    5   -0.248   0.032   0.341
    1res  C6    6   -0.212  -0.095   0.078
    1res  C7    7   -0.453  -0.053   0.042
    1res  C8    8   -0.330   0.115   0.005
    1res  C9    9   -0.270   0.166  -0.224
    1res  C10   10    0.264  -0.101   0.197
    1res  C11   11    0.402  -0.223   0.035
    1res  C12   12    0.428  -0.019  -0.107
  10.00000  10.00000  10.00000
