Generated with MDTraj, t= 0.0
 55
    1UNL     C1    1  -0.219  -0.375  -0.185
    1UNL     C2    2  -0.233  -0.236  -0.138
    1UNL     C3    3  -0.179  -0.187  -0.027
    1UNL     C4    4  -0.093  -0.269   0.064
    1UNL     N1    5   0.047  -0.219   0.077
    1UNL     C5    6   0.121  -0.236  -0.051
    1UNL     C6    7   0.088  -0.113  -0.135
    1UNL     C7    8   0.047   0.000  -0.035
    1UNL     C8    9   0.162   0.100  -0.029
    1UNL     C9   10   0.199   0.198  -0.118
    1UNL    C10   11   0.314   0.271  -0.094
    1UNL    C11   12   0.393   0.244   0.016
    1UNL    C12   13   0.359   0.144   0.105
    1UNL    C13   14   0.243   0.072   0.082
    1UNL     N2   15   0.188  -0.036   0.156
    1UNL    C14   16   0.240  -0.099   0.267
    1UNL     O1   17   0.188  -0.189   0.328
    1UNL    C15   18   0.054  -0.073   0.107
    1UNL    C16   19  -0.049  -0.024   0.215
    1UNL     O2   20  -0.011   0.102   0.266
    1UNL    C17   21  -0.195  -0.023   0.162
    1UNL    C18   22  -0.201  -0.041   0.008
    1UNL    C19   23  -0.100   0.058  -0.061
    1UNL    C20   24  -0.133   0.075  -0.212
    1UNL     O3   25  -0.272   0.065  -0.237
    1UNL    C21   26  -0.127   0.196   0.000
    1UNL     O4   27  -0.242   0.230   0.017
    1UNL     O5   28  -0.021   0.276   0.032
    1UNL    C22   29  -0.068   0.399   0.080
    1UNL     H1   30  -0.256  -0.446  -0.110
    1UNL     H2   31  -0.275  -0.393  -0.277
    1UNL     H3   32  -0.115  -0.399  -0.205
    1UNL     H4   33  -0.292  -0.168  -0.199
    1UNL     H5   34  -0.088  -0.373   0.030
    1UNL     H6   35  -0.136  -0.273   0.164
    1UNL     H7   36   0.228  -0.241  -0.027
    1UNL     H8   37   0.094  -0.330  -0.100
    1UNL     H9   38   0.174  -0.082  -0.196
    1UNL    H10   39   0.007  -0.138  -0.203
    1UNL    H11   40   0.138   0.219  -0.204
    1UNL    H12   41   0.343   0.349  -0.163
    1UNL    H13   42   0.483   0.302   0.033
    1UNL    H14   43   0.420   0.122   0.191
    1UNL    H15   44   0.336  -0.065   0.303
    1UNL    H16   45  -0.039  -0.092   0.301
    1UNL    H17   46  -0.008   0.166   0.191
    1UNL    H18   47  -0.240   0.074   0.190
    1UNL    H19   48  -0.256  -0.099   0.212
    1UNL    H20   49  -0.301  -0.012  -0.027
    1UNL    H21   50  -0.084   0.001  -0.275
    1UNL    H22   51  -0.097   0.173  -0.245
    1UNL    H23   52  -0.296   0.109  -0.322
    1UNL    H24   53  -0.128   0.447   0.003
    1UNL    H25   54   0.017   0.462   0.107
    1UNL    H26   55  -0.130   0.381   0.168
   0.00000   0.00000   0.00000   0.00000   0.00000   0.00000   0.00000   0.00000   0.00000
Generated with MDTraj, t= 1.0
 55
    1UNL     C1    1  -0.235  -0.357  -0.199
    1UNL     C2    2  -0.243  -0.223  -0.142
    1UNL     C3    3  -0.176  -0.179  -0.034
    1UNL     C4    4  -0.092  -0.273   0.053
    1UNL     N1    5   0.049  -0.214   0.083
    1UNL     C5    6   0.128  -0.230  -0.050
    1UNL     C6    7   0.092  -0.105  -0.124
    1UNL     C7    8   0.042   0.013  -0.024
    1UNL     C8    9   0.152   0.115  -0.014
    1UNL     C9   10   0.196   0.209  -0.109
    1UNL    C10   11   0.318   0.271  -0.089
    1UNL    C11   12   0.403   0.223   0.009
    1UNL    C12   13   0.371   0.113   0.083
    1UNL    C13   14   0.240   0.061   0.075
    1UNL     N2   15   0.190  -0.043   0.159
    1UNL    C14   16   0.256  -0.106   0.265
    1UNL     O1   17   0.219  -0.195   0.336
    1UNL    C15   18   0.050  -0.071   0.115
    1UNL    C16   19  -0.058  -0.015   0.219
    1UNL     O2   20  -0.013   0.114   0.267
    1UNL    C17   21  -0.205  -0.018   0.167
    1UNL    C18   22  -0.205  -0.034   0.009
    1UNL    C19   23  -0.108   0.063  -0.057
    1UNL    C20   24  -0.131   0.079  -0.212
    1UNL     O3   25  -0.229   0.002  -0.271
    1UNL    C21   26  -0.141   0.202   0.009
    1UNL     O4   27  -0.251   0.214   0.059
    1UNL     O5   28  -0.042   0.293   0.003
    1UNL    C22   29  -0.078   0.410   0.073
    1UNL     H1   30  -0.275  -0.363  -0.299
    1UNL     H2   31  -0.143  -0.399  -0.192
    1UNL     H3   32  -0.302  -0.435  -0.144
    1UNL     H4   33  -0.322  -0.164  -0.188
    1UNL     H5   34  -0.074  -0.373   0.018
    1UNL     H6   35  -0.138  -0.275   0.157
    1UNL     H7   36   0.238  -0.237  -0.030
    1UNL     H8   37   0.103  -0.316  -0.114
    1UNL     H9   38   0.177  -0.082  -0.187
    1UNL    H10   39   0.008  -0.134  -0.189
    1UNL    H11   40   0.120   0.246  -0.181
    1UNL    H12   41   0.332   0.364  -0.134
    1UNL    H13   42   0.486   0.287   0.037
    1UNL    H14   43   0.428   0.092   0.173
    1UNL    H15   44   0.364  -0.076   0.283
    1UNL    H16   45  -0.048  -0.083   0.304
    1UNL    H17   46   0.004   0.164   0.182
    1UNL    H18   47  -0.247   0.088   0.191
    1UNL    H19   48  -0.269  -0.088   0.219
    1UNL    H20   49  -0.310  -0.003  -0.015
    1UNL    H21   50  -0.042   0.054  -0.269
    1UNL    H22   51  -0.167   0.184  -0.233
    1UNL    H23   52  -0.321   0.039  -0.279
    1UNL    H24   53  -0.104   0.488  -0.003
    1UNL    H25   54   0.003   0.462   0.123
    1UNL    H26   55  -0.161   0.394   0.132
   0.00000   0.00000   0.00000   0.00000   0.00000   0.00000   0.00000   0.00000   0.00000
Generated with MDTraj, t= 2.0
 55
    1UNL     C1    1  -0.233  -0.386  -0.166
    1UNL     C2    2  -0.249  -0.249  -0.115
    1UNL     C3    3  -0.173  -0.196  -0.014
    1UNL     C4    4  -0.085  -0.276   0.071
    1UNL     N1    5   0.050  -0.223   0.068
    1UNL     C5    6   0.093  -0.227  -0.073
    1UNL     C6    7   0.082  -0.091  -0.150
    1UNL     C7    8   0.045   0.014  -0.036
    1UNL     C8    9   0.163   0.113  -0.027
    1UNL     C9   10   0.212   0.202  -0.120
    1UNL    C10   11   0.325   0.274  -0.095
    1UNL    C11   12   0.406   0.243   0.015
    1UNL    C12   13   0.369   0.138   0.099
    1UNL    C13   14   0.247   0.070   0.079
    1UNL     N2   15   0.185  -0.037   0.149
    1UNL    C14   16   0.228  -0.107   0.262
    1UNL     O1   17   0.177  -0.209   0.304
    1UNL    C15   18   0.054  -0.071   0.101
    1UNL    C16   19  -0.046  -0.024   0.212
    1UNL     O2   20  -0.009   0.103   0.272
    1UNL    C17   21  -0.195  -0.015   0.169
    1UNL    C18   22  -0.196  -0.040   0.018
    1UNL    C19   23  -0.104   0.072  -0.048
    1UNL    C20   24  -0.128   0.105  -0.198
    1UNL     O3   25  -0.198   0.005  -0.266
    1UNL    C21   26  -0.142   0.202   0.022
    1UNL     O4   27  -0.260   0.230   0.023
    1UNL     O5   28  -0.042   0.288   0.062
    1UNL    C22   29  -0.081   0.418   0.061
    1UNL     H1   30  -0.220  -0.388  -0.272
    1UNL     H2   31  -0.165  -0.450  -0.114
    1UNL     H3   32  -0.331  -0.445  -0.155
    1UNL     H4   33  -0.319  -0.189  -0.172
    1UNL     H5   34  -0.068  -0.372   0.032
    1UNL     H6   35  -0.115  -0.272   0.184
    1UNL     H7   36   0.198  -0.268  -0.087
    1UNL     H8   37   0.034  -0.303  -0.127
    1UNL     H9   38   0.172  -0.066  -0.202
    1UNL    H10   39   0.002  -0.099  -0.227
    1UNL    H11   40   0.158   0.213  -0.207
    1UNL    H12   41   0.356   0.360  -0.167
    1UNL    H13   42   0.498   0.297   0.031
    1UNL    H14   43   0.428   0.114   0.186
    1UNL    H15   44   0.318  -0.080   0.301
    1UNL    H16   45  -0.034  -0.099   0.295
    1UNL    H17   46   0.011   0.163   0.198
    1UNL    H18   47  -0.232   0.092   0.202
    1UNL    H19   48  -0.252  -0.096   0.213
    1UNL    H20   49  -0.299  -0.018  -0.029
    1UNL    H21   50  -0.033   0.117  -0.249
    1UNL    H22   51  -0.192   0.199  -0.211
    1UNL    H23   52  -0.170  -0.009  -0.361
    1UNL    H24   53  -0.168   0.434  -0.010
    1UNL    H25   54  -0.005   0.469  -0.000
    1UNL    H26   55  -0.106   0.459   0.147
   0.00000   0.00000   0.00000   0.00000   0.00000   0.00000   0.00000   0.00000   0.00000
Generated with MDTraj, t= 3.0
 55
    1UNL     C1    1  -0.267  -0.375  -0.169
    1UNL     C2    2  -0.273  -0.238  -0.106
    1UNL     C3    3  -0.194  -0.189  -0.006
    1UNL     C4    4  -0.091  -0.276   0.056
    1UNL     N1    5   0.047  -0.218   0.068
    1UNL     C5    6   0.111  -0.219  -0.062
    1UNL     C6    7   0.081  -0.094  -0.151
    1UNL     C7    8   0.037   0.014  -0.041
    1UNL     C8    9   0.155   0.111  -0.031
    1UNL     C9   10   0.188   0.221  -0.108
    1UNL    C10   11   0.303   0.292  -0.076
    1UNL    C11   12   0.388   0.245   0.028
    1UNL    C12   13   0.351   0.140   0.109
    1UNL    C13   14   0.238   0.073   0.077
    1UNL     N2   15   0.183  -0.032   0.153
    1UNL    C14   16   0.251  -0.114   0.242
    1UNL     O1   17   0.198  -0.187   0.322
    1UNL    C15   18   0.052  -0.071   0.101
    1UNL    C16   19  -0.043  -0.028   0.216
    1UNL     O2   20   0.008   0.095   0.274
    1UNL    C17   21  -0.194  -0.012   0.167
    1UNL    C18   22  -0.203  -0.037   0.018
    1UNL    C19   23  -0.113   0.070  -0.063
    1UNL    C20   24  -0.164   0.075  -0.214
    1UNL     O3   25  -0.141  -0.047  -0.287
    1UNL    C21   26  -0.134   0.213  -0.005
    1UNL     O4   27  -0.244   0.265  -0.003
    1UNL     O5   28  -0.022   0.279   0.039
    1UNL    C22   29  -0.044   0.388   0.123
    1UNL     H1   30  -0.352  -0.391  -0.230
    1UNL     H2   31  -0.164  -0.403  -0.222
    1UNL     H3   32  -0.272  -0.451  -0.090
    1UNL     H4   33  -0.335  -0.170  -0.162
    1UNL     H5   34  -0.067  -0.361  -0.007
    1UNL     H6   35  -0.123  -0.304   0.166
    1UNL     H7   36   0.223  -0.241  -0.046
    1UNL     H8   37   0.086  -0.312  -0.117
    1UNL     H9   38   0.172  -0.062  -0.197
    1UNL    H10   39   0.013  -0.115  -0.232
    1UNL    H11   40   0.134   0.247  -0.203
    1UNL    H12   41   0.337   0.367  -0.136
    1UNL    H13   42   0.490   0.283   0.027
    1UNL    H14   43   0.423   0.097   0.174
    1UNL    H15   44   0.368  -0.115   0.237
    1UNL    H16   45  -0.039  -0.104   0.298
    1UNL    H17   46   0.020   0.167   0.206
    1UNL    H18   47  -0.226   0.100   0.188
    1UNL    H19   48  -0.260  -0.079   0.224
    1UNL    H20   49  -0.307  -0.010  -0.029
    1UNL    H21   50  -0.116   0.158  -0.265
    1UNL    H22   51  -0.274   0.105  -0.220
    1UNL    H23   52  -0.230  -0.076  -0.315
    1UNL    H24   53  -0.136   0.372   0.183
    1UNL    H25   54  -0.080   0.474   0.063
    1UNL    H26   55   0.035   0.399   0.188
   0.00000   0.00000   0.00000   0.00000   0.00000   0.00000   0.00000   0.00000   0.00000
Generated with MDTraj, t= 4.0
 55
    1UNL     C1    1  -0.315  -0.351  -0.160
    1UNL     C2    2  -0.278  -0.215  -0.125
    1UNL     C3    3  -0.188  -0.175  -0.035
    1UNL     C4    4  -0.114  -0.267   0.052
    1UNL     N1    5   0.028  -0.222   0.074
    1UNL     C5    6   0.100  -0.250  -0.053
    1UNL     C6    7   0.090  -0.126  -0.135
    1UNL     C7    8   0.055  -0.001  -0.035
    1UNL     C8    9   0.167   0.103  -0.033
    1UNL     C9   10   0.177   0.217  -0.113
    1UNL    C10   11   0.286   0.301  -0.083
    1UNL    C11   12   0.373   0.273   0.021
    1UNL    C12   13   0.361   0.161   0.101
    1UNL    C13   14   0.252   0.077   0.074
    1UNL     N2   15   0.190  -0.027   0.151
    1UNL    C14   16   0.251  -0.098   0.252
    1UNL     O1   17   0.218  -0.198   0.310
    1UNL    C15   18   0.055  -0.074   0.105
    1UNL    C16   19  -0.038  -0.026   0.220
    1UNL     O2   20   0.014   0.082   0.294
    1UNL    C17   21  -0.181  -0.016   0.163
    1UNL    C18   22  -0.194  -0.034   0.004
    1UNL    C19   23  -0.091   0.060  -0.062
    1UNL    C20   24  -0.115   0.073  -0.217
    1UNL     O3   25  -0.147  -0.045  -0.292
    1UNL    C21   26  -0.116   0.203   0.003
    1UNL     O4   27  -0.231   0.235  -0.019
    1UNL     O5   28  -0.030   0.279   0.075
    1UNL    C22   29  -0.090   0.401   0.111
    1UNL     H1   30  -0.297  -0.417  -0.073
    1UNL     H2   31  -0.429  -0.370  -0.186
    1UNL     H3   32  -0.270  -0.383  -0.254
    1UNL     H4   33  -0.324  -0.132  -0.180
    1UNL     H5   34  -0.102  -0.368   0.012
    1UNL     H6   35  -0.159  -0.263   0.158
    1UNL     H7   36   0.209  -0.279  -0.029
    1UNL     H8   37   0.067  -0.345  -0.104
    1UNL     H9   38   0.186  -0.109  -0.178
    1UNL    H10   39   0.016  -0.139  -0.210
    1UNL    H11   40   0.098   0.241  -0.180
    1UNL    H12   41   0.287   0.403  -0.130
    1UNL    H13   42   0.454   0.338   0.045
    1UNL    H14   43   0.437   0.127   0.174
    1UNL    H15   44   0.332  -0.054   0.292
    1UNL    H16   45  -0.034  -0.110   0.295
    1UNL    H17   46   0.011   0.161   0.235
    1UNL    H18   47  -0.217   0.091   0.192
    1UNL    H19   48  -0.250  -0.076   0.229
    1UNL    H20   49  -0.306  -0.004  -0.017
    1UNL    H21   50  -0.036   0.127  -0.267
    1UNL    H22   51  -0.207   0.139  -0.221
    1UNL    H23   52  -0.229  -0.038  -0.347
    1UNL    H24   53  -0.080   0.404   0.219
    1UNL    H25   54  -0.198   0.388   0.095
    1UNL    H26   55  -0.052   0.494   0.073
   0.00000   0.00000   0.00000   0.00000   0.00000   0.00000   0.00000   0.00000   0.00000
Generated with MDTraj, t= 5.0
 55
    1UNL     C1    1  -0.277  -0.383  -0.131
    1UNL     C2    2  -0.292  -0.240  -0.082
    1UNL     C3    3  -0.195  -0.175  -0.019
    1UNL     C4    4  -0.091  -0.260   0.040
    1UNL     N1    5   0.046  -0.212   0.051
    1UNL     C5    6   0.110  -0.222  -0.086
    1UNL     C6    7   0.086  -0.089  -0.146
    1UNL     C7    8   0.038   0.014  -0.035
    1UNL     C8    9   0.158   0.115  -0.020
    1UNL     C9   10   0.204   0.216  -0.106
    1UNL    C10   11   0.317   0.289  -0.067
    1UNL    C11   12   0.387   0.250   0.044
    1UNL    C12   13   0.345   0.147   0.127
    1UNL    C13   14   0.230   0.082   0.092
    1UNL     N2   15   0.188  -0.036   0.155
    1UNL    C14   16   0.255  -0.125   0.243
    1UNL     O1   17   0.208  -0.216   0.304
    1UNL    C15   18   0.050  -0.068   0.104
    1UNL    C16   19  -0.040  -0.024   0.226
    1UNL     O2   20   0.008   0.102   0.269
    1UNL    C17   21  -0.189  -0.026   0.176
    1UNL    C18   22  -0.214  -0.027   0.018
    1UNL    C19   23  -0.110   0.065  -0.061
    1UNL    C20   24  -0.151   0.068  -0.210
    1UNL     O3   25  -0.145  -0.042  -0.295
    1UNL    C21   26  -0.127   0.208  -0.017
    1UNL     O4   27  -0.231   0.261  -0.052
    1UNL     O5   28  -0.032   0.269   0.065
    1UNL    C22   29  -0.065   0.401   0.092
    1UNL     H1   30  -0.214  -0.382  -0.229
    1UNL     H2   31  -0.216  -0.448  -0.063
    1UNL     H3   32  -0.373  -0.433  -0.138
    1UNL     H4   33  -0.370  -0.177  -0.115
    1UNL     H5   34  -0.073  -0.351  -0.021
    1UNL     H6   35  -0.110  -0.289   0.147
    1UNL     H7   36   0.221  -0.249  -0.074
    1UNL     H8   37   0.068  -0.311  -0.142
    1UNL     H9   38   0.173  -0.049  -0.189
    1UNL    H10   39   0.004  -0.107  -0.215
    1UNL    H11   40   0.137   0.257  -0.179
    1UNL    H12   41   0.332   0.387  -0.111
    1UNL    H13   42   0.473   0.306   0.085
    1UNL    H14   43   0.395   0.113   0.213
    1UNL    H15   44   0.366  -0.102   0.263
    1UNL    H16   45  -0.018  -0.094   0.309
    1UNL    H17   46  -0.004   0.163   0.192
    1UNL    H18   47  -0.234   0.068   0.224
    1UNL    H19   48  -0.251  -0.103   0.234
    1UNL    H20   49  -0.325  -0.003  -0.007
    1UNL    H21   50  -0.087   0.140  -0.255
    1UNL    H22   51  -0.254   0.110  -0.211
    1UNL    H23   52  -0.208  -0.042  -0.372
    1UNL    H24   53   0.027   0.456   0.092
    1UNL    H25   54  -0.116   0.406   0.187
    1UNL    H26   55  -0.142   0.441   0.024
   0.00000   0.00000   0.00000   0.00000   0.00000   0.00000   0.00000   0.00000   0.00000
Generated with MDTraj, t= 6.0
 55
    1UNL     C1    1  -0.302  -0.387  -0.105
    1UNL     C2    2  -0.284  -0.238  -0.101
    1UNL     C3    3  -0.191  -0.178  -0.030
    1UNL     C4    4  -0.089  -0.259   0.046
    1UNL     N1    5   0.047  -0.201   0.054
    1UNL     C5    6   0.116  -0.214  -0.078
    1UNL     C6    7   0.119  -0.076  -0.148
    1UNL     C7    8   0.053   0.021  -0.036
    1UNL     C8    9   0.159   0.129  -0.011
    1UNL     C9   10   0.191   0.240  -0.086
    1UNL    C10   11   0.309   0.312  -0.053
    1UNL    C11   12   0.400   0.251   0.039
    1UNL    C12   13   0.369   0.131   0.100
    1UNL    C13   14   0.247   0.076   0.087
    1UNL     N2   15   0.184  -0.033   0.159
    1UNL    C14   16   0.234  -0.125   0.247
    1UNL     O1   17   0.182  -0.230   0.276
    1UNL    C15   18   0.055  -0.061   0.099
    1UNL    C16   19  -0.048  -0.032   0.211
    1UNL     O2   20  -0.006   0.087   0.281
    1UNL    C17   21  -0.189  -0.015   0.155
    1UNL    C18   22  -0.203  -0.031   0.007
    1UNL    C19   23  -0.096   0.062  -0.064
    1UNL    C20   24  -0.121   0.064  -0.210
    1UNL     O3   25  -0.174  -0.055  -0.262
    1UNL    C21   26  -0.132   0.203  -0.010
    1UNL     O4   27  -0.243   0.246  -0.037
    1UNL     O5   28  -0.039   0.268   0.066
    1UNL    C22   29  -0.069   0.410   0.071
    1UNL     H1   30  -0.194  -0.434  -0.126
    1UNL     H2   31  -0.330  -0.417  -0.007
    1UNL     H3   32  -0.379  -0.418  -0.176
    1UNL     H4   33  -0.356  -0.171  -0.151
    1UNL     H5   34  -0.061  -0.359  -0.001
    1UNL     H6   35  -0.124  -0.280   0.146
    1UNL     H7   36   0.209  -0.277  -0.057
    1UNL     H8   37   0.049  -0.283  -0.136
    1UNL     H9   38   0.220  -0.053  -0.162
    1UNL    H10   39   0.069  -0.079  -0.247
    1UNL    H11   40   0.122   0.278  -0.163
    1UNL    H12   41   0.335   0.404  -0.096
    1UNL    H13   42   0.497   0.289   0.047
    1UNL    H14   43   0.447   0.084   0.163
    1UNL    H15   44   0.335  -0.119   0.275
    1UNL    H16   45  -0.043  -0.111   0.286
    1UNL    H17   46  -0.012   0.153   0.208
    1UNL    H18   47  -0.227   0.084   0.195
    1UNL    H19   48  -0.258  -0.085   0.218
    1UNL    H20   49  -0.301   0.001  -0.047
    1UNL    H21   50  -0.027   0.086  -0.251
    1UNL    H22   51  -0.187   0.145  -0.238
    1UNL    H23   52  -0.111  -0.130  -0.263
    1UNL    H24   53  -0.057   0.440  -0.033
    1UNL    H25   54  -0.008   0.469   0.126
    1UNL    H26   55  -0.172   0.422   0.113
   0.00000   0.00000   0.00000   0.00000   0.00000   0.00000   0.00000   0.00000   0.00000
Generated with MDTraj, t= 7.0
 55
    1UNL     C1    1  -0.333  -0.380  -0.122
    1UNL     C2    2  -0.295  -0.238  -0.088
    1UNL     C3    3  -0.201  -0.188  -0.015
    1UNL     C4    4  -0.105  -0.273   0.059
    1UNL     N1    5   0.036  -0.224   0.052
    1UNL     C5    6   0.091  -0.231  -0.090
    1UNL     C6    7   0.098  -0.086  -0.148
    1UNL     C7    8   0.056   0.011  -0.036
    1UNL     C8    9   0.169   0.114  -0.017
    1UNL     C9   10   0.208   0.226  -0.088
    1UNL    C10   11   0.311   0.306  -0.041
    1UNL    C11   12   0.392   0.261   0.064
    1UNL    C12   13   0.362   0.140   0.126
    1UNL    C13   14   0.252   0.066   0.085
    1UNL     N2   15   0.192  -0.044   0.150
    1UNL    C14   16   0.258  -0.113   0.247
    1UNL     O1   17   0.222  -0.210   0.311
    1UNL    C15   18   0.058  -0.078   0.097
    1UNL    C16   19  -0.033  -0.023   0.213
    1UNL     O2   20   0.026   0.106   0.257
    1UNL    C17   21  -0.182  -0.015   0.165
    1UNL    C18   22  -0.198  -0.033   0.014
    1UNL    C19   23  -0.098   0.064  -0.066
    1UNL    C20   24  -0.123   0.089  -0.221
    1UNL     O3   25  -0.132  -0.035  -0.294
    1UNL    C21   26  -0.137   0.206  -0.018
    1UNL     O4   27  -0.249   0.239  -0.052
    1UNL     O5   28  -0.045   0.295   0.033
    1UNL    C22   29  -0.116   0.395   0.101
    1UNL     H1   30  -0.287  -0.410  -0.214
    1UNL     H2   31  -0.305  -0.451  -0.046
    1UNL     H3   32  -0.446  -0.387  -0.128
    1UNL     H4   33  -0.356  -0.159  -0.125
    1UNL     H5   34  -0.114  -0.379   0.015
    1UNL     H6   35  -0.121  -0.281   0.165
    1UNL     H7   36   0.188  -0.285  -0.087
    1UNL     H8   37   0.019  -0.301  -0.141
    1UNL     H9   38   0.199  -0.070  -0.173
    1UNL    H10   39   0.041  -0.068  -0.240
    1UNL    H11   40   0.153   0.241  -0.175
    1UNL    H12   41   0.342   0.399  -0.099
    1UNL    H13   42   0.491   0.308   0.085
    1UNL    H14   43   0.420   0.097   0.204
    1UNL    H15   44   0.366  -0.100   0.239
    1UNL    H16   45  -0.024  -0.090   0.299
    1UNL    H17   46   0.018   0.169   0.181
    1UNL    H18   47  -0.226   0.069   0.223
    1UNL    H19   48  -0.237  -0.100   0.226
    1UNL    H20   49  -0.305  -0.007  -0.020
    1UNL    H21   50  -0.057   0.157  -0.265
    1UNL    H22   51  -0.219   0.138  -0.232
    1UNL    H23   52  -0.155  -0.097  -0.221
    1UNL    H24   53  -0.207   0.408   0.038
    1UNL    H25   54  -0.064   0.477   0.094
    1UNL    H26   55  -0.127   0.362   0.208
   0.00000   0.00000   0.00000   0.00000   0.00000   0.00000   0.00000   0.00000   0.00000
Generated with MDTraj, t= 8.0
 55
    1UNL     C1    1  -0.335  -0.355  -0.147
    1UNL     C2    2  -0.288  -0.219  -0.100
    1UNL     C3    3  -0.193  -0.181  -0.020
    1UNL     C4    4  -0.099  -0.270   0.056
    1UNL     N1    5   0.041  -0.211   0.059
    1UNL     C5    6   0.114  -0.224  -0.073
    1UNL     C6    7   0.110  -0.091  -0.140
    1UNL     C7    8   0.057   0.011  -0.040
    1UNL     C8    9   0.160   0.122  -0.013
    1UNL     C9   10   0.185   0.236  -0.092
    1UNL    C10   11   0.285   0.320  -0.049
    1UNL    C11   12   0.380   0.270   0.047
    1UNL    C12   13   0.363   0.151   0.118
    1UNL    C13   14   0.244   0.084   0.087
    1UNL     N2   15   0.196  -0.035   0.150
    1UNL    C14   16   0.243  -0.130   0.238
    1UNL     O1   17   0.184  -0.217   0.295
    1UNL    C15   18   0.060  -0.069   0.097
    1UNL    C16   19  -0.037  -0.025   0.210
    1UNL     O2   20   0.030   0.092   0.273
    1UNL    C17   21  -0.181  -0.000   0.163
    1UNL    C18   22  -0.194  -0.035   0.013
    1UNL    C19   23  -0.094   0.053  -0.068
    1UNL    C20   24  -0.131   0.055  -0.221
    1UNL     O3   25  -0.147  -0.077  -0.267
    1UNL    C21   26  -0.123   0.198  -0.014
    1UNL     O4   27  -0.241   0.233  -0.018
    1UNL     O5   28  -0.024   0.281   0.036
    1UNL    C22   29  -0.084   0.392   0.092
    1UNL     H1   30  -0.272  -0.396  -0.213
    1UNL     H2   31  -0.348  -0.422  -0.061
    1UNL     H3   32  -0.437  -0.342  -0.199
    1UNL     H4   33  -0.355  -0.139  -0.136
    1UNL     H5   34  -0.078  -0.369   0.006
    1UNL     H6   35  -0.133  -0.297   0.154
    1UNL     H7   36   0.214  -0.251  -0.039
    1UNL     H8   37   0.073  -0.309  -0.133
    1UNL     H9   38   0.202  -0.065  -0.185
    1UNL    H10   39   0.038  -0.108  -0.217
    1UNL    H11   40   0.118   0.259  -0.179
    1UNL    H12   41   0.290   0.414  -0.088
    1UNL    H13   42   0.461   0.331   0.073
    1UNL    H14   43   0.426   0.110   0.196
    1UNL    H15   44   0.353  -0.134   0.261
    1UNL    H16   45  -0.040  -0.109   0.280
    1UNL    H17   46   0.046   0.156   0.197
    1UNL    H18   47  -0.192   0.105   0.192
    1UNL    H19   48  -0.259  -0.037   0.244
    1UNL    H20   49  -0.301  -0.004  -0.013
    1UNL    H21   50  -0.064   0.108  -0.283
    1UNL    H22   51  -0.228   0.106  -0.233
    1UNL    H23   52  -0.128  -0.084  -0.364
    1UNL    H24   53  -0.101   0.456   0.005
    1UNL    H25   54  -0.006   0.431   0.153
    1UNL    H26   55  -0.175   0.361   0.149
   0.00000   0.00000   0.00000   0.00000   0.00000   0.00000   0.00000   0.00000   0.00000
Generated with MDTraj, t= 9.0
 55
    1UNL     C1    1  -0.277  -0.386  -0.141
    1UNL     C2    2  -0.277  -0.240  -0.102
    1UNL     C3    3  -0.192  -0.183  -0.022
    1UNL     C4    4  -0.093  -0.265   0.061
    1UNL     N1    5   0.052  -0.220   0.065
    1UNL     C5    6   0.109  -0.225  -0.077
    1UNL     C6    7   0.078  -0.090  -0.145
    1UNL     C7    8   0.041   0.014  -0.035
    1UNL     C8    9   0.155   0.112  -0.025
    1UNL     C9   10   0.194   0.214  -0.110
    1UNL    C10   11   0.310   0.286  -0.073
    1UNL    C11   12   0.387   0.256   0.044
    1UNL    C12   13   0.350   0.145   0.117
    1UNL    C13   14   0.234   0.076   0.087
    1UNL     N2   15   0.186  -0.040   0.154
    1UNL    C14   16   0.259  -0.118   0.244
    1UNL     O1   17   0.220  -0.217   0.299
    1UNL    C15   18   0.054  -0.073   0.102
    1UNL    C16   19  -0.049  -0.036   0.216
    1UNL     O2   20   0.004   0.087   0.266
    1UNL    C17   21  -0.195  -0.018   0.163
    1UNL    C18   22  -0.207  -0.034   0.011
    1UNL    C19   23  -0.107   0.063  -0.058
    1UNL    C20   24  -0.146   0.084  -0.204
    1UNL     O3   25  -0.148  -0.027  -0.282
    1UNL    C21   26  -0.122   0.212  -0.003
    1UNL     O4   27  -0.222   0.268  -0.045
    1UNL     O5   28  -0.048   0.276   0.092
    1UNL    C22   29  -0.068   0.416   0.064
    1UNL     H1   30  -0.183  -0.436  -0.132
    1UNL     H2   31  -0.352  -0.440  -0.084
    1UNL     H3   32  -0.311  -0.386  -0.246
    1UNL     H4   33  -0.367  -0.191  -0.127
    1UNL     H5   34  -0.095  -0.368   0.021
    1UNL     H6   35  -0.131  -0.269   0.163
    1UNL     H7   36   0.215  -0.242  -0.070
    1UNL     H8   37   0.063  -0.311  -0.129
    1UNL     H9   38   0.161  -0.066  -0.207
    1UNL    H10   39   0.004  -0.108  -0.218
    1UNL    H11   40   0.138   0.232  -0.197
    1UNL    H12   41   0.322   0.385  -0.124
    1UNL    H13   42   0.460   0.327   0.084
    1UNL    H14   43   0.399   0.120   0.211
    1UNL    H15   44   0.347  -0.075   0.273
    1UNL    H16   45  -0.051  -0.110   0.298
    1UNL    H17   46  -0.027   0.163   0.213
    1UNL    H18   47  -0.238   0.071   0.215
    1UNL    H19   48  -0.257  -0.094   0.221
    1UNL    H20   49  -0.310  -0.000  -0.021
    1UNL    H21   50  -0.073   0.152  -0.242
    1UNL    H22   51  -0.245   0.137  -0.209
    1UNL    H23   52  -0.180  -0.106  -0.232
    1UNL    H24   53  -0.037   0.426  -0.037
    1UNL    H25   54   0.003   0.476   0.134
    1UNL    H26   55  -0.175   0.441   0.066
   0.00000   0.00000   0.00000   0.00000   0.00000   0.00000   0.00000   0.00000   0.00000
Generated with MDTraj, t= 10.0
 55
    1UNL     C1    1  -0.256  -0.374  -0.145
    1UNL     C2    2  -0.266  -0.229  -0.114
    1UNL     C3    3  -0.188  -0.170  -0.027
    1UNL     C4    4  -0.097  -0.258   0.067
    1UNL     N1    5   0.040  -0.208   0.076
    1UNL     C5    6   0.104  -0.219  -0.054
    1UNL     C6    7   0.083  -0.092  -0.136
    1UNL     C7    8   0.040   0.010  -0.029
    1UNL     C8    9   0.158   0.111  -0.025
    1UNL     C9   10   0.192   0.213  -0.113
    1UNL    C10   11   0.314   0.285  -0.098
    1UNL    C11   12   0.397   0.253   0.011
    1UNL    C12   13   0.365   0.145   0.098
    1UNL    C13   14   0.245   0.076   0.083
    1UNL     N2   15   0.182  -0.026   0.162
    1UNL    C14   16   0.253  -0.110   0.243
    1UNL     O1   17   0.216  -0.213   0.294
    1UNL    C15   18   0.046  -0.065   0.114
    1UNL    C16   19  -0.061  -0.030   0.220
    1UNL     O2   20  -0.017   0.086   0.291
    1UNL    C17   21  -0.207  -0.011   0.159
    1UNL    C18   22  -0.212  -0.019   0.005
    1UNL    C19   23  -0.106   0.070  -0.068
    1UNL    C20   24  -0.130   0.076  -0.214
    1UNL     O3   25  -0.153  -0.041  -0.296
    1UNL    C21   26  -0.127   0.202  -0.010
    1UNL     O4   27  -0.234   0.257  -0.023
    1UNL     O5   28  -0.027   0.254   0.066
    1UNL    C22   29  -0.075   0.379   0.125
    1UNL     H1   30  -0.171  -0.399  -0.220
    1UNL     H2   31  -0.243  -0.439  -0.062
    1UNL     H3   32  -0.339  -0.410  -0.193
    1UNL     H4   33  -0.346  -0.175  -0.170
    1UNL     H5   34  -0.095  -0.355   0.023
    1UNL     H6   35  -0.140  -0.247   0.167
    1UNL     H7   36   0.207  -0.236  -0.029
    1UNL     H8   37   0.067  -0.311  -0.098
    1UNL     H9   38   0.170  -0.066  -0.191
    1UNL    H10   39   0.012  -0.113  -0.219
    1UNL    H11   40   0.121   0.232  -0.192
    1UNL    H12   41   0.352   0.352  -0.172
    1UNL    H13   42   0.485   0.314   0.033
    1UNL    H14   43   0.429   0.114   0.175
    1UNL    H15   44   0.354  -0.066   0.280
    1UNL    H16   45  -0.069  -0.113   0.293
    1UNL    H17   46  -0.022   0.162   0.228
    1UNL    H18   47  -0.246   0.082   0.207
    1UNL    H19   48  -0.275  -0.084   0.204
    1UNL    H20   49  -0.309  -0.002  -0.047
    1UNL    H21   50  -0.051   0.133  -0.260
    1UNL    H22   51  -0.225   0.140  -0.222
    1UNL    H23   52  -0.210  -0.024  -0.374
    1UNL    H24   53  -0.086   0.451   0.050
    1UNL    H25   54   0.022   0.404   0.198
    1UNL    H26   55  -0.170   0.368   0.179
   0.00000   0.00000   0.00000   0.00000   0.00000   0.00000   0.00000   0.00000   0.00000
Generated with MDTraj, t= 11.0
 55
    1UNL     C1    1  -0.264  -0.367  -0.168
    1UNL     C2    2  -0.269  -0.221  -0.127
    1UNL     C3    3  -0.196  -0.179  -0.023
    1UNL     C4    4  -0.103  -0.267   0.051
    1UNL     N1    5   0.035  -0.215   0.072
    1UNL     C5    6   0.112  -0.229  -0.047
    1UNL     C6    7   0.088  -0.100  -0.126
    1UNL     C7    8   0.040   0.009  -0.028
    1UNL     C8    9   0.160   0.106  -0.028
    1UNL     C9   10   0.190   0.204  -0.123
    1UNL    C10   11   0.307   0.281  -0.109
    1UNL    C11   12   0.387   0.250   0.005
    1UNL    C12   13   0.359   0.150   0.099
    1UNL    C13   14   0.243   0.078   0.078
    1UNL     N2   15   0.195  -0.033   0.152
    1UNL    C14   16   0.243  -0.109   0.252
    1UNL     O1   17   0.183  -0.191   0.318
    1UNL    C15   18   0.055  -0.071   0.107
    1UNL    C16   19  -0.041  -0.028   0.219
    1UNL     O2   20   0.004   0.094   0.269
    1UNL    C17   21  -0.190  -0.025   0.173
    1UNL    C18   22  -0.210  -0.033   0.014
    1UNL    C19   23  -0.108   0.065  -0.059
    1UNL    C20   24  -0.132   0.080  -0.207
    1UNL     O3   25  -0.130  -0.033  -0.295
    1UNL    C21   26  -0.129   0.209   0.006
    1UNL     O4   27  -0.241   0.252  -0.008
    1UNL     O5   28  -0.028   0.281   0.058
    1UNL    C22   29  -0.088   0.385   0.138
    1UNL     H1   30  -0.177  -0.430  -0.124
    1UNL     H2   31  -0.350  -0.420  -0.138
    1UNL     H3   32  -0.247  -0.371  -0.269
    1UNL     H4   33  -0.335  -0.164  -0.188
    1UNL     H5   34  -0.080  -0.352  -0.004
    1UNL     H6   35  -0.144  -0.283   0.152
    1UNL     H7   36   0.212  -0.235  -0.012
    1UNL     H8   37   0.089  -0.318  -0.103
    1UNL     H9   38   0.176  -0.074  -0.180
    1UNL    H10   39   0.018  -0.130  -0.207
    1UNL    H11   40   0.127   0.216  -0.213
    1UNL    H12   41   0.341   0.340  -0.192
    1UNL    H13   42   0.487   0.286   0.008
    1UNL    H14   43   0.428   0.131   0.184
    1UNL    H15   44   0.338  -0.096   0.282
    1UNL    H16   45  -0.024  -0.101   0.303
    1UNL    H17   46  -0.008   0.162   0.197
    1UNL    H18   47  -0.246   0.061   0.217
    1UNL    H19   48  -0.236  -0.105   0.225
    1UNL    H20   49  -0.312  -0.001  -0.010
    1UNL    H21   50  -0.070   0.155  -0.254
    1UNL    H22   51  -0.242   0.116  -0.213
    1UNL    H23   52  -0.198  -0.026  -0.365
    1UNL    H24   53  -0.164   0.433   0.085
    1UNL    H25   54   0.007   0.453   0.169
    1UNL    H26   55  -0.138   0.342   0.226
   0.00000   0.00000   0.00000   0.00000   0.00000   0.00000   0.00000   0.00000   0.00000
Generated with MDTraj, t= 12.0
 55
    1UNL     C1    1  -0.258  -0.366  -0.182
    1UNL     C2    2  -0.263  -0.225  -0.126
    1UNL     C3    3  -0.196  -0.185  -0.017
    1UNL     C4    4  -0.115  -0.276   0.054
    1UNL     N1    5   0.032  -0.223   0.060
    1UNL     C5    6   0.107  -0.242  -0.071
    1UNL     C6    7   0.073  -0.108  -0.136
    1UNL     C7    8   0.041   0.007  -0.035
    1UNL     C8    9   0.161   0.107  -0.028
    1UNL     C9   10   0.196   0.216  -0.108
    1UNL    C10   11   0.312   0.287  -0.074
    1UNL    C11   12   0.399   0.246   0.027
    1UNL    C12   13   0.369   0.131   0.095
    1UNL    C13   14   0.245   0.064   0.077
    1UNL     N2   15   0.188  -0.046   0.144
    1UNL    C14   16   0.240  -0.073   0.270
    1UNL     O1   17   0.206  -0.165   0.337
    1UNL    C15   18   0.051  -0.078   0.101
    1UNL    C16   19  -0.042  -0.036   0.217
    1UNL     O2   20   0.007   0.085   0.273
    1UNL    C17   21  -0.191  -0.032   0.185
    1UNL    C18   22  -0.206  -0.046   0.022
    1UNL    C19   23  -0.111   0.065  -0.054
    1UNL    C20   24  -0.154   0.094  -0.206
    1UNL     O3   25  -0.143  -0.008  -0.305
    1UNL    C21   26  -0.134   0.199   0.021
    1UNL     O4   27  -0.250   0.234   0.031
    1UNL     O5   28  -0.024   0.280   0.055
    1UNL    C22   29  -0.072   0.411   0.048
    1UNL     H1   30  -0.205  -0.440  -0.127
    1UNL     H2   31  -0.355  -0.410  -0.186
    1UNL     H3   32  -0.206  -0.359  -0.275
    1UNL     H4   33  -0.324  -0.157  -0.189
    1UNL     H5   34  -0.099  -0.362   0.002
    1UNL     H6   35  -0.140  -0.284   0.159
    1UNL     H7   36   0.210  -0.246  -0.052
    1UNL     H8   37   0.087  -0.331  -0.128
    1UNL     H9   38   0.154  -0.086  -0.204
    1UNL    H10   39  -0.008  -0.122  -0.207
    1UNL    H11   40   0.130   0.240  -0.185
    1UNL    H12   41   0.336   0.372  -0.143
    1UNL    H13   42   0.496   0.300   0.051
    1UNL    H14   43   0.431   0.090   0.168
    1UNL    H15   44   0.328  -0.009   0.306
    1UNL    H16   45  -0.020  -0.108   0.299
    1UNL    H17   46   0.010   0.152   0.201
    1UNL    H18   47  -0.224   0.068   0.219
    1UNL    H19   48  -0.252  -0.095   0.241
    1UNL    H20   49  -0.310  -0.017   0.014
    1UNL    H21   50  -0.092   0.177  -0.241
    1UNL    H22   51  -0.262   0.133  -0.212
    1UNL    H23   52  -0.132   0.038  -0.392
    1UNL    H24   53  -0.102   0.437  -0.051
    1UNL    H25   54   0.009   0.475   0.093
    1UNL    H26   55  -0.166   0.413   0.110
   0.00000   0.00000   0.00000   0.00000   0.00000   0.00000   0.00000   0.00000   0.00000
Generated with MDTraj, t= 13.0
 55
    1UNL     C1    1  -0.242  -0.362  -0.182
    1UNL     C2    2  -0.251  -0.226  -0.128
    1UNL     C3    3  -0.185  -0.181  -0.018
    1UNL     C4    4  -0.091  -0.273   0.051
    1UNL     N1    5   0.050  -0.218   0.063
    1UNL     C5    6   0.123  -0.225  -0.067
    1UNL     C6    7   0.089  -0.095  -0.141
    1UNL     C7    8   0.040   0.003  -0.033
    1UNL     C8    9   0.155   0.103  -0.019
    1UNL     C9   10   0.192   0.201  -0.104
    1UNL    C10   11   0.303   0.281  -0.087
    1UNL    C11   12   0.396   0.244   0.011
    1UNL    C12   13   0.362   0.136   0.093
    1UNL    C13   14   0.239   0.072   0.084
    1UNL     N2   15   0.189  -0.042   0.151
    1UNL    C14   16   0.236  -0.127   0.256
    1UNL     O1   17   0.167  -0.190   0.333
    1UNL    C15   18   0.054  -0.073   0.105
    1UNL    C16   19  -0.048  -0.023   0.214
    1UNL     O2   20  -0.013   0.115   0.259
    1UNL    C17   21  -0.194  -0.028   0.174
    1UNL    C18   22  -0.207  -0.043   0.021
    1UNL    C19   23  -0.108   0.063  -0.048
    1UNL    C20   24  -0.147   0.078  -0.199
    1UNL     O3   25  -0.180  -0.035  -0.286
    1UNL    C21   26  -0.124   0.204   0.017
    1UNL     O4   27  -0.228   0.233   0.072
    1UNL     O5   28  -0.023   0.303   0.013
    1UNL    C22   29  -0.068   0.424   0.068
    1UNL     H1   30  -0.305  -0.431  -0.143
    1UNL     H2   31  -0.265  -0.380  -0.285
    1UNL     H3   32  -0.144  -0.405  -0.165
    1UNL     H4   33  -0.305  -0.155  -0.181
    1UNL     H5   34  -0.073  -0.365   0.003
    1UNL     H6   35  -0.127  -0.284   0.152
    1UNL     H7   36   0.227  -0.239  -0.057
    1UNL     H8   37   0.085  -0.308  -0.123
    1UNL     H9   38   0.164  -0.060  -0.210
    1UNL    H10   39   0.002  -0.122  -0.197
    1UNL    H11   40   0.119   0.227  -0.184
    1UNL    H12   41   0.318   0.370  -0.135
    1UNL    H13   42   0.470   0.313   0.032
    1UNL    H14   43   0.425   0.105   0.178
    1UNL    H15   44   0.341  -0.142   0.257
    1UNL    H16   45  -0.032  -0.089   0.300
    1UNL    H17   46   0.001   0.174   0.180
    1UNL    H18   47  -0.239   0.062   0.205
    1UNL    H19   48  -0.247  -0.100   0.230
    1UNL    H20   49  -0.307  -0.011  -0.004
    1UNL    H21   50  -0.064   0.128  -0.245
    1UNL    H22   51  -0.233   0.153  -0.208
    1UNL    H23   52  -0.177   0.001  -0.378
    1UNL    H24   53  -0.112   0.490  -0.006
    1UNL    H25   54   0.013   0.468   0.116
    1UNL    H26   55  -0.146   0.404   0.148
   0.00000   0.00000   0.00000   0.00000   0.00000   0.00000   0.00000   0.00000   0.00000
Generated with MDTraj, t= 14.0
 55
    1UNL     C1    1  -0.236  -0.382  -0.166
    1UNL     C2    2  -0.246  -0.241  -0.126
    1UNL     C3    3  -0.194  -0.184  -0.012
    1UNL     C4    4  -0.100  -0.263   0.074
    1UNL     N1    5   0.039  -0.214   0.066
    1UNL     C5    6   0.095  -0.230  -0.071
    1UNL     C6    7   0.079  -0.093  -0.146
    1UNL     C7    8   0.041   0.012  -0.036
    1UNL     C8    9   0.162   0.102  -0.033
    1UNL     C9   10   0.220   0.196  -0.117
    1UNL    C10   11   0.342   0.261  -0.093
    1UNL    C11   12   0.409   0.241   0.026
    1UNL    C12   13   0.359   0.145   0.111
    1UNL    C13   14   0.235   0.083   0.084
    1UNL     N2   15   0.181  -0.026   0.156
    1UNL    C14   16   0.238  -0.097   0.259
    1UNL     O1   17   0.219  -0.214   0.283
    1UNL    C15   18   0.047  -0.067   0.100
    1UNL    C16   19  -0.058  -0.019   0.212
    1UNL     O2   20  -0.014   0.109   0.266
    1UNL    C17   21  -0.207  -0.008   0.174
    1UNL    C18   22  -0.219  -0.032   0.017
    1UNL    C19   23  -0.110   0.061  -0.055
    1UNL    C20   24  -0.147   0.089  -0.198
    1UNL     O3   25  -0.157  -0.023  -0.290
    1UNL    C21   26  -0.140   0.203   0.012
    1UNL     O4   27  -0.253   0.235   0.046
    1UNL     O5   28  -0.034   0.281   0.035
    1UNL    C22   29  -0.072   0.404   0.092
    1UNL     H1   30  -0.279  -0.448  -0.097
    1UNL     H2   31  -0.293  -0.408  -0.251
    1UNL     H3   32  -0.132  -0.412  -0.175
    1UNL     H4   33  -0.286  -0.167  -0.199
    1UNL     H5   34  -0.096  -0.366   0.031
    1UNL     H6   35  -0.139  -0.253   0.173
    1UNL     H7   36   0.194  -0.266  -0.060
    1UNL     H8   37   0.042  -0.309  -0.122
    1UNL     H9   38   0.176  -0.069  -0.187
    1UNL    H10   39   0.008  -0.101  -0.225
    1UNL    H11   40   0.176   0.216  -0.212
    1UNL    H12   41   0.375   0.339  -0.170
    1UNL    H13   42   0.502   0.299   0.057
    1UNL    H14   43   0.413   0.123   0.199
    1UNL    H15   44   0.314  -0.053   0.321
    1UNL    H16   45  -0.042  -0.086   0.297
    1UNL    H17   46  -0.032   0.178   0.199
    1UNL    H18   47  -0.251   0.072   0.219
    1UNL    H19   48  -0.249  -0.099   0.212
    1UNL    H20   49  -0.310   0.011  -0.021
    1UNL    H21   50  -0.082   0.167  -0.230
    1UNL    H22   51  -0.251   0.128  -0.193
    1UNL    H23   52  -0.166   0.009  -0.383
    1UNL    H24   53  -0.181   0.424   0.093
    1UNL    H25   54  -0.028   0.480   0.049
    1UNL    H26   55  -0.038   0.406   0.200
   0.00000   0.00000   0.00000   0.00000   0.00000   0.00000   0.00000   0.00000   0.00000
Generated with MDTraj, t= 15.0
 55
    1UNL     C1    1  -0.271  -0.374  -0.173
    1UNL     C2    2  -0.270  -0.231  -0.130
    1UNL     C3    3  -0.188  -0.181  -0.026
    1UNL     C4    4  -0.099  -0.269   0.057
    1UNL     N1    5   0.045  -0.216   0.086
    1UNL     C5    6   0.133  -0.218  -0.030
    1UNL     C6    7   0.088  -0.104  -0.119
    1UNL     C7    8   0.042   0.007  -0.021
    1UNL     C8    9   0.153   0.107  -0.021
    1UNL     C9   10   0.173   0.210  -0.108
    1UNL    C10   11   0.295   0.274  -0.094
    1UNL    C11   12   0.389   0.243  -0.001
    1UNL    C12   13   0.365   0.142   0.090
    1UNL    C13   14   0.245   0.073   0.076
    1UNL     N2   15   0.177  -0.025   0.162
    1UNL    C14   16   0.259  -0.119   0.224
    1UNL     O1   17   0.221  -0.213   0.291
    1UNL    C15   18   0.045  -0.070   0.120
    1UNL    C16   19  -0.065  -0.032   0.224
    1UNL     O2   20  -0.016   0.086   0.289
    1UNL    C17   21  -0.202  -0.007   0.167
    1UNL    C18   22  -0.205  -0.032   0.012
    1UNL    C19   23  -0.106   0.070  -0.056
    1UNL    C20   24  -0.123   0.094  -0.207
    1UNL     O3   25  -0.136  -0.027  -0.279
    1UNL    C21   26  -0.135   0.211  -0.009
    1UNL     O4   27  -0.240   0.270  -0.028
    1UNL     O5   28  -0.039   0.269   0.071
    1UNL    C22   29  -0.072   0.400   0.101
    1UNL     H1   30  -0.291  -0.437  -0.086
    1UNL     H2   31  -0.352  -0.393  -0.236
    1UNL     H3   32  -0.170  -0.395  -0.201
    1UNL     H4   33  -0.333  -0.168  -0.187
    1UNL     H5   34  -0.086  -0.382   0.027
    1UNL     H6   35  -0.143  -0.265   0.153
    1UNL     H7   36   0.234  -0.203   0.007
    1UNL     H8   37   0.134  -0.317  -0.074
    1UNL     H9   38   0.179  -0.060  -0.156
    1UNL    H10   39   0.011  -0.132  -0.194
    1UNL    H11   40   0.097   0.238  -0.180
    1UNL    H12   41   0.318   0.335  -0.174
    1UNL    H13   42   0.483   0.289   0.001
    1UNL    H14   43   0.438   0.108   0.163
    1UNL    H15   44   0.372  -0.113   0.208
    1UNL    H16   45  -0.066  -0.115   0.294
    1UNL    H17   46  -0.013   0.163   0.227
    1UNL    H18   47  -0.226   0.090   0.194
    1UNL    H19   48  -0.279  -0.062   0.216
    1UNL    H20   49  -0.299  -0.002  -0.028
    1UNL    H21   50  -0.042   0.141  -0.254
    1UNL    H22   51  -0.214   0.153  -0.218
    1UNL    H23   52  -0.161  -0.023  -0.375
    1UNL    H24   53  -0.144   0.408   0.185
    1UNL    H25   54  -0.117   0.447   0.022
    1UNL    H26   55   0.023   0.451   0.129
   0.00000   0.00000   0.00000   0.00000   0.00000   0.00000   0.00000   0.00000   0.00000
Generated with MDTraj, t= 16.0
 55
    1UNL     C1    1  -0.277  -0.362  -0.168
    1UNL     C2    2  -0.279  -0.228  -0.104
    1UNL     C3    3  -0.203  -0.179  -0.003
    1UNL     C4    4  -0.110  -0.264   0.068
    1UNL     N1    5   0.031  -0.216   0.059
    1UNL     C5    6   0.089  -0.227  -0.078
    1UNL     C6    7   0.105  -0.089  -0.133
    1UNL     C7    8   0.045   0.013  -0.036
    1UNL     C8    9   0.153   0.117  -0.018
    1UNL     C9   10   0.184   0.220  -0.100
    1UNL    C10   11   0.293   0.295  -0.068
    1UNL    C11   12   0.381   0.261   0.035
    1UNL    C12   13   0.359   0.146   0.108
    1UNL    C13   14   0.246   0.080   0.082
    1UNL     N2   15   0.207  -0.038   0.146
    1UNL    C14   16   0.253  -0.103   0.260
    1UNL     O1   17   0.205  -0.205   0.298
    1UNL    C15   18   0.058  -0.074   0.094
    1UNL    C16   19  -0.040  -0.027   0.208
    1UNL     O2   20   0.026   0.077   0.280
    1UNL    C17   21  -0.185  -0.003   0.174
    1UNL    C18   22  -0.206  -0.031   0.024
    1UNL    C19   23  -0.106   0.060  -0.067
    1UNL    C20   24  -0.152   0.066  -0.213
    1UNL     O3   25  -0.138  -0.060  -0.271
    1UNL    C21   26  -0.127   0.209  -0.022
    1UNL     O4   27  -0.210   0.277  -0.080
    1UNL     O5   28  -0.046   0.255   0.080
    1UNL    C22   29  -0.086   0.383   0.117
    1UNL     H1   30  -0.322  -0.439  -0.099
    1UNL     H2   31  -0.334  -0.372  -0.255
    1UNL     H3   32  -0.179  -0.394  -0.175
    1UNL     H4   33  -0.354  -0.153  -0.140
    1UNL     H5   34  -0.110  -0.375   0.029
    1UNL     H6   35  -0.124  -0.274   0.171
    1UNL     H7   36   0.188  -0.278  -0.074
    1UNL     H8   37   0.035  -0.303  -0.136
    1UNL     H9   38   0.209  -0.065  -0.142
    1UNL    H10   39   0.051  -0.077  -0.229
    1UNL    H11   40   0.124   0.250  -0.186
    1UNL    H12   41   0.324   0.382  -0.129
    1UNL    H13   42   0.476   0.317   0.039
    1UNL    H14   43   0.423   0.114   0.190
    1UNL    H15   44   0.333  -0.068   0.311
    1UNL    H16   45  -0.042  -0.113   0.277
    1UNL    H17   46   0.021   0.157   0.224
    1UNL    H18   47  -0.219   0.093   0.202
    1UNL    H19   48  -0.250  -0.057   0.237
    1UNL    H20   49  -0.302   0.007  -0.003
    1UNL    H21   50  -0.095   0.134  -0.268
    1UNL    H22   51  -0.254   0.100  -0.214
    1UNL    H23   52  -0.203  -0.080  -0.344
    1UNL    H24   53  -0.076   0.404   0.225
    1UNL    H25   54  -0.197   0.390   0.103
    1UNL    H26   55  -0.029   0.454   0.060
   0.00000   0.00000   0.00000   0.00000   0.00000   0.00000   0.00000   0.00000   0.00000
Generated with MDTraj, t= 17.0
 55
    1UNL     C1    1  -0.316  -0.369  -0.115
    1UNL     C2    2  -0.295  -0.229  -0.087
    1UNL     C3    3  -0.194  -0.176  -0.012
    1UNL     C4    4  -0.096  -0.256   0.068
    1UNL     N1    5   0.041  -0.216   0.048
    1UNL     C5    6   0.081  -0.230  -0.095
    1UNL     C6    7   0.105  -0.090  -0.150
    1UNL     C7    8   0.055   0.011  -0.041
    1UNL     C8    9   0.166   0.113  -0.019
    1UNL     C9   10   0.191   0.232  -0.083
    1UNL    C10   11   0.281   0.319  -0.027
    1UNL    C11   12   0.365   0.280   0.079
    1UNL    C12   13   0.359   0.151   0.113
    1UNL    C13   14   0.258   0.063   0.074
    1UNL     N2   15   0.203  -0.061   0.121
    1UNL    C14   16   0.251  -0.120   0.236
    1UNL     O1   17   0.193  -0.199   0.305
    1UNL    C15   18   0.063  -0.074   0.087
    1UNL    C16   19  -0.025  -0.031   0.204
    1UNL     O2   20   0.022   0.082   0.269
    1UNL    C17   21  -0.170  -0.011   0.169
    1UNL    C18   22  -0.196  -0.028   0.017
    1UNL    C19   23  -0.092   0.061  -0.065
    1UNL    C20   24  -0.145   0.058  -0.212
    1UNL     O3   25  -0.150  -0.071  -0.273
    1UNL    C21   26  -0.118   0.209  -0.027
    1UNL     O4   27  -0.185   0.273  -0.105
    1UNL     O5   28  -0.062   0.261   0.082
    1UNL    C22   29  -0.101   0.390   0.103
    1UNL     H1   30  -0.319  -0.431  -0.021
    1UNL     H2   31  -0.406  -0.399  -0.160
    1UNL     H3   32  -0.234  -0.413  -0.159
    1UNL     H4   33  -0.358  -0.150  -0.122
    1UNL     H5   34  -0.089  -0.366   0.042
    1UNL     H6   35  -0.123  -0.251   0.170
    1UNL     H7   36   0.161  -0.309  -0.101
    1UNL     H8   37   0.002  -0.281  -0.152
    1UNL     H9   38   0.210  -0.062  -0.162
    1UNL    H10   39   0.046  -0.068  -0.239
    1UNL    H11   40   0.119   0.260  -0.154
    1UNL    H12   41   0.282   0.426  -0.049
    1UNL    H13   42   0.431   0.346   0.133
    1UNL    H14   43   0.423   0.127   0.195
    1UNL    H15   44   0.355  -0.085   0.274
    1UNL    H16   45  -0.014  -0.108   0.282
    1UNL    H17   46   0.007   0.156   0.206
    1UNL    H18   47  -0.198   0.084   0.214
    1UNL    H19   48  -0.238  -0.068   0.224
    1UNL    H20   49  -0.295   0.006  -0.006
    1UNL    H21   50  -0.093   0.136  -0.262
    1UNL    H22   51  -0.247   0.096  -0.212
    1UNL    H23   52  -0.206  -0.058  -0.352
    1UNL    H24   53  -0.009   0.444   0.123
    1UNL    H25   54  -0.158   0.402   0.208
    1UNL    H26   55  -0.143   0.430   0.013
   0.00000   0.00000   0.00000   0.00000   0.00000   0.00000   0.00000   0.00000   0.00000
Generated with MDTraj, t= 18.0
 55
    1UNL     C1    1  -0.344  -0.358  -0.075
    1UNL     C2    2  -0.323  -0.213  -0.066
    1UNL     C3    3  -0.206  -0.165  -0.016
    1UNL     C4    4  -0.098  -0.258   0.036
    1UNL     N1    5   0.047  -0.214   0.040
    1UNL     C5    6   0.128  -0.211  -0.082
    1UNL     C6    7   0.119  -0.073  -0.142
    1UNL     C7    8   0.051   0.014  -0.034
    1UNL     C8    9   0.150   0.121  -0.004
    1UNL     C9   10   0.173   0.253  -0.059
    1UNL    C10   11   0.280   0.329  -0.018
    1UNL    C11   12   0.363   0.275   0.072
    1UNL    C12   13   0.343   0.149   0.119
    1UNL    C13   14   0.241   0.065   0.080
    1UNL     N2   15   0.204  -0.056   0.134
    1UNL    C14   16   0.266  -0.137   0.224
    1UNL     O1   17   0.215  -0.235   0.274
    1UNL    C15   18   0.065  -0.080   0.096
    1UNL    C16   19  -0.031  -0.036   0.211
    1UNL     O2   20   0.024   0.080   0.273
    1UNL    C17   21  -0.177   0.002   0.163
    1UNL    C18   22  -0.195  -0.016   0.008
    1UNL    C19   23  -0.093   0.058  -0.074
    1UNL    C20   24  -0.130   0.038  -0.222
    1UNL     O3   25  -0.137  -0.093  -0.270
    1UNL    C21   26  -0.117   0.203  -0.043
    1UNL     O4   27  -0.184   0.273  -0.118
    1UNL     O5   28  -0.077   0.250   0.083
    1UNL    C22   29  -0.090   0.391   0.089
    1UNL     H1   30  -0.333  -0.397   0.024
    1UNL     H2   31  -0.442  -0.382  -0.111
    1UNL     H3   32  -0.259  -0.394  -0.129
    1UNL     H4   33  -0.397  -0.141  -0.096
    1UNL     H5   34  -0.106  -0.353  -0.007
    1UNL     H6   35  -0.112  -0.273   0.144
    1UNL     H7   36   0.234  -0.252  -0.071
    1UNL     H8   37   0.079  -0.286  -0.148
    1UNL     H9   38   0.221  -0.031  -0.155
    1UNL    H10   39   0.059  -0.057  -0.228
    1UNL    H11   40   0.092   0.292  -0.123
    1UNL    H12   41   0.288   0.431  -0.045
    1UNL    H13   42   0.438   0.337   0.117
    1UNL    H14   43   0.417   0.102   0.185
    1UNL    H15   44   0.357  -0.105   0.259
    1UNL    H16   45  -0.029  -0.111   0.293
    1UNL    H17   46   0.010   0.149   0.203
    1UNL    H18   47  -0.208   0.104   0.192
    1UNL    H19   48  -0.240  -0.052   0.224
    1UNL    H20   49  -0.293   0.022  -0.018
    1UNL    H21   50  -0.067   0.098  -0.285
    1UNL    H22   51  -0.226   0.092  -0.235
    1UNL    H23   52  -0.147  -0.083  -0.368
    1UNL    H24   53   0.001   0.430   0.051
    1UNL    H25   54  -0.096   0.439   0.203
    1UNL    H26   55  -0.169   0.422   0.023
   0.00000   0.00000   0.00000   0.00000   0.00000   0.00000   0.00000   0.00000   0.00000
Generated with MDTraj, t= 19.0
 55
    1UNL     C1    1  -0.353  -0.377  -0.078
    1UNL     C2    2  -0.323  -0.228  -0.063
    1UNL     C3    3  -0.209  -0.177  -0.008
    1UNL     C4    4  -0.105  -0.262   0.053
    1UNL     N1    5   0.032  -0.207   0.046
    1UNL     C5    6   0.095  -0.214  -0.087
    1UNL     C6    7   0.127  -0.073  -0.134
    1UNL     C7    8   0.051   0.025  -0.036
    1UNL     C8    9   0.152   0.135  -0.003
    1UNL     C9   10   0.188   0.246  -0.075
    1UNL    C10   11   0.309   0.308  -0.038
    1UNL    C11   12   0.375   0.280   0.079
    1UNL    C12   13   0.342   0.164   0.152
    1UNL    C13   14   0.235   0.089   0.102
    1UNL     N2   15   0.195  -0.039   0.143
    1UNL    C14   16   0.271  -0.134   0.212
    1UNL     O1   17   0.240  -0.250   0.217
    1UNL    C15   18   0.058  -0.067   0.091
    1UNL    C16   19  -0.036  -0.033   0.205
    1UNL     O2   20   0.012   0.072   0.281
    1UNL    C17   21  -0.184  -0.005   0.170
    1UNL    C18   22  -0.205  -0.026   0.020
    1UNL    C19   23  -0.103   0.059  -0.071
    1UNL    C20   24  -0.127   0.038  -0.222
    1UNL     O3   25  -0.127  -0.096  -0.269
    1UNL    C21   26  -0.106   0.212  -0.034
    1UNL     O4   27  -0.142   0.274  -0.130
    1UNL     O5   28  -0.079   0.265   0.083
    1UNL    C22   29  -0.125   0.396   0.087
    1UNL     H1   30  -0.300  -0.423  -0.006
    1UNL     H2   31  -0.457  -0.400  -0.064
    1UNL     H3   32  -0.308  -0.405  -0.174
    1UNL     H4   33  -0.403  -0.161  -0.090
    1UNL     H5   34  -0.096  -0.352   0.008
    1UNL     H6   35  -0.134  -0.285   0.158
    1UNL     H7   36   0.190  -0.275  -0.067
    1UNL     H8   37   0.036  -0.270  -0.163
    1UNL     H9   38   0.232  -0.044  -0.111
    1UNL    H10   39   0.094  -0.062  -0.235
    1UNL    H11   40   0.142   0.280  -0.164
    1UNL    H12   41   0.347   0.395  -0.096
    1UNL    H13   42   0.468   0.333   0.104
    1UNL    H14   43   0.417   0.124   0.214
    1UNL    H15   44   0.363  -0.102   0.264
    1UNL    H16   45  -0.029  -0.117   0.278
    1UNL    H17   46   0.004   0.149   0.221
    1UNL    H18   47  -0.201   0.100   0.201
    1UNL    H19   48  -0.244  -0.064   0.232
    1UNL    H20   49  -0.309   0.001   0.013
    1UNL    H21   50  -0.052   0.097  -0.275
    1UNL    H22   51  -0.228   0.082  -0.246
    1UNL    H23   52  -0.128  -0.111  -0.367
    1UNL    H24   53  -0.126   0.440  -0.010
    1UNL    H25   54  -0.053   0.458   0.160
    1UNL    H26   55  -0.224   0.400   0.134
   0.00000   0.00000   0.00000   0.00000   0.00000   0.00000   0.00000   0.00000   0.00000
Generated with MDTraj, t= 20.0
 55
    1UNL     C1    1  -0.320  -0.371  -0.102
    1UNL     C2    2  -0.297  -0.227  -0.090
    1UNL     C3    3  -0.209  -0.174  -0.004
    1UNL     C4    4  -0.117  -0.250   0.080
    1UNL     N1    5   0.031  -0.213   0.071
    1UNL     C5    6   0.092  -0.229  -0.065
    1UNL     C6    7   0.114  -0.090  -0.127
    1UNL     C7    8   0.050   0.019  -0.035
    1UNL     C8    9   0.156   0.122  -0.010
    1UNL     C9   10   0.177   0.241  -0.067
    1UNL    C10   11   0.282   0.321  -0.023
    1UNL    C11   12   0.377   0.276   0.071
    1UNL    C12   13   0.357   0.155   0.134
    1UNL    C13   14   0.250   0.078   0.092
    1UNL     N2   15   0.199  -0.048   0.137
    1UNL    C14   16   0.278  -0.150   0.189
    1UNL     O1   17   0.257  -0.267   0.214
    1UNL    C15   18   0.056  -0.071   0.105
    1UNL    C16   19  -0.040  -0.014   0.216
    1UNL     O2   20   0.015   0.102   0.276
    1UNL    C17   21  -0.196  -0.000   0.173
    1UNL    C18   22  -0.202  -0.015   0.019
    1UNL    C19   23  -0.096   0.063  -0.072
    1UNL    C20   24  -0.126   0.037  -0.223
    1UNL     O3   25  -0.131  -0.093  -0.275
    1UNL    C21   26  -0.116   0.215  -0.043
    1UNL     O4   27  -0.123   0.296  -0.133
    1UNL     O5   28  -0.125   0.256   0.088
    1UNL    C22   29  -0.122   0.396   0.099
    1UNL     H1   30  -0.378  -0.411  -0.026
    1UNL     H2   31  -0.375  -0.404  -0.186
    1UNL     H3   32  -0.228  -0.428  -0.106
    1UNL     H4   33  -0.367  -0.159  -0.134
    1UNL     H5   34  -0.130  -0.353   0.067
    1UNL     H6   35  -0.153  -0.226   0.180
    1UNL     H7   36   0.195  -0.278  -0.053
    1UNL     H8   37   0.034  -0.304  -0.126
    1UNL     H9   38   0.221  -0.067  -0.138
    1UNL    H10   39   0.061  -0.080  -0.220
    1UNL    H11   40   0.110   0.288  -0.142
    1UNL    H12   41   0.294   0.415  -0.065
    1UNL    H13   42   0.466   0.326   0.094
    1UNL    H14   43   0.439   0.116   0.195
    1UNL    H15   44   0.380  -0.114   0.215
    1UNL    H16   45  -0.041  -0.090   0.296
    1UNL    H17   46  -0.017   0.175   0.218
    1UNL    H18   47  -0.227   0.103   0.199
    1UNL    H19   48  -0.254  -0.078   0.220
    1UNL    H20   49  -0.297   0.012  -0.018
    1UNL    H21   50  -0.057   0.092  -0.290
    1UNL    H22   51  -0.232   0.076  -0.241
    1UNL    H23   52  -0.215  -0.123  -0.316
    1UNL    H24   53  -0.105   0.445   0.003
    1UNL    H25   54  -0.049   0.436   0.174
    1UNL    H26   55  -0.215   0.429   0.149
   0.00000   0.00000   0.00000   0.00000   0.00000   0.00000   0.00000   0.00000   0.00000
Generated with MDTraj, t= 21.0
 55
    1UNL     C1    1  -0.289  -0.347  -0.151
    1UNL     C2    2  -0.285  -0.215  -0.090
    1UNL     C3    3  -0.210  -0.170   0.011
    1UNL     C4    4  -0.113  -0.256   0.084
    1UNL     N1    5   0.034  -0.214   0.067
    1UNL     C5    6   0.091  -0.230  -0.074
    1UNL     C6    7   0.102  -0.094  -0.134
    1UNL     C7    8   0.046   0.007  -0.028
    1UNL     C8    9   0.145   0.117  -0.007
    1UNL     C9   10   0.173   0.237  -0.076
    1UNL    C10   11   0.279   0.317  -0.032
    1UNL    C11   12   0.369   0.277   0.061
    1UNL    C12   13   0.361   0.149   0.114
    1UNL    C13   14   0.245   0.070   0.083
    1UNL     N2   15   0.202  -0.054   0.149
    1UNL    C14   16   0.275  -0.157   0.212
    1UNL     O1   17   0.242  -0.269   0.239
    1UNL    C15   18   0.069  -0.078   0.108
    1UNL    C16   19  -0.023  -0.020   0.227
    1UNL     O2   20   0.016   0.112   0.271
    1UNL    C17   21  -0.172   0.000   0.193
    1UNL    C18   22  -0.196  -0.017   0.040
    1UNL    C19   23  -0.101   0.059  -0.066
    1UNL    C20   24  -0.148   0.038  -0.216
    1UNL     O3   25  -0.149  -0.089  -0.273
    1UNL    C21   26  -0.114   0.216  -0.041
    1UNL     O4   27  -0.110   0.292  -0.135
    1UNL     O5   28  -0.124   0.263   0.086
    1UNL    C22   29  -0.139   0.403   0.084
    1UNL     H1   30  -0.348  -0.421  -0.091
    1UNL     H2   31  -0.330  -0.345  -0.247
    1UNL     H3   32  -0.191  -0.387  -0.154
    1UNL     H4   33  -0.352  -0.149  -0.145
    1UNL     H5   34  -0.127  -0.365   0.053
    1UNL     H6   35  -0.129  -0.251   0.190
    1UNL     H7   36   0.191  -0.280  -0.061
    1UNL     H8   37   0.030  -0.302  -0.135
    1UNL     H9   38   0.201  -0.059  -0.163
    1UNL    H10   39   0.039  -0.079  -0.225
    1UNL    H11   40   0.093   0.284  -0.135
    1UNL    H12   41   0.279   0.424  -0.065
    1UNL    H13   42   0.445   0.355   0.084
    1UNL    H14   43   0.422   0.112   0.193
    1UNL    H15   44   0.375  -0.134   0.223
    1UNL    H16   45  -0.013  -0.093   0.308
    1UNL    H17   46  -0.025   0.174   0.205
    1UNL    H18   47  -0.200   0.105   0.215
    1UNL    H19   48  -0.233  -0.076   0.249
    1UNL    H20   49  -0.294   0.017   0.017
    1UNL    H21   50  -0.091   0.114  -0.276
    1UNL    H22   51  -0.255   0.078  -0.221
    1UNL    H23   52  -0.170  -0.070  -0.368
    1UNL    H24   53  -0.055   0.451   0.032
    1UNL    H25   54  -0.159   0.452   0.175
    1UNL    H26   55  -0.233   0.429   0.028
   0.00000   0.00000   0.00000   0.00000   0.00000   0.00000   0.00000   0.00000   0.00000
Generated with MDTraj, t= 22.0
 55
    1UNL     C1    1  -0.311  -0.365  -0.144
    1UNL     C2    2  -0.292  -0.229  -0.087
    1UNL     C3    3  -0.201  -0.183  -0.007
    1UNL     C4    4  -0.107  -0.265   0.074
    1UNL     N1    5   0.028  -0.208   0.050
    1UNL     C5    6   0.086  -0.226  -0.084
    1UNL     C6    7   0.109  -0.085  -0.144
    1UNL     C7    8   0.047   0.020  -0.043
    1UNL     C8    9   0.152   0.122  -0.015
    1UNL     C9   10   0.197   0.233  -0.087
    1UNL    C10   11   0.306   0.306  -0.051
    1UNL    C11   12   0.392   0.262   0.049
    1UNL    C12   13   0.360   0.147   0.116
    1UNL    C13   14   0.239   0.075   0.081
    1UNL     N2   15   0.201  -0.052   0.133
    1UNL    C14   16   0.261  -0.129   0.228
    1UNL     O1   17   0.218  -0.224   0.287
    1UNL    C15   18   0.060  -0.069   0.094
    1UNL    C16   19  -0.031  -0.021   0.210
    1UNL     O2   20   0.031   0.095   0.271
    1UNL    C17   21  -0.178  -0.010   0.177
    1UNL    C18   22  -0.202  -0.031   0.029
    1UNL    C19   23  -0.104   0.065  -0.056
    1UNL    C20   24  -0.145   0.042  -0.208
    1UNL     O3   25  -0.139  -0.090  -0.269
    1UNL    C21   26  -0.115   0.217  -0.028
    1UNL     O4   27  -0.126   0.295  -0.119
    1UNL     O5   28  -0.120   0.261   0.098
    1UNL    C22   29  -0.147   0.397   0.119
    1UNL     H1   30  -0.275  -0.439  -0.065
    1UNL     H2   31  -0.413  -0.377  -0.170
    1UNL     H3   32  -0.240  -0.372  -0.220
    1UNL     H4   33  -0.361  -0.162  -0.130
    1UNL     H5   34  -0.093  -0.378   0.037
    1UNL     H6   35  -0.128  -0.273   0.179
    1UNL     H7   36   0.183  -0.278  -0.065
    1UNL     H8   37   0.018  -0.291  -0.147
    1UNL     H9   38   0.214  -0.061  -0.166
    1UNL    H10   39   0.056  -0.064  -0.240
    1UNL    H11   40   0.135   0.275  -0.161
    1UNL    H12   41   0.317   0.403  -0.087
    1UNL    H13   42   0.481   0.313   0.071
    1UNL    H14   43   0.423   0.115   0.199
    1UNL    H15   44   0.371  -0.100   0.250
    1UNL    H16   45  -0.009  -0.099   0.284
    1UNL    H17   46  -0.004   0.174   0.226
    1UNL    H18   47  -0.212   0.087   0.215
    1UNL    H19   48  -0.245  -0.092   0.225
    1UNL    H20   49  -0.303   0.001   0.012
    1UNL    H21   50  -0.081   0.114  -0.264
    1UNL    H22   51  -0.249   0.086  -0.226
    1UNL    H23   52  -0.123  -0.077  -0.365
    1UNL    H24   53  -0.072   0.446   0.183
    1UNL    H25   54  -0.234   0.402   0.165
    1UNL    H26   55  -0.157   0.461   0.026
   0.00000   0.00000   0.00000   0.00000   0.00000   0.00000   0.00000   0.00000   0.00000
Generated with MDTraj, t= 23.0
 55
    1UNL     C1    1  -0.337  -0.376  -0.082
    1UNL     C2    2  -0.304  -0.232  -0.076
    1UNL     C3    3  -0.202  -0.177  -0.023
    1UNL     C4    4  -0.092  -0.264   0.041
    1UNL     N1    5   0.048  -0.215   0.045
    1UNL     C5    6   0.121  -0.217  -0.082
    1UNL     C6    7   0.112  -0.078  -0.143
    1UNL     C7    8   0.049   0.020  -0.042
    1UNL     C8    9   0.151   0.125  -0.013
    1UNL     C9   10   0.177   0.246  -0.072
    1UNL    C10   11   0.293   0.314  -0.061
    1UNL    C11   12   0.390   0.253   0.015
    1UNL    C12   13   0.367   0.140   0.092
    1UNL    C13   14   0.249   0.070   0.074
    1UNL     N2   15   0.195  -0.049   0.134
    1UNL    C14   16   0.235  -0.099   0.260
    1UNL     O1   17   0.189  -0.199   0.315
    1UNL    C15   18   0.063  -0.074   0.089
    1UNL    C16   19  -0.037  -0.045   0.213
    1UNL     O2   20   0.020   0.055   0.292
    1UNL    C17   21  -0.176  -0.014   0.163
    1UNL    C18   22  -0.198  -0.023   0.005
    1UNL    C19   23  -0.094   0.066  -0.079
    1UNL    C20   24  -0.122   0.067  -0.230
    1UNL     O3   25  -0.143  -0.065  -0.282
    1UNL    C21   26  -0.110   0.210  -0.028
    1UNL     O4   27  -0.115   0.298  -0.112
    1UNL     O5   28  -0.120   0.238   0.110
    1UNL    C22   29  -0.132   0.380   0.135
    1UNL     H1   30  -0.347  -0.420   0.018
    1UNL     H2   31  -0.425  -0.404  -0.137
    1UNL     H3   32  -0.251  -0.425  -0.118
    1UNL     H4   33  -0.374  -0.157  -0.122
    1UNL     H5   34  -0.092  -0.368  -0.011
    1UNL     H6   35  -0.116  -0.281   0.146
    1UNL     H7   36   0.227  -0.245  -0.060
    1UNL     H8   37   0.067  -0.285  -0.154
    1UNL     H9   38   0.210  -0.032  -0.166
    1UNL    H10   39   0.056  -0.081  -0.235
    1UNL    H11   40   0.098   0.287  -0.140
    1UNL    H12   41   0.318   0.402  -0.125
    1UNL    H13   42   0.494   0.295   0.013
    1UNL    H14   43   0.454   0.087   0.130
    1UNL    H15   44   0.300  -0.045   0.316
    1UNL    H16   45  -0.030  -0.136   0.274
    1UNL    H17   46  -0.004   0.138   0.243
    1UNL    H18   47  -0.213   0.083   0.202
    1UNL    H19   48  -0.252  -0.084   0.219
    1UNL    H20   49  -0.295   0.019  -0.009
    1UNL    H21   50  -0.046   0.117  -0.290
    1UNL    H22   51  -0.221   0.116  -0.244
    1UNL    H23   52  -0.193  -0.068  -0.367
    1UNL    H24   53  -0.153   0.408   0.238
    1UNL    H25   54  -0.207   0.418   0.081
    1UNL    H26   55  -0.031   0.427   0.105
   0.00000   0.00000   0.00000   0.00000   0.00000   0.00000   0.00000   0.00000   0.00000
Generated with MDTraj, t= 24.0
 55
    1UNL     C1    1  -0.336  -0.380  -0.088
    1UNL     C2    2  -0.312  -0.231  -0.079
    1UNL     C3    3  -0.203  -0.179  -0.037
    1UNL     C4    4  -0.089  -0.267   0.023
    1UNL     N1    5   0.050  -0.212   0.044
    1UNL     C5    6   0.130  -0.215  -0.079
    1UNL     C6    7   0.096  -0.084  -0.146
    1UNL     C7    8   0.056   0.016  -0.040
    1UNL     C8    9   0.165   0.122  -0.026
    1UNL     C9   10   0.192   0.238  -0.103
    1UNL    C10   11   0.316   0.297  -0.068
    1UNL    C11   12   0.378   0.269   0.051
    1UNL    C12   13   0.350   0.151   0.119
    1UNL    C13   14   0.250   0.071   0.077
    1UNL     N2   15   0.198  -0.044   0.143
    1UNL    C14   16   0.257  -0.118   0.243
    1UNL     O1   17   0.204  -0.195   0.319
    1UNL    C15   18   0.062  -0.072   0.096
    1UNL    C16   19  -0.034  -0.034   0.207
    1UNL     O2   20  -0.003   0.075   0.285
    1UNL    C17   21  -0.182  -0.036   0.169
    1UNL    C18   22  -0.200  -0.036   0.016
    1UNL    C19   23  -0.099   0.063  -0.061
    1UNL    C20   24  -0.145   0.066  -0.208
    1UNL     O3   25  -0.162  -0.059  -0.281
    1UNL    C21   26  -0.116   0.216  -0.023
    1UNL     O4   27  -0.125   0.297  -0.112
    1UNL     O5   28  -0.103   0.248   0.104
    1UNL    C22   29  -0.108   0.382   0.118
    1UNL     H1   30  -0.348  -0.422   0.007
    1UNL     H2   31  -0.421  -0.414  -0.151
    1UNL     H3   32  -0.239  -0.415  -0.123
    1UNL     H4   33  -0.397  -0.169  -0.097
    1UNL     H5   34  -0.075  -0.360  -0.031
    1UNL     H6   35  -0.130  -0.295   0.123
    1UNL     H7   36   0.235  -0.210  -0.047
    1UNL     H8   37   0.095  -0.302  -0.140
    1UNL     H9   38   0.187  -0.043  -0.196
    1UNL    H10   39   0.021  -0.090  -0.221
    1UNL    H11   40   0.145   0.272  -0.189
    1UNL    H12   41   0.352   0.380  -0.126
    1UNL    H13   42   0.456   0.334   0.077
    1UNL    H14   43   0.413   0.109   0.193
    1UNL    H15   44   0.367  -0.097   0.260
    1UNL    H16   45  -0.013  -0.111   0.285
    1UNL    H17   46  -0.011   0.154   0.225
    1UNL    H18   47  -0.224   0.063   0.210
    1UNL    H19   48  -0.252  -0.115   0.218
    1UNL    H20   49  -0.299  -0.008  -0.012
    1UNL    H21   50  -0.072   0.123  -0.262
    1UNL    H22   51  -0.240   0.118  -0.211
    1UNL    H23   52  -0.233  -0.064  -0.350
    1UNL    H24   53  -0.186   0.422   0.057
    1UNL    H25   54  -0.017   0.425   0.086
    1UNL    H26   55  -0.129   0.389   0.232
   0.00000   0.00000   0.00000   0.00000   0.00000   0.00000   0.00000   0.00000   0.00000
Generated with MDTraj, t= 25.0
 55
    1UNL     C1    1  -0.298  -0.368  -0.143
    1UNL     C2    2  -0.283  -0.224  -0.082
    1UNL     C3    3  -0.195  -0.172  -0.002
    1UNL     C4    4  -0.104  -0.256   0.068
    1UNL     N1    5   0.038  -0.220   0.061
    1UNL     C5    6   0.099  -0.230  -0.077
    1UNL     C6    7   0.094  -0.092  -0.143
    1UNL     C7    8   0.046   0.007  -0.044
    1UNL     C8    9   0.154   0.110  -0.020
    1UNL     C9   10   0.177   0.226  -0.088
    1UNL    C10   11   0.281   0.315  -0.059
    1UNL    C11   12   0.364   0.277   0.042
    1UNL    C12   13   0.341   0.166   0.116
    1UNL    C13   14   0.236   0.078   0.085
    1UNL     N2   15   0.197  -0.045   0.139
    1UNL    C14   16   0.250  -0.125   0.244
    1UNL     O1   17   0.222  -0.240   0.268
    1UNL    C15   18   0.060  -0.072   0.095
    1UNL    C16   19  -0.032  -0.026   0.221
    1UNL     O2   20   0.021   0.082   0.292
    1UNL    C17   21  -0.181  -0.001   0.178
    1UNL    C18   22  -0.199  -0.020   0.025
    1UNL    C19   23  -0.102   0.062  -0.073
    1UNL    C20   24  -0.142   0.059  -0.221
    1UNL     O3   25  -0.163  -0.072  -0.265
    1UNL    C21   26  -0.103   0.209  -0.031
    1UNL     O4   27  -0.121   0.289  -0.120
    1UNL     O5   28  -0.080   0.246   0.100
    1UNL    C22   29  -0.100   0.384   0.107
    1UNL     H1   30  -0.247  -0.436  -0.086
    1UNL     H2   31  -0.403  -0.399  -0.156
    1UNL     H3   32  -0.242  -0.357  -0.239
    1UNL     H4   33  -0.359  -0.155  -0.124
    1UNL     H5   34  -0.112  -0.350   0.032
    1UNL     H6   35  -0.124  -0.266   0.179
    1UNL     H7   36   0.200  -0.266  -0.066
    1UNL     H8   37   0.033  -0.300  -0.131
    1UNL     H9   38   0.189  -0.050  -0.184
    1UNL    H10   39   0.032  -0.095  -0.234
    1UNL    H11   40   0.100   0.260  -0.160
    1UNL    H12   41   0.290   0.416  -0.096
    1UNL    H13   42   0.443   0.338   0.088
    1UNL    H14   43   0.404   0.159   0.205
    1UNL    H15   44   0.298  -0.069   0.322
    1UNL    H16   45  -0.037  -0.099   0.305
    1UNL    H17   46   0.008   0.156   0.229
    1UNL    H18   47  -0.223   0.107   0.198
    1UNL    H19   48  -0.245  -0.073   0.243
    1UNL    H20   49  -0.294   0.013  -0.011
    1UNL    H21   50  -0.059   0.101  -0.272
    1UNL    H22   51  -0.225   0.126  -0.234
    1UNL    H23   52  -0.225  -0.073  -0.342
    1UNL    H24   53  -0.009   0.428   0.080
    1UNL    H25   54  -0.132   0.413   0.210
    1UNL    H26   55  -0.184   0.402   0.033
   0.00000   0.00000   0.00000   0.00000   0.00000   0.00000   0.00000   0.00000   0.00000
Generated with MDTraj, t= 26.0
 55
    1UNL     C1    1  -0.277  -0.349  -0.156
    1UNL     C2    2  -0.268  -0.210  -0.105
    1UNL     C3    3  -0.208  -0.172   0.003
    1UNL     C4    4  -0.120  -0.259   0.092
    1UNL     N1    5   0.021  -0.214   0.078
    1UNL     C5    6   0.087  -0.244  -0.055
    1UNL     C6    7   0.097  -0.109  -0.131
    1UNL     C7    8   0.040   0.003  -0.035
    1UNL     C8    9   0.136   0.118  -0.013
    1UNL     C9   10   0.160   0.241  -0.081
    1UNL    C10   11   0.269   0.313  -0.039
    1UNL    C11   12   0.363   0.272   0.054
    1UNL    C12   13   0.344   0.148   0.111
    1UNL    C13   14   0.232   0.071   0.082
    1UNL     N2   15   0.197  -0.055   0.129
    1UNL    C14   16   0.275  -0.148   0.187
    1UNL     O1   17   0.247  -0.235   0.263
    1UNL    C15   18   0.050  -0.071   0.105
    1UNL    C16   19  -0.030  -0.015   0.219
    1UNL     O2   20   0.034   0.093   0.283
    1UNL    C17   21  -0.176   0.007   0.175
    1UNL    C18   22  -0.207  -0.021   0.030
    1UNL    C19   23  -0.106   0.059  -0.058
    1UNL    C20   24  -0.136   0.052  -0.210
    1UNL     O3   25  -0.122  -0.076  -0.273
    1UNL    C21   26  -0.125   0.211  -0.031
    1UNL     O4   27  -0.153   0.293  -0.115
    1UNL     O5   28  -0.096   0.252   0.092
    1UNL    C22   29  -0.084   0.394   0.087
    1UNL     H1   30  -0.358  -0.408  -0.106
    1UNL     H2   31  -0.292  -0.366  -0.260
    1UNL     H3   32  -0.183  -0.398  -0.128
    1UNL     H4   33  -0.307  -0.138  -0.169
    1UNL     H5   34  -0.116  -0.359   0.068
    1UNL     H6   35  -0.150  -0.254   0.200
    1UNL     H7   36   0.177  -0.294  -0.030
    1UNL     H8   37   0.015  -0.308  -0.106
    1UNL     H9   38   0.197  -0.082  -0.171
    1UNL    H10   39   0.040  -0.116  -0.228
    1UNL    H11   40   0.084   0.281  -0.145
    1UNL    H12   41   0.290   0.410  -0.092
    1UNL    H13   42   0.441   0.339   0.081
    1UNL    H14   43   0.402   0.118   0.194
    1UNL    H15   44   0.378  -0.140   0.164
    1UNL    H16   45  -0.031  -0.086   0.306
    1UNL    H17   46   0.019   0.170   0.225
    1UNL    H18   47  -0.189   0.121   0.195
    1UNL    H19   48  -0.247  -0.054   0.244
    1UNL    H20   49  -0.308   0.004   0.004
    1UNL    H21   50  -0.079   0.126  -0.261
    1UNL    H22   51  -0.236   0.088  -0.213
    1UNL    H23   52  -0.147  -0.061  -0.366
    1UNL    H24   53  -0.076   0.425   0.187
    1UNL    H25   54  -0.183   0.435   0.042
    1UNL    H26   55   0.006   0.410   0.027
   0.00000   0.00000   0.00000   0.00000   0.00000   0.00000   0.00000   0.00000   0.00000
Generated with MDTraj, t= 27.0
 55
    1UNL     C1    1  -0.295  -0.365  -0.139
    1UNL     C2    2  -0.286  -0.234  -0.089
    1UNL     C3    3  -0.207  -0.179  -0.001
    1UNL     C4    4  -0.109  -0.264   0.077
    1UNL     N1    5   0.030  -0.215   0.061
    1UNL     C5    6   0.088  -0.231  -0.076
    1UNL     C6    7   0.102  -0.090  -0.131
    1UNL     C7    8   0.051   0.012  -0.031
    1UNL     C8    9   0.156   0.121  -0.009
    1UNL     C9   10   0.181   0.238  -0.075
    1UNL    C10   11   0.294   0.312  -0.046
    1UNL    C11   12   0.388   0.266   0.047
    1UNL    C12   13   0.359   0.153   0.118
    1UNL    C13   14   0.245   0.081   0.090
    1UNL     N2   15   0.194  -0.043   0.150
    1UNL    C14   16   0.257  -0.136   0.230
    1UNL     O1   17   0.245  -0.257   0.224
    1UNL    C15   18   0.061  -0.071   0.106
    1UNL    C16   19  -0.037  -0.021   0.225
    1UNL     O2   20   0.007   0.101   0.281
    1UNL    C17   21  -0.185   0.001   0.177
    1UNL    C18   22  -0.203  -0.018   0.020
    1UNL    C19   23  -0.102   0.063  -0.067
    1UNL    C20   24  -0.146   0.055  -0.218
    1UNL     O3   25  -0.148  -0.080  -0.257
    1UNL    C21   26  -0.114   0.213  -0.031
    1UNL     O4   27  -0.186   0.279  -0.102
    1UNL     O5   28  -0.056   0.269   0.078
    1UNL    C22   29  -0.116   0.400   0.089
    1UNL     H1   30  -0.365  -0.371  -0.233
    1UNL     H2   31  -0.202  -0.407  -0.164
    1UNL     H3   32  -0.339  -0.429  -0.061
    1UNL     H4   33  -0.355  -0.158  -0.130
    1UNL     H5   34  -0.111  -0.370   0.042
    1UNL     H6   35  -0.125  -0.258   0.186
    1UNL     H7   36   0.184  -0.273  -0.062
    1UNL     H8   37   0.026  -0.297  -0.136
    1UNL     H9   38   0.209  -0.070  -0.159
    1UNL    H10   39   0.053  -0.076  -0.229
    1UNL    H11   40   0.113   0.263  -0.155
    1UNL    H12   41   0.313   0.399  -0.099
    1UNL    H13   42   0.487   0.313   0.038
    1UNL    H14   43   0.427   0.124   0.200
    1UNL    H15   44   0.357  -0.101   0.276
    1UNL    H16   45  -0.033  -0.100   0.303
    1UNL    H17   46   0.001   0.170   0.208
    1UNL    H18   47  -0.210   0.109   0.205
    1UNL    H19   48  -0.252  -0.071   0.239
    1UNL    H20   49  -0.303   0.015   0.001
    1UNL    H21   50  -0.077   0.108  -0.282
    1UNL    H22   51  -0.244   0.092  -0.238
    1UNL    H23   52  -0.147  -0.084  -0.356
    1UNL    H24   53  -0.223   0.383   0.091
    1UNL    H25   54  -0.102   0.447  -0.018
    1UNL    H26   55  -0.074   0.445   0.174
   0.00000   0.00000   0.00000   0.00000   0.00000   0.00000   0.00000   0.00000   0.00000
Generated with MDTraj, t= 28.0
 55
    1UNL     C1    1  -0.334  -0.372  -0.090
    1UNL     C2    2  -0.307  -0.231  -0.072
    1UNL     C3    3  -0.195  -0.176  -0.024
    1UNL     C4    4  -0.097  -0.262   0.046
    1UNL     N1    5   0.042  -0.206   0.052
    1UNL     C5    6   0.119  -0.215  -0.076
    1UNL     C6    7   0.109  -0.076  -0.140
    1UNL     C7    8   0.049   0.024  -0.039
    1UNL     C8    9   0.166   0.124  -0.010
    1UNL     C9   10   0.200   0.234  -0.086
    1UNL    C10   11   0.318   0.300  -0.060
    1UNL    C11   12   0.395   0.263   0.050
    1UNL    C12   13   0.363   0.158   0.143
    1UNL    C13   14   0.248   0.084   0.100
    1UNL     N2   15   0.198  -0.039   0.152
    1UNL    C14   16   0.270  -0.144   0.210
    1UNL     O1   17   0.223  -0.243   0.264
    1UNL    C15   18   0.059  -0.067   0.097
    1UNL    C16   19  -0.042  -0.019   0.208
    1UNL     O2   20   0.003   0.094   0.284
    1UNL    C17   21  -0.188  -0.001   0.159
    1UNL    C18   22  -0.199  -0.029   0.010
    1UNL    C19   23  -0.100   0.062  -0.070
    1UNL    C20   24  -0.139   0.053  -0.216
    1UNL     O3   25  -0.135  -0.072  -0.282
    1UNL    C21   26  -0.141   0.207  -0.029
    1UNL     O4   27  -0.239   0.269  -0.069
    1UNL     O5   28  -0.063   0.257   0.072
    1UNL    C22   29  -0.103   0.390   0.099
    1UNL     H1   30  -0.258  -0.417  -0.164
    1UNL     H2   31  -0.336  -0.414   0.014
    1UNL     H3   32  -0.434  -0.377  -0.133
    1UNL     H4   33  -0.392  -0.168  -0.080
    1UNL     H5   34  -0.080  -0.371  -0.001
    1UNL     H6   35  -0.122  -0.279   0.151
    1UNL     H7   36   0.218  -0.235  -0.045
    1UNL     H8   37   0.082  -0.292  -0.142
    1UNL     H9   38   0.216  -0.054  -0.172
    1UNL    H10   39   0.052  -0.085  -0.229
    1UNL    H11   40   0.146   0.255  -0.179
    1UNL    H12   41   0.361   0.373  -0.136
    1UNL    H13   42   0.485   0.311   0.080
    1UNL    H14   43   0.433   0.119   0.213
    1UNL    H15   44   0.370  -0.143   0.196
    1UNL    H16   45  -0.047  -0.099   0.284
    1UNL    H17   46  -0.003   0.176   0.232
    1UNL    H18   47  -0.219   0.106   0.181
    1UNL    H19   48  -0.262  -0.074   0.212
    1UNL    H20   49  -0.299   0.002  -0.013
    1UNL    H21   50  -0.075   0.121  -0.273
    1UNL    H22   51  -0.243   0.084  -0.235
    1UNL    H23   52  -0.136  -0.066  -0.381
    1UNL    H24   53  -0.137   0.432   0.001
    1UNL    H25   54  -0.000   0.439   0.118
    1UNL    H26   55  -0.164   0.384   0.179
   0.00000   0.00000   0.00000   0.00000   0.00000   0.00000   0.00000   0.00000   0.00000
Generated with MDTraj, t= 29.0
 55
    1UNL     C1    1  -0.352  -0.383  -0.073
    1UNL     C2    2  -0.312  -0.240  -0.080
    1UNL     C3    3  -0.200  -0.182  -0.030
    1UNL     C4    4  -0.093  -0.266   0.039
    1UNL     N1    5   0.055  -0.225   0.055
    1UNL     C5    6   0.112  -0.234  -0.082
    1UNL     C6    7   0.102  -0.093  -0.147
    1UNL     C7    8   0.056   0.011  -0.041
    1UNL     C8    9   0.166   0.114  -0.019
    1UNL     C9   10   0.178   0.237  -0.080
    1UNL    C10   11   0.294   0.312  -0.055
    1UNL    C11   12   0.388   0.274   0.038
    1UNL    C12   13   0.365   0.151   0.110
    1UNL    C13   14   0.251   0.073   0.085
    1UNL     N2   15   0.198  -0.049   0.143
    1UNL    C14   16   0.248  -0.115   0.258
    1UNL     O1   17   0.208  -0.220   0.297
    1UNL    C15   18   0.068  -0.076   0.095
    1UNL    C16   19  -0.036  -0.038   0.202
    1UNL     O2   20   0.010   0.085   0.264
    1UNL    C17   21  -0.180  -0.025   0.149
    1UNL    C18   22  -0.198  -0.031  -0.001
    1UNL    C19   23  -0.094   0.069  -0.072
    1UNL    C20   24  -0.120   0.082  -0.223
    1UNL     O3   25  -0.129  -0.042  -0.286
    1UNL    C21   26  -0.130   0.209  -0.012
    1UNL     O4   27  -0.243   0.249  -0.024
    1UNL     O5   28  -0.040   0.283   0.056
    1UNL    C22   29  -0.084   0.415   0.099
    1UNL     H1   30  -0.334  -0.429   0.027
    1UNL     H2   31  -0.467  -0.385  -0.094
    1UNL     H3   32  -0.295  -0.447  -0.142
    1UNL     H4   33  -0.385  -0.166  -0.111
    1UNL     H5   34  -0.073  -0.369  -0.016
    1UNL     H6   35  -0.130  -0.299   0.136
    1UNL     H7   36   0.214  -0.261  -0.074
    1UNL     H8   37   0.060  -0.310  -0.140
    1UNL     H9   38   0.204  -0.059  -0.183
    1UNL    H10   39   0.041  -0.105  -0.236
    1UNL    H11   40   0.106   0.274  -0.147
    1UNL    H12   41   0.295   0.404  -0.103
    1UNL    H13   42   0.461   0.348   0.069
    1UNL    H14   43   0.433   0.109   0.183
    1UNL    H15   44   0.300  -0.048   0.338
    1UNL    H16   45  -0.028  -0.120   0.275
    1UNL    H17   46  -0.006   0.159   0.200
    1UNL    H18   47  -0.218   0.076   0.177
    1UNL    H19   48  -0.256  -0.101   0.192
    1UNL    H20   49  -0.298   0.003  -0.025
    1UNL    H21   50  -0.046   0.153  -0.267
    1UNL    H22   51  -0.220   0.135  -0.236
    1UNL    H23   52  -0.138  -0.033  -0.383
    1UNL    H24   53   0.002   0.486   0.080
    1UNL    H25   54  -0.098   0.398   0.210
    1UNL    H26   55  -0.170   0.433   0.052
   0.00000   0.00000   0.00000   0.00000   0.00000   0.00000   0.00000   0.00000   0.00000
Generated with MDTraj, t= 30.0
 55
    1UNL     C1    1  -0.310  -0.376  -0.142
    1UNL     C2    2  -0.283  -0.241  -0.102
    1UNL     C3    3  -0.185  -0.188  -0.023
    1UNL     C4    4  -0.097  -0.274   0.059
    1UNL     N1    5   0.044  -0.215   0.053
    1UNL     C5    6   0.105  -0.230  -0.078
    1UNL     C6    7   0.078  -0.102  -0.155
    1UNL     C7    8   0.053   0.007  -0.049
    1UNL     C8    9   0.165   0.110  -0.037
    1UNL     C9   10   0.208   0.226  -0.101
    1UNL    C10   11   0.317   0.308  -0.064
    1UNL    C11   12   0.383   0.269   0.055
    1UNL    C12   13   0.348   0.153   0.120
    1UNL    C13   14   0.243   0.077   0.077
    1UNL     N2   15   0.201  -0.045   0.134
    1UNL    C14   16   0.247  -0.114   0.243
    1UNL     O1   17   0.177  -0.167   0.324
    1UNL    C15   18   0.065  -0.074   0.091
    1UNL    C16   19  -0.028  -0.032   0.209
    1UNL     O2   20   0.012   0.092   0.266
    1UNL    C17   21  -0.175  -0.019   0.166
    1UNL    C18   22  -0.196  -0.040   0.013
    1UNL    C19   23  -0.101   0.057  -0.063
    1UNL    C20   24  -0.149   0.075  -0.210
    1UNL     O3   25  -0.174  -0.045  -0.280
    1UNL    C21   26  -0.129   0.197  -0.000
    1UNL     O4   27  -0.243   0.241   0.005
    1UNL     O5   28  -0.022   0.277   0.043
    1UNL    C22   29  -0.056   0.403   0.102
    1UNL     H1   30  -0.398  -0.422  -0.099
    1UNL     H2   31  -0.324  -0.389  -0.258
    1UNL     H3   32  -0.237  -0.454  -0.113
    1UNL     H4   33  -0.355  -0.165  -0.125
    1UNL     H5   34  -0.100  -0.380   0.030
    1UNL     H6   35  -0.109  -0.271   0.169
    1UNL     H7   36   0.209  -0.247  -0.060
    1UNL     H8   37   0.065  -0.317  -0.127
    1UNL     H9   38   0.155  -0.085  -0.234
    1UNL    H10   39  -0.020  -0.115  -0.210
    1UNL    H11   40   0.142   0.265  -0.181
    1UNL    H12   41   0.337   0.407  -0.111
    1UNL    H13   42   0.461   0.334   0.094
    1UNL    H14   43   0.387   0.136   0.219
    1UNL    H15   44   0.350  -0.098   0.261
    1UNL    H16   45  -0.003  -0.095   0.295
    1UNL    H17   46   0.012   0.158   0.193
    1UNL    H18   47  -0.223   0.079   0.190
    1UNL    H19   48  -0.241  -0.094   0.215
    1UNL    H20   49  -0.295  -0.016  -0.024
    1UNL    H21   50  -0.075   0.140  -0.264
    1UNL    H22   51  -0.235   0.150  -0.196
    1UNL    H23   52  -0.227  -0.026  -0.361
    1UNL    H24   53   0.006   0.427   0.193
    1UNL    H25   54  -0.159   0.385   0.140
    1UNL    H26   55  -0.044   0.473   0.026
   0.00000   0.00000   0.00000   0.00000   0.00000   0.00000   0.00000   0.00000   0.00000
Generated with MDTraj, t= 31.0
 55
    1UNL     C1    1  -0.218  -0.355  -0.189
    1UNL     C2    2  -0.245  -0.223  -0.126
    1UNL     C3    3  -0.190  -0.177  -0.008
    1UNL     C4    4  -0.103  -0.269   0.069
    1UNL     N1    5   0.039  -0.221   0.062
    1UNL     C5    6   0.108  -0.233  -0.072
    1UNL     C6    7   0.071  -0.100  -0.139
    1UNL     C7    8   0.036   0.003  -0.031
    1UNL     C8    9   0.146   0.107  -0.027
    1UNL     C9   10   0.178   0.204  -0.120
    1UNL    C10   11   0.292   0.278  -0.103
    1UNL    C11   12   0.385   0.239  -0.002
    1UNL    C12   13   0.355   0.145   0.094
    1UNL    C13   14   0.232   0.072   0.081
    1UNL     N2   15   0.187  -0.044   0.149
    1UNL    C14   16   0.234  -0.096   0.270
    1UNL     O1   17   0.207  -0.200   0.326
    1UNL    C15   18   0.051  -0.073   0.104
    1UNL    C16   19  -0.046  -0.023   0.218
    1UNL     O2   20  -0.002   0.094   0.279
    1UNL    C17   21  -0.190  -0.016   0.173
    1UNL    C18   22  -0.210  -0.032   0.019
    1UNL    C19   23  -0.107   0.064  -0.053
    1UNL    C20   24  -0.145   0.092  -0.203
    1UNL     O3   25  -0.172  -0.026  -0.280
    1UNL    C21   26  -0.120   0.201   0.010
    1UNL     O4   27  -0.235   0.237   0.019
    1UNL     O5   28  -0.018   0.278   0.051
    1UNL    C22   29  -0.053   0.402   0.092
    1UNL     H1   30  -0.269  -0.434  -0.134
    1UNL     H2   31  -0.256  -0.351  -0.296
    1UNL     H3   32  -0.108  -0.381  -0.175
    1UNL     H4   33  -0.312  -0.147  -0.168
    1UNL     H5   34  -0.085  -0.363   0.028
    1UNL     H6   35  -0.141  -0.275   0.174
    1UNL     H7   36   0.213  -0.249  -0.053
    1UNL     H8   37   0.074  -0.320  -0.125
    1UNL     H9   38   0.143  -0.061  -0.216
    1UNL    H10   39  -0.024  -0.123  -0.198
    1UNL    H11   40   0.108   0.222  -0.197
    1UNL    H12   41   0.333   0.342  -0.178
    1UNL    H13   42   0.485   0.280   0.009
    1UNL    H14   43   0.420   0.132   0.177
    1UNL    H15   44   0.314  -0.048   0.325
    1UNL    H16   45  -0.030  -0.095   0.300
    1UNL    H17   46   0.007   0.167   0.215
    1UNL    H18   47  -0.241   0.081   0.194
    1UNL    H19   48  -0.253  -0.088   0.224
    1UNL    H20   49  -0.309  -0.003  -0.016
    1UNL    H21   50  -0.063   0.153  -0.249
    1UNL    H22   51  -0.234   0.162  -0.209
    1UNL    H23   52  -0.228  -0.011  -0.361
    1UNL    H24   53   0.038   0.455   0.117
    1UNL    H25   54  -0.113   0.390   0.186
    1UNL    H26   55  -0.095   0.452   0.003
   0.00000   0.00000   0.00000   0.00000   0.00000   0.00000   0.00000   0.00000   0.00000
Generated with MDTraj, t= 32.0
 55
    1UNL     C1    1  -0.194  -0.361  -0.194
    1UNL     C2    2  -0.226  -0.227  -0.140
    1UNL     C3    3  -0.189  -0.183  -0.014
    1UNL     C4    4  -0.111  -0.265   0.072
    1UNL     N1    5   0.030  -0.208   0.082
    1UNL     C5    6   0.104  -0.224  -0.045
    1UNL     C6    7   0.070  -0.102  -0.128
    1UNL     C7    8   0.028   0.012  -0.033
    1UNL     C8    9   0.150   0.110  -0.033
    1UNL     C9   10   0.185   0.199  -0.136
    1UNL    C10   11   0.315   0.247  -0.130
    1UNL    C11   12   0.403   0.218  -0.027
    1UNL    C12   13   0.362   0.128   0.068
    1UNL    C13   14   0.237   0.072   0.065
    1UNL     N2   15   0.182  -0.031   0.149
    1UNL    C14   16   0.248  -0.113   0.239
    1UNL     O1   17   0.207  -0.202   0.310
    1UNL    C15   18   0.040  -0.056   0.110
    1UNL    C16   19  -0.059  -0.014   0.232
    1UNL     O2   20  -0.037   0.110   0.288
    1UNL    C17   21  -0.206  -0.027   0.181
    1UNL    C18   22  -0.215  -0.040   0.021
    1UNL    C19   23  -0.116   0.064  -0.046
    1UNL    C20   24  -0.152   0.101  -0.184
    1UNL     O3   25  -0.101   0.011  -0.280
    1UNL    C21   26  -0.139   0.199   0.024
    1UNL     O4   27  -0.255   0.232   0.033
    1UNL     O5   28  -0.032   0.272   0.069
    1UNL    C22   29  -0.065   0.405   0.105
    1UNL     H1   30  -0.134  -0.431  -0.126
    1UNL     H2   31  -0.292  -0.409  -0.218
    1UNL     H3   32  -0.119  -0.348  -0.279
    1UNL     H4   33  -0.274  -0.144  -0.194
    1UNL     H5   34  -0.104  -0.359   0.034
    1UNL     H6   35  -0.152  -0.262   0.179
    1UNL     H7   36   0.211  -0.223  -0.014
    1UNL     H8   37   0.086  -0.321  -0.088
    1UNL     H9   38   0.157  -0.070  -0.192
    1UNL    H10   39  -0.009  -0.132  -0.201
    1UNL    H11   40   0.123   0.199  -0.226
    1UNL    H12   41   0.345   0.295  -0.221
    1UNL    H13   42   0.506   0.250  -0.048
    1UNL    H14   43   0.426   0.092   0.151
    1UNL    H15   44   0.361  -0.099   0.231
    1UNL    H16   45  -0.042  -0.079   0.320
    1UNL    H17   46  -0.038   0.180   0.219
    1UNL    H18   47  -0.255   0.072   0.197
    1UNL    H19   48  -0.272  -0.096   0.228
    1UNL    H20   49  -0.315  -0.015  -0.012
    1UNL    H21   50  -0.113   0.200  -0.216
    1UNL    H22   51  -0.261   0.103  -0.204
    1UNL    H23   52  -0.151   0.010  -0.364
    1UNL    H24   53  -0.052   0.479   0.029
    1UNL    H25   54  -0.024   0.424   0.203
    1UNL    H26   55  -0.179   0.404   0.121
   0.00000   0.00000   0.00000   0.00000   0.00000   0.00000   0.00000   0.00000   0.00000
Generated with MDTraj, t= 33.0
 55
    1UNL     C1    1  -0.227  -0.359  -0.191
    1UNL     C2    2  -0.243  -0.230  -0.138
    1UNL     C3    3  -0.194  -0.175  -0.020
    1UNL     C4    4  -0.104  -0.264   0.065
    1UNL     N1    5   0.034  -0.211   0.078
    1UNL     C5    6   0.121  -0.215  -0.041
    1UNL     C6    7   0.077  -0.103  -0.132
    1UNL     C7    8   0.034   0.007  -0.028
    1UNL     C8    9   0.143   0.108  -0.037
    1UNL     C9   10   0.189   0.195  -0.135
    1UNL    C10   11   0.325   0.241  -0.133
    1UNL    C11   12   0.404   0.204  -0.025
    1UNL    C12   13   0.358   0.127   0.079
    1UNL    C13   14   0.230   0.074   0.072
    1UNL     N2   15   0.180  -0.033   0.153
    1UNL    C14   16   0.240  -0.097   0.261
    1UNL     O1   17   0.216  -0.206   0.303
    1UNL    C15   18   0.044  -0.068   0.118
    1UNL    C16   19  -0.054  -0.018   0.227
    1UNL     O2   20  -0.005   0.101   0.290
    1UNL    C17   21  -0.201  -0.014   0.179
    1UNL    C18   22  -0.214  -0.034   0.020
    1UNL    C19   23  -0.114   0.067  -0.047
    1UNL    C20   24  -0.150   0.100  -0.193
    1UNL     O3   25  -0.095   0.016  -0.287
    1UNL    C21   26  -0.145   0.202   0.015
    1UNL     O4   27  -0.262   0.218   0.045
    1UNL     O5   28  -0.043   0.295   0.034
    1UNL    C22   29  -0.091   0.394   0.117
    1UNL     H1   30  -0.140  -0.426  -0.142
    1UNL     H2   31  -0.316  -0.421  -0.181
    1UNL     H3   32  -0.183  -0.366  -0.297
    1UNL     H4   33  -0.286  -0.157  -0.203
    1UNL     H5   34  -0.096  -0.369   0.047
    1UNL     H6   35  -0.130  -0.250   0.174
    1UNL     H7   36   0.225  -0.200  -0.001
    1UNL     H8   37   0.112  -0.316  -0.079
    1UNL     H9   38   0.167  -0.070  -0.193
    1UNL    H10   39  -0.002  -0.136  -0.198
    1UNL    H11   40   0.119   0.218  -0.214
    1UNL    H12   41   0.367   0.310  -0.209
    1UNL    H13   42   0.500   0.246  -0.009
    1UNL    H14   43   0.426   0.097   0.153
    1UNL    H15   44   0.311  -0.050   0.316
    1UNL    H16   45  -0.055  -0.087   0.315
    1UNL    H17   46  -0.007   0.169   0.220
    1UNL    H18   47  -0.245   0.085   0.195
    1UNL    H19   48  -0.259  -0.084   0.232
    1UNL    H20   49  -0.314  -0.013  -0.012
    1UNL    H21   50  -0.113   0.203  -0.218
    1UNL    H22   51  -0.258   0.106  -0.214
    1UNL    H23   52  -0.125   0.037  -0.378
    1UNL    H24   53  -0.198   0.408   0.110
    1UNL    H25   54  -0.029   0.477   0.113
    1UNL    H26   55  -0.062   0.368   0.226
   0.00000   0.00000   0.00000   0.00000   0.00000   0.00000   0.00000   0.00000   0.00000
Generated with MDTraj, t= 34.0
 55
    1UNL     C1    1  -0.256  -0.373  -0.183
    1UNL     C2    2  -0.265  -0.237  -0.136
    1UNL     C3    3  -0.196  -0.186  -0.024
    1UNL     C4    4  -0.104  -0.265   0.058
    1UNL     N1    5   0.044  -0.220   0.066
    1UNL     C5    6   0.113  -0.228  -0.067
    1UNL     C6    7   0.079  -0.097  -0.143
    1UNL     C7    8   0.040   0.010  -0.035
    1UNL     C8    9   0.159   0.108  -0.031
    1UNL     C9   10   0.192   0.207  -0.115
    1UNL    C10   11   0.311   0.271  -0.105
    1UNL    C11   12   0.395   0.243   0.004
    1UNL    C12   13   0.360   0.141   0.097
    1UNL    C13   14   0.242   0.071   0.078
    1UNL     N2   15   0.192  -0.046   0.144
    1UNL    C14   16   0.242  -0.112   0.255
    1UNL     O1   17   0.197  -0.184   0.341
    1UNL    C15   18   0.050  -0.070   0.098
    1UNL    C16   19  -0.043  -0.031   0.220
    1UNL     O2   20  -0.010   0.094   0.290
    1UNL    C17   21  -0.193  -0.022   0.177
    1UNL    C18   22  -0.207  -0.036   0.021
    1UNL    C19   23  -0.106   0.064  -0.048
    1UNL    C20   24  -0.139   0.098  -0.193
    1UNL     O3   25  -0.160  -0.010  -0.277
    1UNL    C21   26  -0.126   0.202   0.018
    1UNL     O4   27  -0.243   0.228   0.021
    1UNL     O5   28  -0.022   0.284   0.047
    1UNL    C22   29  -0.076   0.411   0.081
    1UNL     H1   30  -0.166  -0.385  -0.250
    1UNL     H2   31  -0.249  -0.440  -0.094
    1UNL     H3   32  -0.343  -0.402  -0.254
    1UNL     H4   33  -0.313  -0.156  -0.196
    1UNL     H5   34  -0.079  -0.356  -0.000
    1UNL     H6   35  -0.139  -0.299   0.158
    1UNL     H7   36   0.222  -0.248  -0.040
    1UNL     H8   37   0.077  -0.319  -0.116
    1UNL     H9   38   0.172  -0.056  -0.195
    1UNL    H10   39   0.006  -0.114  -0.222
    1UNL    H11   40   0.128   0.245  -0.191
    1UNL    H12   41   0.328   0.356  -0.163
    1UNL    H13   42   0.475   0.313   0.037
    1UNL    H14   43   0.426   0.115   0.183
    1UNL    H15   44   0.351  -0.075   0.273
    1UNL    H16   45  -0.031  -0.104   0.303
    1UNL    H17   46  -0.016   0.165   0.221
    1UNL    H18   47  -0.233   0.072   0.207
    1UNL    H19   48  -0.247  -0.101   0.223
    1UNL    H20   49  -0.304   0.005  -0.000
    1UNL    H21   50  -0.060   0.163  -0.231
    1UNL    H22   51  -0.222   0.168  -0.183
    1UNL    H23   52  -0.159   0.023  -0.370
    1UNL    H24   53  -0.143   0.414   0.165
    1UNL    H25   54  -0.133   0.446   0.006
    1UNL    H26   55   0.009   0.486   0.091
   0.00000   0.00000   0.00000   0.00000   0.00000   0.00000   0.00000   0.00000   0.00000
Generated with MDTraj, t= 35.0
 55
    1UNL     C1    1  -0.287  -0.375  -0.153
    1UNL     C2    2  -0.280  -0.240  -0.108
    1UNL     C3    3  -0.189  -0.190  -0.018
    1UNL     C4    4  -0.094  -0.279   0.053
    1UNL     N1    5   0.046  -0.217   0.047
    1UNL     C5    6   0.114  -0.222  -0.090
    1UNL     C6    7   0.083  -0.098  -0.167
    1UNL     C7    8   0.057   0.007  -0.052
    1UNL     C8    9   0.170   0.108  -0.032
    1UNL     C9   10   0.199   0.230  -0.100
    1UNL    C10   11   0.307   0.308  -0.053
    1UNL    C11   12   0.378   0.267   0.056
    1UNL    C12   13   0.352   0.148   0.118
    1UNL    C13   14   0.248   0.069   0.074
    1UNL     N2   15   0.195  -0.048   0.142
    1UNL    C14   16   0.232  -0.102   0.267
    1UNL     O1   17   0.176  -0.196   0.319
    1UNL    C15   18   0.062  -0.072   0.093
    1UNL    C16   19  -0.035  -0.018   0.207
    1UNL     O2   20  -0.002   0.110   0.264
    1UNL    C17   21  -0.185  -0.022   0.170
    1UNL    C18   22  -0.199  -0.039   0.020
    1UNL    C19   23  -0.099   0.062  -0.059
    1UNL    C20   24  -0.153   0.074  -0.210
    1UNL     O3   25  -0.204  -0.045  -0.264
    1UNL    C21   26  -0.120   0.201  -0.003
    1UNL     O4   27  -0.234   0.242   0.003
    1UNL     O5   28  -0.008   0.271   0.046
    1UNL    C22   29  -0.041   0.401   0.090
    1UNL     H1   30  -0.199  -0.397  -0.207
    1UNL     H2   31  -0.293  -0.446  -0.060
    1UNL     H3   32  -0.377  -0.385  -0.227
    1UNL     H4   33  -0.337  -0.159  -0.146
    1UNL     H5   34  -0.083  -0.390   0.024
    1UNL     H6   35  -0.116  -0.276   0.160
    1UNL     H7   36   0.224  -0.242  -0.068
    1UNL     H8   37   0.072  -0.313  -0.138
    1UNL     H9   38   0.163  -0.068  -0.240
    1UNL    H10   39  -0.011  -0.114  -0.223
    1UNL    H11   40   0.129   0.266  -0.177
    1UNL    H12   41   0.332   0.404  -0.108
    1UNL    H13   42   0.463   0.325   0.078
    1UNL    H14   43   0.402   0.110   0.204
    1UNL    H15   44   0.303  -0.061   0.331
    1UNL    H16   45  -0.029  -0.088   0.292
    1UNL    H17   46   0.011   0.177   0.195
    1UNL    H18   47  -0.225   0.067   0.205
    1UNL    H19   48  -0.238  -0.103   0.217
    1UNL    H20   49  -0.299  -0.007  -0.003
    1UNL    H21   50  -0.067   0.108  -0.266
    1UNL    H22   51  -0.221   0.155  -0.214
    1UNL    H23   52  -0.208  -0.041  -0.363
    1UNL    H24   53  -0.016   0.421   0.193
    1UNL    H25   54  -0.138   0.418   0.091
    1UNL    H26   55   0.024   0.469   0.025
   0.00000   0.00000   0.00000   0.00000   0.00000   0.00000   0.00000   0.00000   0.00000
Generated with MDTraj, t= 36.0
 55
    1UNL     C1    1  -0.310  -0.378  -0.103
    1UNL     C2    2  -0.281  -0.237  -0.096
    1UNL     C3    3  -0.193  -0.174  -0.016
    1UNL     C4    4  -0.099  -0.264   0.066
    1UNL     N1    5   0.041  -0.221   0.054
    1UNL     C5    6   0.099  -0.232  -0.088
    1UNL     C6    7   0.093  -0.096  -0.150
    1UNL     C7    8   0.050   0.012  -0.047
    1UNL     C8    9   0.157   0.111  -0.023
    1UNL     C9   10   0.188   0.225  -0.097
    1UNL    C10   11   0.294   0.304  -0.060
    1UNL    C11   12   0.373   0.265   0.048
    1UNL    C12   13   0.342   0.158   0.126
    1UNL    C13   14   0.241   0.072   0.083
    1UNL     N2   15   0.194  -0.050   0.140
    1UNL    C14   16   0.248  -0.128   0.242
    1UNL     O1   17   0.206  -0.224   0.305
    1UNL    C15   18   0.057  -0.077   0.086
    1UNL    C16   19  -0.035  -0.034   0.209
    1UNL     O2   20   0.016   0.083   0.276
    1UNL    C17   21  -0.179  -0.001   0.157
    1UNL    C18   22  -0.198  -0.028   0.007
    1UNL    C19   23  -0.096   0.070  -0.071
    1UNL    C20   24  -0.129   0.081  -0.226
    1UNL     O3   25  -0.131  -0.041  -0.298
    1UNL    C21   26  -0.128   0.213  -0.005
    1UNL     O4   27  -0.243   0.248  -0.013
    1UNL     O5   28  -0.032   0.285   0.060
    1UNL    C22   29  -0.077   0.406   0.102
    1UNL     H1   30  -0.224  -0.429  -0.140
    1UNL     H2   31  -0.326  -0.419   0.005
    1UNL     H3   32  -0.394  -0.411  -0.175
    1UNL     H4   33  -0.337  -0.160  -0.152
    1UNL     H5   34  -0.097  -0.377   0.035
    1UNL     H6   35  -0.123  -0.260   0.172
    1UNL     H7   36   0.209  -0.264  -0.078
    1UNL     H8   37   0.048  -0.315  -0.143
    1UNL     H9   38   0.190  -0.076  -0.201
    1UNL    H10   39   0.015  -0.096  -0.230
    1UNL    H11   40   0.125   0.245  -0.179
    1UNL    H12   41   0.329   0.379  -0.122
    1UNL    H13   42   0.475   0.307   0.067
    1UNL    H14   43   0.393   0.133   0.218
    1UNL    H15   44   0.350  -0.095   0.261
    1UNL    H16   45  -0.035  -0.117   0.279
    1UNL    H17   46   0.025   0.155   0.208
    1UNL    H18   47  -0.198   0.098   0.174
    1UNL    H19   48  -0.249  -0.051   0.220
    1UNL    H20   49  -0.299  -0.006  -0.023
    1UNL    H21   50  -0.060   0.151  -0.271
    1UNL    H22   51  -0.227   0.116  -0.239
    1UNL    H23   52  -0.163  -0.032  -0.390
    1UNL    H24   53   0.003   0.483   0.103
    1UNL    H25   54  -0.101   0.400   0.200
    1UNL    H26   55  -0.153   0.446   0.028
   0.00000   0.00000   0.00000   0.00000   0.00000   0.00000   0.00000   0.00000   0.00000
Generated with MDTraj, t= 37.0
 55
    1UNL     C1    1  -0.332  -0.369  -0.144
    1UNL     C2    2  -0.304  -0.228  -0.094
    1UNL     C3    3  -0.204  -0.183  -0.019
    1UNL     C4    4  -0.110  -0.261   0.056
    1UNL     N1    5   0.032  -0.209   0.078
    1UNL     C5    6   0.114  -0.232  -0.043
    1UNL     C6    7   0.095  -0.102  -0.125
    1UNL     C7    8   0.045   0.012  -0.029
    1UNL     C8    9   0.158   0.126  -0.011
    1UNL     C9   10   0.187   0.238  -0.085
    1UNL    C10   11   0.306   0.303  -0.066
    1UNL    C11   12   0.402   0.258   0.028
    1UNL    C12   13   0.367   0.149   0.109
    1UNL    C13   14   0.251   0.077   0.085
    1UNL     N2   15   0.199  -0.040   0.150
    1UNL    C14   16   0.271  -0.133   0.225
    1UNL     O1   17   0.241  -0.242   0.259
    1UNL    C15   18   0.057  -0.062   0.106
    1UNL    C16   19  -0.044  -0.020   0.216
    1UNL     O2   20  -0.009   0.104   0.276
    1UNL    C17   21  -0.191  -0.023   0.162
    1UNL    C18   22  -0.203  -0.032   0.011
    1UNL    C19   23  -0.101   0.063  -0.064
    1UNL    C20   24  -0.123   0.070  -0.218
    1UNL     O3   25  -0.118  -0.054  -0.291
    1UNL    C21   26  -0.136   0.212  -0.012
    1UNL     O4   27  -0.240   0.262  -0.050
    1UNL     O5   28  -0.047   0.272   0.069
    1UNL    C22   29  -0.092   0.397   0.108
    1UNL     H1   30  -0.250  -0.396  -0.216
    1UNL     H2   31  -0.322  -0.439  -0.057
    1UNL     H3   32  -0.427  -0.379  -0.205
    1UNL     H4   33  -0.363  -0.146  -0.119
    1UNL     H5   34  -0.091  -0.360  -0.003
    1UNL     H6   35  -0.142  -0.291   0.157
    1UNL     H7   36   0.220  -0.248  -0.003
    1UNL     H8   37   0.086  -0.322  -0.105
    1UNL     H9   38   0.194  -0.062  -0.157
    1UNL    H10   39   0.028  -0.127  -0.210
    1UNL    H11   40   0.124   0.274  -0.167
    1UNL    H12   41   0.335   0.396  -0.122
    1UNL    H13   42   0.495   0.306   0.038
    1UNL    H14   43   0.437   0.120   0.190
    1UNL    H15   44   0.376  -0.113   0.264
    1UNL    H16   45  -0.024  -0.093   0.294
    1UNL    H17   46  -0.015   0.167   0.200
    1UNL    H18   47  -0.240   0.061   0.199
    1UNL    H19   48  -0.247  -0.100   0.203
    1UNL    H20   49  -0.301  -0.005  -0.023
    1UNL    H21   50  -0.051   0.133  -0.272
    1UNL    H22   51  -0.220   0.105  -0.233
    1UNL    H23   52  -0.179  -0.051  -0.368
    1UNL    H24   53  -0.129   0.456   0.022
    1UNL    H25   54  -0.016   0.451   0.157
    1UNL    H26   55  -0.178   0.379   0.178
   0.00000   0.00000   0.00000   0.00000   0.00000   0.00000   0.00000   0.00000   0.00000
Generated with MDTraj, t= 38.0
 55
    1UNL     C1    1  -0.269  -0.364  -0.153
    1UNL     C2    2  -0.288  -0.226  -0.092
    1UNL     C3    3  -0.196  -0.172  -0.012
    1UNL     C4    4  -0.106  -0.256   0.071
    1UNL     N1    5   0.036  -0.214   0.065
    1UNL     C5    6   0.100  -0.225  -0.065
    1UNL     C6    7   0.098  -0.087  -0.134
    1UNL     C7    8   0.045   0.015  -0.025
    1UNL     C8    9   0.150   0.123  -0.005
    1UNL     C9   10   0.193   0.224  -0.092
    1UNL    C10   11   0.325   0.281  -0.077
    1UNL    C11   12   0.397   0.249   0.032
    1UNL    C12   13   0.351   0.157   0.123
    1UNL    C13   14   0.236   0.084   0.101
    1UNL     N2   15   0.197  -0.045   0.154
    1UNL    C14   16   0.270  -0.139   0.225
    1UNL     O1   17   0.237  -0.254   0.243
    1UNL    C15   18   0.056  -0.074   0.113
    1UNL    C16   19  -0.046  -0.031   0.223
    1UNL     O2   20   0.003   0.085   0.286
    1UNL    C17   21  -0.192  -0.004   0.168
    1UNL    C18   22  -0.206  -0.021   0.018
    1UNL    C19   23  -0.106   0.071  -0.058
    1UNL    C20   24  -0.138   0.068  -0.216
    1UNL     O3   25  -0.149  -0.063  -0.275
    1UNL    C21   26  -0.138   0.214  -0.022
    1UNL     O4   27  -0.239   0.271  -0.060
    1UNL     O5   28  -0.052   0.276   0.066
    1UNL    C22   29  -0.096   0.410   0.089
    1UNL     H1   30  -0.155  -0.366  -0.185
    1UNL     H2   31  -0.279  -0.436  -0.074
    1UNL     H3   32  -0.323  -0.384  -0.249
    1UNL     H4   33  -0.372  -0.165  -0.128
    1UNL     H5   34  -0.100  -0.370   0.071
    1UNL     H6   35  -0.122  -0.235   0.179
    1UNL     H7   36   0.207  -0.255  -0.048
    1UNL     H8   37   0.054  -0.310  -0.122
    1UNL     H9   38   0.204  -0.058  -0.160
    1UNL    H10   39   0.038  -0.085  -0.222
    1UNL    H11   40   0.130   0.249  -0.175
    1UNL    H12   41   0.349   0.363  -0.138
    1UNL    H13   42   0.483   0.312   0.060
    1UNL    H14   43   0.408   0.130   0.204
    1UNL    H15   44   0.350  -0.100   0.273
    1UNL    H16   45  -0.040  -0.104   0.303
    1UNL    H17   46  -0.006   0.154   0.217
    1UNL    H18   47  -0.230   0.091   0.190
    1UNL    H19   48  -0.253  -0.074   0.209
    1UNL    H20   49  -0.305  -0.003  -0.025
    1UNL    H21   50  -0.050   0.113  -0.270
    1UNL    H22   51  -0.225   0.129  -0.237
    1UNL    H23   52  -0.223  -0.067  -0.342
    1UNL    H24   53  -0.188   0.433   0.035
    1UNL    H25   54  -0.022   0.489   0.061
    1UNL    H26   55  -0.100   0.425   0.200
   0.00000   0.00000   0.00000   0.00000   0.00000   0.00000   0.00000   0.00000   0.00000
Generated with MDTraj, t= 39.0
 55
    1UNL     C1    1  -0.263  -0.374  -0.138
    1UNL     C2    2  -0.253  -0.228  -0.116
    1UNL     C3    3  -0.191  -0.172  -0.016
    1UNL     C4    4  -0.108  -0.252   0.084
    1UNL     N1    5   0.037  -0.218   0.074
    1UNL     C5    6   0.101  -0.232  -0.061
    1UNL     C6    7   0.090  -0.099  -0.136
    1UNL     C7    8   0.042   0.016  -0.039
    1UNL     C8    9   0.155   0.113  -0.023
    1UNL     C9   10   0.177   0.231  -0.088
    1UNL    C10   11   0.294   0.298  -0.058
    1UNL    C11   12   0.378   0.260   0.044
    1UNL    C12   13   0.355   0.144   0.118
    1UNL    C13   14   0.241   0.071   0.080
    1UNL     N2   15   0.194  -0.049   0.133
    1UNL    C14   16   0.260  -0.142   0.220
    1UNL     O1   17   0.210  -0.234   0.281
    1UNL    C15   18   0.055  -0.071   0.094
    1UNL    C16   19  -0.038  -0.029   0.214
    1UNL     O2   20  -0.002   0.090   0.274
    1UNL    C17   21  -0.186  -0.004   0.172
    1UNL    C18   22  -0.209  -0.020   0.017
    1UNL    C19   23  -0.106   0.070  -0.066
    1UNL    C20   24  -0.153   0.073  -0.214
    1UNL     O3   25  -0.155  -0.047  -0.283
    1UNL    C21   26  -0.126   0.215  -0.010
    1UNL     O4   27  -0.231   0.269  -0.040
    1UNL     O5   28  -0.031   0.265   0.066
    1UNL    C22   29  -0.068   0.399   0.091
    1UNL     H1   30  -0.165  -0.414  -0.183
    1UNL     H2   31  -0.272  -0.425  -0.044
    1UNL     H3   32  -0.339  -0.415  -0.209
    1UNL     H4   33  -0.300  -0.161  -0.181
    1UNL     H5   34  -0.112  -0.358   0.053
    1UNL     H6   35  -0.126  -0.241   0.196
    1UNL     H7   36   0.200  -0.280  -0.054
    1UNL     H8   37   0.044  -0.304  -0.125
    1UNL     H9   38   0.186  -0.073  -0.186
    1UNL    H10   39   0.011  -0.109  -0.212
    1UNL    H11   40   0.105   0.272  -0.157
    1UNL    H12   41   0.314   0.392  -0.113
    1UNL    H13   42   0.460   0.318   0.076
    1UNL    H14   43   0.426   0.105   0.197
    1UNL    H15   44   0.369  -0.116   0.252
    1UNL    H16   45  -0.032  -0.101   0.297
    1UNL    H17   46  -0.003   0.167   0.209
    1UNL    H18   47  -0.213   0.095   0.198
    1UNL    H19   48  -0.246  -0.071   0.221
    1UNL    H20   49  -0.311   0.003  -0.013
    1UNL    H21   50  -0.084   0.153  -0.256
    1UNL    H22   51  -0.252   0.119  -0.210
    1UNL    H23   52  -0.126  -0.035  -0.376
    1UNL    H24   53  -0.170   0.400   0.122
    1UNL    H25   54  -0.080   0.465  -0.005
    1UNL    H26   55   0.007   0.455   0.153
   0.00000   0.00000   0.00000   0.00000   0.00000   0.00000   0.00000   0.00000   0.00000
Generated with MDTraj, t= 40.0
 55
    1UNL     C1    1  -0.296  -0.353  -0.164
    1UNL     C2    2  -0.279  -0.221  -0.112
    1UNL     C3    3  -0.197  -0.181  -0.023
    1UNL     C4    4  -0.108  -0.268   0.063
    1UNL     N1    5   0.040  -0.222   0.067
    1UNL     C5    6   0.119  -0.231  -0.060
    1UNL     C6    7   0.093  -0.110  -0.146
    1UNL     C7    8   0.053  -0.001  -0.044
    1UNL     C8    9   0.164   0.101  -0.035
    1UNL     C9   10   0.187   0.216  -0.105
    1UNL    C10   11   0.288   0.298  -0.073
    1UNL    C11   12   0.373   0.267   0.039
    1UNL    C12   13   0.348   0.150   0.111
    1UNL    C13   14   0.243   0.069   0.073
    1UNL     N2   15   0.201  -0.047   0.140
    1UNL    C14   16   0.245  -0.096   0.261
    1UNL     O1   17   0.201  -0.199   0.306
    1UNL    C15   18   0.057  -0.078   0.102
    1UNL    C16   19  -0.039  -0.020   0.205
    1UNL     O2   20   0.005   0.097   0.267
    1UNL    C17   21  -0.191  -0.024   0.167
    1UNL    C18   22  -0.201  -0.031   0.009
    1UNL    C19   23  -0.091   0.064  -0.059
    1UNL    C20   24  -0.135   0.083  -0.210
    1UNL     O3   25  -0.161  -0.034  -0.278
    1UNL    C21   26  -0.117   0.200   0.002
    1UNL     O4   27  -0.231   0.245  -0.007
    1UNL     O5   28  -0.018   0.268   0.069
    1UNL    C22   29  -0.072   0.389   0.105
    1UNL     H1   30  -0.201  -0.392  -0.192
    1UNL     H2   31  -0.341  -0.419  -0.085
    1UNL     H3   32  -0.360  -0.354  -0.256
    1UNL     H4   33  -0.344  -0.144  -0.158
    1UNL     H5   34  -0.094  -0.367   0.020
    1UNL     H6   35  -0.159  -0.269   0.166
    1UNL     H7   36   0.224  -0.251  -0.039
    1UNL     H8   37   0.086  -0.320  -0.118
    1UNL     H9   38   0.181  -0.073  -0.202
    1UNL    H10   39   0.006  -0.125  -0.217
    1UNL    H11   40   0.122   0.252  -0.185
    1UNL    H12   41   0.321   0.374  -0.140
    1UNL    H13   42   0.466   0.324   0.048
    1UNL    H14   43   0.411   0.123   0.190
    1UNL    H15   44   0.320  -0.045   0.313
    1UNL    H16   45  -0.028  -0.100   0.281
    1UNL    H17   46   0.004   0.175   0.211
    1UNL    H18   47  -0.234   0.068   0.192
    1UNL    H19   48  -0.243  -0.106   0.213
    1UNL    H20   49  -0.306  -0.008  -0.016
    1UNL    H21   50  -0.057   0.140  -0.271
    1UNL    H22   51  -0.231   0.141  -0.212
    1UNL    H23   52  -0.188  -0.011  -0.370
    1UNL    H24   53  -0.052   0.408   0.205
    1UNL    H25   54  -0.189   0.403   0.098
    1UNL    H26   55  -0.022   0.459   0.035
   0.00000   0.00000   0.00000   0.00000   0.00000   0.00000   0.00000   0.00000   0.00000
Generated with MDTraj, t= 41.0
 55
    1UNL     C1    1  -0.281  -0.377  -0.165
    1UNL     C2    2  -0.284  -0.235  -0.112
    1UNL     C3    3  -0.197  -0.185  -0.030
    1UNL     C4    4  -0.095  -0.263   0.045
    1UNL     N1    5   0.044  -0.211   0.045
    1UNL     C5    6   0.119  -0.215  -0.080
    1UNL     C6    7   0.084  -0.086  -0.155
    1UNL     C7    8   0.042   0.015  -0.038
    1UNL     C8    9   0.154   0.107  -0.023
    1UNL     C9   10   0.204   0.194  -0.116
    1UNL    C10   11   0.321   0.261  -0.095
    1UNL    C11   12   0.391   0.248   0.023
    1UNL    C12   13   0.351   0.154   0.111
    1UNL    C13   14   0.238   0.076   0.084
    1UNL     N2   15   0.189  -0.043   0.141
    1UNL    C14   16   0.240  -0.093   0.261
    1UNL     O1   17   0.187  -0.164   0.344
    1UNL    C15   18   0.056  -0.075   0.095
    1UNL    C16   19  -0.046  -0.044   0.215
    1UNL     O2   20  -0.003   0.076   0.282
    1UNL    C17   21  -0.191  -0.025   0.169
    1UNL    C18   22  -0.204  -0.037   0.013
    1UNL    C19   23  -0.106   0.065  -0.060
    1UNL    C20   24  -0.140   0.098  -0.210
    1UNL     O3   25  -0.145  -0.022  -0.281
    1UNL    C21   26  -0.128   0.201   0.011
    1UNL     O4   27  -0.242   0.239   0.028
    1UNL     O5   28  -0.018   0.275   0.043
    1UNL    C22   29  -0.063   0.394   0.111
    1UNL     H1   30  -0.199  -0.384  -0.227
    1UNL     H2   31  -0.271  -0.441  -0.071
    1UNL     H3   32  -0.379  -0.400  -0.216
    1UNL     H4   33  -0.366  -0.180  -0.150
    1UNL     H5   34  -0.092  -0.362   0.005
    1UNL     H6   35  -0.114  -0.263   0.161
    1UNL     H7   36   0.222  -0.215  -0.054
    1UNL     H8   37   0.099  -0.309  -0.131
    1UNL     H9   38   0.174  -0.046  -0.208
    1UNL    H10   39   0.005  -0.097  -0.230
    1UNL    H11   40   0.141   0.196  -0.201
    1UNL    H12   41   0.363   0.321  -0.176
    1UNL    H13   42   0.481   0.306   0.029
    1UNL    H14   43   0.394   0.150   0.211
    1UNL    H15   44   0.346  -0.067   0.275
    1UNL    H16   45  -0.043  -0.125   0.291
    1UNL    H17   46  -0.008   0.150   0.217
    1UNL    H18   47  -0.224   0.072   0.189
    1UNL    H19   48  -0.264  -0.094   0.214
    1UNL    H20   49  -0.312  -0.008  -0.005
    1UNL    H21   50  -0.056   0.153  -0.266
    1UNL    H22   51  -0.237   0.154  -0.220
    1UNL    H23   52  -0.192  -0.006  -0.367
    1UNL    H24   53  -0.012   0.474   0.084
    1UNL    H25   54  -0.067   0.389   0.226
    1UNL    H26   55  -0.167   0.410   0.076
   0.00000   0.00000   0.00000   0.00000   0.00000   0.00000   0.00000   0.00000   0.00000
Generated with MDTraj, t= 42.0
 55
    1UNL     C1    1  -0.263  -0.397  -0.166
    1UNL     C2    2  -0.234  -0.247  -0.141
    1UNL     C3    3  -0.187  -0.191  -0.034
    1UNL     C4    4  -0.093  -0.262   0.062
    1UNL     N1    5   0.046  -0.204   0.062
    1UNL     C5    6   0.125  -0.212  -0.060
    1UNL     C6    7   0.070  -0.090  -0.133
    1UNL     C7    8   0.039   0.018  -0.029
    1UNL     C8    9   0.159   0.113  -0.028
    1UNL     C9   10   0.191   0.218  -0.113
    1UNL    C10   11   0.316   0.275  -0.096
    1UNL    C11   12   0.409   0.221  -0.007
    1UNL    C12   13   0.380   0.113   0.078
    1UNL    C13   14   0.250   0.063   0.067
    1UNL     N2   15   0.193  -0.037   0.151
    1UNL    C14   16   0.224  -0.094   0.274
    1UNL     O1   17   0.165  -0.190   0.314
    1UNL    C15   18   0.050  -0.063   0.105
    1UNL    C16   19  -0.055  -0.027   0.212
    1UNL     O2   20  -0.028   0.099   0.282
    1UNL    C17   21  -0.197  -0.030   0.160
    1UNL    C18   22  -0.206  -0.037   0.009
    1UNL    C19   23  -0.105   0.069  -0.051
    1UNL    C20   24  -0.141   0.106  -0.195
    1UNL     O3   25  -0.157  -0.007  -0.286
    1UNL    C21   26  -0.129   0.202   0.020
    1UNL     O4   27  -0.243   0.233   0.049
    1UNL     O5   28  -0.025   0.282   0.038
    1UNL    C22   29  -0.059   0.398   0.104
    1UNL     H1   30  -0.176  -0.453  -0.188
    1UNL     H2   31  -0.310  -0.439  -0.073
    1UNL     H3   32  -0.337  -0.422  -0.243
    1UNL     H4   33  -0.272  -0.186  -0.226
    1UNL     H5   34  -0.075  -0.364   0.036
    1UNL     H6   35  -0.133  -0.256   0.171
    1UNL     H7   36   0.227  -0.202  -0.030
    1UNL     H8   37   0.101  -0.304  -0.113
    1UNL     H9   38   0.144  -0.039  -0.203
    1UNL    H10   39  -0.022  -0.110  -0.184
    1UNL    H11   40   0.127   0.258  -0.192
    1UNL    H12   41   0.334   0.369  -0.149
    1UNL    H13   42   0.497   0.278   0.019
    1UNL    H14   43   0.445   0.087   0.163
    1UNL    H15   44   0.309  -0.057   0.339
    1UNL    H16   45  -0.046  -0.095   0.300
    1UNL    H17   46  -0.018   0.168   0.211
    1UNL    H18   47  -0.249   0.057   0.193
    1UNL    H19   48  -0.252  -0.120   0.194
    1UNL    H20   49  -0.308  -0.006  -0.029
    1UNL    H21   50  -0.068   0.186  -0.232
    1UNL    H22   51  -0.245   0.146  -0.198
    1UNL    H23   52  -0.212   0.023  -0.361
    1UNL    H24   53  -0.074   0.470   0.031
    1UNL    H25   54   0.025   0.429   0.168
    1UNL    H26   55  -0.145   0.374   0.165
   0.00000   0.00000   0.00000   0.00000   0.00000   0.00000   0.00000   0.00000   0.00000
Generated with MDTraj, t= 43.0
 55
    1UNL     C1    1  -0.217  -0.353  -0.200
    1UNL     C2    2  -0.249  -0.225  -0.132
    1UNL     C3    3  -0.195  -0.183  -0.025
    1UNL     C4    4  -0.116  -0.267   0.065
    1UNL     N1    5   0.027  -0.214   0.064
    1UNL     C5    6   0.105  -0.217  -0.066
    1UNL     C6    7   0.076  -0.094  -0.143
    1UNL     C7    8   0.037   0.008  -0.035
    1UNL     C8    9   0.156   0.105  -0.022
    1UNL     C9   10   0.200   0.195  -0.112
    1UNL    C10   11   0.328   0.252  -0.100
    1UNL    C11   12   0.406   0.226   0.008
    1UNL    C12   13   0.357   0.132   0.101
    1UNL    C13   14   0.237   0.069   0.083
    1UNL     N2   15   0.188  -0.048   0.144
    1UNL    C14   16   0.251  -0.113   0.250
    1UNL     O1   17   0.201  -0.198   0.320
    1UNL    C15   18   0.048  -0.068   0.102
    1UNL    C16   19  -0.046  -0.017   0.221
    1UNL     O2   20  -0.001   0.111   0.266
    1UNL    C17   21  -0.197  -0.008   0.181
    1UNL    C18   22  -0.218  -0.036   0.025
    1UNL    C19   23  -0.113   0.064  -0.049
    1UNL    C20   24  -0.147   0.087  -0.194
    1UNL     O3   25  -0.143  -0.028  -0.280
    1UNL    C21   26  -0.134   0.202   0.008
    1UNL     O4   27  -0.251   0.232   0.030
    1UNL     O5   28  -0.035   0.294   0.051
    1UNL    C22   29  -0.085   0.412   0.104
    1UNL     H1   30  -0.107  -0.359  -0.227
    1UNL     H2   31  -0.245  -0.435  -0.139
    1UNL     H3   32  -0.271  -0.381  -0.287
    1UNL     H4   33  -0.323  -0.168  -0.186
    1UNL     H5   34  -0.116  -0.369   0.035
    1UNL     H6   35  -0.156  -0.253   0.171
    1UNL     H7   36   0.204  -0.205  -0.031
    1UNL     H8   37   0.096  -0.308  -0.123
    1UNL     H9   38   0.160  -0.052  -0.205
    1UNL    H10   39  -0.010  -0.107  -0.203
    1UNL    H11   40   0.148   0.211  -0.202
    1UNL    H12   41   0.365   0.322  -0.174
    1UNL    H13   42   0.497   0.278   0.035
    1UNL    H14   43   0.420   0.101   0.178
    1UNL    H15   44   0.343  -0.080   0.278
    1UNL    H16   45  -0.028  -0.085   0.307
    1UNL    H17   46   0.003   0.176   0.192
    1UNL    H18   47  -0.244   0.091   0.206
    1UNL    H19   48  -0.257  -0.079   0.241
    1UNL    H20   49  -0.320  -0.002  -0.014
    1UNL    H21   50  -0.064   0.152  -0.237
    1UNL    H22   51  -0.242   0.140  -0.193
    1UNL    H23   52  -0.199  -0.015  -0.359
    1UNL    H24   53  -0.195   0.405   0.106
    1UNL    H25   54  -0.063   0.493   0.039
    1UNL    H26   55  -0.035   0.416   0.198
   0.00000   0.00000   0.00000   0.00000   0.00000   0.00000   0.00000   0.00000   0.00000
Generated with MDTraj, t= 44.0
 55
    1UNL     C1    1  -0.256  -0.350  -0.195
    1UNL     C2    2  -0.255  -0.215  -0.120
    1UNL     C3    3  -0.205  -0.178  -0.008
    1UNL     C4    4  -0.111  -0.272   0.065
    1UNL     N1    5   0.037  -0.221   0.075
    1UNL     C5    6   0.116  -0.228  -0.055
    1UNL     C6    7   0.085  -0.103  -0.129
    1UNL     C7    8   0.041   0.003  -0.024
    1UNL     C8    9   0.150   0.102  -0.022
    1UNL     C9   10   0.180   0.210  -0.109
    1UNL    C10   11   0.307   0.277  -0.095
    1UNL    C11   12   0.388   0.249   0.014
    1UNL    C12   13   0.358   0.148   0.101
    1UNL    C13   14   0.240   0.073   0.088
    1UNL     N2   15   0.185  -0.043   0.152
    1UNL    C14   16   0.251  -0.121   0.243
    1UNL     O1   17   0.210  -0.218   0.300
    1UNL    C15   18   0.048  -0.076   0.111
    1UNL    C16   19  -0.052  -0.023   0.223
    1UNL     O2   20  -0.007   0.098   0.280
    1UNL    C17   21  -0.199  -0.014   0.178
    1UNL    C18   22  -0.211  -0.034   0.025
    1UNL    C19   23  -0.104   0.056  -0.055
    1UNL    C20   24  -0.133   0.091  -0.205
    1UNL     O3   25  -0.138  -0.016  -0.294
    1UNL    C21   26  -0.121   0.204   0.004
    1UNL     O4   27  -0.238   0.234  -0.002
    1UNL     O5   28  -0.023   0.281   0.051
    1UNL    C22   29  -0.074   0.411   0.082
    1UNL     H1   30  -0.158  -0.356  -0.256
    1UNL     H2   31  -0.263  -0.422  -0.120
    1UNL     H3   32  -0.344  -0.368  -0.253
    1UNL     H4   33  -0.300  -0.141  -0.185
    1UNL     H5   34  -0.112  -0.367   0.012
    1UNL     H6   35  -0.141  -0.284   0.169
    1UNL     H7   36   0.220  -0.233  -0.034
    1UNL     H8   37   0.091  -0.321  -0.104
    1UNL     H9   38   0.160  -0.061  -0.198
    1UNL    H10   39  -0.004  -0.117  -0.195
    1UNL    H11   40   0.114   0.229  -0.193
    1UNL    H12   41   0.349   0.343  -0.172
    1UNL    H13   42   0.483   0.297   0.020
    1UNL    H14   43   0.435   0.109   0.174
    1UNL    H15   44   0.354  -0.083   0.282
    1UNL    H16   45  -0.037  -0.100   0.300
    1UNL    H17   46  -0.024   0.172   0.215
    1UNL    H18   47  -0.235   0.093   0.208
    1UNL    H19   48  -0.268  -0.078   0.234
    1UNL    H20   49  -0.314   0.013  -0.003
    1UNL    H21   50  -0.051   0.159  -0.236
    1UNL    H22   51  -0.223   0.146  -0.195
    1UNL    H23   52  -0.179   0.006  -0.382
    1UNL    H24   53  -0.115   0.403   0.188
    1UNL    H25   54  -0.163   0.428   0.025
    1UNL    H26   55   0.002   0.482   0.078
   0.00000   0.00000   0.00000   0.00000   0.00000   0.00000   0.00000   0.00000   0.00000
Generated with MDTraj, t= 45.0
 55
    1UNL     C1    1  -0.285  -0.385  -0.134
    1UNL     C2    2  -0.268  -0.234  -0.118
    1UNL     C3    3  -0.202  -0.184  -0.017
    1UNL     C4    4  -0.107  -0.268   0.064
    1UNL     N1    5   0.035  -0.216   0.058
    1UNL     C5    6   0.107  -0.228  -0.065
    1UNL     C6    7   0.093  -0.090  -0.141
    1UNL     C7    8   0.046   0.016  -0.038
    1UNL     C8    9   0.165   0.115  -0.028
    1UNL     C9   10   0.196   0.232  -0.102
    1UNL    C10   11   0.305   0.303  -0.064
    1UNL    C11   12   0.389   0.259   0.045
    1UNL    C12   13   0.359   0.146   0.114
    1UNL    C13   14   0.244   0.075   0.076
    1UNL     N2   15   0.190  -0.043   0.138
    1UNL    C14   16   0.245  -0.118   0.239
    1UNL     O1   17   0.202  -0.220   0.288
    1UNL    C15   18   0.050  -0.071   0.097
    1UNL    C16   19  -0.056  -0.026   0.210
    1UNL     O2   20  -0.012   0.093   0.267
    1UNL    C17   21  -0.202  -0.010   0.158
    1UNL    C18   22  -0.205  -0.036   0.009
    1UNL    C19   23  -0.102   0.066  -0.056
    1UNL    C20   24  -0.136   0.075  -0.205
    1UNL     O3   25  -0.144  -0.044  -0.283
    1UNL    C21   26  -0.128   0.200   0.003
    1UNL     O4   27  -0.235   0.255  -0.012
    1UNL     O5   28  -0.021   0.271   0.060
    1UNL    C22   29  -0.047   0.406   0.104
    1UNL     H1   30  -0.186  -0.430  -0.127
    1UNL     H2   31  -0.347  -0.409  -0.050
    1UNL     H3   32  -0.339  -0.421  -0.220
    1UNL     H4   33  -0.321  -0.171  -0.188
    1UNL     H5   34  -0.097  -0.370   0.022
    1UNL     H6   35  -0.143  -0.277   0.161
    1UNL     H7   36   0.205  -0.243  -0.022
    1UNL     H8   37   0.077  -0.320  -0.116
    1UNL     H9   38   0.179  -0.048  -0.194
    1UNL    H10   39   0.013  -0.099  -0.218
    1UNL    H11   40   0.132   0.278  -0.175
    1UNL    H12   41   0.338   0.382  -0.124
    1UNL    H13   42   0.483   0.309   0.067
    1UNL    H14   43   0.414   0.112   0.195
    1UNL    H15   44   0.330  -0.078   0.281
    1UNL    H16   45  -0.041  -0.106   0.282
    1UNL    H17   46  -0.023   0.165   0.202
    1UNL    H18   47  -0.237   0.099   0.183
    1UNL    H19   48  -0.274  -0.073   0.215
    1UNL    H20   49  -0.309   0.003  -0.026
    1UNL    H21   50  -0.069   0.153  -0.248
    1UNL    H22   51  -0.234   0.110  -0.214
    1UNL    H23   52  -0.188  -0.027  -0.370
    1UNL    H24   53  -0.011   0.407   0.214
    1UNL    H25   54  -0.153   0.431   0.098
    1UNL    H26   55   0.015   0.469   0.053
   0.00000   0.00000   0.00000   0.00000   0.00000   0.00000   0.00000   0.00000   0.00000
Generated with MDTraj, t= 46.0
 55
    1UNL     C1    1  -0.295  -0.373  -0.121
    1UNL     C2    2  -0.284  -0.231  -0.100
    1UNL     C3    3  -0.192  -0.174  -0.026
    1UNL     C4    4  -0.098  -0.266   0.047
    1UNL     N1    5   0.042  -0.220   0.048
    1UNL     C5    6   0.122  -0.225  -0.071
    1UNL     C6    7   0.101  -0.096  -0.148
    1UNL     C7    8   0.048   0.009  -0.037
    1UNL     C8    9   0.166   0.111  -0.019
    1UNL     C9   10   0.212   0.217  -0.098
    1UNL    C10   11   0.317   0.300  -0.064
    1UNL    C11   12   0.382   0.276   0.054
    1UNL    C12   13   0.354   0.157   0.126
    1UNL    C13   14   0.247   0.069   0.086
    1UNL     N2   15   0.196  -0.055   0.140
    1UNL    C14   16   0.246  -0.129   0.251
    1UNL     O1   17   0.189  -0.221   0.306
    1UNL    C15   18   0.063  -0.083   0.095
    1UNL    C16   19  -0.042  -0.034   0.209
    1UNL     O2   20   0.015   0.079   0.262
    1UNL    C17   21  -0.187   0.002   0.164
    1UNL    C18   22  -0.201  -0.023   0.009
    1UNL    C19   23  -0.099   0.065  -0.071
    1UNL    C20   24  -0.127   0.080  -0.223
    1UNL     O3   25  -0.189  -0.038  -0.276
    1UNL    C21   26  -0.127   0.209  -0.016
    1UNL     O4   27  -0.235   0.253  -0.044
    1UNL     O5   28  -0.040   0.277   0.066
    1UNL    C22   29  -0.089   0.402   0.116
    1UNL     H1   30  -0.232  -0.409  -0.191
    1UNL     H2   31  -0.289  -0.424  -0.022
    1UNL     H3   32  -0.394  -0.414  -0.144
    1UNL     H4   33  -0.353  -0.167  -0.144
    1UNL     H5   34  -0.099  -0.364  -0.005
    1UNL     H6   35  -0.124  -0.280   0.145
    1UNL     H7   36   0.225  -0.223  -0.034
    1UNL     H8   37   0.094  -0.319  -0.121
    1UNL     H9   38   0.200  -0.070  -0.190
    1UNL    H10   39   0.026  -0.100  -0.228
    1UNL    H11   40   0.145   0.241  -0.180
    1UNL    H12   41   0.345   0.394  -0.121
    1UNL    H13   42   0.457   0.344   0.089
    1UNL    H14   43   0.390   0.146   0.230
    1UNL    H15   44   0.343  -0.103   0.295
    1UNL    H16   45  -0.046  -0.101   0.296
    1UNL    H17   46  -0.002   0.159   0.202
    1UNL    H18   47  -0.212   0.107   0.204
    1UNL    H19   48  -0.258  -0.066   0.223
    1UNL    H20   49  -0.304   0.016  -0.030
    1UNL    H21   50  -0.038   0.094  -0.289
    1UNL    H22   51  -0.188   0.162  -0.243
    1UNL    H23   52  -0.227  -0.012  -0.362
    1UNL    H24   53   0.008   0.466   0.135
    1UNL    H25   54  -0.152   0.391   0.208
    1UNL    H26   55  -0.152   0.447   0.050
   0.00000   0.00000   0.00000   0.00000   0.00000   0.00000   0.00000   0.00000   0.00000
Generated with MDTraj, t= 47.0
 55
    1UNL     C1    1  -0.315  -0.363  -0.143
    1UNL     C2    2  -0.298  -0.225  -0.100
    1UNL     C3    3  -0.202  -0.179  -0.019
    1UNL     C4    4  -0.105  -0.270   0.054
    1UNL     N1    5   0.045  -0.218   0.055
    1UNL     C5    6   0.114  -0.225  -0.076
    1UNL     C6    7   0.097  -0.092  -0.139
    1UNL     C7    8   0.052   0.019  -0.033
    1UNL     C8    9   0.163   0.120  -0.017
    1UNL     C9   10   0.192   0.233  -0.087
    1UNL    C10   11   0.305   0.311  -0.059
    1UNL    C11   12   0.393   0.265   0.038
    1UNL    C12   13   0.374   0.143   0.105
    1UNL    C13   14   0.258   0.069   0.079
    1UNL     N2   15   0.201  -0.048   0.145
    1UNL    C14   16   0.245  -0.113   0.258
    1UNL     O1   17   0.202  -0.211   0.310
    1UNL    C15   18   0.057  -0.074   0.098
    1UNL    C16   19  -0.043  -0.036   0.206
    1UNL     O2   20  -0.001   0.082   0.271
    1UNL    C17   21  -0.189  -0.025   0.168
    1UNL    C18   22  -0.206  -0.030   0.016
    1UNL    C19   23  -0.102   0.059  -0.058
    1UNL    C20   24  -0.136   0.063  -0.205
    1UNL     O3   25  -0.141  -0.046  -0.300
    1UNL    C21   26  -0.130   0.207  -0.016
    1UNL     O4   27  -0.230   0.264  -0.052
    1UNL     O5   28  -0.043   0.263   0.070
    1UNL    C22   29  -0.076   0.396   0.110
    1UNL     H1   30  -0.224  -0.396  -0.184
    1UNL     H2   31  -0.357  -0.413  -0.054
    1UNL     H3   32  -0.393  -0.375  -0.216
    1UNL     H4   33  -0.362  -0.151  -0.148
    1UNL     H5   34  -0.099  -0.372   0.011
    1UNL     H6   35  -0.140  -0.294   0.148
    1UNL     H7   36   0.220  -0.245  -0.054
    1UNL     H8   37   0.064  -0.305  -0.134
    1UNL     H9   38   0.194  -0.056  -0.177
    1UNL    H10   39   0.027  -0.099  -0.220
    1UNL    H11   40   0.123   0.261  -0.164
    1UNL    H12   41   0.307   0.402  -0.107
    1UNL    H13   42   0.471   0.338   0.067
    1UNL    H14   43   0.444   0.114   0.181
    1UNL    H15   44   0.344  -0.072   0.291
    1UNL    H16   45  -0.029  -0.113   0.283
    1UNL    H17   46  -0.008   0.151   0.202
    1UNL    H18   47  -0.224   0.075   0.209
    1UNL    H19   48  -0.256  -0.099   0.230
    1UNL    H20   49  -0.307   0.019  -0.019
    1UNL    H21   50  -0.070   0.143  -0.248
    1UNL    H22   51  -0.236   0.097  -0.219
    1UNL    H23   52  -0.162  -0.013  -0.391
    1UNL    H24   53  -0.081   0.453   0.007
    1UNL    H25   54   0.010   0.448   0.166
    1UNL    H26   55  -0.152   0.406   0.178
   0.00000   0.00000   0.00000   0.00000   0.00000   0.00000   0.00000   0.00000   0.00000
Generated with MDTraj, t= 48.0
 55
    1UNL     C1    1  -0.279  -0.362  -0.168
    1UNL     C2    2  -0.268  -0.225  -0.118
    1UNL     C3    3  -0.199  -0.177  -0.010
    1UNL     C4    4  -0.107  -0.261   0.069
    1UNL     N1    5   0.038  -0.222   0.063
    1UNL     C5    6   0.101  -0.232  -0.070
    1UNL     C6    7   0.102  -0.094  -0.135
    1UNL     C7    8   0.046   0.012  -0.030
    1UNL     C8    9   0.158   0.114  -0.019
    1UNL     C9   10   0.183   0.223  -0.095
    1UNL    C10   11   0.296   0.297  -0.073
    1UNL    C11   12   0.390   0.256   0.018
    1UNL    C12   13   0.362   0.146   0.104
    1UNL    C13   14   0.246   0.070   0.079
    1UNL     N2   15   0.192  -0.044   0.146
    1UNL    C14   16   0.253  -0.124   0.248
    1UNL     O1   17   0.198  -0.213   0.304
    1UNL    C15   18   0.052  -0.073   0.102
    1UNL    C16   19  -0.049  -0.038   0.216
    1UNL     O2   20   0.003   0.076   0.276
    1UNL    C17   21  -0.194  -0.012   0.171
    1UNL    C18   22  -0.210  -0.029   0.018
    1UNL    C19   23  -0.105   0.068  -0.063
    1UNL    C20   24  -0.132   0.073  -0.216
    1UNL     O3   25  -0.133  -0.051  -0.289
    1UNL    C21   26  -0.128   0.210  -0.005
    1UNL     O4   27  -0.230   0.264  -0.038
    1UNL     O5   28  -0.045   0.277   0.089
    1UNL    C22   29  -0.069   0.411   0.106
    1UNL     H1   30  -0.187  -0.385  -0.226
    1UNL     H2   31  -0.298  -0.419  -0.077
    1UNL     H3   32  -0.365  -0.374  -0.224
    1UNL     H4   33  -0.311  -0.151  -0.179
    1UNL     H5   34  -0.115  -0.365   0.040
    1UNL     H6   35  -0.134  -0.266   0.171
    1UNL     H7   36   0.202  -0.272  -0.044
    1UNL     H8   37   0.046  -0.305  -0.133
    1UNL     H9   38   0.197  -0.057  -0.177
    1UNL    H10   39   0.034  -0.090  -0.219
    1UNL    H11   40   0.125   0.247  -0.182
    1UNL    H12   41   0.308   0.390  -0.137
    1UNL    H13   42   0.481   0.309   0.033
    1UNL    H14   43   0.445   0.111   0.160
    1UNL    H15   44   0.352  -0.124   0.276
    1UNL    H16   45  -0.054  -0.119   0.292
    1UNL    H17   46  -0.006   0.144   0.206
    1UNL    H18   47  -0.212   0.095   0.200
    1UNL    H19   48  -0.279  -0.070   0.230
    1UNL    H20   49  -0.318   0.003  -0.011
    1UNL    H21   50  -0.061   0.143  -0.270
    1UNL    H22   51  -0.231   0.117  -0.220
    1UNL    H23   52  -0.126  -0.050  -0.389
    1UNL    H24   53  -0.182   0.429   0.115
    1UNL    H25   54  -0.041   0.470   0.012
    1UNL    H26   55  -0.008   0.444   0.183
   0.00000   0.00000   0.00000   0.00000   0.00000   0.00000   0.00000   0.00000   0.00000
Generated with MDTraj, t= 49.0
 55
    1UNL     C1    1  -0.239  -0.359  -0.178
    1UNL     C2    2  -0.258  -0.230  -0.118
    1UNL     C3    3  -0.188  -0.177  -0.014
    1UNL     C4    4  -0.103  -0.260   0.075
    1UNL     N1    5   0.036  -0.215   0.069
    1UNL     C5    6   0.123  -0.224  -0.048
    1UNL     C6    7   0.083  -0.106  -0.140
    1UNL     C7    8   0.043   0.004  -0.039
    1UNL     C8    9   0.160   0.103  -0.023
    1UNL     C9   10   0.203   0.206  -0.109
    1UNL    C10   11   0.321   0.277  -0.078
    1UNL    C11   12   0.386   0.251   0.041
    1UNL    C12   13   0.352   0.145   0.119
    1UNL    C13   14   0.237   0.071   0.088
    1UNL     N2   15   0.182  -0.037   0.158
    1UNL    C14   16   0.247  -0.122   0.244
    1UNL     O1   17   0.207  -0.228   0.293
    1UNL    C15   18   0.047  -0.075   0.101
    1UNL    C16   19  -0.046  -0.024   0.209
    1UNL     O2   20   0.009   0.097   0.262
    1UNL    C17   21  -0.199  -0.005   0.163
    1UNL    C18   22  -0.204  -0.034   0.012
    1UNL    C19   23  -0.104   0.063  -0.065
    1UNL    C20   24  -0.138   0.078  -0.222
    1UNL     O3   25  -0.205  -0.027  -0.289
    1UNL    C21   26  -0.129   0.212  -0.003
    1UNL     O4   27  -0.239   0.260  -0.023
    1UNL     O5   28  -0.030   0.285   0.063
    1UNL    C22   29  -0.075   0.396   0.125
    1UNL     H1   30  -0.129  -0.380  -0.198
    1UNL     H2   31  -0.270  -0.430  -0.109
    1UNL     H3   32  -0.297  -0.382  -0.261
    1UNL     H4   33  -0.318  -0.150  -0.163
    1UNL     H5   34  -0.111  -0.362   0.053
    1UNL     H6   35  -0.143  -0.243   0.176
    1UNL     H7   36   0.230  -0.209  -0.014
    1UNL     H8   37   0.110  -0.328  -0.084
    1UNL     H9   38   0.158  -0.073  -0.211
    1UNL    H10   39  -0.008  -0.119  -0.204
    1UNL    H11   40   0.145   0.221  -0.201
    1UNL    H12   41   0.356   0.359  -0.134
    1UNL    H13   42   0.480   0.304   0.063
    1UNL    H14   43   0.420   0.100   0.195
    1UNL    H15   44   0.350  -0.076   0.273
    1UNL    H16   45  -0.044  -0.096   0.295
    1UNL    H17   46   0.011   0.169   0.193
    1UNL    H18   47  -0.235   0.101   0.182
    1UNL    H19   48  -0.263  -0.075   0.229
    1UNL    H20   49  -0.308  -0.002  -0.027
    1UNL    H21   50  -0.039   0.095  -0.275
    1UNL    H22   51  -0.186   0.177  -0.226
    1UNL    H23   52  -0.222  -0.011  -0.384
    1UNL    H24   53  -0.121   0.369   0.222
    1UNL    H25   54  -0.158   0.437   0.061
    1UNL    H26   55  -0.001   0.470   0.142
   0.00000   0.00000   0.00000   0.00000   0.00000   0.00000   0.00000   0.00000   0.00000
Generated with MDTraj, t= 50.0
 55
    1UNL     C1    1  -0.249  -0.395  -0.171
    1UNL     C2    2  -0.249  -0.250  -0.132
    1UNL     C3    3  -0.197  -0.184  -0.021
    1UNL     C4    4  -0.110  -0.262   0.071
    1UNL     N1    5   0.034  -0.209   0.071
    1UNL     C5    6   0.093  -0.227  -0.065
    1UNL     C6    7   0.080  -0.093  -0.135
    1UNL     C7    8   0.045   0.014  -0.030
    1UNL     C8    9   0.164   0.109  -0.024
    1UNL     C9   10   0.208   0.208  -0.118
    1UNL    C10   11   0.318   0.286  -0.081
    1UNL    C11   12   0.400   0.246   0.027
    1UNL    C12   13   0.362   0.144   0.105
    1UNL    C13   14   0.243   0.076   0.086
    1UNL     N2   15   0.182  -0.031   0.157
    1UNL    C14   16   0.246  -0.118   0.246
    1UNL     O1   17   0.197  -0.214   0.301
    1UNL    C15   18   0.049  -0.063   0.103
    1UNL    C16   19  -0.060  -0.029   0.209
    1UNL     O2   20  -0.027   0.095   0.267
    1UNL    C17   21  -0.208  -0.027   0.157
    1UNL    C18   22  -0.209  -0.033   0.002
    1UNL    C19   23  -0.101   0.068  -0.054
    1UNL    C20   24  -0.135   0.096  -0.207
    1UNL     O3   25  -0.167  -0.015  -0.289
    1UNL    C21   26  -0.121   0.202   0.016
    1UNL     O4   27  -0.235   0.235   0.039
    1UNL     O5   28  -0.014   0.289   0.043
    1UNL    C22   29  -0.055   0.412   0.090
    1UNL     H1   30  -0.145  -0.436  -0.187
    1UNL     H2   31  -0.291  -0.451  -0.096
    1UNL     H3   32  -0.308  -0.420  -0.255
    1UNL     H4   33  -0.289  -0.176  -0.196
    1UNL     H5   34  -0.108  -0.361   0.042
    1UNL     H6   35  -0.150  -0.276   0.175
    1UNL     H7   36   0.203  -0.252  -0.047
    1UNL     H8   37   0.046  -0.307  -0.127
    1UNL     H9   38   0.171  -0.048  -0.173
    1UNL    H10   39   0.013  -0.095  -0.226
    1UNL    H11   40   0.140   0.250  -0.186
    1UNL    H12   41   0.338   0.380  -0.132
    1UNL    H13   42   0.489   0.299   0.045
    1UNL    H14   43   0.421   0.115   0.185
    1UNL    H15   44   0.333  -0.093   0.299
    1UNL    H16   45  -0.048  -0.100   0.294
    1UNL    H17   46  -0.003   0.161   0.200
    1UNL    H18   47  -0.255   0.068   0.204
    1UNL    H19   48  -0.262  -0.119   0.193
    1UNL    H20   49  -0.312   0.002  -0.031
    1UNL    H21   50  -0.040   0.144  -0.247
    1UNL    H22   51  -0.211   0.177  -0.225
    1UNL    H23   52  -0.229   0.016  -0.359
    1UNL    H24   53  -0.142   0.399   0.154
    1UNL    H25   54  -0.080   0.470   0.003
    1UNL    H26   55   0.013   0.459   0.164
   0.00000   0.00000   0.00000   0.00000   0.00000   0.00000   0.00000   0.00000   0.00000
Generated with MDTraj, t= 51.0
 55
    1UNL     C1    1  -0.275  -0.363  -0.175
    1UNL     C2    2  -0.270  -0.224  -0.128
    1UNL     C3    3  -0.187  -0.182  -0.026
    1UNL     C4    4  -0.093  -0.273   0.042
    1UNL     N1    5   0.044  -0.218   0.061
    1UNL     C5    6   0.129  -0.212  -0.062
    1UNL     C6    7   0.078  -0.095  -0.141
    1UNL     C7    8   0.035   0.010  -0.030
    1UNL     C8    9   0.153   0.108  -0.022
    1UNL     C9   10   0.197   0.196  -0.114
    1UNL    C10   11   0.308   0.271  -0.092
    1UNL    C11   12   0.390   0.247   0.020
    1UNL    C12   13   0.360   0.137   0.094
    1UNL    C13   14   0.242   0.067   0.078
    1UNL     N2   15   0.184  -0.038   0.157
    1UNL    C14   16   0.230  -0.112   0.268
    1UNL     O1   17   0.171  -0.199   0.326
    1UNL    C15   18   0.045  -0.075   0.105
    1UNL    C16   19  -0.047  -0.037   0.227
    1UNL     O2   20  -0.000   0.087   0.268
    1UNL    C17   21  -0.186  -0.033   0.180
    1UNL    C18   22  -0.207  -0.039   0.025
    1UNL    C19   23  -0.114   0.060  -0.047
    1UNL    C20   24  -0.146   0.095  -0.197
    1UNL     O3   25  -0.102   0.009  -0.301
    1UNL    C21   26  -0.132   0.202   0.014
    1UNL     O4   27  -0.242   0.233   0.045
    1UNL     O5   28  -0.027   0.283   0.029
    1UNL    C22   29  -0.072   0.409   0.065
    1UNL     H1   30  -0.178  -0.385  -0.214
    1UNL     H2   31  -0.290  -0.422  -0.088
    1UNL     H3   32  -0.360  -0.376  -0.240
    1UNL     H4   33  -0.330  -0.142  -0.175
    1UNL     H5   34  -0.082  -0.375   0.016
    1UNL     H6   35  -0.131  -0.292   0.146
    1UNL     H7   36   0.238  -0.189  -0.038
    1UNL     H8   37   0.120  -0.302  -0.126
    1UNL     H9   38   0.155  -0.065  -0.212
    1UNL    H10   39  -0.016  -0.119  -0.195
    1UNL    H11   40   0.131   0.231  -0.195
    1UNL    H12   41   0.338   0.355  -0.158
    1UNL    H13   42   0.484   0.302   0.044
    1UNL    H14   43   0.421   0.106   0.182
    1UNL    H15   44   0.325  -0.074   0.304
    1UNL    H16   45  -0.024  -0.112   0.305
    1UNL    H17   46   0.018   0.140   0.184
    1UNL    H18   47  -0.225   0.072   0.215
    1UNL    H19   48  -0.244  -0.115   0.224
    1UNL    H20   49  -0.312  -0.008   0.004
    1UNL    H21   50  -0.111   0.197  -0.233
    1UNL    H22   51  -0.257   0.109  -0.198
    1UNL    H23   52  -0.153   0.030  -0.383
    1UNL    H24   53  -0.137   0.399   0.148
    1UNL    H25   54  -0.115   0.457  -0.019
    1UNL    H26   55   0.013   0.465   0.118
   0.00000   0.00000   0.00000   0.00000   0.00000   0.00000   0.00000   0.00000   0.00000
Generated with MDTraj, t= 52.0
 55
    1UNL     C1    1  -0.263  -0.353  -0.186
    1UNL     C2    2  -0.263  -0.220  -0.141
    1UNL     C3    3  -0.201  -0.177  -0.025
    1UNL     C4    4  -0.114  -0.271   0.050
    1UNL     N1    5   0.024  -0.221   0.062
    1UNL     C5    6   0.104  -0.229  -0.060
    1UNL     C6    7   0.088  -0.102  -0.137
    1UNL     C7    8   0.041   0.009  -0.032
    1UNL     C8    9   0.157   0.107  -0.031
    1UNL     C9   10   0.197   0.205  -0.115
    1UNL    C10   11   0.314   0.279  -0.085
    1UNL    C11   12   0.390   0.238   0.019
    1UNL    C12   13   0.362   0.127   0.098
    1UNL    C13   14   0.243   0.063   0.069
    1UNL     N2   15   0.186  -0.045   0.144
    1UNL    C14   16   0.247  -0.091   0.264
    1UNL     O1   17   0.204  -0.171   0.341
    1UNL    C15   18   0.048  -0.080   0.105
    1UNL    C16   19  -0.052  -0.025   0.215
    1UNL     O2   20   0.009   0.100   0.260
    1UNL    C17   21  -0.203  -0.026   0.174
    1UNL    C18   22  -0.213  -0.033   0.016
    1UNL    C19   23  -0.102   0.063  -0.051
    1UNL    C20   24  -0.131   0.093  -0.198
    1UNL     O3   25  -0.110  -0.010  -0.294
    1UNL    C21   26  -0.133   0.199   0.015
    1UNL     O4   27  -0.249   0.227   0.037
    1UNL     O5   28  -0.028   0.276   0.049
    1UNL    C22   29  -0.090   0.392   0.105
    1UNL     H1   30  -0.169  -0.389  -0.195
    1UNL     H2   31  -0.320  -0.415  -0.116
    1UNL     H3   32  -0.319  -0.370  -0.278
    1UNL     H4   33  -0.302  -0.141  -0.200
    1UNL     H5   34  -0.110  -0.369   0.004
    1UNL     H6   35  -0.151  -0.290   0.152
    1UNL     H7   36   0.215  -0.243  -0.040
    1UNL     H8   37   0.068  -0.310  -0.125
    1UNL     H9   38   0.181  -0.069  -0.187
    1UNL    H10   39   0.013  -0.119  -0.210
    1UNL    H11   40   0.141   0.216  -0.204
    1UNL    H12   41   0.344   0.362  -0.138
    1UNL    H13   42   0.484   0.284   0.028
    1UNL    H14   43   0.425   0.088   0.173
    1UNL    H15   44   0.351  -0.061   0.298
    1UNL    H16   45  -0.032  -0.095   0.296
    1UNL    H17   46   0.013   0.163   0.187
    1UNL    H18   47  -0.250   0.076   0.203
    1UNL    H19   48  -0.260  -0.109   0.217
    1UNL    H20   49  -0.311  -0.002  -0.021
    1UNL    H21   50  -0.071   0.179  -0.228
    1UNL    H22   51  -0.236   0.124  -0.212
    1UNL    H23   52  -0.136   0.014  -0.385
    1UNL    H24   53  -0.065   0.388   0.208
    1UNL    H25   54  -0.191   0.398   0.083
    1UNL    H26   55  -0.037   0.487   0.065
   0.00000   0.00000   0.00000   0.00000   0.00000   0.00000   0.00000   0.00000   0.00000
Generated with MDTraj, t= 53.0
 55
    1UNL     C1    1  -0.217  -0.370  -0.182
    1UNL     C2    2  -0.241  -0.238  -0.135
    1UNL     C3    3  -0.190  -0.185  -0.017
    1UNL     C4    4  -0.098  -0.266   0.063
    1UNL     N1    5   0.040  -0.216   0.072
    1UNL     C5    6   0.106  -0.225  -0.060
    1UNL     C6    7   0.077  -0.095  -0.143
    1UNL     C7    8   0.038   0.014  -0.030
    1UNL     C8    9   0.159   0.108  -0.027
    1UNL     C9   10   0.191   0.212  -0.112
    1UNL    C10   11   0.304   0.283  -0.083
    1UNL    C11   12   0.397   0.242   0.011
    1UNL    C12   13   0.370   0.131   0.092
    1UNL    C13   14   0.248   0.066   0.072
    1UNL     N2   15   0.179  -0.035   0.154
    1UNL    C14   16   0.227  -0.106   0.257
    1UNL     O1   17   0.174  -0.202   0.315
    1UNL    C15   18   0.045  -0.070   0.105
    1UNL    C16   19  -0.057  -0.027   0.213
    1UNL     O2   20  -0.018   0.097   0.269
    1UNL    C17   21  -0.207  -0.010   0.172
    1UNL    C18   22  -0.212  -0.035   0.018
    1UNL    C19   23  -0.104   0.068  -0.055
    1UNL    C20   24  -0.142   0.092  -0.206
    1UNL     O3   25  -0.176  -0.019  -0.280
    1UNL    C21   26  -0.115   0.203   0.008
    1UNL     O4   27  -0.225   0.253   0.004
    1UNL     O5   28  -0.005   0.275   0.055
    1UNL    C22   29  -0.070   0.384   0.121
    1UNL     H1   30  -0.118  -0.381  -0.216
    1UNL     H2   31  -0.236  -0.446  -0.108
    1UNL     H3   32  -0.283  -0.406  -0.258
    1UNL     H4   33  -0.292  -0.161  -0.193
    1UNL     H5   34  -0.090  -0.367   0.012
    1UNL     H6   35  -0.144  -0.285   0.159
    1UNL     H7   36   0.216  -0.243  -0.045
    1UNL     H8   37   0.072  -0.313  -0.116
    1UNL     H9   38   0.171  -0.061  -0.189
    1UNL    H10   39   0.011  -0.094  -0.227
    1UNL    H11   40   0.136   0.236  -0.201
    1UNL    H12   41   0.307   0.373  -0.154
    1UNL    H13   42   0.481   0.310   0.036
    1UNL    H14   43   0.442   0.088   0.159
    1UNL    H15   44   0.327  -0.092   0.270
    1UNL    H16   45  -0.034  -0.099   0.292
    1UNL    H17   46  -0.017   0.167   0.199
    1UNL    H18   47  -0.239   0.096   0.187
    1UNL    H19   48  -0.278  -0.078   0.221
    1UNL    H20   49  -0.312  -0.022  -0.021
    1UNL    H21   50  -0.054   0.139  -0.249
    1UNL    H22   51  -0.219   0.167  -0.222
    1UNL    H23   52  -0.222  -0.003  -0.365
    1UNL    H24   53  -0.113   0.337   0.206
    1UNL    H25   54  -0.142   0.419   0.056
    1UNL    H26   55   0.008   0.468   0.145
   0.00000   0.00000   0.00000   0.00000   0.00000   0.00000   0.00000   0.00000   0.00000
Generated with MDTraj, t= 54.0
 55
    1UNL     C1    1  -0.238  -0.380  -0.167
    1UNL     C2    2  -0.250  -0.234  -0.133
    1UNL     C3    3  -0.183  -0.183  -0.022
    1UNL     C4    4  -0.091  -0.269   0.058
    1UNL     N1    5   0.045  -0.219   0.058
    1UNL     C5    6   0.112  -0.207  -0.075
    1UNL     C6    7   0.072  -0.083  -0.149
    1UNL     C7    8   0.037   0.017  -0.030
    1UNL     C8    9   0.156   0.114  -0.024
    1UNL     C9   10   0.211   0.202  -0.114
    1UNL    C10   11   0.330   0.268  -0.093
    1UNL    C11   12   0.394   0.249   0.028
    1UNL    C12   13   0.353   0.147   0.115
    1UNL    C13   14   0.231   0.083   0.090
    1UNL     N2   15   0.177  -0.031   0.158
    1UNL    C14   16   0.240  -0.108   0.254
    1UNL     O1   17   0.189  -0.210   0.296
    1UNL    C15   18   0.047  -0.075   0.110
    1UNL    C16   19  -0.060  -0.038   0.221
    1UNL     O2   20   0.002   0.070   0.294
    1UNL    C17   21  -0.204  -0.009   0.169
    1UNL    C18   22  -0.208  -0.033   0.015
    1UNL    C19   23  -0.113   0.069  -0.054
    1UNL    C20   24  -0.153   0.083  -0.205
    1UNL     O3   25  -0.174  -0.029  -0.280
    1UNL    C21   26  -0.134   0.210   0.011
    1UNL     O4   27  -0.234   0.270  -0.018
    1UNL     O5   28  -0.031   0.261   0.081
    1UNL    C22   29  -0.047   0.403   0.077
    1UNL     H1   30  -0.126  -0.396  -0.174
    1UNL     H2   31  -0.272  -0.437  -0.085
    1UNL     H3   32  -0.296  -0.408  -0.250
    1UNL     H4   33  -0.303  -0.165  -0.197
    1UNL     H5   34  -0.088  -0.384   0.039
    1UNL     H6   35  -0.124  -0.267   0.161
    1UNL     H7   36   0.221  -0.219  -0.061
    1UNL     H8   37   0.086  -0.295  -0.135
    1UNL     H9   38   0.148  -0.046  -0.218
    1UNL    H10   39  -0.011  -0.093  -0.218
    1UNL    H11   40   0.156   0.211  -0.209
    1UNL    H12   41   0.366   0.347  -0.147
    1UNL    H13   42   0.470   0.317   0.060
    1UNL    H14   43   0.414   0.122   0.203
    1UNL    H15   44   0.353  -0.103   0.281
    1UNL    H16   45  -0.063  -0.118   0.297
    1UNL    H17   46  -0.004   0.153   0.238
    1UNL    H18   47  -0.238   0.093   0.177
    1UNL    H19   48  -0.282  -0.073   0.215
    1UNL    H20   49  -0.306  -0.017  -0.021
    1UNL    H21   50  -0.085   0.144  -0.260
    1UNL    H22   51  -0.238   0.149  -0.198
    1UNL    H23   52  -0.215  -0.004  -0.368
    1UNL    H24   53  -0.130   0.419   0.012
    1UNL    H25   54   0.046   0.448   0.051
    1UNL    H26   55  -0.057   0.439   0.192
   0.00000   0.00000   0.00000   0.00000   0.00000   0.00000   0.00000   0.00000   0.00000
Generated with MDTraj, t= 55.0
 55
    1UNL     C1    1  -0.308  -0.366  -0.172
    1UNL     C2    2  -0.284  -0.223  -0.129
    1UNL     C3    3  -0.199  -0.177  -0.031
    1UNL     C4    4  -0.102  -0.270   0.042
    1UNL     N1    5   0.035  -0.217   0.075
    1UNL     C5    6   0.113  -0.229  -0.054
    1UNL     C6    7   0.088  -0.105  -0.130
    1UNL     C7    8   0.045   0.008  -0.030
    1UNL     C8    9   0.159   0.103  -0.018
    1UNL     C9   10   0.182   0.211  -0.101
    1UNL    C10   11   0.289   0.292  -0.071
    1UNL    C11   12   0.381   0.260   0.027
    1UNL    C12   13   0.365   0.146   0.103
    1UNL    C13   14   0.247   0.075   0.087
    1UNL     N2   15   0.195  -0.038   0.151
    1UNL    C14   16   0.260  -0.108   0.252
    1UNL     O1   17   0.228  -0.211   0.301
    1UNL    C15   18   0.050  -0.074   0.107
    1UNL    C16   19  -0.049  -0.031   0.216
    1UNL     O2   20  -0.006   0.094   0.259
    1UNL    C17   21  -0.199  -0.019   0.170
    1UNL    C18   22  -0.211  -0.029   0.009
    1UNL    C19   23  -0.103   0.067  -0.055
    1UNL    C20   24  -0.122   0.075  -0.207
    1UNL     O3   25  -0.125  -0.039  -0.290
    1UNL    C21   26  -0.126   0.208   0.003
    1UNL     O4   27  -0.239   0.251  -0.007
    1UNL     O5   28  -0.027   0.277   0.065
    1UNL    C22   29  -0.068   0.403   0.105
    1UNL     H1   30  -0.210  -0.398  -0.224
    1UNL     H2   31  -0.316  -0.431  -0.090
    1UNL     H3   32  -0.396  -0.381  -0.224
    1UNL     H4   33  -0.331  -0.141  -0.182
    1UNL     H5   34  -0.091  -0.367  -0.020
    1UNL     H6   35  -0.144  -0.305   0.138
    1UNL     H7   36   0.219  -0.233  -0.030
    1UNL     H8   37   0.081  -0.317  -0.110
    1UNL     H9   38   0.176  -0.063  -0.176
    1UNL    H10   39   0.013  -0.127  -0.210
    1UNL    H11   40   0.114   0.237  -0.175
    1UNL    H12   41   0.304   0.387  -0.128
    1UNL    H13   42   0.465   0.328   0.045
    1UNL    H14   43   0.425   0.126   0.185
    1UNL    H15   44   0.345  -0.056   0.280
    1UNL    H16   45  -0.039  -0.090   0.310
    1UNL    H17   46   0.010   0.160   0.190
    1UNL    H18   47  -0.240   0.072   0.200
    1UNL    H19   48  -0.263  -0.101   0.211
    1UNL    H20   49  -0.304   0.002  -0.019
    1UNL    H21   50  -0.053   0.146  -0.248
    1UNL    H22   51  -0.212   0.136  -0.224
    1UNL    H23   52  -0.157  -0.013  -0.379
    1UNL    H24   53   0.014   0.469   0.079
    1UNL    H25   54  -0.110   0.391   0.209
    1UNL    H26   55  -0.164   0.440   0.044
   0.00000   0.00000   0.00000   0.00000   0.00000   0.00000   0.00000   0.00000   0.00000
Generated with MDTraj, t= 56.0
 55
    1UNL     C1    1  -0.299  -0.356  -0.148
    1UNL     C2    2  -0.283  -0.220  -0.105
    1UNL     C3    3  -0.201  -0.176  -0.011
    1UNL     C4    4  -0.107  -0.262   0.066
    1UNL     N1    5   0.035  -0.221   0.062
    1UNL     C5    6   0.106  -0.241  -0.072
    1UNL     C6    7   0.094  -0.102  -0.139
    1UNL     C7    8   0.049   0.005  -0.036
    1UNL     C8    9   0.165   0.107  -0.019
    1UNL     C9   10   0.197   0.222  -0.099
    1UNL    C10   11   0.299   0.305  -0.052
    1UNL    C11   12   0.384   0.270   0.053
    1UNL    C12   13   0.362   0.151   0.114
    1UNL    C13   14   0.254   0.071   0.084
    1UNL     N2   15   0.196  -0.040   0.146
    1UNL    C14   16   0.257  -0.128   0.235
    1UNL     O1   17   0.188  -0.210   0.288
    1UNL    C15   18   0.060  -0.075   0.098
    1UNL    C16   19  -0.032  -0.021   0.209
    1UNL     O2   20   0.015   0.102   0.259
    1UNL    C17   21  -0.183  -0.009   0.170
    1UNL    C18   22  -0.204  -0.031   0.013
    1UNL    C19   23  -0.100   0.061  -0.064
    1UNL    C20   24  -0.126   0.070  -0.215
    1UNL     O3   25  -0.133  -0.050  -0.302
    1UNL    C21   26  -0.129   0.208  -0.011
    1UNL     O4   27  -0.250   0.229  -0.006
    1UNL     O5   28  -0.035   0.288   0.043
    1UNL    C22   29  -0.096   0.393   0.117
    1UNL     H1   30  -0.214  -0.379  -0.220
    1UNL     H2   31  -0.283  -0.435  -0.076
    1UNL     H3   32  -0.394  -0.380  -0.183
    1UNL     H4   33  -0.342  -0.141  -0.147
    1UNL     H5   34  -0.108  -0.371   0.036
    1UNL     H6   35  -0.143  -0.256   0.173
    1UNL     H7   36   0.208  -0.260  -0.042
    1UNL     H8   37   0.055  -0.320  -0.126
    1UNL     H9   38   0.192  -0.072  -0.175
    1UNL    H10   39   0.020  -0.105  -0.219
    1UNL    H11   40   0.140   0.258  -0.189
    1UNL    H12   41   0.328   0.380  -0.122
    1UNL    H13   42   0.467   0.330   0.089
    1UNL    H14   43   0.422   0.129   0.206
    1UNL    H15   44   0.359  -0.122   0.272
    1UNL    H16   45  -0.032  -0.092   0.295
    1UNL    H17   46   0.019   0.166   0.182
    1UNL    H18   47  -0.225   0.083   0.193
    1UNL    H19   48  -0.245  -0.084   0.224
    1UNL    H20   49  -0.298   0.000  -0.007
    1UNL    H21   50  -0.058   0.139  -0.259
    1UNL    H22   51  -0.220   0.124  -0.240
    1UNL    H23   52  -0.170  -0.033  -0.391
    1UNL    H24   53  -0.139   0.357   0.210
    1UNL    H25   54  -0.175   0.434   0.046
    1UNL    H26   55  -0.016   0.473   0.138
   0.00000   0.00000   0.00000   0.00000   0.00000   0.00000   0.00000   0.00000   0.00000
Generated with MDTraj, t= 57.0
 55
    1UNL     C1    1  -0.267  -0.393  -0.127
    1UNL     C2    2  -0.262  -0.243  -0.103
    1UNL     C3    3  -0.188  -0.179  -0.012
    1UNL     C4    4  -0.092  -0.257   0.063
    1UNL     N1    5   0.045  -0.216   0.036
    1UNL     C5    6   0.094  -0.218  -0.105
    1UNL     C6    7   0.093  -0.072  -0.151
    1UNL     C7    8   0.043   0.017  -0.035
    1UNL     C8    9   0.160   0.118  -0.010
    1UNL     C9   10   0.197   0.229  -0.080
    1UNL    C10   11   0.315   0.300  -0.046
    1UNL    C11   12   0.396   0.251   0.053
    1UNL    C12   13   0.362   0.136   0.121
    1UNL    C13   14   0.242   0.074   0.096
    1UNL     N2   15   0.192  -0.043   0.148
    1UNL    C14   16   0.249  -0.117   0.245
    1UNL     O1   17   0.191  -0.219   0.283
    1UNL    C15   18   0.056  -0.076   0.090
    1UNL    C16   19  -0.044  -0.041   0.212
    1UNL     O2   20   0.004   0.083   0.271
    1UNL    C17   21  -0.192  -0.015   0.170
    1UNL    C18   22  -0.203  -0.032   0.017
    1UNL    C19   23  -0.106   0.068  -0.058
    1UNL    C20   24  -0.150   0.066  -0.208
    1UNL     O3   25  -0.180  -0.062  -0.278
    1UNL    C21   26  -0.135   0.214  -0.003
    1UNL     O4   27  -0.240   0.266  -0.038
    1UNL     O5   28  -0.037   0.283   0.066
    1UNL    C22   29  -0.062   0.421   0.070
    1UNL     H1   30  -0.164  -0.422  -0.137
    1UNL     H2   31  -0.305  -0.451  -0.043
    1UNL     H3   32  -0.334  -0.417  -0.209
    1UNL     H4   33  -0.335  -0.180  -0.149
    1UNL     H5   34  -0.103  -0.366   0.045
    1UNL     H6   35  -0.098  -0.253   0.179
    1UNL     H7   36   0.191  -0.259  -0.089
    1UNL     H8   37   0.026  -0.280  -0.160
    1UNL     H9   38   0.192  -0.043  -0.185
    1UNL    H10   39   0.026  -0.059  -0.232
    1UNL    H11   40   0.150   0.243  -0.173
    1UNL    H12   41   0.364   0.383  -0.096
    1UNL    H13   42   0.494   0.290   0.070
    1UNL    H14   43   0.426   0.102   0.196
    1UNL    H15   44   0.344  -0.073   0.287
    1UNL    H16   45  -0.043  -0.121   0.289
    1UNL    H17   46  -0.012   0.151   0.204
    1UNL    H18   47  -0.215   0.085   0.193
    1UNL    H19   48  -0.272  -0.076   0.214
    1UNL    H20   49  -0.298  -0.003  -0.008
    1UNL    H21   50  -0.086   0.121  -0.272
    1UNL    H22   51  -0.240   0.133  -0.224
    1UNL    H23   52  -0.230  -0.056  -0.363
    1UNL    H24   53  -0.134   0.448  -0.007
    1UNL    H25   54   0.032   0.475   0.031
    1UNL    H26   55  -0.070   0.455   0.177
   0.00000   0.00000   0.00000   0.00000   0.00000   0.00000   0.00000   0.00000   0.00000
Generated with MDTraj, t= 58.0
 55
    1UNL     C1    1  -0.290  -0.369  -0.153
    1UNL     C2    2  -0.284  -0.228  -0.112
    1UNL     C3    3  -0.203  -0.182  -0.019
    1UNL     C4    4  -0.092  -0.264   0.048
    1UNL     N1    5   0.049  -0.210   0.071
    1UNL     C5    6   0.126  -0.221  -0.059
    1UNL     C6    7   0.095  -0.095  -0.133
    1UNL     C7    8   0.046   0.009  -0.031
    1UNL     C8    9   0.157   0.112  -0.016
    1UNL     C9   10   0.178   0.223  -0.091
    1UNL    C10   11   0.291   0.298  -0.061
    1UNL    C11   12   0.386   0.256   0.031
    1UNL    C12   13   0.367   0.140   0.102
    1UNL    C13   14   0.247   0.073   0.086
    1UNL     N2   15   0.197  -0.043   0.145
    1UNL    C14   16   0.254  -0.121   0.234
    1UNL     O1   17   0.202  -0.216   0.285
    1UNL    C15   18   0.058  -0.066   0.106
    1UNL    C16   19  -0.046  -0.030   0.213
    1UNL     O2   20  -0.001   0.093   0.271
    1UNL    C17   21  -0.190  -0.017   0.172
    1UNL    C18   22  -0.213  -0.035   0.022
    1UNL    C19   23  -0.109   0.058  -0.059
    1UNL    C20   24  -0.134   0.068  -0.211
    1UNL     O3   25  -0.151  -0.049  -0.286
    1UNL    C21   26  -0.134   0.205   0.002
    1UNL     O4   27  -0.231   0.265  -0.043
    1UNL     O5   28  -0.041   0.272   0.081
    1UNL    C22   29  -0.063   0.410   0.087
    1UNL     H1   30  -0.216  -0.376  -0.224
    1UNL     H2   31  -0.267  -0.439  -0.073
    1UNL     H3   32  -0.394  -0.392  -0.187
    1UNL     H4   33  -0.354  -0.160  -0.160
    1UNL     H5   34  -0.074  -0.358  -0.008
    1UNL     H6   35  -0.127  -0.307   0.152
    1UNL     H7   36   0.227  -0.224  -0.028
    1UNL     H8   37   0.100  -0.316  -0.103
    1UNL     H9   38   0.177  -0.050  -0.188
    1UNL    H10   39   0.025  -0.114  -0.212
    1UNL    H11   40   0.113   0.245  -0.176
    1UNL    H12   41   0.307   0.392  -0.117
    1UNL    H13   42   0.464   0.330   0.058
    1UNL    H14   43   0.447   0.110   0.170
    1UNL    H15   44   0.351  -0.112   0.264
    1UNL    H16   45  -0.032  -0.108   0.291
    1UNL    H17   46  -0.001   0.166   0.204
    1UNL    H18   47  -0.228   0.078   0.208
    1UNL    H19   48  -0.241  -0.097   0.220
    1UNL    H20   49  -0.310  -0.000  -0.006
    1UNL    H21   50  -0.064   0.134  -0.255
    1UNL    H22   51  -0.225   0.135  -0.231
    1UNL    H23   52  -0.198  -0.036  -0.373
    1UNL    H24   53   0.020   0.451   0.028
    1UNL    H25   54  -0.049   0.451   0.192
    1UNL    H26   55  -0.168   0.440   0.071
   0.00000   0.00000   0.00000   0.00000   0.00000   0.00000   0.00000   0.00000   0.00000
Generated with MDTraj, t= 59.0
 55
    1UNL     C1    1  -0.296  -0.348  -0.166
    1UNL     C2    2  -0.279  -0.212  -0.118
    1UNL     C3    3  -0.203  -0.168  -0.021
    1UNL     C4    4  -0.121  -0.266   0.065
    1UNL     N1    5   0.027  -0.226   0.069
    1UNL     C5    6   0.105  -0.241  -0.059
    1UNL     C6    7   0.101  -0.106  -0.132
    1UNL     C7    8   0.051  -0.001  -0.032
    1UNL     C8    9   0.165   0.102  -0.027
    1UNL     C9   10   0.196   0.203  -0.119
    1UNL    C10   11   0.299   0.285  -0.095
    1UNL    C11   12   0.368   0.273   0.026
    1UNL    C12   13   0.352   0.163   0.107
    1UNL    C13   14   0.244   0.077   0.083
    1UNL     N2   15   0.196  -0.041   0.148
    1UNL    C14   16   0.266  -0.101   0.250
    1UNL     O1   17   0.226  -0.204   0.293
    1UNL    C15   18   0.057  -0.082   0.107
    1UNL    C16   19  -0.047  -0.028   0.218
    1UNL     O2   20   0.018   0.085   0.288
    1UNL    C17   21  -0.193  -0.003   0.174
    1UNL    C18   22  -0.203  -0.019   0.019
    1UNL    C19   23  -0.097   0.062  -0.065
    1UNL    C20   24  -0.131   0.073  -0.210
    1UNL     O3   25  -0.127  -0.036  -0.296
    1UNL    C21   26  -0.123   0.202  -0.010
    1UNL     O4   27  -0.237   0.246  -0.027
    1UNL     O5   28  -0.033   0.272   0.064
    1UNL    C22   29  -0.102   0.375   0.132
    1UNL     H1   30  -0.206  -0.376  -0.203
    1UNL     H2   31  -0.335  -0.420  -0.094
    1UNL     H3   32  -0.369  -0.354  -0.249
    1UNL     H4   33  -0.347  -0.141  -0.162
    1UNL     H5   34  -0.129  -0.370   0.025
    1UNL     H6   35  -0.164  -0.268   0.173
    1UNL     H7   36   0.205  -0.265  -0.029
    1UNL     H8   37   0.066  -0.322  -0.119
    1UNL     H9   38   0.196  -0.084  -0.178
    1UNL    H10   39   0.035  -0.104  -0.221
    1UNL    H11   40   0.135   0.215  -0.209
    1UNL    H12   41   0.308   0.358  -0.170
    1UNL    H13   42   0.414   0.359   0.066
    1UNL    H14   43   0.408   0.147   0.199
    1UNL    H15   44   0.370  -0.056   0.268
    1UNL    H16   45  -0.046  -0.104   0.296
    1UNL    H17   46   0.038   0.156   0.223
    1UNL    H18   47  -0.214   0.099   0.210
    1UNL    H19   48  -0.258  -0.070   0.222
    1UNL    H20   49  -0.299   0.019  -0.021
    1UNL    H21   50  -0.070   0.148  -0.252
    1UNL    H22   51  -0.229   0.131  -0.216
    1UNL    H23   52  -0.163  -0.018  -0.385
    1UNL    H24   53  -0.037   0.397   0.223
    1UNL    H25   54  -0.203   0.346   0.165
    1UNL    H26   55  -0.118   0.471   0.085
   0.00000   0.00000   0.00000   0.00000   0.00000   0.00000   0.00000   0.00000   0.00000
Generated with MDTraj, t= 60.0
 55
    1UNL     C1    1  -0.252  -0.388  -0.151
    1UNL     C2    2  -0.247  -0.239  -0.126
    1UNL     C3    3  -0.193  -0.186  -0.020
    1UNL     C4    4  -0.103  -0.266   0.066
    1UNL     N1    5   0.037  -0.217   0.068
    1UNL     C5    6   0.107  -0.219  -0.060
    1UNL     C6    7   0.084  -0.089  -0.140
    1UNL     C7    8   0.036   0.013  -0.037
    1UNL     C8    9   0.155   0.104  -0.033
    1UNL     C9   10   0.189   0.210  -0.112
    1UNL    C10   11   0.301   0.284  -0.082
    1UNL    C11   12   0.384   0.254   0.024
    1UNL    C12   13   0.363   0.144   0.106
    1UNL    C13   14   0.241   0.074   0.072
    1UNL     N2   15   0.183  -0.035   0.141
    1UNL    C14   16   0.246  -0.105   0.243
    1UNL     O1   17   0.199  -0.200   0.300
    1UNL    C15   18   0.047  -0.077   0.105
    1UNL    C16   19  -0.053  -0.034   0.220
    1UNL     O2   20  -0.003   0.085   0.278
    1UNL    C17   21  -0.194  -0.003   0.169
    1UNL    C18   22  -0.210  -0.033   0.016
    1UNL    C19   23  -0.112   0.067  -0.062
    1UNL    C20   24  -0.146   0.089  -0.204
    1UNL     O3   25  -0.162  -0.029  -0.280
    1UNL    C21   26  -0.122   0.208  -0.008
    1UNL     O4   27  -0.228   0.267  -0.023
    1UNL     O5   28  -0.023   0.262   0.071
    1UNL    C22   29  -0.052   0.390   0.121
    1UNL     H1   30  -0.147  -0.424  -0.152
    1UNL     H2   31  -0.313  -0.441  -0.081
    1UNL     H3   32  -0.298  -0.412  -0.247
    1UNL     H4   33  -0.310  -0.175  -0.188
    1UNL     H5   34  -0.087  -0.372   0.029
    1UNL     H6   35  -0.143  -0.267   0.170
    1UNL     H7   36   0.212  -0.231  -0.041
    1UNL     H8   37   0.076  -0.304  -0.120
    1UNL     H9   38   0.167  -0.062  -0.203
    1UNL    H10   39   0.006  -0.110  -0.217
    1UNL    H11   40   0.131   0.238  -0.193
    1UNL    H12   41   0.340   0.378  -0.133
    1UNL    H13   42   0.473   0.320   0.038
    1UNL    H14   43   0.409   0.120   0.197
    1UNL    H15   44   0.348  -0.083   0.257
    1UNL    H16   45  -0.057  -0.110   0.298
    1UNL    H17   46  -0.014   0.157   0.215
    1UNL    H18   47  -0.206   0.105   0.187
    1UNL    H19   48  -0.265  -0.048   0.229
    1UNL    H20   49  -0.318  -0.005  -0.016
    1UNL    H21   50  -0.083   0.162  -0.250
    1UNL    H22   51  -0.242   0.148  -0.213
    1UNL    H23   52  -0.188  -0.017  -0.375
    1UNL    H24   53  -0.063   0.381   0.237
    1UNL    H25   54  -0.149   0.429   0.097
    1UNL    H26   55   0.024   0.462   0.111
   0.00000   0.00000   0.00000   0.00000   0.00000   0.00000   0.00000   0.00000   0.00000
Generated with MDTraj, t= 61.0
 55
    1UNL     C1    1  -0.234  -0.379  -0.176
    1UNL     C2    2  -0.245  -0.236  -0.123
    1UNL     C3    3  -0.192  -0.193  -0.014
    1UNL     C4    4  -0.089  -0.271   0.061
    1UNL     N1    5   0.049  -0.210   0.059
    1UNL     C5    6   0.114  -0.217  -0.073
    1UNL     C6    7   0.079  -0.085  -0.143
    1UNL     C7    8   0.043   0.015  -0.029
    1UNL     C8    9   0.152   0.117  -0.023
    1UNL     C9   10   0.188   0.215  -0.113
    1UNL    C10   11   0.305   0.281  -0.087
    1UNL    C11   12   0.395   0.241   0.016
    1UNL    C12   13   0.367   0.129   0.091
    1UNL    C13   14   0.246   0.069   0.074
    1UNL     N2   15   0.188  -0.038   0.149
    1UNL    C14   16   0.235  -0.107   0.255
    1UNL     O1   17   0.167  -0.195   0.310
    1UNL    C15   18   0.055  -0.069   0.108
    1UNL    C16   19  -0.053  -0.025   0.218
    1UNL     O2   20  -0.007   0.093   0.278
    1UNL    C17   21  -0.204  -0.020   0.168
    1UNL    C18   22  -0.209  -0.043   0.013
    1UNL    C19   23  -0.104   0.060  -0.047
    1UNL    C20   24  -0.131   0.085  -0.191
    1UNL     O3   25  -0.195  -0.021  -0.262
    1UNL    C21   26  -0.127   0.202   0.013
    1UNL     O4   27  -0.237   0.254  -0.004
    1UNL     O5   28  -0.028   0.269   0.071
    1UNL    C22   29  -0.045   0.405   0.076
    1UNL     H1   30  -0.141  -0.383  -0.246
    1UNL     H2   31  -0.230  -0.450  -0.097
    1UNL     H3   32  -0.322  -0.405  -0.230
    1UNL     H4   33  -0.309  -0.173  -0.180
    1UNL     H5   34  -0.074  -0.373   0.010
    1UNL     H6   35  -0.111  -0.291   0.166
    1UNL     H7   36   0.221  -0.214  -0.063
    1UNL     H8   37   0.088  -0.302  -0.138
    1UNL     H9   38   0.162  -0.051  -0.204
    1UNL    H10   39   0.000  -0.108  -0.215
    1UNL    H11   40   0.137   0.259  -0.203
    1UNL    H12   41   0.338   0.347  -0.159
    1UNL    H13   42   0.488   0.286   0.029
    1UNL    H14   43   0.439   0.093   0.168
    1UNL    H15   44   0.333  -0.079   0.292
    1UNL    H16   45  -0.048  -0.106   0.291
    1UNL    H17   46  -0.000   0.167   0.213
    1UNL    H18   47  -0.250   0.075   0.198
    1UNL    H19   48  -0.263  -0.092   0.217
    1UNL    H20   49  -0.321  -0.018  -0.024
    1UNL    H21   50  -0.056   0.137  -0.246
    1UNL    H22   51  -0.208   0.166  -0.198
    1UNL    H23   52  -0.206  -0.004  -0.359
    1UNL    H24   53  -0.161   0.422   0.095
    1UNL    H25   54  -0.045   0.456  -0.017
    1UNL    H26   55   0.008   0.452   0.153
   0.00000   0.00000   0.00000   0.00000   0.00000   0.00000   0.00000   0.00000   0.00000
Generated with MDTraj, t= 62.0
 55
    1UNL     C1    1  -0.265  -0.356  -0.189
    1UNL     C2    2  -0.256  -0.215  -0.126
    1UNL     C3    3  -0.190  -0.175  -0.023
    1UNL     C4    4  -0.103  -0.267   0.055
    1UNL     N1    5   0.040  -0.222   0.054
    1UNL     C5    6   0.110  -0.226  -0.074
    1UNL     C6    7   0.074  -0.096  -0.146
    1UNL     C7    8   0.038   0.002  -0.032
    1UNL     C8    9   0.153   0.102  -0.021
    1UNL     C9   10   0.208   0.191  -0.116
    1UNL    C10   11   0.324   0.267  -0.087
    1UNL    C11   12   0.396   0.241   0.021
    1UNL    C12   13   0.362   0.137   0.104
    1UNL    C13   14   0.243   0.064   0.081
    1UNL     N2   15   0.186  -0.045   0.148
    1UNL    C14   16   0.245  -0.092   0.260
    1UNL     O1   17   0.217  -0.180   0.338
    1UNL    C15   18   0.052  -0.077   0.103
    1UNL    C16   19  -0.043  -0.028   0.218
    1UNL     O2   20   0.001   0.101   0.263
    1UNL    C17   21  -0.193  -0.021   0.182
    1UNL    C18   22  -0.210  -0.034   0.024
    1UNL    C19   23  -0.111   0.064  -0.052
    1UNL    C20   24  -0.153   0.084  -0.199
    1UNL     O3   25  -0.142  -0.023  -0.287
    1UNL    C21   26  -0.128   0.196   0.015
    1UNL     O4   27  -0.246   0.222   0.038
    1UNL     O5   28  -0.036   0.298   0.032
    1UNL    C22   29  -0.094   0.404   0.091
    1UNL     H1   30  -0.159  -0.395  -0.212
    1UNL     H2   31  -0.322  -0.425  -0.129
    1UNL     H3   32  -0.317  -0.364  -0.282
    1UNL     H4   33  -0.345  -0.157  -0.156
    1UNL     H5   34  -0.111  -0.374   0.015
    1UNL     H6   35  -0.125  -0.266   0.160
    1UNL     H7   36   0.217  -0.229  -0.058
    1UNL     H8   37   0.086  -0.310  -0.144
    1UNL     H9   38   0.159  -0.062  -0.204
    1UNL    H10   39  -0.005  -0.113  -0.214
    1UNL    H11   40   0.158   0.199  -0.208
    1UNL    H12   41   0.349   0.349  -0.161
    1UNL    H13   42   0.492   0.295   0.039
    1UNL    H14   43   0.423   0.121   0.186
    1UNL    H15   44   0.328  -0.027   0.302
    1UNL    H16   45  -0.027  -0.102   0.299
    1UNL    H17   46   0.004   0.158   0.183
    1UNL    H18   47  -0.233   0.076   0.207
    1UNL    H19   48  -0.252  -0.090   0.238
    1UNL    H20   49  -0.324  -0.011  -0.006
    1UNL    H21   50  -0.099   0.166  -0.244
    1UNL    H22   51  -0.250   0.135  -0.208
    1UNL    H23   52  -0.154   0.005  -0.380
    1UNL    H24   53  -0.183   0.439   0.019
    1UNL    H25   54  -0.035   0.492   0.093
    1UNL    H26   55  -0.125   0.380   0.190
   0.00000   0.00000   0.00000   0.00000   0.00000   0.00000   0.00000   0.00000   0.00000
Generated with MDTraj, t= 63.0
 55
    1UNL     C1    1  -0.266  -0.377  -0.174
    1UNL     C2    2  -0.255  -0.226  -0.138
    1UNL     C3    3  -0.198  -0.185  -0.028
    1UNL     C4    4  -0.110  -0.267   0.059
    1UNL     N1    5   0.030  -0.213   0.077
    1UNL     C5    6   0.115  -0.230  -0.041
    1UNL     C6    7   0.087  -0.103  -0.128
    1UNL     C7    8   0.042   0.011  -0.030
    1UNL     C8    9   0.160   0.110  -0.029
    1UNL     C9   10   0.181   0.216  -0.115
    1UNL    C10   11   0.298   0.288  -0.096
    1UNL    C11   12   0.387   0.246  -0.003
    1UNL    C12   13   0.364   0.140   0.086
    1UNL    C13   14   0.245   0.069   0.072
    1UNL     N2   15   0.194  -0.034   0.157
    1UNL    C14   16   0.247  -0.118   0.253
    1UNL     O1   17   0.177  -0.192   0.311
    1UNL    C15   18   0.050  -0.065   0.111
    1UNL    C16   19  -0.046  -0.025   0.217
    1UNL     O2   20  -0.010   0.101   0.268
    1UNL    C17   21  -0.192  -0.024   0.167
    1UNL    C18   22  -0.205  -0.038   0.015
    1UNL    C19   23  -0.103   0.061  -0.056
    1UNL    C20   24  -0.141   0.087  -0.200
    1UNL     O3   25  -0.119  -0.008  -0.300
    1UNL    C21   26  -0.127   0.197   0.022
    1UNL     O4   27  -0.242   0.223   0.058
    1UNL     O5   28  -0.023   0.283   0.034
    1UNL    C22   29  -0.065   0.401   0.096
    1UNL     H1   30  -0.172  -0.414  -0.212
    1UNL     H2   31  -0.298  -0.434  -0.084
    1UNL     H3   32  -0.344  -0.406  -0.244
    1UNL     H4   33  -0.312  -0.161  -0.199
    1UNL     H5   34  -0.093  -0.367   0.012
    1UNL     H6   35  -0.157  -0.282   0.156
    1UNL     H7   36   0.221  -0.242  -0.010
    1UNL     H8   37   0.098  -0.327  -0.096
    1UNL     H9   38   0.160  -0.069  -0.201
    1UNL    H10   39  -0.001  -0.124  -0.185
    1UNL    H11   40   0.108   0.230  -0.197
    1UNL    H12   41   0.313   0.384  -0.134
    1UNL    H13   42   0.473   0.306   0.010
    1UNL    H14   43   0.448   0.111   0.154
    1UNL    H15   44   0.342  -0.097   0.282
    1UNL    H16   45  -0.035  -0.085   0.311
    1UNL    H17   46   0.007   0.163   0.193
    1UNL    H18   47  -0.238   0.064   0.197
    1UNL    H19   48  -0.248  -0.105   0.211
    1UNL    H20   49  -0.310  -0.000  -0.021
    1UNL    H21   50  -0.093   0.180  -0.228
    1UNL    H22   51  -0.242   0.126  -0.208
    1UNL    H23   52  -0.129   0.025  -0.393
    1UNL    H24   53  -0.089   0.487   0.016
    1UNL    H25   54  -0.001   0.432   0.173
    1UNL    H26   55  -0.162   0.387   0.140
   0.00000   0.00000   0.00000   0.00000   0.00000   0.00000   0.00000   0.00000   0.00000
Generated with MDTraj, t= 64.0
 55
    1UNL     C1    1  -0.221  -0.381  -0.161
    1UNL     C2    2  -0.256  -0.243  -0.120
    1UNL     C3    3  -0.196  -0.187  -0.021
    1UNL     C4    4  -0.099  -0.266   0.068
    1UNL     N1    5   0.042  -0.212   0.069
    1UNL     C5    6   0.110  -0.220  -0.064
    1UNL     C6    7   0.066  -0.101  -0.144
    1UNL     C7    8   0.036   0.011  -0.036
    1UNL     C8    9   0.159   0.109  -0.026
    1UNL     C9   10   0.202   0.202  -0.115
    1UNL    C10   11   0.316   0.269  -0.097
    1UNL    C11   12   0.393   0.247   0.020
    1UNL    C12   13   0.351   0.152   0.110
    1UNL    C13   14   0.239   0.076   0.086
    1UNL     N2   15   0.179  -0.034   0.152
    1UNL    C14   16   0.239  -0.105   0.255
    1UNL     O1   17   0.203  -0.207   0.302
    1UNL    C15   18   0.047  -0.069   0.098
    1UNL    C16   19  -0.050  -0.034   0.213
    1UNL     O2   20   0.002   0.083   0.273
    1UNL    C17   21  -0.201  -0.027   0.169
    1UNL    C18   22  -0.215  -0.035   0.012
    1UNL    C19   23  -0.118   0.074  -0.056
    1UNL    C20   24  -0.151   0.095  -0.202
    1UNL     O3   25  -0.168  -0.016  -0.291
    1UNL    C21   26  -0.131   0.211   0.004
    1UNL     O4   27  -0.239   0.265  -0.003
    1UNL     O5   28  -0.024   0.268   0.075
    1UNL    C22   29  -0.048   0.404   0.096
    1UNL     H1   30  -0.119  -0.380  -0.177
    1UNL     H2   31  -0.251  -0.450  -0.076
    1UNL     H3   32  -0.277  -0.414  -0.252
    1UNL     H4   33  -0.326  -0.187  -0.185
    1UNL     H5   34  -0.093  -0.369   0.041
    1UNL     H6   35  -0.137  -0.260   0.172
    1UNL     H7   36   0.222  -0.228  -0.054
    1UNL     H8   37   0.085  -0.322  -0.108
    1UNL     H9   38   0.138  -0.070  -0.216
    1UNL    H10   39  -0.030  -0.117  -0.196
    1UNL    H11   40   0.139   0.225  -0.198
    1UNL    H12   41   0.340   0.348  -0.170
    1UNL    H13   42   0.481   0.308   0.041
    1UNL    H14   43   0.427   0.124   0.179
    1UNL    H15   44   0.331  -0.061   0.307
    1UNL    H16   45  -0.039  -0.108   0.296
    1UNL    H17   46   0.007   0.159   0.209
    1UNL    H18   47  -0.236   0.065   0.196
    1UNL    H19   48  -0.264  -0.098   0.223
    1UNL    H20   49  -0.321  -0.007  -0.018
    1UNL    H21   50  -0.079   0.165  -0.244
    1UNL    H22   51  -0.239   0.160  -0.210
    1UNL    H23   52  -0.184   0.003  -0.387
    1UNL    H24   53  -0.130   0.449   0.020
    1UNL    H25   54   0.049   0.449   0.103
    1UNL    H26   55  -0.099   0.412   0.191
   0.00000   0.00000   0.00000   0.00000   0.00000   0.00000   0.00000   0.00000   0.00000
Generated with MDTraj, t= 65.0
 55
    1UNL     C1    1  -0.249  -0.360  -0.176
    1UNL     C2    2  -0.268  -0.232  -0.110
    1UNL     C3    3  -0.192  -0.175  -0.022
    1UNL     C4    4  -0.098  -0.258   0.070
    1UNL     N1    5   0.048  -0.219   0.075
    1UNL     C5    6   0.113  -0.231  -0.060
    1UNL     C6    7   0.085  -0.110  -0.139
    1UNL     C7    8   0.047   0.004  -0.037
    1UNL     C8    9   0.160   0.103  -0.026
    1UNL     C9   10   0.199   0.207  -0.113
    1UNL    C10   11   0.309   0.283  -0.092
    1UNL    C11   12   0.389   0.256   0.019
    1UNL    C12   13   0.357   0.156   0.106
    1UNL    C13   14   0.242   0.080   0.087
    1UNL     N2   15   0.185  -0.030   0.158
    1UNL    C14   16   0.258  -0.109   0.247
    1UNL     O1   17   0.212  -0.205   0.311
    1UNL    C15   18   0.052  -0.077   0.104
    1UNL    C16   19  -0.057  -0.034   0.214
    1UNL     O2   20  -0.008   0.082   0.275
    1UNL    C17   21  -0.205  -0.012   0.163
    1UNL    C18   22  -0.204  -0.025   0.005
    1UNL    C19   23  -0.100   0.068  -0.066
    1UNL    C20   24  -0.125   0.074  -0.219
    1UNL     O3   25  -0.211  -0.023  -0.276
    1UNL    C21   26  -0.120   0.212  -0.006
    1UNL     O4   27  -0.229   0.259  -0.028
    1UNL     O5   28  -0.026   0.266   0.080
    1UNL    C22   29  -0.074   0.390   0.123
    1UNL     H1   30  -0.149  -0.387  -0.171
    1UNL     H2   31  -0.312  -0.437  -0.126
    1UNL     H3   32  -0.281  -0.362  -0.284
    1UNL     H4   33  -0.340  -0.170  -0.157
    1UNL     H5   34  -0.101  -0.357   0.038
    1UNL     H6   35  -0.137  -0.265   0.174
    1UNL     H7   36   0.222  -0.252  -0.038
    1UNL     H8   37   0.077  -0.327  -0.106
    1UNL     H9   38   0.177  -0.089  -0.188
    1UNL    H10   39  -0.002  -0.132  -0.207
    1UNL    H11   40   0.129   0.231  -0.188
    1UNL    H12   41   0.329   0.370  -0.153
    1UNL    H13   42   0.486   0.303   0.016
    1UNL    H14   43   0.423   0.119   0.184
    1UNL    H15   44   0.364  -0.096   0.253
    1UNL    H16   45  -0.055  -0.108   0.295
    1UNL    H17   46  -0.020   0.156   0.214
    1UNL    H18   47  -0.246   0.077   0.198
    1UNL    H19   48  -0.277  -0.083   0.201
    1UNL    H20   49  -0.296   0.019  -0.030
    1UNL    H21   50  -0.035   0.089  -0.283
    1UNL    H22   51  -0.174   0.172  -0.238
    1UNL    H23   52  -0.240  -0.008  -0.368
    1UNL    H24   53  -0.132   0.444   0.036
    1UNL    H25   54   0.005   0.443   0.172
    1UNL    H26   55  -0.158   0.368   0.192
   0.00000   0.00000   0.00000   0.00000   0.00000   0.00000   0.00000   0.00000   0.00000
Generated with MDTraj, t= 66.0
 55
    1UNL     C1    1  -0.291  -0.367  -0.145
    1UNL     C2    2  -0.262  -0.227  -0.122
    1UNL     C3    3  -0.183  -0.181  -0.028
    1UNL     C4    4  -0.097  -0.260   0.072
    1UNL     N1    5   0.045  -0.222   0.071
    1UNL     C5    6   0.103  -0.237  -0.064
    1UNL     C6    7   0.083  -0.102  -0.144
    1UNL     C7    8   0.047   0.011  -0.038
    1UNL     C8    9   0.156   0.110  -0.027
    1UNL     C9   10   0.181   0.222  -0.106
    1UNL    C10   11   0.294   0.299  -0.067
    1UNL    C11   12   0.389   0.256   0.024
    1UNL    C12   13   0.368   0.142   0.098
    1UNL    C13   14   0.243   0.075   0.073
    1UNL     N2   15   0.194  -0.036   0.152
    1UNL    C14   16   0.245  -0.109   0.261
    1UNL     O1   17   0.197  -0.213   0.307
    1UNL    C15   18   0.060  -0.072   0.101
    1UNL    C16   19  -0.042  -0.029   0.206
    1UNL     O2   20   0.003   0.089   0.263
    1UNL    C17   21  -0.186  -0.014   0.153
    1UNL    C18   22  -0.198  -0.034   0.008
    1UNL    C19   23  -0.100   0.068  -0.061
    1UNL    C20   24  -0.140   0.076  -0.213
    1UNL     O3   25  -0.150  -0.039  -0.295
    1UNL    C21   26  -0.131   0.209   0.004
    1UNL     O4   27  -0.239   0.257  -0.018
    1UNL     O5   28  -0.032   0.271   0.076
    1UNL    C22   29  -0.073   0.396   0.118
    1UNL     H1   30  -0.227  -0.415  -0.225
    1UNL     H2   31  -0.265  -0.415  -0.052
    1UNL     H3   32  -0.397  -0.388  -0.159
    1UNL     H4   33  -0.316  -0.151  -0.180
    1UNL     H5   34  -0.097  -0.363   0.054
    1UNL     H6   35  -0.137  -0.259   0.177
    1UNL     H7   36   0.209  -0.260  -0.036
    1UNL     H8   37   0.064  -0.335  -0.104
    1UNL     H9   38   0.178  -0.077  -0.185
    1UNL    H10   39   0.003  -0.132  -0.216
    1UNL    H11   40   0.107   0.277  -0.170
    1UNL    H12   41   0.317   0.394  -0.111
    1UNL    H13   42   0.485   0.305   0.032
    1UNL    H14   43   0.435   0.104   0.176
    1UNL    H15   44   0.349  -0.097   0.278
    1UNL    H16   45  -0.041  -0.106   0.284
    1UNL    H17   46  -0.017   0.164   0.201
    1UNL    H18   47  -0.221   0.083   0.186
    1UNL    H19   48  -0.258  -0.080   0.196
    1UNL    H20   49  -0.291   0.010  -0.021
    1UNL    H21   50  -0.076   0.153  -0.265
    1UNL    H22   51  -0.237   0.133  -0.224
    1UNL    H23   52  -0.189  -0.018  -0.382
    1UNL    H24   53  -0.055   0.480   0.044
    1UNL    H25   54  -0.023   0.410   0.213
    1UNL    H26   55  -0.182   0.384   0.134
   0.00000   0.00000   0.00000   0.00000   0.00000   0.00000   0.00000   0.00000   0.00000
Generated with MDTraj, t= 67.0
 55
    1UNL     C1    1  -0.306  -0.373  -0.147
    1UNL     C2    2  -0.298  -0.239  -0.088
    1UNL     C3    3  -0.199  -0.181  -0.017
    1UNL     C4    4  -0.095  -0.273   0.048
    1UNL     N1    5   0.042  -0.214   0.049
    1UNL     C5    6   0.099  -0.226  -0.087
    1UNL     C6    7   0.101  -0.081  -0.143
    1UNL     C7    8   0.045   0.015  -0.033
    1UNL     C8    9   0.155   0.123  -0.017
    1UNL     C9   10   0.200   0.224  -0.097
    1UNL    C10   11   0.314   0.298  -0.063
    1UNL    C11   12   0.398   0.263   0.041
    1UNL    C12   13   0.364   0.151   0.115
    1UNL    C13   14   0.246   0.079   0.085
    1UNL     N2   15   0.200  -0.042   0.141
    1UNL    C14   16   0.246  -0.122   0.249
    1UNL     O1   17   0.189  -0.206   0.314
    1UNL    C15   18   0.061  -0.069   0.099
    1UNL    C16   19  -0.035  -0.035   0.220
    1UNL     O2   20   0.016   0.086   0.268
    1UNL    C17   21  -0.187  -0.023   0.173
    1UNL    C18   22  -0.200  -0.033   0.020
    1UNL    C19   23  -0.103   0.068  -0.063
    1UNL    C20   24  -0.141   0.078  -0.215
    1UNL     O3   25  -0.135  -0.041  -0.287
    1UNL    C21   26  -0.138   0.203  -0.002
    1UNL     O4   27  -0.253   0.240  -0.013
    1UNL     O5   28  -0.031   0.275   0.056
    1UNL    C22   29  -0.076   0.404   0.073
    1UNL     H1   30  -0.202  -0.403  -0.196
    1UNL     H2   31  -0.325  -0.437  -0.063
    1UNL     H3   32  -0.385  -0.380  -0.221
    1UNL     H4   33  -0.381  -0.176  -0.111
    1UNL     H5   34  -0.103  -0.370   0.004
    1UNL     H6   35  -0.120  -0.288   0.154
    1UNL     H7   36   0.197  -0.281  -0.078
    1UNL     H8   37   0.034  -0.297  -0.141
    1UNL     H9   38   0.207  -0.062  -0.149
    1UNL    H10   39   0.043  -0.071  -0.233
    1UNL    H11   40   0.151   0.258  -0.181
    1UNL    H12   41   0.331   0.384  -0.131
    1UNL    H13   42   0.487   0.315   0.072
    1UNL    H14   43   0.423   0.117   0.195
    1UNL    H15   44   0.358  -0.110   0.270
    1UNL    H16   45  -0.021  -0.116   0.291
    1UNL    H17   46   0.002   0.163   0.207
    1UNL    H18   47  -0.234   0.070   0.212
    1UNL    H19   48  -0.239  -0.102   0.214
    1UNL    H20   49  -0.291   0.008  -0.011
    1UNL    H21   50  -0.077   0.153  -0.273
    1UNL    H22   51  -0.240   0.127  -0.229
    1UNL    H23   52  -0.170  -0.033  -0.379
    1UNL    H24   53  -0.137   0.433  -0.012
    1UNL    H25   54   0.010   0.471   0.085
    1UNL    H26   55  -0.134   0.387   0.165
   0.00000   0.00000   0.00000   0.00000   0.00000   0.00000   0.00000   0.00000   0.00000
Generated with MDTraj, t= 68.0
 55
    1UNL     C1    1  -0.308  -0.373  -0.135
    1UNL     C2    2  -0.292  -0.232  -0.106
    1UNL     C3    3  -0.190  -0.185  -0.029
    1UNL     C4    4  -0.094  -0.280   0.046
    1UNL     N1    5   0.040  -0.213   0.059
    1UNL     C5    6   0.120  -0.218  -0.067
    1UNL     C6    7   0.098  -0.089  -0.143
    1UNL     C7    8   0.052   0.012  -0.037
    1UNL     C8    9   0.159   0.116  -0.022
    1UNL     C9   10   0.193   0.232  -0.082
    1UNL    C10   11   0.311   0.302  -0.043
    1UNL    C11   12   0.393   0.255   0.055
    1UNL    C12   13   0.362   0.134   0.112
    1UNL    C13   14   0.249   0.065   0.077
    1UNL     N2   15   0.191  -0.050   0.142
    1UNL    C14   16   0.246  -0.122   0.251
    1UNL     O1   17   0.211  -0.226   0.295
    1UNL    C15   18   0.057  -0.071   0.096
    1UNL    C16   19  -0.036  -0.023   0.213
    1UNL     O2   20   0.012   0.101   0.263
    1UNL    C17   21  -0.185  -0.022   0.166
    1UNL    C18   22  -0.195  -0.039   0.011
    1UNL    C19   23  -0.097   0.068  -0.060
    1UNL    C20   24  -0.132   0.074  -0.204
    1UNL     O3   25  -0.170  -0.047  -0.274
    1UNL    C21   26  -0.134   0.218  -0.011
    1UNL     O4   27  -0.253   0.244  -0.002
    1UNL     O5   28  -0.031   0.298   0.025
    1UNL    C22   29  -0.091   0.411   0.077
    1UNL     H1   30  -0.241  -0.439  -0.073
    1UNL     H2   31  -0.408  -0.406  -0.102
    1UNL     H3   32  -0.300  -0.407  -0.239
    1UNL     H4   33  -0.363  -0.159  -0.144
    1UNL     H5   34  -0.072  -0.370  -0.010
    1UNL     H6   35  -0.137  -0.306   0.143
    1UNL     H7   36   0.225  -0.237  -0.033
    1UNL     H8   37   0.101  -0.310  -0.124
    1UNL     H9   38   0.191  -0.061  -0.190
    1UNL    H10   39   0.015  -0.103  -0.208
    1UNL    H11   40   0.130   0.249  -0.175
    1UNL    H12   41   0.327   0.399  -0.080
    1UNL    H13   42   0.471   0.322   0.086
    1UNL    H14   43   0.428   0.093   0.191
    1UNL    H15   44   0.316  -0.072   0.308
    1UNL    H16   45  -0.013  -0.084   0.301
    1UNL    H17   46   0.025   0.166   0.188
    1UNL    H18   47  -0.222   0.078   0.195
    1UNL    H19   48  -0.240  -0.096   0.211
    1UNL    H20   49  -0.289   0.000  -0.013
    1UNL    H21   50  -0.052   0.130  -0.263
    1UNL    H22   51  -0.222   0.136  -0.211
    1UNL    H23   52  -0.207  -0.038  -0.365
    1UNL    H24   53  -0.178   0.425   0.021
    1UNL    H25   54  -0.030   0.500   0.054
    1UNL    H26   55  -0.104   0.389   0.186
   0.00000   0.00000   0.00000   0.00000   0.00000   0.00000   0.00000   0.00000   0.00000
Generated with MDTraj, t= 69.0
 55
    1UNL     C1    1  -0.293  -0.385  -0.126
    1UNL     C2    2  -0.265  -0.237  -0.122
    1UNL     C3    3  -0.196  -0.182  -0.015
    1UNL     C4    4  -0.103  -0.269   0.065
    1UNL     N1    5   0.041  -0.213   0.069
    1UNL     C5    6   0.098  -0.222  -0.067
    1UNL     C6    7   0.105  -0.086  -0.138
    1UNL     C7    8   0.044   0.014  -0.042
    1UNL     C8    9   0.162   0.112  -0.026
    1UNL     C9   10   0.201   0.224  -0.104
    1UNL    C10   11   0.310   0.296  -0.070
    1UNL    C11   12   0.385   0.259   0.042
    1UNL    C12   13   0.346   0.147   0.116
    1UNL    C13   14   0.239   0.069   0.076
    1UNL     N2   15   0.188  -0.044   0.147
    1UNL    C14   16   0.253  -0.137   0.222
    1UNL     O1   17   0.205  -0.227   0.287
    1UNL    C15   18   0.052  -0.066   0.096
    1UNL    C16   19  -0.042  -0.012   0.213
    1UNL     O2   20  -0.010   0.112   0.270
    1UNL    C17   21  -0.188  -0.015   0.171
    1UNL    C18   22  -0.206  -0.032   0.020
    1UNL    C19   23  -0.104   0.069  -0.059
    1UNL    C20   24  -0.134   0.090  -0.208
    1UNL     O3   25  -0.132  -0.031  -0.290
    1UNL    C21   26  -0.129   0.203   0.003
    1UNL     O4   27  -0.246   0.229   0.018
    1UNL     O5   28  -0.024   0.278   0.043
    1UNL    C22   29  -0.081   0.398   0.080
    1UNL     H1   30  -0.364  -0.406  -0.051
    1UNL     H2   31  -0.343  -0.414  -0.226
    1UNL     H3   32  -0.213  -0.460  -0.110
    1UNL     H4   33  -0.326  -0.166  -0.177
    1UNL     H5   34  -0.094  -0.371   0.023
    1UNL     H6   35  -0.138  -0.273   0.166
    1UNL     H7   36   0.194  -0.275  -0.074
    1UNL     H8   37   0.041  -0.294  -0.125
    1UNL     H9   38   0.203  -0.052  -0.166
    1UNL    H10   39   0.046  -0.092  -0.229
    1UNL    H11   40   0.150   0.242  -0.192
    1UNL    H12   41   0.344   0.382  -0.134
    1UNL    H13   42   0.459   0.326   0.084
    1UNL    H14   43   0.402   0.126   0.203
    1UNL    H15   44   0.363  -0.121   0.240
    1UNL    H16   45  -0.018  -0.074   0.302
    1UNL    H17   46   0.010   0.170   0.194
    1UNL    H18   47  -0.230   0.082   0.198
    1UNL    H19   48  -0.240  -0.094   0.223
    1UNL    H20   49  -0.299   0.011  -0.003
    1UNL    H21   50  -0.062   0.165  -0.253
    1UNL    H22   51  -0.231   0.133  -0.221
    1UNL    H23   52  -0.165  -0.020  -0.382
    1UNL    H24   53  -0.091   0.444  -0.009
    1UNL    H25   54  -0.010   0.459   0.142
    1UNL    H26   55  -0.176   0.373   0.132
   0.00000   0.00000   0.00000   0.00000   0.00000   0.00000   0.00000   0.00000   0.00000
Generated with MDTraj, t= 70.0
 55
    1UNL     C1    1  -0.251  -0.363  -0.173
    1UNL     C2    2  -0.273  -0.230  -0.117
    1UNL     C3    3  -0.194  -0.173  -0.017
    1UNL     C4    4  -0.102  -0.260   0.066
    1UNL     N1    5   0.039  -0.212   0.067
    1UNL     C5    6   0.118  -0.226  -0.055
    1UNL     C6    7   0.088  -0.099  -0.140
    1UNL     C7    8   0.043   0.004  -0.035
    1UNL     C8    9   0.150   0.106  -0.024
    1UNL     C9   10   0.187   0.211  -0.115
    1UNL    C10   11   0.300   0.282  -0.093
    1UNL    C11   12   0.375   0.250   0.020
    1UNL    C12   13   0.346   0.143   0.104
    1UNL    C13   14   0.230   0.072   0.086
    1UNL     N2   15   0.180  -0.042   0.154
    1UNL    C14   16   0.250  -0.111   0.251
    1UNL     O1   17   0.231  -0.230   0.283
    1UNL    C15   18   0.047  -0.067   0.106
    1UNL    C16   19  -0.052  -0.016   0.225
    1UNL     O2   20  -0.003   0.100   0.285
    1UNL    C17   21  -0.202  -0.005   0.178
    1UNL    C18   22  -0.210  -0.031   0.022
    1UNL    C19   23  -0.104   0.064  -0.053
    1UNL    C20   24  -0.132   0.084  -0.209
    1UNL     O3   25  -0.153  -0.031  -0.288
    1UNL    C21   26  -0.125   0.204   0.006
    1UNL     O4   27  -0.237   0.252  -0.006
    1UNL     O5   28  -0.016   0.272   0.050
    1UNL    C22   29  -0.069   0.393   0.098
    1UNL     H1   30  -0.306  -0.430  -0.115
    1UNL     H2   31  -0.288  -0.364  -0.283
    1UNL     H3   32  -0.143  -0.397  -0.174
    1UNL     H4   33  -0.363  -0.179  -0.152
    1UNL     H5   34  -0.102  -0.370   0.042
    1UNL     H6   35  -0.125  -0.261   0.169
    1UNL     H7   36   0.225  -0.239  -0.035
    1UNL     H8   37   0.103  -0.316  -0.110
    1UNL     H9   38   0.171  -0.067  -0.199
    1UNL    H10   39   0.008  -0.118  -0.215
    1UNL    H11   40   0.127   0.233  -0.204
    1UNL    H12   41   0.339   0.348  -0.163
    1UNL    H13   42   0.468   0.299   0.043
    1UNL    H14   43   0.407   0.122   0.192
    1UNL    H15   44   0.317  -0.057   0.319
    1UNL    H16   45  -0.051  -0.092   0.305
    1UNL    H17   46  -0.006   0.172   0.218
    1UNL    H18   47  -0.250   0.088   0.204
    1UNL    H19   48  -0.269  -0.083   0.231
    1UNL    H20   49  -0.303  -0.003  -0.014
    1UNL    H21   50  -0.043   0.134  -0.259
    1UNL    H22   51  -0.213   0.150  -0.220
    1UNL    H23   52  -0.184  -0.003  -0.378
    1UNL    H24   53  -0.115   0.429   0.017
    1UNL    H25   54   0.004   0.467   0.142
    1UNL    H26   55  -0.148   0.360   0.171
   0.00000   0.00000   0.00000   0.00000   0.00000   0.00000   0.00000   0.00000   0.00000
Generated with MDTraj, t= 71.0
 55
    1UNL     C1    1  -0.231  -0.364  -0.200
    1UNL     C2    2  -0.255  -0.239  -0.136
    1UNL     C3    3  -0.198  -0.190  -0.020
    1UNL     C4    4  -0.109  -0.262   0.080
    1UNL     N1    5   0.033  -0.213   0.070
    1UNL     C5    6   0.099  -0.237  -0.056
    1UNL     C6    7   0.078  -0.101  -0.131
    1UNL     C7    8   0.037   0.011  -0.031
    1UNL     C8    9   0.150   0.107  -0.032
    1UNL     C9   10   0.189   0.206  -0.120
    1UNL    C10   11   0.310   0.280  -0.094
    1UNL    C11   12   0.393   0.243   0.009
    1UNL    C12   13   0.360   0.139   0.095
    1UNL    C13   14   0.240   0.078   0.077
    1UNL     N2   15   0.189  -0.036   0.145
    1UNL    C14   16   0.256  -0.111   0.242
    1UNL     O1   17   0.212  -0.194   0.318
    1UNL    C15   18   0.050  -0.066   0.110
    1UNL    C16   19  -0.041  -0.028   0.226
    1UNL     O2   20  -0.005   0.092   0.292
    1UNL    C17   21  -0.190  -0.021   0.171
    1UNL    C18   22  -0.216  -0.040   0.016
    1UNL    C19   23  -0.112   0.065  -0.052
    1UNL    C20   24  -0.147   0.091  -0.206
    1UNL     O3   25  -0.167  -0.026  -0.276
    1UNL    C21   26  -0.126   0.208   0.006
    1UNL     O4   27  -0.230   0.267  -0.022
    1UNL     O5   28  -0.026   0.271   0.073
    1UNL    C22   29  -0.071   0.396   0.109
    1UNL     H1   30  -0.181  -0.439  -0.133
    1UNL     H2   31  -0.326  -0.410  -0.233
    1UNL     H3   32  -0.169  -0.360  -0.295
    1UNL     H4   33  -0.304  -0.157  -0.187
    1UNL     H5   34  -0.106  -0.373   0.057
    1UNL     H6   35  -0.144  -0.255   0.177
    1UNL     H7   36   0.200  -0.268  -0.041
    1UNL     H8   37   0.060  -0.312  -0.120
    1UNL     H9   38   0.170  -0.078  -0.183
    1UNL    H10   39   0.000  -0.118  -0.207
    1UNL    H11   40   0.122   0.242  -0.202
    1UNL    H12   41   0.347   0.359  -0.164
    1UNL    H13   42   0.489   0.294   0.012
    1UNL    H14   43   0.414   0.129   0.187
    1UNL    H15   44   0.357  -0.092   0.247
    1UNL    H16   45  -0.034  -0.111   0.299
    1UNL    H17   46  -0.007   0.169   0.229
    1UNL    H18   47  -0.221   0.081   0.190
    1UNL    H19   48  -0.265  -0.079   0.242
    1UNL    H20   49  -0.316  -0.015  -0.005
    1UNL    H21   50  -0.060   0.143  -0.253
    1UNL    H22   51  -0.229   0.157  -0.209
    1UNL    H23   52  -0.211  -0.001  -0.362
    1UNL    H24   53  -0.120   0.439   0.031
    1UNL    H25   54   0.023   0.449   0.146
    1UNL    H26   55  -0.144   0.385   0.194
   0.00000   0.00000   0.00000   0.00000   0.00000   0.00000   0.00000   0.00000   0.00000
Generated with MDTraj, t= 72.0
 55
    1UNL     C1    1  -0.259  -0.375  -0.172
    1UNL     C2    2  -0.249  -0.241  -0.115
    1UNL     C3    3  -0.180  -0.181  -0.013
    1UNL     C4    4  -0.098  -0.269   0.064
    1UNL     N1    5   0.040  -0.215   0.064
    1UNL     C5    6   0.110  -0.228  -0.063
    1UNL     C6    7   0.078  -0.101  -0.147
    1UNL     C7    8   0.041   0.013  -0.043
    1UNL     C8    9   0.158   0.109  -0.035
    1UNL     C9   10   0.186   0.214  -0.112
    1UNL    C10   11   0.304   0.282  -0.092
    1UNL    C11   12   0.396   0.240   0.002
    1UNL    C12   13   0.369   0.130   0.085
    1UNL    C13   14   0.243   0.071   0.070
    1UNL     N2   15   0.196  -0.040   0.145
    1UNL    C14   16   0.221  -0.096   0.274
    1UNL     O1   17   0.169  -0.192   0.318
    1UNL    C15   18   0.056  -0.067   0.099
    1UNL    C16   19  -0.037  -0.026   0.216
    1UNL     O2   20   0.010   0.089   0.278
    1UNL    C17   21  -0.182  -0.017   0.166
    1UNL    C18   22  -0.199  -0.030   0.015
    1UNL    C19   23  -0.106   0.069  -0.059
    1UNL    C20   24  -0.154   0.087  -0.201
    1UNL     O3   25  -0.142  -0.016  -0.290
    1UNL    C21   26  -0.137   0.210   0.004
    1UNL     O4   27  -0.254   0.249   0.017
    1UNL     O5   28  -0.030   0.271   0.060
    1UNL    C22   29  -0.068   0.393   0.119
    1UNL     H1   30  -0.272  -0.456  -0.087
    1UNL     H2   31  -0.348  -0.376  -0.233
    1UNL     H3   32  -0.174  -0.405  -0.238
    1UNL     H4   33  -0.291  -0.159  -0.172
    1UNL     H5   34  -0.090  -0.371   0.015
    1UNL     H6   35  -0.143  -0.282   0.158
    1UNL     H7   36   0.217  -0.230  -0.048
    1UNL     H8   37   0.080  -0.314  -0.117
    1UNL     H9   38   0.166  -0.076  -0.205
    1UNL    H10   39  -0.001  -0.135  -0.212
    1UNL    H11   40   0.126   0.253  -0.185
    1UNL    H12   41   0.323   0.358  -0.162
    1UNL    H13   42   0.486   0.297   0.022
    1UNL    H14   43   0.444   0.096   0.153
    1UNL    H15   44   0.318  -0.061   0.326
    1UNL    H16   45  -0.034  -0.100   0.299
    1UNL    H17   46   0.010   0.155   0.207
    1UNL    H18   47  -0.219   0.086   0.197
    1UNL    H19   48  -0.249  -0.091   0.223
    1UNL    H20   49  -0.301  -0.013  -0.003
    1UNL    H21   50  -0.099   0.175  -0.244
    1UNL    H22   51  -0.259   0.106  -0.192
    1UNL    H23   52  -0.191   0.007  -0.372
    1UNL    H24   53  -0.054   0.471   0.050
    1UNL    H25   54  -0.012   0.403   0.219
    1UNL    H26   55  -0.177   0.400   0.140
   0.00000   0.00000   0.00000   0.00000   0.00000   0.00000   0.00000   0.00000   0.00000
Generated with MDTraj, t= 73.0
 55
    1UNL     C1    1  -0.287  -0.361  -0.172
    1UNL     C2    2  -0.281  -0.229  -0.119
    1UNL     C3    3  -0.182  -0.182  -0.032
    1UNL     C4    4  -0.091  -0.267   0.054
    1UNL     N1    5   0.043  -0.219   0.059
    1UNL     C5    6   0.109  -0.225  -0.073
    1UNL     C6    7   0.082  -0.095  -0.143
    1UNL     C7    8   0.042   0.006  -0.032
    1UNL     C8    9   0.166   0.105  -0.031
    1UNL     C9   10   0.199   0.212  -0.110
    1UNL    C10   11   0.318   0.276  -0.091
    1UNL    C11   12   0.401   0.252   0.015
    1UNL    C12   13   0.365   0.150   0.102
    1UNL    C13   14   0.244   0.072   0.077
    1UNL     N2   15   0.189  -0.042   0.147
    1UNL    C14   16   0.252  -0.107   0.255
    1UNL     O1   17   0.214  -0.181   0.344
    1UNL    C15   18   0.052  -0.080   0.103
    1UNL    C16   19  -0.050  -0.031   0.212
    1UNL     O2   20  -0.017   0.097   0.270
    1UNL    C17   21  -0.197  -0.031   0.152
    1UNL    C18   22  -0.203  -0.037   0.002
    1UNL    C19   23  -0.110   0.067  -0.058
    1UNL    C20   24  -0.132   0.091  -0.212
    1UNL     O3   25  -0.159  -0.033  -0.272
    1UNL    C21   26  -0.136   0.199   0.013
    1UNL     O4   27  -0.249   0.230   0.048
    1UNL     O5   28  -0.031   0.286   0.042
    1UNL    C22   29  -0.068   0.407   0.103
    1UNL     H1   30  -0.371  -0.413  -0.115
    1UNL     H2   31  -0.295  -0.363  -0.282
    1UNL     H3   32  -0.194  -0.421  -0.144
    1UNL     H4   33  -0.346  -0.155  -0.166
    1UNL     H5   34  -0.088  -0.371   0.023
    1UNL     H6   35  -0.117  -0.277   0.157
    1UNL     H7   36   0.214  -0.231  -0.052
    1UNL     H8   37   0.074  -0.312  -0.124
    1UNL     H9   38   0.177  -0.066  -0.188
    1UNL    H10   39   0.007  -0.107  -0.218
    1UNL    H11   40   0.128   0.224  -0.196
    1UNL    H12   41   0.332   0.365  -0.155
    1UNL    H13   42   0.487   0.313   0.033
    1UNL    H14   43   0.427   0.115   0.184
    1UNL    H15   44   0.355  -0.096   0.256
    1UNL    H16   45  -0.050  -0.090   0.306
    1UNL    H17   46  -0.029   0.164   0.198
    1UNL    H18   47  -0.245   0.076   0.176
    1UNL    H19   48  -0.260  -0.108   0.205
    1UNL    H20   49  -0.298  -0.013  -0.034
    1UNL    H21   50  -0.036   0.129  -0.259
    1UNL    H22   51  -0.220   0.152  -0.233
    1UNL    H23   52  -0.193  -0.024  -0.364
    1UNL    H24   53  -0.123   0.467   0.030
    1UNL    H25   54   0.020   0.456   0.151
    1UNL    H26   55  -0.141   0.399   0.185
   0.00000   0.00000   0.00000   0.00000   0.00000   0.00000   0.00000   0.00000   0.00000
Generated with MDTraj, t= 74.0
 55
    1UNL     C1    1  -0.263  -0.364  -0.160
    1UNL     C2    2  -0.267  -0.229  -0.112
    1UNL     C3    3  -0.188  -0.180  -0.014
    1UNL     C4    4  -0.092  -0.266   0.054
    1UNL     N1    5   0.047  -0.219   0.066
    1UNL     C5    6   0.112  -0.236  -0.068
    1UNL     C6    7   0.075  -0.101  -0.140
    1UNL     C7    8   0.044   0.013  -0.034
    1UNL     C8    9   0.163   0.114  -0.028
    1UNL     C9   10   0.195   0.222  -0.111
    1UNL    C10   11   0.317   0.284  -0.089
    1UNL    C11   12   0.384   0.247   0.034
    1UNL    C12   13   0.351   0.149   0.118
    1UNL    C13   14   0.239   0.079   0.085
    1UNL     N2   15   0.194  -0.042   0.148
    1UNL    C14   16   0.237  -0.110   0.258
    1UNL     O1   17   0.201  -0.222   0.298
    1UNL    C15   18   0.057  -0.071   0.100
    1UNL    C16   19  -0.039  -0.034   0.218
    1UNL     O2   20  -0.003   0.090   0.259
    1UNL    C17   21  -0.196  -0.023   0.173
    1UNL    C18   22  -0.203  -0.031   0.021
    1UNL    C19   23  -0.104   0.064  -0.052
    1UNL    C20   24  -0.150   0.093  -0.204
    1UNL     O3   25  -0.153  -0.022  -0.291
    1UNL    C21   26  -0.137   0.199   0.014
    1UNL     O4   27  -0.253   0.234   0.026
    1UNL     O5   28  -0.032   0.281   0.040
    1UNL    C22   29  -0.052   0.416   0.067
    1UNL     H1   30  -0.270  -0.433  -0.075
    1UNL     H2   31  -0.348  -0.385  -0.233
    1UNL     H3   32  -0.170  -0.398  -0.216
    1UNL     H4   33  -0.329  -0.161  -0.164
    1UNL     H5   34  -0.088  -0.362   0.014
    1UNL     H6   35  -0.137  -0.282   0.152
    1UNL     H7   36   0.217  -0.256  -0.045
    1UNL     H8   37   0.069  -0.324  -0.109
    1UNL     H9   38   0.165  -0.073  -0.192
    1UNL    H10   39  -0.004  -0.115  -0.213
    1UNL    H11   40   0.126   0.248  -0.190
    1UNL    H12   41   0.361   0.356  -0.156
    1UNL    H13   42   0.463   0.319   0.051
    1UNL    H14   43   0.417   0.117   0.196
    1UNL    H15   44   0.304  -0.057   0.329
    1UNL    H16   45  -0.023  -0.100   0.304
    1UNL    H17   46  -0.012   0.159   0.191
    1UNL    H18   47  -0.240   0.080   0.215
    1UNL    H19   48  -0.259  -0.105   0.219
    1UNL    H20   49  -0.295   0.001  -0.015
    1UNL    H21   50  -0.081   0.172  -0.246
    1UNL    H22   51  -0.257   0.123  -0.198
    1UNL    H23   52  -0.193   0.004  -0.378
    1UNL    H24   53  -0.163   0.443   0.059
    1UNL    H25   54   0.009   0.476   0.001
    1UNL    H26   55  -0.016   0.446   0.165
   0.00000   0.00000   0.00000   0.00000   0.00000   0.00000   0.00000   0.00000   0.00000
Generated with MDTraj, t= 75.0
 55
    1UNL     C1    1  -0.239  -0.369  -0.167
    1UNL     C2    2  -0.251  -0.229  -0.124
    1UNL     C3    3  -0.185  -0.175  -0.019
    1UNL     C4    4  -0.107  -0.263   0.075
    1UNL     N1    5   0.028  -0.223   0.084
    1UNL     C5    6   0.098  -0.235  -0.051
    1UNL     C6    7   0.085  -0.109  -0.130
    1UNL     C7    8   0.043   0.004  -0.034
    1UNL     C8    9   0.158   0.112  -0.026
    1UNL     C9   10   0.187   0.228  -0.101
    1UNL    C10   11   0.299   0.303  -0.075
    1UNL    C11   12   0.385   0.259   0.027
    1UNL    C12   13   0.352   0.150   0.106
    1UNL    C13   14   0.246   0.066   0.078
    1UNL     N2   15   0.192  -0.049   0.143
    1UNL    C14   16   0.253  -0.141   0.224
    1UNL     O1   17   0.193  -0.223   0.291
    1UNL    C15   18   0.051  -0.072   0.105
    1UNL    C16   19  -0.042  -0.023   0.217
    1UNL     O2   20   0.000   0.097   0.274
    1UNL    C17   21  -0.192  -0.015   0.168
    1UNL    C18   22  -0.212  -0.033   0.020
    1UNL    C19   23  -0.106   0.061  -0.056
    1UNL    C20   24  -0.151   0.083  -0.208
    1UNL     O3   25  -0.156  -0.034  -0.284
    1UNL    C21   26  -0.127   0.207  -0.002
    1UNL     O4   27  -0.242   0.246   0.003
    1UNL     O5   28  -0.026   0.293   0.044
    1UNL    C22   29  -0.058   0.421   0.088
    1UNL     H1   30  -0.178  -0.422  -0.098
    1UNL     H2   31  -0.341  -0.425  -0.178
    1UNL     H3   32  -0.187  -0.388  -0.266
    1UNL     H4   33  -0.317  -0.163  -0.179
    1UNL     H5   34  -0.114  -0.361   0.049
    1UNL     H6   35  -0.153  -0.258   0.174
    1UNL     H7   36   0.200  -0.265  -0.018
    1UNL     H8   37   0.062  -0.322  -0.104
    1UNL     H9   38   0.171  -0.081  -0.189
    1UNL    H10   39   0.007  -0.127  -0.209
    1UNL    H11   40   0.116   0.271  -0.168
    1UNL    H12   41   0.328   0.386  -0.138
    1UNL    H13   42   0.478   0.306   0.054
    1UNL    H14   43   0.400   0.135   0.202
    1UNL    H15   44   0.363  -0.145   0.233
    1UNL    H16   45  -0.029  -0.103   0.292
    1UNL    H17   46   0.012   0.168   0.204
    1UNL    H18   47  -0.229   0.088   0.196
    1UNL    H19   48  -0.260  -0.086   0.229
    1UNL    H20   49  -0.309  -0.005  -0.002
    1UNL    H21   50  -0.067   0.147  -0.249
    1UNL    H22   51  -0.251   0.133  -0.200
    1UNL    H23   52  -0.197  -0.010  -0.370
    1UNL    H24   53  -0.135   0.415   0.177
    1UNL    H25   54  -0.108   0.470   0.008
    1UNL    H26   55   0.026   0.478   0.114
   0.00000   0.00000   0.00000   0.00000   0.00000   0.00000   0.00000   0.00000   0.00000
Generated with MDTraj, t= 76.0
 55
    1UNL     C1    1  -0.253  -0.360  -0.179
    1UNL     C2    2  -0.266  -0.226  -0.114
    1UNL     C3    3  -0.203  -0.170  -0.010
    1UNL     C4    4  -0.119  -0.259   0.072
    1UNL     N1    5   0.022  -0.220   0.071
    1UNL     C5    6   0.101  -0.235  -0.061
    1UNL     C6    7   0.087  -0.105  -0.138
    1UNL     C7    8   0.044   0.008  -0.040
    1UNL     C8    9   0.156   0.111  -0.014
    1UNL     C9   10   0.189   0.213  -0.101
    1UNL    C10   11   0.310   0.284  -0.083
    1UNL    C11   12   0.389   0.251   0.019
    1UNL    C12   13   0.360   0.141   0.103
    1UNL    C13   14   0.242   0.071   0.086
    1UNL     N2   15   0.188  -0.045   0.148
    1UNL    C14   16   0.252  -0.109   0.259
    1UNL     O1   17   0.250  -0.221   0.294
    1UNL    C15   18   0.046  -0.071   0.103
    1UNL    C16   19  -0.045  -0.018   0.220
    1UNL     O2   20   0.001   0.105   0.276
    1UNL    C17   21  -0.190  -0.009   0.169
    1UNL    C18   22  -0.211  -0.025   0.017
    1UNL    C19   23  -0.106   0.065  -0.063
    1UNL    C20   24  -0.139   0.082  -0.217
    1UNL     O3   25  -0.148  -0.036  -0.291
    1UNL    C21   26  -0.131   0.203  -0.010
    1UNL     O4   27  -0.242   0.245  -0.023
    1UNL     O5   28  -0.037   0.274   0.062
    1UNL    C22   29  -0.079   0.395   0.117
    1UNL     H1   30  -0.183  -0.426  -0.121
    1UNL     H2   31  -0.355  -0.411  -0.192
    1UNL     H3   32  -0.208  -0.353  -0.281
    1UNL     H4   33  -0.332  -0.164  -0.169
    1UNL     H5   34  -0.130  -0.362   0.038
    1UNL     H6   35  -0.146  -0.266   0.177
    1UNL     H7   36   0.207  -0.269  -0.052
    1UNL     H8   37   0.045  -0.314  -0.113
    1UNL     H9   38   0.170  -0.079  -0.203
    1UNL    H10   39   0.002  -0.117  -0.208
    1UNL    H11   40   0.126   0.237  -0.192
    1UNL    H12   41   0.345   0.365  -0.147
    1UNL    H13   42   0.491   0.283   0.033
    1UNL    H14   43   0.408   0.125   0.197
    1UNL    H15   44   0.309  -0.042   0.311
    1UNL    H16   45  -0.033  -0.094   0.298
    1UNL    H17   46   0.013   0.166   0.200
    1UNL    H18   47  -0.233   0.086   0.199
    1UNL    H19   48  -0.259  -0.089   0.221
    1UNL    H20   49  -0.306   0.011   0.001
    1UNL    H21   50  -0.059   0.148  -0.260
    1UNL    H22   51  -0.243   0.126  -0.213
    1UNL    H23   52  -0.160  -0.008  -0.384
    1UNL    H24   53   0.007   0.440   0.184
    1UNL    H25   54  -0.157   0.371   0.187
    1UNL    H26   55  -0.106   0.460   0.043
   0.00000   0.00000   0.00000   0.00000   0.00000   0.00000   0.00000   0.00000   0.00000
Generated with MDTraj, t= 77.0
 55
    1UNL     C1    1  -0.285  -0.361  -0.162
    1UNL     C2    2  -0.273  -0.224  -0.119
    1UNL     C3    3  -0.197  -0.183  -0.021
    1UNL     C4    4  -0.095  -0.263   0.053
    1UNL     N1    5   0.043  -0.205   0.064
    1UNL     C5    6   0.132  -0.218  -0.056
    1UNL     C6    7   0.088  -0.100  -0.142
    1UNL     C7    8   0.049   0.014  -0.035
    1UNL     C8    9   0.159   0.115  -0.024
    1UNL     C9   10   0.190   0.204  -0.125
    1UNL    C10   11   0.308   0.279  -0.095
    1UNL    C11   12   0.394   0.244   0.009
    1UNL    C12   13   0.356   0.152   0.102
    1UNL    C13   14   0.244   0.082   0.082
    1UNL     N2   15   0.191  -0.038   0.150
    1UNL    C14   16   0.247  -0.132   0.236
    1UNL     O1   17   0.189  -0.208   0.308
    1UNL    C15   18   0.058  -0.067   0.106
    1UNL    C16   19  -0.045  -0.028   0.224
    1UNL     O2   20  -0.016   0.092   0.294
    1UNL    C17   21  -0.191  -0.017   0.169
    1UNL    C18   22  -0.207  -0.034   0.013
    1UNL    C19   23  -0.100   0.061  -0.053
    1UNL    C20   24  -0.129   0.083  -0.205
    1UNL     O3   25  -0.143  -0.038  -0.283
    1UNL    C21   26  -0.132   0.205   0.004
    1UNL     O4   27  -0.235   0.258  -0.026
    1UNL     O5   28  -0.043   0.265   0.084
    1UNL    C22   29  -0.081   0.400   0.114
    1UNL     H1   30  -0.257  -0.433  -0.073
    1UNL     H2   31  -0.386  -0.382  -0.203
    1UNL     H3   32  -0.213  -0.385  -0.245
    1UNL     H4   33  -0.333  -0.150  -0.173
    1UNL     H5   34  -0.069  -0.361  -0.002
    1UNL     H6   35  -0.136  -0.290   0.147
    1UNL     H7   36   0.240  -0.217  -0.023
    1UNL     H8   37   0.116  -0.312  -0.117
    1UNL     H9   38   0.155  -0.067  -0.221
    1UNL    H10   39   0.002  -0.128  -0.204
    1UNL    H11   40   0.139   0.223  -0.213
    1UNL    H12   41   0.335   0.354  -0.167
    1UNL    H13   42   0.486   0.302   0.029
    1UNL    H14   43   0.421   0.121   0.184
    1UNL    H15   44   0.358  -0.119   0.261
    1UNL    H16   45  -0.033  -0.099   0.308
    1UNL    H17   46  -0.021   0.161   0.226
    1UNL    H18   47  -0.224   0.081   0.196
    1UNL    H19   48  -0.269  -0.088   0.216
    1UNL    H20   49  -0.297   0.011  -0.011
    1UNL    H21   50  -0.043   0.141  -0.246
    1UNL    H22   51  -0.228   0.134  -0.215
    1UNL    H23   52  -0.121  -0.016  -0.377
    1UNL    H24   53  -0.085   0.471   0.023
    1UNL    H25   54  -0.002   0.437   0.180
    1UNL    H26   55  -0.176   0.396   0.150
   0.00000   0.00000   0.00000   0.00000   0.00000   0.00000   0.00000   0.00000   0.00000
Generated with MDTraj, t= 78.0
 55
    1UNL     C1    1  -0.286  -0.392  -0.143
    1UNL     C2    2  -0.259  -0.248  -0.123
    1UNL     C3    3  -0.191  -0.186  -0.028
    1UNL     C4    4  -0.096  -0.263   0.061
    1UNL     N1    5   0.043  -0.218   0.049
    1UNL     C5    6   0.113  -0.223  -0.083
    1UNL     C6    7   0.084  -0.090  -0.155
    1UNL     C7    8   0.039   0.008  -0.040
    1UNL     C8    9   0.153   0.118  -0.027
    1UNL     C9   10   0.196   0.230  -0.098
    1UNL    C10   11   0.316   0.290  -0.077
    1UNL    C11   12   0.402   0.242   0.026
    1UNL    C12   13   0.362   0.135   0.106
    1UNL    C13   14   0.240   0.076   0.080
    1UNL     N2   15   0.188  -0.037   0.147
    1UNL    C14   16   0.227  -0.088   0.268
    1UNL     O1   17   0.200  -0.200   0.317
    1UNL    C15   18   0.056  -0.078   0.097
    1UNL    C16   19  -0.049  -0.030   0.209
    1UNL     O2   20  -0.006   0.088   0.283
    1UNL    C17   21  -0.195  -0.011   0.161
    1UNL    C18   22  -0.208  -0.035   0.008
    1UNL    C19   23  -0.111   0.065  -0.062
    1UNL    C20   24  -0.146   0.085  -0.210
    1UNL     O3   25  -0.161  -0.035  -0.279
    1UNL    C21   26  -0.124   0.204  -0.000
    1UNL     O4   27  -0.233   0.256  -0.004
    1UNL     O5   28  -0.015   0.274   0.056
    1UNL    C22   29  -0.058   0.398   0.119
    1UNL     H1   30  -0.343  -0.439  -0.056
    1UNL     H2   31  -0.344  -0.407  -0.237
    1UNL     H3   32  -0.192  -0.457  -0.155
    1UNL     H4   33  -0.326  -0.186  -0.178
    1UNL     H5   34  -0.105  -0.372   0.025
    1UNL     H6   35  -0.127  -0.255   0.162
    1UNL     H7   36   0.225  -0.233  -0.068
    1UNL     H8   37   0.072  -0.300  -0.154
    1UNL     H9   38   0.175  -0.042  -0.192
    1UNL    H10   39   0.023  -0.094  -0.243
    1UNL    H11   40   0.126   0.265  -0.176
    1UNL    H12   41   0.336   0.388  -0.114
    1UNL    H13   42   0.494   0.290   0.044
    1UNL    H14   43   0.429   0.079   0.167
    1UNL    H15   44   0.294  -0.034   0.327
    1UNL    H16   45  -0.050  -0.106   0.290
    1UNL    H17   46  -0.012   0.160   0.215
    1UNL    H18   47  -0.224   0.092   0.180
    1UNL    H19   48  -0.263  -0.082   0.211
    1UNL    H20   49  -0.301  -0.005  -0.025
    1UNL    H21   50  -0.065   0.143  -0.260
    1UNL    H22   51  -0.244   0.131  -0.219
    1UNL    H23   52  -0.170  -0.015  -0.375
    1UNL    H24   53  -0.169   0.417   0.100
    1UNL    H25   54   0.008   0.479   0.085
    1UNL    H26   55  -0.051   0.379   0.221
   0.00000   0.00000   0.00000   0.00000   0.00000   0.00000   0.00000   0.00000   0.00000
Generated with MDTraj, t= 79.0
 55
    1UNL     C1    1  -0.276  -0.375  -0.177
    1UNL     C2    2  -0.274  -0.235  -0.116
    1UNL     C3    3  -0.199  -0.181  -0.021
    1UNL     C4    4  -0.098  -0.267   0.061
    1UNL     N1    5   0.039  -0.225   0.062
    1UNL     C5    6   0.106  -0.236  -0.068
    1UNL     C6    7   0.082  -0.105  -0.150
    1UNL     C7    8   0.052   0.010  -0.046
    1UNL     C8    9   0.170   0.103  -0.031
    1UNL     C9   10   0.195   0.218  -0.105
    1UNL    C10   11   0.311   0.287  -0.076
    1UNL    C11   12   0.386   0.260   0.041
    1UNL    C12   13   0.358   0.147   0.120
    1UNL    C13   14   0.247   0.065   0.076
    1UNL     N2   15   0.197  -0.052   0.140
    1UNL    C14   16   0.241  -0.116   0.252
    1UNL     O1   17   0.180  -0.182   0.334
    1UNL    C15   18   0.057  -0.074   0.098
    1UNL    C16   19  -0.040  -0.024   0.213
    1UNL     O2   20   0.010   0.099   0.264
    1UNL    C17   21  -0.189  -0.015   0.170
    1UNL    C18   22  -0.203  -0.034   0.018
    1UNL    C19   23  -0.098   0.065  -0.058
    1UNL    C20   24  -0.133   0.092  -0.198
    1UNL     O3   25  -0.167  -0.015  -0.282
    1UNL    C21   26  -0.123   0.202   0.004
    1UNL     O4   27  -0.239   0.228   0.020
    1UNL     O5   28  -0.026   0.286   0.030
    1UNL    C22   29  -0.080   0.399   0.093
    1UNL     H1   30  -0.273  -0.456  -0.102
    1UNL     H2   31  -0.368  -0.383  -0.245
    1UNL     H3   32  -0.184  -0.390  -0.246
    1UNL     H4   33  -0.347  -0.175  -0.169
    1UNL     H5   34  -0.106  -0.374   0.021
    1UNL     H6   35  -0.123  -0.278   0.164
    1UNL     H7   36   0.219  -0.230  -0.057
    1UNL     H8   37   0.067  -0.325  -0.127
    1UNL     H9   38   0.170  -0.080  -0.210
    1UNL    H10   39   0.002  -0.109  -0.222
    1UNL    H11   40   0.120   0.238  -0.182
    1UNL    H12   41   0.332   0.384  -0.124
    1UNL    H13   42   0.475   0.327   0.060
    1UNL    H14   43   0.434   0.114   0.190
    1UNL    H15   44   0.349  -0.122   0.260
    1UNL    H16   45  -0.036  -0.102   0.292
    1UNL    H17   46   0.010   0.170   0.197
    1UNL    H18   47  -0.227   0.085   0.200
    1UNL    H19   48  -0.245  -0.089   0.217
    1UNL    H20   49  -0.297  -0.000  -0.013
    1UNL    H21   50  -0.047   0.142  -0.243
    1UNL    H22   51  -0.219   0.156  -0.189
    1UNL    H23   52  -0.230   0.014  -0.351
    1UNL    H24   53  -0.189   0.384   0.113
    1UNL    H25   54  -0.055   0.487   0.033
    1UNL    H26   55  -0.026   0.400   0.187
   0.00000   0.00000   0.00000   0.00000   0.00000   0.00000   0.00000   0.00000   0.00000
Generated with MDTraj, t= 80.0
 55
    1UNL     C1    1  -0.257  -0.354  -0.178
    1UNL     C2    2  -0.275  -0.216  -0.127
    1UNL     C3    3  -0.202  -0.185  -0.025
    1UNL     C4    4  -0.103  -0.272   0.053
    1UNL     N1    5   0.038  -0.217   0.067
    1UNL     C5    6   0.114  -0.224  -0.063
    1UNL     C6    7   0.085  -0.098  -0.140
    1UNL     C7    8   0.040   0.009  -0.034
    1UNL     C8    9   0.157   0.105  -0.025
    1UNL     C9   10   0.187   0.212  -0.112
    1UNL    C10   11   0.301   0.290  -0.083
    1UNL    C11   12   0.391   0.248   0.020
    1UNL    C12   13   0.354   0.146   0.109
    1UNL    C13   14   0.246   0.062   0.077
    1UNL     N2   15   0.192  -0.049   0.150
    1UNL    C14   16   0.236  -0.111   0.266
    1UNL     O1   17   0.201  -0.216   0.306
    1UNL    C15   18   0.053  -0.074   0.107
    1UNL    C16   19  -0.043  -0.028   0.218
    1UNL     O2   20  -0.001   0.098   0.267
    1UNL    C17   21  -0.194  -0.022   0.173
    1UNL    C18   22  -0.213  -0.036   0.018
    1UNL    C19   23  -0.107   0.064  -0.054
    1UNL    C20   24  -0.145   0.089  -0.196
    1UNL     O3   25  -0.128  -0.027  -0.271
    1UNL    C21   26  -0.131   0.203   0.014
    1UNL     O4   27  -0.244   0.240   0.040
    1UNL     O5   28  -0.017   0.280   0.035
    1UNL    C22   29  -0.064   0.409   0.059
    1UNL     H1   30  -0.269  -0.436  -0.105
    1UNL     H2   31  -0.329  -0.371  -0.268
    1UNL     H3   32  -0.154  -0.363  -0.222
    1UNL     H4   33  -0.322  -0.140  -0.186
    1UNL     H5   34  -0.095  -0.376   0.012
    1UNL     H6   35  -0.148  -0.294   0.148
    1UNL     H7   36   0.221  -0.235  -0.031
    1UNL     H8   37   0.076  -0.305  -0.132
    1UNL     H9   38   0.164  -0.058  -0.203
    1UNL    H10   39   0.004  -0.121  -0.208
    1UNL    H11   40   0.108   0.248  -0.171
    1UNL    H12   41   0.310   0.368  -0.154
    1UNL    H13   42   0.471   0.311   0.040
    1UNL    H14   43   0.419   0.134   0.194
    1UNL    H15   44   0.310  -0.051   0.327
    1UNL    H16   45  -0.032  -0.099   0.302
    1UNL    H17   46   0.003   0.162   0.191
    1UNL    H18   47  -0.230   0.077   0.208
    1UNL    H19   48  -0.252  -0.089   0.226
    1UNL    H20   49  -0.310  -0.002  -0.007
    1UNL    H21   50  -0.081   0.168  -0.233
    1UNL    H22   51  -0.248   0.122  -0.193
    1UNL    H23   52  -0.194  -0.034  -0.346
    1UNL    H24   53  -0.111   0.405   0.159
    1UNL    H25   54  -0.136   0.427  -0.017
    1UNL    H26   55   0.022   0.484   0.047
   0.00000   0.00000   0.00000   0.00000   0.00000   0.00000   0.00000   0.00000   0.00000
Generated with MDTraj, t= 81.0
 55
    1UNL     C1    1  -0.248  -0.375  -0.162
    1UNL     C2    2  -0.231  -0.225  -0.132
    1UNL     C3    3  -0.179  -0.176  -0.027
    1UNL     C4    4  -0.108  -0.263   0.071
    1UNL     N1    5   0.032  -0.213   0.076
    1UNL     C5    6   0.105  -0.227  -0.058
    1UNL     C6    7   0.064  -0.098  -0.136
    1UNL     C7    8   0.036   0.014  -0.033
    1UNL     C8    9   0.151   0.113  -0.017
    1UNL     C9   10   0.202   0.201  -0.107
    1UNL    C10   11   0.328   0.264  -0.098
    1UNL    C11   12   0.396   0.244   0.019
    1UNL    C12   13   0.356   0.136   0.107
    1UNL    C13   14   0.239   0.068   0.089
    1UNL     N2   15   0.184  -0.038   0.154
    1UNL    C14   16   0.260  -0.126   0.233
    1UNL     O1   17   0.223  -0.221   0.298
    1UNL    C15   18   0.051  -0.069   0.109
    1UNL    C16   19  -0.057  -0.022   0.218
    1UNL     O2   20  -0.023   0.106   0.273
    1UNL    C17   21  -0.206  -0.017   0.166
    1UNL    C18   22  -0.202  -0.029   0.010
    1UNL    C19   23  -0.111   0.077  -0.056
    1UNL    C20   24  -0.143   0.103  -0.204
    1UNL     O3   25  -0.146  -0.018  -0.291
    1UNL    C21   26  -0.139   0.206   0.012
    1UNL     O4   27  -0.256   0.237   0.026
    1UNL     O5   28  -0.026   0.280   0.044
    1UNL    C22   29  -0.073   0.401   0.091
    1UNL     H1   30  -0.321  -0.432  -0.097
    1UNL     H2   31  -0.280  -0.383  -0.271
    1UNL     H3   32  -0.152  -0.429  -0.160
    1UNL     H4   33  -0.277  -0.154  -0.201
    1UNL     H5   34  -0.110  -0.369   0.042
    1UNL     H6   35  -0.159  -0.269   0.167
    1UNL     H7   36   0.212  -0.231  -0.031
    1UNL     H8   37   0.067  -0.320  -0.104
    1UNL     H9   38   0.136  -0.071  -0.212
    1UNL    H10   39  -0.028  -0.108  -0.197
    1UNL    H11   40   0.139   0.221  -0.197
    1UNL    H12   41   0.369   0.336  -0.171
    1UNL    H13   42   0.498   0.286   0.034
    1UNL    H14   43   0.399   0.125   0.205
    1UNL    H15   44   0.359  -0.103   0.239
    1UNL    H16   45  -0.048  -0.089   0.304
    1UNL    H17   46  -0.020   0.163   0.194
    1UNL    H18   47  -0.248   0.080   0.196
    1UNL    H19   48  -0.271  -0.083   0.217
    1UNL    H20   49  -0.303  -0.016  -0.028
    1UNL    H21   50  -0.079   0.181  -0.239
    1UNL    H22   51  -0.243   0.147  -0.206
    1UNL    H23   52  -0.130   0.012  -0.383
    1UNL    H24   53  -0.072   0.401   0.200
    1UNL    H25   54  -0.172   0.409   0.057
    1UNL    H26   55  -0.010   0.484   0.035
   0.00000   0.00000   0.00000   0.00000   0.00000   0.00000   0.00000   0.00000   0.00000
Generated with MDTraj, t= 82.0
 55
    1UNL     C1    1  -0.235  -0.370  -0.174
    1UNL     C2    2  -0.261  -0.232  -0.116
    1UNL     C3    3  -0.193  -0.178  -0.020
    1UNL     C4    4  -0.097  -0.258   0.074
    1UNL     N1    5   0.037  -0.210   0.080
    1UNL     C5    6   0.108  -0.230  -0.049
    1UNL     C6    7   0.081  -0.100  -0.126
    1UNL     C7    8   0.040   0.017  -0.033
    1UNL     C8    9   0.155   0.116  -0.022
    1UNL     C9   10   0.196   0.204  -0.118
    1UNL    C10   11   0.321   0.272  -0.095
    1UNL    C11   12   0.412   0.234   0.006
    1UNL    C12   13   0.362   0.144   0.101
    1UNL    C13   14   0.235   0.083   0.085
    1UNL     N2   15   0.187  -0.035   0.152
    1UNL    C14   16   0.242  -0.120   0.247
    1UNL     O1   17   0.194  -0.230   0.278
    1UNL    C15   18   0.053  -0.069   0.108
    1UNL    C16   19  -0.054  -0.017   0.211
    1UNL     O2   20  -0.015   0.102   0.277
    1UNL    C17   21  -0.198  -0.010   0.158
    1UNL    C18   22  -0.208  -0.033   0.009
    1UNL    C19   23  -0.109   0.070  -0.058
    1UNL    C20   24  -0.134   0.092  -0.211
    1UNL     O3   25  -0.156  -0.031  -0.290
    1UNL    C21   26  -0.125   0.210   0.010
    1UNL     O4   27  -0.243   0.236   0.011
    1UNL     O5   28  -0.027   0.293   0.051
    1UNL    C22   29  -0.090   0.390   0.124
    1UNL     H1   30  -0.234  -0.456  -0.096
    1UNL     H2   31  -0.309  -0.389  -0.253
    1UNL     H3   32  -0.135  -0.364  -0.220
    1UNL     H4   33  -0.322  -0.165  -0.176
    1UNL     H5   34  -0.103  -0.360   0.043
    1UNL     H6   35  -0.131  -0.262   0.180
    1UNL     H7   36   0.212  -0.236  -0.024
    1UNL     H8   37   0.068  -0.326  -0.084
    1UNL     H9   38   0.154  -0.065  -0.200
    1UNL    H10   39  -0.004  -0.122  -0.192
    1UNL    H11   40   0.146   0.234  -0.208
    1UNL    H12   41   0.348   0.351  -0.163
    1UNL    H13   42   0.514   0.262   0.012
    1UNL    H14   43   0.420   0.125   0.191
    1UNL    H15   44   0.319  -0.069   0.315
    1UNL    H16   45  -0.057  -0.085   0.297
    1UNL    H17   46   0.002   0.173   0.209
    1UNL    H18   47  -0.237   0.082   0.188
    1UNL    H19   48  -0.258  -0.081   0.215
    1UNL    H20   49  -0.316  -0.015  -0.020
    1UNL    H21   50  -0.051   0.149  -0.246
    1UNL    H22   51  -0.221   0.159  -0.228
    1UNL    H23   52  -0.151  -0.010  -0.385
    1UNL    H24   53  -0.175   0.347   0.174
    1UNL    H25   54  -0.125   0.461   0.055
    1UNL    H26   55  -0.007   0.444   0.192
   0.00000   0.00000   0.00000   0.00000   0.00000   0.00000   0.00000   0.00000   0.00000
Generated with MDTraj, t= 83.0
 55
    1UNL     C1    1  -0.266  -0.370  -0.177
    1UNL     C2    2  -0.281  -0.233  -0.116
    1UNL     C3    3  -0.200  -0.185  -0.028
    1UNL     C4    4  -0.105  -0.272   0.052
    1UNL     N1    5   0.036  -0.218   0.059
    1UNL     C5    6   0.113  -0.228  -0.064
    1UNL     C6    7   0.085  -0.102  -0.137
    1UNL     C7    8   0.040   0.012  -0.039
    1UNL     C8    9   0.151   0.114  -0.021
    1UNL     C9   10   0.188   0.227  -0.100
    1UNL    C10   11   0.312   0.287  -0.082
    1UNL    C11   12   0.396   0.243   0.020
    1UNL    C12   13   0.361   0.140   0.102
    1UNL    C13   14   0.240   0.072   0.080
    1UNL     N2   15   0.196  -0.044   0.146
    1UNL    C14   16   0.256  -0.110   0.251
    1UNL     O1   17   0.202  -0.184   0.331
    1UNL    C15   18   0.057  -0.073   0.101
    1UNL    C16   19  -0.043  -0.041   0.220
    1UNL     O2   20  -0.004   0.081   0.281
    1UNL    C17   21  -0.191  -0.027   0.174
    1UNL    C18   22  -0.202  -0.031   0.016
    1UNL    C19   23  -0.107   0.067  -0.060
    1UNL    C20   24  -0.154   0.079  -0.202
    1UNL     O3   25  -0.145  -0.026  -0.290
    1UNL    C21   26  -0.135   0.208   0.005
    1UNL     O4   27  -0.238   0.268  -0.024
    1UNL     O5   28  -0.033   0.270   0.081
    1UNL    C22   29  -0.059   0.409   0.088
    1UNL     H1   30  -0.283  -0.460  -0.110
    1UNL     H2   31  -0.333  -0.373  -0.262
    1UNL     H3   32  -0.158  -0.378  -0.215
    1UNL     H4   33  -0.353  -0.164  -0.160
    1UNL     H5   34  -0.108  -0.369   0.019
    1UNL     H6   35  -0.149  -0.284   0.155
    1UNL     H7   36   0.213  -0.241  -0.026
    1UNL     H8   37   0.078  -0.313  -0.121
    1UNL     H9   38   0.180  -0.068  -0.181
    1UNL    H10   39   0.019  -0.115  -0.220
    1UNL    H11   40   0.122   0.263  -0.177
    1UNL    H12   41   0.343   0.352  -0.163
    1UNL    H13   42   0.486   0.303   0.045
    1UNL    H14   43   0.427   0.083   0.160
    1UNL    H15   44   0.350  -0.083   0.289
    1UNL    H16   45  -0.031  -0.124   0.289
    1UNL    H17   46   0.012   0.148   0.210
    1UNL    H18   47  -0.221   0.063   0.211
    1UNL    H19   48  -0.251  -0.105   0.222
    1UNL    H20   49  -0.310   0.005  -0.009
    1UNL    H21   50  -0.100   0.161  -0.243
    1UNL    H22   51  -0.263   0.113  -0.202
    1UNL    H23   52  -0.163   0.009  -0.381
    1UNL    H24   53  -0.162   0.427   0.111
    1UNL    H25   54  -0.046   0.444  -0.010
    1UNL    H26   55   0.022   0.463   0.156
   0.00000   0.00000   0.00000   0.00000   0.00000   0.00000   0.00000   0.00000   0.00000
Generated with MDTraj, t= 84.0
 55
    1UNL     C1    1  -0.295  -0.356  -0.152
    1UNL     C2    2  -0.271  -0.219  -0.122
    1UNL     C3    3  -0.189  -0.178  -0.029
    1UNL     C4    4  -0.094  -0.266   0.057
    1UNL     N1    5   0.046  -0.227   0.059
    1UNL     C5    6   0.116  -0.240  -0.075
    1UNL     C6    7   0.095  -0.105  -0.150
    1UNL     C7    8   0.047   0.001  -0.041
    1UNL     C8    9   0.165   0.097  -0.036
    1UNL     C9   10   0.174   0.221  -0.092
    1UNL    C10   11   0.283   0.301  -0.069
    1UNL    C11   12   0.374   0.265   0.035
    1UNL    C12   13   0.355   0.152   0.106
    1UNL    C13   14   0.250   0.064   0.074
    1UNL     N2   15   0.195  -0.054   0.143
    1UNL    C14   16   0.232  -0.102   0.267
    1UNL     O1   17   0.183  -0.185   0.336
    1UNL    C15   18   0.062  -0.079   0.098
    1UNL    C16   19  -0.035  -0.034   0.211
    1UNL     O2   20   0.011   0.082   0.279
    1UNL    C17   21  -0.178  -0.020   0.166
    1UNL    C18   22  -0.196  -0.028   0.012
    1UNL    C19   23  -0.099   0.071  -0.070
    1UNL    C20   24  -0.140   0.080  -0.220
    1UNL     O3   25  -0.173  -0.042  -0.284
    1UNL    C21   26  -0.123   0.212  -0.007
    1UNL     O4   27  -0.231   0.265  -0.027
    1UNL     O5   28  -0.031   0.264   0.078
    1UNL    C22   29  -0.056   0.395   0.110
    1UNL     H1   30  -0.331  -0.419  -0.072
    1UNL     H2   31  -0.362  -0.367  -0.240
    1UNL     H3   32  -0.195  -0.402  -0.183
    1UNL     H4   33  -0.325  -0.152  -0.190
    1UNL     H5   34  -0.096  -0.365   0.030
    1UNL     H6   35  -0.128  -0.280   0.164
    1UNL     H7   36   0.218  -0.252  -0.048
    1UNL     H8   37   0.084  -0.323  -0.136
    1UNL     H9   38   0.194  -0.077  -0.190
    1UNL    H10   39   0.028  -0.098  -0.236
    1UNL    H11   40   0.093   0.237  -0.166
    1UNL    H12   41   0.302   0.404  -0.097
    1UNL    H13   42   0.461   0.325   0.054
    1UNL    H14   43   0.425   0.116   0.186
    1UNL    H15   44   0.322  -0.051   0.296
    1UNL    H16   45  -0.030  -0.115   0.285
    1UNL    H17   46   0.020   0.158   0.219
    1UNL    H18   47  -0.204   0.074   0.201
    1UNL    H19   48  -0.241  -0.098   0.212
    1UNL    H20   49  -0.309  -0.001  -0.015
    1UNL    H21   50  -0.064   0.122  -0.282
    1UNL    H22   51  -0.227   0.155  -0.226
    1UNL    H23   52  -0.195  -0.034  -0.380
    1UNL    H24   53  -0.143   0.414   0.172
    1UNL    H25   54  -0.066   0.453   0.021
    1UNL    H26   55   0.046   0.422   0.158
   0.00000   0.00000   0.00000   0.00000   0.00000   0.00000   0.00000   0.00000   0.00000
Generated with MDTraj, t= 85.0
 55
    1UNL     C1    1  -0.289  -0.374  -0.132
    1UNL     C2    2  -0.278  -0.233  -0.097
    1UNL     C3    3  -0.192  -0.177  -0.017
    1UNL     C4    4  -0.098  -0.259   0.065
    1UNL     N1    5   0.037  -0.212   0.058
    1UNL     C5    6   0.101  -0.233  -0.069
    1UNL     C6    7   0.095  -0.104  -0.155
    1UNL     C7    8   0.051   0.013  -0.056
    1UNL     C8    9   0.171   0.107  -0.037
    1UNL     C9   10   0.205   0.217  -0.110
    1UNL    C10   11   0.309   0.295  -0.067
    1UNL    C11   12   0.375   0.265   0.054
    1UNL    C12   13   0.340   0.156   0.131
    1UNL    C13   14   0.243   0.075   0.079
    1UNL     N2   15   0.196  -0.044   0.143
    1UNL    C14   16   0.241  -0.118   0.248
    1UNL     O1   17   0.199  -0.214   0.297
    1UNL    C15   18   0.058  -0.066   0.087
    1UNL    C16   19  -0.046  -0.023   0.202
    1UNL     O2   20  -0.005   0.093   0.279
    1UNL    C17   21  -0.194  -0.011   0.163
    1UNL    C18   22  -0.199  -0.028   0.010
    1UNL    C19   23  -0.099   0.067  -0.069
    1UNL    C20   24  -0.127   0.074  -0.219
    1UNL     O3   25  -0.158  -0.046  -0.285
    1UNL    C21   26  -0.125   0.212  -0.009
    1UNL     O4   27  -0.237   0.262  -0.025
    1UNL     O5   28  -0.019   0.273   0.054
    1UNL    C22   29  -0.068   0.380   0.137
    1UNL     H1   30  -0.277  -0.444  -0.050
    1UNL     H2   31  -0.385  -0.397  -0.189
    1UNL     H3   32  -0.203  -0.400  -0.197
    1UNL     H4   33  -0.347  -0.172  -0.152
    1UNL     H5   34  -0.104  -0.361   0.037
    1UNL     H6   35  -0.121  -0.263   0.175
    1UNL     H7   36   0.200  -0.268  -0.064
    1UNL     H8   37   0.040  -0.311  -0.114
    1UNL     H9   38   0.183  -0.070  -0.210
    1UNL    H10   39   0.016  -0.123  -0.230
    1UNL    H11   40   0.149   0.251  -0.192
    1UNL    H12   41   0.340   0.381  -0.124
    1UNL    H13   42   0.442   0.340   0.097
    1UNL    H14   43   0.379   0.140   0.225
    1UNL    H15   44   0.352  -0.107   0.277
    1UNL    H16   45  -0.035  -0.098   0.284
    1UNL    H17   46  -0.002   0.170   0.216
    1UNL    H18   47  -0.240   0.081   0.188
    1UNL    H19   48  -0.248  -0.094   0.209
    1UNL    H20   49  -0.305   0.012  -0.029
    1UNL    H21   50  -0.052   0.139  -0.260
    1UNL    H22   51  -0.225   0.131  -0.236
    1UNL    H23   52  -0.181  -0.040  -0.381
    1UNL    H24   53  -0.150   0.350   0.204
    1UNL    H25   54  -0.121   0.455   0.075
    1UNL    H26   55   0.015   0.431   0.190
   0.00000   0.00000   0.00000   0.00000   0.00000   0.00000   0.00000   0.00000   0.00000
Generated with MDTraj, t= 86.0
 55
    1UNL     C1    1  -0.301  -0.382  -0.150
    1UNL     C2    2  -0.287  -0.237  -0.109
    1UNL     C3    3  -0.199  -0.181  -0.025
    1UNL     C4    4  -0.102  -0.261   0.061
    1UNL     N1    5   0.039  -0.212   0.069
    1UNL     C5    6   0.120  -0.227  -0.056
    1UNL     C6    7   0.101  -0.095  -0.130
    1UNL     C7    8   0.047   0.013  -0.025
    1UNL     C8    9   0.151   0.125  -0.010
    1UNL     C9   10   0.190   0.230  -0.096
    1UNL    C10   11   0.314   0.288  -0.067
    1UNL    C11   12   0.396   0.245   0.028
    1UNL    C12   13   0.355   0.141   0.110
    1UNL    C13   14   0.236   0.078   0.090
    1UNL     N2   15   0.190  -0.045   0.149
    1UNL    C14   16   0.260  -0.127   0.234
    1UNL     O1   17   0.217  -0.239   0.265
    1UNL    C15   18   0.055  -0.073   0.109
    1UNL    C16   19  -0.043  -0.028   0.223
    1UNL     O2   20  -0.011   0.096   0.287
    1UNL    C17   21  -0.195  -0.019   0.171
    1UNL    C18   22  -0.203  -0.030   0.012
    1UNL    C19   23  -0.103   0.067  -0.057
    1UNL    C20   24  -0.126   0.088  -0.212
    1UNL     O3   25  -0.135  -0.034  -0.286
    1UNL    C21   26  -0.131   0.206  -0.004
    1UNL     O4   27  -0.245   0.247  -0.020
    1UNL     O5   28  -0.033   0.285   0.056
    1UNL    C22   29  -0.079   0.416   0.070
    1UNL     H1   30  -0.347  -0.445  -0.071
    1UNL     H2   31  -0.355  -0.392  -0.249
    1UNL     H3   32  -0.201  -0.422  -0.152
    1UNL     H4   33  -0.357  -0.168  -0.153
    1UNL     H5   34  -0.096  -0.363   0.019
    1UNL     H6   35  -0.154  -0.266   0.158
    1UNL     H7   36   0.222  -0.247  -0.030
    1UNL     H8   37   0.090  -0.306  -0.124
    1UNL     H9   38   0.194  -0.058  -0.174
    1UNL    H10   39   0.026  -0.106  -0.213
    1UNL    H11   40   0.121   0.271  -0.174
    1UNL    H12   41   0.339   0.365  -0.137
    1UNL    H13   42   0.490   0.290   0.050
    1UNL    H14   43   0.397   0.116   0.211
    1UNL    H15   44   0.357  -0.099   0.253
    1UNL    H16   45  -0.035  -0.098   0.309
    1UNL    H17   46  -0.022   0.165   0.217
    1UNL    H18   47  -0.224   0.082   0.192
    1UNL    H19   48  -0.275  -0.080   0.208
    1UNL    H20   49  -0.311   0.009  -0.019
    1UNL    H21   50  -0.046   0.145  -0.257
    1UNL    H22   51  -0.210   0.162  -0.232
    1UNL    H23   52  -0.154  -0.015  -0.381
    1UNL    H24   53  -0.165   0.425   0.140
    1UNL    H25   54  -0.120   0.456  -0.026
    1UNL    H26   55   0.002   0.474   0.103
   0.00000   0.00000   0.00000   0.00000   0.00000   0.00000   0.00000   0.00000   0.00000
Generated with MDTraj, t= 87.0
 55
    1UNL     C1    1  -0.269  -0.361  -0.178
    1UNL     C2    2  -0.263  -0.223  -0.133
    1UNL     C3    3  -0.195  -0.177  -0.028
    1UNL     C4    4  -0.109  -0.261   0.058
    1UNL     N1    5   0.029  -0.213   0.075
    1UNL     C5    6   0.118  -0.222  -0.052
    1UNL     C6    7   0.093  -0.090  -0.129
    1UNL     C7    8   0.041   0.014  -0.026
    1UNL     C8    9   0.148   0.117  -0.002
    1UNL     C9   10   0.185   0.224  -0.080
    1UNL    C10   11   0.313   0.283  -0.064
    1UNL    C11   12   0.397   0.233   0.032
    1UNL    C12   13   0.365   0.122   0.110
    1UNL    C13   14   0.240   0.070   0.094
    1UNL     N2   15   0.192  -0.052   0.141
    1UNL    C14   16   0.265  -0.136   0.228
    1UNL     O1   17   0.230  -0.242   0.280
    1UNL    C15   18   0.050  -0.069   0.112
    1UNL    C16   19  -0.037  -0.008   0.225
    1UNL     O2   20  -0.002   0.120   0.268
    1UNL    C17   21  -0.186  -0.011   0.176
    1UNL    C18   22  -0.203  -0.033   0.021
    1UNL    C19   23  -0.107   0.060  -0.053
    1UNL    C20   24  -0.145   0.073  -0.199
    1UNL     O3   25  -0.151  -0.045  -0.276
    1UNL    C21   26  -0.137   0.206  -0.003
    1UNL     O4   27  -0.254   0.239  -0.005
    1UNL     O5   28  -0.040   0.295   0.039
    1UNL    C22   29  -0.092   0.419   0.059
    1UNL     H1   30  -0.259  -0.428  -0.087
    1UNL     H2   31  -0.355  -0.386  -0.242
    1UNL     H3   32  -0.173  -0.382  -0.224
    1UNL     H4   33  -0.321  -0.149  -0.184
    1UNL     H5   34  -0.112  -0.371   0.027
    1UNL     H6   35  -0.156  -0.260   0.156
    1UNL     H7   36   0.224  -0.235  -0.035
    1UNL     H8   37   0.097  -0.309  -0.116
    1UNL     H9   38   0.189  -0.057  -0.171
    1UNL    H10   39   0.021  -0.098  -0.210
    1UNL    H11   40   0.131   0.254  -0.166
    1UNL    H12   41   0.359   0.364  -0.120
    1UNL    H13   42   0.501   0.267   0.040
    1UNL    H14   43   0.433   0.101   0.190
    1UNL    H15   44   0.368  -0.104   0.262
    1UNL    H16   45  -0.029  -0.078   0.311
    1UNL    H17   46   0.007   0.185   0.194
    1UNL    H18   47  -0.247   0.076   0.198
    1UNL    H19   48  -0.238  -0.090   0.218
    1UNL    H20   49  -0.312   0.005   0.003
    1UNL    H21   50  -0.091   0.150  -0.252
    1UNL    H22   51  -0.245   0.120  -0.198
    1UNL    H23   52  -0.190  -0.023  -0.364
    1UNL    H24   53  -0.193   0.412   0.106
    1UNL    H25   54  -0.107   0.476  -0.037
    1UNL    H26   55  -0.029   0.462   0.125
   0.00000   0.00000   0.00000   0.00000   0.00000   0.00000   0.00000   0.00000   0.00000
Generated with MDTraj, t= 88.0
 55
    1UNL     C1    1  -0.238  -0.367  -0.170
    1UNL     C2    2  -0.247  -0.226  -0.119
    1UNL     C3    3  -0.198  -0.172  -0.007
    1UNL     C4    4  -0.106  -0.260   0.074
    1UNL     N1    5   0.028  -0.213   0.063
    1UNL     C5    6   0.089  -0.227  -0.067
    1UNL     C6    7   0.079  -0.099  -0.148
    1UNL     C7    8   0.048   0.010  -0.043
    1UNL     C8    9   0.166   0.104  -0.029
    1UNL     C9   10   0.202   0.209  -0.109
    1UNL    C10   11   0.307   0.282  -0.074
    1UNL    C11   12   0.387   0.253   0.039
    1UNL    C12   13   0.355   0.143   0.116
    1UNL    C13   14   0.248   0.066   0.080
    1UNL     N2   15   0.198  -0.047   0.140
    1UNL    C14   16   0.245  -0.131   0.244
    1UNL     O1   17   0.183  -0.218   0.295
    1UNL    C15   18   0.051  -0.066   0.097
    1UNL    C16   19  -0.040  -0.017   0.214
    1UNL     O2   20  -0.004   0.112   0.277
    1UNL    C17   21  -0.192  -0.011   0.171
    1UNL    C18   22  -0.207  -0.024   0.019
    1UNL    C19   23  -0.099   0.063  -0.062
    1UNL    C20   24  -0.142   0.092  -0.208
    1UNL     O3   25  -0.152  -0.027  -0.277
    1UNL    C21   26  -0.126   0.201   0.004
    1UNL     O4   27  -0.243   0.224   0.020
    1UNL     O5   28  -0.028   0.282   0.042
    1UNL    C22   29  -0.084   0.400   0.087
    1UNL     H1   30  -0.221  -0.434  -0.082
    1UNL     H2   31  -0.317  -0.410  -0.228
    1UNL     H3   32  -0.143  -0.382  -0.223
    1UNL     H4   33  -0.309  -0.163  -0.182
    1UNL     H5   34  -0.109  -0.373   0.044
    1UNL     H6   35  -0.122  -0.273   0.181
    1UNL     H7   36   0.193  -0.255  -0.048
    1UNL     H8   37   0.054  -0.313  -0.128
    1UNL     H9   38   0.174  -0.064  -0.194
    1UNL    H10   39   0.003  -0.119  -0.222
    1UNL    H11   40   0.157   0.238  -0.204
    1UNL    H12   41   0.341   0.353  -0.146
    1UNL    H13   42   0.456   0.326   0.070
    1UNL    H14   43   0.430   0.119   0.189
    1UNL    H15   44   0.330  -0.088   0.293
    1UNL    H16   45  -0.024  -0.094   0.292
    1UNL    H17   46   0.006   0.184   0.212
    1UNL    H18   47  -0.234   0.085   0.200
    1UNL    H19   48  -0.255  -0.083   0.208
    1UNL    H20   49  -0.311   0.010  -0.005
    1UNL    H21   50  -0.069   0.160  -0.252
    1UNL    H22   51  -0.235   0.143  -0.223
    1UNL    H23   52  -0.186  -0.016  -0.368
    1UNL    H24   53  -0.116   0.382   0.192
    1UNL    H25   54  -0.180   0.425   0.030
    1UNL    H26   55  -0.018   0.474   0.099
   0.00000   0.00000   0.00000   0.00000   0.00000   0.00000   0.00000   0.00000   0.00000
Generated with MDTraj, t= 89.0
 55
    1UNL     C1    1  -0.264  -0.373  -0.169
    1UNL     C2    2  -0.262  -0.236  -0.127
    1UNL     C3    3  -0.187  -0.187  -0.029
    1UNL     C4    4  -0.100  -0.271   0.049
    1UNL     N1    5   0.042  -0.223   0.059
    1UNL     C5    6   0.121  -0.219  -0.073
    1UNL     C6    7   0.069  -0.094  -0.148
    1UNL     C7    8   0.043   0.003  -0.032
    1UNL     C8    9   0.164   0.099  -0.034
    1UNL     C9   10   0.181   0.216  -0.114
    1UNL    C10   11   0.297   0.278  -0.087
    1UNL    C11   12   0.379   0.252   0.017
    1UNL    C12   13   0.354   0.150   0.101
    1UNL    C13   14   0.241   0.064   0.076
    1UNL     N2   15   0.183  -0.039   0.150
    1UNL    C14   16   0.235  -0.089   0.272
    1UNL     O1   17   0.188  -0.178   0.337
    1UNL    C15   18   0.053  -0.079   0.103
    1UNL    C16   19  -0.051  -0.034   0.212
    1UNL     O2   20  -0.024   0.090   0.272
    1UNL    C17   21  -0.194  -0.027   0.158
    1UNL    C18   22  -0.207  -0.037   0.007
    1UNL    C19   23  -0.102   0.066  -0.053
    1UNL    C20   24  -0.133   0.102  -0.199
    1UNL     O3   25  -0.153  -0.014  -0.279
    1UNL    C21   26  -0.121   0.201   0.007
    1UNL     O4   27  -0.232   0.245   0.026
    1UNL     O5   28  -0.008   0.271   0.040
    1UNL    C22   29  -0.033   0.384   0.113
    1UNL     H1   30  -0.331  -0.427  -0.107
    1UNL     H2   31  -0.286  -0.384  -0.274
    1UNL     H3   32  -0.164  -0.419  -0.147
    1UNL     H4   33  -0.338  -0.173  -0.166
    1UNL     H5   34  -0.101  -0.381   0.019
    1UNL     H6   35  -0.146  -0.277   0.148
    1UNL     H7   36   0.233  -0.222  -0.060
    1UNL     H8   37   0.103  -0.313  -0.130
    1UNL     H9   38   0.151  -0.053  -0.208
    1UNL    H10   39  -0.022  -0.116  -0.204
    1UNL    H11   40   0.108   0.225  -0.194
    1UNL    H12   41   0.314   0.371  -0.146
    1UNL    H13   42   0.464   0.324   0.024
    1UNL    H14   43   0.423   0.132   0.183
    1UNL    H15   44   0.305  -0.027   0.324
    1UNL    H16   45  -0.044  -0.103   0.298
    1UNL    H17   46  -0.020   0.152   0.194
    1UNL    H18   47  -0.237   0.070   0.180
    1UNL    H19   48  -0.251  -0.104   0.198
    1UNL    H20   49  -0.303  -0.002  -0.032
    1UNL    H21   50  -0.062   0.164  -0.255
    1UNL    H22   51  -0.218   0.167  -0.201
    1UNL    H23   52  -0.181   0.001  -0.371
    1UNL    H24   53  -0.069   0.358   0.214
    1UNL    H25   54  -0.112   0.445   0.062
    1UNL    H26   55   0.052   0.437   0.136
   0.00000   0.00000   0.00000   0.00000   0.00000   0.00000   0.00000   0.00000   0.00000
Generated with MDTraj, t= 90.0
 55
    1UNL     C1    1  -0.271  -0.369  -0.190
    1UNL     C2    2  -0.261  -0.230  -0.143
    1UNL     C3    3  -0.191  -0.179  -0.038
    1UNL     C4    4  -0.101  -0.263   0.046
    1UNL     N1    5   0.039  -0.217   0.062
    1UNL     C5    6   0.115  -0.232  -0.064
    1UNL     C6    7   0.079  -0.106  -0.142
    1UNL     C7    8   0.045   0.006  -0.039
    1UNL     C8    9   0.159   0.112  -0.036
    1UNL     C9   10   0.207   0.204  -0.124
    1UNL    C10   11   0.332   0.263  -0.110
    1UNL    C11   12   0.395   0.240   0.010
    1UNL    C12   13   0.347   0.158   0.106
    1UNL    C13   14   0.231   0.085   0.077
    1UNL     N2   15   0.194  -0.034   0.141
    1UNL    C14   16   0.239  -0.076   0.265
    1UNL     O1   17   0.179  -0.148   0.345
    1UNL    C15   18   0.054  -0.079   0.097
    1UNL    C16   19  -0.047  -0.042   0.217
    1UNL     O2   20   0.002   0.071   0.283
    1UNL    C17   21  -0.198  -0.022   0.166
    1UNL    C18   22  -0.212  -0.035   0.011
    1UNL    C19   23  -0.102   0.062  -0.053
    1UNL    C20   24  -0.145   0.096  -0.195
    1UNL     O3   25  -0.154  -0.013  -0.280
    1UNL    C21   26  -0.126   0.193   0.020
    1UNL     O4   27  -0.240   0.233   0.021
    1UNL     O5   28  -0.025   0.262   0.076
    1UNL    C22   29  -0.063   0.389   0.119
    1UNL     H1   30  -0.258  -0.431  -0.105
    1UNL     H2   31  -0.364  -0.395  -0.243
    1UNL     H3   32  -0.183  -0.392  -0.251
    1UNL     H4   33  -0.333  -0.161  -0.184
    1UNL     H5   34  -0.089  -0.359  -0.010
    1UNL     H6   35  -0.154  -0.280   0.141
    1UNL     H7   36   0.226  -0.249  -0.045
    1UNL     H8   37   0.085  -0.327  -0.116
    1UNL     H9   38   0.163  -0.082  -0.208
    1UNL    H10   39  -0.015  -0.126  -0.198
    1UNL    H11   40   0.147   0.230  -0.207
    1UNL    H12   41   0.383   0.320  -0.182
    1UNL    H13   42   0.489   0.285   0.019
    1UNL    H14   43   0.408   0.154   0.194
    1UNL    H15   44   0.335  -0.025   0.299
    1UNL    H16   45  -0.037  -0.113   0.300
    1UNL    H17   46   0.000   0.149   0.222
    1UNL    H18   47  -0.220   0.078   0.189
    1UNL    H19   48  -0.265  -0.091   0.213
    1UNL    H20   49  -0.306  -0.004  -0.029
    1UNL    H21   50  -0.082   0.176  -0.237
    1UNL    H22   51  -0.242   0.145  -0.205
    1UNL    H23   52  -0.201   0.001  -0.367
    1UNL    H24   53  -0.162   0.381   0.165
    1UNL    H25   54  -0.063   0.456   0.031
    1UNL    H26   55  -0.005   0.435   0.195
   0.00000   0.00000   0.00000   0.00000   0.00000   0.00000   0.00000   0.00000   0.00000
Generated with MDTraj, t= 91.0
 55
    1UNL     C1    1  -0.235  -0.365  -0.185
    1UNL     C2    2  -0.249  -0.230  -0.131
    1UNL     C3    3  -0.188  -0.176  -0.023
    1UNL     C4    4  -0.094  -0.259   0.059
    1UNL     N1    5   0.044  -0.214   0.068
    1UNL     C5    6   0.119  -0.225  -0.059
    1UNL     C6    7   0.074  -0.107  -0.136
    1UNL     C7    8   0.039   0.008  -0.033
    1UNL     C8    9   0.152   0.114  -0.023
    1UNL     C9   10   0.192   0.210  -0.109
    1UNL    C10   11   0.315   0.269  -0.101
    1UNL    C11   12   0.404   0.224  -0.008
    1UNL    C12   13   0.371   0.129   0.087
    1UNL    C13   14   0.247   0.069   0.079
    1UNL     N2   15   0.190  -0.041   0.149
    1UNL    C14   16   0.234  -0.099   0.268
    1UNL     O1   17   0.189  -0.202   0.313
    1UNL    C15   18   0.052  -0.070   0.105
    1UNL    C16   19  -0.053  -0.021   0.215
    1UNL     O2   20  -0.015   0.097   0.274
    1UNL    C17   21  -0.200  -0.023   0.164
    1UNL    C18   22  -0.215  -0.031   0.014
    1UNL    C19   23  -0.108   0.070  -0.055
    1UNL    C20   24  -0.151   0.086  -0.199
    1UNL     O3   25  -0.142  -0.018  -0.283
    1UNL    C21   26  -0.130   0.207   0.009
    1UNL     O4   27  -0.241   0.247   0.004
    1UNL     O5   28  -0.036   0.284   0.062
    1UNL    C22   29  -0.082   0.396   0.133
    1UNL     H1   30  -0.243  -0.436  -0.104
    1UNL     H2   31  -0.305  -0.391  -0.265
    1UNL     H3   32  -0.136  -0.380  -0.219
    1UNL     H4   33  -0.322  -0.167  -0.179
    1UNL     H5   34  -0.090  -0.363   0.023
    1UNL     H6   35  -0.131  -0.263   0.165
    1UNL     H7   36   0.231  -0.233  -0.041
    1UNL     H8   37   0.096  -0.327  -0.102
    1UNL     H9   38   0.143  -0.072  -0.212
    1UNL    H10   39  -0.016  -0.145  -0.191
    1UNL    H11   40   0.130   0.266  -0.179
    1UNL    H12   41   0.340   0.338  -0.184
    1UNL    H13   42   0.505   0.271  -0.000
    1UNL    H14   43   0.440   0.110   0.169
    1UNL    H15   44   0.322  -0.079   0.317
    1UNL    H16   45  -0.039  -0.094   0.295
    1UNL    H17   46   0.001   0.165   0.208
    1UNL    H18   47  -0.240   0.068   0.194
    1UNL    H19   48  -0.256  -0.102   0.217
    1UNL    H20   49  -0.312  -0.002  -0.010
    1UNL    H21   50  -0.099   0.175  -0.245
    1UNL    H22   51  -0.256   0.121  -0.204
    1UNL    H23   52  -0.199  -0.010  -0.364
    1UNL    H24   53  -0.147   0.357   0.210
    1UNL    H25   54  -0.135   0.462   0.061
    1UNL    H26   55  -0.010   0.466   0.181
   0.00000   0.00000   0.00000   0.00000   0.00000   0.00000   0.00000   0.00000   0.00000
Generated with MDTraj, t= 92.0
 55
    1UNL     C1    1  -0.225  -0.365  -0.172
    1UNL     C2    2  -0.242  -0.232  -0.120
    1UNL     C3    3  -0.192  -0.179  -0.008
    1UNL     C4    4  -0.113  -0.255   0.081
    1UNL     N1    5   0.032  -0.211   0.071
    1UNL     C5    6   0.090  -0.223  -0.067
    1UNL     C6    7   0.079  -0.090  -0.138
    1UNL     C7    8   0.043   0.017  -0.029
    1UNL     C8    9   0.157   0.108  -0.012
    1UNL     C9   10   0.185   0.218  -0.095
    1UNL    C10   11   0.314   0.277  -0.085
    1UNL    C11   12   0.403   0.237   0.005
    1UNL    C12   13   0.377   0.134   0.097
    1UNL    C13   14   0.251   0.068   0.086
    1UNL     N2   15   0.189  -0.046   0.156
    1UNL    C14   16   0.263  -0.139   0.230
    1UNL     O1   17   0.210  -0.232   0.284
    1UNL    C15   18   0.052  -0.066   0.112
    1UNL    C16   19  -0.050  -0.016   0.223
    1UNL     O2   20  -0.030   0.106   0.281
    1UNL    C17   21  -0.198  -0.007   0.166
    1UNL    C18   22  -0.209  -0.031   0.013
    1UNL    C19   23  -0.106   0.070  -0.057
    1UNL    C20   24  -0.131   0.084  -0.210
    1UNL     O3   25  -0.140  -0.026  -0.290
    1UNL    C21   26  -0.147   0.199   0.006
    1UNL     O4   27  -0.260   0.241   0.012
    1UNL     O5   28  -0.046   0.279   0.052
    1UNL    C22   29  -0.076   0.410   0.092
    1UNL     H1   30  -0.312  -0.427  -0.140
    1UNL     H2   31  -0.218  -0.364  -0.278
    1UNL     H3   32  -0.145  -0.414  -0.126
    1UNL     H4   33  -0.299  -0.163  -0.181
    1UNL     H5   34  -0.117  -0.361   0.063
    1UNL     H6   35  -0.142  -0.247   0.191
    1UNL     H7   36   0.198  -0.254  -0.051
    1UNL     H8   37   0.055  -0.312  -0.125
    1UNL     H9   38   0.174  -0.072  -0.191
    1UNL    H10   39   0.010  -0.096  -0.222
    1UNL    H11   40   0.118   0.252  -0.171
    1UNL    H12   41   0.334   0.366  -0.139
    1UNL    H13   42   0.500   0.276   0.002
    1UNL    H14   43   0.431   0.111   0.188
    1UNL    H15   44   0.371  -0.126   0.201
    1UNL    H16   45  -0.035  -0.092   0.301
    1UNL    H17   46  -0.010   0.173   0.209
    1UNL    H18   47  -0.237   0.086   0.191
    1UNL    H19   48  -0.261  -0.076   0.225
    1UNL    H20   49  -0.306  -0.002  -0.009
    1UNL    H21   50  -0.063   0.154  -0.270
    1UNL    H22   51  -0.223   0.149  -0.215
    1UNL    H23   52  -0.173  -0.000  -0.379
    1UNL    H24   53  -0.123   0.405   0.187
    1UNL    H25   54  -0.144   0.447   0.013
    1UNL    H26   55   0.012   0.484   0.090
   0.00000   0.00000   0.00000   0.00000   0.00000   0.00000   0.00000   0.00000   0.00000
Generated with MDTraj, t= 93.0
 55
    1UNL     C1    1  -0.273  -0.361  -0.177
    1UNL     C2    2  -0.264  -0.224  -0.123
    1UNL     C3    3  -0.196  -0.176  -0.013
    1UNL     C4    4  -0.105  -0.268   0.065
    1UNL     N1    5   0.038  -0.222   0.073
    1UNL     C5    6   0.113  -0.232  -0.049
    1UNL     C6    7   0.081  -0.110  -0.137
    1UNL     C7    8   0.044   0.004  -0.035
    1UNL     C8    9   0.157   0.099  -0.023
    1UNL     C9   10   0.196   0.212  -0.099
    1UNL    C10   11   0.305   0.288  -0.069
    1UNL    C11   12   0.382   0.254   0.047
    1UNL    C12   13   0.350   0.154   0.138
    1UNL    C13   14   0.239   0.077   0.090
    1UNL     N2   15   0.192  -0.046   0.149
    1UNL    C14   16   0.255  -0.130   0.238
    1UNL     O1   17   0.233  -0.244   0.256
    1UNL    C15   18   0.059  -0.074   0.106
    1UNL    C16   19  -0.036  -0.017   0.215
    1UNL     O2   20   0.007   0.115   0.264
    1UNL    C17   21  -0.193  -0.012   0.172
    1UNL    C18   22  -0.205  -0.031   0.020
    1UNL    C19   23  -0.105   0.070  -0.059
    1UNL    C20   24  -0.142   0.081  -0.212
    1UNL     O3   25  -0.155  -0.041  -0.278
    1UNL    C21   26  -0.141   0.210   0.002
    1UNL     O4   27  -0.255   0.242   0.017
    1UNL     O5   28  -0.042   0.291   0.037
    1UNL    C22   29  -0.071   0.425   0.071
    1UNL     H1   30  -0.336  -0.422  -0.113
    1UNL     H2   31  -0.308  -0.369  -0.274
    1UNL     H3   32  -0.179  -0.411  -0.163
    1UNL     H4   33  -0.310  -0.146  -0.181
    1UNL     H5   34  -0.096  -0.362   0.016
    1UNL     H6   35  -0.148  -0.287   0.169
    1UNL     H7   36   0.220  -0.235  -0.012
    1UNL     H8   37   0.094  -0.330  -0.098
    1UNL     H9   38   0.164  -0.085  -0.205
    1UNL    H10   39  -0.002  -0.138  -0.198
    1UNL    H11   40   0.150   0.236  -0.192
    1UNL    H12   41   0.336   0.374  -0.125
    1UNL    H13   42   0.465   0.320   0.077
    1UNL    H14   43   0.418   0.120   0.215
    1UNL    H15   44   0.345  -0.099   0.297
    1UNL    H16   45  -0.028  -0.080   0.306
    1UNL    H17   46   0.022   0.171   0.187
    1UNL    H18   47  -0.231   0.084   0.203
    1UNL    H19   48  -0.259  -0.081   0.229
    1UNL    H20   49  -0.298   0.003  -0.010
    1UNL    H21   50  -0.064   0.149  -0.262
    1UNL    H22   51  -0.232   0.145  -0.233
    1UNL    H23   52  -0.165  -0.033  -0.376
    1UNL    H24   53  -0.163   0.432   0.120
    1UNL    H25   54  -0.081   0.468  -0.031
    1UNL    H26   55   0.018   0.484   0.124
   0.00000   0.00000   0.00000   0.00000   0.00000   0.00000   0.00000   0.00000   0.00000
Generated with MDTraj, t= 94.0
 55
    1UNL     C1    1  -0.308  -0.378  -0.150
    1UNL     C2    2  -0.293  -0.240  -0.108
    1UNL     C3    3  -0.196  -0.188  -0.027
    1UNL     C4    4  -0.111  -0.269   0.058
    1UNL     N1    5   0.036  -0.223   0.062
    1UNL     C5    6   0.094  -0.245  -0.074
    1UNL     C6    7   0.110  -0.100  -0.137
    1UNL     C7    8   0.049   0.006  -0.038
    1UNL     C8    9   0.158   0.118  -0.023
    1UNL     C9   10   0.195   0.229  -0.096
    1UNL    C10   11   0.296   0.302  -0.061
    1UNL    C11   12   0.373   0.278   0.060
    1UNL    C12   13   0.345   0.162   0.135
    1UNL    C13   14   0.239   0.083   0.091
    1UNL     N2   15   0.193  -0.046   0.141
    1UNL    C14   16   0.262  -0.128   0.223
    1UNL     O1   17   0.219  -0.221   0.286
    1UNL    C15   18   0.054  -0.073   0.096
    1UNL    C16   19  -0.042  -0.022   0.212
    1UNL     O2   20  -0.000   0.093   0.278
    1UNL    C17   21  -0.189  -0.015   0.165
    1UNL    C18   22  -0.203  -0.039   0.015
    1UNL    C19   23  -0.102   0.061  -0.057
    1UNL    C20   24  -0.137   0.076  -0.203
    1UNL     O3   25  -0.148  -0.042  -0.285
    1UNL    C21   26  -0.121   0.205  -0.002
    1UNL     O4   27  -0.233   0.247   0.001
    1UNL     O5   28  -0.018   0.286   0.037
    1UNL    C22   29  -0.052   0.420   0.083
    1UNL     H1   30  -0.272  -0.446  -0.081
    1UNL     H2   31  -0.405  -0.404  -0.173
    1UNL     H3   32  -0.243  -0.398  -0.238
    1UNL     H4   33  -0.354  -0.163  -0.156
    1UNL     H5   34  -0.120  -0.372   0.029
    1UNL     H6   35  -0.154  -0.264   0.163
    1UNL     H7   36   0.194  -0.292  -0.059
    1UNL     H8   37   0.027  -0.311  -0.132
    1UNL     H9   38   0.217  -0.077  -0.154
    1UNL    H10   39   0.055  -0.093  -0.230
    1UNL    H11   40   0.138   0.246  -0.190
    1UNL    H12   41   0.318   0.389  -0.123
    1UNL    H13   42   0.440   0.356   0.091
    1UNL    H14   43   0.414   0.119   0.206
    1UNL    H15   44   0.355  -0.092   0.245
    1UNL    H16   45  -0.042  -0.090   0.301
    1UNL    H17   46   0.023   0.154   0.201
    1UNL    H18   47  -0.242   0.083   0.193
    1UNL    H19   48  -0.248  -0.088   0.220
    1UNL    H20   49  -0.295  -0.004  -0.017
    1UNL    H21   50  -0.078   0.158  -0.259
    1UNL    H22   51  -0.238   0.117  -0.212
    1UNL    H23   52  -0.157  -0.028  -0.383
    1UNL    H24   53  -0.125   0.414   0.158
    1UNL    H25   54  -0.099   0.458  -0.007
    1UNL    H26   55   0.040   0.494   0.107
   0.00000   0.00000   0.00000   0.00000   0.00000   0.00000   0.00000   0.00000   0.00000
Generated with MDTraj, t= 95.0
 55
    1UNL     C1    1  -0.300  -0.376  -0.118
    1UNL     C2    2  -0.289  -0.231  -0.094
    1UNL     C3    3  -0.187  -0.169  -0.025
    1UNL     C4    4  -0.089  -0.263   0.040
    1UNL     N1    5   0.057  -0.218   0.054
    1UNL     C5    6   0.126  -0.225  -0.074
    1UNL     C6    7   0.100  -0.095  -0.143
    1UNL     C7    8   0.051   0.008  -0.042
    1UNL     C8    9   0.157   0.111  -0.028
    1UNL     C9   10   0.188   0.228  -0.096
    1UNL    C10   11   0.302   0.305  -0.053
    1UNL    C11   12   0.382   0.259   0.045
    1UNL    C12   13   0.357   0.138   0.109
    1UNL    C13   14   0.243   0.065   0.073
    1UNL     N2   15   0.195  -0.050   0.147
    1UNL    C14   16   0.242  -0.118   0.258
    1UNL     O1   17   0.182  -0.213   0.300
    1UNL    C15   18   0.062  -0.074   0.095
    1UNL    C16   19  -0.033  -0.030   0.213
    1UNL     O2   20   0.010   0.090   0.275
    1UNL    C17   21  -0.180  -0.011   0.165
    1UNL    C18   22  -0.200  -0.021   0.010
    1UNL    C19   23  -0.098   0.065  -0.068
    1UNL    C20   24  -0.144   0.085  -0.217
    1UNL     O3   25  -0.177  -0.030  -0.294
    1UNL    C21   26  -0.122   0.200  -0.011
    1UNL     O4   27  -0.232   0.245  -0.036
    1UNL     O5   28  -0.033   0.272   0.063
    1UNL    C22   29  -0.079   0.388   0.116
    1UNL     H1   30  -0.337  -0.424  -0.036
    1UNL     H2   31  -0.362  -0.396  -0.202
    1UNL     H3   32  -0.201  -0.415  -0.138
    1UNL     H4   33  -0.363  -0.171  -0.146
    1UNL     H5   34  -0.083  -0.362  -0.007
    1UNL     H6   35  -0.127  -0.292   0.140
    1UNL     H7   36   0.233  -0.233  -0.050
    1UNL     H8   37   0.093  -0.311  -0.131
    1UNL     H9   38   0.192  -0.065  -0.196
    1UNL    H10   39   0.017  -0.105  -0.218
    1UNL    H11   40   0.109   0.248  -0.162
    1UNL    H12   41   0.321   0.404  -0.091
    1UNL    H13   42   0.475   0.315   0.062
    1UNL    H14   43   0.419   0.115   0.194
    1UNL    H15   44   0.311  -0.073   0.339
    1UNL    H16   45  -0.036  -0.097   0.301
    1UNL    H17   46  -0.020   0.159   0.211
    1UNL    H18   47  -0.199   0.105   0.184
    1UNL    H19   48  -0.260  -0.054   0.225
    1UNL    H20   49  -0.294   0.015  -0.020
    1UNL    H21   50  -0.058   0.124  -0.280
    1UNL    H22   51  -0.220   0.160  -0.231
    1UNL    H23   52  -0.178  -0.017  -0.391
    1UNL    H24   53  -0.104   0.361   0.214
    1UNL    H25   54  -0.168   0.415   0.060
    1UNL    H26   55   0.002   0.475   0.113
   0.00000   0.00000   0.00000   0.00000   0.00000   0.00000   0.00000   0.00000   0.00000
Generated with MDTraj, t= 96.0
 55
    1UNL     C1    1  -0.287  -0.367  -0.132
    1UNL     C2    2  -0.279  -0.230  -0.116
    1UNL     C3    3  -0.188  -0.174  -0.032
    1UNL     C4    4  -0.101  -0.264   0.041
    1UNL     N1    5   0.040  -0.209   0.047
    1UNL     C5    6   0.105  -0.218  -0.079
    1UNL     C6    7   0.098  -0.084  -0.150
    1UNL     C7    8   0.049   0.015  -0.043
    1UNL     C8    9   0.160   0.117  -0.021
    1UNL     C9   10   0.202   0.218  -0.105
    1UNL    C10   11   0.321   0.291  -0.077
    1UNL    C11   12   0.398   0.247   0.027
    1UNL    C12   13   0.366   0.134   0.103
    1UNL    C13   14   0.251   0.065   0.072
    1UNL     N2   15   0.195  -0.041   0.140
    1UNL    C14   16   0.246  -0.103   0.251
    1UNL     O1   17   0.189  -0.182   0.323
    1UNL    C15   18   0.053  -0.065   0.093
    1UNL    C16   19  -0.041  -0.028   0.211
    1UNL     O2   20  -0.011   0.087   0.281
    1UNL    C17   21  -0.186  -0.024   0.161
    1UNL    C18   22  -0.198  -0.031   0.010
    1UNL    C19   23  -0.097   0.065  -0.062
    1UNL    C20   24  -0.137   0.073  -0.206
    1UNL     O3   25  -0.165  -0.047  -0.268
    1UNL    C21   26  -0.128   0.206  -0.002
    1UNL     O4   27  -0.232   0.258  -0.043
    1UNL     O5   28  -0.045   0.258   0.094
    1UNL    C22   29  -0.090   0.378   0.135
    1UNL     H1   30  -0.306  -0.418  -0.040
    1UNL     H2   31  -0.366  -0.401  -0.193
    1UNL     H3   32  -0.197  -0.402  -0.171
    1UNL     H4   33  -0.337  -0.164  -0.181
    1UNL     H5   34  -0.095  -0.363  -0.012
    1UNL     H6   35  -0.141  -0.288   0.140
    1UNL     H7   36   0.206  -0.251  -0.058
    1UNL     H8   37   0.060  -0.300  -0.133
    1UNL     H9   38   0.190  -0.048  -0.202
    1UNL    H10   39   0.025  -0.091  -0.234
    1UNL    H11   40   0.133   0.269  -0.175
    1UNL    H12   41   0.350   0.360  -0.156
    1UNL    H13   42   0.495   0.287   0.053
    1UNL    H14   43   0.430   0.113   0.188
    1UNL    H15   44   0.342  -0.067   0.276
    1UNL    H16   45  -0.030  -0.105   0.291
    1UNL    H17   46   0.047   0.140   0.221
    1UNL    H18   47  -0.242   0.070   0.201
    1UNL    H19   48  -0.238  -0.110   0.206
    1UNL    H20   49  -0.295   0.006  -0.006
    1UNL    H21   50  -0.057   0.131  -0.261
    1UNL    H22   51  -0.221   0.136  -0.214
    1UNL    H23   52  -0.190  -0.035  -0.363
    1UNL    H24   53  -0.190   0.351   0.158
    1UNL    H25   54  -0.095   0.445   0.048
    1UNL    H26   55  -0.034   0.419   0.226
   0.00000   0.00000   0.00000   0.00000   0.00000   0.00000   0.00000   0.00000   0.00000
Generated with MDTraj, t= 97.0
 55
    1UNL     C1    1  -0.267  -0.360  -0.172
    1UNL     C2    2  -0.272  -0.229  -0.118
    1UNL     C3    3  -0.193  -0.181  -0.016
    1UNL     C4    4  -0.098  -0.275   0.061
    1UNL     N1    5   0.041  -0.220   0.068
    1UNL     C5    6   0.117  -0.228  -0.056
    1UNL     C6    7   0.074  -0.098  -0.138
    1UNL     C7    8   0.036   0.010  -0.030
    1UNL     C8    9   0.149   0.111  -0.022
    1UNL     C9   10   0.178   0.211  -0.112
    1UNL    C10   11   0.302   0.275  -0.100
    1UNL    C11   12   0.395   0.244  -0.001
    1UNL    C12   13   0.356   0.145   0.093
    1UNL    C13   14   0.239   0.071   0.080
    1UNL     N2   15   0.185  -0.039   0.140
    1UNL    C14   16   0.240  -0.096   0.259
    1UNL     O1   17   0.201  -0.197   0.312
    1UNL    C15   18   0.050  -0.071   0.107
    1UNL    C16   19  -0.047  -0.030   0.226
    1UNL     O2   20   0.013   0.075   0.305
    1UNL    C17   21  -0.193  -0.017   0.171
    1UNL    C18   22  -0.206  -0.032   0.020
    1UNL    C19   23  -0.108   0.070  -0.058
    1UNL    C20   24  -0.144   0.099  -0.215
    1UNL     O3   25  -0.116  -0.012  -0.301
    1UNL    C21   26  -0.127   0.205  -0.003
    1UNL     O4   27  -0.232   0.255  -0.038
    1UNL     O5   28  -0.036   0.262   0.078
    1UNL    C22   29  -0.076   0.386   0.124
    1UNL     H1   30  -0.264  -0.434  -0.093
    1UNL     H2   31  -0.353  -0.393  -0.225
    1UNL     H3   32  -0.181  -0.370  -0.226
    1UNL     H4   33  -0.318  -0.150  -0.176
    1UNL     H5   34  -0.092  -0.370  -0.002
    1UNL     H6   35  -0.131  -0.302   0.159
    1UNL     H7   36   0.218  -0.223  -0.024
    1UNL     H8   37   0.109  -0.325  -0.102
    1UNL     H9   38   0.156  -0.051  -0.198
    1UNL    H10   39  -0.000  -0.123  -0.214
    1UNL    H11   40   0.116   0.246  -0.193
    1UNL    H12   41   0.333   0.359  -0.166
    1UNL    H13   42   0.497   0.281  -0.005
    1UNL    H14   43   0.420   0.121   0.176
    1UNL    H15   44   0.329  -0.054   0.303
    1UNL    H16   45  -0.046  -0.117   0.292
    1UNL    H17   46   0.035   0.144   0.236
    1UNL    H18   47  -0.226   0.087   0.200
    1UNL    H19   48  -0.265  -0.092   0.223
    1UNL    H20   49  -0.305  -0.001   0.005
    1UNL    H21   50  -0.104   0.198  -0.250
    1UNL    H22   51  -0.247   0.123  -0.218
    1UNL    H23   52  -0.146   0.008  -0.393
    1UNL    H24   53  -0.178   0.400   0.089
    1UNL    H25   54  -0.014   0.464   0.072
    1UNL    H26   55  -0.072   0.388   0.233
   0.00000   0.00000   0.00000   0.00000   0.00000   0.00000   0.00000   0.00000   0.00000
Generated with MDTraj, t= 98.0
 55
    1UNL     C1    1  -0.229  -0.368  -0.203
    1UNL     C2    2  -0.241  -0.235  -0.141
    1UNL     C3    3  -0.191  -0.186  -0.025
    1UNL     C4    4  -0.109  -0.268   0.066
    1UNL     N1    5   0.030  -0.215   0.082
    1UNL     C5    6   0.099  -0.235  -0.042
    1UNL     C6    7   0.071  -0.111  -0.129
    1UNL     C7    8   0.036   0.005  -0.036
    1UNL     C8    9   0.146   0.104  -0.033
    1UNL     C9   10   0.174   0.208  -0.123
    1UNL    C10   11   0.299   0.276  -0.108
    1UNL    C11   12   0.379   0.249   0.006
    1UNL    C12   13   0.348   0.154   0.097
    1UNL    C13   14   0.234   0.077   0.074
    1UNL     N2   15   0.189  -0.032   0.147
    1UNL    C14   16   0.256  -0.118   0.241
    1UNL     O1   17   0.205  -0.210   0.304
    1UNL    C15   18   0.049  -0.071   0.108
    1UNL    C16   19  -0.055  -0.022   0.223
    1UNL     O2   20  -0.018   0.099   0.280
    1UNL    C17   21  -0.203  -0.008   0.170
    1UNL    C18   22  -0.209  -0.038   0.015
    1UNL    C19   23  -0.107   0.062  -0.045
    1UNL    C20   24  -0.137   0.090  -0.197
    1UNL     O3   25  -0.129  -0.022  -0.283
    1UNL    C21   26  -0.126   0.207   0.017
    1UNL     O4   27  -0.241   0.258   0.020
    1UNL     O5   28  -0.009   0.275   0.063
    1UNL    C22   29  -0.049   0.400   0.114
    1UNL     H1   30  -0.315  -0.424  -0.170
    1UNL     H2   31  -0.231  -0.360  -0.306
    1UNL     H3   32  -0.141  -0.414  -0.168
    1UNL     H4   33  -0.302  -0.162  -0.195
    1UNL     H5   34  -0.107  -0.383   0.051
    1UNL     H6   35  -0.153  -0.254   0.162
    1UNL     H7   36   0.202  -0.250  -0.022
    1UNL     H8   37   0.060  -0.323  -0.089
    1UNL     H9   38   0.164  -0.094  -0.190
    1UNL    H10   39  -0.010  -0.134  -0.197
    1UNL    H11   40   0.115   0.223  -0.210
    1UNL    H12   41   0.319   0.360  -0.164
    1UNL    H13   42   0.462   0.316   0.023
    1UNL    H14   43   0.416   0.121   0.172
    1UNL    H15   44   0.368  -0.096   0.236
    1UNL    H16   45  -0.037  -0.099   0.299
    1UNL    H17   46   0.018   0.158   0.212
    1UNL    H18   47  -0.226   0.100   0.187
    1UNL    H19   48  -0.284  -0.066   0.236
    1UNL    H20   49  -0.301  -0.004  -0.022
    1UNL    H21   50  -0.079   0.177  -0.238
    1UNL    H22   51  -0.237   0.126  -0.197
    1UNL    H23   52  -0.171  -0.002  -0.369
    1UNL    H24   53  -0.161   0.400   0.111
    1UNL    H25   54  -0.021   0.479   0.037
    1UNL    H26   55  -0.013   0.422   0.210
   0.00000   0.00000   0.00000   0.00000   0.00000   0.00000   0.00000   0.00000   0.00000
Generated with MDTraj, t= 99.0
 55
    1UNL     C1    1  -0.208  -0.365  -0.200
    1UNL     C2    2  -0.237  -0.234  -0.132
    1UNL     C3    3  -0.187  -0.181  -0.017
    1UNL     C4    4  -0.098  -0.254   0.079
    1UNL     N1    5   0.042  -0.220   0.075
    1UNL     C5    6   0.102  -0.234  -0.070
    1UNL     C6    7   0.067  -0.105  -0.139
    1UNL     C7    8   0.039   0.007  -0.034
    1UNL     C8    9   0.162   0.100  -0.034
    1UNL     C9   10   0.210   0.199  -0.119
    1UNL    C10   11   0.323   0.269  -0.089
    1UNL    C11   12   0.396   0.246   0.030
    1UNL    C12   13   0.343   0.152   0.115
    1UNL    C13   14   0.229   0.073   0.081
    1UNL     N2   15   0.181  -0.038   0.157
    1UNL    C14   16   0.242  -0.111   0.262
    1UNL     O1   17   0.216  -0.225   0.296
    1UNL    C15   18   0.051  -0.073   0.106
    1UNL    C16   19  -0.057  -0.012   0.218
    1UNL     O2   20  -0.015   0.110   0.266
    1UNL    C17   21  -0.204  -0.015   0.168
    1UNL    C18   22  -0.215  -0.036   0.017
    1UNL    C19   23  -0.117   0.068  -0.053
    1UNL    C20   24  -0.152   0.099  -0.199
    1UNL     O3   25  -0.181  -0.017  -0.282
    1UNL    C21   26  -0.132   0.208   0.012
    1UNL     O4   27  -0.242   0.238   0.056
    1UNL     O5   28  -0.023   0.283   0.019
    1UNL    C22   29  -0.055   0.396   0.083
    1UNL     H1   30  -0.297  -0.402  -0.237
    1UNL     H2   31  -0.142  -0.366  -0.279
    1UNL     H3   32  -0.178  -0.441  -0.128
    1UNL     H4   33  -0.309  -0.167  -0.177
    1UNL     H5   34  -0.095  -0.366   0.061
    1UNL     H6   35  -0.134  -0.248   0.180
    1UNL     H7   36   0.208  -0.239  -0.068
    1UNL     H8   37   0.060  -0.312  -0.131
    1UNL     H9   38   0.153  -0.073  -0.205
    1UNL    H10   39  -0.023  -0.124  -0.198
    1UNL    H11   40   0.154   0.224  -0.210
    1UNL    H12   41   0.344   0.352  -0.165
    1UNL    H13   42   0.466   0.320   0.068
    1UNL    H14   43   0.402   0.120   0.202
    1UNL    H15   44   0.325  -0.082   0.314
    1UNL    H16   45  -0.041  -0.078   0.305
    1UNL    H17   46   0.016   0.167   0.191
    1UNL    H18   47  -0.248   0.083   0.200
    1UNL    H19   48  -0.270  -0.093   0.225
    1UNL    H20   49  -0.309  -0.007  -0.020
    1UNL    H21   50  -0.063   0.149  -0.245
    1UNL    H22   51  -0.236   0.164  -0.206
    1UNL    H23   52  -0.240   0.003  -0.358
    1UNL    H24   53  -0.039   0.388   0.194
    1UNL    H25   54  -0.165   0.422   0.059
    1UNL    H26   55   0.004   0.466   0.042
   0.00000   0.00000   0.00000   0.00000   0.00000   0.00000   0.00000   0.00000   0.00000
