[ moleculetype ]
; name        nrexcl
res           1

[ atoms ]
;    nr  type  resnr resid  atom  cgnr     charge       mass
      1 TC5       1 res   C1        1      0.000     36.000
      2 TC5       1 res   C2        2      0.000     36.000
      3 TC6       1 res   C3        3      0.000     36.000
      4 TC5       1 res   C4        4      0.000     36.000
      5 TC5       1 res   C5        5      0.000     36.000
      6 TC6       1 res   C6        6      0.000     36.000

[ constraints ]
;  ai    aj   funct      b0(nm)
    1     2     1      0.25071
    2     3     1      0.25814
    4     5     1      0.25036
    1     3     1      0.24281
    5     6     1      0.24283
    2     4     1      0.31039
    4     6     1      0.25810

[ bonds ]
;  ai    aj   funct      b0(nm)          k(kJ/mol/nm^2)

[ angles ]
;  ai    aj    ak  funct     th0(deg)        k(kJ/mol/rad^2)
    1     2     3     1     56.98647          3652.98
    1     2     4     1    116.78332          1913.16
    1     3     2     1     59.96187          6539.24
    2     1     3     1     63.05167          3748.37
    2     4     5     1    116.80001          2261.33
    2     4     6     1     59.84677          3376.93
    3     2     4     1     59.87013          3046.38
    4     5     6     1     63.09689          3623.34
    4     6     5     1     59.87289          5965.07
    5     4     6     1     57.03028          4203.32

[ dihedrals ]
;  ai    aj    ak    al  funct   phi0(deg)        k(kJ/mol)   mult
    1     2     4     5     1     -0.01579        7.803      1
    1     2     4     6     1     -0.15438       10.743      1
    1     3     2     4     1      0.23290        6.282      1
    2     4     5     6     1    179.06231        5.584      1
    2     4     6     5     1     -0.94822        5.594      1
    3     1     2     4     1   -179.99874        6.286      1
    3     2     4     5     1      0.00926        9.332      1
    3     2     4     6     1     -0.92723       11.552      1
