1TPCN02058
11
    1res  C1    1   -0.398   0.159   0.149
    1res  C2    2   -0.668  -0.028   0.011
    1res  C3    3   -0.543  -0.126  -0.169
    1res  C4    4   -0.342  -0.221  -0.067
    1res  C5    5   -0.156  -0.005  -0.034
    1res  C6    6    0.094  -0.037   0.170
    1res  C7    7    0.306   0.081   0.015
    1res  C8    8    0.530   0.182   0.175
    1res  C9    9    0.569  -0.004  -0.059
    1res  C10   10    0.461  -0.075  -0.229
    1res  C11   11    0.291   0.104  -0.261
  10.00000  10.00000  10.00000
