Generated with MDTraj, t= 0.0
 49
    1UNL     C1    1  -0.124  -0.287  -0.024
    1UNL     C2    2  -0.128  -0.134  -0.028
    1UNL     O1    3  -0.020  -0.089  -0.113
    1UNL     C3    4   0.102  -0.067  -0.044
    1UNL     O2    5   0.108   0.060   0.023
    1UNL     C4    6   0.224   0.073   0.105
    1UNL     C5    7   0.221   0.205   0.182
    1UNL     O3    8   0.325   0.215   0.277
    1UNL     C6    9   0.352   0.064   0.018
    1UNL     O4   10   0.360   0.173  -0.072
    1UNL     C7   11   0.356  -0.068  -0.061
    1UNL     O5   12   0.465  -0.066  -0.151
    1UNL     C8   13   0.223  -0.085  -0.139
    1UNL     O6   14   0.218  -0.208  -0.208
    1UNL     C9   15  -0.115  -0.080   0.117
    1UNL     O7   16  -0.059  -0.143   0.201
    1UNL    C10   17  -0.176   0.056   0.143
    1UNL    C11   18  -0.306   0.071   0.059
    1UNL    C12   19  -0.369  -0.070   0.033
    1UNL    C13   20  -0.267  -0.085  -0.084
    1UNL    C14   21  -0.276   0.073  -0.097
    1UNL    C15   22  -0.148   0.146  -0.140
    1UNL    C16   23  -0.395   0.121  -0.182
    1UNL     H1   24  -0.130  -0.327  -0.125
    1UNL     H2   25  -0.032  -0.322   0.021
    1UNL     H3   26  -0.207  -0.326   0.034
    1UNL     H4   27   0.108  -0.144   0.034
    1UNL     H5   28   0.221  -0.011   0.176
    1UNL     H6   29   0.234   0.288   0.112
    1UNL     H7   30   0.125   0.219   0.233
    1UNL     H8   31   0.318   0.142   0.343
    1UNL     H9   32   0.441   0.072   0.083
    1UNL    H10   33   0.418   0.148  -0.147
    1UNL    H11   34   0.368  -0.154   0.006
    1UNL    H12   35   0.550  -0.061  -0.102
    1UNL    H13   36   0.218  -0.007  -0.216
    1UNL    H14   37   0.229  -0.282  -0.145
    1UNL    H15   38  -0.198   0.064   0.250
    1UNL    H16   39  -0.104   0.134   0.120
    1UNL    H17   40  -0.377   0.149   0.093
    1UNL    H18   41  -0.354  -0.141   0.115
    1UNL    H19   42  -0.475  -0.068   0.002
    1UNL    H20   43  -0.303  -0.140  -0.173
    1UNL    H21   44  -0.129   0.129  -0.246
    1UNL    H22   45  -0.061   0.111  -0.085
    1UNL    H23   46  -0.157   0.253  -0.123
    1UNL    H24   47  -0.409   0.228  -0.171
    1UNL    H25   48  -0.377   0.100  -0.287
    1UNL    H26   49  -0.488   0.072  -0.153
   0.00000   0.00000   0.00000   0.00000   0.00000   0.00000   0.00000   0.00000   0.00000
Generated with MDTraj, t= 1.0
 49
    1UNL     C1    1  -0.109  -0.286  -0.033
    1UNL     C2    2  -0.120  -0.130  -0.028
    1UNL     O1    3  -0.022  -0.072  -0.113
    1UNL     C3    4   0.101  -0.061  -0.040
    1UNL     O2    5   0.120   0.066   0.031
    1UNL     C4    6   0.245   0.081   0.105
    1UNL     C5    7   0.236   0.221   0.187
    1UNL     O3    8   0.320   0.220   0.293
    1UNL     C6    9   0.375   0.053   0.019
    1UNL     O4   10   0.393   0.166  -0.070
    1UNL     C7   11   0.350  -0.074  -0.059
    1UNL     O5   12   0.454  -0.094  -0.145
    1UNL     C8   13   0.218  -0.072  -0.136
    1UNL     O6   14   0.207  -0.180  -0.220
    1UNL     C9   15  -0.121  -0.080   0.120
    1UNL     O7   16  -0.077  -0.150   0.210
    1UNL    C10   17  -0.175   0.060   0.141
    1UNL    C11   18  -0.306   0.071   0.054
    1UNL    C12   19  -0.374  -0.070   0.043
    1UNL    C13   20  -0.265  -0.094  -0.079
    1UNL    C14   21  -0.284   0.059  -0.103
    1UNL    C15   22  -0.170   0.141  -0.162
    1UNL    C16   23  -0.411   0.097  -0.186
    1UNL     H1   24  -0.092  -0.311  -0.144
    1UNL     H2   25  -0.033  -0.345   0.017
    1UNL     H3   26  -0.201  -0.321   0.008
    1UNL     H4   27   0.090  -0.138   0.036
    1UNL     H5   28   0.237   0.007   0.183
    1UNL     H6   29   0.264   0.300   0.118
    1UNL     H7   30   0.133   0.239   0.221
    1UNL     H8   31   0.290   0.141   0.348
    1UNL     H9   32   0.466   0.050   0.076
    1UNL    H10   33   0.459   0.151  -0.143
    1UNL    H11   34   0.361  -0.174  -0.008
    1UNL    H12   35   0.444  -0.059  -0.243
    1UNL    H13   36   0.206   0.015  -0.202
    1UNL    H14   37   0.213  -0.264  -0.163
    1UNL    H15   38  -0.206   0.079   0.245
    1UNL    H16   39  -0.092   0.124   0.116
    1UNL    H17   40  -0.376   0.146   0.085
    1UNL    H18   41  -0.353  -0.136   0.128
    1UNL    H19   42  -0.476  -0.074   0.015
    1UNL    H20   43  -0.298  -0.153  -0.171
    1UNL    H21   44  -0.177   0.129  -0.271
    1UNL    H22   45  -0.075   0.096  -0.124
    1UNL    H23   46  -0.164   0.249  -0.147
    1UNL    H24   47  -0.421   0.201  -0.177
    1UNL    H25   48  -0.404   0.090  -0.302
    1UNL    H26   49  -0.507   0.068  -0.167
   0.00000   0.00000   0.00000   0.00000   0.00000   0.00000   0.00000   0.00000   0.00000
Generated with MDTraj, t= 2.0
 49
    1UNL     C1    1  -0.109  -0.273  -0.013
    1UNL     C2    2  -0.130  -0.128  -0.023
    1UNL     O1    3  -0.022  -0.077  -0.110
    1UNL     C3    4   0.105  -0.045  -0.049
    1UNL     O2    5   0.113   0.073   0.018
    1UNL     C4    6   0.223   0.068   0.104
    1UNL     C5    7   0.247   0.205   0.175
    1UNL     O3    8   0.345   0.205   0.278
    1UNL     C6    9   0.355   0.053   0.034
    1UNL     O4   10   0.394   0.161  -0.056
    1UNL     C7   11   0.345  -0.076  -0.058
    1UNL     O5   12   0.466  -0.092  -0.131
    1UNL     C8   13   0.223  -0.069  -0.152
    1UNL     O6   14   0.214  -0.183  -0.236
    1UNL     C9   15  -0.123  -0.071   0.121
    1UNL     O7   16  -0.058  -0.122   0.208
    1UNL    C10   17  -0.206   0.057   0.150
    1UNL    C11   18  -0.327   0.059   0.056
    1UNL    C12   19  -0.368  -0.090   0.033
    1UNL    C13   20  -0.268  -0.093  -0.083
    1UNL    C14   21  -0.291   0.064  -0.102
    1UNL    C15   22  -0.163   0.139  -0.152
    1UNL    C16   23  -0.414   0.104  -0.189
    1UNL     H1   24  -0.075  -0.319  -0.116
    1UNL     H2   25  -0.016  -0.287   0.041
    1UNL     H3   26  -0.175  -0.322   0.051
    1UNL     H4   27   0.116  -0.127   0.022
    1UNL     H5   28   0.204   0.003   0.185
    1UNL     H6   29   0.298   0.266   0.099
    1UNL     H7   30   0.152   0.247   0.207
    1UNL     H8   31   0.332   0.142   0.354
    1UNL     H9   32   0.423   0.047   0.115
    1UNL    H10   33   0.481   0.137  -0.091
    1UNL    H11   34   0.344  -0.172   0.001
    1UNL    H12   35   0.449  -0.018  -0.199
    1UNL    H13   36   0.240   0.021  -0.215
    1UNL    H14   37   0.307  -0.230  -0.244
    1UNL    H15   38  -0.227   0.051   0.258
    1UNL    H16   39  -0.151   0.147   0.132
    1UNL    H17   40  -0.407   0.115   0.095
    1UNL    H18   41  -0.330  -0.155   0.109
    1UNL    H19   42  -0.469  -0.111   0.013
    1UNL    H20   43  -0.308  -0.167  -0.166
    1UNL    H21   44  -0.155   0.132  -0.264
    1UNL    H22   45  -0.067   0.120  -0.098
    1UNL    H23   46  -0.180   0.249  -0.152
    1UNL    H24   47  -0.446   0.203  -0.190
    1UNL    H25   48  -0.402   0.081  -0.300
    1UNL    H26   49  -0.497   0.048  -0.158
   0.00000   0.00000   0.00000   0.00000   0.00000   0.00000   0.00000   0.00000   0.00000
Generated with MDTraj, t= 3.0
 49
    1UNL     C1    1  -0.112  -0.273  -0.016
    1UNL     C2    2  -0.122  -0.122  -0.025
    1UNL     O1    3  -0.023  -0.071  -0.119
    1UNL     C3    4   0.102  -0.054  -0.052
    1UNL     O2    5   0.118   0.057   0.024
    1UNL     C4    6   0.230   0.060   0.114
    1UNL     C5    7   0.226   0.192   0.198
    1UNL     O3    8   0.347   0.224   0.272
    1UNL     C6    9   0.358   0.052   0.032
    1UNL     O4   10   0.388   0.162  -0.051
    1UNL     C7   11   0.347  -0.073  -0.064
    1UNL     O5   12   0.466  -0.089  -0.144
    1UNL     C8   13   0.223  -0.083  -0.147
    1UNL     O6   14   0.206  -0.207  -0.212
    1UNL     C9   15  -0.109  -0.054   0.113
    1UNL     O7   16  -0.031  -0.101   0.190
    1UNL    C10   17  -0.208   0.060   0.154
    1UNL    C11   18  -0.332   0.053   0.057
    1UNL    C12   19  -0.370  -0.093   0.018
    1UNL    C13   20  -0.261  -0.088  -0.091
    1UNL    C14   21  -0.295   0.068  -0.099
    1UNL    C15   22  -0.181   0.156  -0.132
    1UNL    C16   23  -0.414   0.095  -0.197
    1UNL     H1   24  -0.186  -0.326  -0.084
    1UNL     H2   25  -0.020  -0.310  -0.060
    1UNL     H3   26  -0.114  -0.305   0.085
    1UNL     H4   27   0.095  -0.138   0.019
    1UNL     H5   28   0.225  -0.027   0.172
    1UNL     H6   29   0.206   0.271   0.123
    1UNL     H7   30   0.145   0.177   0.270
    1UNL     H8   31   0.373   0.144   0.320
    1UNL     H9   32   0.436   0.032   0.098
    1UNL    H10   33   0.482   0.166  -0.070
    1UNL    H11   34   0.358  -0.168  -0.005
    1UNL    H12   35   0.481  -0.017  -0.203
    1UNL    H13   36   0.222   0.002  -0.220
    1UNL    H14   37   0.296  -0.248  -0.246
    1UNL    H15   38  -0.230   0.054   0.260
    1UNL    H16   39  -0.158   0.154   0.148
    1UNL    H17   40  -0.410   0.110   0.096
    1UNL    H18   41  -0.342  -0.159   0.093
    1UNL    H19   42  -0.472  -0.108  -0.008
    1UNL    H20   43  -0.287  -0.152  -0.188
    1UNL    H21   44  -0.175   0.196  -0.240
    1UNL    H22   45  -0.087   0.112  -0.097
    1UNL    H23   46  -0.195   0.259  -0.082
    1UNL    H24   47  -0.451   0.193  -0.194
    1UNL    H25   48  -0.368   0.086  -0.290
    1UNL    H26   49  -0.493   0.017  -0.189
   0.00000   0.00000   0.00000   0.00000   0.00000   0.00000   0.00000   0.00000   0.00000
Generated with MDTraj, t= 4.0
 49
    1UNL     C1    1  -0.116  -0.271  -0.029
    1UNL     C2    2  -0.121  -0.122  -0.033
    1UNL     O1    3  -0.021  -0.068  -0.119
    1UNL     C3    4   0.101  -0.059  -0.042
    1UNL     O2    5   0.113   0.072   0.026
    1UNL     C4    6   0.238   0.088   0.100
    1UNL     C5    7   0.247   0.214   0.185
    1UNL     O3    8   0.341   0.193   0.287
    1UNL     C6    9   0.367   0.064   0.011
    1UNL     O4   10   0.383   0.172  -0.078
    1UNL     C7   11   0.362  -0.070  -0.066
    1UNL     O5   12   0.471  -0.075  -0.146
    1UNL     C8   13   0.225  -0.092  -0.137
    1UNL     O6   14   0.226  -0.221  -0.188
    1UNL     C9   15  -0.123  -0.077   0.116
    1UNL     O7   16  -0.073  -0.137   0.210
    1UNL    C10   17  -0.202   0.051   0.141
    1UNL    C11   18  -0.329   0.057   0.056
    1UNL    C12   19  -0.387  -0.089   0.026
    1UNL    C13   20  -0.269  -0.085  -0.086
    1UNL    C14   21  -0.294   0.067  -0.091
    1UNL    C15   22  -0.168   0.145  -0.142
    1UNL    C16   23  -0.414   0.111  -0.181
    1UNL     H1   24  -0.077  -0.310  -0.121
    1UNL     H2   25  -0.045  -0.307   0.048
    1UNL     H3   26  -0.218  -0.309  -0.017
    1UNL     H4   27   0.087  -0.139   0.031
    1UNL     H5   28   0.233   0.008   0.166
    1UNL     H6   29   0.294   0.296   0.126
    1UNL     H7   30   0.150   0.241   0.229
    1UNL     H8   31   0.309   0.126   0.350
    1UNL     H9   32   0.444   0.067   0.084
    1UNL    H10   33   0.474   0.183  -0.113
    1UNL    H11   34   0.353  -0.164  -0.006
    1UNL    H12   35   0.481  -0.007  -0.222
    1UNL    H13   36   0.210  -0.015  -0.216
    1UNL    H14   37   0.319  -0.234  -0.211
    1UNL    H15   38  -0.226   0.069   0.244
    1UNL    H16   39  -0.131   0.131   0.120
    1UNL    H17   40  -0.398   0.126   0.091
    1UNL    H18   41  -0.373  -0.157   0.101
    1UNL    H19   42  -0.487  -0.104  -0.008
    1UNL    H20   43  -0.292  -0.124  -0.195
    1UNL    H21   44  -0.140   0.138  -0.252
    1UNL    H22   45  -0.088   0.097  -0.081
    1UNL    H23   46  -0.173   0.258  -0.126
    1UNL    H24   47  -0.412   0.218  -0.168
    1UNL    H25   48  -0.390   0.094  -0.277
    1UNL    H26   49  -0.513   0.064  -0.157
   0.00000   0.00000   0.00000   0.00000   0.00000   0.00000   0.00000   0.00000   0.00000
Generated with MDTraj, t= 5.0
 49
    1UNL     C1    1  -0.102  -0.278  -0.044
    1UNL     C2    2  -0.127  -0.135  -0.030
    1UNL     O1    3  -0.022  -0.060  -0.100
    1UNL     C3    4   0.103  -0.054  -0.033
    1UNL     O2    5   0.107   0.070   0.037
    1UNL     C4    6   0.231   0.087   0.109
    1UNL     C5    7   0.239   0.220   0.183
    1UNL     O3    8   0.328   0.221   0.295
    1UNL     C6    9   0.355   0.075   0.007
    1UNL     O4   10   0.355   0.172  -0.095
    1UNL     C7   11   0.353  -0.073  -0.063
    1UNL     O5   12   0.454  -0.092  -0.160
    1UNL     C8   13   0.218  -0.090  -0.136
    1UNL     O6   14   0.205  -0.222  -0.178
    1UNL     C9   15  -0.125  -0.089   0.119
    1UNL     O7   16  -0.086  -0.167   0.202
    1UNL    C10   17  -0.179   0.050   0.148
    1UNL    C11   18  -0.303   0.062   0.060
    1UNL    C12   19  -0.366  -0.080   0.018
    1UNL    C13   20  -0.264  -0.083  -0.092
    1UNL    C14   21  -0.269   0.075  -0.098
    1UNL    C15   22  -0.142   0.149  -0.133
    1UNL    C16   23  -0.389   0.115  -0.187
    1UNL     H1   24  -0.076  -0.292  -0.141
    1UNL     H2   25  -0.009  -0.297   0.012
    1UNL     H3   26  -0.193  -0.343  -0.026
    1UNL     H4   27   0.114  -0.143   0.030
    1UNL     H5   28   0.227   0.004   0.173
    1UNL     H6   29   0.276   0.300   0.116
    1UNL     H7   30   0.144   0.246   0.228
    1UNL     H8   31   0.317   0.143   0.356
    1UNL     H9   32   0.448   0.078   0.064
    1UNL    H10   33   0.449   0.172  -0.133
    1UNL    H11   34   0.372  -0.157   0.004
    1UNL    H12   35   0.414  -0.049  -0.246
    1UNL    H13   36   0.222  -0.016  -0.219
    1UNL    H14   37   0.287  -0.252  -0.212
    1UNL    H15   38  -0.203   0.051   0.251
    1UNL    H16   39  -0.102   0.126   0.131
    1UNL    H17   40  -0.378   0.119   0.101
    1UNL    H18   41  -0.336  -0.149   0.089
    1UNL    H19   42  -0.469  -0.083  -0.009
    1UNL    H20   43  -0.306  -0.142  -0.185
    1UNL    H21   44  -0.139   0.138  -0.245
    1UNL    H22   45  -0.047   0.103  -0.087
    1UNL    H23   46  -0.157   0.262  -0.123
    1UNL    H24   47  -0.409   0.217  -0.165
    1UNL    H25   48  -0.382   0.101  -0.297
    1UNL    H26   49  -0.476   0.063  -0.158
   0.00000   0.00000   0.00000   0.00000   0.00000   0.00000   0.00000   0.00000   0.00000
Generated with MDTraj, t= 6.0
 49
    1UNL     C1    1  -0.143  -0.287  -0.044
    1UNL     C2    2  -0.131  -0.137  -0.031
    1UNL     O1    3  -0.018  -0.086  -0.107
    1UNL     C3    4   0.105  -0.064  -0.036
    1UNL     O2    5   0.105   0.062   0.032
    1UNL     C4    6   0.229   0.076   0.107
    1UNL     C5    7   0.224   0.214   0.182
    1UNL     O3    8   0.344   0.245   0.257
    1UNL     C6    9   0.347   0.072   0.006
    1UNL     O4   10   0.355   0.175  -0.084
    1UNL     C7   11   0.359  -0.067  -0.054
    1UNL     O5   12   0.479  -0.082  -0.138
    1UNL     C8   13   0.225  -0.091  -0.131
    1UNL     O6   14   0.229  -0.222  -0.184
    1UNL     C9   15  -0.122  -0.096   0.111
    1UNL     O7   16  -0.069  -0.169   0.187
    1UNL    C10   17  -0.195   0.040   0.160
    1UNL    C11   18  -0.315   0.063   0.063
    1UNL    C12   19  -0.378  -0.071   0.018
    1UNL    C13   20  -0.268  -0.077  -0.094
    1UNL    C14   21  -0.274   0.081  -0.089
    1UNL    C15   22  -0.142   0.151  -0.121
    1UNL    C16   23  -0.388   0.135  -0.179
    1UNL     H1   24  -0.212  -0.322  -0.116
    1UNL     H2   25  -0.042  -0.318  -0.067
    1UNL     H3   26  -0.186  -0.327   0.052
    1UNL     H4   27   0.109  -0.140   0.044
    1UNL     H5   28   0.235  -0.005   0.175
    1UNL     H6   29   0.208   0.294   0.107
    1UNL     H7   30   0.144   0.215   0.256
    1UNL     H8   31   0.379   0.163   0.303
    1UNL     H9   32   0.434   0.098   0.075
    1UNL    H10   33   0.450   0.199  -0.115
    1UNL    H11   34   0.378  -0.141   0.020
    1UNL    H12   35   0.445  -0.049  -0.225
    1UNL    H13   36   0.215  -0.013  -0.208
    1UNL    H14   37   0.321  -0.261  -0.207
    1UNL    H15   38  -0.227   0.018   0.258
    1UNL    H16   39  -0.129   0.126   0.162
    1UNL    H17   40  -0.392   0.128   0.087
    1UNL    H18   41  -0.354  -0.137   0.097
    1UNL    H19   42  -0.479  -0.069  -0.015
    1UNL    H20   43  -0.292  -0.135  -0.190
    1UNL    H21   44  -0.124   0.166  -0.234
    1UNL    H22   45  -0.054   0.094  -0.082
    1UNL    H23   46  -0.140   0.259  -0.084
    1UNL    H24   47  -0.408   0.237  -0.157
    1UNL    H25   48  -0.364   0.127  -0.293
    1UNL    H26   49  -0.480   0.091  -0.175
   0.00000   0.00000   0.00000   0.00000   0.00000   0.00000   0.00000   0.00000   0.00000
Generated with MDTraj, t= 7.0
 49
    1UNL     C1    1  -0.131  -0.285  -0.037
    1UNL     C2    2  -0.123  -0.133  -0.043
    1UNL     O1    3  -0.015  -0.092  -0.122
    1UNL     C3    4   0.106  -0.082  -0.044
    1UNL     O2    5   0.111   0.049   0.026
    1UNL     C4    6   0.224   0.073   0.117
    1UNL     C5    7   0.205   0.225   0.166
    1UNL     O3    8   0.327   0.252   0.227
    1UNL     C6    9   0.351   0.062   0.022
    1UNL     O4   10   0.338   0.164  -0.070
    1UNL     C7   11   0.362  -0.074  -0.048
    1UNL     O5   12   0.481  -0.081  -0.135
    1UNL     C8   13   0.225  -0.097  -0.132
    1UNL     O6   14   0.228  -0.227  -0.196
    1UNL     C9   15  -0.119  -0.092   0.115
    1UNL     O7   16  -0.060  -0.163   0.193
    1UNL    C10   17  -0.198   0.036   0.159
    1UNL    C11   18  -0.316   0.062   0.065
    1UNL    C12   19  -0.375  -0.075   0.016
    1UNL    C13   20  -0.260  -0.067  -0.087
    1UNL    C14   21  -0.268   0.089  -0.084
    1UNL    C15   22  -0.142   0.161  -0.121
    1UNL    C16   23  -0.387   0.153  -0.161
    1UNL     H1   24  -0.075  -0.334  -0.123
    1UNL     H2   25  -0.085  -0.324   0.050
    1UNL     H3   26  -0.235  -0.312  -0.056
    1UNL     H4   27   0.094  -0.162   0.031
    1UNL     H5   28   0.224   0.006   0.203
    1UNL     H6   29   0.193   0.292   0.079
    1UNL     H7   30   0.120   0.233   0.233
    1UNL     H8   31   0.340   0.186   0.298
    1UNL     H9   32   0.449   0.088   0.079
    1UNL    H10   33   0.409   0.229  -0.048
    1UNL    H11   34   0.372  -0.168   0.004
    1UNL    H12   35   0.482  -0.007  -0.194
    1UNL    H13   36   0.219  -0.015  -0.205
    1UNL    H14   37   0.327  -0.239  -0.215
    1UNL    H15   38  -0.239   0.007   0.253
    1UNL    H16   39  -0.128   0.116   0.168
    1UNL    H17   40  -0.373   0.144   0.097
    1UNL    H18   41  -0.356  -0.158   0.085
    1UNL    H19   42  -0.478  -0.071  -0.010
    1UNL    H20   43  -0.279  -0.109  -0.187
    1UNL    H21   44  -0.105   0.192  -0.228
    1UNL    H22   45  -0.061   0.104  -0.079
    1UNL    H23   46  -0.132   0.254  -0.054
    1UNL    H24   47  -0.395   0.256  -0.136
    1UNL    H25   48  -0.360   0.143  -0.269
    1UNL    H26   49  -0.490   0.112  -0.155
   0.00000   0.00000   0.00000   0.00000   0.00000   0.00000   0.00000   0.00000   0.00000
Generated with MDTraj, t= 8.0
 49
    1UNL     C1    1  -0.135  -0.289  -0.048
    1UNL     C2    2  -0.129  -0.141  -0.034
    1UNL     O1    3  -0.016  -0.093  -0.121
    1UNL     C3    4   0.108  -0.066  -0.041
    1UNL     O2    5   0.106   0.069   0.016
    1UNL     C4    6   0.225   0.078   0.103
    1UNL     C5    7   0.212   0.211   0.177
    1UNL     O3    8   0.319   0.261   0.254
    1UNL     C6    9   0.355   0.069   0.016
    1UNL     O4   10   0.361   0.176  -0.077
    1UNL     C7   11   0.354  -0.077  -0.049
    1UNL     O5   12   0.459  -0.104  -0.137
    1UNL     C8   13   0.228  -0.087  -0.128
    1UNL     O6   14   0.219  -0.215  -0.188
    1UNL     C9   15  -0.120  -0.099   0.110
    1UNL     O7   16  -0.065  -0.173   0.189
    1UNL    C10   17  -0.179   0.035   0.164
    1UNL    C11   18  -0.300   0.068   0.069
    1UNL    C12   19  -0.374  -0.062   0.025
    1UNL    C13   20  -0.270  -0.076  -0.092
    1UNL    C14   21  -0.266   0.080  -0.082
    1UNL    C15   22  -0.139   0.152  -0.121
    1UNL    C16   23  -0.378   0.141  -0.182
    1UNL     H1   24  -0.203  -0.332  -0.131
    1UNL     H2   25  -0.036  -0.318  -0.073
    1UNL     H3   26  -0.162  -0.336   0.043
    1UNL     H4   27   0.099  -0.149   0.031
    1UNL     H5   28   0.230  -0.005   0.178
    1UNL     H6   29   0.180   0.276   0.093
    1UNL     H7   30   0.125   0.208   0.240
    1UNL     H8   31   0.378   0.189   0.278
    1UNL     H9   32   0.451   0.082   0.078
    1UNL    H10   33   0.352   0.259  -0.032
    1UNL    H11   34   0.365  -0.152   0.033
    1UNL    H12   35   0.473  -0.015  -0.178
    1UNL    H13   36   0.229  -0.009  -0.204
    1UNL    H14   37   0.306  -0.240  -0.210
    1UNL    H15   38  -0.207   0.012   0.264
    1UNL    H16   39  -0.102   0.106   0.163
    1UNL    H17   40  -0.365   0.141   0.106
    1UNL    H18   41  -0.353  -0.133   0.109
    1UNL    H19   42  -0.480  -0.054  -0.005
    1UNL    H20   43  -0.315  -0.126  -0.175
    1UNL    H21   44  -0.124   0.144  -0.236
    1UNL    H22   45  -0.041   0.119  -0.079
    1UNL    H23   46  -0.149   0.263  -0.093
    1UNL    H24   47  -0.398   0.247  -0.157
    1UNL    H25   48  -0.356   0.123  -0.284
    1UNL    H26   49  -0.479   0.087  -0.159
   0.00000   0.00000   0.00000   0.00000   0.00000   0.00000   0.00000   0.00000   0.00000
Generated with MDTraj, t= 9.0
 49
    1UNL     C1    1  -0.121  -0.291  -0.050
    1UNL     C2    2  -0.130  -0.142  -0.039
    1UNL     O1    3  -0.019  -0.089  -0.114
    1UNL     C3    4   0.107  -0.069  -0.038
    1UNL     O2    5   0.104   0.065   0.015
    1UNL     C4    6   0.219   0.081   0.104
    1UNL     C5    7   0.226   0.212   0.178
    1UNL     O3    8   0.348   0.226   0.254
    1UNL     C6    9   0.352   0.064   0.024
    1UNL     O4   10   0.366   0.156  -0.081
    1UNL     C7   11   0.361  -0.076  -0.041
    1UNL     O5   12   0.468  -0.074  -0.135
    1UNL     C8   13   0.233  -0.084  -0.122
    1UNL     O6   14   0.226  -0.206  -0.184
    1UNL     C9   15  -0.128  -0.090   0.111
    1UNL     O7   16  -0.088  -0.166   0.193
    1UNL    C10   17  -0.171   0.055   0.138
    1UNL    C11   18  -0.304   0.067   0.067
    1UNL    C12   19  -0.364  -0.070   0.035
    1UNL    C13   20  -0.273  -0.076  -0.092
    1UNL    C14   21  -0.281   0.083  -0.094
    1UNL    C15   22  -0.152   0.151  -0.145
    1UNL    C16   23  -0.408   0.128  -0.167
    1UNL     H1   24  -0.052  -0.322  -0.134
    1UNL     H2   25  -0.071  -0.333   0.037
    1UNL     H3   26  -0.215  -0.337  -0.062
    1UNL     H4   27   0.101  -0.152   0.034
    1UNL     H5   28   0.222  -0.007   0.177
    1UNL     H6   29   0.223   0.300   0.111
    1UNL     H7   30   0.133   0.217   0.233
    1UNL     H8   31   0.343   0.186   0.344
    1UNL     H9   32   0.443   0.090   0.087
    1UNL    H10   33   0.339   0.245  -0.062
    1UNL    H11   34   0.384  -0.156   0.036
    1UNL    H12   35   0.457   0.021  -0.169
    1UNL    H13   36   0.229  -0.001  -0.193
    1UNL    H14   37   0.302  -0.219  -0.240
    1UNL    H15   38  -0.178   0.064   0.243
    1UNL    H16   39  -0.089   0.114   0.107
    1UNL    H17   40  -0.363   0.131   0.127
    1UNL    H18   41  -0.325  -0.141   0.116
    1UNL    H19   42  -0.476  -0.065   0.015
    1UNL    H20   43  -0.325  -0.120  -0.168
    1UNL    H21   44  -0.152   0.131  -0.260
    1UNL    H22   45  -0.064   0.097  -0.101
    1UNL    H23   46  -0.150   0.259  -0.108
    1UNL    H24   47  -0.413   0.244  -0.146
    1UNL    H25   48  -0.411   0.108  -0.270
    1UNL    H26   49  -0.498   0.089  -0.112
   0.00000   0.00000   0.00000   0.00000   0.00000   0.00000   0.00000   0.00000   0.00000
Generated with MDTraj, t= 10.0
 49
    1UNL     C1    1  -0.109  -0.283  -0.043
    1UNL     C2    2  -0.121  -0.130  -0.039
    1UNL     O1    3  -0.015  -0.076  -0.118
    1UNL     C3    4   0.100  -0.064  -0.037
    1UNL     O2    5   0.113   0.060   0.043
    1UNL     C4    6   0.237   0.071   0.117
    1UNL     C5    7   0.220   0.195   0.200
    1UNL     O3    8   0.344   0.226   0.257
    1UNL     C6    9   0.360   0.062   0.016
    1UNL     O4   10   0.366   0.170  -0.073
    1UNL     C7   11   0.353  -0.069  -0.058
    1UNL     O5   12   0.468  -0.092  -0.144
    1UNL     C8   13   0.216  -0.088  -0.131
    1UNL     O6   14   0.212  -0.218  -0.194
    1UNL     C9   15  -0.116  -0.075   0.110
    1UNL     O7   16  -0.059  -0.134   0.196
    1UNL    C10   17  -0.187   0.063   0.139
    1UNL    C11   18  -0.318   0.067   0.058
    1UNL    C12   19  -0.379  -0.074   0.025
    1UNL    C13   20  -0.266  -0.084  -0.090
    1UNL    C14   21  -0.285   0.069  -0.092
    1UNL    C15   22  -0.162   0.158  -0.139
    1UNL    C16   23  -0.407   0.106  -0.185
    1UNL     H1   24  -0.149  -0.329  -0.130
    1UNL     H2   25  -0.002  -0.310  -0.049
    1UNL     H3   26  -0.154  -0.324   0.048
    1UNL     H4   27   0.098  -0.140   0.044
    1UNL     H5   28   0.260  -0.024   0.181
    1UNL     H6   29   0.180   0.276   0.135
    1UNL     H7   30   0.152   0.190   0.285
    1UNL     H8   31   0.363   0.182   0.345
    1UNL     H9   32   0.453   0.080   0.074
    1UNL    H10   33   0.357   0.251  -0.018
    1UNL    H11   34   0.356  -0.165   0.004
    1UNL    H12   35   0.478  -0.030  -0.214
    1UNL    H13   36   0.213  -0.007  -0.205
    1UNL    H14   37   0.302  -0.229  -0.245
    1UNL    H15   38  -0.197   0.069   0.244
    1UNL    H16   39  -0.117   0.140   0.117
    1UNL    H17   40  -0.378   0.148   0.086
    1UNL    H18   41  -0.370  -0.149   0.112
    1UNL    H19   42  -0.486  -0.085  -0.014
    1UNL    H20   43  -0.295  -0.135  -0.172
    1UNL    H21   44  -0.113   0.116  -0.235
    1UNL    H22   45  -0.087   0.148  -0.059
    1UNL    H23   46  -0.189   0.270  -0.133
    1UNL    H24   47  -0.439   0.215  -0.161
    1UNL    H25   48  -0.370   0.115  -0.290
    1UNL    H26   49  -0.498   0.048  -0.187
   0.00000   0.00000   0.00000   0.00000   0.00000   0.00000   0.00000   0.00000   0.00000
Generated with MDTraj, t= 11.0
 49
    1UNL     C1    1  -0.117  -0.291  -0.005
    1UNL     C2    2  -0.128  -0.134  -0.022
    1UNL     O1    3  -0.018  -0.082  -0.112
    1UNL     C3    4   0.101  -0.065  -0.043
    1UNL     O2    5   0.111   0.062   0.021
    1UNL     C4    6   0.225   0.074   0.112
    1UNL     C5    7   0.236   0.198   0.200
    1UNL     O3    8   0.367   0.208   0.255
    1UNL     C6    9   0.357   0.060   0.026
    1UNL     O4   10   0.387   0.173  -0.059
    1UNL     C7   11   0.357  -0.069  -0.066
    1UNL     O5   12   0.468  -0.083  -0.148
    1UNL     C8   13   0.220  -0.080  -0.142
    1UNL     O6   14   0.210  -0.207  -0.212
    1UNL     C9   15  -0.126  -0.070   0.117
    1UNL     O7   16  -0.054  -0.112   0.206
    1UNL    C10   17  -0.216   0.056   0.144
    1UNL    C11   18  -0.334   0.058   0.046
    1UNL    C12   19  -0.384  -0.085   0.007
    1UNL    C13   20  -0.265  -0.091  -0.092
    1UNL    C14   21  -0.282   0.067  -0.106
    1UNL    C15   22  -0.160   0.158  -0.118
    1UNL    C16   23  -0.401   0.109  -0.195
    1UNL     H1   24  -0.186  -0.331  -0.068
    1UNL     H2   25  -0.020  -0.318  -0.051
    1UNL     H3   26  -0.120  -0.325   0.101
    1UNL     H4   27   0.111  -0.141   0.037
    1UNL     H5   28   0.215  -0.029   0.167
    1UNL     H6   29   0.226   0.290   0.136
    1UNL     H7   30   0.154   0.200   0.273
    1UNL     H8   31   0.364   0.168   0.345
    1UNL     H9   32   0.439   0.058   0.096
    1UNL    H10   33   0.419   0.257  -0.010
    1UNL    H11   34   0.361  -0.157   0.005
    1UNL    H12   35   0.484   0.006  -0.194
    1UNL    H13   36   0.213   0.006  -0.211
    1UNL    H14   37   0.285  -0.234  -0.281
    1UNL    H15   38  -0.239   0.057   0.247
    1UNL    H16   39  -0.156   0.144   0.139
    1UNL    H17   40  -0.406   0.131   0.064
    1UNL    H18   41  -0.362  -0.145   0.104
    1UNL    H19   42  -0.490  -0.101  -0.035
    1UNL    H20   43  -0.280  -0.156  -0.172
    1UNL    H21   44  -0.110   0.146  -0.219
    1UNL    H22   45  -0.075   0.137  -0.047
    1UNL    H23   46  -0.182   0.269  -0.090
    1UNL    H24   47  -0.423   0.218  -0.206
    1UNL    H25   48  -0.384   0.070  -0.306
    1UNL    H26   49  -0.488   0.058  -0.162
   0.00000   0.00000   0.00000   0.00000   0.00000   0.00000   0.00000   0.00000   0.00000
Generated with MDTraj, t= 12.0
 49
    1UNL     C1    1  -0.106  -0.280  -0.014
    1UNL     C2    2  -0.129  -0.131  -0.023
    1UNL     O1    3  -0.020  -0.077  -0.099
    1UNL     C3    4   0.102  -0.065  -0.035
    1UNL     O2    5   0.118   0.061   0.033
    1UNL     C4    6   0.237   0.065   0.110
    1UNL     C5    7   0.246   0.196   0.191
    1UNL     O3    8   0.354   0.233   0.279
    1UNL     C6    9   0.365   0.041   0.022
    1UNL     O4   10   0.388   0.152  -0.065
    1UNL     C7   11   0.363  -0.084  -0.066
    1UNL     O5   12   0.458  -0.069  -0.159
    1UNL     C8   13   0.220  -0.086  -0.139
    1UNL     O6   14   0.216  -0.196  -0.230
    1UNL     C9   15  -0.133  -0.067   0.122
    1UNL     O7   16  -0.066  -0.116   0.211
    1UNL    C10   17  -0.217   0.060   0.148
    1UNL    C11   18  -0.328   0.061   0.049
    1UNL    C12   19  -0.378  -0.082   0.020
    1UNL    C13   20  -0.269  -0.092  -0.096
    1UNL    C14   21  -0.285   0.065  -0.112
    1UNL    C15   22  -0.165   0.156  -0.130
    1UNL    C16   23  -0.409   0.099  -0.204
    1UNL     H1   24  -0.035  -0.301  -0.091
    1UNL     H2   25  -0.062  -0.303   0.083
    1UNL     H3   26  -0.207  -0.326  -0.013
    1UNL     H4   27   0.122  -0.141   0.043
    1UNL     H5   28   0.227  -0.028   0.181
    1UNL     H6   29   0.240   0.280   0.116
    1UNL     H7   30   0.152   0.201   0.250
    1UNL     H8   31   0.360   0.179   0.360
    1UNL     H9   32   0.444   0.035   0.092
    1UNL    H10   33   0.413   0.239  -0.017
    1UNL    H11   34   0.379  -0.180  -0.012
    1UNL    H12   35   0.470   0.031  -0.171
    1UNL    H13   36   0.222   0.006  -0.202
    1UNL    H14   37   0.280  -0.199  -0.299
    1UNL    H15   38  -0.248   0.050   0.248
    1UNL    H16   39  -0.164   0.153   0.152
    1UNL    H17   40  -0.402   0.129   0.075
    1UNL    H18   41  -0.354  -0.157   0.104
    1UNL    H19   42  -0.487  -0.087  -0.014
    1UNL    H20   43  -0.294  -0.159  -0.178
    1UNL    H21   44  -0.106   0.124  -0.220
    1UNL    H22   45  -0.093   0.167  -0.041
    1UNL    H23   46  -0.201   0.264  -0.139
    1UNL    H24   47  -0.442   0.197  -0.181
    1UNL    H25   48  -0.394   0.102  -0.318
    1UNL    H26   49  -0.491   0.026  -0.176
   0.00000   0.00000   0.00000   0.00000   0.00000   0.00000   0.00000   0.00000   0.00000
Generated with MDTraj, t= 13.0
 49
    1UNL     C1    1  -0.102  -0.293  -0.025
    1UNL     C2    2  -0.125  -0.140  -0.029
    1UNL     O1    3  -0.026  -0.073  -0.114
    1UNL     C3    4   0.093  -0.059  -0.046
    1UNL     O2    5   0.116   0.065   0.031
    1UNL     C4    6   0.237   0.081   0.110
    1UNL     C5    7   0.242   0.201   0.209
    1UNL     O3    8   0.371   0.216   0.266
    1UNL     C6    9   0.366   0.055   0.023
    1UNL     O4   10   0.379   0.170  -0.057
    1UNL     C7   11   0.351  -0.071  -0.055
    1UNL     O5   12   0.450  -0.087  -0.146
    1UNL     C8   13   0.213  -0.080  -0.136
    1UNL     O6   14   0.212  -0.196  -0.211
    1UNL     C9   15  -0.127  -0.076   0.116
    1UNL     O7   16  -0.075  -0.131   0.206
    1UNL    C10   17  -0.188   0.066   0.131
    1UNL    C11   18  -0.321   0.070   0.046
    1UNL    C12   19  -0.373  -0.077   0.030
    1UNL    C13   20  -0.268  -0.097  -0.085
    1UNL    C14   21  -0.288   0.060  -0.104
    1UNL    C15   22  -0.169   0.155  -0.154
    1UNL    C16   23  -0.410   0.096  -0.193
    1UNL     H1   24   0.007  -0.304  -0.041
    1UNL     H2   25  -0.134  -0.343   0.061
    1UNL     H3   26  -0.168  -0.336  -0.103
    1UNL     H4   27   0.098  -0.125   0.044
    1UNL     H5   28   0.240  -0.009   0.183
    1UNL     H6   29   0.210   0.295   0.157
    1UNL     H7   30   0.176   0.178   0.296
    1UNL     H8   31   0.413   0.129   0.282
    1UNL     H9   32   0.451   0.043   0.088
    1UNL    H10   33   0.394   0.249   0.001
    1UNL    H11   34   0.354  -0.166  -0.003
    1UNL    H12   35   0.478  -0.003  -0.182
    1UNL    H13   36   0.217   0.004  -0.209
    1UNL    H14   37   0.294  -0.200  -0.260
    1UNL    H15   38  -0.210   0.085   0.232
    1UNL    H16   39  -0.112   0.138   0.108
    1UNL    H17   40  -0.394   0.140   0.072
    1UNL    H18   41  -0.364  -0.127   0.132
    1UNL    H19   42  -0.482  -0.096   0.002
    1UNL    H20   43  -0.307  -0.162  -0.167
    1UNL    H21   44  -0.141   0.136  -0.262
    1UNL    H22   45  -0.084   0.133  -0.083
    1UNL    H23   46  -0.196   0.262  -0.127
    1UNL    H24   47  -0.420   0.202  -0.200
    1UNL    H25   48  -0.392   0.073  -0.296
    1UNL    H26   49  -0.507   0.049  -0.146
   0.00000   0.00000   0.00000   0.00000   0.00000   0.00000   0.00000   0.00000   0.00000
Generated with MDTraj, t= 14.0
 49
    1UNL     C1    1  -0.104  -0.285  -0.042
    1UNL     C2    2  -0.125  -0.135  -0.036
    1UNL     O1    3  -0.018  -0.078  -0.113
    1UNL     C3    4   0.099  -0.068  -0.038
    1UNL     O2    5   0.116   0.056   0.033
    1UNL     C4    6   0.232   0.071   0.115
    1UNL     C5    7   0.238   0.196   0.194
    1UNL     O3    8   0.358   0.218   0.261
    1UNL     C6    9   0.357   0.063   0.024
    1UNL     O4   10   0.360   0.173  -0.069
    1UNL     C7   11   0.351  -0.070  -0.058
    1UNL     O5   12   0.469  -0.083  -0.133
    1UNL     C8   13   0.220  -0.085  -0.135
    1UNL     O6   14   0.216  -0.210  -0.204
    1UNL     C9   15  -0.121  -0.078   0.109
    1UNL     O7   16  -0.070  -0.134   0.202
    1UNL    C10   17  -0.180   0.059   0.134
    1UNL    C11   18  -0.314   0.070   0.059
    1UNL    C12   19  -0.373  -0.075   0.031
    1UNL    C13   20  -0.269  -0.086  -0.083
    1UNL    C14   21  -0.289   0.073  -0.096
    1UNL    C15   22  -0.173   0.151  -0.160
    1UNL    C16   23  -0.414   0.109  -0.176
    1UNL     H1   24  -0.057  -0.313   0.057
    1UNL     H2   25  -0.190  -0.339  -0.054
    1UNL     H3   26  -0.044  -0.319  -0.127
    1UNL     H4   27   0.107  -0.145   0.044
    1UNL     H5   28   0.226  -0.011   0.194
    1UNL     H6   29   0.250   0.278   0.120
    1UNL     H7   30   0.142   0.194   0.252
    1UNL     H8   31   0.347   0.176   0.351
    1UNL     H9   32   0.447   0.058   0.087
    1UNL    H10   33   0.398   0.254  -0.035
    1UNL    H11   34   0.361  -0.148   0.013
    1UNL    H12   35   0.484   0.001  -0.184
    1UNL    H13   36   0.211  -0.008  -0.215
    1UNL    H14   37   0.281  -0.230  -0.281
    1UNL    H15   38  -0.202   0.083   0.235
    1UNL    H16   39  -0.109   0.131   0.104
    1UNL    H17   40  -0.367   0.158   0.078
    1UNL    H18   41  -0.354  -0.143   0.118
    1UNL    H19   42  -0.481  -0.068   0.004
    1UNL    H20   43  -0.321  -0.143  -0.168
    1UNL    H21   44  -0.133   0.093  -0.250
    1UNL    H22   45  -0.094   0.171  -0.087
    1UNL    H23   46  -0.217   0.253  -0.184
    1UNL    H24   47  -0.441   0.217  -0.171
    1UNL    H25   48  -0.401   0.104  -0.278
    1UNL    H26   49  -0.496   0.047  -0.135
   0.00000   0.00000   0.00000   0.00000   0.00000   0.00000   0.00000   0.00000   0.00000
Generated with MDTraj, t= 15.0
 49
    1UNL     C1    1  -0.127  -0.289  -0.031
    1UNL     C2    2  -0.130  -0.138  -0.023
    1UNL     O1    3  -0.021  -0.094  -0.110
    1UNL     C3    4   0.104  -0.061  -0.045
    1UNL     O2    5   0.116   0.065   0.008
    1UNL     C4    6   0.224   0.073   0.101
    1UNL     C5    7   0.213   0.193   0.192
    1UNL     O3    8   0.324   0.232   0.267
    1UNL     C6    9   0.362   0.065   0.020
    1UNL     O4   10   0.371   0.163  -0.086
    1UNL     C7   11   0.363  -0.072  -0.056
    1UNL     O5   12   0.473  -0.076  -0.146
    1UNL     C8   13   0.231  -0.092  -0.131
    1UNL     O6   14   0.211  -0.220  -0.199
    1UNL     C9   15  -0.120  -0.081   0.120
    1UNL     O7   16  -0.054  -0.141   0.203
    1UNL    C10   17  -0.185   0.050   0.151
    1UNL    C11   18  -0.319   0.065   0.061
    1UNL    C12   19  -0.369  -0.071   0.025
    1UNL    C13   20  -0.263  -0.075  -0.092
    1UNL    C14   21  -0.280   0.083  -0.092
    1UNL    C15   22  -0.151   0.160  -0.123
    1UNL    C16   23  -0.396   0.118  -0.189
    1UNL     H1   24  -0.023  -0.327  -0.037
    1UNL     H2   25  -0.164  -0.344   0.053
    1UNL     H3   26  -0.178  -0.327  -0.117
    1UNL     H4   27   0.102  -0.129   0.044
    1UNL     H5   28   0.213  -0.013   0.171
    1UNL     H6   29   0.194   0.270   0.116
    1UNL     H7   30   0.133   0.183   0.267
    1UNL     H8   31   0.335   0.192   0.357
    1UNL     H9   32   0.444   0.063   0.097
    1UNL    H10   33   0.347   0.249  -0.056
    1UNL    H11   34   0.378  -0.147   0.019
    1UNL    H12   35   0.476   0.013  -0.196
    1UNL    H13   36   0.235  -0.017  -0.213
    1UNL    H14   37   0.256  -0.228  -0.287
    1UNL    H15   38  -0.205   0.049   0.255
    1UNL    H16   39  -0.130   0.136   0.129
    1UNL    H17   40  -0.395   0.129   0.092
    1UNL    H18   41  -0.344  -0.140   0.106
    1UNL    H19   42  -0.474  -0.071  -0.005
    1UNL    H20   43  -0.305  -0.123  -0.190
    1UNL    H21   44  -0.143   0.197  -0.230
    1UNL    H22   45  -0.055   0.110  -0.106
    1UNL    H23   46  -0.140   0.246  -0.052
    1UNL    H24   47  -0.413   0.231  -0.182
    1UNL    H25   48  -0.376   0.118  -0.292
    1UNL    H26   49  -0.486   0.078  -0.165
   0.00000   0.00000   0.00000   0.00000   0.00000   0.00000   0.00000   0.00000   0.00000
Generated with MDTraj, t= 16.0
 49
    1UNL     C1    1  -0.133  -0.284  -0.032
    1UNL     C2    2  -0.130  -0.135  -0.031
    1UNL     O1    3  -0.017  -0.094  -0.113
    1UNL     C3    4   0.106  -0.074  -0.040
    1UNL     O2    5   0.106   0.055   0.016
    1UNL     C4    6   0.217   0.078   0.098
    1UNL     C5    7   0.205   0.212   0.173
    1UNL     O3    8   0.323   0.235   0.249
    1UNL     C6    9   0.349   0.063   0.019
    1UNL     O4   10   0.359   0.169  -0.079
    1UNL     C7   11   0.355  -0.072  -0.051
    1UNL     O5   12   0.460  -0.075  -0.146
    1UNL     C8   13   0.229  -0.094  -0.129
    1UNL     O6   14   0.232  -0.217  -0.201
    1UNL     C9   15  -0.112  -0.088   0.119
    1UNL     O7   16  -0.040  -0.144   0.193
    1UNL    C10   17  -0.192   0.035   0.161
    1UNL    C11   18  -0.312   0.064   0.061
    1UNL    C12   19  -0.377  -0.068   0.018
    1UNL    C13   20  -0.268  -0.076  -0.088
    1UNL    C14   21  -0.271   0.076  -0.091
    1UNL    C15   22  -0.135   0.145  -0.114
    1UNL    C16   23  -0.382   0.149  -0.174
    1UNL     H1   24  -0.086  -0.338   0.050
    1UNL     H2   25  -0.239  -0.320  -0.019
    1UNL     H3   26  -0.092  -0.321  -0.121
    1UNL     H4   27   0.097  -0.145   0.043
    1UNL     H5   28   0.201   0.001   0.174
    1UNL     H6   29   0.198   0.296   0.105
    1UNL     H7   30   0.120   0.196   0.239
    1UNL     H8   31   0.338   0.178   0.326
    1UNL     H9   32   0.434   0.062   0.095
    1UNL    H10   33   0.394   0.246  -0.031
    1UNL    H11   34   0.374  -0.156   0.013
    1UNL    H12   35   0.459  -0.010  -0.214
    1UNL    H13   36   0.221  -0.017  -0.207
    1UNL    H14   37   0.297  -0.266  -0.155
    1UNL    H15   38  -0.247   0.011   0.248
    1UNL    H16   39  -0.129   0.117   0.181
    1UNL    H17   40  -0.375   0.139   0.095
    1UNL    H18   41  -0.381  -0.140   0.097
    1UNL    H19   42  -0.477  -0.064  -0.022
    1UNL    H20   43  -0.306  -0.129  -0.186
    1UNL    H21   44  -0.095   0.096  -0.205
    1UNL    H22   45  -0.056   0.128  -0.039
    1UNL    H23   46  -0.135   0.256  -0.133
    1UNL    H24   47  -0.387   0.258  -0.162
    1UNL    H25   48  -0.355   0.151  -0.277
    1UNL    H26   49  -0.477   0.108  -0.164
   0.00000   0.00000   0.00000   0.00000   0.00000   0.00000   0.00000   0.00000   0.00000
Generated with MDTraj, t= 17.0
 49
    1UNL     C1    1  -0.130  -0.288  -0.037
    1UNL     C2    2  -0.124  -0.131  -0.036
    1UNL     O1    3  -0.017  -0.084  -0.115
    1UNL     C3    4   0.109  -0.073  -0.042
    1UNL     O2    5   0.109   0.048   0.039
    1UNL     C4    6   0.225   0.076   0.110
    1UNL     C5    7   0.206   0.215   0.180
    1UNL     O3    8   0.328   0.255   0.236
    1UNL     C6    9   0.354   0.061   0.023
    1UNL     O4   10   0.345   0.173  -0.065
    1UNL     C7   11   0.359  -0.074  -0.047
    1UNL     O5   12   0.463  -0.087  -0.140
    1UNL     C8   13   0.230  -0.091  -0.134
    1UNL     O6   14   0.230  -0.215  -0.206
    1UNL     C9   15  -0.120  -0.094   0.116
    1UNL     O7   16  -0.079  -0.172   0.195
    1UNL    C10   17  -0.170   0.044   0.147
    1UNL    C11   18  -0.300   0.068   0.061
    1UNL    C12   19  -0.370  -0.071   0.029
    1UNL    C13   20  -0.264  -0.076  -0.087
    1UNL    C14   21  -0.271   0.083  -0.094
    1UNL    C15   22  -0.143   0.163  -0.119
    1UNL    C16   23  -0.388   0.138  -0.178
    1UNL     H1   24  -0.036  -0.335  -0.030
    1UNL     H2   25  -0.177  -0.325   0.062
    1UNL     H3   26  -0.167  -0.330  -0.128
    1UNL     H4   27   0.105  -0.160   0.023
    1UNL     H5   28   0.219   0.004   0.188
    1UNL     H6   29   0.183   0.287   0.104
    1UNL     H7   30   0.128   0.212   0.258
    1UNL     H8   31   0.395   0.195   0.196
    1UNL     H9   32   0.447   0.068   0.087
    1UNL    H10   33   0.272   0.159  -0.133
    1UNL    H11   34   0.372  -0.158   0.022
    1UNL    H12   35   0.453  -0.024  -0.218
    1UNL    H13   36   0.210  -0.025  -0.220
    1UNL    H14   37   0.310  -0.262  -0.183
    1UNL    H15   38  -0.189   0.048   0.251
    1UNL    H16   39  -0.102   0.123   0.126
    1UNL    H17   40  -0.367   0.140   0.093
    1UNL    H18   41  -0.350  -0.151   0.095
    1UNL    H19   42  -0.464  -0.075  -0.021
    1UNL    H20   43  -0.303  -0.135  -0.182
    1UNL    H21   44  -0.136   0.185  -0.225
    1UNL    H22   45  -0.056   0.106  -0.085
    1UNL    H23   46  -0.156   0.257  -0.059
    1UNL    H24   47  -0.400   0.237  -0.165
    1UNL    H25   48  -0.360   0.140  -0.280
    1UNL    H26   49  -0.481   0.079  -0.159
   0.00000   0.00000   0.00000   0.00000   0.00000   0.00000   0.00000   0.00000   0.00000
Generated with MDTraj, t= 18.0
 49
    1UNL     C1    1  -0.137  -0.289  -0.048
    1UNL     C2    2  -0.138  -0.135  -0.040
    1UNL     O1    3  -0.021  -0.083  -0.107
    1UNL     C3    4   0.101  -0.058  -0.034
    1UNL     O2    5   0.111   0.072   0.025
    1UNL     C4    6   0.229   0.079   0.108
    1UNL     C5    7   0.229   0.209   0.189
    1UNL     O3    8   0.350   0.252   0.244
    1UNL     C6    9   0.360   0.065   0.020
    1UNL     O4   10   0.357   0.169  -0.083
    1UNL     C7   11   0.361  -0.069  -0.052
    1UNL     O5   12   0.482  -0.067  -0.132
    1UNL     C8   13   0.220  -0.093  -0.125
    1UNL     O6   14   0.206  -0.219  -0.182
    1UNL     C9   15  -0.121  -0.095   0.105
    1UNL     O7   16  -0.084  -0.181   0.183
    1UNL    C10   17  -0.171   0.038   0.147
    1UNL    C11   18  -0.303   0.066   0.070
    1UNL    C12   19  -0.371  -0.073   0.035
    1UNL    C13   20  -0.274  -0.077  -0.092
    1UNL    C14   21  -0.278   0.077  -0.092
    1UNL    C15   22  -0.141   0.137  -0.143
    1UNL    C16   23  -0.392   0.137  -0.174
    1UNL     H1   24  -0.072  -0.330   0.024
    1UNL     H2   25  -0.238  -0.322  -0.011
    1UNL     H3   26  -0.107  -0.318  -0.149
    1UNL     H4   27   0.106  -0.132   0.045
    1UNL     H5   28   0.227   0.004   0.181
    1UNL     H6   29   0.201   0.289   0.122
    1UNL     H7   30   0.155   0.206   0.272
    1UNL     H8   31   0.359   0.199   0.329
    1UNL     H9   32   0.448   0.073   0.089
    1UNL    H10   33   0.269   0.171  -0.136
    1UNL    H11   34   0.389  -0.141   0.029
    1UNL    H12   35   0.470   0.012  -0.191
    1UNL    H13   36   0.215  -0.025  -0.209
    1UNL    H14   37   0.298  -0.267  -0.172
    1UNL    H15   38  -0.188   0.051   0.250
    1UNL    H16   39  -0.096   0.111   0.125
    1UNL    H17   40  -0.370   0.131   0.117
    1UNL    H18   41  -0.351  -0.142   0.112
    1UNL    H19   42  -0.474  -0.060   0.017
    1UNL    H20   43  -0.307  -0.132  -0.190
    1UNL    H21   44  -0.123   0.103  -0.246
    1UNL    H22   45  -0.057   0.100  -0.086
    1UNL    H23   46  -0.144   0.247  -0.140
    1UNL    H24   47  -0.395   0.241  -0.169
    1UNL    H25   48  -0.363   0.121  -0.273
    1UNL    H26   49  -0.489   0.088  -0.153
   0.00000   0.00000   0.00000   0.00000   0.00000   0.00000   0.00000   0.00000   0.00000
Generated with MDTraj, t= 19.0
 49
    1UNL     C1    1  -0.110  -0.280  -0.047
    1UNL     C2    2  -0.122  -0.122  -0.034
    1UNL     O1    3  -0.020  -0.069  -0.113
    1UNL     C3    4   0.103  -0.064  -0.036
    1UNL     O2    5   0.112   0.065   0.025
    1UNL     C4    6   0.231   0.079   0.102
    1UNL     C5    7   0.234   0.211   0.173
    1UNL     O3    8   0.332   0.213   0.275
    1UNL     C6    9   0.353   0.075   0.008
    1UNL     O4   10   0.358   0.171  -0.098
    1UNL     C7   11   0.358  -0.064  -0.056
    1UNL     O5   12   0.463  -0.074  -0.155
    1UNL     C8   13   0.226  -0.102  -0.120
    1UNL     O6   14   0.208  -0.241  -0.155
    1UNL     C9   15  -0.120  -0.083   0.113
    1UNL     O7   16  -0.069  -0.162   0.189
    1UNL    C10   17  -0.186   0.049   0.146
    1UNL    C11   18  -0.319   0.061   0.065
    1UNL    C12   19  -0.374  -0.084   0.018
    1UNL    C13   20  -0.264  -0.079  -0.089
    1UNL    C14   21  -0.279   0.079  -0.083
    1UNL    C15   22  -0.150   0.159  -0.120
    1UNL    C16   23  -0.386   0.129  -0.180
    1UNL     H1   24  -0.007  -0.303  -0.022
    1UNL     H2   25  -0.166  -0.332   0.028
    1UNL     H3   26  -0.127  -0.303  -0.155
    1UNL     H4   27   0.107  -0.133   0.047
    1UNL     H5   28   0.239   0.002   0.171
    1UNL     H6   29   0.269   0.294   0.111
    1UNL     H7   30   0.128   0.229   0.205
    1UNL     H8   31   0.292   0.263   0.351
    1UNL     H9   32   0.448   0.082   0.061
    1UNL    H10   33   0.283   0.171  -0.163
    1UNL    H11   34   0.383  -0.142   0.023
    1UNL    H12   35   0.459  -0.002  -0.216
    1UNL    H13   36   0.208  -0.049  -0.212
    1UNL    H14   37   0.294  -0.291  -0.147
    1UNL    H15   38  -0.199   0.055   0.250
    1UNL    H16   39  -0.124   0.135   0.124
    1UNL    H17   40  -0.395   0.116   0.118
    1UNL    H18   41  -0.368  -0.169   0.079
    1UNL    H19   42  -0.476  -0.083  -0.014
    1UNL    H20   43  -0.282  -0.127  -0.193
    1UNL    H21   44  -0.137   0.163  -0.230
    1UNL    H22   45  -0.057   0.116  -0.089
    1UNL    H23   46  -0.153   0.261  -0.086
    1UNL    H24   47  -0.402   0.242  -0.171
    1UNL    H25   48  -0.367   0.113  -0.281
    1UNL    H26   49  -0.478   0.086  -0.151
   0.00000   0.00000   0.00000   0.00000   0.00000   0.00000   0.00000   0.00000   0.00000
Generated with MDTraj, t= 20.0
 49
    1UNL     C1    1  -0.114  -0.273  -0.035
    1UNL     C2    2  -0.128  -0.123  -0.037
    1UNL     O1    3  -0.018  -0.072  -0.115
    1UNL     C3    4   0.105  -0.067  -0.032
    1UNL     O2    5   0.124   0.068   0.023
    1UNL     C4    6   0.246   0.091   0.097
    1UNL     C5    7   0.240   0.221   0.174
    1UNL     O3    8   0.318   0.191   0.293
    1UNL     C6    9   0.367   0.073  -0.001
    1UNL     O4   10   0.364   0.168  -0.108
    1UNL     C7   11   0.355  -0.070  -0.056
    1UNL     O5   12   0.458  -0.092  -0.151
    1UNL     C8   13   0.223  -0.099  -0.127
    1UNL     O6   14   0.230  -0.241  -0.164
    1UNL     C9   15  -0.119  -0.074   0.117
    1UNL     O7   16  -0.053  -0.129   0.199
    1UNL    C10   17  -0.206   0.037   0.157
    1UNL    C11   18  -0.332   0.054   0.060
    1UNL    C12   19  -0.378  -0.094   0.008
    1UNL    C13   20  -0.264  -0.079  -0.097
    1UNL    C14   21  -0.290   0.082  -0.089
    1UNL    C15   22  -0.164   0.164  -0.111
    1UNL    C16   23  -0.399   0.128  -0.184
    1UNL     H1   24  -0.037  -0.302   0.038
    1UNL     H2   25  -0.202  -0.306   0.008
    1UNL     H3   26  -0.098  -0.305  -0.141
    1UNL     H4   27   0.113  -0.131   0.056
    1UNL     H5   28   0.259   0.018   0.171
    1UNL     H6   29   0.277   0.297   0.103
    1UNL     H7   30   0.139   0.248   0.215
    1UNL     H8   31   0.388   0.259   0.300
    1UNL     H9   32   0.451   0.086   0.065
    1UNL    H10   33   0.272   0.195  -0.124
    1UNL    H11   34   0.364  -0.149   0.026
    1UNL    H12   35   0.463  -0.017  -0.219
    1UNL    H13   36   0.210  -0.040  -0.216
    1UNL    H14   37   0.321  -0.262  -0.154
    1UNL    H15   38  -0.244   0.021   0.255
    1UNL    H16   39  -0.138   0.120   0.163
    1UNL    H17   40  -0.408   0.116   0.109
    1UNL    H18   41  -0.359  -0.176   0.074
    1UNL    H19   42  -0.479  -0.092  -0.031
    1UNL    H20   43  -0.264  -0.116  -0.205
    1UNL    H21   44  -0.141   0.163  -0.217
    1UNL    H22   45  -0.073   0.120  -0.068
    1UNL    H23   46  -0.170   0.266  -0.081
    1UNL    H24   47  -0.445   0.229  -0.154
    1UNL    H25   48  -0.367   0.142  -0.286
    1UNL    H26   49  -0.479   0.064  -0.183
   0.00000   0.00000   0.00000   0.00000   0.00000   0.00000   0.00000   0.00000   0.00000
Generated with MDTraj, t= 21.0
 49
    1UNL     C1    1  -0.114  -0.276  -0.032
    1UNL     C2    2  -0.119  -0.117  -0.023
    1UNL     O1    3  -0.020  -0.059  -0.108
    1UNL     C3    4   0.107  -0.044  -0.047
    1UNL     O2    5   0.123   0.079   0.008
    1UNL     C4    6   0.233   0.074   0.107
    1UNL     C5    7   0.245   0.213   0.182
    1UNL     O3    8   0.354   0.223   0.276
    1UNL     C6    9   0.362   0.054   0.016
    1UNL     O4   10   0.369   0.158  -0.080
    1UNL     C7   11   0.353  -0.083  -0.049
    1UNL     O5   12   0.457  -0.086  -0.140
    1UNL     C8   13   0.227  -0.093  -0.136
    1UNL     O6   14   0.212  -0.229  -0.187
    1UNL     C9   15  -0.123  -0.077   0.122
    1UNL     O7   16  -0.054  -0.134   0.203
    1UNL    C10   17  -0.215   0.037   0.157
    1UNL    C11   18  -0.334   0.058   0.051
    1UNL    C12   19  -0.375  -0.089   0.016
    1UNL    C13   20  -0.261  -0.085  -0.094
    1UNL    C14   21  -0.291   0.068  -0.098
    1UNL    C15   22  -0.163   0.155  -0.122
    1UNL    C16   23  -0.404   0.115  -0.192
    1UNL     H1   24  -0.018  -0.314   0.011
    1UNL     H2   25  -0.186  -0.320   0.027
    1UNL     H3   26  -0.125  -0.309  -0.135
    1UNL     H4   27   0.116  -0.107   0.042
    1UNL     H5   28   0.216  -0.013   0.166
    1UNL     H6   29   0.266   0.292   0.109
    1UNL     H7   30   0.146   0.226   0.230
    1UNL     H8   31   0.423   0.156   0.253
    1UNL     H9   32   0.456   0.059   0.065
    1UNL    H10   33   0.275   0.194  -0.096
    1UNL    H11   34   0.367  -0.173   0.021
    1UNL    H12   35   0.477   0.008  -0.173
    1UNL    H13   36   0.225  -0.026  -0.223
    1UNL    H14   37   0.255  -0.242  -0.268
    1UNL    H15   38  -0.259   0.010   0.253
    1UNL    H16   39  -0.161   0.128   0.165
    1UNL    H17   40  -0.421   0.118   0.089
    1UNL    H18   41  -0.343  -0.164   0.090
    1UNL    H19   42  -0.481  -0.090  -0.016
    1UNL    H20   43  -0.272  -0.132  -0.194
    1UNL    H21   44  -0.123   0.146  -0.220
    1UNL    H22   45  -0.089   0.116  -0.051
    1UNL    H23   46  -0.177   0.258  -0.096
    1UNL    H24   47  -0.429   0.221  -0.187
    1UNL    H25   48  -0.374   0.098  -0.297
    1UNL    H26   49  -0.499   0.061  -0.174
   0.00000   0.00000   0.00000   0.00000   0.00000   0.00000   0.00000   0.00000   0.00000
Generated with MDTraj, t= 22.0
 49
    1UNL     C1    1  -0.113  -0.273  -0.042
    1UNL     C2    2  -0.135  -0.124  -0.031
    1UNL     O1    3  -0.030  -0.060  -0.102
    1UNL     C3    4   0.101  -0.051  -0.036
    1UNL     O2    5   0.127   0.073   0.030
    1UNL     C4    6   0.241   0.082   0.115
    1UNL     C5    7   0.253   0.215   0.194
    1UNL     O3    8   0.377   0.243   0.245
    1UNL     C6    9   0.369   0.050   0.030
    1UNL     O4   10   0.390   0.154  -0.055
    1UNL     C7   11   0.351  -0.086  -0.055
    1UNL     O5   12   0.463  -0.098  -0.136
    1UNL     C8   13   0.214  -0.081  -0.141
    1UNL     O6   14   0.197  -0.206  -0.201
    1UNL     C9   15  -0.125  -0.076   0.120
    1UNL     O7   16  -0.071  -0.150   0.201
    1UNL    C10   17  -0.197   0.047   0.145
    1UNL    C11   18  -0.322   0.056   0.047
    1UNL    C12   19  -0.368  -0.086   0.023
    1UNL    C13   20  -0.272  -0.096  -0.092
    1UNL    C14   21  -0.290   0.059  -0.111
    1UNL    C15   22  -0.175   0.151  -0.150
    1UNL    C16   23  -0.418   0.107  -0.183
    1UNL     H1   24  -0.043  -0.295   0.039
    1UNL     H2   25  -0.201  -0.337  -0.030
    1UNL     H3   26  -0.068  -0.308  -0.132
    1UNL     H4   27   0.113  -0.127   0.042
    1UNL     H5   28   0.227   0.002   0.188
    1UNL     H6   29   0.228   0.294   0.120
    1UNL     H7   30   0.189   0.208   0.282
    1UNL     H8   31   0.383   0.276   0.339
    1UNL     H9   32   0.455   0.054   0.094
    1UNL    H10   33   0.309   0.203  -0.081
    1UNL    H11   34   0.354  -0.171   0.018
    1UNL    H12   35   0.484  -0.009  -0.161
    1UNL    H13   36   0.213   0.001  -0.214
    1UNL    H14   37   0.267  -0.220  -0.272
    1UNL    H15   38  -0.233   0.047   0.249
    1UNL    H16   39  -0.127   0.127   0.131
    1UNL    H17   40  -0.400   0.130   0.087
    1UNL    H18   41  -0.343  -0.165   0.101
    1UNL    H19   42  -0.476  -0.089  -0.007
    1UNL    H20   43  -0.290  -0.162  -0.178
    1UNL    H21   44  -0.184   0.173  -0.253
    1UNL    H22   45  -0.079   0.112  -0.126
    1UNL    H23   46  -0.182   0.246  -0.096
    1UNL    H24   47  -0.450   0.203  -0.162
    1UNL    H25   48  -0.397   0.105  -0.294
    1UNL    H26   49  -0.503   0.031  -0.160
   0.00000   0.00000   0.00000   0.00000   0.00000   0.00000   0.00000   0.00000   0.00000
Generated with MDTraj, t= 23.0
 49
    1UNL     C1    1  -0.099  -0.277  -0.046
    1UNL     C2    2  -0.121  -0.121  -0.034
    1UNL     O1    3  -0.025  -0.046  -0.110
    1UNL     C3    4   0.098  -0.050  -0.038
    1UNL     O2    5   0.115   0.069   0.044
    1UNL     C4    6   0.237   0.081   0.113
    1UNL     C5    7   0.257   0.218   0.180
    1UNL     O3    8   0.371   0.214   0.260
    1UNL     C6    9   0.364   0.059   0.016
    1UNL     O4   10   0.385   0.169  -0.064
    1UNL     C7   11   0.354  -0.077  -0.055
    1UNL     O5   12   0.467  -0.104  -0.127
    1UNL     C8   13   0.219  -0.088  -0.135
    1UNL     O6   14   0.223  -0.217  -0.196
    1UNL     C9   15  -0.132  -0.078   0.109
    1UNL     O7   16  -0.089  -0.145   0.195
    1UNL    C10   17  -0.199   0.051   0.134
    1UNL    C11   18  -0.329   0.060   0.055
    1UNL    C12   19  -0.375  -0.087   0.028
    1UNL    C13   20  -0.269  -0.089  -0.087
    1UNL    C14   21  -0.294   0.068  -0.092
    1UNL    C15   22  -0.179   0.156  -0.145
    1UNL    C16   23  -0.420   0.095  -0.175
    1UNL     H1   24   0.001  -0.315  -0.065
    1UNL     H2   25  -0.143  -0.328   0.045
    1UNL     H3   26  -0.162  -0.330  -0.111
    1UNL     H4   27   0.097  -0.135   0.032
    1UNL     H5   28   0.244   0.008   0.196
    1UNL     H6   29   0.264   0.301   0.107
    1UNL     H7   30   0.178   0.235   0.252
    1UNL     H8   31   0.452   0.234   0.210
    1UNL     H9   32   0.455   0.058   0.076
    1UNL    H10   33   0.304   0.182  -0.113
    1UNL    H11   34   0.348  -0.162   0.015
    1UNL    H12   35   0.484  -0.024  -0.189
    1UNL    H13   36   0.213  -0.016  -0.220
    1UNL    H14   37   0.319  -0.227  -0.235
    1UNL    H15   38  -0.211   0.062   0.242
    1UNL    H16   39  -0.126   0.129   0.111
    1UNL    H17   40  -0.417   0.129   0.093
    1UNL    H18   41  -0.352  -0.167   0.109
    1UNL    H19   42  -0.477  -0.105  -0.018
    1UNL    H20   43  -0.290  -0.132  -0.185
    1UNL    H21   44  -0.166   0.126  -0.246
    1UNL    H22   45  -0.085   0.150  -0.098
    1UNL    H23   46  -0.198   0.263  -0.150
    1UNL    H24   47  -0.427   0.198  -0.210
    1UNL    H25   48  -0.422   0.033  -0.271
    1UNL    H26   49  -0.515   0.074  -0.117
   0.00000   0.00000   0.00000   0.00000   0.00000   0.00000   0.00000   0.00000   0.00000
Generated with MDTraj, t= 24.0
 49
    1UNL     C1    1  -0.100  -0.273  -0.035
    1UNL     C2    2  -0.128  -0.123  -0.036
    1UNL     O1    3  -0.023  -0.058  -0.106
    1UNL     C3    4   0.101  -0.048  -0.037
    1UNL     O2    5   0.120   0.081   0.019
    1UNL     C4    6   0.233   0.086   0.105
    1UNL     C5    7   0.243   0.219   0.188
    1UNL     O3    8   0.340   0.212   0.297
    1UNL     C6    9   0.363   0.063   0.014
    1UNL     O4   10   0.379   0.148  -0.097
    1UNL     C7   11   0.352  -0.078  -0.056
    1UNL     O5   12   0.456  -0.094  -0.149
    1UNL     C8   13   0.217  -0.092  -0.128
    1UNL     O6   14   0.193  -0.229  -0.166
    1UNL     C9   15  -0.121  -0.071   0.112
    1UNL     O7   16  -0.051  -0.131   0.186
    1UNL    C10   17  -0.194   0.052   0.145
    1UNL    C11   18  -0.321   0.048   0.061
    1UNL    C12   19  -0.371  -0.097   0.010
    1UNL    C13   20  -0.265  -0.085  -0.100
    1UNL    C14   21  -0.286   0.067  -0.094
    1UNL    C15   22  -0.163   0.164  -0.123
    1UNL    C16   23  -0.405   0.102  -0.179
    1UNL     H1   24  -0.046  -0.307   0.051
    1UNL     H2   25  -0.197  -0.329  -0.056
    1UNL     H3   26  -0.047  -0.307  -0.118
    1UNL     H4   27   0.095  -0.121   0.046
    1UNL     H5   28   0.218   0.003   0.183
    1UNL     H6   29   0.252   0.301   0.114
    1UNL     H7   30   0.143   0.228   0.226
    1UNL     H8   31   0.416   0.263   0.263
    1UNL     H9   32   0.461   0.077   0.063
    1UNL    H10   33   0.288   0.152  -0.138
    1UNL    H11   34   0.367  -0.163   0.009
    1UNL    H12   35   0.471  -0.009  -0.197
    1UNL    H13   36   0.216  -0.027  -0.219
    1UNL    H14   37   0.262  -0.260  -0.230
    1UNL    H15   38  -0.209   0.055   0.253
    1UNL    H16   39  -0.127   0.140   0.131
    1UNL    H17   40  -0.414   0.107   0.106
    1UNL    H18   41  -0.361  -0.184   0.086
    1UNL    H19   42  -0.473  -0.091  -0.040
    1UNL    H20   43  -0.279  -0.113  -0.203
    1UNL    H21   44  -0.135   0.147  -0.225
    1UNL    H22   45  -0.074   0.139  -0.066
    1UNL    H23   46  -0.182   0.267  -0.111
    1UNL    H24   47  -0.461   0.195  -0.129
    1UNL    H25   48  -0.378   0.138  -0.283
    1UNL    H26   49  -0.478   0.025  -0.192
   0.00000   0.00000   0.00000   0.00000   0.00000   0.00000   0.00000   0.00000   0.00000
Generated with MDTraj, t= 25.0
 49
    1UNL     C1    1  -0.119  -0.272  -0.033
    1UNL     C2    2  -0.127  -0.121  -0.030
    1UNL     O1    3  -0.021  -0.067  -0.115
    1UNL     C3    4   0.107  -0.048  -0.050
    1UNL     O2    5   0.131   0.084   0.001
    1UNL     C4    6   0.245   0.082   0.090
    1UNL     C5    7   0.238   0.206   0.177
    1UNL     O3    8   0.329   0.222   0.284
    1UNL     C6    9   0.368   0.064   0.009
    1UNL     O4   10   0.376   0.158  -0.098
    1UNL     C7   11   0.364  -0.077  -0.059
    1UNL     O5   12   0.479  -0.085  -0.150
    1UNL     C8   13   0.230  -0.100  -0.127
    1UNL     O6   14   0.218  -0.243  -0.156
    1UNL     C9   15  -0.122  -0.075   0.115
    1UNL     O7   16  -0.056  -0.138   0.196
    1UNL    C10   17  -0.219   0.037   0.156
    1UNL    C11   18  -0.342   0.050   0.062
    1UNL    C12   19  -0.381  -0.089   0.011
    1UNL    C13   20  -0.271  -0.079  -0.095
    1UNL    C14   21  -0.291   0.081  -0.089
    1UNL    C15   22  -0.157   0.159  -0.094
    1UNL    C16   23  -0.405   0.121  -0.185
    1UNL     H1   24  -0.016  -0.293  -0.036
    1UNL     H2   25  -0.175  -0.322   0.050
    1UNL     H3   26  -0.159  -0.315  -0.123
    1UNL     H4   27   0.092  -0.113   0.039
    1UNL     H5   28   0.233  -0.007   0.163
    1UNL     H6   29   0.255   0.285   0.098
    1UNL     H7   30   0.140   0.227   0.217
    1UNL     H8   31   0.341   0.142   0.345
    1UNL     H9   32   0.456   0.092   0.074
    1UNL    H10   33   0.287   0.155  -0.141
    1UNL    H11   34   0.376  -0.149   0.018
    1UNL    H12   35   0.481   0.002  -0.187
    1UNL    H13   36   0.234  -0.035  -0.220
    1UNL    H14   37   0.281  -0.272  -0.218
    1UNL    H15   38  -0.244   0.025   0.262
    1UNL    H16   39  -0.164   0.133   0.151
    1UNL    H17   40  -0.433   0.123   0.092
    1UNL    H18   41  -0.387  -0.177   0.084
    1UNL    H19   42  -0.481  -0.087  -0.042
    1UNL    H20   43  -0.289  -0.133  -0.185
    1UNL    H21   44  -0.119   0.157  -0.194
    1UNL    H22   45  -0.088   0.103  -0.031
    1UNL    H23   46  -0.173   0.256  -0.059
    1UNL    H24   47  -0.426   0.236  -0.196
    1UNL    H25   48  -0.392   0.080  -0.289
    1UNL    H26   49  -0.496   0.079  -0.144
   0.00000   0.00000   0.00000   0.00000   0.00000   0.00000   0.00000   0.00000   0.00000
Generated with MDTraj, t= 26.0
 49
    1UNL     C1    1  -0.120  -0.285  -0.039
    1UNL     C2    2  -0.122  -0.131  -0.040
    1UNL     O1    3  -0.015  -0.071  -0.115
    1UNL     C3    4   0.104  -0.064  -0.041
    1UNL     O2    5   0.119   0.062   0.021
    1UNL     C4    6   0.237   0.088   0.105
    1UNL     C5    7   0.240   0.226   0.166
    1UNL     O3    8   0.343   0.226   0.262
    1UNL     C6    9   0.358   0.068   0.018
    1UNL     O4   10   0.354   0.171  -0.082
    1UNL     C7   11   0.351  -0.072  -0.051
    1UNL     O5   12   0.461  -0.099  -0.141
    1UNL     C8   13   0.222  -0.094  -0.123
    1UNL     O6   14   0.220  -0.233  -0.164
    1UNL     C9   15  -0.117  -0.088   0.110
    1UNL     O7   16  -0.057  -0.145   0.198
    1UNL    C10   17  -0.196   0.034   0.152
    1UNL    C11   18  -0.324   0.055   0.060
    1UNL    C12   19  -0.377  -0.085   0.011
    1UNL    C13   20  -0.264  -0.083  -0.101
    1UNL    C14   21  -0.285   0.074  -0.093
    1UNL    C15   22  -0.157   0.162  -0.110
    1UNL    C16   23  -0.404   0.142  -0.175
    1UNL     H1   24  -0.053  -0.320   0.035
    1UNL     H2   25  -0.220  -0.326  -0.039
    1UNL     H3   26  -0.071  -0.309  -0.135
    1UNL     H4   27   0.088  -0.151   0.027
    1UNL     H5   28   0.229   0.003   0.184
    1UNL     H6   29   0.272   0.311   0.099
    1UNL     H7   30   0.142   0.251   0.206
    1UNL     H8   31   0.430   0.270   0.245
    1UNL     H9   32   0.463   0.075   0.062
    1UNL    H10   33   0.262   0.172  -0.108
    1UNL    H11   34   0.361  -0.158   0.012
    1UNL    H12   35   0.456  -0.031  -0.218
    1UNL    H13   36   0.221  -0.033  -0.217
    1UNL    H14   37   0.304  -0.253  -0.207
    1UNL    H15   38  -0.231   0.013   0.254
    1UNL    H16   39  -0.130   0.123   0.172
    1UNL    H17   40  -0.404   0.140   0.086
    1UNL    H18   41  -0.375  -0.165   0.089
    1UNL    H19   42  -0.481  -0.070  -0.033
    1UNL    H20   43  -0.287  -0.129  -0.194
    1UNL    H21   44  -0.131   0.190  -0.210
    1UNL    H22   45  -0.069   0.113  -0.076
    1UNL    H23   46  -0.167   0.254  -0.057
    1UNL    H24   47  -0.456   0.217  -0.119
    1UNL    H25   48  -0.367   0.182  -0.275
    1UNL    H26   49  -0.481   0.060  -0.197
   0.00000   0.00000   0.00000   0.00000   0.00000   0.00000   0.00000   0.00000   0.00000
Generated with MDTraj, t= 27.0
 49
    1UNL     C1    1  -0.109  -0.283  -0.069
    1UNL     C2    2  -0.130  -0.134  -0.036
    1UNL     O1    3  -0.019  -0.070  -0.108
    1UNL     C3    4   0.102  -0.057  -0.036
    1UNL     O2    5   0.116   0.070   0.037
    1UNL     C4    6   0.233   0.073   0.114
    1UNL     C5    7   0.225   0.206   0.189
    1UNL     O3    8   0.351   0.259   0.215
    1UNL     C6    9   0.357   0.065   0.020
    1UNL     O4   10   0.353   0.170  -0.084
    1UNL     C7   11   0.358  -0.076  -0.048
    1UNL     O5   12   0.460  -0.098  -0.135
    1UNL     C8   13   0.225  -0.092  -0.120
    1UNL     O6   14   0.211  -0.224  -0.177
    1UNL     C9   15  -0.129  -0.103   0.120
    1UNL     O7   16  -0.075  -0.177   0.197
    1UNL    C10   17  -0.185   0.035   0.157
    1UNL    C11   18  -0.310   0.065   0.063
    1UNL    C12   19  -0.372  -0.079   0.029
    1UNL    C13   20  -0.265  -0.079  -0.091
    1UNL    C14   21  -0.274   0.081  -0.095
    1UNL    C15   22  -0.150   0.168  -0.132
    1UNL    C16   23  -0.392   0.132  -0.181
    1UNL     H1   24  -0.004  -0.307  -0.076
    1UNL     H2   25  -0.164  -0.329   0.006
    1UNL     H3   26  -0.153  -0.306  -0.169
    1UNL     H4   27   0.078  -0.140   0.034
    1UNL     H5   28   0.221  -0.017   0.188
    1UNL     H6   29   0.169   0.275   0.118
    1UNL     H7   30   0.170   0.217   0.283
    1UNL     H8   31   0.380   0.231   0.304
    1UNL     H9   32   0.447   0.082   0.088
    1UNL    H10   33   0.260   0.205  -0.076
    1UNL    H11   34   0.356  -0.154   0.027
    1UNL    H12   35   0.474  -0.014  -0.182
    1UNL    H13   36   0.233  -0.020  -0.204
    1UNL    H14   37   0.302  -0.239  -0.219
    1UNL    H15   38  -0.230   0.030   0.259
    1UNL    H16   39  -0.110   0.117   0.169
    1UNL    H17   40  -0.389   0.148   0.094
    1UNL    H18   41  -0.363  -0.160   0.102
    1UNL    H19   42  -0.474  -0.056  -0.009
    1UNL    H20   43  -0.297  -0.130  -0.177
    1UNL    H21   44  -0.108   0.145  -0.226
    1UNL    H22   45  -0.072   0.155  -0.064
    1UNL    H23   46  -0.176   0.272  -0.135
    1UNL    H24   47  -0.377   0.231  -0.214
    1UNL    H25   48  -0.415   0.065  -0.271
    1UNL    H26   49  -0.486   0.140  -0.113
   0.00000   0.00000   0.00000   0.00000   0.00000   0.00000   0.00000   0.00000   0.00000
Generated with MDTraj, t= 28.0
 49
    1UNL     C1    1  -0.138  -0.302  -0.059
    1UNL     C2    2  -0.136  -0.141  -0.040
    1UNL     O1    3  -0.018  -0.090  -0.100
    1UNL     C3    4   0.101  -0.072  -0.025
    1UNL     O2    5   0.112   0.068   0.031
    1UNL     C4    6   0.229   0.086   0.105
    1UNL     C5    7   0.238   0.224   0.166
    1UNL     O3    8   0.358   0.256   0.241
    1UNL     C6    9   0.353   0.063   0.021
    1UNL     O4   10   0.361   0.160  -0.085
    1UNL     C7   11   0.362  -0.073  -0.050
    1UNL     O5   12   0.478  -0.071  -0.134
    1UNL     C8   13   0.225  -0.092  -0.117
    1UNL     O6   14   0.217  -0.215  -0.178
    1UNL     C9   15  -0.132  -0.105   0.109
    1UNL     O7   16  -0.090  -0.178   0.195
    1UNL    C10   17  -0.172   0.036   0.146
    1UNL    C11   18  -0.312   0.062   0.065
    1UNL    C12   19  -0.366  -0.074   0.026
    1UNL    C13   20  -0.270  -0.077  -0.099
    1UNL    C14   21  -0.278   0.082  -0.091
    1UNL    C15   22  -0.151   0.160  -0.136
    1UNL    C16   23  -0.397   0.145  -0.167
    1UNL     H1   24  -0.073  -0.355   0.010
    1UNL     H2   25  -0.236  -0.334  -0.050
    1UNL     H3   26  -0.100  -0.329  -0.160
    1UNL     H4   27   0.096  -0.148   0.055
    1UNL     H5   28   0.212   0.009   0.189
    1UNL     H6   29   0.240   0.312   0.095
    1UNL     H7   30   0.148   0.249   0.223
    1UNL     H8   31   0.386   0.171   0.284
    1UNL     H9   32   0.449   0.077   0.079
    1UNL    H10   33   0.270   0.198  -0.110
    1UNL    H11   34   0.386  -0.163   0.011
    1UNL    H12   35   0.495   0.019  -0.157
    1UNL    H13   36   0.223  -0.017  -0.196
    1UNL    H14   37   0.308  -0.244  -0.208
    1UNL    H15   38  -0.189   0.043   0.257
    1UNL    H16   39  -0.101   0.116   0.116
    1UNL    H17   40  -0.383   0.144   0.105
    1UNL    H18   41  -0.352  -0.152   0.100
    1UNL    H19   42  -0.471  -0.062   0.006
    1UNL    H20   43  -0.317  -0.135  -0.175
    1UNL    H21   44  -0.160   0.160  -0.239
    1UNL    H22   45  -0.058   0.114  -0.103
    1UNL    H23   46  -0.165   0.260  -0.105
    1UNL    H24   47  -0.432   0.239  -0.121
    1UNL    H25   48  -0.374   0.164  -0.275
    1UNL    H26   49  -0.486   0.081  -0.162
   0.00000   0.00000   0.00000   0.00000   0.00000   0.00000   0.00000   0.00000   0.00000
Generated with MDTraj, t= 29.0
 49
    1UNL     C1    1  -0.114  -0.290  -0.042
    1UNL     C2    2  -0.131  -0.132  -0.031
    1UNL     O1    3  -0.018  -0.079  -0.120
    1UNL     C3    4   0.098  -0.061  -0.052
    1UNL     O2    5   0.111   0.067   0.013
    1UNL     C4    6   0.233   0.088   0.091
    1UNL     C5    7   0.225   0.226   0.165
    1UNL     O3    8   0.301   0.227   0.287
    1UNL     C6    9   0.357   0.070   0.001
    1UNL     O4   10   0.354   0.173  -0.097
    1UNL     C7   11   0.356  -0.071  -0.064
    1UNL     O5   12   0.470  -0.095  -0.151
    1UNL     C8   13   0.224  -0.103  -0.132
    1UNL     O6   14   0.222  -0.240  -0.162
    1UNL     C9   15  -0.117  -0.088   0.119
    1UNL     O7   16  -0.060  -0.160   0.199
    1UNL    C10   17  -0.181   0.041   0.152
    1UNL    C11   18  -0.320   0.060   0.067
    1UNL    C12   19  -0.378  -0.072   0.023
    1UNL    C13   20  -0.264  -0.075  -0.088
    1UNL    C14   21  -0.274   0.078  -0.083
    1UNL    C15   22  -0.142   0.165  -0.099
    1UNL    C16   23  -0.374   0.140  -0.179
    1UNL     H1   24  -0.008  -0.317  -0.057
    1UNL     H2   25  -0.146  -0.350   0.042
    1UNL     H3   26  -0.157  -0.332  -0.128
    1UNL     H4   27   0.096  -0.133   0.031
    1UNL     H5   28   0.228   0.016   0.177
    1UNL     H6   29   0.258   0.321   0.114
    1UNL     H7   30   0.126   0.259   0.197
    1UNL     H8   31   0.303   0.139   0.334
    1UNL     H9   32   0.449   0.081   0.063
    1UNL    H10   33   0.259   0.180  -0.126
    1UNL    H11   34   0.376  -0.147   0.018
    1UNL    H12   35   0.488  -0.006  -0.194
    1UNL    H13   36   0.222  -0.050  -0.226
    1UNL    H14   37   0.303  -0.288  -0.165
    1UNL    H15   38  -0.212   0.043   0.261
    1UNL    H16   39  -0.113   0.128   0.140
    1UNL    H17   40  -0.382   0.145   0.105
    1UNL    H18   41  -0.383  -0.147   0.100
    1UNL    H19   42  -0.472  -0.053  -0.021
    1UNL    H20   43  -0.303  -0.130  -0.171
    1UNL    H21   44  -0.095   0.134  -0.187
    1UNL    H22   45  -0.066   0.157  -0.021
    1UNL    H23   46  -0.169   0.264  -0.112
    1UNL    H24   47  -0.442   0.221  -0.131
    1UNL    H25   48  -0.318   0.183  -0.263
    1UNL    H26   49  -0.439   0.071  -0.220
   0.00000   0.00000   0.00000   0.00000   0.00000   0.00000   0.00000   0.00000   0.00000
Generated with MDTraj, t= 30.0
 49
    1UNL     C1    1  -0.120  -0.281  -0.026
    1UNL     C2    2  -0.122  -0.128  -0.036
    1UNL     O1    3  -0.013  -0.088  -0.119
    1UNL     C3    4   0.107  -0.060  -0.048
    1UNL     O2    5   0.115   0.072   0.010
    1UNL     C4    6   0.232   0.082   0.093
    1UNL     C5    7   0.234   0.215   0.176
    1UNL     O3    8   0.280   0.204   0.307
    1UNL     C6    9   0.355   0.068   0.003
    1UNL     O4   10   0.354   0.167  -0.099
    1UNL     C7   11   0.362  -0.075  -0.063
    1UNL     O5   12   0.467  -0.090  -0.159
    1UNL     C8   13   0.228  -0.105  -0.140
    1UNL     O6   14   0.226  -0.249  -0.159
    1UNL     C9   15  -0.106  -0.075   0.113
    1UNL     O7   16  -0.023  -0.116   0.188
    1UNL    C10   17  -0.188   0.042   0.147
    1UNL    C11   18  -0.323   0.058   0.063
    1UNL    C12   19  -0.379  -0.082   0.018
    1UNL    C13   20  -0.266  -0.074  -0.100
    1UNL    C14   21  -0.283   0.083  -0.086
    1UNL    C15   22  -0.156   0.163  -0.102
    1UNL    C16   23  -0.401   0.139  -0.171
    1UNL     H1   24  -0.056  -0.319   0.054
    1UNL     H2   25  -0.219  -0.318   0.007
    1UNL     H3   26  -0.087  -0.334  -0.108
    1UNL     H4   27   0.111  -0.124   0.042
    1UNL     H5   28   0.230  -0.003   0.161
    1UNL     H6   29   0.293   0.286   0.114
    1UNL     H7   30   0.141   0.272   0.173
    1UNL     H8   31   0.250   0.117   0.339
    1UNL     H9   32   0.444   0.074   0.066
    1UNL    H10   33   0.272   0.159  -0.147
    1UNL    H11   34   0.368  -0.155   0.018
    1UNL    H12   35   0.486   0.001  -0.190
    1UNL    H13   36   0.227  -0.051  -0.232
    1UNL    H14   37   0.318  -0.278  -0.145
    1UNL    H15   38  -0.205   0.044   0.261
    1UNL    H16   39  -0.128   0.135   0.136
    1UNL    H17   40  -0.376   0.143   0.103
    1UNL    H18   41  -0.382  -0.161   0.090
    1UNL    H19   42  -0.465  -0.081  -0.040
    1UNL    H20   43  -0.300  -0.108  -0.196
    1UNL    H21   44  -0.117   0.169  -0.200
    1UNL    H22   45  -0.073   0.129  -0.048
    1UNL    H23   46  -0.175   0.259  -0.068
    1UNL    H24   47  -0.382   0.245  -0.207
    1UNL    H25   48  -0.423   0.080  -0.256
    1UNL    H26   49  -0.491   0.152  -0.113
   0.00000   0.00000   0.00000   0.00000   0.00000   0.00000   0.00000   0.00000   0.00000
Generated with MDTraj, t= 31.0
 49
    1UNL     C1    1  -0.109  -0.278  -0.022
    1UNL     C2    2  -0.125  -0.122  -0.020
    1UNL     O1    3  -0.022  -0.077  -0.113
    1UNL     C3    4   0.109  -0.062  -0.049
    1UNL     O2    5   0.124   0.070   0.000
    1UNL     C4    6   0.233   0.073   0.096
    1UNL     C5    7   0.228   0.203   0.183
    1UNL     O3    8   0.297   0.195   0.305
    1UNL     C6    9   0.365   0.058   0.012
    1UNL     O4   10   0.374   0.149  -0.090
    1UNL     C7   11   0.371  -0.075  -0.060
    1UNL     O5   12   0.481  -0.078  -0.150
    1UNL     C8   13   0.235  -0.092  -0.143
    1UNL     O6   14   0.223  -0.227  -0.195
    1UNL     C9   15  -0.117  -0.066   0.127
    1UNL     O7   16  -0.055  -0.126   0.209
    1UNL    C10   17  -0.187   0.067   0.139
    1UNL    C11   18  -0.321   0.075   0.059
    1UNL    C12   19  -0.365  -0.072   0.034
    1UNL    C13   20  -0.270  -0.084  -0.086
    1UNL    C14   21  -0.295   0.075  -0.099
    1UNL    C15   22  -0.170   0.157  -0.133
    1UNL    C16   23  -0.424   0.116  -0.183
    1UNL     H1   24  -0.014  -0.327  -0.025
    1UNL     H2   25  -0.169  -0.322   0.061
    1UNL     H3   26  -0.152  -0.307  -0.114
    1UNL     H4   27   0.114  -0.133   0.035
    1UNL     H5   28   0.214  -0.007   0.163
    1UNL     H6   29   0.262   0.291   0.129
    1UNL     H7   30   0.121   0.227   0.186
    1UNL     H8   31   0.303   0.105   0.343
    1UNL     H9   32   0.454   0.074   0.071
    1UNL    H10   33   0.288   0.147  -0.144
    1UNL    H11   34   0.367  -0.161   0.016
    1UNL    H12   35   0.502   0.008  -0.182
    1UNL    H13   36   0.231  -0.026  -0.228
    1UNL    H14   37   0.317  -0.268  -0.194
    1UNL    H15   38  -0.219   0.087   0.247
    1UNL    H16   39  -0.112   0.149   0.123
    1UNL    H17   40  -0.387   0.143   0.099
    1UNL    H18   41  -0.350  -0.128   0.126
    1UNL    H19   42  -0.463  -0.081   0.001
    1UNL    H20   43  -0.303  -0.137  -0.176
    1UNL    H21   44  -0.140   0.142  -0.233
    1UNL    H22   45  -0.087   0.129  -0.075
    1UNL    H23   46  -0.182   0.259  -0.111
    1UNL    H24   47  -0.490   0.175  -0.132
    1UNL    H25   48  -0.407   0.155  -0.280
    1UNL    H26   49  -0.481   0.020  -0.195
   0.00000   0.00000   0.00000   0.00000   0.00000   0.00000   0.00000   0.00000   0.00000
Generated with MDTraj, t= 32.0
 49
    1UNL     C1    1  -0.105  -0.291  -0.026
    1UNL     C2    2  -0.126  -0.133  -0.025
    1UNL     O1    3  -0.026  -0.070  -0.111
    1UNL     C3    4   0.097  -0.048  -0.037
    1UNL     O2    5   0.108   0.080   0.028
    1UNL     C4    6   0.224   0.070   0.114
    1UNL     C5    7   0.239   0.197   0.191
    1UNL     O3    8   0.349   0.190   0.276
    1UNL     C6    9   0.356   0.054   0.027
    1UNL     O4   10   0.381   0.168  -0.050
    1UNL     C7   11   0.343  -0.073  -0.059
    1UNL     O5   12   0.458  -0.089  -0.141
    1UNL     C8   13   0.209  -0.071  -0.142
    1UNL     O6   14   0.193  -0.196  -0.213
    1UNL     C9   15  -0.108  -0.069   0.117
    1UNL     O7   16  -0.050  -0.122   0.212
    1UNL    C10   17  -0.168   0.066   0.126
    1UNL    C11   18  -0.301   0.082   0.048
    1UNL    C12   19  -0.362  -0.060   0.042
    1UNL    C13   20  -0.270  -0.102  -0.073
    1UNL    C14   21  -0.284   0.056  -0.110
    1UNL    C15   22  -0.166   0.137  -0.182
    1UNL    C16   23  -0.410   0.091  -0.193
    1UNL     H1   24  -0.025  -0.315   0.037
    1UNL     H2   25  -0.196  -0.344   0.003
    1UNL     H3   26  -0.069  -0.314  -0.129
    1UNL     H4   27   0.108  -0.130   0.034
    1UNL     H5   28   0.218  -0.006   0.186
    1UNL     H6   29   0.237   0.279   0.121
    1UNL     H7   30   0.148   0.217   0.249
    1UNL     H8   31   0.342   0.142   0.363
    1UNL     H9   32   0.442   0.044   0.089
    1UNL    H10   33   0.303   0.172  -0.113
    1UNL    H11   34   0.352  -0.159   0.014
    1UNL    H12   35   0.452  -0.026  -0.217
    1UNL    H13   36   0.198   0.009  -0.213
    1UNL    H14   37   0.262  -0.268  -0.200
    1UNL    H15   38  -0.188   0.081   0.237
    1UNL    H16   39  -0.101   0.152   0.096
    1UNL    H17   40  -0.363   0.159   0.069
    1UNL    H18   41  -0.349  -0.114   0.137
    1UNL    H19   42  -0.464  -0.059   0.007
    1UNL    H20   43  -0.300  -0.171  -0.153
    1UNL    H21   44  -0.143   0.094  -0.274
    1UNL    H22   45  -0.085   0.141  -0.113
    1UNL    H23   46  -0.199   0.236  -0.192
    1UNL    H24   47  -0.464   0.145  -0.125
    1UNL    H25   48  -0.402   0.157  -0.276
    1UNL    H26   49  -0.471   0.000  -0.216
   0.00000   0.00000   0.00000   0.00000   0.00000   0.00000   0.00000   0.00000   0.00000
Generated with MDTraj, t= 33.0
 49
    1UNL     C1    1  -0.113  -0.285  -0.006
    1UNL     C2    2  -0.128  -0.126  -0.021
    1UNL     O1    3  -0.026  -0.071  -0.107
    1UNL     C3    4   0.108  -0.064  -0.051
    1UNL     O2    5   0.122   0.049   0.034
    1UNL     C4    6   0.242   0.058   0.120
    1UNL     C5    7   0.239   0.185   0.204
    1UNL     O3    8   0.363   0.206   0.263
    1UNL     C6    9   0.370   0.055   0.027
    1UNL     O4   10   0.374   0.168  -0.049
    1UNL     C7   11   0.362  -0.071  -0.059
    1UNL     O5   12   0.470  -0.091  -0.148
    1UNL     C8   13   0.226  -0.071  -0.145
    1UNL     O6   14   0.218  -0.188  -0.225
    1UNL     C9   15  -0.126  -0.055   0.117
    1UNL     O7   16  -0.084  -0.109   0.215
    1UNL    C10   17  -0.189   0.076   0.125
    1UNL    C11   18  -0.324   0.070   0.047
    1UNL    C12   19  -0.374  -0.082   0.038
    1UNL    C13   20  -0.274  -0.097  -0.081
    1UNL    C14   21  -0.292   0.063  -0.110
    1UNL    C15   22  -0.175   0.149  -0.171
    1UNL    C16   23  -0.416   0.089  -0.191
    1UNL     H1   24  -0.012  -0.302   0.019
    1UNL     H2   25  -0.176  -0.303   0.076
    1UNL     H3   26  -0.137  -0.345  -0.099
    1UNL     H4   27   0.115  -0.149   0.015
    1UNL     H5   28   0.254  -0.025   0.183
    1UNL     H6   29   0.216   0.261   0.131
    1UNL     H7   30   0.151   0.195   0.272
    1UNL     H8   31   0.365   0.148   0.344
    1UNL     H9   32   0.465   0.064   0.077
    1UNL    H10   33   0.288   0.185  -0.089
    1UNL    H11   34   0.373  -0.155   0.013
    1UNL    H12   35   0.470  -0.009  -0.207
    1UNL    H13   36   0.222   0.021  -0.203
    1UNL    H14   37   0.255  -0.179  -0.311
    1UNL    H15   38  -0.204   0.110   0.232
    1UNL    H16   39  -0.117   0.149   0.076
    1UNL    H17   40  -0.385   0.152   0.055
    1UNL    H18   41  -0.353  -0.138   0.130
    1UNL    H19   42  -0.484  -0.077   0.023
    1UNL    H20   43  -0.297  -0.169  -0.160
    1UNL    H21   44  -0.161   0.115  -0.267
    1UNL    H22   45  -0.087   0.122  -0.117
    1UNL    H23   46  -0.195   0.254  -0.163
    1UNL    H24   47  -0.407   0.184  -0.242
    1UNL    H25   48  -0.432   0.017  -0.266
    1UNL    H26   49  -0.499   0.084  -0.127
   0.00000   0.00000   0.00000   0.00000   0.00000   0.00000   0.00000   0.00000   0.00000
Generated with MDTraj, t= 34.0
 49
    1UNL     C1    1  -0.125  -0.277   0.009
    1UNL     C2    2  -0.131  -0.121  -0.017
    1UNL     O1    3  -0.022  -0.082  -0.104
    1UNL     C3    4   0.106  -0.066  -0.038
    1UNL     O2    5   0.122   0.060   0.028
    1UNL     C4    6   0.245   0.056   0.107
    1UNL     C5    7   0.252   0.177   0.199
    1UNL     O3    8   0.357   0.196   0.292
    1UNL     C6    9   0.366   0.051   0.011
    1UNL     O4   10   0.361   0.170  -0.073
    1UNL     C7   11   0.367  -0.074  -0.072
    1UNL     O5   12   0.464  -0.052  -0.165
    1UNL     C8   13   0.222  -0.088  -0.134
    1UNL     O6   14   0.221  -0.207  -0.211
    1UNL     C9   15  -0.125  -0.052   0.123
    1UNL     O7   16  -0.062  -0.102   0.208
    1UNL    C10   17  -0.202   0.076   0.135
    1UNL    C11   18  -0.333   0.070   0.041
    1UNL    C12   19  -0.384  -0.080   0.019
    1UNL    C13   20  -0.270  -0.092  -0.088
    1UNL    C14   21  -0.290   0.060  -0.109
    1UNL    C15   22  -0.161   0.147  -0.138
    1UNL    C16   23  -0.403   0.093  -0.210
    1UNL     H1   24  -0.027  -0.295   0.052
    1UNL     H2   25  -0.197  -0.303   0.079
    1UNL     H3   26  -0.126  -0.345  -0.079
    1UNL     H4   27   0.113  -0.142   0.038
    1UNL     H5   28   0.251  -0.034   0.165
    1UNL     H6   29   0.239   0.274   0.155
    1UNL     H7   30   0.154   0.170   0.253
    1UNL     H8   31   0.361   0.120   0.354
    1UNL     H9   32   0.458   0.067   0.067
    1UNL    H10   33   0.269   0.189  -0.088
    1UNL    H11   34   0.388  -0.169  -0.026
    1UNL    H12   35   0.441   0.026  -0.214
    1UNL    H13   36   0.212  -0.005  -0.205
    1UNL    H14   37   0.260  -0.276  -0.156
    1UNL    H15   38  -0.239   0.078   0.243
    1UNL    H16   39  -0.132   0.166   0.125
    1UNL    H17   40  -0.411   0.135   0.066
    1UNL    H18   41  -0.365  -0.153   0.101
    1UNL    H19   42  -0.493  -0.091  -0.016
    1UNL    H20   43  -0.289  -0.153  -0.177
    1UNL    H21   44  -0.118   0.123  -0.230
    1UNL    H22   45  -0.076   0.139  -0.076
    1UNL    H23   46  -0.190   0.250  -0.132
    1UNL    H24   47  -0.403   0.203  -0.234
    1UNL    H25   48  -0.379   0.048  -0.301
    1UNL    H26   49  -0.491   0.051  -0.183
   0.00000   0.00000   0.00000   0.00000   0.00000   0.00000   0.00000   0.00000   0.00000
Generated with MDTraj, t= 35.0
 49
    1UNL     C1    1  -0.107  -0.282   0.010
    1UNL     C2    2  -0.128  -0.128  -0.012
    1UNL     O1    3  -0.024  -0.077  -0.100
    1UNL     C3    4   0.101  -0.064  -0.034
    1UNL     O2    5   0.117   0.066   0.026
    1UNL     C4    6   0.235   0.076   0.100
    1UNL     C5    7   0.241   0.184   0.205
    1UNL     O3    8   0.343   0.160   0.300
    1UNL     C6    9   0.352   0.073  -0.001
    1UNL     O4   10   0.334   0.173  -0.100
    1UNL     C7   11   0.357  -0.059  -0.077
    1UNL     O5   12   0.444  -0.050  -0.176
    1UNL     C8   13   0.215  -0.092  -0.132
    1UNL     O6   14   0.210  -0.231  -0.170
    1UNL     C9   15  -0.116  -0.058   0.128
    1UNL     O7   16  -0.049  -0.112   0.214
    1UNL    C10   17  -0.196   0.066   0.137
    1UNL    C11   18  -0.318   0.072   0.036
    1UNL    C12   19  -0.376  -0.067   0.009
    1UNL    C13   20  -0.259  -0.089  -0.092
    1UNL    C14   21  -0.270   0.070  -0.113
    1UNL    C15   22  -0.136   0.145  -0.132
    1UNL    C16   23  -0.384   0.105  -0.213
    1UNL     H1   24  -0.026  -0.315   0.079
    1UNL     H2   25  -0.196  -0.321   0.053
    1UNL     H3   26  -0.088  -0.340  -0.077
    1UNL     H4   27   0.109  -0.147   0.035
    1UNL     H5   28   0.249  -0.024   0.144
    1UNL     H6   29   0.260   0.278   0.157
    1UNL     H7   30   0.149   0.212   0.264
    1UNL     H8   31   0.349   0.068   0.329
    1UNL     H9   32   0.444   0.084   0.058
    1UNL    H10   33   0.235   0.196  -0.089
    1UNL    H11   34   0.387  -0.147  -0.026
    1UNL    H12   35   0.415   0.026  -0.231
    1UNL    H13   36   0.196  -0.027  -0.219
    1UNL    H14   37   0.266  -0.286  -0.108
    1UNL    H15   38  -0.235   0.077   0.244
    1UNL    H16   39  -0.129   0.157   0.124
    1UNL    H17   40  -0.400   0.129   0.075
    1UNL    H18   41  -0.363  -0.149   0.085
    1UNL    H19   42  -0.481  -0.070  -0.039
    1UNL    H20   43  -0.280  -0.152  -0.178
    1UNL    H21   44  -0.088   0.105  -0.219
    1UNL    H22   45  -0.053   0.135  -0.068
    1UNL    H23   46  -0.151   0.250  -0.133
    1UNL    H24   47  -0.474   0.147  -0.163
    1UNL    H25   48  -0.359   0.181  -0.279
    1UNL    H26   49  -0.398   0.018  -0.271
   0.00000   0.00000   0.00000   0.00000   0.00000   0.00000   0.00000   0.00000   0.00000
Generated with MDTraj, t= 36.0
 49
    1UNL     C1    1  -0.134  -0.280  -0.015
    1UNL     C2    2  -0.130  -0.126  -0.020
    1UNL     O1    3  -0.016  -0.088  -0.100
    1UNL     C3    4   0.114  -0.075  -0.034
    1UNL     O2    5   0.125   0.039   0.045
    1UNL     C4    6   0.254   0.068   0.106
    1UNL     C5    7   0.240   0.195   0.187
    1UNL     O3    8   0.328   0.191   0.294
    1UNL     C6    9   0.353   0.078  -0.002
    1UNL     O4   10   0.318   0.181  -0.100
    1UNL     C7   11   0.365  -0.058  -0.082
    1UNL     O5   12   0.466  -0.052  -0.172
    1UNL     C8   13   0.232  -0.103  -0.139
    1UNL     O6   14   0.245  -0.246  -0.169
    1UNL     C9   15  -0.123  -0.072   0.119
    1UNL     O7   16  -0.090  -0.134   0.220
    1UNL    C10   17  -0.179   0.068   0.135
    1UNL    C11   18  -0.309   0.082   0.045
    1UNL    C12   19  -0.381  -0.056   0.024
    1UNL    C13   20  -0.270  -0.082  -0.084
    1UNL    C14   21  -0.275   0.073  -0.109
    1UNL    C15   22  -0.149   0.153  -0.147
    1UNL    C16   23  -0.395   0.120  -0.189
    1UNL     H1   24  -0.047  -0.324   0.035
    1UNL     H2   25  -0.218  -0.309   0.052
    1UNL     H3   26  -0.139  -0.337  -0.101
    1UNL     H4   27   0.120  -0.160   0.033
    1UNL     H5   28   0.265  -0.029   0.162
    1UNL     H6   29   0.255   0.287   0.133
    1UNL     H7   30   0.132   0.205   0.216
    1UNL     H8   31   0.315   0.107   0.344
    1UNL     H9   32   0.450   0.113   0.042
    1UNL    H10   33   0.223   0.189  -0.098
    1UNL    H11   34   0.399  -0.136  -0.021
    1UNL    H12   35   0.447   0.027  -0.236
    1UNL    H13   36   0.203  -0.036  -0.224
    1UNL    H14   37   0.338  -0.286  -0.152
    1UNL    H15   38  -0.191   0.107   0.244
    1UNL    H16   39  -0.103   0.136   0.089
    1UNL    H17   40  -0.370   0.168   0.073
    1UNL    H18   41  -0.380  -0.125   0.114
    1UNL    H19   42  -0.490  -0.046  -0.009
    1UNL    H20   43  -0.298  -0.133  -0.174
    1UNL    H21   44  -0.124   0.110  -0.243
    1UNL    H22   45  -0.064   0.126  -0.090
    1UNL    H23   46  -0.165   0.256  -0.136
    1UNL    H24   47  -0.456   0.039  -0.222
    1UNL    H25   48  -0.462   0.176  -0.133
    1UNL    H26   49  -0.350   0.177  -0.274
   0.00000   0.00000   0.00000   0.00000   0.00000   0.00000   0.00000   0.00000   0.00000
Generated with MDTraj, t= 37.0
 49
    1UNL     C1    1  -0.143  -0.297  -0.026
    1UNL     C2    2  -0.135  -0.140  -0.025
    1UNL     O1    3  -0.026  -0.088  -0.108
    1UNL     C3    4   0.093  -0.073  -0.036
    1UNL     O2    5   0.105   0.049   0.027
    1UNL     C4    6   0.222   0.068   0.111
    1UNL     C5    7   0.215   0.196   0.193
    1UNL     O3    8   0.335   0.230   0.257
    1UNL     C6    9   0.342   0.071   0.014
    1UNL     O4   10   0.328   0.172  -0.083
    1UNL     C7   11   0.354  -0.063  -0.066
    1UNL     O5   12   0.464  -0.052  -0.154
    1UNL     C8   13   0.217  -0.101  -0.125
    1UNL     O6   14   0.214  -0.232  -0.183
    1UNL     C9   15  -0.112  -0.085   0.119
    1UNL     O7   16  -0.068  -0.146   0.211
    1UNL    C10   17  -0.154   0.061   0.130
    1UNL    C11   18  -0.281   0.086   0.048
    1UNL    C12   19  -0.356  -0.053   0.037
    1UNL    C13   20  -0.266  -0.085  -0.083
    1UNL    C14   21  -0.260   0.076  -0.104
    1UNL    C15   22  -0.126   0.142  -0.149
    1UNL    C16   23  -0.377   0.132  -0.185
    1UNL     H1   24  -0.050  -0.334   0.014
    1UNL     H2   25  -0.232  -0.346   0.021
    1UNL     H3   26  -0.133  -0.325  -0.126
    1UNL     H4   27   0.097  -0.154   0.036
    1UNL     H5   28   0.233  -0.021   0.183
    1UNL     H6   29   0.196   0.279   0.126
    1UNL     H7   30   0.131   0.206   0.267
    1UNL     H8   31   0.387   0.154   0.296
    1UNL     H9   32   0.435   0.098   0.072
    1UNL    H10   33   0.229   0.166  -0.109
    1UNL    H11   34   0.381  -0.145  -0.007
    1UNL    H12   35   0.462   0.031  -0.205
    1UNL    H13   36   0.203  -0.030  -0.210
    1UNL    H14   37   0.291  -0.291  -0.155
    1UNL    H15   38  -0.172   0.083   0.242
    1UNL    H16   39  -0.073   0.130   0.094
    1UNL    H17   40  -0.346   0.172   0.080
    1UNL    H18   41  -0.339  -0.133   0.118
    1UNL    H19   42  -0.464  -0.051   0.011
    1UNL    H20   43  -0.301  -0.129  -0.173
    1UNL    H21   44  -0.113   0.115  -0.251
    1UNL    H22   45  -0.050   0.092  -0.094
    1UNL    H23   46  -0.132   0.240  -0.115
    1UNL    H24   47  -0.341   0.173  -0.271
    1UNL    H25   48  -0.446   0.059  -0.219
    1UNL    H26   49  -0.420   0.217  -0.124
   0.00000   0.00000   0.00000   0.00000   0.00000   0.00000   0.00000   0.00000   0.00000
Generated with MDTraj, t= 38.0
 49
    1UNL     C1    1  -0.156  -0.288  -0.021
    1UNL     C2    2  -0.136  -0.143  -0.023
    1UNL     O1    3  -0.026  -0.101  -0.109
    1UNL     C3    4   0.099  -0.079  -0.040
    1UNL     O2    5   0.106   0.051   0.019
    1UNL     C4    6   0.217   0.073   0.103
    1UNL     C5    7   0.208   0.207   0.172
    1UNL     O3    8   0.322   0.249   0.243
    1UNL     C6    9   0.350   0.066   0.020
    1UNL     O4   10   0.352   0.166  -0.081
    1UNL     C7   11   0.361  -0.078  -0.052
    1UNL     O5   12   0.474  -0.072  -0.135
    1UNL     C8   13   0.226  -0.098  -0.131
    1UNL     O6   14   0.231  -0.213  -0.211
    1UNL     C9   15  -0.111  -0.086   0.121
    1UNL     O7   16  -0.055  -0.145   0.204
    1UNL    C10   17  -0.170   0.051   0.149
    1UNL    C11   18  -0.292   0.078   0.059
    1UNL    C12   19  -0.368  -0.060   0.033
    1UNL    C13   20  -0.271  -0.082  -0.086
    1UNL    C14   21  -0.266   0.076  -0.093
    1UNL    C15   22  -0.131   0.140  -0.139
    1UNL    C16   23  -0.373   0.146  -0.175
    1UNL     H1   24  -0.065  -0.335   0.007
    1UNL     H2   25  -0.242  -0.300   0.044
    1UNL     H3   26  -0.175  -0.315  -0.128
    1UNL     H4   27   0.106  -0.150   0.044
    1UNL     H5   28   0.225  -0.009   0.185
    1UNL     H6   29   0.189   0.277   0.092
    1UNL     H7   30   0.121   0.217   0.241
    1UNL     H8   31   0.359   0.172   0.293
    1UNL     H9   32   0.442   0.082   0.082
    1UNL    H10   33   0.257   0.171  -0.116
    1UNL    H11   34   0.370  -0.161   0.013
    1UNL    H12   35   0.455   0.003  -0.190
    1UNL    H13   36   0.218  -0.013  -0.203
    1UNL    H14   37   0.186  -0.287  -0.167
    1UNL    H15   38  -0.201   0.064   0.259
    1UNL    H16   39  -0.089   0.126   0.125
    1UNL    H17   40  -0.370   0.157   0.092
    1UNL    H18   41  -0.354  -0.128   0.123
    1UNL    H19   42  -0.472  -0.046   0.004
    1UNL    H20   43  -0.311  -0.117  -0.177
    1UNL    H21   44  -0.104   0.099  -0.233
    1UNL    H22   45  -0.049   0.112  -0.076
    1UNL    H23   46  -0.142   0.244  -0.129
    1UNL    H24   47  -0.390   0.248  -0.156
    1UNL    H25   48  -0.341   0.134  -0.278
    1UNL    H26   49  -0.467   0.094  -0.151
   0.00000   0.00000   0.00000   0.00000   0.00000   0.00000   0.00000   0.00000   0.00000
Generated with MDTraj, t= 39.0
 49
    1UNL     C1    1  -0.131  -0.283  -0.019
    1UNL     C2    2  -0.123  -0.134  -0.022
    1UNL     O1    3  -0.025  -0.083  -0.111
    1UNL     C3    4   0.105  -0.074  -0.050
    1UNL     O2    5   0.115   0.058   0.016
    1UNL     C4    6   0.230   0.079   0.097
    1UNL     C5    7   0.219   0.224   0.151
    1UNL     O3    8   0.302   0.235   0.264
    1UNL     C6    9   0.357   0.060   0.013
    1UNL     O4   10   0.372   0.165  -0.079
    1UNL     C7   11   0.357  -0.078  -0.052
    1UNL     O5   12   0.460  -0.105  -0.138
    1UNL     C8   13   0.227  -0.097  -0.139
    1UNL     O6   14   0.233  -0.226  -0.198
    1UNL     C9   15  -0.115  -0.082   0.122
    1UNL     O7   16  -0.063  -0.151   0.209
    1UNL    C10   17  -0.176   0.052   0.148
    1UNL    C11   18  -0.308   0.071   0.065
    1UNL    C12   19  -0.369  -0.066   0.029
    1UNL    C13   20  -0.266  -0.077  -0.080
    1UNL    C14   21  -0.270   0.083  -0.095
    1UNL    C15   22  -0.155   0.171  -0.130
    1UNL    C16   23  -0.391   0.126  -0.174
    1UNL     H1   24  -0.040  -0.313   0.027
    1UNL     H2   25  -0.220  -0.312   0.031
    1UNL     H3   26  -0.117  -0.319  -0.127
    1UNL     H4   27   0.118  -0.148   0.033
    1UNL     H5   28   0.218   0.004   0.185
    1UNL     H6   29   0.249   0.301   0.078
    1UNL     H7   30   0.110   0.233   0.170
    1UNL     H8   31   0.275   0.164   0.325
    1UNL     H9   32   0.454   0.072   0.067
    1UNL    H10   33   0.313   0.158  -0.158
    1UNL    H11   34   0.358  -0.154   0.025
    1UNL    H12   35   0.442  -0.041  -0.214
    1UNL    H13   36   0.231  -0.022  -0.220
    1UNL    H14   37   0.323  -0.252  -0.210
    1UNL    H15   38  -0.193   0.063   0.259
    1UNL    H16   39  -0.100   0.130   0.118
    1UNL    H17   40  -0.388   0.148   0.104
    1UNL    H18   41  -0.374  -0.145   0.106
    1UNL    H19   42  -0.470  -0.062  -0.006
    1UNL    H20   43  -0.301  -0.114  -0.171
    1UNL    H21   44  -0.135   0.183  -0.231
    1UNL    H22   45  -0.061   0.134  -0.099
    1UNL    H23   46  -0.169   0.261  -0.075
    1UNL    H24   47  -0.456   0.196  -0.120
    1UNL    H25   48  -0.354   0.178  -0.266
    1UNL    H26   49  -0.452   0.046  -0.199
   0.00000   0.00000   0.00000   0.00000   0.00000   0.00000   0.00000   0.00000   0.00000
Generated with MDTraj, t= 40.0
 49
    1UNL     C1    1  -0.100  -0.276  -0.031
    1UNL     C2    2  -0.129  -0.128  -0.032
    1UNL     O1    3  -0.025  -0.063  -0.114
    1UNL     C3    4   0.101  -0.045  -0.048
    1UNL     O2    5   0.127   0.097  -0.007
    1UNL     C4    6   0.235   0.091   0.088
    1UNL     C5    7   0.242   0.221   0.167
    1UNL     O3    8   0.321   0.205   0.284
    1UNL     C6    9   0.361   0.059   0.009
    1UNL     O4   10   0.379   0.162  -0.087
    1UNL     C7   11   0.347  -0.081  -0.051
    1UNL     O5   12   0.463  -0.103  -0.133
    1UNL     C8   13   0.210  -0.098  -0.132
    1UNL     O6   14   0.196  -0.238  -0.141
    1UNL     C9   15  -0.108  -0.079   0.111
    1UNL     O7   16  -0.038  -0.139   0.187
    1UNL    C10   17  -0.183   0.045   0.149
    1UNL    C11   18  -0.314   0.057   0.062
    1UNL    C12   19  -0.373  -0.079   0.027
    1UNL    C13   20  -0.270  -0.084  -0.087
    1UNL    C14   21  -0.292   0.076  -0.089
    1UNL    C15   22  -0.163   0.147  -0.137
    1UNL    C16   23  -0.417   0.125  -0.175
    1UNL     H1   24   0.007  -0.291  -0.034
    1UNL     H2   25  -0.159  -0.327   0.042
    1UNL     H3   26  -0.121  -0.313  -0.134
    1UNL     H4   27   0.111  -0.104   0.048
    1UNL     H5   28   0.219   0.009   0.167
    1UNL     H6   29   0.284   0.290   0.091
    1UNL     H7   30   0.148   0.260   0.211
    1UNL     H8   31   0.298   0.133   0.346
    1UNL     H9   32   0.446   0.067   0.077
    1UNL    H10   33   0.328   0.131  -0.161
    1UNL    H11   34   0.349  -0.164   0.023
    1UNL    H12   35   0.508  -0.011  -0.142
    1UNL    H13   36   0.208  -0.055  -0.233
    1UNL    H14   37   0.273  -0.277  -0.186
    1UNL    H15   38  -0.214   0.042   0.256
    1UNL    H16   39  -0.117   0.134   0.132
    1UNL    H17   40  -0.400   0.133   0.090
    1UNL    H18   41  -0.364  -0.159   0.096
    1UNL    H19   42  -0.477  -0.072  -0.001
    1UNL    H20   43  -0.298  -0.124  -0.178
    1UNL    H21   44  -0.139   0.111  -0.231
    1UNL    H22   45  -0.070   0.129  -0.089
    1UNL    H23   46  -0.168   0.254  -0.133
    1UNL    H24   47  -0.396   0.229  -0.216
    1UNL    H25   48  -0.428   0.065  -0.266
    1UNL    H26   49  -0.505   0.138  -0.122
   0.00000   0.00000   0.00000   0.00000   0.00000   0.00000   0.00000   0.00000   0.00000
Generated with MDTraj, t= 41.0
 49
    1UNL     C1    1  -0.095  -0.260  -0.047
    1UNL     C2    2  -0.126  -0.110  -0.035
    1UNL     O1    3  -0.023  -0.043  -0.113
    1UNL     C3    4   0.106  -0.046  -0.047
    1UNL     O2    5   0.133   0.083   0.011
    1UNL     C4    6   0.251   0.081   0.101
    1UNL     C5    7   0.254   0.215   0.182
    1UNL     O3    8   0.357   0.226   0.277
    1UNL     C6    9   0.373   0.059   0.009
    1UNL     O4   10   0.380   0.140  -0.104
    1UNL     C7   11   0.362  -0.085  -0.043
    1UNL     O5   12   0.479  -0.112  -0.131
    1UNL     C8   13   0.226  -0.103  -0.122
    1UNL     O6   14   0.201  -0.242  -0.149
    1UNL     C9   15  -0.121  -0.071   0.109
    1UNL     O7   16  -0.070  -0.136   0.191
    1UNL    C10   17  -0.191   0.063   0.138
    1UNL    C11   18  -0.334   0.055   0.059
    1UNL    C12   19  -0.371  -0.099   0.030
    1UNL    C13   20  -0.270  -0.083  -0.085
    1UNL    C14   21  -0.313   0.073  -0.098
    1UNL    C15   22  -0.200   0.171  -0.132
    1UNL    C16   23  -0.441   0.099  -0.187
    1UNL     H1   24  -0.016  -0.304   0.015
    1UNL     H2   25  -0.190  -0.309  -0.031
    1UNL     H3   26  -0.052  -0.289  -0.141
    1UNL     H4   27   0.107  -0.107   0.049
    1UNL     H5   28   0.231  -0.007   0.168
    1UNL     H6   29   0.272   0.300   0.113
    1UNL     H7   30   0.153   0.218   0.224
    1UNL     H8   31   0.356   0.141   0.328
    1UNL     H9   32   0.472   0.071   0.052
    1UNL    H10   33   0.337   0.223  -0.081
    1UNL    H11   34   0.365  -0.162   0.041
    1UNL    H12   35   0.522  -0.028  -0.146
    1UNL    H13   36   0.234  -0.054  -0.218
    1UNL    H14   37   0.265  -0.280  -0.217
    1UNL    H15   38  -0.201   0.077   0.248
    1UNL    H16   39  -0.128   0.145   0.098
    1UNL    H17   40  -0.434   0.108   0.093
    1UNL    H18   41  -0.335  -0.164   0.103
    1UNL    H19   42  -0.476  -0.111   0.003
    1UNL    H20   43  -0.303  -0.137  -0.166
    1UNL    H21   44  -0.198   0.177  -0.236
    1UNL    H22   45  -0.108   0.125  -0.105
    1UNL    H23   46  -0.210   0.261  -0.076
    1UNL    H24   47  -0.507   0.169  -0.133
    1UNL    H25   48  -0.418   0.146  -0.281
    1UNL    H26   49  -0.499   0.000  -0.194
   0.00000   0.00000   0.00000   0.00000   0.00000   0.00000   0.00000   0.00000   0.00000
Generated with MDTraj, t= 42.0
 49
    1UNL     C1    1  -0.108  -0.265  -0.035
    1UNL     C2    2  -0.126  -0.116  -0.036
    1UNL     O1    3  -0.023  -0.042  -0.101
    1UNL     C3    4   0.099  -0.039  -0.026
    1UNL     O2    5   0.127   0.090   0.041
    1UNL     C4    6   0.251   0.091   0.113
    1UNL     C5    7   0.284   0.229   0.172
    1UNL     O3    8   0.411   0.229   0.238
    1UNL     C6    9   0.370   0.055   0.021
    1UNL     O4   10   0.397   0.153  -0.076
    1UNL     C7   11   0.348  -0.085  -0.049
    1UNL     O5   12   0.456  -0.130  -0.133
    1UNL     C8   13   0.213  -0.084  -0.120
    1UNL     O6   14   0.197  -0.212  -0.182
    1UNL     C9   15  -0.134  -0.071   0.112
    1UNL     O7   16  -0.076  -0.127   0.204
    1UNL    C10   17  -0.225   0.046   0.144
    1UNL    C11   18  -0.348   0.032   0.052
    1UNL    C12   19  -0.378  -0.114   0.009
    1UNL    C13   20  -0.266  -0.095  -0.099
    1UNL    C14   21  -0.306   0.058  -0.102
    1UNL    C15   22  -0.186   0.157  -0.126
    1UNL    C16   23  -0.420   0.104  -0.198
    1UNL     H1   24  -0.003  -0.299  -0.033
    1UNL     H2   25  -0.166  -0.305   0.049
    1UNL     H3   26  -0.133  -0.313  -0.123
    1UNL     H4   27   0.102  -0.106   0.065
    1UNL     H5   28   0.234   0.022   0.196
    1UNL     H6   29   0.290   0.303   0.089
    1UNL     H7   30   0.215   0.258   0.252
    1UNL     H8   31   0.415   0.157   0.307
    1UNL     H9   32   0.462   0.055   0.079
    1UNL    H10   33   0.325   0.148  -0.145
    1UNL    H11   34   0.328  -0.151   0.044
    1UNL    H12   35   0.491  -0.043  -0.163
    1UNL    H13   36   0.218  -0.008  -0.196
    1UNL    H14   37   0.273  -0.226  -0.245
    1UNL    H15   38  -0.261   0.028   0.248
    1UNL    H16   39  -0.172   0.142   0.140
    1UNL    H17   40  -0.443   0.090   0.092
    1UNL    H18   41  -0.366  -0.199   0.069
    1UNL    H19   42  -0.480  -0.121  -0.028
    1UNL    H20   43  -0.281  -0.135  -0.194
    1UNL    H21   44  -0.160   0.140  -0.228
    1UNL    H22   45  -0.103   0.139  -0.062
    1UNL    H23   46  -0.228   0.249  -0.106
    1UNL    H24   47  -0.439   0.210  -0.190
    1UNL    H25   48  -0.377   0.096  -0.298
    1UNL    H26   49  -0.521   0.043  -0.190
   0.00000   0.00000   0.00000   0.00000   0.00000   0.00000   0.00000   0.00000   0.00000
Generated with MDTraj, t= 43.0
 49
    1UNL     C1    1  -0.086  -0.262  -0.032
    1UNL     C2    2  -0.124  -0.114  -0.014
    1UNL     O1    3  -0.026  -0.026  -0.081
    1UNL     C3    4   0.099  -0.029  -0.021
    1UNL     O2    5   0.131   0.102   0.030
    1UNL     C4    6   0.252   0.097   0.101
    1UNL     C5    7   0.272   0.230   0.176
    1UNL     O3    8   0.406   0.239   0.230
    1UNL     C6    9   0.377   0.040   0.019
    1UNL     O4   10   0.416   0.132  -0.083
    1UNL     C7   11   0.344  -0.095  -0.052
    1UNL     O5   12   0.438  -0.128  -0.155
    1UNL     C8   13   0.207  -0.083  -0.124
    1UNL     O6   14   0.183  -0.212  -0.180
    1UNL     C9   15  -0.146  -0.074   0.130
    1UNL     O7   16  -0.083  -0.133   0.215
    1UNL    C10   17  -0.252   0.026   0.160
    1UNL    C11   18  -0.361   0.026   0.043
    1UNL    C12   19  -0.376  -0.118  -0.010
    1UNL    C13   20  -0.249  -0.086  -0.101
    1UNL    C14   21  -0.299   0.064  -0.099
    1UNL    C15   22  -0.179   0.167  -0.107
    1UNL    C16   23  -0.391   0.096  -0.214
    1UNL     H1   24  -0.027  -0.309   0.049
    1UNL     H2   25  -0.177  -0.318  -0.056
    1UNL     H3   26  -0.018  -0.260  -0.110
    1UNL     H4   27   0.103  -0.099   0.066
    1UNL     H5   28   0.227   0.024   0.175
    1UNL     H6   29   0.269   0.310   0.098
    1UNL     H7   30   0.212   0.258   0.263
    1UNL     H8   31   0.424   0.164   0.289
    1UNL     H9   32   0.472   0.034   0.073
    1UNL    H10   33   0.343   0.204  -0.088
    1UNL    H11   34   0.333  -0.192   0.010
    1UNL    H12   35   0.452  -0.046  -0.210
    1UNL    H13   36   0.221  -0.014  -0.206
    1UNL    H14   37   0.252  -0.230  -0.244
    1UNL    H15   38  -0.295   0.006   0.259
    1UNL    H16   39  -0.205   0.123   0.169
    1UNL    H17   40  -0.468   0.067   0.073
    1UNL    H18   41  -0.357  -0.198   0.058
    1UNL    H19   42  -0.464  -0.159  -0.059
    1UNL    H20   43  -0.249  -0.136  -0.194
    1UNL    H21   44  -0.114   0.146  -0.190
    1UNL    H22   45  -0.117   0.168  -0.022
    1UNL    H23   46  -0.207   0.266  -0.108
    1UNL    H24   47  -0.427   0.201  -0.218
    1UNL    H25   48  -0.327   0.084  -0.307
    1UNL    H26   49  -0.475   0.025  -0.214
   0.00000   0.00000   0.00000   0.00000   0.00000   0.00000   0.00000   0.00000   0.00000
Generated with MDTraj, t= 44.0
 49
    1UNL     C1    1  -0.100  -0.260  -0.043
    1UNL     C2    2  -0.131  -0.106  -0.030
    1UNL     O1    3  -0.017  -0.034  -0.074
    1UNL     C3    4   0.112  -0.034  -0.012
    1UNL     O2    5   0.151   0.098   0.029
    1UNL     C4    6   0.274   0.101   0.101
    1UNL     C5    7   0.316   0.240   0.157
    1UNL     O3    8   0.418   0.227   0.261
    1UNL     C6    9   0.386   0.051   0.004
    1UNL     O4   10   0.391   0.135  -0.107
    1UNL     C7   11   0.361  -0.092  -0.049
    1UNL     O5   12   0.461  -0.123  -0.141
    1UNL     C8   13   0.223  -0.094  -0.112
    1UNL     O6   14   0.191  -0.224  -0.149
    1UNL     C9   15  -0.151  -0.081   0.121
    1UNL     O7   16  -0.093  -0.141   0.205
    1UNL    C10   17  -0.262   0.026   0.150
    1UNL    C11   18  -0.371   0.024   0.045
    1UNL    C12   19  -0.380  -0.124  -0.021
    1UNL    C13   20  -0.255  -0.079  -0.108
    1UNL    C14   21  -0.317   0.070  -0.100
    1UNL    C15   22  -0.217   0.177  -0.103
    1UNL    C16   23  -0.428   0.099  -0.208
    1UNL     H1   24   0.002  -0.270  -0.014
    1UNL     H2   25  -0.171  -0.310   0.022
    1UNL     H3   26  -0.100  -0.298  -0.145
    1UNL     H4   27   0.102  -0.091   0.083
    1UNL     H5   28   0.251   0.035   0.179
    1UNL     H6   29   0.372   0.312   0.093
    1UNL     H7   30   0.228   0.282   0.204
    1UNL     H8   31   0.367   0.206   0.340
    1UNL     H9   32   0.485   0.060   0.053
    1UNL    H10   33   0.301   0.180  -0.100
    1UNL    H11   34   0.365  -0.164   0.041
    1UNL    H12   35   0.472  -0.049  -0.198
    1UNL    H13   36   0.217  -0.027  -0.198
    1UNL    H14   37   0.236  -0.255  -0.228
    1UNL    H15   38  -0.298   0.014   0.252
    1UNL    H16   39  -0.219   0.125   0.154
    1UNL    H17   40  -0.470   0.079   0.078
    1UNL    H18   41  -0.362  -0.204   0.050
    1UNL    H19   42  -0.471  -0.145  -0.077
    1UNL    H20   43  -0.259  -0.116  -0.211
    1UNL    H21   44  -0.199   0.206  -0.203
    1UNL    H22   45  -0.119   0.157  -0.071
    1UNL    H23   46  -0.238   0.262  -0.046
    1UNL    H24   47  -0.497   0.188  -0.178
    1UNL    H25   48  -0.380   0.136  -0.308
    1UNL    H26   49  -0.490   0.017  -0.222
   0.00000   0.00000   0.00000   0.00000   0.00000   0.00000   0.00000   0.00000   0.00000
Generated with MDTraj, t= 45.0
 49
    1UNL     C1    1  -0.072  -0.239  -0.067
    1UNL     C2    2  -0.121  -0.098  -0.040
    1UNL     O1    3  -0.021  -0.008  -0.095
    1UNL     C3    4   0.098  -0.011  -0.024
    1UNL     O2    5   0.155   0.112   0.023
    1UNL     C4    6   0.276   0.098   0.097
    1UNL     C5    7   0.294   0.222   0.182
    1UNL     O3    8   0.419   0.221   0.250
    1UNL     C6    9   0.386   0.063  -0.002
    1UNL     O4   10   0.372   0.152  -0.115
    1UNL     C7   11   0.351  -0.086  -0.047
    1UNL     O5   12   0.450  -0.145  -0.129
    1UNL     C8   13   0.203  -0.105  -0.101
    1UNL     O6   14   0.180  -0.242  -0.089
    1UNL     C9   15  -0.138  -0.085   0.110
    1UNL     O7   16  -0.072  -0.147   0.188
    1UNL    C10   17  -0.243   0.015   0.147
    1UNL    C11   18  -0.360   0.020   0.048
    1UNL    C12   19  -0.380  -0.122  -0.017
    1UNL    C13   20  -0.263  -0.083  -0.114
    1UNL    C14   21  -0.319   0.067  -0.099
    1UNL    C15   22  -0.207   0.169  -0.107
    1UNL    C16   23  -0.431   0.105  -0.189
    1UNL     H1   24   0.015  -0.261  -0.014
    1UNL     H2   25  -0.151  -0.307  -0.043
    1UNL     H3   26  -0.037  -0.244  -0.175
    1UNL     H4   27   0.073  -0.066   0.068
    1UNL     H5   28   0.262   0.015   0.160
    1UNL     H6   29   0.296   0.308   0.109
    1UNL     H7   30   0.229   0.235   0.266
    1UNL     H8   31   0.415   0.150   0.319
    1UNL     H9   32   0.491   0.069   0.037
    1UNL    H10   33   0.277   0.152  -0.139
    1UNL    H11   34   0.364  -0.138   0.054
    1UNL    H12   35   0.477  -0.081  -0.202
    1UNL    H13   36   0.198  -0.081  -0.209
    1UNL    H14   37   0.244  -0.290  -0.152
    1UNL    H15   38  -0.281  -0.011   0.244
    1UNL    H16   39  -0.196   0.112   0.153
    1UNL    H17   40  -0.456   0.068   0.095
    1UNL    H18   41  -0.354  -0.202   0.058
    1UNL    H19   42  -0.475  -0.145  -0.064
    1UNL    H20   43  -0.264  -0.124  -0.220
    1UNL    H21   44  -0.183   0.182  -0.207
    1UNL    H22   45  -0.123   0.137  -0.052
    1UNL    H23   46  -0.236   0.259  -0.057
    1UNL    H24   47  -0.421   0.219  -0.207
    1UNL    H25   48  -0.423   0.061  -0.295
    1UNL    H26   49  -0.524   0.089  -0.138
   0.00000   0.00000   0.00000   0.00000   0.00000   0.00000   0.00000   0.00000   0.00000
Generated with MDTraj, t= 46.0
 49
    1UNL     C1    1  -0.098  -0.261  -0.067
    1UNL     C2    2  -0.129  -0.120  -0.044
    1UNL     O1    3  -0.025  -0.034  -0.095
    1UNL     C3    4   0.101  -0.044  -0.021
    1UNL     O2    5   0.135   0.090   0.024
    1UNL     C4    6   0.254   0.097   0.102
    1UNL     C5    7   0.291   0.238   0.145
    1UNL     O3    8   0.408   0.243   0.232
    1UNL     C6    9   0.373   0.060   0.016
    1UNL     O4   10   0.384   0.150  -0.100
    1UNL     C7   11   0.361  -0.084  -0.030
    1UNL     O5   12   0.461  -0.115  -0.124
    1UNL     C8   13   0.221  -0.109  -0.101
    1UNL     O6   14   0.194  -0.248  -0.121
    1UNL     C9   15  -0.143  -0.091   0.109
    1UNL     O7   16  -0.078  -0.159   0.187
    1UNL    C10   17  -0.229   0.017   0.150
    1UNL    C11   18  -0.350   0.035   0.054
    1UNL    C12   19  -0.385  -0.101  -0.013
    1UNL    C13   20  -0.268  -0.078  -0.113
    1UNL    C14   21  -0.307   0.070  -0.092
    1UNL    C15   22  -0.190   0.179  -0.094
    1UNL    C16   23  -0.420   0.129  -0.185
    1UNL     H1   24  -0.013  -0.288  -0.011
    1UNL     H2   25  -0.179  -0.320  -0.033
    1UNL     H3   26  -0.067  -0.287  -0.172
    1UNL     H4   27   0.082  -0.105   0.069
    1UNL     H5   28   0.243   0.037   0.188
    1UNL     H6   29   0.337   0.286   0.055
    1UNL     H7   30   0.209   0.296   0.185
    1UNL     H8   31   0.393   0.206   0.324
    1UNL     H9   32   0.475   0.071   0.065
    1UNL    H10   33   0.298   0.146  -0.153
    1UNL    H11   34   0.359  -0.147   0.063
    1UNL    H12   35   0.501  -0.032  -0.164
    1UNL    H13   36   0.225  -0.067  -0.205
    1UNL    H14   37   0.252  -0.279  -0.196
    1UNL    H15   38  -0.267  -0.009   0.246
    1UNL    H16   39  -0.171   0.108   0.149
    1UNL    H17   40  -0.445   0.088   0.096
    1UNL    H18   41  -0.375  -0.181   0.070
    1UNL    H19   42  -0.481  -0.121  -0.065
    1UNL    H20   43  -0.285  -0.114  -0.223
    1UNL    H21   44  -0.179   0.213  -0.190
    1UNL    H22   45  -0.102   0.134  -0.055
    1UNL    H23   46  -0.221   0.254  -0.026
    1UNL    H24   47  -0.504   0.171  -0.125
    1UNL    H25   48  -0.383   0.213  -0.247
    1UNL    H26   49  -0.467   0.041  -0.250
   0.00000   0.00000   0.00000   0.00000   0.00000   0.00000   0.00000   0.00000   0.00000
Generated with MDTraj, t= 47.0
 49
    1UNL     C1    1  -0.113  -0.276  -0.061
    1UNL     C2    2  -0.129  -0.125  -0.033
    1UNL     O1    3  -0.021  -0.061  -0.095
    1UNL     C3    4   0.098  -0.048  -0.018
    1UNL     O2    5   0.133   0.090   0.017
    1UNL     C4    6   0.254   0.103   0.097
    1UNL     C5    7   0.246   0.247   0.150
    1UNL     O3    8   0.353   0.286   0.230
    1UNL     C6    9   0.372   0.053   0.010
    1UNL     O4   10   0.397   0.133  -0.107
    1UNL     C7   11   0.350  -0.091  -0.035
    1UNL     O5   12   0.461  -0.135  -0.114
    1UNL     C8   13   0.213  -0.098  -0.113
    1UNL     O6   14   0.198  -0.232  -0.168
    1UNL     C9   15  -0.145  -0.101   0.120
    1UNL     O7   16  -0.090  -0.181   0.190
    1UNL    C10   17  -0.222   0.021   0.159
    1UNL    C11   18  -0.333   0.040   0.063
    1UNL    C12   19  -0.377  -0.093  -0.008
    1UNL    C13   20  -0.261  -0.071  -0.102
    1UNL    C14   21  -0.276   0.087  -0.084
    1UNL    C15   22  -0.157   0.178  -0.084
    1UNL    C16   23  -0.385   0.141  -0.181
    1UNL     H1   24  -0.025  -0.315  -0.014
    1UNL     H2   25  -0.194  -0.337  -0.026
    1UNL     H3   26  -0.092  -0.302  -0.164
    1UNL     H4   27   0.082  -0.098   0.077
    1UNL     H5   28   0.239   0.029   0.175
    1UNL     H6   29   0.227   0.320   0.069
    1UNL     H7   30   0.156   0.238   0.212
    1UNL     H8   31   0.391   0.204   0.269
    1UNL     H9   32   0.460   0.046   0.078
    1UNL    H10   33   0.311   0.165  -0.130
    1UNL    H11   34   0.340  -0.154   0.054
    1UNL    H12   35   0.509  -0.068  -0.160
    1UNL    H13   36   0.218  -0.027  -0.201
    1UNL    H14   37   0.273  -0.248  -0.223
    1UNL    H15   38  -0.266   0.007   0.253
    1UNL    H16   39  -0.155   0.104   0.169
    1UNL    H17   40  -0.417   0.113   0.095
    1UNL    H18   41  -0.354  -0.180   0.063
    1UNL    H19   42  -0.479  -0.093  -0.057
    1UNL    H20   43  -0.283  -0.104  -0.214
    1UNL    H21   44  -0.102   0.167  -0.174
    1UNL    H22   45  -0.088   0.153  -0.006
    1UNL    H23   46  -0.192   0.274  -0.067
    1UNL    H24   47  -0.435   0.237  -0.151
    1UNL    H25   48  -0.345   0.164  -0.281
    1UNL    H26   49  -0.470   0.059  -0.189
   0.00000   0.00000   0.00000   0.00000   0.00000   0.00000   0.00000   0.00000   0.00000
Generated with MDTraj, t= 48.0
 49
    1UNL     C1    1  -0.132  -0.288  -0.066
    1UNL     C2    2  -0.133  -0.133  -0.042
    1UNL     O1    3  -0.016  -0.067  -0.112
    1UNL     C3    4   0.097  -0.058  -0.034
    1UNL     O2    5   0.116   0.081   0.004
    1UNL     C4    6   0.227   0.103   0.096
    1UNL     C5    7   0.243   0.252   0.146
    1UNL     O3    8   0.357   0.261   0.228
    1UNL     C6    9   0.353   0.056   0.022
    1UNL     O4   10   0.373   0.148  -0.083
    1UNL     C7   11   0.345  -0.089  -0.027
    1UNL     O5   12   0.456  -0.118  -0.108
    1UNL     C8   13   0.221  -0.105  -0.116
    1UNL     O6   14   0.212  -0.241  -0.152
    1UNL     C9   15  -0.123  -0.099   0.106
    1UNL     O7   16  -0.066  -0.172   0.177
    1UNL    C10   17  -0.190   0.028   0.155
    1UNL    C11   18  -0.322   0.049   0.068
    1UNL    C12   19  -0.379  -0.080   0.007
    1UNL    C13   20  -0.264  -0.075  -0.097
    1UNL    C14   21  -0.277   0.086  -0.078
    1UNL    C15   22  -0.144   0.169  -0.100
    1UNL    C16   23  -0.389   0.150  -0.167
    1UNL     H1   24  -0.037  -0.335  -0.041
    1UNL     H2   25  -0.209  -0.331   0.001
    1UNL     H3   26  -0.155  -0.318  -0.161
    1UNL     H4   27   0.082  -0.124   0.048
    1UNL     H5   28   0.207   0.044   0.188
    1UNL     H6   29   0.266   0.305   0.050
    1UNL     H7   30   0.166   0.314   0.195
    1UNL     H8   31   0.355   0.211   0.311
    1UNL     H9   32   0.434   0.064   0.096
    1UNL    H10   33   0.296   0.176  -0.132
    1UNL    H11   34   0.340  -0.158   0.056
    1UNL    H12   35   0.501  -0.033  -0.138
    1UNL    H13   36   0.229  -0.051  -0.214
    1UNL    H14   37   0.288  -0.274  -0.201
    1UNL    H15   38  -0.205   0.013   0.258
    1UNL    H16   39  -0.129   0.115   0.152
    1UNL    H17   40  -0.401   0.128   0.101
    1UNL    H18   41  -0.362  -0.157   0.087
    1UNL    H19   42  -0.484  -0.083  -0.041
    1UNL    H20   43  -0.281  -0.118  -0.208
    1UNL    H21   44  -0.090   0.148  -0.191
    1UNL    H22   45  -0.060   0.152  -0.035
    1UNL    H23   46  -0.155   0.272  -0.097
    1UNL    H24   47  -0.361   0.259  -0.190
    1UNL    H25   48  -0.401   0.102  -0.270
    1UNL    H26   49  -0.483   0.152  -0.118
   0.00000   0.00000   0.00000   0.00000   0.00000   0.00000   0.00000   0.00000   0.00000
Generated with MDTraj, t= 49.0
 49
    1UNL     C1    1  -0.118  -0.275  -0.066
    1UNL     C2    2  -0.133  -0.121  -0.049
    1UNL     O1    3  -0.019  -0.064  -0.124
    1UNL     C3    4   0.101  -0.062  -0.048
    1UNL     O2    5   0.125   0.074   0.001
    1UNL     C4    6   0.230   0.084   0.101
    1UNL     C5    7   0.218   0.219   0.167
    1UNL     O3    8   0.330   0.248   0.248
    1UNL     C6    9   0.358   0.066   0.014
    1UNL     O4   10   0.366   0.161  -0.092
    1UNL     C7   11   0.361  -0.087  -0.035
    1UNL     O5   12   0.474  -0.121  -0.116
    1UNL     C8   13   0.231  -0.125  -0.116
    1UNL     O6   14   0.227  -0.263  -0.129
    1UNL     C9   15  -0.118  -0.083   0.101
    1UNL     O7   16  -0.067  -0.156   0.185
    1UNL    C10   17  -0.165   0.055   0.135
    1UNL    C11   18  -0.304   0.064   0.069
    1UNL    C12   19  -0.372  -0.069   0.031
    1UNL    C13   20  -0.279  -0.071  -0.091
    1UNL    C14   21  -0.291   0.087  -0.090
    1UNL    C15   22  -0.164   0.170  -0.124
    1UNL    C16   23  -0.421   0.144  -0.157
    1UNL     H1   24  -0.027  -0.304  -0.011
    1UNL     H2   25  -0.204  -0.332  -0.031
    1UNL     H3   26  -0.102  -0.294  -0.166
    1UNL     H4   27   0.081  -0.124   0.036
    1UNL     H5   28   0.221   0.002   0.179
    1UNL     H6   29   0.211   0.310   0.104
    1UNL     H7   30   0.118   0.212   0.215
    1UNL     H8   31   0.339   0.181   0.319
    1UNL     H9   32   0.443   0.079   0.081
    1UNL    H10   33   0.277   0.193  -0.133
    1UNL    H11   34   0.377  -0.153   0.048
    1UNL    H12   35   0.520  -0.035  -0.143
    1UNL    H13   36   0.253  -0.090  -0.220
    1UNL    H14   37   0.313  -0.297  -0.164
    1UNL    H15   38  -0.174   0.058   0.240
    1UNL    H16   39  -0.100   0.131   0.105
    1UNL    H17   40  -0.361   0.144   0.130
    1UNL    H18   41  -0.365  -0.155   0.100
    1UNL    H19   42  -0.486  -0.053   0.017
    1UNL    H20   43  -0.331  -0.130  -0.180
    1UNL    H21   44  -0.145   0.186  -0.228
    1UNL    H22   45  -0.080   0.111  -0.096
    1UNL    H23   46  -0.163   0.264  -0.073
    1UNL    H24   47  -0.476   0.217  -0.087
    1UNL    H25   48  -0.396   0.206  -0.251
    1UNL    H26   49  -0.484   0.065  -0.182
   0.00000   0.00000   0.00000   0.00000   0.00000   0.00000   0.00000   0.00000   0.00000
Generated with MDTraj, t= 50.0
 49
    1UNL     C1    1  -0.126  -0.282  -0.033
    1UNL     C2    2  -0.129  -0.133  -0.031
    1UNL     O1    3  -0.023  -0.080  -0.111
    1UNL     C3    4   0.094  -0.059  -0.036
    1UNL     O2    5   0.123   0.080   0.006
    1UNL     C4    6   0.233   0.087   0.099
    1UNL     C5    7   0.234   0.221   0.173
    1UNL     O3    8   0.320   0.216   0.284
    1UNL     C6    9   0.359   0.061   0.005
    1UNL     O4   10   0.357   0.149  -0.102
    1UNL     C7   11   0.358  -0.080  -0.047
    1UNL     O5   12   0.472  -0.096  -0.129
    1UNL     C8   13   0.223  -0.111  -0.117
    1UNL     O6   14   0.204  -0.239  -0.166
    1UNL     C9   15  -0.111  -0.084   0.113
    1UNL     O7   16  -0.050  -0.149   0.199
    1UNL    C10   17  -0.173   0.057   0.142
    1UNL    C11   18  -0.310   0.080   0.056
    1UNL    C12   19  -0.374  -0.061   0.033
    1UNL    C13   20  -0.269  -0.079  -0.093
    1UNL    C14   21  -0.278   0.082  -0.102
    1UNL    C15   22  -0.142   0.155  -0.143
    1UNL    C16   23  -0.406   0.134  -0.184
    1UNL     H1   24  -0.025  -0.308  -0.003
    1UNL     H2   25  -0.198  -0.319   0.036
    1UNL     H3   26  -0.149  -0.316  -0.135
    1UNL     H4   27   0.082  -0.112   0.055
    1UNL     H5   28   0.229   0.004   0.179
    1UNL     H6   29   0.252   0.299   0.098
    1UNL     H7   30   0.134   0.251   0.209
    1UNL     H8   31   0.278   0.152   0.349
    1UNL     H9   32   0.444   0.075   0.070
    1UNL    H10   33   0.269   0.176  -0.130
    1UNL    H11   34   0.366  -0.152   0.029
    1UNL    H12   35   0.509  -0.010  -0.140
    1UNL    H13   36   0.221  -0.052  -0.210
    1UNL    H14   37   0.288  -0.276  -0.211
    1UNL    H15   38  -0.190   0.073   0.245
    1UNL    H16   39  -0.100   0.125   0.110
    1UNL    H17   40  -0.375   0.164   0.101
    1UNL    H18   41  -0.353  -0.131   0.113
    1UNL    H19   42  -0.481  -0.066  -0.008
    1UNL    H20   43  -0.319  -0.140  -0.179
    1UNL    H21   44  -0.122   0.138  -0.245
    1UNL    H22   45  -0.064   0.111  -0.086
    1UNL    H23   46  -0.163   0.259  -0.122
    1UNL    H24   47  -0.394   0.238  -0.219
    1UNL    H25   48  -0.424   0.078  -0.278
    1UNL    H26   49  -0.496   0.124  -0.119
   0.00000   0.00000   0.00000   0.00000   0.00000   0.00000   0.00000   0.00000   0.00000
Generated with MDTraj, t= 51.0
 49
    1UNL     C1    1  -0.130  -0.284   0.014
    1UNL     C2    2  -0.127  -0.131  -0.011
    1UNL     O1    3  -0.013  -0.092  -0.096
    1UNL     C3    4   0.104  -0.078  -0.031
    1UNL     O2    5   0.118   0.057   0.016
    1UNL     C4    6   0.228   0.072   0.098
    1UNL     C5    7   0.227   0.203   0.177
    1UNL     O3    8   0.324   0.200   0.276
    1UNL     C6    9   0.359   0.057   0.014
    1UNL     O4   10   0.367   0.168  -0.074
    1UNL     C7   11   0.352  -0.081  -0.064
    1UNL     O5   12   0.462  -0.086  -0.159
    1UNL     C8   13   0.216  -0.095  -0.142
    1UNL     O6   14   0.211  -0.219  -0.205
    1UNL     C9   15  -0.125  -0.063   0.131
    1UNL     O7   16  -0.071  -0.123   0.216
    1UNL    C10   17  -0.189   0.078   0.147
    1UNL    C11   18  -0.307   0.084   0.043
    1UNL    C12   19  -0.374  -0.059   0.021
    1UNL    C13   20  -0.254  -0.082  -0.086
    1UNL    C14   21  -0.270   0.075  -0.109
    1UNL    C15   22  -0.148   0.157  -0.146
    1UNL    C16   23  -0.378   0.110  -0.206
    1UNL     H1   24  -0.045  -0.321   0.067
    1UNL     H2   25  -0.216  -0.315   0.065
    1UNL     H3   26  -0.143  -0.329  -0.089
    1UNL     H4   27   0.104  -0.150   0.047
    1UNL     H5   28   0.220  -0.015   0.173
    1UNL     H6   29   0.261   0.283   0.112
    1UNL     H7   30   0.128   0.242   0.208
    1UNL     H8   31   0.303   0.149   0.358
    1UNL     H9   32   0.445   0.069   0.079
    1UNL    H10   33   0.284   0.186  -0.123
    1UNL    H11   34   0.369  -0.170  -0.011
    1UNL    H12   35   0.498   0.001  -0.175
    1UNL    H13   36   0.217  -0.015  -0.216
    1UNL    H14   37   0.302  -0.237  -0.232
    1UNL    H15   38  -0.222   0.088   0.246
    1UNL    H16   39  -0.118   0.155   0.135
    1UNL    H17   40  -0.381   0.167   0.079
    1UNL    H18   41  -0.372  -0.124   0.108
    1UNL    H19   42  -0.475  -0.049  -0.027
    1UNL    H20   43  -0.287  -0.150  -0.171
    1UNL    H21   44  -0.099   0.114  -0.230
    1UNL    H22   45  -0.071   0.151  -0.066
    1UNL    H23   46  -0.179   0.258  -0.164
    1UNL    H24   47  -0.422   0.206  -0.194
    1UNL    H25   48  -0.343   0.112  -0.307
    1UNL    H26   49  -0.464   0.030  -0.202
   0.00000   0.00000   0.00000   0.00000   0.00000   0.00000   0.00000   0.00000   0.00000
Generated with MDTraj, t= 52.0
 49
    1UNL     C1    1  -0.131  -0.272   0.027
    1UNL     C2    2  -0.133  -0.127  -0.014
    1UNL     O1    3  -0.020  -0.104  -0.100
    1UNL     C3    4   0.105  -0.082  -0.034
    1UNL     O2    5   0.119   0.035   0.041
    1UNL     C4    6   0.241   0.048   0.113
    1UNL     C5    7   0.228   0.169   0.203
    1UNL     O3    8   0.346   0.197   0.269
    1UNL     C6    9   0.363   0.060   0.018
    1UNL     O4   10   0.363   0.185  -0.046
    1UNL     C7   11   0.358  -0.072  -0.069
    1UNL     O5   12   0.448  -0.069  -0.183
    1UNL     C8   13   0.226  -0.092  -0.140
    1UNL     O6   14   0.228  -0.219  -0.213
    1UNL     C9   15  -0.129  -0.051   0.121
    1UNL     O7   16  -0.064  -0.089   0.216
    1UNL    C10   17  -0.198   0.094   0.124
    1UNL    C11   18  -0.319   0.091   0.032
    1UNL    C12   19  -0.375  -0.054   0.031
    1UNL    C13   20  -0.272  -0.085  -0.079
    1UNL    C14   21  -0.273   0.066  -0.117
    1UNL    C15   22  -0.146   0.135  -0.167
    1UNL    C16   23  -0.388   0.104  -0.212
    1UNL     H1   24  -0.051  -0.284   0.095
    1UNL     H2   25  -0.214  -0.320   0.073
    1UNL     H3   26  -0.113  -0.335  -0.064
    1UNL     H4   27   0.103  -0.166   0.030
    1UNL     H5   28   0.251  -0.052   0.166
    1UNL     H6   29   0.188   0.257   0.154
    1UNL     H7   30   0.145   0.144   0.273
    1UNL     H8   31   0.365   0.135   0.341
    1UNL     H9   32   0.453   0.065   0.081
    1UNL    H10   33   0.274   0.188  -0.095
    1UNL    H11   34   0.372  -0.154  -0.005
    1UNL    H12   35   0.445   0.028  -0.213
    1UNL    H13   36   0.208  -0.018  -0.215
    1UNL    H14   37   0.314  -0.244  -0.245
    1UNL    H15   38  -0.219   0.122   0.223
    1UNL    H16   39  -0.130   0.170   0.094
    1UNL    H17   40  -0.394   0.180   0.050
    1UNL    H18   41  -0.362  -0.110   0.126
    1UNL    H19   42  -0.481  -0.064   0.010
    1UNL    H20   43  -0.296  -0.160  -0.159
    1UNL    H21   44  -0.113   0.086  -0.260
    1UNL    H22   45  -0.051   0.126  -0.111
    1UNL    H23   46  -0.159   0.239  -0.191
    1UNL    H24   47  -0.440   0.189  -0.171
    1UNL    H25   48  -0.354   0.142  -0.306
    1UNL    H26   49  -0.463   0.024  -0.237
   0.00000   0.00000   0.00000   0.00000   0.00000   0.00000   0.00000   0.00000   0.00000
Generated with MDTraj, t= 53.0
 49
    1UNL     C1    1  -0.117  -0.272   0.016
    1UNL     C2    2  -0.128  -0.128  -0.011
    1UNL     O1    3  -0.023  -0.086  -0.102
    1UNL     C3    4   0.102  -0.077  -0.032
    1UNL     O2    5   0.114   0.045   0.038
    1UNL     C4    6   0.235   0.049   0.116
    1UNL     C5    7   0.250   0.160   0.222
    1UNL     O3    8   0.374   0.161   0.292
    1UNL     C6    9   0.353   0.061   0.015
    1UNL     O4   10   0.315   0.166  -0.066
    1UNL     C7   11   0.358  -0.063  -0.071
    1UNL     O5   12   0.460  -0.041  -0.172
    1UNL     C8   13   0.222  -0.090  -0.138
    1UNL     O6   14   0.211  -0.213  -0.203
    1UNL     C9   15  -0.123  -0.039   0.117
    1UNL     O7   16  -0.085  -0.086   0.224
    1UNL    C10   17  -0.174   0.103   0.117
    1UNL    C11   18  -0.302   0.101   0.026
    1UNL    C12   19  -0.367  -0.039   0.037
    1UNL    C13   20  -0.270  -0.087  -0.078
    1UNL    C14   21  -0.275   0.062  -0.127
    1UNL    C15   22  -0.151   0.113  -0.184
    1UNL    C16   23  -0.394   0.077  -0.221
    1UNL     H1   24  -0.021  -0.306   0.052
    1UNL     H2   25  -0.183  -0.298   0.100
    1UNL     H3   26  -0.153  -0.330  -0.066
    1UNL     H4   27   0.101  -0.161   0.034
    1UNL     H5   28   0.235  -0.054   0.156
    1UNL     H6   29   0.224   0.252   0.172
    1UNL     H7   30   0.169   0.154   0.299
    1UNL     H8   31   0.373   0.092   0.361
    1UNL     H9   32   0.450   0.100   0.057
    1UNL    H10   33   0.218   0.155  -0.080
    1UNL    H11   34   0.395  -0.142  -0.011
    1UNL    H12   35   0.444   0.047  -0.206
    1UNL    H13   36   0.228  -0.014  -0.214
    1UNL    H14   37   0.300  -0.236  -0.243
    1UNL    H15   38  -0.190   0.137   0.215
    1UNL    H16   39  -0.098   0.165   0.075
    1UNL    H17   40  -0.386   0.182   0.037
    1UNL    H18   41  -0.338  -0.088   0.132
    1UNL    H19   42  -0.467  -0.042   0.004
    1UNL    H20   43  -0.302  -0.171  -0.142
    1UNL    H21   44  -0.124   0.054  -0.275
    1UNL    H22   45  -0.073   0.089  -0.116
    1UNL    H23   46  -0.155   0.222  -0.202
    1UNL    H24   47  -0.370   0.155  -0.296
    1UNL    H25   48  -0.418  -0.016  -0.273
    1UNL    H26   49  -0.475   0.101  -0.165
   0.00000   0.00000   0.00000   0.00000   0.00000   0.00000   0.00000   0.00000   0.00000
Generated with MDTraj, t= 54.0
 49
    1UNL     C1    1  -0.135  -0.272   0.036
    1UNL     C2    2  -0.122  -0.128  -0.003
    1UNL     O1    3  -0.012  -0.104  -0.091
    1UNL     C3    4   0.113  -0.076  -0.030
    1UNL     O2    5   0.123   0.053   0.045
    1UNL     C4    6   0.246   0.054   0.112
    1UNL     C5    7   0.247   0.153   0.227
    1UNL     O3    8   0.352   0.146   0.323
    1UNL     C6    9   0.365   0.076   0.005
    1UNL     O4   10   0.335   0.185  -0.083
    1UNL     C7   11   0.364  -0.054  -0.084
    1UNL     O5   12   0.456  -0.045  -0.195
    1UNL     C8   13   0.219  -0.088  -0.143
    1UNL     O6   14   0.208  -0.213  -0.201
    1UNL     C9   15  -0.125  -0.042   0.129
    1UNL     O7   16  -0.100  -0.089   0.236
    1UNL    C10   17  -0.172   0.102   0.103
    1UNL    C11   18  -0.302   0.100   0.021
    1UNL    C12   19  -0.373  -0.041   0.029
    1UNL    C13   20  -0.267  -0.087  -0.074
    1UNL    C14   21  -0.277   0.055  -0.126
    1UNL    C15   22  -0.144   0.108  -0.196
    1UNL    C16   23  -0.404   0.084  -0.218
    1UNL     H1   24  -0.076  -0.287   0.128
    1UNL     H2   25  -0.236  -0.313   0.053
    1UNL     H3   26  -0.099  -0.324  -0.044
    1UNL     H4   27   0.120  -0.158   0.041
    1UNL     H5   28   0.256  -0.047   0.149
    1UNL     H6   29   0.259   0.255   0.193
    1UNL     H7   30   0.145   0.154   0.274
    1UNL     H8   31   0.360   0.062   0.375
    1UNL     H9   32   0.462   0.113   0.047
    1UNL    H10   33   0.237   0.181  -0.085
    1UNL    H11   34   0.372  -0.145  -0.022
    1UNL    H12   35   0.432   0.035  -0.241
    1UNL    H13   36   0.192  -0.019  -0.222
    1UNL    H14   37   0.279  -0.219  -0.274
    1UNL    H15   38  -0.198   0.137   0.200
    1UNL    H16   39  -0.094   0.160   0.057
    1UNL    H17   40  -0.372   0.195   0.028
    1UNL    H18   41  -0.357  -0.092   0.124
    1UNL    H19   42  -0.470  -0.038  -0.008
    1UNL    H20   43  -0.300  -0.154  -0.154
    1UNL    H21   44  -0.123   0.040  -0.280
    1UNL    H22   45  -0.065   0.097  -0.123
    1UNL    H23   46  -0.163   0.213  -0.227
    1UNL    H24   47  -0.446   0.183  -0.201
    1UNL    H25   48  -0.371   0.085  -0.322
    1UNL    H26   49  -0.473   0.006  -0.214
   0.00000   0.00000   0.00000   0.00000   0.00000   0.00000   0.00000   0.00000   0.00000
Generated with MDTraj, t= 55.0
 49
    1UNL     C1    1  -0.123  -0.272   0.045
    1UNL     C2    2  -0.128  -0.126   0.004
    1UNL     O1    3  -0.017  -0.111  -0.095
    1UNL     C3    4   0.109  -0.082  -0.042
    1UNL     O2    5   0.115   0.039   0.037
    1UNL     C4    6   0.232   0.044   0.117
    1UNL     C5    7   0.238   0.171   0.208
    1UNL     O3    8   0.343   0.153   0.300
    1UNL     C6    9   0.350   0.055   0.016
    1UNL     O4   10   0.344   0.176  -0.052
    1UNL     C7   11   0.349  -0.058  -0.088
    1UNL     O5   12   0.446  -0.037  -0.195
    1UNL     C8   13   0.213  -0.095  -0.155
    1UNL     O6   14   0.218  -0.220  -0.210
    1UNL     C9   15  -0.117  -0.034   0.128
    1UNL     O7   16  -0.066  -0.071   0.227
    1UNL    C10   17  -0.185   0.105   0.122
    1UNL    C11   18  -0.313   0.093   0.022
    1UNL    C12   19  -0.375  -0.049   0.025
    1UNL    C13   20  -0.263  -0.086  -0.074
    1UNL    C14   21  -0.266   0.065  -0.125
    1UNL    C15   22  -0.137   0.140  -0.167
    1UNL    C16   23  -0.379   0.075  -0.231
    1UNL     H1   24  -0.021  -0.284   0.085
    1UNL     H2   25  -0.195  -0.294   0.124
    1UNL     H3   26  -0.155  -0.331  -0.036
    1UNL     H4   27   0.132  -0.162   0.029
    1UNL     H5   28   0.241  -0.047   0.170
    1UNL     H6   29   0.233   0.260   0.149
    1UNL     H7   30   0.147   0.177   0.273
    1UNL     H8   31   0.312   0.091   0.373
    1UNL     H9   32   0.450   0.059   0.066
    1UNL    H10   33   0.243   0.189  -0.057
    1UNL    H11   34   0.386  -0.151  -0.037
    1UNL    H12   35   0.434   0.058  -0.230
    1UNL    H13   36   0.196  -0.023  -0.236
    1UNL    H14   37   0.276  -0.221  -0.291
    1UNL    H15   38  -0.212   0.125   0.226
    1UNL    H16   39  -0.109   0.175   0.093
    1UNL    H17   40  -0.391   0.181   0.036
    1UNL    H18   41  -0.361  -0.092   0.122
    1UNL    H19   42  -0.475  -0.061  -0.009
    1UNL    H20   43  -0.285  -0.152  -0.156
    1UNL    H21   44  -0.106   0.107  -0.267
    1UNL    H22   45  -0.058   0.111  -0.093
    1UNL    H23   46  -0.150   0.249  -0.157
    1UNL    H24   47  -0.426   0.169  -0.229
    1UNL    H25   48  -0.351   0.063  -0.332
    1UNL    H26   49  -0.451  -0.011  -0.220
   0.00000   0.00000   0.00000   0.00000   0.00000   0.00000   0.00000   0.00000   0.00000
Generated with MDTraj, t= 56.0
 49
    1UNL     C1    1  -0.121  -0.282   0.028
    1UNL     C2    2  -0.129  -0.129  -0.005
    1UNL     O1    3  -0.022  -0.102  -0.097
    1UNL     C3    4   0.106  -0.088  -0.040
    1UNL     O2    5   0.109   0.040   0.031
    1UNL     C4    6   0.235   0.046   0.105
    1UNL     C5    7   0.227   0.163   0.213
    1UNL     O3    8   0.341   0.187   0.292
    1UNL     C6    9   0.350   0.056   0.009
    1UNL     O4   10   0.347   0.178  -0.063
    1UNL     C7   11   0.359  -0.070  -0.081
    1UNL     O5   12   0.465  -0.060  -0.174
    1UNL     C8   13   0.223  -0.092  -0.150
    1UNL     O6   14   0.233  -0.207  -0.215
    1UNL     C9   15  -0.120  -0.039   0.120
    1UNL     O7   16  -0.058  -0.079   0.217
    1UNL    C10   17  -0.202   0.095   0.136
    1UNL    C11   18  -0.313   0.093   0.031
    1UNL    C12   19  -0.383  -0.042   0.029
    1UNL    C13   20  -0.273  -0.091  -0.069
    1UNL    C14   21  -0.272   0.069  -0.114
    1UNL    C15   22  -0.138   0.116  -0.168
    1UNL    C16   23  -0.384   0.105  -0.215
    1UNL     H1   24  -0.037  -0.291   0.095
    1UNL     H2   25  -0.209  -0.303   0.084
    1UNL     H3   26  -0.130  -0.350  -0.059
    1UNL     H4   27   0.128  -0.172   0.029
    1UNL     H5   28   0.230  -0.046   0.157
    1UNL     H6   29   0.211   0.254   0.160
    1UNL     H7   30   0.131   0.153   0.268
    1UNL     H8   31   0.356   0.107   0.346
    1UNL     H9   32   0.445   0.074   0.065
    1UNL    H10   33   0.256   0.205  -0.083
    1UNL    H11   34   0.380  -0.161  -0.015
    1UNL    H12   35   0.447   0.020  -0.222
    1UNL    H13   36   0.206  -0.009  -0.222
    1UNL    H14   37   0.304  -0.219  -0.278
    1UNL    H15   38  -0.235   0.104   0.242
    1UNL    H16   39  -0.140   0.181   0.127
    1UNL    H17   40  -0.381   0.189   0.045
    1UNL    H18   41  -0.378  -0.100   0.117
    1UNL    H19   42  -0.480  -0.036  -0.019
    1UNL    H20   43  -0.312  -0.161  -0.140
    1UNL    H21   44  -0.104   0.051  -0.249
    1UNL    H22   45  -0.052   0.120  -0.096
    1UNL    H23   46  -0.131   0.222  -0.203
    1UNL    H24   47  -0.369   0.198  -0.253
    1UNL    H25   48  -0.399   0.040  -0.295
    1UNL    H26   49  -0.490   0.097  -0.170
   0.00000   0.00000   0.00000   0.00000   0.00000   0.00000   0.00000   0.00000   0.00000
Generated with MDTraj, t= 57.0
 49
    1UNL     C1    1  -0.120  -0.289  -0.001
    1UNL     C2    2  -0.129  -0.135  -0.019
    1UNL     O1    3  -0.020  -0.102  -0.109
    1UNL     C3    4   0.099  -0.074  -0.037
    1UNL     O2    5   0.108   0.059   0.031
    1UNL     C4    6   0.232   0.072   0.108
    1UNL     C5    7   0.231   0.200   0.201
    1UNL     O3    8   0.348   0.196   0.287
    1UNL     C6    9   0.353   0.065   0.014
    1UNL     O4   10   0.343   0.159  -0.092
    1UNL     C7   11   0.360  -0.077  -0.056
    1UNL     O5   12   0.464  -0.071  -0.151
    1UNL     C8   13   0.223  -0.095  -0.128
    1UNL     O6   14   0.206  -0.213  -0.196
    1UNL     C9   15  -0.119  -0.065   0.121
    1UNL     O7   16  -0.086  -0.125   0.223
    1UNL    C10   17  -0.164   0.079   0.122
    1UNL    C11   18  -0.295   0.093   0.035
    1UNL    C12   19  -0.364  -0.047   0.037
    1UNL    C13   20  -0.267  -0.085  -0.077
    1UNL    C14   21  -0.267   0.068  -0.122
    1UNL    C15   22  -0.148   0.157  -0.178
    1UNL    C16   23  -0.400   0.101  -0.195
    1UNL     H1   24  -0.038  -0.313   0.060
    1UNL     H2   25  -0.204  -0.344   0.033
    1UNL     H3   26  -0.109  -0.329  -0.106
    1UNL     H4   27   0.106  -0.147   0.047
    1UNL     H5   28   0.244  -0.013   0.173
    1UNL     H6   29   0.230   0.292   0.147
    1UNL     H7   30   0.143   0.208   0.269
    1UNL     H8   31   0.365   0.111   0.331
    1UNL     H9   32   0.451   0.071   0.063
    1UNL    H10   33   0.248   0.170  -0.109
    1UNL    H11   34   0.370  -0.178  -0.000
    1UNL    H12   35   0.456   0.018  -0.192
    1UNL    H13   36   0.225  -0.009  -0.201
    1UNL    H14   37   0.269  -0.220  -0.269
    1UNL    H15   38  -0.179   0.108   0.228
    1UNL    H16   39  -0.075   0.138   0.100
    1UNL    H17   40  -0.365   0.177   0.079
    1UNL    H18   41  -0.342  -0.100   0.127
    1UNL    H19   42  -0.474  -0.051   0.019
    1UNL    H20   43  -0.307  -0.144  -0.156
    1UNL    H21   44  -0.147   0.183  -0.287
    1UNL    H22   45  -0.050   0.110  -0.159
    1UNL    H23   46  -0.133   0.252  -0.121
    1UNL    H24   47  -0.425   0.198  -0.160
    1UNL    H25   48  -0.391   0.111  -0.298
    1UNL    H26   49  -0.478   0.023  -0.184
   0.00000   0.00000   0.00000   0.00000   0.00000   0.00000   0.00000   0.00000   0.00000
Generated with MDTraj, t= 58.0
 49
    1UNL     C1    1  -0.124  -0.286  -0.043
    1UNL     C2    2  -0.127  -0.135  -0.036
    1UNL     O1    3  -0.015  -0.082  -0.114
    1UNL     C3    4   0.104  -0.066  -0.039
    1UNL     O2    5   0.116   0.067   0.017
    1UNL     C4    6   0.235   0.074   0.106
    1UNL     C5    7   0.236   0.215   0.176
    1UNL     O3    8   0.344   0.221   0.274
    1UNL     C6    9   0.352   0.065   0.012
    1UNL     O4   10   0.355   0.171  -0.084
    1UNL     C7   11   0.358  -0.076  -0.055
    1UNL     O5   12   0.470  -0.093  -0.145
    1UNL     C8   13   0.227  -0.106  -0.125
    1UNL     O6   14   0.217  -0.246  -0.149
    1UNL     C9   15  -0.122  -0.078   0.111
    1UNL     O7   16  -0.075  -0.140   0.198
    1UNL    C10   17  -0.184   0.057   0.144
    1UNL    C11   18  -0.301   0.085   0.055
    1UNL    C12   19  -0.374  -0.053   0.030
    1UNL    C13   20  -0.270  -0.078  -0.093
    1UNL    C14   21  -0.281   0.083  -0.095
    1UNL    C15   22  -0.151   0.155  -0.143
    1UNL    C16   23  -0.412   0.124  -0.180
    1UNL     H1   24  -0.029  -0.327  -0.019
    1UNL     H2   25  -0.186  -0.327   0.033
    1UNL     H3   26  -0.164  -0.330  -0.136
    1UNL     H4   27   0.102  -0.135   0.052
    1UNL     H5   28   0.235  -0.008   0.178
    1UNL     H6   29   0.256   0.290   0.101
    1UNL     H7   30   0.141   0.247   0.223
    1UNL     H8   31   0.345   0.135   0.322
    1UNL     H9   32   0.435   0.080   0.081
    1UNL    H10   33   0.277   0.158  -0.146
    1UNL    H11   34   0.365  -0.164   0.021
    1UNL    H12   35   0.473  -0.012  -0.207
    1UNL    H13   36   0.230  -0.045  -0.219
    1UNL    H14   37   0.294  -0.276  -0.206
    1UNL    H15   38  -0.207   0.051   0.253
    1UNL    H16   39  -0.104   0.134   0.136
    1UNL    H17   40  -0.368   0.172   0.093
    1UNL    H18   41  -0.364  -0.125   0.111
    1UNL    H19   42  -0.481  -0.044  -0.006
    1UNL    H20   43  -0.295  -0.130  -0.182
    1UNL    H21   44  -0.109   0.096  -0.231
    1UNL    H22   45  -0.082   0.157  -0.058
    1UNL    H23   46  -0.177   0.258  -0.181
    1UNL    H24   47  -0.410   0.227  -0.216
    1UNL    H25   48  -0.411   0.062  -0.267
    1UNL    H26   49  -0.495   0.093  -0.133
   0.00000   0.00000   0.00000   0.00000   0.00000   0.00000   0.00000   0.00000   0.00000
Generated with MDTraj, t= 59.0
 49
    1UNL     C1    1  -0.117  -0.280  -0.051
    1UNL     C2    2  -0.128  -0.127  -0.041
    1UNL     O1    3  -0.018  -0.085  -0.120
    1UNL     C3    4   0.102  -0.060  -0.044
    1UNL     O2    5   0.121   0.075   0.000
    1UNL     C4    6   0.234   0.087   0.097
    1UNL     C5    7   0.232   0.232   0.160
    1UNL     O3    8   0.336   0.248   0.252
    1UNL     C6    9   0.355   0.065   0.013
    1UNL     O4   10   0.357   0.160  -0.092
    1UNL     C7   11   0.355  -0.082  -0.047
    1UNL     O5   12   0.470  -0.123  -0.127
    1UNL     C8   13   0.227  -0.111  -0.122
    1UNL     O6   14   0.216  -0.252  -0.138
    1UNL     C9   15  -0.123  -0.084   0.111
    1UNL     O7   16  -0.053  -0.146   0.188
    1UNL    C10   17  -0.206   0.039   0.156
    1UNL    C11   18  -0.325   0.067   0.063
    1UNL    C12   19  -0.380  -0.071   0.005
    1UNL    C13   20  -0.266  -0.069  -0.095
    1UNL    C14   21  -0.278   0.089  -0.091
    1UNL    C15   22  -0.143   0.160  -0.095
    1UNL    C16   23  -0.396   0.149  -0.163
    1UNL     H1   24  -0.047  -0.318   0.020
    1UNL     H2   25  -0.209  -0.338  -0.035
    1UNL     H3   26  -0.085  -0.308  -0.148
    1UNL     H4   27   0.095  -0.136   0.039
    1UNL     H5   28   0.218   0.003   0.173
    1UNL     H6   29   0.263   0.303   0.084
    1UNL     H7   30   0.132   0.261   0.200
    1UNL     H8   31   0.343   0.160   0.299
    1UNL     H9   32   0.444   0.089   0.069
    1UNL    H10   33   0.274   0.163  -0.140
    1UNL    H11   34   0.358  -0.152   0.046
    1UNL    H12   35   0.488  -0.058  -0.195
    1UNL    H13   36   0.223  -0.063  -0.224
    1UNL    H14   37   0.303  -0.296  -0.160
    1UNL    H15   38  -0.235   0.025   0.262
    1UNL    H16   39  -0.133   0.125   0.152
    1UNL    H17   40  -0.404   0.137   0.105
    1UNL    H18   41  -0.361  -0.157   0.073
    1UNL    H19   42  -0.481  -0.068  -0.045
    1UNL    H20   43  -0.273  -0.118  -0.190
    1UNL    H21   44  -0.126   0.211  -0.197
    1UNL    H22   45  -0.065   0.088  -0.064
    1UNL    H23   46  -0.153   0.246  -0.022
    1UNL    H24   47  -0.438   0.229  -0.102
    1UNL    H25   48  -0.383   0.192  -0.260
    1UNL    H26   49  -0.456   0.068  -0.181
   0.00000   0.00000   0.00000   0.00000   0.00000   0.00000   0.00000   0.00000   0.00000
Generated with MDTraj, t= 60.0
 49
    1UNL     C1    1  -0.123  -0.270  -0.071
    1UNL     C2    2  -0.130  -0.120  -0.044
    1UNL     O1    3  -0.012  -0.072  -0.114
    1UNL     C3    4   0.103  -0.052  -0.035
    1UNL     O2    5   0.121   0.089   0.007
    1UNL     C4    6   0.236   0.102   0.093
    1UNL     C5    7   0.249   0.253   0.135
    1UNL     O3    8   0.344   0.266   0.239
    1UNL     C6    9   0.365   0.058   0.015
    1UNL     O4   10   0.369   0.130  -0.111
    1UNL     C7   11   0.356  -0.095  -0.028
    1UNL     O5   12   0.472  -0.127  -0.108
    1UNL     C8   13   0.226  -0.108  -0.111
    1UNL     O6   14   0.209  -0.240  -0.156
    1UNL     C9   15  -0.134  -0.099   0.109
    1UNL     O7   16  -0.066  -0.167   0.184
    1UNL    C10   17  -0.221   0.013   0.163
    1UNL    C11   18  -0.332   0.051   0.068
    1UNL    C12   19  -0.386  -0.081  -0.000
    1UNL    C13   20  -0.263  -0.070  -0.106
    1UNL    C14   21  -0.278   0.087  -0.072
    1UNL    C15   22  -0.152   0.175  -0.071
    1UNL    C16   23  -0.388   0.142  -0.163
    1UNL     H1   24  -0.016  -0.293  -0.064
    1UNL     H2   25  -0.178  -0.330   0.002
    1UNL     H3   26  -0.160  -0.289  -0.164
    1UNL     H4   27   0.088  -0.120   0.054
    1UNL     H5   28   0.235   0.037   0.189
    1UNL     H6   29   0.276   0.317   0.050
    1UNL     H7   30   0.161   0.291   0.192
    1UNL     H8   31   0.343   0.198   0.310
    1UNL     H9   32   0.460   0.072   0.065
    1UNL    H10   33   0.277   0.163  -0.129
    1UNL    H11   34   0.360  -0.160   0.066
    1UNL    H12   35   0.502  -0.051  -0.159
    1UNL    H13   36   0.239  -0.042  -0.200
    1UNL    H14   37   0.298  -0.269  -0.183
    1UNL    H15   38  -0.261  -0.023   0.262
    1UNL    H16   39  -0.154   0.102   0.181
    1UNL    H17   40  -0.414   0.114   0.106
    1UNL    H18   41  -0.381  -0.163   0.079
    1UNL    H19   42  -0.493  -0.067  -0.033
    1UNL    H20   43  -0.265  -0.102  -0.210
    1UNL    H21   44  -0.092   0.156  -0.167
    1UNL    H22   45  -0.081   0.140   0.007
    1UNL    H23   46  -0.156   0.290  -0.066
    1UNL    H24   47  -0.376   0.245  -0.179
    1UNL    H25   48  -0.377   0.112  -0.265
    1UNL    H26   49  -0.498   0.117  -0.149
   0.00000   0.00000   0.00000   0.00000   0.00000   0.00000   0.00000   0.00000   0.00000
Generated with MDTraj, t= 61.0
 49
    1UNL     C1    1  -0.108  -0.287  -0.082
    1UNL     C2    2  -0.125  -0.133  -0.052
    1UNL     O1    3  -0.021  -0.049  -0.107
    1UNL     C3    4   0.099  -0.041  -0.027
    1UNL     O2    5   0.118   0.101   0.017
    1UNL     C4    6   0.243   0.115   0.086
    1UNL     C5    7   0.258   0.259   0.138
    1UNL     O3    8   0.376   0.271   0.222
    1UNL     C6    9   0.373   0.061   0.011
    1UNL     O4   10   0.413   0.139  -0.097
    1UNL     C7   11   0.354  -0.091  -0.024
    1UNL     O5   12   0.450  -0.137  -0.115
    1UNL     C8   13   0.220  -0.104  -0.097
    1UNL     O6   14   0.186  -0.239  -0.128
    1UNL     C9   15  -0.139  -0.108   0.097
    1UNL     O7   16  -0.094  -0.184   0.176
    1UNL    C10   17  -0.208   0.011   0.156
    1UNL    C11   18  -0.329   0.044   0.069
    1UNL    C12   19  -0.375  -0.089  -0.002
    1UNL    C13   20  -0.261  -0.070  -0.106
    1UNL    C14   21  -0.288   0.085  -0.077
    1UNL    C15   22  -0.171   0.174  -0.087
    1UNL    C16   23  -0.403   0.140  -0.156
    1UNL     H1   24  -0.031  -0.318  -0.012
    1UNL     H2   25  -0.198  -0.340  -0.060
    1UNL     H3   26  -0.081  -0.301  -0.184
    1UNL     H4   27   0.073  -0.099   0.065
    1UNL     H5   28   0.226   0.044   0.177
    1UNL     H6   29   0.279   0.325   0.051
    1UNL     H7   30   0.158   0.277   0.186
    1UNL     H8   31   0.375   0.194   0.281
    1UNL     H9   32   0.463   0.070   0.076
    1UNL    H10   33   0.329   0.173  -0.140
    1UNL    H11   34   0.348  -0.149   0.072
    1UNL    H12   35   0.502  -0.059  -0.155
    1UNL    H13   36   0.227  -0.055  -0.196
    1UNL    H14   37   0.275  -0.275  -0.143
    1UNL    H15   38  -0.240  -0.015   0.263
    1UNL    H16   39  -0.128   0.090   0.161
    1UNL    H17   40  -0.405   0.101   0.121
    1UNL    H18   41  -0.355  -0.193   0.045
    1UNL    H19   42  -0.478  -0.095  -0.047
    1UNL    H20   43  -0.278  -0.102  -0.208
    1UNL    H21   44  -0.141   0.204  -0.192
    1UNL    H22   45  -0.074   0.137  -0.044
    1UNL    H23   46  -0.185   0.279  -0.039
    1UNL    H24   47  -0.459   0.205  -0.095
    1UNL    H25   48  -0.388   0.197  -0.242
    1UNL    H26   49  -0.472   0.052  -0.188
   0.00000   0.00000   0.00000   0.00000   0.00000   0.00000   0.00000   0.00000   0.00000
Generated with MDTraj, t= 62.0
 49
    1UNL     C1    1  -0.089  -0.250  -0.096
    1UNL     C2    2  -0.128  -0.110  -0.055
    1UNL     O1    3  -0.020  -0.037  -0.107
    1UNL     C3    4   0.097  -0.032  -0.022
    1UNL     O2    5   0.139   0.105   0.015
    1UNL     C4    6   0.260   0.110   0.093
    1UNL     C5    7   0.287   0.255   0.140
    1UNL     O3    8   0.405   0.269   0.225
    1UNL     C6    9   0.378   0.056   0.017
    1UNL     O4   10   0.390   0.135  -0.096
    1UNL     C7   11   0.347  -0.093  -0.027
    1UNL     O5   12   0.458  -0.147  -0.101
    1UNL     C8   13   0.213  -0.098  -0.100
    1UNL     O6   14   0.187  -0.239  -0.118
    1UNL     C9   15  -0.140  -0.104   0.101
    1UNL     O7   16  -0.085  -0.189   0.164
    1UNL    C10   17  -0.222   0.012   0.159
    1UNL    C11   18  -0.346   0.034   0.063
    1UNL    C12   19  -0.380  -0.107   0.004
    1UNL    C13   20  -0.271  -0.080  -0.105
    1UNL    C14   21  -0.303   0.077  -0.081
    1UNL    C15   22  -0.186   0.176  -0.096
    1UNL    C16   23  -0.431   0.125  -0.159
    1UNL     H1   24  -0.007  -0.275  -0.032
    1UNL     H2   25  -0.173  -0.311  -0.091
    1UNL     H3   26  -0.053  -0.249  -0.202
    1UNL     H4   27   0.081  -0.098   0.066
    1UNL     H5   28   0.232   0.047   0.186
    1UNL     H6   29   0.292   0.307   0.041
    1UNL     H7   30   0.201   0.285   0.203
    1UNL     H8   31   0.383   0.254   0.321
    1UNL     H9   32   0.474   0.074   0.073
    1UNL    H10   33   0.306   0.126  -0.142
    1UNL    H11   34   0.346  -0.154   0.063
    1UNL    H12   35   0.505  -0.083  -0.156
    1UNL    H13   36   0.217  -0.066  -0.204
    1UNL    H14   37   0.276  -0.285  -0.126
    1UNL    H15   38  -0.254  -0.016   0.267
    1UNL    H16   39  -0.152   0.099   0.166
    1UNL    H17   40  -0.420   0.089   0.112
    1UNL    H18   41  -0.359  -0.191   0.080
    1UNL    H19   42  -0.484  -0.114  -0.036
    1UNL    H20   43  -0.296  -0.107  -0.208
    1UNL    H21   44  -0.158   0.187  -0.206
    1UNL    H22   45  -0.096   0.148  -0.034
    1UNL    H23   46  -0.230   0.281  -0.071
    1UNL    H24   47  -0.446   0.231  -0.166
    1UNL    H25   48  -0.420   0.099  -0.263
    1UNL    H26   49  -0.521   0.075  -0.114
   0.00000   0.00000   0.00000   0.00000   0.00000   0.00000   0.00000   0.00000   0.00000
Generated with MDTraj, t= 63.0
 49
    1UNL     C1    1  -0.083  -0.263  -0.071
    1UNL     C2    2  -0.120  -0.112  -0.039
    1UNL     O1    3  -0.017  -0.023  -0.103
    1UNL     C3    4   0.104  -0.018  -0.036
    1UNL     O2    5   0.148   0.116   0.000
    1UNL     C4    6   0.257   0.110   0.093
    1UNL     C5    7   0.298   0.250   0.150
    1UNL     O3    8   0.408   0.247   0.232
    1UNL     C6    9   0.380   0.058   0.012
    1UNL     O4   10   0.383   0.129  -0.107
    1UNL     C7   11   0.344  -0.093  -0.022
    1UNL     O5   12   0.446  -0.152  -0.097
    1UNL     C8   13   0.219  -0.095  -0.104
    1UNL     O6   14   0.181  -0.233  -0.137
    1UNL     C9   15  -0.137  -0.094   0.107
    1UNL     O7   16  -0.073  -0.161   0.187
    1UNL    C10   17  -0.239   0.003   0.160
    1UNL    C11   18  -0.356   0.021   0.056
    1UNL    C12   19  -0.381  -0.113  -0.014
    1UNL    C13   20  -0.262  -0.075  -0.110
    1UNL    C14   21  -0.309   0.072  -0.084
    1UNL    C15   22  -0.195   0.183  -0.080
    1UNL    C16   23  -0.430   0.114  -0.179
    1UNL     H1   24   0.017  -0.288  -0.053
    1UNL     H2   25  -0.148  -0.329  -0.020
    1UNL     H3   26  -0.103  -0.287  -0.179
    1UNL     H4   27   0.081  -0.056   0.066
    1UNL     H5   28   0.225   0.038   0.177
    1UNL     H6   29   0.339   0.318   0.070
    1UNL     H7   30   0.218   0.298   0.205
    1UNL     H8   31   0.395   0.213   0.326
    1UNL     H9   32   0.482   0.067   0.061
    1UNL    H10   33   0.290   0.134  -0.142
    1UNL    H11   34   0.337  -0.142   0.073
    1UNL    H12   35   0.488  -0.084  -0.147
    1UNL    H13   36   0.233  -0.048  -0.201
    1UNL    H14   37   0.260  -0.277  -0.173
    1UNL    H15   38  -0.278  -0.040   0.260
    1UNL    H16   39  -0.187   0.099   0.184
    1UNL    H17   40  -0.447   0.050   0.094
    1UNL    H18   41  -0.366  -0.203   0.053
    1UNL    H19   42  -0.481  -0.111  -0.062
    1UNL    H20   43  -0.276  -0.104  -0.215
    1UNL    H21   44  -0.179   0.238  -0.180
    1UNL    H22   45  -0.107   0.125  -0.037
    1UNL    H23   46  -0.228   0.262  -0.007
    1UNL    H24   47  -0.486   0.193  -0.128
    1UNL    H25   48  -0.382   0.168  -0.263
    1UNL    H26   49  -0.494   0.033  -0.200
   0.00000   0.00000   0.00000   0.00000   0.00000   0.00000   0.00000   0.00000   0.00000
Generated with MDTraj, t= 64.0
 49
    1UNL     C1    1  -0.090  -0.261  -0.058
    1UNL     C2    2  -0.124  -0.117  -0.037
    1UNL     O1    3  -0.023  -0.026  -0.086
    1UNL     C3    4   0.103  -0.028  -0.020
    1UNL     O2    5   0.151   0.105   0.013
    1UNL     C4    6   0.266   0.109   0.093
    1UNL     C5    7   0.286   0.244   0.150
    1UNL     O3    8   0.393   0.252   0.241
    1UNL     C6    9   0.388   0.051   0.018
    1UNL     O4   10   0.429   0.125  -0.096
    1UNL     C7   11   0.350  -0.096  -0.037
    1UNL     O5   12   0.440  -0.144  -0.137
    1UNL     C8   13   0.213  -0.089  -0.112
    1UNL     O6   14   0.179  -0.225  -0.153
    1UNL     C9   15  -0.139  -0.084   0.118
    1UNL     O7   16  -0.063  -0.122   0.205
    1UNL    C10   17  -0.260  -0.002   0.166
    1UNL    C11   18  -0.365   0.017   0.051
    1UNL    C12   19  -0.385  -0.118  -0.023
    1UNL    C13   20  -0.265  -0.082  -0.107
    1UNL    C14   21  -0.309   0.068  -0.091
    1UNL    C15   22  -0.192   0.174  -0.084
    1UNL    C16   23  -0.427   0.110  -0.186
    1UNL     H1   24  -0.006  -0.293  -0.003
    1UNL     H2   25  -0.179  -0.322  -0.038
    1UNL     H3   26  -0.060  -0.289  -0.159
    1UNL     H4   27   0.102  -0.082   0.076
    1UNL     H5   28   0.242   0.035   0.175
    1UNL     H6   29   0.306   0.312   0.063
    1UNL     H7   30   0.196   0.283   0.196
    1UNL     H8   31   0.360   0.194   0.312
    1UNL     H9   32   0.478   0.047   0.087
    1UNL    H10   33   0.350   0.145  -0.156
    1UNL    H11   34   0.342  -0.168   0.040
    1UNL    H12   35   0.497  -0.069  -0.173
    1UNL    H13   36   0.228  -0.035  -0.205
    1UNL    H14   37   0.245  -0.247  -0.219
    1UNL    H15   38  -0.303  -0.050   0.261
    1UNL    H16   39  -0.219   0.096   0.206
    1UNL    H17   40  -0.444   0.074   0.077
    1UNL    H18   41  -0.376  -0.216   0.024
    1UNL    H19   42  -0.472  -0.116  -0.089
    1UNL    H20   43  -0.273  -0.116  -0.211
    1UNL    H21   44  -0.163   0.202  -0.193
    1UNL    H22   45  -0.100   0.143  -0.022
    1UNL    H23   46  -0.228   0.277  -0.052
    1UNL    H24   47  -0.467   0.210  -0.157
    1UNL    H25   48  -0.391   0.130  -0.290
    1UNL    H26   49  -0.505   0.045  -0.181
   0.00000   0.00000   0.00000   0.00000   0.00000   0.00000   0.00000   0.00000   0.00000
Generated with MDTraj, t= 65.0
 49
    1UNL     C1    1  -0.085  -0.254  -0.044
    1UNL     C2    2  -0.123  -0.110  -0.023
    1UNL     O1    3  -0.021  -0.031  -0.097
    1UNL     C3    4   0.099  -0.032  -0.025
    1UNL     O2    5   0.139   0.096   0.020
    1UNL     C4    6   0.260   0.093   0.095
    1UNL     C5    7   0.293   0.233   0.144
    1UNL     O3    8   0.398   0.230   0.247
    1UNL     C6    9   0.377   0.042   0.008
    1UNL     O4   10   0.415   0.136  -0.084
    1UNL     C7   11   0.354  -0.093  -0.053
    1UNL     O5   12   0.459  -0.126  -0.140
    1UNL     C8   13   0.214  -0.093  -0.114
    1UNL     O6   14   0.187  -0.223  -0.160
    1UNL     C9   15  -0.143  -0.069   0.127
    1UNL     O7   16  -0.069  -0.118   0.204
    1UNL    C10   17  -0.258   0.030   0.158
    1UNL    C11   18  -0.368   0.020   0.045
    1UNL    C12   19  -0.384  -0.126  -0.008
    1UNL    C13   20  -0.263  -0.087  -0.101
    1UNL    C14   21  -0.304   0.065  -0.094
    1UNL    C15   22  -0.204   0.179  -0.085
    1UNL    C16   23  -0.419   0.097  -0.193
    1UNL     H1   24   0.013  -0.277  -0.003
    1UNL     H2   25  -0.168  -0.324  -0.019
    1UNL     H3   26  -0.067  -0.270  -0.145
    1UNL     H4   27   0.097  -0.091   0.068
    1UNL     H5   28   0.247   0.031   0.185
    1UNL     H6   29   0.331   0.303   0.067
    1UNL     H7   30   0.210   0.289   0.183
    1UNL     H8   31   0.369   0.182   0.326
    1UNL     H9   32   0.466   0.039   0.077
    1UNL    H10   33   0.339   0.160  -0.142
    1UNL    H11   34   0.343  -0.169   0.021
    1UNL    H12   35   0.509  -0.049  -0.169
    1UNL    H13   36   0.208  -0.034  -0.205
    1UNL    H14   37   0.252  -0.245  -0.231
    1UNL    H15   38  -0.294   0.000   0.261
    1UNL    H16   39  -0.216   0.135   0.176
    1UNL    H17   40  -0.461   0.060   0.057
    1UNL    H18   41  -0.383  -0.203   0.066
    1UNL    H19   42  -0.475  -0.144  -0.066
    1UNL    H20   43  -0.269  -0.132  -0.200
    1UNL    H21   44  -0.167   0.208  -0.190
    1UNL    H22   45  -0.108   0.146  -0.031
    1UNL    H23   46  -0.224   0.285  -0.046
    1UNL    H24   47  -0.453   0.200  -0.207
    1UNL    H25   48  -0.392   0.078  -0.297
    1UNL    H26   49  -0.511   0.043  -0.171
   0.00000   0.00000   0.00000   0.00000   0.00000   0.00000   0.00000   0.00000   0.00000
Generated with MDTraj, t= 66.0
 49
    1UNL     C1    1  -0.079  -0.268  -0.034
    1UNL     C2    2  -0.123  -0.116  -0.043
    1UNL     O1    3  -0.026  -0.025  -0.099
    1UNL     C3    4   0.103  -0.024  -0.034
    1UNL     O2    5   0.136   0.101   0.026
    1UNL     C4    6   0.259   0.092   0.106
    1UNL     C5    7   0.290   0.224   0.185
    1UNL     O3    8   0.407   0.221   0.269
    1UNL     C6    9   0.375   0.056   0.006
    1UNL     O4   10   0.379   0.151  -0.104
    1UNL     C7   11   0.351  -0.096  -0.049
    1UNL     O5   12   0.457  -0.134  -0.138
    1UNL     C8   13   0.215  -0.091  -0.125
    1UNL     O6   14   0.175  -0.220  -0.148
    1UNL     C9   15  -0.135  -0.067   0.106
    1UNL     O7   16  -0.080  -0.126   0.196
    1UNL    C10   17  -0.225   0.050   0.149
    1UNL    C11   18  -0.349   0.036   0.060
    1UNL    C12   19  -0.371  -0.112   0.012
    1UNL    C13   20  -0.266  -0.088  -0.103
    1UNL    C14   21  -0.310   0.057  -0.098
    1UNL    C15   22  -0.193   0.159  -0.127
    1UNL    C16   23  -0.430   0.085  -0.192
    1UNL     H1   24   0.026  -0.272   0.000
    1UNL     H2   25  -0.159  -0.326   0.014
    1UNL     H3   26  -0.072  -0.305  -0.131
    1UNL     H4   27   0.093  -0.083   0.057
    1UNL     H5   28   0.241   0.010   0.174
    1UNL     H6   29   0.305   0.316   0.125
    1UNL     H7   30   0.209   0.257   0.247
    1UNL     H8   31   0.431   0.127   0.291
    1UNL     H9   32   0.475   0.056   0.052
    1UNL    H10   33   0.289   0.177  -0.122
    1UNL    H11   34   0.364  -0.168   0.029
    1UNL    H12   35   0.501  -0.058  -0.181
    1UNL    H13   36   0.222  -0.029  -0.215
    1UNL    H14   37   0.228  -0.267  -0.219
    1UNL    H15   38  -0.251   0.040   0.259
    1UNL    H16   39  -0.166   0.148   0.138
    1UNL    H17   40  -0.440   0.085   0.078
    1UNL    H18   41  -0.334  -0.187   0.074
    1UNL    H19   42  -0.471  -0.128  -0.026
    1UNL    H20   43  -0.282  -0.134  -0.201
    1UNL    H21   44  -0.152   0.157  -0.235
    1UNL    H22   45  -0.107   0.163  -0.053
    1UNL    H23   46  -0.229   0.269  -0.128
    1UNL    H24   47  -0.503   0.149  -0.149
    1UNL    H25   48  -0.396   0.143  -0.275
    1UNL    H26   49  -0.493  -0.009  -0.223
   0.00000   0.00000   0.00000   0.00000   0.00000   0.00000   0.00000   0.00000   0.00000
Generated with MDTraj, t= 67.0
 49
    1UNL     C1    1  -0.095  -0.268  -0.037
    1UNL     C2    2  -0.123  -0.114  -0.034
    1UNL     O1    3  -0.017  -0.048  -0.110
    1UNL     C3    4   0.105  -0.038  -0.027
    1UNL     O2    5   0.135   0.092   0.036
    1UNL     C4    6   0.261   0.093   0.108
    1UNL     C5    7   0.287   0.222   0.189
    1UNL     O3    8   0.396   0.215   0.268
    1UNL     C6    9   0.369   0.056   0.006
    1UNL     O4   10   0.371   0.150  -0.097
    1UNL     C7   11   0.355  -0.088  -0.056
    1UNL     O5   12   0.456  -0.107  -0.147
    1UNL     C8   13   0.218  -0.094  -0.120
    1UNL     O6   14   0.200  -0.227  -0.155
    1UNL     C9   15  -0.131  -0.074   0.113
    1UNL     O7   16  -0.083  -0.145   0.201
    1UNL    C10   17  -0.210   0.060   0.134
    1UNL    C11   18  -0.338   0.056   0.050
    1UNL    C12   19  -0.378  -0.093   0.027
    1UNL    C13   20  -0.272  -0.091  -0.091
    1UNL    C14   21  -0.305   0.066  -0.105
    1UNL    C15   22  -0.200   0.162  -0.147
    1UNL    C16   23  -0.431   0.084  -0.185
    1UNL     H1   24  -0.019  -0.290   0.040
    1UNL     H2   25  -0.187  -0.320  -0.037
    1UNL     H3   26  -0.044  -0.288  -0.130
    1UNL     H4   27   0.097  -0.115   0.049
    1UNL     H5   28   0.245   0.012   0.174
    1UNL     H6   29   0.291   0.306   0.117
    1UNL     H7   30   0.205   0.257   0.250
    1UNL     H8   31   0.389   0.133   0.326
    1UNL     H9   32   0.463   0.062   0.060
    1UNL    H10   33   0.275   0.170  -0.122
    1UNL    H11   34   0.353  -0.160   0.026
    1UNL    H12   35   0.484  -0.015  -0.183
    1UNL    H13   36   0.208  -0.038  -0.214
    1UNL    H14   37   0.275  -0.261  -0.210
    1UNL    H15   38  -0.227   0.072   0.245
    1UNL    H16   39  -0.147   0.147   0.097
    1UNL    H17   40  -0.419   0.121   0.078
    1UNL    H18   41  -0.357  -0.163   0.103
    1UNL    H19   42  -0.481  -0.096  -0.001
    1UNL    H20   43  -0.300  -0.161  -0.168
    1UNL    H21   44  -0.190   0.153  -0.261
    1UNL    H22   45  -0.110   0.144  -0.083
    1UNL    H23   46  -0.244   0.270  -0.138
    1UNL    H24   47  -0.435   0.169  -0.251
    1UNL    H25   48  -0.436  -0.004  -0.246
    1UNL    H26   49  -0.514   0.092  -0.105
   0.00000   0.00000   0.00000   0.00000   0.00000   0.00000   0.00000   0.00000   0.00000
Generated with MDTraj, t= 68.0
 49
    1UNL     C1    1  -0.097  -0.276  -0.023
    1UNL     C2    2  -0.128  -0.127  -0.023
    1UNL     O1    3  -0.023  -0.060  -0.105
    1UNL     C3    4   0.106  -0.055  -0.039
    1UNL     O2    5   0.124   0.074   0.017
    1UNL     C4    6   0.238   0.078   0.106
    1UNL     C5    7   0.248   0.215   0.179
    1UNL     O3    8   0.367   0.219   0.256
    1UNL     C6    9   0.362   0.058   0.014
    1UNL     O4   10   0.386   0.159  -0.083
    1UNL     C7   11   0.356  -0.077  -0.064
    1UNL     O5   12   0.451  -0.089  -0.167
    1UNL     C8   13   0.219  -0.097  -0.132
    1UNL     O6   14   0.210  -0.235  -0.163
    1UNL     C9   15  -0.128  -0.075   0.129
    1UNL     O7   16  -0.075  -0.133   0.220
    1UNL    C10   17  -0.205   0.060   0.151
    1UNL    C11   18  -0.331   0.070   0.047
    1UNL    C12   19  -0.376  -0.080   0.019
    1UNL    C13   20  -0.264  -0.088  -0.094
    1UNL    C14   21  -0.292   0.065  -0.100
    1UNL    C15   22  -0.169   0.154  -0.129
    1UNL    C16   23  -0.413   0.106  -0.192
    1UNL     H1   24   0.010  -0.292  -0.010
    1UNL     H2   25  -0.157  -0.319   0.048
    1UNL     H3   26  -0.122  -0.325  -0.121
    1UNL     H4   27   0.106  -0.128   0.039
    1UNL     H5   28   0.230  -0.001   0.174
    1UNL     H6   29   0.246   0.304   0.113
    1UNL     H7   30   0.152   0.226   0.231
    1UNL     H8   31   0.362   0.165   0.338
    1UNL     H9   32   0.452   0.055   0.070
    1UNL    H10   33   0.308   0.165  -0.137
    1UNL    H11   34   0.364  -0.166   0.004
    1UNL    H12   35   0.499  -0.009  -0.187
    1UNL    H13   36   0.224  -0.039  -0.227
    1UNL    H14   37   0.289  -0.242  -0.218
    1UNL    H15   38  -0.245   0.052   0.258
    1UNL    H16   39  -0.133   0.145   0.150
    1UNL    H17   40  -0.411   0.140   0.073
    1UNL    H18   41  -0.360  -0.137   0.109
    1UNL    H19   42  -0.477  -0.087  -0.015
    1UNL    H20   43  -0.292  -0.140  -0.183
    1UNL    H21   44  -0.150   0.131  -0.239
    1UNL    H22   45  -0.082   0.121  -0.067
    1UNL    H23   46  -0.194   0.267  -0.129
    1UNL    H24   47  -0.376   0.172  -0.274
    1UNL    H25   48  -0.458   0.019  -0.239
    1UNL    H26   49  -0.481   0.160  -0.125
   0.00000   0.00000   0.00000   0.00000   0.00000   0.00000   0.00000   0.00000   0.00000
Generated with MDTraj, t= 69.0
 49
    1UNL     C1    1  -0.134  -0.293  -0.007
    1UNL     C2    2  -0.132  -0.135  -0.019
    1UNL     O1    3  -0.019  -0.099  -0.101
    1UNL     C3    4   0.105  -0.066  -0.039
    1UNL     O2    5   0.114   0.067   0.017
    1UNL     C4    6   0.231   0.075   0.099
    1UNL     C5    7   0.230   0.209   0.172
    1UNL     O3    8   0.335   0.230   0.269
    1UNL     C6    9   0.356   0.064   0.008
    1UNL     O4   10   0.360   0.166  -0.098
    1UNL     C7   11   0.355  -0.076  -0.062
    1UNL     O5   12   0.463  -0.088  -0.154
    1UNL     C8   13   0.219  -0.094  -0.135
    1UNL     O6   14   0.211  -0.223  -0.192
    1UNL     C9   15  -0.118  -0.077   0.129
    1UNL     O7   16  -0.037  -0.115   0.209
    1UNL    C10   17  -0.204   0.047   0.158
    1UNL    C11   18  -0.316   0.069   0.054
    1UNL    C12   19  -0.379  -0.068   0.021
    1UNL    C13   20  -0.266  -0.076  -0.093
    1UNL    C14   21  -0.276   0.079  -0.099
    1UNL    C15   22  -0.143   0.143  -0.123
    1UNL    C16   23  -0.385   0.126  -0.188
    1UNL     H1   24  -0.060  -0.333   0.058
    1UNL     H2   25  -0.227  -0.336   0.017
    1UNL     H3   26  -0.103  -0.346  -0.101
    1UNL     H4   27   0.104  -0.130   0.048
    1UNL     H5   28   0.238  -0.003   0.167
    1UNL     H6   29   0.237   0.281   0.087
    1UNL     H7   30   0.134   0.240   0.214
    1UNL     H8   31   0.323   0.184   0.354
    1UNL     H9   32   0.445   0.077   0.064
    1UNL    H10   33   0.280   0.155  -0.151
    1UNL    H11   34   0.361  -0.160   0.014
    1UNL    H12   35   0.513  -0.002  -0.176
    1UNL    H13   36   0.203  -0.016  -0.214
    1UNL    H14   37   0.294  -0.250  -0.238
    1UNL    H15   38  -0.253   0.041   0.262
    1UNL    H16   39  -0.132   0.131   0.167
    1UNL    H17   40  -0.380   0.155   0.084
    1UNL    H18   41  -0.363  -0.158   0.083
    1UNL    H19   42  -0.480  -0.063  -0.014
    1UNL    H20   43  -0.294  -0.120  -0.185
    1UNL    H21   44  -0.095   0.144  -0.229
    1UNL    H22   45  -0.063   0.087  -0.063
    1UNL    H23   46  -0.143   0.249  -0.089
    1UNL    H24   47  -0.412   0.044  -0.265
    1UNL    H25   48  -0.479   0.153  -0.137
    1UNL    H26   49  -0.355   0.213  -0.235
   0.00000   0.00000   0.00000   0.00000   0.00000   0.00000   0.00000   0.00000   0.00000
Generated with MDTraj, t= 70.0
 49
    1UNL     C1    1  -0.137  -0.281  -0.017
    1UNL     C2    2  -0.129  -0.131  -0.022
    1UNL     O1    3  -0.018  -0.109  -0.119
    1UNL     C3    4   0.108  -0.082  -0.048
    1UNL     O2    5   0.112   0.048   0.013
    1UNL     C4    6   0.226   0.072   0.096
    1UNL     C5    7   0.208   0.201   0.174
    1UNL     O3    8   0.312   0.229   0.263
    1UNL     C6    9   0.348   0.065   0.007
    1UNL     O4   10   0.326   0.163  -0.092
    1UNL     C7   11   0.361  -0.069  -0.068
    1UNL     O5   12   0.478  -0.077  -0.148
    1UNL     C8   13   0.230  -0.103  -0.140
    1UNL     O6   14   0.232  -0.233  -0.191
    1UNL     C9   15  -0.110  -0.069   0.122
    1UNL     O7   16  -0.058  -0.134   0.213
    1UNL    C10   17  -0.177   0.069   0.150
    1UNL    C11   18  -0.311   0.083   0.065
    1UNL    C12   19  -0.372  -0.058   0.038
    1UNL    C13   20  -0.267  -0.080  -0.075
    1UNL    C14   21  -0.263   0.080  -0.087
    1UNL    C15   22  -0.139   0.156  -0.125
    1UNL    C16   23  -0.374   0.128  -0.179
    1UNL     H1   24  -0.044  -0.327  -0.003
    1UNL     H2   25  -0.200  -0.317   0.066
    1UNL     H3   26  -0.174  -0.337  -0.104
    1UNL     H4   27   0.115  -0.159   0.028
    1UNL     H5   28   0.230  -0.009   0.163
    1UNL     H6   29   0.203   0.290   0.107
    1UNL     H7   30   0.104   0.205   0.211
    1UNL     H8   31   0.300   0.174   0.344
    1UNL     H9   32   0.435   0.099   0.061
    1UNL    H10   33   0.231   0.152  -0.126
    1UNL    H11   34   0.381  -0.141   0.018
    1UNL    H12   35   0.522   0.012  -0.164
    1UNL    H13   36   0.228  -0.030  -0.225
    1UNL    H14   37   0.320  -0.263  -0.232
    1UNL    H15   38  -0.182   0.084   0.262
    1UNL    H16   39  -0.111   0.149   0.113
    1UNL    H17   40  -0.381   0.169   0.088
    1UNL    H18   41  -0.359  -0.120   0.133
    1UNL    H19   42  -0.477  -0.057   0.006
    1UNL    H20   43  -0.303  -0.128  -0.160
    1UNL    H21   44  -0.131   0.156  -0.240
    1UNL    H22   45  -0.037   0.117  -0.105
    1UNL    H23   46  -0.143   0.266  -0.100
    1UNL    H24   47  -0.475   0.120  -0.127
    1UNL    H25   48  -0.362   0.232  -0.214
    1UNL    H26   49  -0.386   0.074  -0.267
   0.00000   0.00000   0.00000   0.00000   0.00000   0.00000   0.00000   0.00000   0.00000
Generated with MDTraj, t= 71.0
 49
    1UNL     C1    1  -0.143  -0.307  -0.017
    1UNL     C2    2  -0.133  -0.147  -0.031
    1UNL     O1    3  -0.014  -0.102  -0.114
    1UNL     C3    4   0.099  -0.074  -0.035
    1UNL     O2    5   0.100   0.057   0.016
    1UNL     C4    6   0.214   0.079   0.101
    1UNL     C5    7   0.215   0.204   0.185
    1UNL     O3    8   0.326   0.215   0.266
    1UNL     C6    9   0.344   0.072   0.014
    1UNL     O4   10   0.338   0.183  -0.085
    1UNL     C7   11   0.358  -0.062  -0.064
    1UNL     O5   12   0.452  -0.058  -0.167
    1UNL     C8   13   0.220  -0.105  -0.123
    1UNL     O6   14   0.230  -0.241  -0.158
    1UNL     C9   15  -0.109  -0.079   0.107
    1UNL     O7   16  -0.067  -0.146   0.197
    1UNL    C10   17  -0.141   0.067   0.129
    1UNL    C11   18  -0.276   0.089   0.065
    1UNL    C12   19  -0.357  -0.045   0.046
    1UNL    C13   20  -0.272  -0.078  -0.079
    1UNL    C14   21  -0.266   0.079  -0.095
    1UNL    C15   22  -0.141   0.132  -0.172
    1UNL    C16   23  -0.388   0.140  -0.163
    1UNL     H1   24  -0.063  -0.355   0.034
    1UNL     H2   25  -0.239  -0.338   0.031
    1UNL     H3   26  -0.143  -0.358  -0.110
    1UNL     H4   27   0.101  -0.149   0.044
    1UNL     H5   28   0.220  -0.008   0.162
    1UNL     H6   29   0.197   0.299   0.133
    1UNL     H7   30   0.126   0.205   0.249
    1UNL     H8   31   0.318   0.148   0.340
    1UNL     H9   32   0.435   0.084   0.073
    1UNL    H10   33   0.248   0.189  -0.120
    1UNL    H11   34   0.381  -0.154  -0.000
    1UNL    H12   35   0.481   0.031  -0.182
    1UNL    H13   36   0.210  -0.058  -0.224
    1UNL    H14   37   0.320  -0.266  -0.188
    1UNL    H15   38  -0.148   0.084   0.237
    1UNL    H16   39  -0.063   0.132   0.086
    1UNL    H17   40  -0.340   0.168   0.113
    1UNL    H18   41  -0.349  -0.123   0.129
    1UNL    H19   42  -0.465  -0.030   0.020
    1UNL    H20   43  -0.322  -0.122  -0.157
    1UNL    H21   44  -0.118   0.077  -0.267
    1UNL    H22   45  -0.055   0.105  -0.114
    1UNL    H23   46  -0.144   0.244  -0.198
    1UNL    H24   47  -0.472   0.125  -0.095
    1UNL    H25   48  -0.372   0.247  -0.186
    1UNL    H26   49  -0.416   0.089  -0.256
   0.00000   0.00000   0.00000   0.00000   0.00000   0.00000   0.00000   0.00000   0.00000
Generated with MDTraj, t= 72.0
 49
    1UNL     C1    1  -0.126  -0.287  -0.012
    1UNL     C2    2  -0.132  -0.133  -0.022
    1UNL     O1    3  -0.019  -0.099  -0.103
    1UNL     C3    4   0.104  -0.075  -0.035
    1UNL     O2    5   0.110   0.056   0.021
    1UNL     C4    6   0.228   0.076   0.095
    1UNL     C5    7   0.219   0.197   0.185
    1UNL     O3    8   0.326   0.212   0.275
    1UNL     C6    9   0.354   0.070   0.002
    1UNL     O4   10   0.338   0.169  -0.094
    1UNL     C7   11   0.368  -0.064  -0.071
    1UNL     O5   12   0.451  -0.059  -0.177
    1UNL     C8   13   0.224  -0.106  -0.129
    1UNL     O6   14   0.232  -0.238  -0.171
    1UNL     C9   15  -0.121  -0.077   0.126
    1UNL     O7   16  -0.080  -0.149   0.211
    1UNL    C10   17  -0.166   0.070   0.141
    1UNL    C11   18  -0.293   0.089   0.057
    1UNL    C12   19  -0.367  -0.047   0.046
    1UNL    C13   20  -0.274  -0.081  -0.083
    1UNL    C14   21  -0.267   0.079  -0.104
    1UNL    C15   22  -0.129   0.157  -0.141
    1UNL    C16   23  -0.399   0.111  -0.193
    1UNL     H1   24  -0.026  -0.311   0.029
    1UNL     H2   25  -0.208  -0.320   0.053
    1UNL     H3   26  -0.127  -0.335  -0.106
    1UNL     H4   27   0.104  -0.139   0.054
    1UNL     H5   28   0.236  -0.013   0.158
    1UNL     H6   29   0.228   0.285   0.124
    1UNL     H7   30   0.126   0.223   0.237
    1UNL     H8   31   0.336   0.141   0.343
    1UNL     H9   32   0.441   0.087   0.070
    1UNL    H10   33   0.242   0.167  -0.116
    1UNL    H11   34   0.397  -0.145   0.001
    1UNL    H12   35   0.465   0.036  -0.212
    1UNL    H13   36   0.220  -0.036  -0.215
    1UNL    H14   37   0.321  -0.258  -0.198
    1UNL    H15   38  -0.188   0.087   0.245
    1UNL    H16   39  -0.082   0.136   0.110
    1UNL    H17   40  -0.356   0.179   0.078
    1UNL    H18   41  -0.350  -0.124   0.128
    1UNL    H19   42  -0.477  -0.049   0.018
    1UNL    H20   43  -0.306  -0.126  -0.171
    1UNL    H21   44  -0.098   0.134  -0.243
    1UNL    H22   45  -0.055   0.111  -0.072
    1UNL    H23   46  -0.142   0.268  -0.128
    1UNL    H24   47  -0.460   0.028  -0.184
    1UNL    H25   48  -0.446   0.207  -0.166
    1UNL    H26   49  -0.371   0.116  -0.307
   0.00000   0.00000   0.00000   0.00000   0.00000   0.00000   0.00000   0.00000   0.00000
Generated with MDTraj, t= 73.0
 49
    1UNL     C1    1  -0.124  -0.284   0.005
    1UNL     C2    2  -0.128  -0.128  -0.013
    1UNL     O1    3  -0.006  -0.091  -0.100
    1UNL     C3    4   0.112  -0.073  -0.030
    1UNL     O2    5   0.124   0.054   0.029
    1UNL     C4    6   0.248   0.073   0.102
    1UNL     C5    7   0.246   0.199   0.176
    1UNL     O3    8   0.346   0.212   0.278
    1UNL     C6    9   0.361   0.068   0.004
    1UNL     O4   10   0.327   0.166  -0.096
    1UNL     C7   11   0.367  -0.068  -0.068
    1UNL     O5   12   0.467  -0.078  -0.165
    1UNL     C8   13   0.223  -0.094  -0.134
    1UNL     O6   14   0.214  -0.218  -0.199
    1UNL     C9   15  -0.124  -0.059   0.127
    1UNL     O7   16  -0.053  -0.115   0.207
    1UNL    C10   17  -0.218   0.055   0.155
    1UNL    C11   18  -0.331   0.074   0.045
    1UNL    C12   19  -0.397  -0.066   0.007
    1UNL    C13   20  -0.269  -0.092  -0.082
    1UNL    C14   21  -0.277   0.067  -0.108
    1UNL    C15   22  -0.143   0.139  -0.118
    1UNL    C16   23  -0.384   0.127  -0.197
    1UNL     H1   24  -0.025  -0.305   0.054
    1UNL     H2   25  -0.213  -0.305   0.059
    1UNL     H3   26  -0.116  -0.330  -0.091
    1UNL     H4   27   0.111  -0.150   0.050
    1UNL     H5   28   0.232  -0.016   0.169
    1UNL     H6   29   0.242   0.288   0.116
    1UNL     H7   30   0.144   0.200   0.219
    1UNL     H8   31   0.345   0.137   0.340
    1UNL     H9   32   0.462   0.094   0.049
    1UNL    H10   33   0.228   0.165  -0.116
    1UNL    H11   34   0.385  -0.149   0.004
    1UNL    H12   35   0.470   0.006  -0.219
    1UNL    H13   36   0.201  -0.019  -0.211
    1UNL    H14   37   0.293  -0.257  -0.243
    1UNL    H15   38  -0.253   0.035   0.254
    1UNL    H16   39  -0.161   0.149   0.164
    1UNL    H17   40  -0.397   0.163   0.057
    1UNL    H18   41  -0.409  -0.133   0.096
    1UNL    H19   42  -0.494  -0.057  -0.055
    1UNL    H20   43  -0.289  -0.153  -0.163
    1UNL    H21   44  -0.094   0.111  -0.212
    1UNL    H22   45  -0.073   0.102  -0.037
    1UNL    H23   46  -0.152   0.248  -0.113
    1UNL    H24   47  -0.477   0.095  -0.157
    1UNL    H25   48  -0.382   0.237  -0.202
    1UNL    H26   49  -0.382   0.085  -0.302
   0.00000   0.00000   0.00000   0.00000   0.00000   0.00000   0.00000   0.00000   0.00000
Generated with MDTraj, t= 74.0
 49
    1UNL     C1    1  -0.115  -0.290   0.002
    1UNL     C2    2  -0.125  -0.128  -0.017
    1UNL     O1    3  -0.018  -0.080  -0.102
    1UNL     C3    4   0.102  -0.062  -0.032
    1UNL     O2    5   0.121   0.067   0.023
    1UNL     C4    6   0.238   0.078   0.102
    1UNL     C5    7   0.240   0.199   0.189
    1UNL     O3    8   0.363   0.196   0.248
    1UNL     C6    9   0.368   0.063   0.011
    1UNL     O4   10   0.368   0.173  -0.073
    1UNL     C7   11   0.360  -0.067  -0.069
    1UNL     O5   12   0.457  -0.084  -0.167
    1UNL     C8   13   0.215  -0.091  -0.134
    1UNL     O6   14   0.195  -0.225  -0.187
    1UNL     C9   15  -0.127  -0.063   0.122
    1UNL     O7   16  -0.054  -0.095   0.215
    1UNL    C10   17  -0.219   0.054   0.146
    1UNL    C11   18  -0.336   0.060   0.047
    1UNL    C12   19  -0.378  -0.080   0.008
    1UNL    C13   20  -0.258  -0.092  -0.093
    1UNL    C14   21  -0.282   0.068  -0.099
    1UNL    C15   22  -0.155   0.162  -0.107
    1UNL    C16   23  -0.390   0.102  -0.210
    1UNL     H1   24  -0.021  -0.295   0.062
    1UNL     H2   25  -0.200  -0.324   0.052
    1UNL     H3   26  -0.092  -0.349  -0.087
    1UNL     H4   27   0.108  -0.141   0.048
    1UNL     H5   28   0.229  -0.011   0.177
    1UNL     H6   29   0.228   0.287   0.127
    1UNL     H7   30   0.161   0.210   0.267
    1UNL     H8   31   0.383   0.116   0.301
    1UNL     H9   32   0.462   0.055   0.076
    1UNL    H10   33   0.279   0.170  -0.112
    1UNL    H11   34   0.382  -0.145   0.003
    1UNL    H12   35   0.484  -0.000  -0.207
    1UNL    H13   36   0.215  -0.022  -0.218
    1UNL    H14   37   0.272  -0.256  -0.245
    1UNL    H15   38  -0.262   0.034   0.242
    1UNL    H16   39  -0.165   0.145   0.161
    1UNL    H17   40  -0.417   0.131   0.074
    1UNL    H18   41  -0.380  -0.156   0.089
    1UNL    H19   42  -0.484  -0.077  -0.035
    1UNL    H20   43  -0.272  -0.143  -0.185
    1UNL    H21   44  -0.133   0.202  -0.208
    1UNL    H22   45  -0.060   0.120  -0.075
    1UNL    H23   46  -0.167   0.251  -0.046
    1UNL    H24   47  -0.480   0.035  -0.224
    1UNL    H25   48  -0.430   0.204  -0.189
    1UNL    H26   49  -0.349   0.119  -0.308
   0.00000   0.00000   0.00000   0.00000   0.00000   0.00000   0.00000   0.00000   0.00000
Generated with MDTraj, t= 75.0
 49
    1UNL     C1    1  -0.109  -0.270  -0.044
    1UNL     C2    2  -0.131  -0.117  -0.028
    1UNL     O1    3  -0.018  -0.068  -0.095
    1UNL     C3    4   0.106  -0.059  -0.026
    1UNL     O2    5   0.129   0.072   0.031
    1UNL     C4    6   0.252   0.075   0.106
    1UNL     C5    7   0.268   0.201   0.178
    1UNL     O3    8   0.366   0.219   0.277
    1UNL     C6    9   0.377   0.054   0.013
    1UNL     O4   10   0.376   0.164  -0.079
    1UNL     C7   11   0.373  -0.082  -0.058
    1UNL     O5   12   0.464  -0.096  -0.164
    1UNL     C8   13   0.224  -0.094  -0.123
    1UNL     O6   14   0.214  -0.227  -0.184
    1UNL     C9   15  -0.136  -0.063   0.117
    1UNL     O7   16  -0.074  -0.120   0.200
    1UNL    C10   17  -0.207   0.065   0.138
    1UNL    C11   18  -0.340   0.060   0.051
    1UNL    C12   19  -0.377  -0.089   0.029
    1UNL    C13   20  -0.271  -0.082  -0.090
    1UNL    C14   21  -0.303   0.071  -0.101
    1UNL    C15   22  -0.184   0.161  -0.141
    1UNL    C16   23  -0.428   0.095  -0.186
    1UNL     H1   24  -0.015  -0.310  -0.008
    1UNL     H2   25  -0.189  -0.310   0.011
    1UNL     H3   26  -0.114  -0.311  -0.147
    1UNL     H4   27   0.090  -0.126   0.064
    1UNL     H5   28   0.248  -0.003   0.193
    1UNL     H6   29   0.294   0.277   0.105
    1UNL     H7   30   0.164   0.226   0.213
    1UNL     H8   31   0.364   0.143   0.340
    1UNL     H9   32   0.475   0.063   0.072
    1UNL    H10   33   0.288   0.170  -0.117
    1UNL    H11   34   0.384  -0.164   0.011
    1UNL    H12   35   0.467  -0.007  -0.212
    1UNL    H13   36   0.215  -0.024  -0.205
    1UNL    H14   37   0.300  -0.239  -0.234
    1UNL    H15   38  -0.232   0.082   0.241
    1UNL    H16   39  -0.129   0.134   0.120
    1UNL    H17   40  -0.423   0.123   0.090
    1UNL    H18   41  -0.335  -0.148   0.111
    1UNL    H19   42  -0.484  -0.121   0.016
    1UNL    H20   43  -0.309  -0.148  -0.169
    1UNL    H21   44  -0.119   0.114  -0.217
    1UNL    H22   45  -0.125   0.190  -0.060
    1UNL    H23   46  -0.225   0.254  -0.181
    1UNL    H24   47  -0.512   0.035  -0.132
    1UNL    H25   48  -0.457   0.202  -0.195
    1UNL    H26   49  -0.421   0.059  -0.283
   0.00000   0.00000   0.00000   0.00000   0.00000   0.00000   0.00000   0.00000   0.00000
Generated with MDTraj, t= 76.0
 49
    1UNL     C1    1  -0.087  -0.273  -0.051
    1UNL     C2    2  -0.122  -0.126  -0.036
    1UNL     O1    3  -0.024  -0.049  -0.112
    1UNL     C3    4   0.100  -0.036  -0.041
    1UNL     O2    5   0.124   0.093   0.007
    1UNL     C4    6   0.242   0.098   0.098
    1UNL     C5    7   0.266   0.218   0.188
    1UNL     O3    8   0.373   0.203   0.286
    1UNL     C6    9   0.363   0.056   0.013
    1UNL     O4   10   0.369   0.150  -0.092
    1UNL     C7   11   0.352  -0.083  -0.045
    1UNL     O5   12   0.459  -0.115  -0.130
    1UNL     C8   13   0.218  -0.088  -0.122
    1UNL     O6   14   0.189  -0.222  -0.172
    1UNL     C9   15  -0.126  -0.073   0.109
    1UNL     O7   16  -0.083  -0.140   0.197
    1UNL    C10   17  -0.182   0.063   0.126
    1UNL    C11   18  -0.315   0.059   0.059
    1UNL    C12   19  -0.364  -0.091   0.032
    1UNL    C13   20  -0.259  -0.094  -0.090
    1UNL    C14   21  -0.297   0.062  -0.093
    1UNL    C15   22  -0.191   0.158  -0.143
    1UNL    C16   23  -0.428   0.102  -0.166
    1UNL     H1   24   0.001  -0.293   0.003
    1UNL     H2   25  -0.162  -0.344  -0.015
    1UNL     H3   26  -0.053  -0.308  -0.150
    1UNL     H4   27   0.088  -0.102   0.051
    1UNL     H5   28   0.224   0.017   0.181
    1UNL     H6   29   0.290   0.300   0.120
    1UNL     H7   30   0.172   0.244   0.244
    1UNL     H8   31   0.362   0.113   0.326
    1UNL     H9   32   0.465   0.067   0.058
    1UNL    H10   33   0.278   0.184  -0.120
    1UNL    H11   34   0.358  -0.154   0.035
    1UNL    H12   35   0.484  -0.036  -0.185
    1UNL    H13   36   0.227  -0.033  -0.214
    1UNL    H14   37   0.269  -0.251  -0.217
    1UNL    H15   38  -0.193   0.072   0.232
    1UNL    H16   39  -0.123   0.143   0.095
    1UNL    H17   40  -0.386   0.134   0.099
    1UNL    H18   41  -0.338  -0.160   0.113
    1UNL    H19   42  -0.465  -0.106  -0.002
    1UNL    H20   43  -0.299  -0.152  -0.179
    1UNL    H21   44  -0.098   0.147  -0.097
    1UNL    H22   45  -0.231   0.260  -0.133
    1UNL    H23   46  -0.187   0.133  -0.249
    1UNL    H24   47  -0.512   0.031  -0.145
    1UNL    H25   48  -0.451   0.206  -0.129
    1UNL    H26   49  -0.412   0.115  -0.272
   0.00000   0.00000   0.00000   0.00000   0.00000   0.00000   0.00000   0.00000   0.00000
Generated with MDTraj, t= 77.0
 49
    1UNL     C1    1  -0.099  -0.274  -0.056
    1UNL     C2    2  -0.126  -0.126  -0.040
    1UNL     O1    3  -0.026  -0.051  -0.118
    1UNL     C3    4   0.097  -0.034  -0.049
    1UNL     O2    5   0.133   0.098   0.010
    1UNL     C4    6   0.247   0.100   0.101
    1UNL     C5    7   0.256   0.233   0.172
    1UNL     O3    8   0.358   0.227   0.269
    1UNL     C6    9   0.370   0.052   0.019
    1UNL     O4   10   0.394   0.151  -0.081
    1UNL     C7   11   0.343  -0.093  -0.045
    1UNL     O5   12   0.456  -0.120  -0.123
    1UNL     C8   13   0.212  -0.092  -0.131
    1UNL     O6   14   0.183  -0.231  -0.174
    1UNL     C9   15  -0.116  -0.090   0.104
    1UNL     O7   16  -0.041  -0.140   0.186
    1UNL    C10   17  -0.200   0.026   0.152
    1UNL    C11   18  -0.327   0.057   0.070
    1UNL    C12   19  -0.379  -0.081   0.032
    1UNL    C13   20  -0.274  -0.086  -0.083
    1UNL    C14   21  -0.299   0.072  -0.092
    1UNL    C15   22  -0.185   0.167  -0.127
    1UNL    C16   23  -0.415   0.102  -0.182
    1UNL     H1   24   0.002  -0.294  -0.040
    1UNL     H2   25  -0.161  -0.341   0.009
    1UNL     H3   26  -0.109  -0.300  -0.160
    1UNL     H4   27   0.099  -0.098   0.044
    1UNL     H5   28   0.231   0.024   0.188
    1UNL     H6   29   0.291   0.315   0.109
    1UNL     H7   30   0.161   0.254   0.230
    1UNL     H8   31   0.350   0.150   0.329
    1UNL     H9   32   0.452   0.048   0.091
    1UNL    H10   33   0.307   0.174  -0.117
    1UNL    H11   34   0.351  -0.163   0.037
    1UNL    H12   35   0.492  -0.035  -0.147
    1UNL    H13   36   0.207  -0.035  -0.223
    1UNL    H14   37   0.264  -0.279  -0.185
    1UNL    H15   38  -0.222   0.015   0.254
    1UNL    H16   39  -0.138   0.111   0.144
    1UNL    H17   40  -0.394   0.135   0.112
    1UNL    H18   41  -0.364  -0.145   0.118
    1UNL    H19   42  -0.477  -0.092  -0.005
    1UNL    H20   43  -0.312  -0.143  -0.177
    1UNL    H21   44  -0.105   0.136  -0.067
    1UNL    H22   45  -0.205   0.272  -0.096
    1UNL    H23   46  -0.158   0.171  -0.228
    1UNL    H24   47  -0.505   0.054  -0.154
    1UNL    H25   48  -0.428   0.213  -0.191
    1UNL    H26   49  -0.386   0.072  -0.289
   0.00000   0.00000   0.00000   0.00000   0.00000   0.00000   0.00000   0.00000   0.00000
Generated with MDTraj, t= 78.0
 49
    1UNL     C1    1  -0.093  -0.265  -0.043
    1UNL     C2    2  -0.126  -0.121  -0.031
    1UNL     O1    3  -0.021  -0.064  -0.107
    1UNL     C3    4   0.108  -0.061  -0.048
    1UNL     O2    5   0.128   0.071   0.007
    1UNL     C4    6   0.239   0.085   0.098
    1UNL     C5    7   0.256   0.231   0.139
    1UNL     O3    8   0.341   0.258   0.250
    1UNL     C6    9   0.366   0.050   0.016
    1UNL     O4   10   0.407   0.149  -0.080
    1UNL     C7   11   0.360  -0.092  -0.046
    1UNL     O5   12   0.469  -0.119  -0.122
    1UNL     C8   13   0.232  -0.100  -0.133
    1UNL     O6   14   0.209  -0.234  -0.183
    1UNL     C9   15  -0.130  -0.087   0.121
    1UNL     O7   16  -0.060  -0.147   0.198
    1UNL    C10   17  -0.227   0.021   0.166
    1UNL    C11   18  -0.342   0.041   0.064
    1UNL    C12   19  -0.380  -0.094  -0.004
    1UNL    C13   20  -0.262  -0.073  -0.101
    1UNL    C14   21  -0.299   0.086  -0.082
    1UNL    C15   22  -0.181   0.178  -0.102
    1UNL    C16   23  -0.432   0.147  -0.152
    1UNL     H1   24  -0.003  -0.295   0.009
    1UNL     H2   25  -0.184  -0.318  -0.011
    1UNL     H3   26  -0.075  -0.268  -0.148
    1UNL     H4   27   0.117  -0.124   0.045
    1UNL     H5   28   0.226   0.013   0.188
    1UNL     H6   29   0.311   0.281   0.059
    1UNL     H7   30   0.156   0.275   0.162
    1UNL     H8   31   0.321   0.195   0.320
    1UNL     H9   32   0.452   0.045   0.079
    1UNL    H10   33   0.345   0.174  -0.149
    1UNL    H11   34   0.371  -0.174   0.026
    1UNL    H12   35   0.517  -0.033  -0.150
    1UNL    H13   36   0.232  -0.037  -0.222
    1UNL    H14   37   0.298  -0.276  -0.178
    1UNL    H15   38  -0.265   0.000   0.259
    1UNL    H16   39  -0.176   0.115   0.170
    1UNL    H17   40  -0.428   0.101   0.093
    1UNL    H18   41  -0.375  -0.174   0.068
    1UNL    H19   42  -0.474  -0.106  -0.052
    1UNL    H20   43  -0.278  -0.113  -0.211
    1UNL    H21   44  -0.095   0.150  -0.042
    1UNL    H22   45  -0.200   0.278  -0.063
    1UNL    H23   46  -0.151   0.196  -0.199
    1UNL    H24   47  -0.511   0.076  -0.157
    1UNL    H25   48  -0.470   0.240  -0.107
    1UNL    H26   49  -0.417   0.177  -0.264
   0.00000   0.00000   0.00000   0.00000   0.00000   0.00000   0.00000   0.00000   0.00000
Generated with MDTraj, t= 79.0
 49
    1UNL     C1    1  -0.118  -0.282  -0.070
    1UNL     C2    2  -0.130  -0.134  -0.038
    1UNL     O1    3  -0.024  -0.063  -0.114
    1UNL     C3    4   0.096  -0.041  -0.038
    1UNL     O2    5   0.121   0.093   0.005
    1UNL     C4    6   0.237   0.105   0.095
    1UNL     C5    7   0.254   0.246   0.154
    1UNL     O3    8   0.361   0.252   0.245
    1UNL     C6    9   0.362   0.062   0.008
    1UNL     O4   10   0.391   0.146  -0.104
    1UNL     C7   11   0.347  -0.084  -0.045
    1UNL     O5   12   0.458  -0.120  -0.112
    1UNL     C8   13   0.214  -0.096  -0.117
    1UNL     O6   14   0.200  -0.235  -0.156
    1UNL     C9   15  -0.127  -0.104   0.113
    1UNL     O7   16  -0.050  -0.156   0.185
    1UNL    C10   17  -0.217   0.009   0.170
    1UNL    C11   18  -0.333   0.042   0.074
    1UNL    C12   19  -0.383  -0.093   0.001
    1UNL    C13   20  -0.264  -0.072  -0.092
    1UNL    C14   21  -0.283   0.085  -0.078
    1UNL    C15   22  -0.157   0.168  -0.079
    1UNL    C16   23  -0.387   0.138  -0.184
    1UNL     H1   24  -0.010  -0.305  -0.049
    1UNL     H2   25  -0.185  -0.339  -0.008
    1UNL     H3   26  -0.132  -0.283  -0.174
    1UNL     H4   27   0.096  -0.100   0.058
    1UNL     H5   28   0.222   0.037   0.186
    1UNL     H6   29   0.275   0.313   0.071
    1UNL     H7   30   0.163   0.271   0.211
    1UNL     H8   31   0.355   0.174   0.305
    1UNL     H9   32   0.441   0.071   0.079
    1UNL    H10   33   0.310   0.156  -0.161
    1UNL    H11   34   0.342  -0.153   0.044
    1UNL    H12   35   0.482  -0.047  -0.172
    1UNL    H13   36   0.214  -0.042  -0.213
    1UNL    H14   37   0.290  -0.274  -0.130
    1UNL    H15   38  -0.268  -0.040   0.246
    1UNL    H16   39  -0.164   0.095   0.207
    1UNL    H17   40  -0.418   0.099   0.112
    1UNL    H18   41  -0.383  -0.177   0.066
    1UNL    H19   42  -0.474  -0.079  -0.052
    1UNL    H20   43  -0.289  -0.103  -0.203
    1UNL    H21   44  -0.073   0.115  -0.033
    1UNL    H22   45  -0.169   0.254  -0.021
    1UNL    H23   46  -0.135   0.208  -0.174
    1UNL    H24   47  -0.484   0.079  -0.185
    1UNL    H25   48  -0.406   0.241  -0.153
    1UNL    H26   49  -0.353   0.145  -0.290
   0.00000   0.00000   0.00000   0.00000   0.00000   0.00000   0.00000   0.00000   0.00000
Generated with MDTraj, t= 80.0
 49
    1UNL     C1    1  -0.111  -0.268  -0.084
    1UNL     C2    2  -0.118  -0.121  -0.051
    1UNL     O1    3  -0.019  -0.045  -0.116
    1UNL     C3    4   0.102  -0.037  -0.035
    1UNL     O2    5   0.127   0.091   0.025
    1UNL     C4    6   0.247   0.111   0.100
    1UNL     C5    7   0.255   0.249   0.169
    1UNL     O3    8   0.374   0.261   0.238
    1UNL     C6    9   0.363   0.069   0.008
    1UNL     O4   10   0.352   0.134  -0.118
    1UNL     C7   11   0.354  -0.089  -0.037
    1UNL     O5   12   0.463  -0.119  -0.122
    1UNL     C8   13   0.217  -0.104  -0.109
    1UNL     O6   14   0.198  -0.244  -0.132
    1UNL     C9   15  -0.127  -0.100   0.100
    1UNL     O7   16  -0.092  -0.181   0.182
    1UNL    C10   17  -0.203   0.018   0.159
    1UNL    C11   18  -0.333   0.033   0.069
    1UNL    C12   19  -0.376  -0.101   0.008
    1UNL    C13   20  -0.260  -0.077  -0.098
    1UNL    C14   21  -0.286   0.082  -0.074
    1UNL    C15   22  -0.155   0.169  -0.095
    1UNL    C16   23  -0.395   0.143  -0.163
    1UNL     H1   24  -0.034  -0.321  -0.021
    1UNL     H2   25  -0.204  -0.311  -0.064
    1UNL     H3   26  -0.084  -0.273  -0.188
    1UNL     H4   27   0.089  -0.102   0.055
    1UNL     H5   28   0.248   0.036   0.185
    1UNL     H6   29   0.262   0.327   0.094
    1UNL     H7   30   0.169   0.263   0.236
    1UNL     H8   31   0.387   0.185   0.303
    1UNL     H9   32   0.462   0.086   0.047
    1UNL    H10   33   0.259   0.126  -0.154
    1UNL    H11   34   0.362  -0.167   0.046
    1UNL    H12   35   0.466  -0.056  -0.193
    1UNL    H13   36   0.212  -0.061  -0.212
    1UNL    H14   37   0.278  -0.290  -0.100
    1UNL    H15   38  -0.230  -0.004   0.257
    1UNL    H16   39  -0.145   0.105   0.155
    1UNL    H17   40  -0.408   0.105   0.103
    1UNL    H18   41  -0.369  -0.179   0.079
    1UNL    H19   42  -0.478  -0.106  -0.032
    1UNL    H20   43  -0.298  -0.125  -0.198
    1UNL    H21   44  -0.072   0.127  -0.046
    1UNL    H22   45  -0.171   0.269  -0.080
    1UNL    H23   46  -0.138   0.171  -0.202
    1UNL    H24   47  -0.491   0.076  -0.171
    1UNL    H25   48  -0.410   0.245  -0.123
    1UNL    H26   49  -0.360   0.152  -0.263
   0.00000   0.00000   0.00000   0.00000   0.00000   0.00000   0.00000   0.00000   0.00000
Generated with MDTraj, t= 81.0
 49
    1UNL     C1    1  -0.110  -0.261  -0.080
    1UNL     C2    2  -0.129  -0.116  -0.046
    1UNL     O1    3  -0.015  -0.047  -0.101
    1UNL     C3    4   0.110  -0.044  -0.027
    1UNL     O2    5   0.123   0.081   0.038
    1UNL     C4    6   0.250   0.096   0.104
    1UNL     C5    7   0.277   0.240   0.151
    1UNL     O3    8   0.389   0.262   0.233
    1UNL     C6    9   0.366   0.062   0.005
    1UNL     O4   10   0.368   0.158  -0.103
    1UNL     C7   11   0.366  -0.083  -0.045
    1UNL     O5   12   0.461  -0.113  -0.141
    1UNL     C8   13   0.230  -0.106  -0.101
    1UNL     O6   14   0.206  -0.247  -0.109
    1UNL     C9   15  -0.143  -0.098   0.103
    1UNL     O7   16  -0.113  -0.194   0.172
    1UNL    C10   17  -0.207   0.025   0.155
    1UNL    C11   18  -0.332   0.034   0.064
    1UNL    C12   19  -0.376  -0.103   0.003
    1UNL    C13   20  -0.259  -0.068  -0.105
    1UNL    C14   21  -0.293   0.079  -0.085
    1UNL    C15   22  -0.174   0.173  -0.111
    1UNL    C16   23  -0.421   0.136  -0.154
    1UNL     H1   24  -0.014  -0.298  -0.048
    1UNL     H2   25  -0.179  -0.326  -0.033
    1UNL     H3   26  -0.117  -0.276  -0.189
    1UNL     H4   27   0.102  -0.109   0.063
    1UNL     H5   28   0.247   0.036   0.199
    1UNL     H6   29   0.297   0.298   0.062
    1UNL     H7   30   0.190   0.280   0.205
    1UNL     H8   31   0.388   0.205   0.314
    1UNL     H9   32   0.459   0.079   0.061
    1UNL    H10   33   0.283   0.169  -0.146
    1UNL    H11   34   0.383  -0.150   0.045
    1UNL    H12   35   0.459  -0.049  -0.218
    1UNL    H13   36   0.234  -0.059  -0.203
    1UNL    H14   37   0.291  -0.290  -0.104
    1UNL    H15   38  -0.235   0.008   0.256
    1UNL    H16   39  -0.150   0.112   0.151
    1UNL    H17   40  -0.416   0.089   0.109
    1UNL    H18   41  -0.362  -0.194   0.057
    1UNL    H19   42  -0.479  -0.105  -0.038
    1UNL    H20   43  -0.297  -0.115  -0.204
    1UNL    H21   44  -0.088   0.138  -0.068
    1UNL    H22   45  -0.201   0.266  -0.070
    1UNL    H23   46  -0.156   0.199  -0.215
    1UNL    H24   47  -0.515   0.079  -0.142
    1UNL    H25   48  -0.431   0.243  -0.117
    1UNL    H26   49  -0.408   0.136  -0.261
   0.00000   0.00000   0.00000   0.00000   0.00000   0.00000   0.00000   0.00000   0.00000
Generated with MDTraj, t= 82.0
 49
    1UNL     C1    1  -0.096  -0.266  -0.066
    1UNL     C2    2  -0.130  -0.123  -0.035
    1UNL     O1    3  -0.029  -0.042  -0.095
    1UNL     C3    4   0.093  -0.030  -0.017
    1UNL     O2    5   0.132   0.103   0.022
    1UNL     C4    6   0.252   0.102   0.095
    1UNL     C5    7   0.270   0.236   0.162
    1UNL     O3    8   0.387   0.243   0.235
    1UNL     C6    9   0.374   0.060   0.005
    1UNL     O4   10   0.378   0.154  -0.105
    1UNL     C7   11   0.350  -0.083  -0.048
    1UNL     O5   12   0.454  -0.117  -0.138
    1UNL     C8   13   0.204  -0.090  -0.106
    1UNL     O6   14   0.184  -0.232  -0.125
    1UNL     C9   15  -0.138  -0.111   0.116
    1UNL     O7   16  -0.066  -0.178   0.183
    1UNL    C10   17  -0.226   0.004   0.167
    1UNL    C11   18  -0.337   0.042   0.059
    1UNL    C12   19  -0.380  -0.094  -0.006
    1UNL    C13   20  -0.258  -0.074  -0.104
    1UNL    C14   21  -0.288   0.082  -0.090
    1UNL    C15   22  -0.163   0.170  -0.087
    1UNL    C16   23  -0.397   0.117  -0.196
    1UNL     H1   24  -0.009  -0.302  -0.022
    1UNL     H2   25  -0.169  -0.338  -0.025
    1UNL     H3   26  -0.091  -0.286  -0.174
    1UNL     H4   27   0.088  -0.093   0.074
    1UNL     H5   28   0.229   0.030   0.175
    1UNL     H6   29   0.274   0.316   0.087
    1UNL     H7   30   0.187   0.251   0.231
    1UNL     H8   31   0.391   0.161   0.288
    1UNL     H9   32   0.472   0.056   0.059
    1UNL    H10   33   0.285   0.178  -0.135
    1UNL    H11   34   0.355  -0.160   0.036
    1UNL    H12   35   0.451  -0.055  -0.215
    1UNL    H13   36   0.194  -0.043  -0.208
    1UNL    H14   37   0.272  -0.271  -0.135
    1UNL    H15   38  -0.279  -0.031   0.254
    1UNL    H16   39  -0.169   0.081   0.211
    1UNL    H17   40  -0.423   0.104   0.095
    1UNL    H18   41  -0.366  -0.177   0.065
    1UNL    H19   42  -0.479  -0.104  -0.058
    1UNL    H20   43  -0.282  -0.112  -0.210
    1UNL    H21   44  -0.069   0.133  -0.052
    1UNL    H22   45  -0.190   0.260  -0.037
    1UNL    H23   46  -0.139   0.201  -0.184
    1UNL    H24   47  -0.473   0.047  -0.214
    1UNL    H25   48  -0.437   0.222  -0.177
    1UNL    H26   49  -0.352   0.111  -0.298
   0.00000   0.00000   0.00000   0.00000   0.00000   0.00000   0.00000   0.00000   0.00000
Generated with MDTraj, t= 83.0
 49
    1UNL     C1    1  -0.088  -0.262  -0.040
    1UNL     C2    2  -0.121  -0.116  -0.032
    1UNL     O1    3  -0.021  -0.034  -0.093
    1UNL     C3    4   0.113  -0.040  -0.032
    1UNL     O2    5   0.148   0.089   0.018
    1UNL     C4    6   0.260   0.096   0.096
    1UNL     C5    7   0.278   0.237   0.154
    1UNL     O3    8   0.379   0.237   0.250
    1UNL     C6    9   0.378   0.053   0.006
    1UNL     O4   10   0.372   0.133  -0.106
    1UNL     C7   11   0.358  -0.092  -0.039
    1UNL     O5   12   0.462  -0.121  -0.124
    1UNL     C8   13   0.224  -0.089  -0.120
    1UNL     O6   14   0.194  -0.217  -0.176
    1UNL     C9   15  -0.140  -0.091   0.118
    1UNL     O7   16  -0.066  -0.137   0.199
    1UNL    C10   17  -0.251   0.005   0.159
    1UNL    C11   18  -0.360   0.034   0.052
    1UNL    C12   19  -0.393  -0.101  -0.018
    1UNL    C13   20  -0.259  -0.085  -0.104
    1UNL    C14   21  -0.302   0.073  -0.086
    1UNL    C15   22  -0.183   0.167  -0.093
    1UNL    C16   23  -0.414   0.127  -0.169
    1UNL     H1   24  -0.019  -0.299   0.027
    1UNL     H2   25  -0.183  -0.319  -0.017
    1UNL     H3   26  -0.060  -0.290  -0.142
    1UNL     H4   27   0.101  -0.105   0.055
    1UNL     H5   28   0.237   0.028   0.175
    1UNL     H6   29   0.317   0.300   0.073
    1UNL     H7   30   0.188   0.288   0.192
    1UNL     H8   31   0.364   0.171   0.319
    1UNL     H9   32   0.479   0.062   0.058
    1UNL    H10   33   0.277   0.161  -0.111
    1UNL    H11   34   0.361  -0.161   0.048
    1UNL    H12   35   0.469  -0.050  -0.189
    1UNL    H13   36   0.233  -0.020  -0.207
    1UNL    H14   37   0.278  -0.262  -0.207
    1UNL    H15   38  -0.296  -0.034   0.248
    1UNL    H16   39  -0.203   0.097   0.189
    1UNL    H17   40  -0.445   0.101   0.086
    1UNL    H18   41  -0.389  -0.186   0.057
    1UNL    H19   42  -0.492  -0.113  -0.071
    1UNL    H20   43  -0.263  -0.128  -0.210
    1UNL    H21   44  -0.091   0.119  -0.056
    1UNL    H22   45  -0.203   0.258  -0.043
    1UNL    H23   46  -0.166   0.184  -0.191
    1UNL    H24   47  -0.484   0.051  -0.189
    1UNL    H25   48  -0.455   0.212  -0.112
    1UNL    H26   49  -0.383   0.151  -0.275
   0.00000   0.00000   0.00000   0.00000   0.00000   0.00000   0.00000   0.00000   0.00000
Generated with MDTraj, t= 84.0
 49
    1UNL     C1    1  -0.100  -0.254  -0.052
    1UNL     C2    2  -0.134  -0.107  -0.038
    1UNL     O1    3  -0.023  -0.039  -0.109
    1UNL     C3    4   0.110  -0.031  -0.042
    1UNL     O2    5   0.146   0.093   0.013
    1UNL     C4    6   0.260   0.083   0.103
    1UNL     C5    7   0.277   0.223   0.157
    1UNL     O3    8   0.378   0.230   0.256
    1UNL     C6    9   0.386   0.045   0.021
    1UNL     O4   10   0.419   0.151  -0.075
    1UNL     C7   11   0.357  -0.090  -0.049
    1UNL     O5   12   0.455  -0.123  -0.145
    1UNL     C8   13   0.217  -0.092  -0.127
    1UNL     O6   14   0.194  -0.233  -0.160
    1UNL     C9   15  -0.136  -0.069   0.112
    1UNL     O7   16  -0.047  -0.106   0.190
    1UNL    C10   17  -0.245   0.023   0.158
    1UNL    C11   18  -0.361   0.029   0.064
    1UNL    C12   19  -0.389  -0.113  -0.001
    1UNL    C13   20  -0.270  -0.088  -0.105
    1UNL    C14   21  -0.308   0.060  -0.087
    1UNL    C15   22  -0.208   0.177  -0.086
    1UNL    C16   23  -0.423   0.096  -0.181
    1UNL     H1   24   0.002  -0.253  -0.015
    1UNL     H2   25  -0.162  -0.318   0.011
    1UNL     H3   26  -0.100  -0.287  -0.154
    1UNL     H4   27   0.093  -0.089   0.049
    1UNL     H5   28   0.232   0.023   0.185
    1UNL     H6   29   0.285   0.307   0.084
    1UNL     H7   30   0.184   0.247   0.211
    1UNL     H8   31   0.375   0.155   0.322
    1UNL     H9   32   0.481   0.047   0.084
    1UNL    H10   33   0.338   0.173  -0.121
    1UNL    H11   34   0.356  -0.173   0.023
    1UNL    H12   35   0.471  -0.051  -0.210
    1UNL    H13   36   0.231  -0.036  -0.221
    1UNL    H14   37   0.281  -0.271  -0.193
    1UNL    H15   38  -0.276  -0.009   0.257
    1UNL    H16   39  -0.198   0.123   0.159
    1UNL    H17   40  -0.452   0.093   0.096
    1UNL    H18   41  -0.370  -0.202   0.070
    1UNL    H19   42  -0.496  -0.119  -0.036
    1UNL    H20   43  -0.279  -0.129  -0.211
    1UNL    H21   44  -0.113   0.134  -0.055
    1UNL    H22   45  -0.245   0.244  -0.014
    1UNL    H23   46  -0.197   0.225  -0.180
    1UNL    H24   47  -0.506   0.023  -0.172
    1UNL    H25   48  -0.446   0.193  -0.144
    1UNL    H26   49  -0.396   0.086  -0.290
   0.00000   0.00000   0.00000   0.00000   0.00000   0.00000   0.00000   0.00000   0.00000
Generated with MDTraj, t= 85.0
 49
    1UNL     C1    1  -0.090  -0.263  -0.043
    1UNL     C2    2  -0.121  -0.110  -0.039
    1UNL     O1    3  -0.026  -0.033  -0.111
    1UNL     C3    4   0.100  -0.026  -0.037
    1UNL     O2    5   0.134   0.106   0.002
    1UNL     C4    6   0.248   0.090   0.095
    1UNL     C5    7   0.282   0.217   0.170
    1UNL     O3    8   0.382   0.206   0.267
    1UNL     C6    9   0.374   0.047   0.016
    1UNL     O4   10   0.412   0.147  -0.072
    1UNL     C7   11   0.351  -0.090  -0.050
    1UNL     O5   12   0.453  -0.125  -0.138
    1UNL     C8   13   0.211  -0.088  -0.120
    1UNL     O6   14   0.181  -0.223  -0.161
    1UNL     C9   15  -0.130  -0.066   0.111
    1UNL     O7   16  -0.056  -0.113   0.194
    1UNL    C10   17  -0.220   0.044   0.143
    1UNL    C11   18  -0.346   0.028   0.059
    1UNL    C12   19  -0.357  -0.118   0.007
    1UNL    C13   20  -0.260  -0.087  -0.108
    1UNL    C14   21  -0.317   0.068  -0.089
    1UNL    C15   22  -0.203   0.175  -0.108
    1UNL    C16   23  -0.445   0.085  -0.171
    1UNL     H1   24  -0.017  -0.287   0.040
    1UNL     H2   25  -0.178  -0.318  -0.020
    1UNL     H3   26  -0.053  -0.291  -0.138
    1UNL     H4   27   0.085  -0.090   0.050
    1UNL     H5   28   0.227   0.009   0.156
    1UNL     H6   29   0.327   0.280   0.089
    1UNL     H7   30   0.199   0.282   0.201
    1UNL     H8   31   0.360   0.127   0.324
    1UNL     H9   32   0.468   0.033   0.076
    1UNL    H10   33   0.331   0.167  -0.121
    1UNL    H11   34   0.348  -0.164   0.030
    1UNL    H12   35   0.500  -0.040  -0.161
    1UNL    H13   36   0.215  -0.036  -0.216
    1UNL    H14   37   0.258  -0.259  -0.206
    1UNL    H15   38  -0.244   0.042   0.250
    1UNL    H16   39  -0.159   0.135   0.118
    1UNL    H17   40  -0.446   0.072   0.103
    1UNL    H18   41  -0.309  -0.183   0.088
    1UNL    H19   42  -0.458  -0.164  -0.020
    1UNL    H20   43  -0.271  -0.128  -0.213
    1UNL    H21   44  -0.108   0.136  -0.118
    1UNL    H22   45  -0.195   0.247  -0.031
    1UNL    H23   46  -0.217   0.237  -0.198
    1UNL    H24   47  -0.499  -0.016  -0.172
    1UNL    H25   48  -0.503   0.164  -0.132
    1UNL    H26   49  -0.416   0.088  -0.277
   0.00000   0.00000   0.00000   0.00000   0.00000   0.00000   0.00000   0.00000   0.00000
Generated with MDTraj, t= 86.0
 49
    1UNL     C1    1  -0.090  -0.260  -0.067
    1UNL     C2    2  -0.119  -0.104  -0.032
    1UNL     O1    3  -0.024  -0.018  -0.097
    1UNL     C3    4   0.107  -0.032  -0.033
    1UNL     O2    5   0.144   0.101   0.017
    1UNL     C4    6   0.262   0.093   0.104
    1UNL     C5    7   0.287   0.224   0.176
    1UNL     O3    8   0.374   0.216   0.288
    1UNL     C6    9   0.376   0.052   0.013
    1UNL     O4   10   0.386   0.135  -0.103
    1UNL     C7   11   0.350  -0.092  -0.051
    1UNL     O5   12   0.457  -0.140  -0.125
    1UNL     C8   13   0.215  -0.080  -0.134
    1UNL     O6   14   0.191  -0.208  -0.189
    1UNL     C9   15  -0.129  -0.069   0.123
    1UNL     O7   16  -0.073  -0.145   0.192
    1UNL    C10   17  -0.213   0.053   0.155
    1UNL    C11   18  -0.340   0.045   0.064
    1UNL    C12   19  -0.372  -0.107   0.021
    1UNL    C13   20  -0.265  -0.092  -0.087
    1UNL    C14   21  -0.309   0.061  -0.092
    1UNL    C15   22  -0.202   0.154  -0.148
    1UNL    C16   23  -0.441   0.082  -0.172
    1UNL     H1   24   0.013  -0.299  -0.039
    1UNL     H2   25  -0.154  -0.315  -0.006
    1UNL     H3   26  -0.113  -0.290  -0.167
    1UNL     H4   27   0.097  -0.102   0.050
    1UNL     H5   28   0.254   0.017   0.176
    1UNL     H6   29   0.312   0.311   0.112
    1UNL     H7   30   0.188   0.256   0.208
    1UNL     H8   31   0.355   0.140   0.347
    1UNL     H9   32   0.471   0.064   0.067
    1UNL    H10   33   0.298   0.183  -0.111
    1UNL    H11   34   0.335  -0.153   0.036
    1UNL    H12   35   0.502  -0.063  -0.161
    1UNL    H13   36   0.222  -0.002  -0.209
    1UNL    H14   37   0.270  -0.235  -0.237
    1UNL    H15   38  -0.236   0.049   0.265
    1UNL    H16   39  -0.150   0.144   0.134
    1UNL    H17   40  -0.438   0.103   0.102
    1UNL    H18   41  -0.345  -0.189   0.094
    1UNL    H19   42  -0.474  -0.137  -0.018
    1UNL    H20   43  -0.286  -0.131  -0.190
    1UNL    H21   44  -0.139   0.205  -0.078
    1UNL    H22   45  -0.248   0.229  -0.204
    1UNL    H23   46  -0.133   0.105  -0.218
    1UNL    H24   47  -0.533   0.027  -0.131
    1UNL    H25   48  -0.464   0.187  -0.166
    1UNL    H26   49  -0.441   0.038  -0.271
   0.00000   0.00000   0.00000   0.00000   0.00000   0.00000   0.00000   0.00000   0.00000
Generated with MDTraj, t= 87.0
 49
    1UNL     C1    1  -0.092  -0.273  -0.046
    1UNL     C2    2  -0.125  -0.118  -0.033
    1UNL     O1    3  -0.024  -0.039  -0.106
    1UNL     C3    4   0.100  -0.030  -0.039
    1UNL     O2    5   0.126   0.100   0.022
    1UNL     C4    6   0.247   0.096   0.107
    1UNL     C5    7   0.270   0.231   0.180
    1UNL     O3    8   0.384   0.212   0.260
    1UNL     C6    9   0.365   0.053   0.018
    1UNL     O4   10   0.399   0.148  -0.078
    1UNL     C7   11   0.342  -0.082  -0.057
    1UNL     O5   12   0.442  -0.107  -0.146
    1UNL     C8   13   0.208  -0.092  -0.131
    1UNL     O6   14   0.184  -0.228  -0.174
    1UNL     C9   15  -0.119  -0.083   0.119
    1UNL     O7   16  -0.072  -0.152   0.206
    1UNL    C10   17  -0.199   0.040   0.143
    1UNL    C11   18  -0.328   0.046   0.059
    1UNL    C12   19  -0.375  -0.098   0.029
    1UNL    C13   20  -0.270  -0.096  -0.089
    1UNL    C14   21  -0.295   0.065  -0.100
    1UNL    C15   22  -0.185   0.183  -0.134
    1UNL    C16   23  -0.416   0.092  -0.190
    1UNL     H1   24  -0.013  -0.299   0.025
    1UNL     H2   25  -0.171  -0.340  -0.018
    1UNL     H3   26  -0.054  -0.309  -0.141
    1UNL     H4   27   0.093  -0.095   0.046
    1UNL     H5   28   0.245   0.018   0.179
    1UNL     H6   29   0.285   0.319   0.112
    1UNL     H7   30   0.184   0.271   0.231
    1UNL     H8   31   0.372   0.140   0.324
    1UNL     H9   32   0.463   0.048   0.064
    1UNL    H10   33   0.322   0.178  -0.127
    1UNL    H11   34   0.344  -0.165   0.012
    1UNL    H12   35   0.492  -0.029  -0.179
    1UNL    H13   36   0.210  -0.029  -0.219
    1UNL    H14   37   0.268  -0.259  -0.220
    1UNL    H15   38  -0.232   0.042   0.255
    1UNL    H16   39  -0.128   0.125   0.127
    1UNL    H17   40  -0.423   0.106   0.102
    1UNL    H18   41  -0.348  -0.166   0.112
    1UNL    H19   42  -0.485  -0.098   0.007
    1UNL    H20   43  -0.310  -0.147  -0.180
    1UNL    H21   44  -0.081   0.140  -0.122
    1UNL    H22   45  -0.201   0.268  -0.072
    1UNL    H23   46  -0.198   0.214  -0.234
    1UNL    H24   47  -0.487   0.011  -0.195
    1UNL    H25   48  -0.463   0.185  -0.148
    1UNL    H26   49  -0.389   0.097  -0.294
   0.00000   0.00000   0.00000   0.00000   0.00000   0.00000   0.00000   0.00000   0.00000
Generated with MDTraj, t= 88.0
 49
    1UNL     C1    1  -0.103  -0.274  -0.034
    1UNL     C2    2  -0.133  -0.121  -0.035
    1UNL     O1    3  -0.022  -0.061  -0.104
    1UNL     C3    4   0.104  -0.060  -0.037
    1UNL     O2    5   0.122   0.070   0.019
    1UNL     C4    6   0.247   0.077   0.100
    1UNL     C5    7   0.262   0.211   0.180
    1UNL     O3    8   0.379   0.250   0.255
    1UNL     C6    9   0.370   0.058   0.013
    1UNL     O4   10   0.379   0.163  -0.081
    1UNL     C7   11   0.361  -0.089  -0.063
    1UNL     O5   12   0.464  -0.094  -0.158
    1UNL     C8   13   0.224  -0.105  -0.132
    1UNL     O6   14   0.215  -0.244  -0.165
    1UNL     C9   15  -0.128  -0.073   0.117
    1UNL     O7   16  -0.056  -0.133   0.198
    1UNL    C10   17  -0.225   0.029   0.168
    1UNL    C11   18  -0.345   0.045   0.059
    1UNL    C12   19  -0.387  -0.094   0.006
    1UNL    C13   20  -0.276  -0.077  -0.103
    1UNL    C14   21  -0.306   0.082  -0.091
    1UNL    C15   22  -0.166   0.159  -0.113
    1UNL    C16   23  -0.423   0.144  -0.178
    1UNL     H1   24  -0.007  -0.293  -0.001
    1UNL     H2   25  -0.168  -0.324   0.040
    1UNL     H3   26  -0.113  -0.327  -0.130
    1UNL     H4   27   0.106  -0.133   0.039
    1UNL     H5   28   0.246  -0.003   0.174
    1UNL     H6   29   0.243   0.291   0.104
    1UNL     H7   30   0.173   0.235   0.234
    1UNL     H8   31   0.389   0.184   0.327
    1UNL     H9   32   0.451   0.064   0.081
    1UNL    H10   33   0.290   0.164  -0.124
    1UNL    H11   34   0.373  -0.170   0.007
    1UNL    H12   35   0.487  -0.002  -0.187
    1UNL    H13   36   0.219  -0.044  -0.220
    1UNL    H14   37   0.307  -0.273  -0.197
    1UNL    H15   38  -0.259  -0.004   0.275
    1UNL    H16   39  -0.171   0.128   0.173
    1UNL    H17   40  -0.432   0.117   0.096
    1UNL    H18   41  -0.374  -0.182   0.068
    1UNL    H19   42  -0.488  -0.104  -0.035
    1UNL    H20   43  -0.299  -0.116  -0.205
    1UNL    H21   44  -0.103   0.152  -0.022
    1UNL    H22   45  -0.175   0.265  -0.146
    1UNL    H23   46  -0.113   0.110  -0.189
    1UNL    H24   47  -0.511   0.094  -0.159
    1UNL    H25   48  -0.429   0.257  -0.153
    1UNL    H26   49  -0.402   0.116  -0.280
   0.00000   0.00000   0.00000   0.00000   0.00000   0.00000   0.00000   0.00000   0.00000
Generated with MDTraj, t= 89.0
 49
    1UNL     C1    1  -0.119  -0.284  -0.035
    1UNL     C2    2  -0.126  -0.127  -0.022
    1UNL     O1    3  -0.012  -0.088  -0.111
    1UNL     C3    4   0.105  -0.068  -0.036
    1UNL     O2    5   0.110   0.067   0.020
    1UNL     C4    6   0.236   0.087   0.090
    1UNL     C5    7   0.252   0.220   0.169
    1UNL     O3    8   0.361   0.231   0.256
    1UNL     C6    9   0.351   0.073  -0.003
    1UNL     O4   10   0.337   0.157  -0.109
    1UNL     C7   11   0.356  -0.071  -0.061
    1UNL     O5   12   0.472  -0.091  -0.141
    1UNL     C8   13   0.226  -0.107  -0.128
    1UNL     O6   14   0.216  -0.242  -0.163
    1UNL     C9   15  -0.121  -0.083   0.126
    1UNL     O7   16  -0.052  -0.150   0.198
    1UNL    C10   17  -0.215   0.039   0.167
    1UNL    C11   18  -0.337   0.058   0.065
    1UNL    C12   19  -0.385  -0.080   0.004
    1UNL    C13   20  -0.261  -0.071  -0.091
    1UNL    C14   21  -0.281   0.088  -0.087
    1UNL    C15   22  -0.160   0.172  -0.081
    1UNL    C16   23  -0.381   0.142  -0.194
    1UNL     H1   24  -0.041  -0.322   0.022
    1UNL     H2   25  -0.217  -0.332  -0.010
    1UNL     H3   26  -0.100  -0.303  -0.140
    1UNL     H4   27   0.103  -0.141   0.040
    1UNL     H5   28   0.233   0.002   0.163
    1UNL     H6   29   0.250   0.310   0.103
    1UNL     H7   30   0.158   0.240   0.218
    1UNL     H8   31   0.350   0.167   0.333
    1UNL     H9   32   0.444   0.090   0.043
    1UNL    H10   33   0.242   0.161  -0.146
    1UNL    H11   34   0.368  -0.147   0.016
    1UNL    H12   35   0.481  -0.023  -0.210
    1UNL    H13   36   0.210  -0.045  -0.215
    1UNL    H14   37   0.303  -0.275  -0.198
    1UNL    H15   38  -0.262  -0.001   0.265
    1UNL    H16   39  -0.153   0.134   0.188
    1UNL    H17   40  -0.421   0.132   0.093
    1UNL    H18   41  -0.391  -0.173   0.054
    1UNL    H19   42  -0.474  -0.064  -0.054
    1UNL    H20   43  -0.274  -0.102  -0.198
    1UNL    H21   44  -0.073   0.118  -0.058
    1UNL    H22   45  -0.166   0.255  -0.004
    1UNL    H23   46  -0.130   0.223  -0.173
    1UNL    H24   47  -0.452   0.068  -0.218
    1UNL    H25   48  -0.423   0.241  -0.162
    1UNL    H26   49  -0.326   0.143  -0.288
   0.00000   0.00000   0.00000   0.00000   0.00000   0.00000   0.00000   0.00000   0.00000
Generated with MDTraj, t= 90.0
 49
    1UNL     C1    1  -0.133  -0.291  -0.047
    1UNL     C2    2  -0.128  -0.139  -0.037
    1UNL     O1    3  -0.009  -0.094  -0.102
    1UNL     C3    4   0.109  -0.070  -0.025
    1UNL     O2    5   0.111   0.063   0.030
    1UNL     C4    6   0.233   0.096   0.095
    1UNL     C5    7   0.222   0.232   0.173
    1UNL     O3    8   0.335   0.238   0.256
    1UNL     C6    9   0.361   0.085  -0.002
    1UNL     O4   10   0.349   0.164  -0.118
    1UNL     C7   11   0.356  -0.064  -0.061
    1UNL     O5   12   0.459  -0.090  -0.156
    1UNL     C8   13   0.224  -0.105  -0.123
    1UNL     O6   14   0.210  -0.241  -0.157
    1UNL     C9   15  -0.119  -0.107   0.116
    1UNL     O7   16  -0.076  -0.168   0.211
    1UNL    C10   17  -0.188   0.029   0.153
    1UNL    C11   18  -0.317   0.066   0.068
    1UNL    C12   19  -0.376  -0.067   0.021
    1UNL    C13   20  -0.265  -0.071  -0.093
    1UNL    C14   21  -0.269   0.092  -0.081
    1UNL    C15   22  -0.130   0.159  -0.115
    1UNL    C16   23  -0.372   0.157  -0.175
    1UNL     H1   24  -0.041  -0.334  -0.004
    1UNL     H2   25  -0.225  -0.323   0.001
    1UNL     H3   26  -0.140  -0.317  -0.150
    1UNL     H4   27   0.109  -0.146   0.050
    1UNL     H5   28   0.235   0.021   0.180
    1UNL     H6   29   0.216   0.325   0.111
    1UNL     H7   30   0.134   0.246   0.236
    1UNL     H8   31   0.343   0.167   0.325
    1UNL     H9   32   0.449   0.106   0.053
    1UNL    H10   33   0.258   0.170  -0.147
    1UNL    H11   34   0.373  -0.140   0.017
    1UNL    H12   35   0.452  -0.026  -0.231
    1UNL    H13   36   0.206  -0.043  -0.211
    1UNL    H14   37   0.288  -0.264  -0.207
    1UNL    H15   38  -0.216   0.018   0.264
    1UNL    H16   39  -0.109   0.114   0.145
    1UNL    H17   40  -0.397   0.138   0.094
    1UNL    H18   41  -0.368  -0.143   0.093
    1UNL    H19   42  -0.478  -0.059  -0.009
    1UNL    H20   43  -0.299  -0.097  -0.197
    1UNL    H21   44  -0.045   0.137  -0.052
    1UNL    H22   45  -0.138   0.267  -0.140
    1UNL    H23   46  -0.096   0.109  -0.211
    1UNL    H24   47  -0.471   0.115  -0.149
    1UNL    H25   48  -0.375   0.261  -0.164
    1UNL    H26   49  -0.366   0.117  -0.278
   0.00000   0.00000   0.00000   0.00000   0.00000   0.00000   0.00000   0.00000   0.00000
Generated with MDTraj, t= 91.0
 49
    1UNL     C1    1  -0.140  -0.294  -0.053
    1UNL     C2    2  -0.136  -0.139  -0.034
    1UNL     O1    3  -0.016  -0.101  -0.110
    1UNL     C3    4   0.103  -0.074  -0.040
    1UNL     O2    5   0.105   0.058   0.017
    1UNL     C4    6   0.217   0.077   0.100
    1UNL     C5    7   0.214   0.218   0.163
    1UNL     O3    8   0.327   0.253   0.245
    1UNL     C6    9   0.352   0.070   0.017
    1UNL     O4   10   0.353   0.166  -0.083
    1UNL     C7   11   0.365  -0.074  -0.052
    1UNL     O5   12   0.463  -0.062  -0.161
    1UNL     C8   13   0.232  -0.113  -0.119
    1UNL     O6   14   0.226  -0.247  -0.160
    1UNL     C9   15  -0.116  -0.092   0.114
    1UNL     O7   16  -0.095  -0.173   0.203
    1UNL    C10   17  -0.149   0.052   0.143
    1UNL    C11   18  -0.283   0.083   0.069
    1UNL    C12   19  -0.361  -0.054   0.045
    1UNL    C13   20  -0.272  -0.072  -0.083
    1UNL    C14   21  -0.271   0.087  -0.090
    1UNL    C15   22  -0.143   0.149  -0.135
    1UNL    C16   23  -0.385   0.148  -0.163
    1UNL     H1   24  -0.033  -0.334  -0.048
    1UNL     H2   25  -0.207  -0.345   0.010
    1UNL     H3   26  -0.173  -0.315  -0.152
    1UNL     H4   27   0.094  -0.148   0.038
    1UNL     H5   28   0.205  -0.012   0.172
    1UNL     H6   29   0.219   0.283   0.073
    1UNL     H7   30   0.117   0.254   0.203
    1UNL     H8   31   0.322   0.191   0.320
    1UNL     H9   32   0.433   0.083   0.087
    1UNL    H10   33   0.263   0.176  -0.118
    1UNL    H11   34   0.396  -0.156   0.017
    1UNL    H12   35   0.448   0.023  -0.208
    1UNL    H13   36   0.226  -0.055  -0.213
    1UNL    H14   37   0.304  -0.263  -0.214
    1UNL    H15   38  -0.162   0.063   0.256
    1UNL    H16   39  -0.062   0.118   0.111
    1UNL    H17   40  -0.351   0.156   0.104
    1UNL    H18   41  -0.363  -0.139   0.110
    1UNL    H19   42  -0.463  -0.026   0.034
    1UNL    H20   43  -0.327  -0.117  -0.172
    1UNL    H21   44  -0.063   0.067  -0.120
    1UNL    H22   45  -0.133   0.239  -0.077
    1UNL    H23   46  -0.153   0.175  -0.245
    1UNL    H24   47  -0.484   0.098  -0.143
    1UNL    H25   48  -0.391   0.244  -0.128
    1UNL    H26   49  -0.381   0.139  -0.272
   0.00000   0.00000   0.00000   0.00000   0.00000   0.00000   0.00000   0.00000   0.00000
Generated with MDTraj, t= 92.0
 49
    1UNL     C1    1  -0.142  -0.283  -0.030
    1UNL     C2    2  -0.131  -0.131  -0.031
    1UNL     O1    3  -0.024  -0.097  -0.121
    1UNL     C3    4   0.099  -0.076  -0.049
    1UNL     O2    5   0.111   0.059   0.005
    1UNL     C4    6   0.217   0.071   0.094
    1UNL     C5    7   0.202   0.204   0.180
    1UNL     O3    8   0.316   0.243   0.254
    1UNL     C6    9   0.348   0.066   0.009
    1UNL     O4   10   0.326   0.168  -0.082
    1UNL     C7   11   0.352  -0.075  -0.054
    1UNL     O5   12   0.476  -0.098  -0.136
    1UNL     C8   13   0.227  -0.101  -0.131
    1UNL     O6   14   0.231  -0.231  -0.182
    1UNL     C9   15  -0.105  -0.083   0.112
    1UNL     O7   16  -0.042  -0.153   0.187
    1UNL    C10   17  -0.162   0.057   0.148
    1UNL    C11   18  -0.292   0.091   0.063
    1UNL    C12   19  -0.361  -0.053   0.050
    1UNL    C13   20  -0.271  -0.076  -0.074
    1UNL    C14   21  -0.270   0.084  -0.087
    1UNL    C15   22  -0.135   0.142  -0.137
    1UNL    C16   23  -0.388   0.143  -0.165
    1UNL     H1   24  -0.061  -0.322   0.038
    1UNL     H2   25  -0.233  -0.321   0.007
    1UNL     H3   26  -0.126  -0.332  -0.124
    1UNL     H4   27   0.097  -0.147   0.035
    1UNL     H5   28   0.213  -0.019   0.161
    1UNL     H6   29   0.164   0.295   0.129
    1UNL     H7   30   0.115   0.185   0.248
    1UNL     H8   31   0.333   0.184   0.329
    1UNL     H9   32   0.437   0.093   0.070
    1UNL    H10   33   0.232   0.169  -0.120
    1UNL    H11   34   0.352  -0.154   0.026
    1UNL    H12   35   0.520  -0.013  -0.145
    1UNL    H13   36   0.234  -0.033  -0.220
    1UNL    H14   37   0.323  -0.245  -0.220
    1UNL    H15   38  -0.184   0.066   0.259
    1UNL    H16   39  -0.080   0.127   0.130
    1UNL    H17   40  -0.354   0.173   0.079
    1UNL    H18   41  -0.359  -0.117   0.138
    1UNL    H19   42  -0.466  -0.051   0.026
    1UNL    H20   43  -0.324  -0.123  -0.162
    1UNL    H21   44  -0.051   0.106  -0.079
    1UNL    H22   45  -0.149   0.251  -0.141
    1UNL    H23   46  -0.118   0.107  -0.245
    1UNL    H24   47  -0.486   0.105  -0.137
    1UNL    H25   48  -0.380   0.251  -0.147
    1UNL    H26   49  -0.372   0.106  -0.265
   0.00000   0.00000   0.00000   0.00000   0.00000   0.00000   0.00000   0.00000   0.00000
Generated with MDTraj, t= 93.0
 49
    1UNL     C1    1  -0.127  -0.285   0.016
    1UNL     C2    2  -0.126  -0.131  -0.020
    1UNL     O1    3  -0.016  -0.098  -0.108
    1UNL     C3    4   0.108  -0.066  -0.049
    1UNL     O2    5   0.119   0.069   0.008
    1UNL     C4    6   0.224   0.074   0.094
    1UNL     C5    7   0.218   0.210   0.169
    1UNL     O3    8   0.316   0.207   0.264
    1UNL     C6    9   0.358   0.057   0.013
    1UNL     O4   10   0.352   0.165  -0.080
    1UNL     C7   11   0.352  -0.082  -0.058
    1UNL     O5   12   0.463  -0.088  -0.154
    1UNL     C8   13   0.227  -0.096  -0.141
    1UNL     O6   14   0.222  -0.221  -0.206
    1UNL     C9   15  -0.117  -0.068   0.121
    1UNL     O7   16  -0.062  -0.130   0.205
    1UNL    C10   17  -0.182   0.059   0.147
    1UNL    C11   18  -0.309   0.075   0.059
    1UNL    C12   19  -0.370  -0.065   0.027
    1UNL    C13   20  -0.260  -0.079  -0.084
    1UNL    C14   21  -0.271   0.080  -0.096
    1UNL    C15   22  -0.147   0.158  -0.130
    1UNL    C16   23  -0.392   0.126  -0.176
    1UNL     H1   24  -0.031  -0.329   0.030
    1UNL     H2   25  -0.190  -0.316   0.099
    1UNL     H3   26  -0.173  -0.340  -0.067
    1UNL     H4   27   0.110  -0.136   0.039
    1UNL     H5   28   0.224  -0.011   0.163
    1UNL     H6   29   0.220   0.298   0.103
    1UNL     H7   30   0.121   0.216   0.224
    1UNL     H8   31   0.287   0.159   0.347
    1UNL     H9   32   0.449   0.077   0.076
    1UNL    H10   33   0.263   0.170  -0.122
    1UNL    H11   34   0.356  -0.167   0.016
    1UNL    H12   35   0.538  -0.038  -0.113
    1UNL    H13   36   0.237  -0.021  -0.224
    1UNL    H14   37   0.303  -0.240  -0.266
    1UNL    H15   38  -0.204   0.067   0.255
    1UNL    H16   39  -0.108   0.135   0.123
    1UNL    H17   40  -0.381   0.141   0.086
    1UNL    H18   41  -0.359  -0.141   0.108
    1UNL    H19   42  -0.471  -0.062  -0.013
    1UNL    H20   43  -0.307  -0.123  -0.177
    1UNL    H21   44  -0.057   0.131  -0.081
    1UNL    H22   45  -0.165   0.270  -0.117
    1UNL    H23   46  -0.117   0.150  -0.238
    1UNL    H24   47  -0.475   0.072  -0.144
    1UNL    H25   48  -0.401   0.238  -0.149
    1UNL    H26   49  -0.375   0.092  -0.276
   0.00000   0.00000   0.00000   0.00000   0.00000   0.00000   0.00000   0.00000   0.00000
Generated with MDTraj, t= 94.0
 49
    1UNL     C1    1  -0.110  -0.274  -0.008
    1UNL     C2    2  -0.135  -0.123  -0.016
    1UNL     O1    3  -0.027  -0.070  -0.092
    1UNL     C3    4   0.107  -0.066  -0.032
    1UNL     O2    5   0.126   0.067   0.018
    1UNL     C4    6   0.241   0.071   0.098
    1UNL     C5    7   0.248   0.205   0.179
    1UNL     O3    8   0.335   0.198   0.289
    1UNL     C6    9   0.377   0.052   0.009
    1UNL     O4   10   0.404   0.163  -0.076
    1UNL     C7   11   0.361  -0.075  -0.072
    1UNL     O5   12   0.452  -0.069  -0.185
    1UNL     C8   13   0.219  -0.094  -0.133
    1UNL     O6   14   0.206  -0.222  -0.185
    1UNL     C9   15  -0.130  -0.062   0.121
    1UNL     O7   16  -0.074  -0.126   0.205
    1UNL    C10   17  -0.199   0.074   0.141
    1UNL    C11   18  -0.325   0.076   0.055
    1UNL    C12   19  -0.380  -0.064   0.034
    1UNL    C13   20  -0.271  -0.091  -0.080
    1UNL    C14   21  -0.284   0.064  -0.102
    1UNL    C15   22  -0.161   0.149  -0.137
    1UNL    C16   23  -0.407   0.086  -0.201
    1UNL     H1   24  -0.052  -0.292   0.075
    1UNL     H2   25  -0.208  -0.325   0.004
    1UNL     H3   26  -0.063  -0.323  -0.094
    1UNL     H4   27   0.103  -0.137   0.056
    1UNL     H5   28   0.242  -0.021   0.153
    1UNL     H6   29   0.295   0.274   0.109
    1UNL     H7   30   0.147   0.246   0.201
    1UNL     H8   31   0.296   0.125   0.347
    1UNL     H9   32   0.467   0.050   0.080
    1UNL    H10   33   0.324   0.182  -0.123
    1UNL    H11   34   0.383  -0.163  -0.006
    1UNL    H12   35   0.473   0.028  -0.204
    1UNL    H13   36   0.219  -0.032  -0.227
    1UNL    H14   37   0.283  -0.251  -0.240
    1UNL    H15   38  -0.230   0.081   0.242
    1UNL    H16   39  -0.135   0.155   0.110
    1UNL    H17   40  -0.398   0.143   0.079
    1UNL    H18   41  -0.386  -0.137   0.121
    1UNL    H19   42  -0.483  -0.069  -0.010
    1UNL    H20   43  -0.304  -0.142  -0.175
    1UNL    H21   44  -0.072   0.143  -0.065
    1UNL    H22   45  -0.181   0.259  -0.156
    1UNL    H23   46  -0.121   0.114  -0.231
    1UNL    H24   47  -0.495   0.030  -0.187
    1UNL    H25   48  -0.429   0.199  -0.192
    1UNL    H26   49  -0.379   0.050  -0.295
   0.00000   0.00000   0.00000   0.00000   0.00000   0.00000   0.00000   0.00000   0.00000
Generated with MDTraj, t= 95.0
 49
    1UNL     C1    1  -0.082  -0.266  -0.016
    1UNL     C2    2  -0.123  -0.115  -0.024
    1UNL     O1    3  -0.023  -0.052  -0.102
    1UNL     C3    4   0.098  -0.049  -0.025
    1UNL     O2    5   0.131   0.078   0.043
    1UNL     C4    6   0.260   0.068   0.115
    1UNL     C5    7   0.272   0.193   0.201
    1UNL     O3    8   0.380   0.182   0.296
    1UNL     C6    9   0.372   0.059   0.004
    1UNL     O4   10   0.366   0.165  -0.091
    1UNL     C7   11   0.356  -0.076  -0.069
    1UNL     O5   12   0.458  -0.091  -0.172
    1UNL     C8   13   0.205  -0.094  -0.123
    1UNL     O6   14   0.185  -0.220  -0.176
    1UNL     C9   15  -0.131  -0.051   0.112
    1UNL     O7   16  -0.071  -0.096   0.207
    1UNL    C10   17  -0.205   0.075   0.124
    1UNL    C11   18  -0.336   0.061   0.039
    1UNL    C12   19  -0.376  -0.091   0.023
    1UNL    C13   20  -0.266  -0.100  -0.083
    1UNL    C14   21  -0.302   0.060  -0.118
    1UNL    C15   22  -0.175   0.145  -0.154
    1UNL    C16   23  -0.426   0.087  -0.196
    1UNL     H1   24   0.024  -0.279  -0.014
    1UNL     H2   25  -0.133  -0.312   0.069
    1UNL     H3   26  -0.122  -0.314  -0.105
    1UNL     H4   27   0.089  -0.123   0.061
    1UNL     H5   28   0.253  -0.022   0.173
    1UNL     H6   29   0.281   0.288   0.151
    1UNL     H7   30   0.176   0.195   0.257
    1UNL     H8   31   0.411   0.095   0.329
    1UNL     H9   32   0.471   0.079   0.063
    1UNL    H10   33   0.271   0.194  -0.094
    1UNL    H11   34   0.373  -0.154   0.008
    1UNL    H12   35   0.499  -0.006  -0.190
    1UNL    H13   36   0.199  -0.037  -0.221
    1UNL    H14   37   0.266  -0.252  -0.219
    1UNL    H15   38  -0.224   0.093   0.224
    1UNL    H16   39  -0.143   0.154   0.084
    1UNL    H17   40  -0.414   0.127   0.063
    1UNL    H18   41  -0.351  -0.158   0.111
    1UNL    H19   42  -0.479  -0.131  -0.007
    1UNL    H20   43  -0.288  -0.164  -0.170
    1UNL    H21   44  -0.094   0.120  -0.075
    1UNL    H22   45  -0.192   0.256  -0.157
    1UNL    H23   46  -0.142   0.109  -0.250
    1UNL    H24   47  -0.513   0.029  -0.162
    1UNL    H25   48  -0.455   0.195  -0.185
    1UNL    H26   49  -0.420   0.048  -0.294
   0.00000   0.00000   0.00000   0.00000   0.00000   0.00000   0.00000   0.00000   0.00000
Generated with MDTraj, t= 96.0
 49
    1UNL     C1    1  -0.096  -0.267  -0.016
    1UNL     C2    2  -0.125  -0.111  -0.026
    1UNL     O1    3  -0.024  -0.044  -0.105
    1UNL     C3    4   0.106  -0.048  -0.040
    1UNL     O2    5   0.135   0.077   0.034
    1UNL     C4    6   0.258   0.074   0.111
    1UNL     C5    7   0.284   0.196   0.203
    1UNL     O3    8   0.409   0.165   0.269
    1UNL     C6    9   0.367   0.068   0.007
    1UNL     O4   10   0.366   0.169  -0.086
    1UNL     C7   11   0.357  -0.072  -0.059
    1UNL     O5   12   0.466  -0.100  -0.139
    1UNL     C8   13   0.221  -0.091  -0.140
    1UNL     O6   14   0.202  -0.224  -0.175
    1UNL     C9   15  -0.134  -0.048   0.112
    1UNL     O7   16  -0.082  -0.096   0.208
    1UNL    C10   17  -0.223   0.072   0.133
    1UNL    C11   18  -0.343   0.059   0.047
    1UNL    C12   19  -0.378  -0.097   0.022
    1UNL    C13   20  -0.261  -0.100  -0.087
    1UNL    C14   21  -0.309   0.054  -0.110
    1UNL    C15   22  -0.202   0.161  -0.139
    1UNL    C16   23  -0.436   0.079  -0.208
    1UNL     H1   24  -0.029  -0.284   0.073
    1UNL     H2   25  -0.183  -0.327  -0.006
    1UNL     H3   26  -0.041  -0.299  -0.101
    1UNL     H4   27   0.097  -0.121   0.048
    1UNL     H5   28   0.247  -0.025   0.156
    1UNL     H6   29   0.296   0.275   0.131
    1UNL     H7   30   0.212   0.225   0.281
    1UNL     H8   31   0.413   0.073   0.299
    1UNL     H9   32   0.474   0.070   0.051
    1UNL    H10   33   0.273   0.198  -0.102
    1UNL    H11   34   0.354  -0.146   0.022
    1UNL    H12   35   0.512  -0.017  -0.162
    1UNL    H13   36   0.220  -0.030  -0.232
    1UNL    H14   37   0.278  -0.261  -0.220
    1UNL    H15   38  -0.249   0.077   0.233
    1UNL    H16   39  -0.168   0.159   0.112
    1UNL    H17   40  -0.429   0.120   0.068
    1UNL    H18   41  -0.355  -0.162   0.112
    1UNL    H19   42  -0.486  -0.114  -0.016
    1UNL    H20   43  -0.271  -0.150  -0.184
    1UNL    H21   44  -0.110   0.139  -0.082
    1UNL    H22   45  -0.238   0.261  -0.105
    1UNL    H23   46  -0.183   0.166  -0.251
    1UNL    H24   47  -0.517   0.001  -0.205
    1UNL    H25   48  -0.473   0.178  -0.194
    1UNL    H26   49  -0.399   0.063  -0.307
   0.00000   0.00000   0.00000   0.00000   0.00000   0.00000   0.00000   0.00000   0.00000
Generated with MDTraj, t= 97.0
 49
    1UNL     C1    1  -0.109  -0.260  -0.024
    1UNL     C2    2  -0.126  -0.112  -0.017
    1UNL     O1    3  -0.021  -0.049  -0.088
    1UNL     C3    4   0.103  -0.046  -0.022
    1UNL     O2    5   0.145   0.080   0.028
    1UNL     C4    6   0.269   0.070   0.114
    1UNL     C5    7   0.278   0.212   0.187
    1UNL     O3    8   0.381   0.230   0.283
    1UNL     C6    9   0.382   0.040   0.016
    1UNL     O4   10   0.403   0.148  -0.076
    1UNL     C7   11   0.350  -0.096  -0.066
    1UNL     O5   12   0.440  -0.099  -0.171
    1UNL     C8   13   0.210  -0.087  -0.138
    1UNL     O6   14   0.188  -0.216  -0.187
    1UNL     C9   15  -0.135  -0.063   0.125
    1UNL     O7   16  -0.065  -0.109   0.209
    1UNL    C10   17  -0.239   0.044   0.153
    1UNL    C11   18  -0.351   0.047   0.047
    1UNL    C12   19  -0.377  -0.101   0.006
    1UNL    C13   20  -0.259  -0.087  -0.093
    1UNL    C14   21  -0.302   0.069  -0.110
    1UNL    C15   22  -0.186   0.162  -0.142
    1UNL    C16   23  -0.417   0.091  -0.212
    1UNL     H1   24  -0.008  -0.288   0.019
    1UNL     H2   25  -0.183  -0.313   0.029
    1UNL     H3   26  -0.107  -0.295  -0.125
    1UNL     H4   27   0.119  -0.122   0.062
    1UNL     H5   28   0.253  -0.011   0.190
    1UNL     H6   29   0.290   0.294   0.118
    1UNL     H7   30   0.180   0.218   0.238
    1UNL     H8   31   0.397   0.144   0.329
    1UNL     H9   32   0.477   0.021   0.077
    1UNL    H10   33   0.318   0.165  -0.116
    1UNL    H11   34   0.346  -0.181   0.004
    1UNL    H12   35   0.490  -0.011  -0.178
    1UNL    H13   36   0.222  -0.014  -0.218
    1UNL    H14   37   0.261  -0.243  -0.248
    1UNL    H15   38  -0.277   0.035   0.250
    1UNL    H16   39  -0.190   0.134   0.152
    1UNL    H17   40  -0.450   0.080   0.080
    1UNL    H18   41  -0.359  -0.178   0.088
    1UNL    H19   42  -0.482  -0.125  -0.034
    1UNL    H20   43  -0.267  -0.149  -0.181
    1UNL    H21   44  -0.119   0.172  -0.061
    1UNL    H22   45  -0.221   0.267  -0.163
    1UNL    H23   46  -0.124   0.134  -0.238
    1UNL    H24   47  -0.497   0.024  -0.172
    1UNL    H25   48  -0.439   0.192  -0.207
    1UNL    H26   49  -0.387   0.047  -0.309
   0.00000   0.00000   0.00000   0.00000   0.00000   0.00000   0.00000   0.00000   0.00000
Generated with MDTraj, t= 98.0
 49
    1UNL     C1    1  -0.096  -0.272  -0.024
    1UNL     C2    2  -0.125  -0.126  -0.020
    1UNL     O1    3  -0.029  -0.057  -0.095
    1UNL     C3    4   0.094  -0.035  -0.037
    1UNL     O2    5   0.132   0.103   0.002
    1UNL     C4    6   0.249   0.095   0.087
    1UNL     C5    7   0.275   0.231   0.164
    1UNL     O3    8   0.370   0.215   0.271
    1UNL     C6    9   0.366   0.048   0.013
    1UNL     O4   10   0.410   0.139  -0.077
    1UNL     C7   11   0.346  -0.091  -0.048
    1UNL     O5   12   0.445  -0.114  -0.148
    1UNL     C8   13   0.214  -0.090  -0.128
    1UNL     O6   14   0.194  -0.216  -0.185
    1UNL     C9   15  -0.141  -0.082   0.129
    1UNL     O7   16  -0.088  -0.140   0.221
    1UNL    C10   17  -0.227   0.037   0.157
    1UNL    C11   18  -0.343   0.046   0.051
    1UNL    C12   19  -0.374  -0.102  -0.004
    1UNL    C13   20  -0.255  -0.086  -0.097
    1UNL    C14   21  -0.292   0.074  -0.095
    1UNL    C15   22  -0.170   0.173  -0.110
    1UNL    C16   23  -0.404   0.114  -0.201
    1UNL     H1   24  -0.019  -0.303   0.047
    1UNL     H2   25  -0.185  -0.330  -0.009
    1UNL     H3   26  -0.058  -0.295  -0.124
    1UNL     H4   27   0.097  -0.088   0.062
    1UNL     H5   28   0.239   0.022   0.174
    1UNL     H6   29   0.313   0.304   0.094
    1UNL     H7   30   0.183   0.274   0.211
    1UNL     H8   31   0.455   0.267   0.257
    1UNL     H9   32   0.458   0.032   0.079
    1UNL    H10   33   0.344   0.156  -0.147
    1UNL    H11   34   0.335  -0.172   0.026
    1UNL    H12   35   0.509  -0.043  -0.163
    1UNL    H13   36   0.215  -0.020  -0.209
    1UNL    H14   37   0.277  -0.253  -0.230
    1UNL    H15   38  -0.270   0.023   0.251
    1UNL    H16   39  -0.165   0.121   0.163
    1UNL    H17   40  -0.432   0.101   0.091
    1UNL    H18   41  -0.365  -0.190   0.067
    1UNL    H19   42  -0.476  -0.121  -0.047
    1UNL    H20   43  -0.262  -0.130  -0.193
    1UNL    H21   44  -0.071   0.122  -0.096
    1UNL    H22   45  -0.176   0.263  -0.044
    1UNL    H23   46  -0.174   0.216  -0.215
    1UNL    H24   47  -0.478   0.036  -0.215
    1UNL    H25   48  -0.437   0.208  -0.168
    1UNL    H26   49  -0.349   0.120  -0.298
   0.00000   0.00000   0.00000   0.00000   0.00000   0.00000   0.00000   0.00000   0.00000
Generated with MDTraj, t= 99.0
 49
    1UNL     C1    1  -0.107  -0.256  -0.091
    1UNL     C2    2  -0.133  -0.110  -0.046
    1UNL     O1    3  -0.021  -0.036  -0.111
    1UNL     C3    4   0.101  -0.053  -0.035
    1UNL     O2    5   0.128   0.078   0.032
    1UNL     C4    6   0.251   0.092   0.110
    1UNL     C5    7   0.263   0.238   0.156
    1UNL     O3    8   0.385   0.257   0.235
    1UNL     C6    9   0.372   0.057   0.022
    1UNL     O4   10   0.381   0.149  -0.091
    1UNL     C7   11   0.355  -0.096  -0.034
    1UNL     O5   12   0.470  -0.142  -0.110
    1UNL     C8   13   0.224  -0.108  -0.117
    1UNL     O6   14   0.205  -0.240  -0.153
    1UNL     C9   15  -0.131  -0.090   0.101
    1UNL     O7   16  -0.066  -0.154   0.177
    1UNL    C10   17  -0.211   0.027   0.156
    1UNL    C11   18  -0.338   0.049   0.068
    1UNL    C12   19  -0.392  -0.094   0.017
    1UNL    C13   20  -0.274  -0.074  -0.093
    1UNL    C14   21  -0.304   0.080  -0.082
    1UNL    C15   22  -0.184   0.160  -0.113
    1UNL    C16   23  -0.417   0.129  -0.173
    1UNL     H1   24  -0.008  -0.279  -0.075
    1UNL     H2   25  -0.169  -0.327  -0.033
    1UNL     H3   26  -0.129  -0.268  -0.199
    1UNL     H4   27   0.086  -0.127   0.048
    1UNL     H5   28   0.243   0.027   0.203
    1UNL     H6   29   0.269   0.304   0.068
    1UNL     H7   30   0.173   0.270   0.217
    1UNL     H8   31   0.370   0.317   0.311
    1UNL     H9   32   0.466   0.068   0.077
    1UNL    H10   33   0.298   0.140  -0.147
    1UNL    H11   34   0.357  -0.162   0.053
    1UNL    H12   35   0.530  -0.070  -0.140
    1UNL    H13   36   0.239  -0.053  -0.208
    1UNL    H14   37   0.293  -0.276  -0.178
    1UNL    H15   38  -0.242  -0.002   0.251
    1UNL    H16   39  -0.150   0.115   0.160
    1UNL    H17   40  -0.419   0.113   0.111
    1UNL    H18   41  -0.374  -0.182   0.081
    1UNL    H19   42  -0.492  -0.101  -0.026
    1UNL    H20   43  -0.301  -0.099  -0.190
    1UNL    H21   44  -0.094   0.122  -0.051
    1UNL    H22   45  -0.206   0.271  -0.095
    1UNL    H23   46  -0.163   0.146  -0.218
    1UNL    H24   47  -0.504   0.071  -0.163
    1UNL    H25   48  -0.438   0.233  -0.151
    1UNL    H26   49  -0.393   0.113  -0.281
   0.00000   0.00000   0.00000   0.00000   0.00000   0.00000   0.00000   0.00000   0.00000
