Generated with MDTraj, t= 0.0
 51
    1UNL     C1    1  -0.551   0.013   0.045
    1UNL     C2    2  -0.493  -0.053  -0.074
    1UNL     C3    3  -0.365  -0.086  -0.085
    1UNL     C4    4  -0.307  -0.151  -0.207
    1UNL     N1    5  -0.157  -0.138  -0.201
    1UNL     C5    6  -0.100  -0.220  -0.085
    1UNL     C6    7  -0.186  -0.194   0.041
    1UNL     C7    8  -0.260  -0.058   0.020
    1UNL     C8    9  -0.159   0.047  -0.037
    1UNL     C9   10  -0.120   0.006  -0.184
    1UNL    C10   11   0.034   0.021  -0.195
    1UNL    C11   12   0.075  -0.029  -0.055
    1UNL    C12   13   0.042  -0.178  -0.056
    1UNL     N2   14   0.144  -0.251  -0.028
    1UNL    C13   15   0.254  -0.165  -0.006
    1UNL    C14   16   0.384  -0.199   0.029
    1UNL    C15   17   0.477  -0.100   0.049
    1UNL    C16   18   0.443   0.036   0.037
    1UNL     O1   19   0.533   0.142   0.056
    1UNL    C17   20   0.663   0.103   0.093
    1UNL    C18   21   0.312   0.070   0.003
    1UNL    C19   22   0.220  -0.030  -0.019
    1UNL    C20   23  -0.023   0.047   0.041
    1UNL     O2   24   0.023   0.179   0.068
    1UNL    C21   25  -0.057   0.237   0.162
    1UNL    C22   26  -0.019   0.375   0.203
    1UNL     O3   27  -0.155   0.185   0.212
    1UNL     H1   28  -0.501   0.108   0.065
    1UNL     H2   29  -0.541  -0.049   0.134
    1UNL     H3   30  -0.658   0.035   0.032
    1UNL     H4   31  -0.559  -0.077  -0.156
    1UNL     H5   32  -0.334  -0.257  -0.211
    1UNL     H6   33  -0.343  -0.103  -0.298
    1UNL     H7   34  -0.101  -0.326  -0.114
    1UNL     H8   35  -0.259  -0.274   0.055
    1UNL     H9   36  -0.123  -0.192   0.131
    1UNL    H10   37  -0.304  -0.022   0.114
    1UNL    H11   38  -0.202   0.148  -0.034
    1UNL    H12   39  -0.173   0.067  -0.259
    1UNL    H13   40   0.075  -0.042  -0.274
    1UNL    H14   41   0.065   0.124  -0.211
    1UNL    H15   42   0.410  -0.303   0.039
    1UNL    H16   43   0.577  -0.127   0.076
    1UNL    H17   44   0.707   0.042   0.015
    1UNL    H18   45   0.660   0.048   0.188
    1UNL    H19   46   0.723   0.193   0.107
    1UNL    H20   47   0.283   0.173  -0.005
    1UNL    H21   48  -0.031  -0.004   0.138
    1UNL    H22   49   0.082   0.399   0.169
    1UNL    H23   50  -0.022   0.385   0.311
    1UNL    H24   51  -0.088   0.448   0.160
   0.00000   0.00000   0.00000   0.00000   0.00000   0.00000   0.00000   0.00000   0.00000
Generated with MDTraj, t= 1.0
 51
    1UNL     C1    1  -0.561   0.033   0.029
    1UNL     C2    2  -0.496  -0.036  -0.094
    1UNL     C3    3  -0.368  -0.082  -0.086
    1UNL     C4    4  -0.303  -0.151  -0.205
    1UNL     N1    5  -0.152  -0.139  -0.202
    1UNL     C5    6  -0.102  -0.222  -0.084
    1UNL     C6    7  -0.188  -0.194   0.038
    1UNL     C7    8  -0.270  -0.056   0.018
    1UNL     C8    9  -0.156   0.045  -0.036
    1UNL     C9   10  -0.112   0.011  -0.187
    1UNL    C10   11   0.042   0.020  -0.195
    1UNL    C11   12   0.078  -0.037  -0.060
    1UNL    C12   13   0.040  -0.183  -0.059
    1UNL     N2   14   0.141  -0.248  -0.010
    1UNL    C13   15   0.247  -0.164   0.025
    1UNL    C14   16   0.379  -0.192   0.063
    1UNL    C15   17   0.476  -0.089   0.070
    1UNL    C16   18   0.447   0.036   0.019
    1UNL     O1   19   0.524   0.152   0.021
    1UNL    C17   20   0.663   0.141   0.062
    1UNL    C18   21   0.310   0.061  -0.019
    1UNL    C19   22   0.222  -0.040  -0.027
    1UNL    C20   23  -0.019   0.038   0.036
    1UNL     O2   24   0.029   0.166   0.081
    1UNL    C21   25  -0.053   0.215   0.178
    1UNL    C22   26   0.007   0.333   0.249
    1UNL     O3   27  -0.169   0.186   0.208
    1UNL     H1   28  -0.484   0.083   0.082
    1UNL     H2   29  -0.615  -0.043   0.084
    1UNL     H3   30  -0.636   0.103  -0.015
    1UNL     H4   31  -0.554  -0.049  -0.191
    1UNL     H5   32  -0.341  -0.257  -0.203
    1UNL     H6   33  -0.338  -0.118  -0.301
    1UNL     H7   34  -0.124  -0.326  -0.110
    1UNL     H8   35  -0.253  -0.280   0.049
    1UNL     H9   36  -0.144  -0.182   0.138
    1UNL    H10   37  -0.309  -0.019   0.123
    1UNL    H11   38  -0.186   0.155  -0.035
    1UNL    H12   39  -0.167   0.069  -0.263
    1UNL    H13   40   0.082  -0.053  -0.270
    1UNL    H14   41   0.072   0.125  -0.206
    1UNL    H15   42   0.399  -0.296   0.084
    1UNL    H16   43   0.578  -0.105   0.116
    1UNL    H17   44   0.683   0.046   0.107
    1UNL    H18   45   0.683   0.214   0.134
    1UNL    H19   46   0.721   0.166  -0.025
    1UNL    H20   47   0.267   0.158  -0.026
    1UNL    H21   48  -0.025  -0.020   0.130
    1UNL    H22   49  -0.045   0.358   0.346
    1UNL    H23   50   0.025   0.412   0.177
    1UNL    H24   51   0.105   0.304   0.269
   0.00000   0.00000   0.00000   0.00000   0.00000   0.00000   0.00000   0.00000   0.00000
Generated with MDTraj, t= 2.0
 51
    1UNL     C1    1  -0.537   0.054   0.012
    1UNL     C2    2  -0.488  -0.038  -0.101
    1UNL     C3    3  -0.362  -0.089  -0.103
    1UNL     C4    4  -0.306  -0.166  -0.215
    1UNL     N1    5  -0.154  -0.147  -0.203
    1UNL     C5    6  -0.097  -0.221  -0.078
    1UNL     C6    7  -0.193  -0.196   0.041
    1UNL     C7    8  -0.263  -0.058   0.005
    1UNL     C8    9  -0.161   0.043  -0.050
    1UNL     C9   10  -0.118  -0.002  -0.193
    1UNL    C10   11   0.035   0.012  -0.198
    1UNL    C11   12   0.070  -0.027  -0.049
    1UNL    C12   13   0.040  -0.178  -0.043
    1UNL     N2   14   0.144  -0.246  -0.001
    1UNL    C13   15   0.249  -0.154   0.027
    1UNL    C14   16   0.376  -0.183   0.057
    1UNL    C15   17   0.468  -0.086   0.057
    1UNL    C16   18   0.439   0.049   0.022
    1UNL     O1   19   0.537   0.159   0.009
    1UNL    C17   20   0.666   0.114   0.050
    1UNL    C18   21   0.304   0.081  -0.009
    1UNL    C19   22   0.217  -0.025  -0.013
    1UNL    C20   23  -0.034   0.044   0.041
    1UNL     O2   24   0.012   0.170   0.078
    1UNL    C21   25  -0.049   0.213   0.191
    1UNL    C22   26   0.015   0.328   0.269
    1UNL     O3   27  -0.154   0.161   0.230
    1UNL     H1   28  -0.490   0.148   0.006
    1UNL     H2   29  -0.523   0.012   0.110
    1UNL     H3   30  -0.651   0.066   0.013
    1UNL     H4   31  -0.550  -0.058  -0.176
    1UNL     H5   32  -0.333  -0.277  -0.210
    1UNL     H6   33  -0.353  -0.138  -0.306
    1UNL     H7   34  -0.087  -0.327  -0.102
    1UNL     H8   35  -0.274  -0.269   0.050
    1UNL     H9   36  -0.141  -0.202   0.139
    1UNL    H10   37  -0.323  -0.018   0.102
    1UNL    H11   38  -0.209   0.151  -0.047
    1UNL    H12   39  -0.173   0.068  -0.260
    1UNL    H13   40   0.094  -0.055  -0.265
    1UNL    H14   41   0.049   0.122  -0.206
    1UNL    H15   42   0.400  -0.290   0.069
    1UNL    H16   43   0.561  -0.107   0.093
    1UNL    H17   44   0.680   0.139   0.153
    1UNL    H18   45   0.724   0.168  -0.015
    1UNL    H19   46   0.677   0.013   0.018
    1UNL    H20   47   0.264   0.186  -0.011
    1UNL    H21   48  -0.054  -0.005   0.137
    1UNL    H22   49   0.074   0.402   0.207
    1UNL    H23   50   0.061   0.282   0.354
    1UNL    H24   51  -0.064   0.388   0.301
   0.00000   0.00000   0.00000   0.00000   0.00000   0.00000   0.00000   0.00000   0.00000
Generated with MDTraj, t= 3.0
 51
    1UNL     C1    1  -0.561   0.046  -0.022
    1UNL     C2    2  -0.496  -0.046  -0.108
    1UNL     C3    3  -0.368  -0.087  -0.101
    1UNL     C4    4  -0.302  -0.166  -0.207
    1UNL     N1    5  -0.152  -0.145  -0.193
    1UNL     C5    6  -0.103  -0.223  -0.077
    1UNL     C6    7  -0.194  -0.191   0.040
    1UNL     C7    8  -0.267  -0.055   0.017
    1UNL     C8    9  -0.166   0.047  -0.034
    1UNL     C9   10  -0.127   0.001  -0.179
    1UNL    C10   11   0.032   0.018  -0.192
    1UNL    C11   12   0.069  -0.026  -0.043
    1UNL    C12   13   0.046  -0.177  -0.047
    1UNL     N2   14   0.148  -0.246  -0.005
    1UNL    C13   15   0.252  -0.158   0.006
    1UNL    C14   16   0.383  -0.191   0.047
    1UNL    C15   17   0.481  -0.091   0.051
    1UNL    C16   18   0.447   0.046   0.025
    1UNL     O1   19   0.535   0.147   0.040
    1UNL    C17   20   0.674   0.110   0.029
    1UNL    C18   21   0.309   0.078  -0.014
    1UNL    C19   22   0.214  -0.023  -0.017
    1UNL    C20   23  -0.028   0.053   0.048
    1UNL     O2   24   0.015   0.183   0.078
    1UNL    C21   25  -0.044   0.216   0.192
    1UNL    C22   26  -0.027   0.354   0.249
    1UNL     O3   27  -0.112   0.139   0.256
    1UNL     H1   28  -0.514   0.140  -0.011
    1UNL     H2   29  -0.576   0.016   0.080
    1UNL     H3   30  -0.668   0.075  -0.045
    1UNL     H4   31  -0.549  -0.086  -0.201
    1UNL     H5   32  -0.337  -0.276  -0.197
    1UNL     H6   33  -0.335  -0.143  -0.304
    1UNL     H7   34  -0.099  -0.330  -0.096
    1UNL     H8   35  -0.274  -0.264   0.052
    1UNL     H9   36  -0.130  -0.201   0.131
    1UNL    H10   37  -0.315  -0.007   0.112
    1UNL    H11   38  -0.211   0.157  -0.040
    1UNL    H12   39  -0.179   0.056  -0.265
    1UNL    H13   40   0.080  -0.046  -0.269
    1UNL    H14   41   0.036   0.128  -0.219
    1UNL    H15   42   0.396  -0.290   0.078
    1UNL    H16   43   0.584  -0.112   0.083
    1UNL    H17   44   0.698   0.027   0.095
    1UNL    H18   45   0.721   0.198   0.056
    1UNL    H19   46   0.693   0.090  -0.075
    1UNL    H20   47   0.281   0.175  -0.035
    1UNL    H21   48  -0.046   0.007   0.146
    1UNL    H22   49  -0.047   0.367   0.357
    1UNL    H23   50  -0.109   0.402   0.200
    1UNL    H24   51   0.069   0.397   0.230
   0.00000   0.00000   0.00000   0.00000   0.00000   0.00000   0.00000   0.00000   0.00000
Generated with MDTraj, t= 4.0
 51
    1UNL     C1    1  -0.558   0.026   0.015
    1UNL     C2    2  -0.500  -0.045  -0.097
    1UNL     C3    3  -0.370  -0.084  -0.103
    1UNL     C4    4  -0.301  -0.156  -0.214
    1UNL     N1    5  -0.142  -0.143  -0.206
    1UNL     C5    6  -0.101  -0.223  -0.078
    1UNL     C6    7  -0.197  -0.193   0.037
    1UNL     C7    8  -0.274  -0.054   0.006
    1UNL     C8    9  -0.161   0.043  -0.040
    1UNL     C9   10  -0.112   0.002  -0.188
    1UNL    C10   11   0.042   0.017  -0.181
    1UNL    C11   12   0.071  -0.030  -0.033
    1UNL    C12   13   0.039  -0.182  -0.042
    1UNL     N2   14   0.146  -0.251  -0.034
    1UNL    C13   15   0.254  -0.163  -0.003
    1UNL    C14   16   0.391  -0.195   0.019
    1UNL    C15   17   0.482  -0.096   0.038
    1UNL    C16   18   0.441   0.038   0.040
    1UNL     O1   19   0.533   0.150   0.039
    1UNL    C17   20   0.671   0.111   0.033
    1UNL    C18   21   0.305   0.063   0.023
    1UNL    C19   22   0.214  -0.031   0.009
    1UNL    C20   23  -0.039   0.050   0.050
    1UNL     O2   24  -0.000   0.188   0.066
    1UNL    C21   25  -0.047   0.231   0.194
    1UNL    C22   26  -0.041   0.373   0.219
    1UNL     O3   27  -0.099   0.158   0.276
    1UNL     H1   28  -0.499   0.109   0.050
    1UNL     H2   29  -0.588  -0.040   0.094
    1UNL     H3   30  -0.654   0.070  -0.023
    1UNL     H4   31  -0.553  -0.061  -0.189
    1UNL     H5   32  -0.336  -0.265  -0.225
    1UNL     H6   33  -0.324  -0.124  -0.311
    1UNL     H7   34  -0.101  -0.327  -0.109
    1UNL     H8   35  -0.265  -0.278   0.047
    1UNL     H9   36  -0.141  -0.183   0.134
    1UNL    H10   37  -0.326  -0.016   0.093
    1UNL    H11   38  -0.207   0.150  -0.046
    1UNL    H12   39  -0.164   0.076  -0.258
    1UNL    H13   40   0.082  -0.050  -0.262
    1UNL    H14   41   0.079   0.123  -0.187
    1UNL    H15   42   0.423  -0.303   0.025
    1UNL    H16   43   0.589  -0.121   0.039
    1UNL    H17   44   0.703   0.084   0.135
    1UNL    H18   45   0.717   0.203   0.003
    1UNL    H19   46   0.697   0.033  -0.043
    1UNL    H20   47   0.273   0.165  -0.009
    1UNL    H21   48  -0.040   0.000   0.146
    1UNL    H22   49  -0.056   0.418   0.124
    1UNL    H23   50   0.060   0.394   0.249
    1UNL    H24   51  -0.110   0.419   0.290
   0.00000   0.00000   0.00000   0.00000   0.00000   0.00000   0.00000   0.00000   0.00000
Generated with MDTraj, t= 5.0
 51
    1UNL     C1    1  -0.557  -0.003   0.034
    1UNL     C2    2  -0.495  -0.057  -0.090
    1UNL     C3    3  -0.363  -0.092  -0.094
    1UNL     C4    4  -0.303  -0.145  -0.213
    1UNL     N1    5  -0.154  -0.126  -0.204
    1UNL     C5    6  -0.101  -0.218  -0.089
    1UNL     C6    7  -0.187  -0.201   0.038
    1UNL     C7    8  -0.267  -0.067   0.016
    1UNL     C8    9  -0.159   0.042  -0.032
    1UNL     C9   10  -0.118   0.023  -0.178
    1UNL    C10   11   0.035   0.040  -0.181
    1UNL    C11   12   0.071  -0.025  -0.049
    1UNL    C12   13   0.044  -0.174  -0.055
    1UNL     N2   14   0.141  -0.250  -0.017
    1UNL    C13   15   0.248  -0.168  -0.002
    1UNL    C14   16   0.380  -0.202   0.015
    1UNL    C15   17   0.475  -0.099   0.025
    1UNL    C16   18   0.440   0.042   0.034
    1UNL     O1   19   0.527   0.145   0.064
    1UNL    C17   20   0.664   0.107   0.053
    1UNL    C18   21   0.308   0.070   0.005
    1UNL    C19   22   0.215  -0.031  -0.000
    1UNL    C20   23  -0.024   0.039   0.053
    1UNL     O2   24   0.015   0.169   0.079
    1UNL    C21   25  -0.048   0.231   0.182
    1UNL    C22   26  -0.006   0.378   0.192
    1UNL     O3   27  -0.135   0.182   0.249
    1UNL     H1   28  -0.526   0.102   0.042
    1UNL     H2   29  -0.522  -0.067   0.112
    1UNL     H3   30  -0.664  -0.016   0.020
    1UNL     H4   31  -0.546  -0.066  -0.182
    1UNL     H5   32  -0.304  -0.258  -0.229
    1UNL     H6   33  -0.352  -0.114  -0.300
    1UNL     H7   34  -0.112  -0.323  -0.109
    1UNL     H8   35  -0.261  -0.281   0.039
    1UNL     H9   36  -0.128  -0.206   0.133
    1UNL    H10   37  -0.305  -0.027   0.101
    1UNL    H11   38  -0.212   0.139  -0.005
    1UNL    H12   39  -0.168   0.087  -0.261
    1UNL    H13   40   0.093  -0.016  -0.260
    1UNL    H14   41   0.071   0.147  -0.172
    1UNL    H15   42   0.408  -0.302   0.023
    1UNL    H16   43   0.573  -0.125   0.036
    1UNL    H17   44   0.685   0.033   0.136
    1UNL    H18   45   0.728   0.196   0.072
    1UNL    H19   46   0.697   0.060  -0.046
    1UNL    H20   47   0.286   0.170  -0.020
    1UNL    H21   48  -0.034  -0.018   0.142
    1UNL    H22   49   0.067   0.382   0.266
    1UNL    H23   50  -0.089   0.448   0.215
    1UNL    H24   51   0.059   0.420   0.116
   0.00000   0.00000   0.00000   0.00000   0.00000   0.00000   0.00000   0.00000   0.00000
Generated with MDTraj, t= 6.0
 51
    1UNL     C1    1  -0.571  -0.024   0.065
    1UNL     C2    2  -0.500  -0.068  -0.057
    1UNL     C3    3  -0.364  -0.089  -0.078
    1UNL     C4    4  -0.308  -0.139  -0.203
    1UNL     N1    5  -0.162  -0.129  -0.203
    1UNL     C5    6  -0.100  -0.215  -0.095
    1UNL     C6    7  -0.179  -0.200   0.036
    1UNL     C7    8  -0.256  -0.060   0.031
    1UNL     C8    9  -0.155   0.046  -0.028
    1UNL     C9   10  -0.121   0.014  -0.178
    1UNL    C10   11   0.031   0.028  -0.191
    1UNL    C11   12   0.073  -0.026  -0.061
    1UNL    C12   13   0.044  -0.173  -0.075
    1UNL     N2   14   0.146  -0.248  -0.054
    1UNL    C13   15   0.258  -0.163  -0.027
    1UNL    C14   16   0.387  -0.202   0.020
    1UNL    C15   17   0.473  -0.101   0.060
    1UNL    C16   18   0.441   0.036   0.041
    1UNL     O1   19   0.538   0.139   0.050
    1UNL    C17   20   0.665   0.101   0.090
    1UNL    C18   21   0.311   0.073   0.006
    1UNL    C19   22   0.223  -0.026  -0.027
    1UNL    C20   23  -0.025   0.048   0.050
    1UNL     O2   24   0.032   0.175   0.077
    1UNL    C21   25  -0.055   0.241   0.161
    1UNL    C22   26   0.001   0.360   0.230
    1UNL     O3   27  -0.169   0.214   0.185
    1UNL     H1   28  -0.517   0.065   0.110
    1UNL     H2   29  -0.575  -0.106   0.135
    1UNL     H3   30  -0.669   0.016   0.057
    1UNL     H4   31  -0.561  -0.086  -0.153
    1UNL     H5   32  -0.356  -0.238  -0.230
    1UNL     H6   33  -0.339  -0.085  -0.292
    1UNL     H7   34  -0.105  -0.310  -0.145
    1UNL     H8   35  -0.259  -0.274   0.054
    1UNL     H9   36  -0.101  -0.211   0.115
    1UNL    H10   37  -0.302  -0.040   0.120
    1UNL    H11   38  -0.196   0.148  -0.027
    1UNL    H12   39  -0.173   0.083  -0.256
    1UNL    H13   40   0.073  -0.020  -0.286
    1UNL    H14   41   0.063   0.135  -0.199
    1UNL    H15   42   0.413  -0.308   0.036
    1UNL    H16   43   0.572  -0.141   0.098
    1UNL    H17   44   0.652   0.053   0.191
    1UNL    H18   45   0.732   0.191   0.103
    1UNL    H19   46   0.721   0.024   0.026
    1UNL    H20   47   0.273   0.172   0.017
    1UNL    H21   48  -0.020  -0.007   0.140
    1UNL    H22   49  -0.063   0.443   0.218
    1UNL    H23   50   0.103   0.389   0.195
    1UNL    H24   51  -0.016   0.341   0.333
   0.00000   0.00000   0.00000   0.00000   0.00000   0.00000   0.00000   0.00000   0.00000
Generated with MDTraj, t= 7.0
 51
    1UNL     C1    1  -0.533  -0.021   0.101
    1UNL     C2    2  -0.495  -0.078  -0.028
    1UNL     C3    3  -0.364  -0.084  -0.073
    1UNL     C4    4  -0.315  -0.127  -0.211
    1UNL     N1    5  -0.160  -0.132  -0.210
    1UNL     C5    6  -0.101  -0.220  -0.105
    1UNL     C6    7  -0.178  -0.200   0.029
    1UNL     C7    8  -0.248  -0.061   0.024
    1UNL     C8    9  -0.160   0.049  -0.041
    1UNL     C9   10  -0.126   0.011  -0.190
    1UNL    C10   11   0.022   0.025  -0.205
    1UNL    C11   12   0.073  -0.025  -0.066
    1UNL    C12   13   0.042  -0.172  -0.069
    1UNL     N2   14   0.145  -0.243  -0.033
    1UNL    C13   15   0.253  -0.159  -0.017
    1UNL    C14   16   0.384  -0.199   0.005
    1UNL    C15   17   0.478  -0.102   0.039
    1UNL    C16   18   0.444   0.033   0.032
    1UNL     O1   19   0.537   0.131   0.074
    1UNL    C17   20   0.659   0.095   0.131
    1UNL    C18   21   0.318   0.071  -0.010
    1UNL    C19   22   0.221  -0.024  -0.044
    1UNL    C20   23  -0.021   0.052   0.036
    1UNL     O2   24   0.030   0.180   0.078
    1UNL    C21   25  -0.061   0.242   0.155
    1UNL    C22   26  -0.012   0.362   0.236
    1UNL     O3   27  -0.178   0.212   0.168
    1UNL     H1   28  -0.504   0.087   0.109
    1UNL     H2   29  -0.489  -0.076   0.184
    1UNL     H3   30  -0.633  -0.011   0.131
    1UNL     H4   31  -0.560  -0.109  -0.100
    1UNL     H5   32  -0.346  -0.233  -0.223
    1UNL     H6   33  -0.364  -0.089  -0.303
    1UNL     H7   34  -0.102  -0.323  -0.133
    1UNL     H8   35  -0.251  -0.283   0.037
    1UNL     H9   36  -0.116  -0.206   0.119
    1UNL    H10   37  -0.282  -0.024   0.122
    1UNL    H11   38  -0.210   0.144  -0.042
    1UNL    H12   39  -0.184   0.076  -0.266
    1UNL    H13   40   0.056  -0.031  -0.298
    1UNL    H14   41   0.063   0.128  -0.224
    1UNL    H15   42   0.417  -0.304   0.000
    1UNL    H16   43   0.579  -0.125   0.062
    1UNL    H17   44   0.639   0.014   0.204
    1UNL    H18   45   0.703   0.184   0.185
    1UNL    H19   46   0.734   0.056   0.058
    1UNL    H20   47   0.292   0.177   0.016
    1UNL    H21   48  -0.040   0.006   0.129
    1UNL    H22   49   0.095   0.352   0.256
    1UNL    H23   50  -0.061   0.360   0.332
    1UNL    H24   51  -0.027   0.445   0.173
   0.00000   0.00000   0.00000   0.00000   0.00000   0.00000   0.00000   0.00000   0.00000
Generated with MDTraj, t= 8.0
 51
    1UNL     C1    1  -0.555  -0.019   0.078
    1UNL     C2    2  -0.494  -0.065  -0.047
    1UNL     C3    3  -0.361  -0.087  -0.064
    1UNL     C4    4  -0.314  -0.137  -0.191
    1UNL     N1    5  -0.165  -0.131  -0.200
    1UNL     C5    6  -0.098  -0.211  -0.092
    1UNL     C6    7  -0.173  -0.197   0.047
    1UNL     C7    8  -0.251  -0.065   0.029
    1UNL     C8    9  -0.158   0.051  -0.029
    1UNL     C9   10  -0.132   0.022  -0.184
    1UNL    C10   11   0.020   0.038  -0.198
    1UNL    C11   12   0.078  -0.022  -0.066
    1UNL    C12   13   0.044  -0.175  -0.071
    1UNL     N2   14   0.148  -0.250  -0.065
    1UNL    C13   15   0.260  -0.162  -0.045
    1UNL    C14   16   0.386  -0.204  -0.010
    1UNL    C15   17   0.470  -0.107   0.039
    1UNL    C16   18   0.440   0.030   0.035
    1UNL     O1   19   0.528   0.138   0.071
    1UNL    C17   20   0.641   0.107   0.152
    1UNL    C18   21   0.310   0.069  -0.000
    1UNL    C19   22   0.223  -0.028  -0.042
    1UNL    C20   23  -0.011   0.042   0.037
    1UNL     O2   24   0.028   0.175   0.067
    1UNL    C21   25  -0.051   0.237   0.158
    1UNL    C22   26  -0.013   0.383   0.189
    1UNL     O3   27  -0.143   0.181   0.212
    1UNL     H1   28  -0.529   0.089   0.082
    1UNL     H2   29  -0.505  -0.077   0.159
    1UNL     H3   30  -0.659  -0.028   0.077
    1UNL     H4   31  -0.549  -0.082  -0.146
    1UNL     H5   32  -0.344  -0.238  -0.224
    1UNL     H6   33  -0.365  -0.085  -0.278
    1UNL     H7   34  -0.098  -0.308  -0.136
    1UNL     H8   35  -0.243  -0.282   0.065
    1UNL     H9   36  -0.106  -0.199   0.134
    1UNL    H10   37  -0.281  -0.023   0.135
    1UNL    H11   38  -0.195   0.149  -0.020
    1UNL    H12   39  -0.199   0.101  -0.238
    1UNL    H13   40   0.054  -0.007  -0.296
    1UNL    H14   41   0.066   0.142  -0.202
    1UNL    H15   42   0.419  -0.302  -0.022
    1UNL    H16   43   0.561  -0.140   0.087
    1UNL    H17   44   0.608   0.060   0.242
    1UNL    H18   45   0.710   0.193   0.171
    1UNL    H19   46   0.691   0.026   0.103
    1UNL    H20   47   0.269   0.162   0.016
    1UNL    H21   48  -0.005  -0.006   0.129
    1UNL    H22   49  -0.100   0.429   0.239
    1UNL    H23   50  -0.002   0.428   0.097
    1UNL    H24   51   0.075   0.385   0.252
   0.00000   0.00000   0.00000   0.00000   0.00000   0.00000   0.00000   0.00000   0.00000
Generated with MDTraj, t= 9.0
 51
    1UNL     C1    1  -0.556  -0.001   0.071
    1UNL     C2    2  -0.496  -0.052  -0.053
    1UNL     C3    3  -0.367  -0.100  -0.073
    1UNL     C4    4  -0.311  -0.148  -0.203
    1UNL     N1    5  -0.167  -0.137  -0.204
    1UNL     C5    6  -0.100  -0.226  -0.099
    1UNL     C6    7  -0.176  -0.204   0.037
    1UNL     C7    8  -0.259  -0.077   0.028
    1UNL     C8    9  -0.163   0.036  -0.030
    1UNL     C9   10  -0.126   0.014  -0.182
    1UNL    C10   11   0.027   0.029  -0.195
    1UNL    C11   12   0.069  -0.028  -0.062
    1UNL    C12   13   0.039  -0.176  -0.078
    1UNL     N2   14   0.142  -0.242  -0.053
    1UNL    C13   15   0.255  -0.163  -0.035
    1UNL    C14   16   0.390  -0.188  -0.014
    1UNL    C15   17   0.475  -0.087   0.021
    1UNL    C16   18   0.436   0.042   0.037
    1UNL     O1   19   0.522   0.144   0.079
    1UNL    C17   20   0.631   0.094   0.147
    1UNL    C18   21   0.303   0.076   0.009
    1UNL    C19   22   0.214  -0.028  -0.032
    1UNL    C20   23  -0.024   0.043   0.040
    1UNL     O2   24   0.012   0.179   0.052
    1UNL    C21   25  -0.032   0.237   0.170
    1UNL    C22   26  -0.011   0.384   0.169
    1UNL     O3   27  -0.079   0.183   0.269
    1UNL     H1   28  -0.480   0.067   0.109
    1UNL     H2   29  -0.572  -0.087   0.137
    1UNL     H3   30  -0.641   0.063   0.053
    1UNL     H4   31  -0.560  -0.056  -0.142
    1UNL     H5   32  -0.350  -0.249  -0.215
    1UNL     H6   33  -0.348  -0.111  -0.306
    1UNL     H7   34  -0.101  -0.321  -0.144
    1UNL     H8   35  -0.248  -0.288   0.054
    1UNL     H9   36  -0.110  -0.203   0.124
    1UNL    H10   37  -0.306  -0.040   0.133
    1UNL    H11   38  -0.216   0.126  -0.031
    1UNL    H12   39  -0.193   0.077  -0.253
    1UNL    H13   40   0.071  -0.025  -0.284
    1UNL    H14   41   0.050   0.139  -0.214
    1UNL    H15   42   0.424  -0.294  -0.039
    1UNL    H16   43   0.584  -0.106   0.030
    1UNL    H17   44   0.609   0.001   0.189
    1UNL    H18   45   0.667   0.166   0.219
    1UNL    H19   46   0.701   0.076   0.072
    1UNL    H20   47   0.276   0.185   0.009
    1UNL    H21   48  -0.017   0.004   0.136
    1UNL    H22   49   0.055   0.411   0.089
    1UNL    H23   50   0.039   0.409   0.256
    1UNL    H24   51  -0.107   0.436   0.154
   0.00000   0.00000   0.00000   0.00000   0.00000   0.00000   0.00000   0.00000   0.00000
Generated with MDTraj, t= 10.0
 51
    1UNL     C1    1  -0.554   0.016   0.046
    1UNL     C2    2  -0.508  -0.064  -0.061
    1UNL     C3    3  -0.376  -0.101  -0.078
    1UNL     C4    4  -0.316  -0.160  -0.202
    1UNL     N1    5  -0.166  -0.143  -0.199
    1UNL     C5    6  -0.102  -0.219  -0.094
    1UNL     C6    7  -0.183  -0.202   0.041
    1UNL     C7    8  -0.264  -0.071   0.021
    1UNL     C8    9  -0.165   0.044  -0.042
    1UNL     C9   10  -0.128  -0.000  -0.179
    1UNL    C10   11   0.019   0.023  -0.203
    1UNL    C11   12   0.066  -0.025  -0.063
    1UNL    C12   13   0.041  -0.178  -0.069
    1UNL     N2   14   0.145  -0.248  -0.056
    1UNL    C13   15   0.259  -0.156  -0.043
    1UNL    C14   16   0.388  -0.191  -0.006
    1UNL    C15   17   0.470  -0.090   0.029
    1UNL    C16   18   0.430   0.043   0.040
    1UNL     O1   19   0.512   0.148   0.080
    1UNL    C17   20   0.640   0.119   0.131
    1UNL    C18   21   0.295   0.080   0.006
    1UNL    C19   22   0.212  -0.024  -0.030
    1UNL    C20   23  -0.031   0.049   0.038
    1UNL     O2   24   0.004   0.185   0.050
    1UNL    C21   25  -0.013   0.232   0.176
    1UNL    C22   26   0.020   0.373   0.206
    1UNL     O3   27  -0.056   0.164   0.267
    1UNL     H1   28  -0.511   0.113   0.032
    1UNL     H2   29  -0.521  -0.016   0.145
    1UNL     H3   30  -0.660   0.041   0.060
    1UNL     H4   31  -0.570  -0.101  -0.136
    1UNL     H5   32  -0.339  -0.266  -0.199
    1UNL     H6   33  -0.347  -0.133  -0.309
    1UNL     H7   34  -0.104  -0.321  -0.112
    1UNL     H8   35  -0.252  -0.287   0.064
    1UNL     H9   36  -0.113  -0.193   0.122
    1UNL    H10   37  -0.308  -0.037   0.123
    1UNL    H11   38  -0.206   0.137  -0.026
    1UNL    H12   39  -0.184   0.063  -0.259
    1UNL    H13   40   0.077  -0.040  -0.278
    1UNL    H14   41   0.044   0.133  -0.220
    1UNL    H15   42   0.421  -0.288  -0.002
    1UNL    H16   43   0.571  -0.103   0.049
    1UNL    H17   44   0.634   0.061   0.218
    1UNL    H18   45   0.696   0.210   0.143
    1UNL    H19   46   0.686   0.060   0.060
    1UNL    H20   47   0.261   0.180  -0.003
    1UNL    H21   48  -0.033   0.006   0.132
    1UNL    H22   49   0.013   0.404   0.307
    1UNL    H23   50  -0.049   0.446   0.165
    1UNL    H24   51   0.123   0.389   0.176
   0.00000   0.00000   0.00000   0.00000   0.00000   0.00000   0.00000   0.00000   0.00000
Generated with MDTraj, t= 11.0
 51
    1UNL     C1    1  -0.572   0.012   0.035
    1UNL     C2    2  -0.505  -0.058  -0.071
    1UNL     C3    3  -0.373  -0.088  -0.085
    1UNL     C4    4  -0.318  -0.167  -0.201
    1UNL     N1    5  -0.169  -0.147  -0.199
    1UNL     C5    6  -0.108  -0.225  -0.084
    1UNL     C6    7  -0.192  -0.189   0.043
    1UNL     C7    8  -0.267  -0.053   0.021
    1UNL     C8    9  -0.164   0.048  -0.039
    1UNL     C9   10  -0.145   0.003  -0.191
    1UNL    C10   11   0.010   0.018  -0.209
    1UNL    C11   12   0.070  -0.032  -0.069
    1UNL    C12   13   0.040  -0.180  -0.056
    1UNL     N2   14   0.145  -0.246  -0.038
    1UNL    C13   15   0.254  -0.157  -0.029
    1UNL    C14   16   0.378  -0.183   0.027
    1UNL    C15   17   0.464  -0.077   0.052
    1UNL    C16   18   0.428   0.054   0.038
    1UNL     O1   19   0.509   0.168   0.069
    1UNL    C17   20   0.643   0.136   0.097
    1UNL    C18   21   0.302   0.084  -0.014
    1UNL    C19   22   0.215  -0.020  -0.040
    1UNL    C20   23  -0.025   0.048   0.027
    1UNL     O2   24   0.031   0.180   0.054
    1UNL    C21   25   0.002   0.213   0.183
    1UNL    C22   26   0.053   0.336   0.244
    1UNL     O3   27  -0.071   0.138   0.248
    1UNL     H1   28  -0.554   0.115   0.018
    1UNL     H2   29  -0.531  -0.005   0.133
    1UNL     H3   30  -0.685   0.002   0.047
    1UNL     H4   31  -0.568  -0.092  -0.162
    1UNL     H5   32  -0.324  -0.274  -0.202
    1UNL     H6   33  -0.363  -0.139  -0.303
    1UNL     H7   34  -0.115  -0.324  -0.121
    1UNL     H8   35  -0.263  -0.274   0.041
    1UNL     H9   36  -0.140  -0.183   0.139
    1UNL    H10   37  -0.307  -0.026   0.116
    1UNL    H11   38  -0.207   0.142  -0.038
    1UNL    H12   39  -0.199   0.076  -0.265
    1UNL    H13   40   0.053  -0.038  -0.299
    1UNL    H14   41   0.037   0.127  -0.222
    1UNL    H15   42   0.401  -0.286   0.057
    1UNL    H16   43   0.571  -0.092   0.081
    1UNL    H17   44   0.655   0.076   0.186
    1UNL    H18   45   0.700   0.228   0.110
    1UNL    H19   46   0.687   0.083   0.017
    1UNL    H20   47   0.278   0.188  -0.029
    1UNL    H21   48  -0.020  -0.005   0.116
    1UNL    H22   49   0.046   0.426   0.186
    1UNL    H23   50   0.162   0.336   0.253
    1UNL    H24   51   0.018   0.343   0.342
   0.00000   0.00000   0.00000   0.00000   0.00000   0.00000   0.00000   0.00000   0.00000
Generated with MDTraj, t= 12.0
 51
    1UNL     C1    1  -0.543   0.009   0.057
    1UNL     C2    2  -0.499  -0.051  -0.071
    1UNL     C3    3  -0.367  -0.080  -0.093
    1UNL     C4    4  -0.316  -0.160  -0.207
    1UNL     N1    5  -0.161  -0.148  -0.216
    1UNL     C5    6  -0.108  -0.225  -0.095
    1UNL     C6    7  -0.197  -0.193   0.030
    1UNL     C7    8  -0.269  -0.057   0.007
    1UNL     C8    9  -0.168   0.053  -0.054
    1UNL     C9   10  -0.130   0.002  -0.199
    1UNL    C10   11   0.028   0.018  -0.205
    1UNL    C11   12   0.065  -0.026  -0.066
    1UNL    C12   13   0.032  -0.174  -0.063
    1UNL     N2   14   0.134  -0.242  -0.016
    1UNL    C13   15   0.246  -0.155   0.009
    1UNL    C14   16   0.377  -0.173   0.056
    1UNL    C15   17   0.468  -0.069   0.062
    1UNL    C16   18   0.429   0.060   0.022
    1UNL     O1   19   0.513   0.167   0.020
    1UNL    C17   20   0.641   0.141   0.075
    1UNL    C18   21   0.296   0.080  -0.020
    1UNL    C19   22   0.209  -0.025  -0.023
    1UNL    C20   23  -0.032   0.052   0.025
    1UNL     O2   24   0.021   0.176   0.065
    1UNL    C21   25  -0.014   0.199   0.195
    1UNL    C22   26   0.073   0.310   0.260
    1UNL     O3   27  -0.097   0.137   0.264
    1UNL     H1   28  -0.463   0.075   0.074
    1UNL     H2   29  -0.546  -0.066   0.133
    1UNL     H3   30  -0.641   0.065   0.045
    1UNL     H4   31  -0.563  -0.082  -0.145
    1UNL     H5   32  -0.341  -0.264  -0.203
    1UNL     H6   33  -0.356  -0.130  -0.311
    1UNL     H7   34  -0.093  -0.328  -0.116
    1UNL     H8   35  -0.279  -0.266   0.031
    1UNL     H9   36  -0.138  -0.200   0.122
    1UNL    H10   37  -0.305  -0.012   0.090
    1UNL    H11   38  -0.212   0.148  -0.057
    1UNL    H12   39  -0.190   0.057  -0.282
    1UNL    H13   40   0.058  -0.048  -0.292
    1UNL    H14   41   0.057   0.127  -0.220
    1UNL    H15   42   0.410  -0.275   0.086
    1UNL    H16   43   0.568  -0.094   0.089
    1UNL    H17   44   0.637   0.095   0.177
    1UNL    H18   45   0.700   0.234   0.084
    1UNL    H19   46   0.703   0.071   0.019
    1UNL    H20   47   0.255   0.181  -0.046
    1UNL    H21   48  -0.038  -0.003   0.114
    1UNL    H22   49   0.164   0.270   0.305
    1UNL    H23   50   0.020   0.355   0.343
    1UNL    H24   51   0.089   0.392   0.201
   0.00000   0.00000   0.00000   0.00000   0.00000   0.00000   0.00000   0.00000   0.00000
Generated with MDTraj, t= 13.0
 51
    1UNL     C1    1  -0.579   0.008   0.027
    1UNL     C2    2  -0.505  -0.058  -0.080
    1UNL     C3    3  -0.371  -0.092  -0.087
    1UNL     C4    4  -0.312  -0.156  -0.206
    1UNL     N1    5  -0.164  -0.126  -0.204
    1UNL     C5    6  -0.100  -0.216  -0.093
    1UNL     C6    7  -0.189  -0.199   0.029
    1UNL     C7    8  -0.266  -0.062   0.022
    1UNL     C8    9  -0.163   0.049  -0.034
    1UNL     C9   10  -0.129   0.014  -0.180
    1UNL    C10   11   0.026   0.038  -0.198
    1UNL    C11   12   0.075  -0.023  -0.068
    1UNL    C12   13   0.043  -0.172  -0.067
    1UNL     N2   14   0.141  -0.241  -0.014
    1UNL    C13   15   0.245  -0.151   0.016
    1UNL    C14   16   0.371  -0.181   0.057
    1UNL    C15   17   0.466  -0.079   0.061
    1UNL    C16   18   0.438   0.052   0.007
    1UNL     O1   19   0.529   0.161   0.011
    1UNL    C17   20   0.652   0.131   0.058
    1UNL    C18   21   0.312   0.080  -0.038
    1UNL    C19   22   0.222  -0.023  -0.033
    1UNL    C20   23  -0.023   0.036   0.040
    1UNL     O2   24   0.014   0.167   0.077
    1UNL    C21   25  -0.028   0.203   0.201
    1UNL    C22   26   0.037   0.324   0.251
    1UNL     O3   27  -0.099   0.135   0.269
    1UNL     H1   28  -0.549   0.110   0.016
    1UNL     H2   29  -0.540  -0.017   0.124
    1UNL     H3   30  -0.692  -0.008   0.037
    1UNL     H4   31  -0.570  -0.087  -0.167
    1UNL     H5   32  -0.336  -0.260  -0.200
    1UNL     H6   33  -0.360  -0.125  -0.307
    1UNL     H7   34  -0.108  -0.315  -0.131
    1UNL     H8   35  -0.265  -0.275   0.040
    1UNL     H9   36  -0.129  -0.208   0.120
    1UNL    H10   37  -0.307  -0.025   0.109
    1UNL    H11   38  -0.207   0.148  -0.025
    1UNL    H12   39  -0.186   0.087  -0.250
    1UNL    H13   40   0.064  -0.026  -0.285
    1UNL    H14   41   0.066   0.145  -0.196
    1UNL    H15   42   0.395  -0.279   0.076
    1UNL    H16   43   0.564  -0.101   0.098
    1UNL    H17   44   0.654   0.120   0.172
    1UNL    H18   45   0.715   0.221   0.037
    1UNL    H19   46   0.708   0.040   0.016
    1UNL    H20   47   0.287   0.178  -0.060
    1UNL    H21   48  -0.035  -0.014   0.133
    1UNL    H22   49  -0.040   0.383   0.300
    1UNL    H23   50   0.073   0.375   0.166
    1UNL    H24   51   0.116   0.299   0.318
   0.00000   0.00000   0.00000   0.00000   0.00000   0.00000   0.00000   0.00000   0.00000
Generated with MDTraj, t= 14.0
 51
    1UNL     C1    1  -0.566   0.000   0.038
    1UNL     C2    2  -0.499  -0.061  -0.075
    1UNL     C3    3  -0.366  -0.084  -0.089
    1UNL     C4    4  -0.301  -0.158  -0.209
    1UNL     N1    5  -0.156  -0.133  -0.199
    1UNL     C5    6  -0.098  -0.213  -0.088
    1UNL     C6    7  -0.184  -0.199   0.038
    1UNL     C7    8  -0.265  -0.059   0.019
    1UNL     C8    9  -0.163   0.042  -0.033
    1UNL     C9   10  -0.120   0.013  -0.181
    1UNL    C10   11   0.036   0.026  -0.195
    1UNL    C11   12   0.072  -0.018  -0.052
    1UNL    C12   13   0.041  -0.167  -0.052
    1UNL     N2   14   0.144  -0.242  -0.033
    1UNL    C13   15   0.249  -0.153  -0.008
    1UNL    C14   16   0.385  -0.193   0.014
    1UNL    C15   17   0.479  -0.095   0.027
    1UNL    C16   18   0.444   0.045   0.011
    1UNL     O1   19   0.539   0.150   0.027
    1UNL    C17   20   0.665   0.101   0.046
    1UNL    C18   21   0.311   0.084  -0.006
    1UNL    C19   22   0.218  -0.014  -0.022
    1UNL    C20   23  -0.035   0.049   0.050
    1UNL     O2   24   0.001   0.183   0.075
    1UNL    C21   25  -0.048   0.216   0.198
    1UNL    C22   26  -0.027   0.362   0.252
    1UNL     O3   27  -0.107   0.141   0.271
    1UNL     H1   28  -0.527   0.101   0.046
    1UNL     H2   29  -0.543  -0.035   0.139
    1UNL     H3   30  -0.677   0.004   0.048
    1UNL     H4   31  -0.559  -0.091  -0.161
    1UNL     H5   32  -0.320  -0.262  -0.217
    1UNL     H6   33  -0.354  -0.119  -0.306
    1UNL     H7   34  -0.099  -0.316  -0.118
    1UNL     H8   35  -0.252  -0.280   0.056
    1UNL     H9   36  -0.127  -0.200   0.133
    1UNL    H10   37  -0.310  -0.041   0.115
    1UNL    H11   38  -0.206   0.147  -0.040
    1UNL    H12   39  -0.178   0.070  -0.266
    1UNL    H13   40   0.083  -0.041  -0.274
    1UNL    H14   41   0.057   0.138  -0.208
    1UNL    H15   42   0.414  -0.302   0.001
    1UNL    H16   43   0.580  -0.128   0.057
    1UNL    H17   44   0.674   0.042   0.144
    1UNL    H18   45   0.725   0.193   0.061
    1UNL    H19   46   0.713   0.037  -0.037
    1UNL    H20   47   0.271   0.188   0.009
    1UNL    H21   48  -0.032   0.001   0.147
    1UNL    H22   49   0.028   0.410   0.178
    1UNL    H23   50   0.040   0.358   0.334
    1UNL    H24   51  -0.122   0.416   0.270
   0.00000   0.00000   0.00000   0.00000   0.00000   0.00000   0.00000   0.00000   0.00000
Generated with MDTraj, t= 15.0
 51
    1UNL     C1    1  -0.558  -0.006   0.051
    1UNL     C2    2  -0.496  -0.060  -0.068
    1UNL     C3    3  -0.363  -0.087  -0.075
    1UNL     C4    4  -0.304  -0.142  -0.201
    1UNL     N1    5  -0.152  -0.130  -0.201
    1UNL     C5    6  -0.103  -0.220  -0.085
    1UNL     C6    7  -0.191  -0.198   0.038
    1UNL     C7    8  -0.265  -0.059   0.024
    1UNL     C8    9  -0.164   0.049  -0.024
    1UNL     C9   10  -0.117   0.010  -0.169
    1UNL    C10   11   0.034   0.025  -0.180
    1UNL    C11   12   0.072  -0.021  -0.041
    1UNL    C12   13   0.041  -0.173  -0.047
    1UNL     N2   14   0.150  -0.241  -0.051
    1UNL    C13   15   0.258  -0.158  -0.031
    1UNL    C14   16   0.396  -0.191  -0.026
    1UNL    C15   17   0.491  -0.096   0.001
    1UNL    C16   18   0.452   0.038   0.024
    1UNL     O1   19   0.539   0.139   0.051
    1UNL    C17   20   0.679   0.105   0.037
    1UNL    C18   21   0.313   0.065   0.019
    1UNL    C19   22   0.222  -0.027  -0.016
    1UNL    C20   23  -0.021   0.053   0.053
    1UNL     O2   24   0.017   0.184   0.092
    1UNL    C21   25  -0.067   0.227   0.192
    1UNL    C22   26  -0.058   0.371   0.217
    1UNL     O3   27  -0.148   0.160   0.246
    1UNL     H1   28  -0.488   0.073   0.084
    1UNL     H2   29  -0.567  -0.082   0.130
    1UNL     H3   30  -0.659   0.030   0.029
    1UNL     H4   31  -0.551  -0.079  -0.151
    1UNL     H5   32  -0.338  -0.242  -0.214
    1UNL     H6   33  -0.352  -0.095  -0.294
    1UNL     H7   34  -0.098  -0.325  -0.108
    1UNL     H8   35  -0.263  -0.276   0.037
    1UNL     H9   36  -0.143  -0.209   0.138
    1UNL    H10   37  -0.307  -0.034   0.128
    1UNL    H11   38  -0.212   0.156  -0.010
    1UNL    H12   39  -0.178   0.081  -0.240
    1UNL    H13   40   0.083  -0.039  -0.261
    1UNL    H14   41   0.062   0.136  -0.189
    1UNL    H15   42   0.425  -0.287  -0.053
    1UNL    H16   43   0.593  -0.121   0.007
    1UNL    H17   44   0.711   0.023   0.105
    1UNL    H18   45   0.729   0.196   0.067
    1UNL    H19   46   0.713   0.078  -0.066
    1UNL    H20   47   0.286   0.163   0.045
    1UNL    H21   48  -0.030  -0.003   0.147
    1UNL    H22   49  -0.032   0.371   0.317
    1UNL    H23   50  -0.155   0.418   0.215
    1UNL    H24   51   0.014   0.417   0.147
   0.00000   0.00000   0.00000   0.00000   0.00000   0.00000   0.00000   0.00000   0.00000
Generated with MDTraj, t= 16.0
 51
    1UNL     C1    1  -0.551  -0.001   0.064
    1UNL     C2    2  -0.489  -0.063  -0.052
    1UNL     C3    3  -0.360  -0.093  -0.072
    1UNL     C4    4  -0.312  -0.139  -0.203
    1UNL     N1    5  -0.160  -0.118  -0.196
    1UNL     C5    6  -0.095  -0.215  -0.095
    1UNL     C6    7  -0.178  -0.218   0.030
    1UNL     C7    8  -0.258  -0.085   0.039
    1UNL     C8    9  -0.163   0.038  -0.004
    1UNL     C9   10  -0.132   0.027  -0.160
    1UNL    C10   11   0.023   0.048  -0.172
    1UNL    C11   12   0.075  -0.021  -0.040
    1UNL    C12   13   0.045  -0.174  -0.062
    1UNL     N2   14   0.151  -0.245  -0.065
    1UNL    C13   15   0.263  -0.161  -0.042
    1UNL    C14   16   0.395  -0.197  -0.027
    1UNL    C15   17   0.489  -0.104   0.006
    1UNL    C16   18   0.453   0.032   0.029
    1UNL     O1   19   0.538   0.145   0.057
    1UNL    C17   20   0.681   0.113   0.043
    1UNL    C18   21   0.317   0.061   0.018
    1UNL    C19   22   0.223  -0.028  -0.014
    1UNL    C20   23  -0.021   0.034   0.067
    1UNL     O2   24   0.022   0.162   0.113
    1UNL    C21   25  -0.078   0.233   0.173
    1UNL    C22   26  -0.031   0.379   0.204
    1UNL     O3   27  -0.188   0.192   0.199
    1UNL     H1   28  -0.526   0.107   0.045
    1UNL     H2   29  -0.502  -0.036   0.157
    1UNL     H3   30  -0.655  -0.025   0.066
    1UNL     H4   31  -0.562  -0.073  -0.141
    1UNL     H5   32  -0.353  -0.235  -0.228
    1UNL     H6   33  -0.353  -0.077  -0.290
    1UNL     H7   34  -0.087  -0.310  -0.148
    1UNL     H8   35  -0.247  -0.299   0.022
    1UNL     H9   36  -0.111  -0.231   0.116
    1UNL    H10   37  -0.312  -0.051   0.138
    1UNL    H11   38  -0.208   0.146   0.014
    1UNL    H12   39  -0.191   0.112  -0.214
    1UNL    H13   40   0.070  -0.008  -0.260
    1UNL    H14   41   0.050   0.159  -0.186
    1UNL    H15   42   0.418  -0.304  -0.037
    1UNL    H16   43   0.596  -0.128   0.011
    1UNL    H17   44   0.712   0.050   0.124
    1UNL    H18   45   0.728   0.207   0.049
    1UNL    H19   46   0.700   0.067  -0.052
    1UNL    H20   47   0.295   0.167   0.021
    1UNL    H21   48  -0.029  -0.039   0.149
    1UNL    H22   49  -0.098   0.447   0.158
    1UNL    H23   50   0.068   0.411   0.173
    1UNL    H24   51  -0.023   0.395   0.310
   0.00000   0.00000   0.00000   0.00000   0.00000   0.00000   0.00000   0.00000   0.00000
Generated with MDTraj, t= 17.0
 51
    1UNL     C1    1  -0.531  -0.017   0.091
    1UNL     C2    2  -0.485  -0.060  -0.042
    1UNL     C3    3  -0.361  -0.098  -0.069
    1UNL     C4    4  -0.312  -0.134  -0.206
    1UNL     N1    5  -0.162  -0.121  -0.204
    1UNL     C5    6  -0.094  -0.216  -0.106
    1UNL     C6    7  -0.171  -0.219   0.027
    1UNL     C7    8  -0.252  -0.088   0.033
    1UNL     C8    9  -0.161   0.028  -0.005
    1UNL     C9   10  -0.127   0.022  -0.160
    1UNL    C10   11   0.028   0.039  -0.187
    1UNL    C11   12   0.071  -0.026  -0.051
    1UNL    C12   13   0.047  -0.170  -0.076
    1UNL     N2   14   0.149  -0.245  -0.058
    1UNL    C13   15   0.256  -0.156  -0.036
    1UNL    C14   16   0.387  -0.195  -0.016
    1UNL    C15   17   0.478  -0.096   0.012
    1UNL    C16   18   0.444   0.039   0.034
    1UNL     O1   19   0.530   0.143   0.047
    1UNL    C17   20   0.666   0.108   0.064
    1UNL    C18   21   0.306   0.079   0.017
    1UNL    C19   22   0.214  -0.020  -0.014
    1UNL    C20   23  -0.028   0.031   0.062
    1UNL     O2   24   0.017   0.161   0.089
    1UNL    C21   25  -0.067   0.241   0.164
    1UNL    C22   26  -0.004   0.359   0.227
    1UNL     O3   27  -0.183   0.218   0.191
    1UNL     H1   28  -0.450   0.043   0.143
    1UNL     H2   29  -0.547  -0.102   0.161
    1UNL     H3   30  -0.618   0.041   0.102
    1UNL     H4   31  -0.544  -0.058  -0.126
    1UNL     H5   32  -0.329  -0.233  -0.243
    1UNL     H6   33  -0.357  -0.068  -0.287
    1UNL     H7   34  -0.093  -0.315  -0.154
    1UNL     H8   35  -0.239  -0.302   0.029
    1UNL     H9   36  -0.102  -0.230   0.110
    1UNL    H10   37  -0.303  -0.076   0.141
    1UNL    H11   38  -0.211   0.131   0.016
    1UNL    H12   39  -0.198   0.100  -0.209
    1UNL    H13   40   0.076  -0.006  -0.281
    1UNL    H14   41   0.040   0.153  -0.192
    1UNL    H15   42   0.412  -0.302  -0.012
    1UNL    H16   43   0.583  -0.122   0.018
    1UNL    H17   44   0.671   0.043   0.147
    1UNL    H18   45   0.716   0.200   0.074
    1UNL    H19   46   0.690   0.056  -0.025
    1UNL    H20   47   0.272   0.184   0.013
    1UNL    H21   48  -0.027  -0.031   0.154
    1UNL    H22   49   0.106   0.360   0.217
    1UNL    H23   50  -0.036   0.378   0.326
    1UNL    H24   51  -0.042   0.445   0.181
   0.00000   0.00000   0.00000   0.00000   0.00000   0.00000   0.00000   0.00000   0.00000
Generated with MDTraj, t= 18.0
 51
    1UNL     C1    1  -0.567  -0.022   0.081
    1UNL     C2    2  -0.502  -0.074  -0.041
    1UNL     C3    3  -0.372  -0.090  -0.063
    1UNL     C4    4  -0.321  -0.135  -0.193
    1UNL     N1    5  -0.168  -0.125  -0.197
    1UNL     C5    6  -0.105  -0.217  -0.096
    1UNL     C6    7  -0.173  -0.196   0.042
    1UNL     C7    8  -0.255  -0.058   0.036
    1UNL     C8    9  -0.157   0.046  -0.023
    1UNL     C9   10  -0.126   0.014  -0.173
    1UNL    C10   11   0.022   0.029  -0.209
    1UNL    C11   12   0.074  -0.020  -0.073
    1UNL    C12   13   0.044  -0.175  -0.079
    1UNL     N2   14   0.151  -0.249  -0.055
    1UNL    C13   15   0.259  -0.157  -0.041
    1UNL    C14   16   0.387  -0.187  -0.003
    1UNL    C15   17   0.479  -0.091   0.026
    1UNL    C16   18   0.439   0.041   0.025
    1UNL     O1   19   0.527   0.153   0.054
    1UNL    C17   20   0.655   0.119   0.097
    1UNL    C18   21   0.310   0.078  -0.017
    1UNL    C19   22   0.223  -0.025  -0.051
    1UNL    C20   23  -0.013   0.043   0.041
    1UNL     O2   24   0.036   0.166   0.086
    1UNL    C21   25  -0.045   0.223   0.178
    1UNL    C22   26  -0.000   0.350   0.230
    1UNL     O3   27  -0.151   0.180   0.224
    1UNL     H1   28  -0.512   0.069   0.114
    1UNL     H2   29  -0.539  -0.089   0.166
    1UNL     H3   30  -0.673  -0.009   0.084
    1UNL     H4   31  -0.561  -0.100  -0.129
    1UNL     H5   32  -0.344  -0.242  -0.211
    1UNL     H6   33  -0.361  -0.089  -0.286
    1UNL     H7   34  -0.123  -0.321  -0.131
    1UNL     H8   35  -0.230  -0.287   0.061
    1UNL     H9   36  -0.103  -0.197   0.123
    1UNL    H10   37  -0.291  -0.036   0.146
    1UNL    H11   38  -0.199   0.147  -0.004
    1UNL    H12   39  -0.195   0.078  -0.242
    1UNL    H13   40   0.061  -0.041  -0.290
    1UNL    H14   41   0.057   0.136  -0.232
    1UNL    H15   42   0.408  -0.288   0.012
    1UNL    H16   43   0.581  -0.111   0.049
    1UNL    H17   44   0.642   0.049   0.176
    1UNL    H18   45   0.699   0.210   0.128
    1UNL    H19   46   0.694   0.080   0.004
    1UNL    H20   47   0.286   0.178  -0.021
    1UNL    H21   48  -0.013  -0.031   0.125
    1UNL    H22   49  -0.047   0.376   0.328
    1UNL    H23   50  -0.013   0.421   0.156
    1UNL    H24   51   0.106   0.344   0.244
   0.00000   0.00000   0.00000   0.00000   0.00000   0.00000   0.00000   0.00000   0.00000
Generated with MDTraj, t= 19.0
 51
    1UNL     C1    1  -0.554  -0.015   0.082
    1UNL     C2    2  -0.494  -0.078  -0.037
    1UNL     C3    3  -0.368  -0.092  -0.070
    1UNL     C4    4  -0.329  -0.154  -0.197
    1UNL     N1    5  -0.173  -0.140  -0.211
    1UNL     C5    6  -0.103  -0.210  -0.092
    1UNL     C6    7  -0.178  -0.192   0.040
    1UNL     C7    8  -0.259  -0.060   0.025
    1UNL     C8    9  -0.172   0.051  -0.046
    1UNL     C9   10  -0.139   0.012  -0.198
    1UNL    C10   11   0.014   0.023  -0.214
    1UNL    C11   12   0.070  -0.021  -0.074
    1UNL    C12   13   0.037  -0.168  -0.064
    1UNL     N2   14   0.142  -0.243  -0.047
    1UNL    C13   15   0.253  -0.159  -0.028
    1UNL    C14   16   0.388  -0.188  -0.001
    1UNL    C15   17   0.476  -0.084   0.020
    1UNL    C16   18   0.441   0.049   0.016
    1UNL     O1   19   0.529   0.154   0.043
    1UNL    C17   20   0.643   0.120   0.125
    1UNL    C18   21   0.307   0.076  -0.009
    1UNL    C19   22   0.216  -0.024  -0.037
    1UNL    C20   23  -0.025   0.060   0.028
    1UNL     O2   24   0.015   0.195   0.062
    1UNL    C21   25  -0.022   0.220   0.192
    1UNL    C22   26   0.009   0.361   0.239
    1UNL     O3   27  -0.078   0.130   0.261
    1UNL     H1   28  -0.527   0.092   0.078
    1UNL     H2   29  -0.503  -0.066   0.166
    1UNL     H3   30  -0.662  -0.027   0.087
    1UNL     H4   31  -0.568  -0.103  -0.117
    1UNL     H5   32  -0.369  -0.259  -0.211
    1UNL     H6   33  -0.376  -0.105  -0.283
    1UNL     H7   34  -0.103  -0.317  -0.123
    1UNL     H8   35  -0.248  -0.273   0.058
    1UNL     H9   36  -0.107  -0.195   0.119
    1UNL    H10   37  -0.315  -0.015   0.113
    1UNL    H11   38  -0.205   0.150  -0.034
    1UNL    H12   39  -0.184   0.072  -0.286
    1UNL    H13   40   0.050  -0.043  -0.301
    1UNL    H14   41   0.051   0.130  -0.236
    1UNL    H15   42   0.420  -0.296   0.010
    1UNL    H16   43   0.579  -0.105   0.052
    1UNL    H17   44   0.602   0.071   0.213
    1UNL    H18   45   0.701   0.211   0.151
    1UNL    H19   46   0.692   0.051   0.053
    1UNL    H20   47   0.254   0.176  -0.007
    1UNL    H21   48  -0.031   0.005   0.127
    1UNL    H22   49  -0.007   0.429   0.158
    1UNL    H23   50   0.111   0.349   0.269
    1UNL    H24   51  -0.051   0.391   0.323
   0.00000   0.00000   0.00000   0.00000   0.00000   0.00000   0.00000   0.00000   0.00000
Generated with MDTraj, t= 20.0
 51
    1UNL     C1    1  -0.561  -0.017   0.060
    1UNL     C2    2  -0.502  -0.062  -0.064
    1UNL     C3    3  -0.374  -0.095  -0.075
    1UNL     C4    4  -0.320  -0.155  -0.200
    1UNL     N1    5  -0.175  -0.135  -0.200
    1UNL     C5    6  -0.104  -0.224  -0.092
    1UNL     C6    7  -0.186  -0.197   0.035
    1UNL     C7    8  -0.265  -0.064   0.026
    1UNL     C8    9  -0.178   0.045  -0.026
    1UNL     C9   10  -0.144   0.015  -0.176
    1UNL    C10   11   0.009   0.034  -0.194
    1UNL    C11   12   0.064  -0.024  -0.069
    1UNL    C12   13   0.041  -0.172  -0.072
    1UNL     N2   14   0.146  -0.244  -0.047
    1UNL    C13   15   0.247  -0.154  -0.023
    1UNL    C14   16   0.379  -0.182   0.011
    1UNL    C15   17   0.472  -0.081   0.030
    1UNL    C16   18   0.432   0.053   0.013
    1UNL     O1   19   0.519   0.165   0.039
    1UNL    C17   20   0.629   0.128   0.126
    1UNL    C18   21   0.303   0.082  -0.028
    1UNL    C19   22   0.212  -0.020  -0.051
    1UNL    C20   23  -0.033   0.049   0.033
    1UNL     O2   24   0.018   0.181   0.057
    1UNL    C21   25   0.003   0.211   0.186
    1UNL    C22   26   0.025   0.355   0.222
    1UNL     O3   27  -0.020   0.132   0.280
    1UNL     H1   28  -0.489   0.044   0.111
    1UNL     H2   29  -0.566  -0.113   0.116
    1UNL     H3   30  -0.657   0.039   0.055
    1UNL     H4   31  -0.562  -0.074  -0.144
    1UNL     H5   32  -0.336  -0.269  -0.206
    1UNL     H6   33  -0.370  -0.127  -0.291
    1UNL     H7   34  -0.103  -0.331  -0.128
    1UNL     H8   35  -0.256  -0.276   0.052
    1UNL     H9   36  -0.123  -0.205   0.118
    1UNL    H10   37  -0.313  -0.039   0.120
    1UNL    H11   38  -0.227   0.134  -0.020
    1UNL    H12   39  -0.213   0.086  -0.236
    1UNL    H13   40   0.031  -0.025  -0.290
    1UNL    H14   41   0.037   0.144  -0.209
    1UNL    H15   42   0.412  -0.280   0.017
    1UNL    H16   43   0.568  -0.102   0.069
    1UNL    H17   44   0.581   0.070   0.209
    1UNL    H18   45   0.681   0.220   0.170
    1UNL    H19   46   0.693   0.065   0.057
    1UNL    H20   47   0.275   0.184  -0.026
    1UNL    H21   48  -0.035  -0.016   0.127
    1UNL    H22   49   0.125   0.362   0.253
    1UNL    H23   50  -0.041   0.378   0.308
    1UNL    H24   51   0.014   0.420   0.139
   0.00000   0.00000   0.00000   0.00000   0.00000   0.00000   0.00000   0.00000   0.00000
Generated with MDTraj, t= 21.0
 51
    1UNL     C1    1  -0.562   0.003   0.055
    1UNL     C2    2  -0.508  -0.073  -0.059
    1UNL     C3    3  -0.383  -0.097  -0.086
    1UNL     C4    4  -0.319  -0.163  -0.209
    1UNL     N1    5  -0.175  -0.135  -0.205
    1UNL     C5    6  -0.111  -0.215  -0.104
    1UNL     C6    7  -0.189  -0.206   0.033
    1UNL     C7    8  -0.278  -0.073   0.018
    1UNL     C8    9  -0.178   0.042  -0.025
    1UNL     C9   10  -0.137   0.008  -0.183
    1UNL    C10   11   0.013   0.025  -0.200
    1UNL    C11   12   0.054  -0.026  -0.062
    1UNL    C12   13   0.038  -0.174  -0.076
    1UNL     N2   14   0.146  -0.242  -0.058
    1UNL    C13   15   0.251  -0.150  -0.016
    1UNL    C14   16   0.384  -0.178   0.012
    1UNL    C15   17   0.466  -0.073   0.041
    1UNL    C16   18   0.422   0.058   0.022
    1UNL     O1   19   0.504   0.167   0.045
    1UNL    C17   20   0.632   0.150   0.102
    1UNL    C18   21   0.289   0.082  -0.009
    1UNL    C19   22   0.205  -0.020  -0.029
    1UNL    C20   23  -0.040   0.038   0.045
    1UNL     O2   24   0.003   0.172   0.057
    1UNL    C21   25   0.019   0.213   0.190
    1UNL    C22   26   0.078   0.345   0.225
    1UNL     O3   27  -0.003   0.139   0.285
    1UNL     H1   28  -0.537   0.107   0.058
    1UNL     H2   29  -0.509  -0.038   0.141
    1UNL     H3   30  -0.671   0.008   0.086
    1UNL     H4   31  -0.583  -0.101  -0.142
    1UNL     H5   32  -0.335  -0.278  -0.214
    1UNL     H6   33  -0.360  -0.137  -0.305
    1UNL     H7   34  -0.102  -0.322  -0.136
    1UNL     H8   35  -0.240  -0.297   0.055
    1UNL     H9   36  -0.121  -0.203   0.113
    1UNL    H10   37  -0.307  -0.041   0.116
    1UNL    H11   38  -0.208   0.140  -0.014
    1UNL    H12   39  -0.194   0.073  -0.257
    1UNL    H13   40   0.055  -0.034  -0.290
    1UNL    H14   41   0.045   0.136  -0.204
    1UNL    H15   42   0.424  -0.282   0.018
    1UNL    H16   43   0.566  -0.102   0.076
    1UNL    H17   44   0.616   0.087   0.194
    1UNL    H18   45   0.661   0.255   0.139
    1UNL    H19   46   0.702   0.106   0.026
    1UNL    H20   47   0.252   0.183  -0.011
    1UNL    H21   48  -0.042  -0.021   0.143
    1UNL    H22   49   0.027   0.384   0.308
    1UNL    H23   50   0.068   0.419   0.141
    1UNL    H24   51   0.178   0.335   0.254
   0.00000   0.00000   0.00000   0.00000   0.00000   0.00000   0.00000   0.00000   0.00000
Generated with MDTraj, t= 22.0
 51
    1UNL     C1    1  -0.571  -0.007   0.047
    1UNL     C2    2  -0.516  -0.072  -0.069
    1UNL     C3    3  -0.386  -0.102  -0.080
    1UNL     C4    4  -0.324  -0.165  -0.207
    1UNL     N1    5  -0.175  -0.142  -0.201
    1UNL     C5    6  -0.105  -0.219  -0.090
    1UNL     C6    7  -0.188  -0.194   0.039
    1UNL     C7    8  -0.273  -0.065   0.017
    1UNL     C8    9  -0.178   0.040  -0.042
    1UNL     C9   10  -0.142   0.002  -0.190
    1UNL    C10   11   0.011   0.024  -0.204
    1UNL    C11   12   0.057  -0.027  -0.068
    1UNL    C12   13   0.035  -0.176  -0.059
    1UNL     N2   14   0.141  -0.238  -0.034
    1UNL    C13   15   0.243  -0.149  -0.012
    1UNL    C14   16   0.377  -0.175   0.004
    1UNL    C15   17   0.465  -0.066   0.029
    1UNL    C16   18   0.420   0.074   0.033
    1UNL     O1   19   0.500   0.181   0.080
    1UNL    C17   20   0.634   0.141   0.071
    1UNL    C18   21   0.292   0.096  -0.006
    1UNL    C19   22   0.204  -0.010  -0.028
    1UNL    C20   23  -0.040   0.050   0.030
    1UNL     O2   24   0.002   0.188   0.060
    1UNL    C21   25   0.029   0.201   0.192
    1UNL    C22   26   0.105   0.321   0.236
    1UNL     O3   27   0.004   0.115   0.270
    1UNL     H1   28  -0.504   0.063   0.091
    1UNL     H2   29  -0.585  -0.090   0.117
    1UNL     H3   30  -0.666   0.056   0.034
    1UNL     H4   31  -0.588  -0.080  -0.145
    1UNL     H5   32  -0.352  -0.279  -0.202
    1UNL     H6   33  -0.369  -0.150  -0.304
    1UNL     H7   34  -0.110  -0.324  -0.133
    1UNL     H8   35  -0.256  -0.275   0.043
    1UNL     H9   36  -0.133  -0.191   0.129
    1UNL    H10   37  -0.326  -0.033   0.103
    1UNL    H11   38  -0.230   0.136  -0.034
    1UNL    H12   39  -0.192   0.070  -0.267
    1UNL    H13   40   0.055  -0.044  -0.285
    1UNL    H14   41   0.041   0.131  -0.233
    1UNL    H15   42   0.410  -0.279   0.010
    1UNL    H16   43   0.565  -0.094   0.060
    1UNL    H17   44   0.652   0.089   0.167
    1UNL    H18   45   0.701   0.233   0.074
    1UNL    H19   46   0.656   0.079  -0.016
    1UNL    H20   47   0.252   0.200  -0.007
    1UNL    H21   48  -0.044  -0.015   0.124
    1UNL    H22   49   0.110   0.395   0.158
    1UNL    H23   50   0.207   0.293   0.260
    1UNL    H24   51   0.066   0.372   0.320
   0.00000   0.00000   0.00000   0.00000   0.00000   0.00000   0.00000   0.00000   0.00000
Generated with MDTraj, t= 23.0
 51
    1UNL     C1    1  -0.588  -0.015   0.030
    1UNL     C2    2  -0.511  -0.076  -0.081
    1UNL     C3    3  -0.379  -0.097  -0.082
    1UNL     C4    4  -0.320  -0.160  -0.201
    1UNL     N1    5  -0.175  -0.145  -0.204
    1UNL     C5    6  -0.110  -0.216  -0.089
    1UNL     C6    7  -0.195  -0.191   0.045
    1UNL     C7    8  -0.277  -0.063   0.018
    1UNL     C8    9  -0.181   0.050  -0.041
    1UNL     C9   10  -0.142   0.009  -0.187
    1UNL    C10   11   0.011   0.029  -0.197
    1UNL    C11   12   0.060  -0.022  -0.060
    1UNL    C12   13   0.033  -0.171  -0.061
    1UNL     N2   14   0.141  -0.239  -0.042
    1UNL    C13   15   0.250  -0.151  -0.020
    1UNL    C14   16   0.379  -0.173   0.028
    1UNL    C15   17   0.464  -0.068   0.048
    1UNL    C16   18   0.414   0.065   0.027
    1UNL     O1   19   0.496   0.177   0.042
    1UNL    C17   20   0.638   0.153   0.064
    1UNL    C18   21   0.285   0.083  -0.014
    1UNL    C19   22   0.207  -0.023  -0.033
    1UNL    C20   23  -0.044   0.058   0.034
    1UNL     O2   24  -0.003   0.190   0.066
    1UNL    C21   25   0.035   0.191   0.203
    1UNL    C22   26   0.094   0.326   0.244
    1UNL     O3   27   0.035   0.098   0.280
    1UNL     H1   28  -0.533   0.071   0.070
    1UNL     H2   29  -0.588  -0.097   0.100
    1UNL     H3   30  -0.690   0.022  -0.002
    1UNL     H4   31  -0.577  -0.097  -0.164
    1UNL     H5   32  -0.345  -0.273  -0.206
    1UNL     H6   33  -0.369  -0.129  -0.292
    1UNL     H7   34  -0.103  -0.326  -0.115
    1UNL     H8   35  -0.261  -0.270   0.070
    1UNL     H9   36  -0.127  -0.178   0.127
    1UNL    H10   37  -0.317  -0.027   0.108
    1UNL    H11   38  -0.232   0.153  -0.022
    1UNL    H12   39  -0.189   0.070  -0.271
    1UNL    H13   40   0.065  -0.036  -0.275
    1UNL    H14   41   0.036   0.139  -0.219
    1UNL    H15   42   0.418  -0.265   0.059
    1UNL    H16   43   0.561  -0.092   0.083
    1UNL    H17   44   0.654   0.090   0.151
    1UNL    H18   45   0.680   0.248   0.098
    1UNL    H19   46   0.692   0.117  -0.020
    1UNL    H20   47   0.243   0.176  -0.024
    1UNL    H21   48  -0.054   0.011   0.138
    1UNL    H22   49   0.191   0.312   0.286
    1UNL    H23   50   0.031   0.365   0.317
    1UNL    H24   51   0.101   0.396   0.159
   0.00000   0.00000   0.00000   0.00000   0.00000   0.00000   0.00000   0.00000   0.00000
Generated with MDTraj, t= 24.0
 51
    1UNL     C1    1  -0.572  -0.006   0.039
    1UNL     C2    2  -0.507  -0.074  -0.077
    1UNL     C3    3  -0.381  -0.101  -0.096
    1UNL     C4    4  -0.314  -0.153  -0.222
    1UNL     N1    5  -0.167  -0.139  -0.210
    1UNL     C5    6  -0.105  -0.224  -0.101
    1UNL     C6    7  -0.201  -0.207   0.026
    1UNL     C7    8  -0.286  -0.072   0.010
    1UNL     C8    9  -0.191   0.046  -0.037
    1UNL     C9   10  -0.143   0.012  -0.189
    1UNL    C10   11   0.006   0.031  -0.189
    1UNL    C11   12   0.048  -0.020  -0.042
    1UNL    C12   13   0.029  -0.169  -0.057
    1UNL     N2   14   0.130  -0.235  -0.012
    1UNL    C13   15   0.237  -0.142   0.005
    1UNL    C14   16   0.372  -0.170   0.032
    1UNL    C15   17   0.471  -0.068   0.031
    1UNL    C16   18   0.429   0.067   0.016
    1UNL     O1   19   0.517   0.175   0.011
    1UNL    C17   20   0.643   0.154   0.070
    1UNL    C18   21   0.292   0.091  -0.001
    1UNL    C19   22   0.197  -0.012  -0.010
    1UNL    C20   23  -0.059   0.043   0.044
    1UNL     O2   24  -0.023   0.180   0.083
    1UNL    C21   25   0.041   0.190   0.201
    1UNL    C22   26   0.079   0.328   0.235
    1UNL     O3   27   0.070   0.099   0.271
    1UNL     H1   28  -0.538   0.098   0.061
    1UNL     H2   29  -0.543  -0.057   0.130
    1UNL     H3   30  -0.683  -0.001   0.041
    1UNL     H4   31  -0.575  -0.092  -0.166
    1UNL     H5   32  -0.337  -0.262  -0.241
    1UNL     H6   33  -0.341  -0.108  -0.317
    1UNL     H7   34  -0.091  -0.332  -0.135
    1UNL     H8   35  -0.263  -0.290   0.031
    1UNL     H9   36  -0.144  -0.205   0.117
    1UNL    H10   37  -0.324  -0.050   0.106
    1UNL    H11   38  -0.258   0.146  -0.027
    1UNL    H12   39  -0.202   0.068  -0.269
    1UNL    H13   40   0.049  -0.034  -0.274
    1UNL    H14   41   0.045   0.138  -0.201
    1UNL    H15   42   0.388  -0.277   0.063
    1UNL    H16   43   0.578  -0.098   0.041
    1UNL    H17   44   0.629   0.108   0.165
    1UNL    H18   45   0.686   0.250   0.083
    1UNL    H19   46   0.705   0.095   0.010
    1UNL    H20   47   0.257   0.195  -0.022
    1UNL    H21   48  -0.076  -0.011   0.142
    1UNL    H22   49   0.010   0.366   0.304
    1UNL    H23   50   0.078   0.386   0.146
    1UNL    H24   51   0.182   0.325   0.278
   0.00000   0.00000   0.00000   0.00000   0.00000   0.00000   0.00000   0.00000   0.00000
Generated with MDTraj, t= 25.0
 51
    1UNL     C1    1  -0.583  -0.023   0.012
    1UNL     C2    2  -0.514  -0.082  -0.103
    1UNL     C3    3  -0.384  -0.108  -0.098
    1UNL     C4    4  -0.317  -0.161  -0.219
    1UNL     N1    5  -0.170  -0.133  -0.199
    1UNL     C5    6  -0.108  -0.211  -0.086
    1UNL     C6    7  -0.195  -0.203   0.039
    1UNL     C7    8  -0.279  -0.079   0.017
    1UNL     C8    9  -0.185   0.036  -0.022
    1UNL     C9   10  -0.147   0.012  -0.172
    1UNL    C10   11  -0.001   0.048  -0.187
    1UNL    C11   12   0.052  -0.015  -0.051
    1UNL    C12   13   0.026  -0.167  -0.050
    1UNL     N2   14   0.130  -0.235  -0.018
    1UNL    C13   15   0.236  -0.143  -0.001
    1UNL    C14   16   0.366  -0.175   0.025
    1UNL    C15   17   0.453  -0.071   0.037
    1UNL    C16   18   0.420   0.067   0.021
    1UNL     O1   19   0.516   0.173   0.019
    1UNL    C17   20   0.642   0.146   0.066
    1UNL    C18   21   0.286   0.102  -0.009
    1UNL    C19   22   0.196  -0.007  -0.020
    1UNL    C20   23  -0.054   0.043   0.049
    1UNL     O2   24  -0.016   0.182   0.076
    1UNL    C21   25   0.055   0.192   0.196
    1UNL    C22   26   0.087   0.332   0.246
    1UNL     O3   27   0.097   0.099   0.262
    1UNL     H1   28  -0.516   0.041   0.077
    1UNL     H2   29  -0.611  -0.098   0.087
    1UNL     H3   30  -0.670   0.038  -0.004
    1UNL     H4   31  -0.566  -0.097  -0.188
    1UNL     H5   32  -0.328  -0.270  -0.232
    1UNL     H6   33  -0.350  -0.115  -0.314
    1UNL     H7   34  -0.106  -0.315  -0.132
    1UNL     H8   35  -0.264  -0.283   0.041
    1UNL     H9   36  -0.135  -0.196   0.128
    1UNL    H10   37  -0.332  -0.051   0.104
    1UNL    H11   38  -0.234   0.146  -0.013
    1UNL    H12   39  -0.217   0.077  -0.235
    1UNL    H13   40   0.025  -0.007  -0.284
    1UNL    H14   41   0.016   0.161  -0.203
    1UNL    H15   42   0.393  -0.273   0.039
    1UNL    H16   43   0.551  -0.101   0.055
    1UNL    H17   44   0.645   0.133   0.171
    1UNL    H18   45   0.695   0.234   0.038
    1UNL    H19   46   0.682   0.063   0.015
    1UNL    H20   47   0.258   0.200  -0.040
    1UNL    H21   48  -0.038  -0.004   0.150
    1UNL    H22   49   0.093   0.393   0.159
    1UNL    H23   50   0.185   0.346   0.291
    1UNL    H24   51   0.012   0.373   0.312
   0.00000   0.00000   0.00000   0.00000   0.00000   0.00000   0.00000   0.00000   0.00000
Generated with MDTraj, t= 26.0
 51
    1UNL     C1    1  -0.590  -0.025   0.027
    1UNL     C2    2  -0.518  -0.085  -0.089
    1UNL     C3    3  -0.387  -0.103  -0.095
    1UNL     C4    4  -0.316  -0.153  -0.218
    1UNL     N1    5  -0.172  -0.137  -0.201
    1UNL     C5    6  -0.118  -0.216  -0.084
    1UNL     C6    7  -0.209  -0.198   0.047
    1UNL     C7    8  -0.293  -0.068   0.023
    1UNL     C8    9  -0.189   0.044  -0.034
    1UNL     C9   10  -0.140   0.003  -0.182
    1UNL    C10   11   0.015   0.030  -0.193
    1UNL    C11   12   0.054  -0.015  -0.053
    1UNL    C12   13   0.024  -0.168  -0.063
    1UNL     N2   14   0.133  -0.231  -0.034
    1UNL    C13   15   0.242  -0.142  -0.009
    1UNL    C14   16   0.374  -0.167   0.020
    1UNL    C15   17   0.464  -0.066   0.048
    1UNL    C16   18   0.425   0.068   0.037
    1UNL     O1   19   0.502   0.181   0.043
    1UNL    C17   20   0.643   0.157   0.054
    1UNL    C18   21   0.286   0.095   0.004
    1UNL    C19   22   0.198  -0.012  -0.011
    1UNL    C20   23  -0.049   0.046   0.047
    1UNL     O2   24  -0.030   0.190   0.086
    1UNL    C21   25   0.056   0.188   0.186
    1UNL    C22   26   0.107   0.320   0.231
    1UNL     O3   27   0.093   0.088   0.247
    1UNL     H1   28  -0.562   0.085   0.036
    1UNL     H2   29  -0.553  -0.076   0.118
    1UNL     H3   30  -0.695  -0.038   0.016
    1UNL     H4   31  -0.585  -0.101  -0.182
    1UNL     H5   32  -0.325  -0.261  -0.230
    1UNL     H6   33  -0.351  -0.100  -0.313
    1UNL     H7   34  -0.115  -0.325  -0.115
    1UNL     H8   35  -0.268  -0.282   0.069
    1UNL     H9   36  -0.144  -0.182   0.131
    1UNL    H10   37  -0.348  -0.030   0.106
    1UNL    H11   38  -0.245   0.143  -0.029
    1UNL    H12   39  -0.179   0.059  -0.272
    1UNL    H13   40   0.077  -0.030  -0.270
    1UNL    H14   41   0.036   0.142  -0.205
    1UNL    H15   42   0.404  -0.273   0.025
    1UNL    H16   43   0.566  -0.087   0.080
    1UNL    H17   44   0.670   0.059   0.092
    1UNL    H18   45   0.684   0.232   0.116
    1UNL    H19   46   0.686   0.167  -0.046
    1UNL    H20   47   0.257   0.195  -0.013
    1UNL    H21   48  -0.061   0.004   0.148
    1UNL    H22   49   0.204   0.304   0.281
    1UNL    H23   50   0.050   0.378   0.303
    1UNL    H24   51   0.123   0.380   0.149
   0.00000   0.00000   0.00000   0.00000   0.00000   0.00000   0.00000   0.00000   0.00000
Generated with MDTraj, t= 27.0
 51
    1UNL     C1    1  -0.581  -0.028   0.044
    1UNL     C2    2  -0.517  -0.089  -0.073
    1UNL     C3    3  -0.386  -0.096  -0.086
    1UNL     C4    4  -0.325  -0.154  -0.213
    1UNL     N1    5  -0.175  -0.138  -0.211
    1UNL     C5    6  -0.107  -0.216  -0.091
    1UNL     C6    7  -0.197  -0.195   0.034
    1UNL     C7    8  -0.275  -0.060   0.010
    1UNL     C8    9  -0.179   0.044  -0.048
    1UNL     C9   10  -0.143   0.008  -0.192
    1UNL    C10   11   0.010   0.025  -0.199
    1UNL    C11   12   0.059  -0.022  -0.065
    1UNL    C12   13   0.030  -0.171  -0.058
    1UNL     N2   14   0.131  -0.237  -0.026
    1UNL    C13   15   0.240  -0.146  -0.006
    1UNL    C14   16   0.372  -0.172   0.019
    1UNL    C15   17   0.455  -0.064   0.038
    1UNL    C16   18   0.411   0.067   0.038
    1UNL     O1   19   0.489   0.182   0.074
    1UNL    C17   20   0.628   0.162   0.047
    1UNL    C18   21   0.278   0.091   0.003
    1UNL    C19   22   0.201  -0.014  -0.024
    1UNL    C20   23  -0.052   0.049   0.033
    1UNL     O2   24  -0.013   0.185   0.074
    1UNL    C21   25   0.059   0.193   0.191
    1UNL    C22   26   0.124   0.319   0.234
    1UNL     O3   27   0.072   0.100   0.272
    1UNL     H1   28  -0.522   0.065   0.070
    1UNL     H2   29  -0.567  -0.096   0.133
    1UNL     H3   30  -0.682  -0.011   0.018
    1UNL     H4   31  -0.570  -0.114  -0.160
    1UNL     H5   32  -0.362  -0.252  -0.239
    1UNL     H6   33  -0.347  -0.079  -0.299
    1UNL     H7   34  -0.093  -0.325  -0.118
    1UNL     H8   35  -0.266  -0.275   0.045
    1UNL     H9   36  -0.138  -0.198   0.123
    1UNL    H10   37  -0.314  -0.034   0.107
    1UNL    H11   38  -0.229   0.139  -0.041
    1UNL    H12   39  -0.201   0.069  -0.264
    1UNL    H13   40   0.052  -0.044  -0.281
    1UNL    H14   41   0.047   0.133  -0.216
    1UNL    H15   42   0.396  -0.276   0.023
    1UNL    H16   43   0.563  -0.075   0.055
    1UNL    H17   44   0.686   0.123   0.132
    1UNL    H18   45   0.677   0.256   0.023
    1UNL    H19   46   0.645   0.094  -0.042
    1UNL    H20   47   0.238   0.196  -0.006
    1UNL    H21   48  -0.049  -0.005   0.125
    1UNL    H22   49   0.058   0.361   0.313
    1UNL    H23   50   0.146   0.394   0.161
    1UNL    H24   51   0.216   0.292   0.279
   0.00000   0.00000   0.00000   0.00000   0.00000   0.00000   0.00000   0.00000   0.00000
Generated with MDTraj, t= 28.0
 51
    1UNL     C1    1  -0.580  -0.026   0.054
    1UNL     C2    2  -0.509  -0.071  -0.065
    1UNL     C3    3  -0.382  -0.096  -0.084
    1UNL     C4    4  -0.321  -0.153  -0.211
    1UNL     N1    5  -0.173  -0.130  -0.204
    1UNL     C5    6  -0.105  -0.224  -0.095
    1UNL     C6    7  -0.182  -0.206   0.032
    1UNL     C7    8  -0.268  -0.074   0.021
    1UNL     C8    9  -0.183   0.046  -0.028
    1UNL     C9   10  -0.152   0.018  -0.181
    1UNL    C10   11  -0.005   0.043  -0.199
    1UNL    C11   12   0.053  -0.025  -0.067
    1UNL    C12   13   0.039  -0.172  -0.079
    1UNL     N2   14   0.142  -0.241  -0.046
    1UNL    C13   15   0.244  -0.149  -0.019
    1UNL    C14   16   0.372  -0.166   0.039
    1UNL    C15   17   0.457  -0.064   0.058
    1UNL    C16   18   0.422   0.069   0.029
    1UNL     O1   19   0.502   0.174   0.044
    1UNL    C17   20   0.637   0.147   0.066
    1UNL    C18   21   0.282   0.094  -0.009
    1UNL    C19   22   0.199  -0.013  -0.040
    1UNL    C20   23  -0.041   0.041   0.036
    1UNL     O2   24  -0.001   0.181   0.065
    1UNL    C21   25   0.040   0.193   0.190
    1UNL    C22   26   0.104   0.329   0.229
    1UNL     O3   27   0.027   0.103   0.276
    1UNL     H1   28  -0.534   0.060   0.104
    1UNL     H2   29  -0.584  -0.102   0.138
    1UNL     H3   30  -0.682  -0.000   0.034
    1UNL     H4   31  -0.569  -0.092  -0.154
    1UNL     H5   32  -0.327  -0.260  -0.207
    1UNL     H6   33  -0.385  -0.108  -0.298
    1UNL     H7   34  -0.113  -0.333  -0.124
    1UNL     H8   35  -0.245  -0.293   0.044
    1UNL     H9   36  -0.122  -0.201   0.119
    1UNL    H10   37  -0.308  -0.047   0.119
    1UNL    H11   38  -0.218   0.140  -0.012
    1UNL    H12   39  -0.211   0.065  -0.261
    1UNL    H13   40   0.031  -0.015  -0.291
    1UNL    H14   41   0.026   0.153  -0.214
    1UNL    H15   42   0.411  -0.261   0.065
    1UNL    H16   43   0.549  -0.079   0.103
    1UNL    H17   44   0.649   0.097   0.165
    1UNL    H18   45   0.698   0.238   0.070
    1UNL    H19   46   0.686   0.076  -0.012
    1UNL    H20   47   0.242   0.190  -0.003
    1UNL    H21   48  -0.036  -0.009   0.128
    1UNL    H22   49   0.078   0.400   0.154
    1UNL    H23   50   0.208   0.331   0.253
    1UNL    H24   51   0.055   0.362   0.321
   0.00000   0.00000   0.00000   0.00000   0.00000   0.00000   0.00000   0.00000   0.00000
Generated with MDTraj, t= 29.0
 51
    1UNL     C1    1  -0.544  -0.015   0.079
    1UNL     C2    2  -0.509  -0.082  -0.056
    1UNL     C3    3  -0.381  -0.103  -0.085
    1UNL     C4    4  -0.319  -0.167  -0.211
    1UNL     N1    5  -0.175  -0.134  -0.215
    1UNL     C5    6  -0.108  -0.213  -0.104
    1UNL     C6    7  -0.190  -0.206   0.027
    1UNL     C7    8  -0.271  -0.070   0.022
    1UNL     C8    9  -0.182   0.043  -0.035
    1UNL     C9   10  -0.147   0.003  -0.189
    1UNL    C10   11  -0.001   0.041  -0.198
    1UNL    C11   12   0.057  -0.012  -0.062
    1UNL    C12   13   0.031  -0.167  -0.075
    1UNL     N2   14   0.134  -0.237  -0.036
    1UNL    C13   15   0.245  -0.147  -0.010
    1UNL    C14   16   0.379  -0.172   0.019
    1UNL    C15   17   0.467  -0.068   0.027
    1UNL    C16   18   0.428   0.064   0.010
    1UNL     O1   19   0.526   0.165   0.028
    1UNL    C17   20   0.637   0.134   0.100
    1UNL    C18   21   0.297   0.091  -0.023
    1UNL    C19   22   0.211  -0.014  -0.039
    1UNL    C20   23  -0.044   0.050   0.038
    1UNL     O2   24  -0.006   0.189   0.067
    1UNL    C21   25   0.017   0.203   0.199
    1UNL    C22   26   0.066   0.329   0.240
    1UNL     O3   27   0.000   0.117   0.288
    1UNL     H1   28  -0.509   0.087   0.071
    1UNL     H2   29  -0.488  -0.058   0.166
    1UNL     H3   30  -0.652  -0.019   0.102
    1UNL     H4   31  -0.580  -0.094  -0.141
    1UNL     H5   32  -0.345  -0.271  -0.221
    1UNL     H6   33  -0.367  -0.103  -0.294
    1UNL     H7   34  -0.092  -0.317  -0.143
    1UNL     H8   35  -0.265  -0.283   0.042
    1UNL     H9   36  -0.115  -0.211   0.102
    1UNL    H10   37  -0.327  -0.045   0.113
    1UNL    H11   38  -0.223   0.137  -0.031
    1UNL    H12   39  -0.212   0.063  -0.251
    1UNL    H13   40   0.051  -0.002  -0.292
    1UNL    H14   41   0.015   0.155  -0.207
    1UNL    H15   42   0.407  -0.279   0.023
    1UNL    H16   43   0.578  -0.085   0.038
    1UNL    H17   44   0.603   0.095   0.200
    1UNL    H18   45   0.696   0.225   0.118
    1UNL    H19   46   0.709   0.060   0.051
    1UNL    H20   47   0.275   0.198  -0.018
    1UNL    H21   48  -0.045  -0.009   0.125
    1UNL    H22   49   0.170   0.340   0.233
    1UNL    H23   50   0.023   0.348   0.338
    1UNL    H24   51   0.009   0.400   0.176
   0.00000   0.00000   0.00000   0.00000   0.00000   0.00000   0.00000   0.00000   0.00000
Generated with MDTraj, t= 30.0
 51
    1UNL     C1    1  -0.582  -0.028   0.069
    1UNL     C2    2  -0.513  -0.083  -0.059
    1UNL     C3    3  -0.382  -0.091  -0.071
    1UNL     C4    4  -0.327  -0.150  -0.194
    1UNL     N1    5  -0.180  -0.124  -0.198
    1UNL     C5    6  -0.109  -0.216  -0.086
    1UNL     C6    7  -0.189  -0.193   0.047
    1UNL     C7    8  -0.263  -0.060   0.027
    1UNL     C8    9  -0.165   0.044  -0.032
    1UNL     C9   10  -0.140   0.017  -0.182
    1UNL    C10   11   0.013   0.033  -0.201
    1UNL    C11   12   0.072  -0.027  -0.073
    1UNL    C12   13   0.037  -0.178  -0.076
    1UNL     N2   14   0.145  -0.248  -0.055
    1UNL    C13   15   0.252  -0.157  -0.042
    1UNL    C14   16   0.392  -0.183  -0.014
    1UNL    C15   17   0.481  -0.081   0.016
    1UNL    C16   18   0.442   0.057   0.004
    1UNL     O1   19   0.514   0.171   0.034
    1UNL    C17   20   0.633   0.148   0.106
    1UNL    C18   21   0.305   0.082  -0.023
    1UNL    C19   22   0.217  -0.022  -0.042
    1UNL    C20   23  -0.021   0.041   0.036
    1UNL     O2   24   0.027   0.177   0.069
    1UNL    C21   25   0.005   0.210   0.201
    1UNL    C22   26   0.023   0.353   0.254
    1UNL     O3   27  -0.038   0.125   0.282
    1UNL     H1   28  -0.503  -0.001   0.136
    1UNL     H2   29  -0.644  -0.106   0.115
    1UNL     H3   30  -0.644   0.060   0.033
    1UNL     H4   31  -0.565  -0.116  -0.141
    1UNL     H5   32  -0.344  -0.257  -0.182
    1UNL     H6   33  -0.387  -0.110  -0.283
    1UNL     H7   34  -0.116  -0.326  -0.105
    1UNL     H8   35  -0.262  -0.272   0.059
    1UNL     H9   36  -0.133  -0.187   0.137
    1UNL    H10   37  -0.295  -0.015   0.126
    1UNL    H11   38  -0.202   0.145  -0.017
    1UNL    H12   39  -0.203   0.075  -0.250
    1UNL    H13   40   0.053  -0.019  -0.296
    1UNL    H14   41   0.023   0.146  -0.222
    1UNL    H15   42   0.425  -0.281  -0.012
    1UNL    H16   43   0.577  -0.114   0.044
    1UNL    H17   44   0.602   0.088   0.194
    1UNL    H18   45   0.692   0.235   0.138
    1UNL    H19   46   0.700   0.080   0.052
    1UNL    H20   47   0.263   0.182  -0.014
    1UNL    H21   48  -0.038  -0.014   0.124
    1UNL    H22   49   0.004   0.363   0.358
    1UNL    H23   50  -0.046   0.412   0.193
    1UNL    H24   51   0.119   0.397   0.230
   0.00000   0.00000   0.00000   0.00000   0.00000   0.00000   0.00000   0.00000   0.00000
Generated with MDTraj, t= 31.0
 51
    1UNL     C1    1  -0.548  -0.017   0.091
    1UNL     C2    2  -0.498  -0.064  -0.041
    1UNL     C3    3  -0.374  -0.095  -0.066
    1UNL     C4    4  -0.318  -0.157  -0.199
    1UNL     N1    5  -0.166  -0.135  -0.199
    1UNL     C5    6  -0.096  -0.217  -0.090
    1UNL     C6    7  -0.174  -0.205   0.040
    1UNL     C7    8  -0.260  -0.072   0.031
    1UNL     C8    9  -0.165   0.040  -0.021
    1UNL     C9   10  -0.139   0.014  -0.176
    1UNL    C10   11   0.010   0.035  -0.194
    1UNL    C11   12   0.070  -0.028  -0.063
    1UNL    C12   13   0.042  -0.170  -0.078
    1UNL     N2   14   0.151  -0.238  -0.069
    1UNL    C13   15   0.257  -0.151  -0.045
    1UNL    C14   16   0.390  -0.176  -0.027
    1UNL    C15   17   0.476  -0.075   0.001
    1UNL    C16   18   0.430   0.057   0.014
    1UNL     O1   19   0.523   0.158   0.041
    1UNL    C17   20   0.647   0.116   0.093
    1UNL    C18   21   0.297   0.082  -0.009
    1UNL    C19   22   0.218  -0.022  -0.038
    1UNL    C20   23  -0.022   0.041   0.045
    1UNL     O2   24   0.014   0.180   0.063
    1UNL    C21   25  -0.027   0.216   0.192
    1UNL    C22   26   0.015   0.348   0.248
    1UNL     O3   27  -0.108   0.153   0.263
    1UNL     H1   28  -0.549  -0.092   0.169
    1UNL     H2   29  -0.652   0.016   0.089
    1UNL     H3   30  -0.493   0.079   0.124
    1UNL     H4   31  -0.566  -0.078  -0.134
    1UNL     H5   32  -0.350  -0.262  -0.218
    1UNL     H6   33  -0.364  -0.090  -0.274
    1UNL     H7   34  -0.105  -0.322  -0.123
    1UNL     H8   35  -0.230  -0.297   0.063
    1UNL     H9   36  -0.106  -0.193   0.121
    1UNL    H10   37  -0.299  -0.055   0.139
    1UNL    H11   38  -0.208   0.146  -0.009
    1UNL    H12   39  -0.200   0.075  -0.241
    1UNL    H13   40   0.061  -0.030  -0.274
    1UNL    H14   41   0.038   0.146  -0.213
    1UNL    H15   42   0.430  -0.276  -0.053
    1UNL    H16   43   0.583  -0.094  -0.001
    1UNL    H17   44   0.625   0.036   0.163
    1UNL    H18   45   0.700   0.195   0.145
    1UNL    H19   46   0.710   0.080   0.014
    1UNL    H20   47   0.263   0.181  -0.011
    1UNL    H21   48  -0.010  -0.011   0.135
    1UNL    H22   49  -0.070   0.419   0.242
    1UNL    H23   50   0.101   0.386   0.194
    1UNL    H24   51   0.038   0.343   0.351
   0.00000   0.00000   0.00000   0.00000   0.00000   0.00000   0.00000   0.00000   0.00000
Generated with MDTraj, t= 32.0
 51
    1UNL     C1    1  -0.533   0.006   0.100
    1UNL     C2    2  -0.492  -0.066  -0.021
    1UNL     C3    3  -0.369  -0.103  -0.049
    1UNL     C4    4  -0.315  -0.142  -0.187
    1UNL     N1    5  -0.167  -0.118  -0.197
    1UNL     C5    6  -0.089  -0.222  -0.108
    1UNL     C6    7  -0.157  -0.217   0.032
    1UNL     C7    8  -0.245  -0.083   0.043
    1UNL     C8    9  -0.164   0.034  -0.012
    1UNL     C9   10  -0.139   0.017  -0.160
    1UNL    C10   11   0.008   0.049  -0.187
    1UNL    C11   12   0.068  -0.025  -0.062
    1UNL    C12   13   0.050  -0.173  -0.096
    1UNL     N2   14   0.156  -0.242  -0.078
    1UNL    C13   15   0.264  -0.152  -0.064
    1UNL    C14   16   0.396  -0.183  -0.030
    1UNL    C15   17   0.487  -0.085   0.003
    1UNL    C16   18   0.443   0.047   0.014
    1UNL     O1   19   0.529   0.147   0.061
    1UNL    C17   20   0.664   0.114   0.070
    1UNL    C18   21   0.307   0.079  -0.010
    1UNL    C19   22   0.222  -0.020  -0.048
    1UNL    C20   23  -0.022   0.033   0.054
    1UNL     O2   24   0.017   0.167   0.097
    1UNL    C21   25  -0.068   0.219   0.188
    1UNL    C22   26  -0.010   0.348   0.240
    1UNL     O3   27  -0.182   0.184   0.214
    1UNL     H1   28  -0.581  -0.060   0.174
    1UNL     H2   29  -0.605   0.082   0.076
    1UNL     H3   30  -0.445   0.066   0.139
    1UNL     H4   31  -0.567  -0.078  -0.090
    1UNL     H5   32  -0.339  -0.252  -0.208
    1UNL     H6   33  -0.364  -0.082  -0.262
    1UNL     H7   34  -0.083  -0.324  -0.148
    1UNL     H8   35  -0.223  -0.302   0.042
    1UNL     H9   36  -0.080  -0.229   0.107
    1UNL    H10   37  -0.282  -0.061   0.151
    1UNL    H11   38  -0.224   0.133   0.017
    1UNL    H12   39  -0.206   0.078  -0.216
    1UNL    H13   40   0.056  -0.005  -0.278
    1UNL    H14   41   0.030   0.162  -0.184
    1UNL    H15   42   0.423  -0.285  -0.033
    1UNL    H16   43   0.593  -0.116   0.017
    1UNL    H17   44   0.675   0.055   0.159
    1UNL    H18   45   0.723   0.204   0.068
    1UNL    H19   46   0.688   0.057  -0.014
    1UNL    H20   47   0.266   0.183  -0.008
    1UNL    H21   48  -0.007  -0.037   0.130
    1UNL    H22   49   0.021   0.415   0.155
    1UNL    H23   50   0.074   0.329   0.301
    1UNL    H24   51  -0.085   0.405   0.292
   0.00000   0.00000   0.00000   0.00000   0.00000   0.00000   0.00000   0.00000   0.00000
Generated with MDTraj, t= 33.0
 51
    1UNL     C1    1  -0.527   0.001   0.108
    1UNL     C2    2  -0.486  -0.057  -0.025
    1UNL     C3    3  -0.364  -0.096  -0.054
    1UNL     C4    4  -0.321  -0.137  -0.195
    1UNL     N1    5  -0.176  -0.118  -0.209
    1UNL     C5    6  -0.100  -0.215  -0.103
    1UNL     C6    7  -0.169  -0.223   0.028
    1UNL     C7    8  -0.243  -0.091   0.037
    1UNL     C8    9  -0.161   0.033  -0.012
    1UNL     C9   10  -0.140   0.018  -0.169
    1UNL    C10   11   0.018   0.045  -0.181
    1UNL    C11   12   0.073  -0.027  -0.050
    1UNL    C12   13   0.049  -0.174  -0.075
    1UNL     N2   14   0.157  -0.242  -0.082
    1UNL    C13   15   0.265  -0.157  -0.060
    1UNL    C14   16   0.400  -0.189  -0.037
    1UNL    C15   17   0.491  -0.089  -0.008
    1UNL    C16   18   0.450   0.044   0.018
    1UNL     O1   19   0.533   0.151   0.049
    1UNL    C17   20   0.672   0.123   0.052
    1UNL    C18   21   0.312   0.074   0.015
    1UNL    C19   22   0.222  -0.024  -0.026
    1UNL    C20   23  -0.024   0.028   0.058
    1UNL     O2   24   0.018   0.159   0.106
    1UNL    C21   25  -0.075   0.220   0.192
    1UNL    C22   26  -0.027   0.360   0.227
    1UNL     O3   27  -0.187   0.185   0.216
    1UNL     H1   28  -0.484  -0.064   0.190
    1UNL     H2   29  -0.635  -0.001   0.114
    1UNL     H3   30  -0.491   0.105   0.108
    1UNL     H4   31  -0.567  -0.056  -0.102
    1UNL     H5   32  -0.347  -0.243  -0.238
    1UNL     H6   33  -0.365  -0.067  -0.263
    1UNL     H7   34  -0.091  -0.316  -0.143
    1UNL     H8   35  -0.240  -0.305   0.028
    1UNL     H9   36  -0.098  -0.239   0.108
    1UNL    H10   37  -0.262  -0.063   0.148
    1UNL    H11   38  -0.209   0.134   0.026
    1UNL    H12   39  -0.194   0.086  -0.231
    1UNL    H13   40   0.056   0.010  -0.285
    1UNL    H14   41   0.015   0.161  -0.178
    1UNL    H15   42   0.441  -0.289  -0.052
    1UNL    H16   43   0.591  -0.110  -0.011
    1UNL    H17   44   0.695   0.048   0.127
    1UNL    H18   45   0.716   0.221   0.071
    1UNL    H19   46   0.698   0.092  -0.043
    1UNL    H20   47   0.284   0.171   0.037
    1UNL    H21   48  -0.026  -0.027   0.148
    1UNL    H22   49   0.082   0.375   0.239
    1UNL    H23   50  -0.074   0.381   0.320
    1UNL    H24   51  -0.062   0.430   0.152
   0.00000   0.00000   0.00000   0.00000   0.00000   0.00000   0.00000   0.00000   0.00000
Generated with MDTraj, t= 34.0
 51
    1UNL     C1    1  -0.549  -0.034   0.075
    1UNL     C2    2  -0.493  -0.065  -0.060
    1UNL     C3    3  -0.367  -0.096  -0.067
    1UNL     C4    4  -0.309  -0.142  -0.202
    1UNL     N1    5  -0.157  -0.122  -0.195
    1UNL     C5    6  -0.094  -0.221  -0.091
    1UNL     C6    7  -0.185  -0.218   0.039
    1UNL     C7    8  -0.263  -0.080   0.045
    1UNL     C8    9  -0.160   0.039  -0.002
    1UNL     C9   10  -0.132   0.019  -0.164
    1UNL    C10   11   0.016   0.046  -0.177
    1UNL    C11   12   0.070  -0.018  -0.048
    1UNL    C12   13   0.040  -0.170  -0.071
    1UNL     N2   14   0.142  -0.241  -0.067
    1UNL    C13   15   0.256  -0.151  -0.045
    1UNL    C14   16   0.389  -0.186  -0.044
    1UNL    C15   17   0.481  -0.088  -0.013
    1UNL    C16   18   0.441   0.044   0.014
    1UNL     O1   19   0.525   0.154   0.039
    1UNL    C17   20   0.666   0.117   0.039
    1UNL    C18   21   0.309   0.075   0.008
    1UNL    C19   22   0.219  -0.021  -0.022
    1UNL    C20   23  -0.021   0.040   0.059
    1UNL     O2   24   0.027   0.179   0.089
    1UNL    C21   25  -0.043   0.223   0.200
    1UNL    C22   26  -0.026   0.370   0.236
    1UNL     O3   27  -0.128   0.161   0.251
    1UNL     H1   28  -0.567  -0.125   0.141
    1UNL     H2   29  -0.649   0.012   0.075
    1UNL     H3   30  -0.492   0.040   0.127
    1UNL     H4   31  -0.563  -0.070  -0.145
    1UNL     H5   32  -0.326  -0.252  -0.238
    1UNL     H6   33  -0.345  -0.083  -0.284
    1UNL     H7   34  -0.088  -0.319  -0.137
    1UNL     H8   35  -0.253  -0.300   0.049
    1UNL     H9   36  -0.122  -0.228   0.129
    1UNL    H10   37  -0.319  -0.069   0.145
    1UNL    H11   38  -0.218   0.132   0.009
    1UNL    H12   39  -0.184   0.090  -0.224
    1UNL    H13   40   0.052  -0.018  -0.266
    1UNL    H14   41   0.044   0.158  -0.194
    1UNL    H15   42   0.412  -0.282  -0.088
    1UNL    H16   43   0.592  -0.103  -0.026
    1UNL    H17   44   0.683   0.025   0.098
    1UNL    H18   45   0.715   0.209   0.079
    1UNL    H19   46   0.687   0.105  -0.064
    1UNL    H20   47   0.278   0.178   0.030
    1UNL    H21   48  -0.025  -0.024   0.143
    1UNL    H22   49  -0.044   0.390   0.339
    1UNL    H23   50  -0.103   0.425   0.181
    1UNL    H24   51   0.074   0.408   0.211
   0.00000   0.00000   0.00000   0.00000   0.00000   0.00000   0.00000   0.00000   0.00000
Generated with MDTraj, t= 35.0
 51
    1UNL     C1    1  -0.588  -0.037   0.058
    1UNL     C2    2  -0.507  -0.094  -0.059
    1UNL     C3    3  -0.376  -0.094  -0.078
    1UNL     C4    4  -0.318  -0.141  -0.199
    1UNL     N1    5  -0.165  -0.128  -0.194
    1UNL     C5    6  -0.103  -0.213  -0.085
    1UNL     C6    7  -0.186  -0.195   0.045
    1UNL     C7    8  -0.263  -0.069   0.023
    1UNL     C8    9  -0.166   0.045  -0.020
    1UNL     C9   10  -0.130   0.017  -0.165
    1UNL    C10   11   0.020   0.041  -0.191
    1UNL    C11   12   0.069  -0.018  -0.058
    1UNL    C12   13   0.040  -0.163  -0.064
    1UNL     N2   14   0.146  -0.231  -0.058
    1UNL    C13   15   0.256  -0.150  -0.034
    1UNL    C14   16   0.391  -0.182  -0.023
    1UNL    C15   17   0.484  -0.085   0.008
    1UNL    C16   18   0.448   0.048   0.003
    1UNL     O1   19   0.533   0.154   0.019
    1UNL    C17   20   0.676   0.125   0.040
    1UNL    C18   21   0.313   0.084  -0.008
    1UNL    C19   22   0.218  -0.017  -0.024
    1UNL    C20   23  -0.026   0.042   0.053
    1UNL     O2   24   0.014   0.179   0.084
    1UNL    C21   25  -0.030   0.208   0.212
    1UNL    C22   26  -0.004   0.350   0.252
    1UNL     O3   27  -0.096   0.142   0.281
    1UNL     H1   28  -0.608  -0.105   0.145
    1UNL     H2   29  -0.691   0.000   0.037
    1UNL     H3   30  -0.540   0.048   0.096
    1UNL     H4   31  -0.573  -0.133  -0.127
    1UNL     H5   32  -0.349  -0.248  -0.224
    1UNL     H6   33  -0.350  -0.082  -0.285
    1UNL     H7   34  -0.106  -0.319  -0.105
    1UNL     H8   35  -0.259  -0.272   0.050
    1UNL     H9   36  -0.138  -0.191   0.146
    1UNL    H10   37  -0.294  -0.036   0.128
    1UNL    H11   38  -0.198   0.143   0.000
    1UNL    H12   39  -0.185   0.067  -0.240
    1UNL    H13   40   0.057  -0.033  -0.271
    1UNL    H14   41   0.047   0.150  -0.223
    1UNL    H15   42   0.424  -0.279  -0.053
    1UNL    H16   43   0.586  -0.117   0.012
    1UNL    H17   44   0.695   0.075   0.139
    1UNL    H18   45   0.719   0.231   0.029
    1UNL    H19   46   0.707   0.064  -0.044
    1UNL    H20   47   0.269   0.182   0.008
    1UNL    H21   48  -0.021  -0.003   0.149
    1UNL    H22   49  -0.097   0.401   0.244
    1UNL    H23   50   0.061   0.406   0.179
    1UNL    H24   51   0.035   0.355   0.352
   0.00000   0.00000   0.00000   0.00000   0.00000   0.00000   0.00000   0.00000   0.00000
Generated with MDTraj, t= 36.0
 51
    1UNL     C1    1  -0.549  -0.020   0.080
    1UNL     C2    2  -0.495  -0.079  -0.052
    1UNL     C3    3  -0.366  -0.095  -0.072
    1UNL     C4    4  -0.314  -0.145  -0.209
    1UNL     N1    5  -0.167  -0.130  -0.207
    1UNL     C5    6  -0.096  -0.218  -0.101
    1UNL     C6    7  -0.180  -0.202   0.031
    1UNL     C7    8  -0.260  -0.064   0.022
    1UNL     C8    9  -0.168   0.048  -0.041
    1UNL     C9   10  -0.132   0.010  -0.193
    1UNL    C10   11   0.019   0.038  -0.196
    1UNL    C11   12   0.063  -0.014  -0.057
    1UNL    C12   13   0.040  -0.166  -0.061
    1UNL     N2   14   0.140  -0.236  -0.025
    1UNL    C13   15   0.245  -0.143  -0.009
    1UNL    C14   16   0.374  -0.178   0.020
    1UNL    C15   17   0.477  -0.083   0.018
    1UNL    C16   18   0.438   0.054  -0.006
    1UNL     O1   19   0.527   0.168   0.011
    1UNL    C17   20   0.657   0.125   0.033
    1UNL    C18   21   0.308   0.093  -0.031
    1UNL    C19   22   0.214  -0.011  -0.033
    1UNL    C20   23  -0.038   0.043   0.046
    1UNL     O2   24  -0.005   0.183   0.086
    1UNL    C21   25  -0.030   0.195   0.220
    1UNL    C22   26   0.033   0.328   0.264
    1UNL     O3   27  -0.095   0.123   0.287
    1UNL     H1   28  -0.515  -0.078   0.166
    1UNL     H2   29  -0.660  -0.029   0.083
    1UNL     H3   30  -0.520   0.084   0.081
    1UNL     H4   31  -0.580  -0.098  -0.128
    1UNL     H5   32  -0.333  -0.250  -0.240
    1UNL     H6   33  -0.345  -0.084  -0.298
    1UNL     H7   34  -0.076  -0.311  -0.151
    1UNL     H8   35  -0.247  -0.281   0.053
    1UNL     H9   36  -0.105  -0.193   0.111
    1UNL    H10   37  -0.310  -0.048   0.124
    1UNL    H11   38  -0.215   0.137  -0.045
    1UNL    H12   39  -0.196   0.058  -0.265
    1UNL    H13   40   0.076  -0.016  -0.280
    1UNL    H14   41   0.053   0.149  -0.204
    1UNL    H15   42   0.402  -0.284   0.011
    1UNL    H16   43   0.579  -0.111   0.023
    1UNL    H17   44   0.661   0.064   0.128
    1UNL    H18   45   0.715   0.223   0.040
    1UNL    H19   46   0.687   0.068  -0.058
    1UNL    H20   47   0.274   0.193  -0.030
    1UNL    H21   48  -0.042  -0.018   0.134
    1UNL    H22   49   0.049   0.396   0.179
    1UNL    H23   50   0.130   0.330   0.317
    1UNL    H24   51  -0.046   0.368   0.324
   0.00000   0.00000   0.00000   0.00000   0.00000   0.00000   0.00000   0.00000   0.00000
Generated with MDTraj, t= 37.0
 51
    1UNL     C1    1  -0.568  -0.015   0.064
    1UNL     C2    2  -0.496  -0.052  -0.057
    1UNL     C3    3  -0.370  -0.089  -0.065
    1UNL     C4    4  -0.315  -0.148  -0.193
    1UNL     N1    5  -0.168  -0.131  -0.204
    1UNL     C5    6  -0.101  -0.215  -0.095
    1UNL     C6    7  -0.181  -0.204   0.036
    1UNL     C7    8  -0.259  -0.077   0.034
    1UNL     C8    9  -0.169   0.043  -0.023
    1UNL     C9   10  -0.140   0.014  -0.174
    1UNL    C10   11   0.010   0.045  -0.200
    1UNL    C11   12   0.069  -0.023  -0.074
    1UNL    C12   13   0.042  -0.168  -0.074
    1UNL     N2   14   0.146  -0.237  -0.046
    1UNL    C13   15   0.253  -0.148  -0.022
    1UNL    C14   16   0.375  -0.174   0.043
    1UNL    C15   17   0.463  -0.064   0.049
    1UNL    C16   18   0.428   0.063   0.000
    1UNL     O1   19   0.519   0.170   0.003
    1UNL    C17   20   0.652   0.143   0.033
    1UNL    C18   21   0.298   0.088  -0.031
    1UNL    C19   22   0.213  -0.016  -0.044
    1UNL    C20   23  -0.023   0.039   0.039
    1UNL     O2   24   0.035   0.167   0.081
    1UNL    C21   25  -0.015   0.184   0.210
    1UNL    C22   26   0.043   0.309   0.267
    1UNL     O3   27  -0.100   0.119   0.264
    1UNL     H1   28  -0.577  -0.097   0.131
    1UNL     H2   29  -0.675   0.017   0.049
    1UNL     H3   30  -0.520   0.072   0.113
    1UNL     H4   31  -0.561  -0.060  -0.135
    1UNL     H5   32  -0.324  -0.256  -0.204
    1UNL     H6   33  -0.361  -0.099  -0.285
    1UNL     H7   34  -0.102  -0.318  -0.121
    1UNL     H8   35  -0.251  -0.285   0.047
    1UNL     H9   36  -0.111  -0.201   0.122
    1UNL    H10   37  -0.270  -0.038   0.142
    1UNL    H11   38  -0.209   0.138  -0.010
    1UNL    H12   39  -0.207   0.070  -0.238
    1UNL    H13   40   0.040  -0.001  -0.302
    1UNL    H14   41   0.033   0.158  -0.208
    1UNL    H15   42   0.408  -0.271   0.069
    1UNL    H16   43   0.568  -0.086   0.082
    1UNL    H17   44   0.658   0.127   0.142
    1UNL    H18   45   0.703   0.239   0.002
    1UNL    H19   46   0.694   0.056  -0.024
    1UNL    H20   47   0.256   0.191  -0.043
    1UNL    H21   48  -0.036  -0.013   0.133
    1UNL    H22   49   0.154   0.328   0.268
    1UNL    H23   50   0.004   0.319   0.365
    1UNL    H24   51  -0.012   0.384   0.209
   0.00000   0.00000   0.00000   0.00000   0.00000   0.00000   0.00000   0.00000   0.00000
Generated with MDTraj, t= 38.0
 51
    1UNL     C1    1  -0.538   0.014   0.083
    1UNL     C2    2  -0.500  -0.062  -0.037
    1UNL     C3    3  -0.377  -0.097  -0.069
    1UNL     C4    4  -0.323  -0.161  -0.200
    1UNL     N1    5  -0.173  -0.138  -0.204
    1UNL     C5    6  -0.101  -0.226  -0.098
    1UNL     C6    7  -0.189  -0.214   0.036
    1UNL     C7    8  -0.264  -0.075   0.027
    1UNL     C8    9  -0.170   0.042  -0.029
    1UNL     C9   10  -0.139   0.007  -0.181
    1UNL    C10   11   0.014   0.033  -0.200
    1UNL    C11   12   0.066  -0.022  -0.073
    1UNL    C12   13   0.039  -0.173  -0.076
    1UNL     N2   14   0.146  -0.236  -0.050
    1UNL    C13   15   0.254  -0.147  -0.029
    1UNL    C14   16   0.386  -0.178   0.007
    1UNL    C15   17   0.481  -0.078   0.022
    1UNL    C16   18   0.437   0.059   0.010
    1UNL     O1   19   0.516   0.175   0.035
    1UNL    C17   20   0.658   0.157   0.049
    1UNL    C18   21   0.305   0.088  -0.025
    1UNL    C19   22   0.214  -0.012  -0.039
    1UNL    C20   23  -0.026   0.039   0.032
    1UNL     O2   24   0.026   0.171   0.079
    1UNL    C21   25  -0.019   0.196   0.206
    1UNL    C22   26   0.030   0.320   0.278
    1UNL     O3   27  -0.105   0.133   0.262
    1UNL     H1   28  -0.571  -0.043   0.165
    1UNL     H2   29  -0.631   0.073   0.069
    1UNL     H3   30  -0.464   0.094   0.115
    1UNL     H4   31  -0.588  -0.087  -0.100
    1UNL     H5   32  -0.344  -0.265  -0.205
    1UNL     H6   33  -0.356  -0.110  -0.299
    1UNL     H7   34  -0.098  -0.326  -0.132
    1UNL     H8   35  -0.264  -0.293   0.039
    1UNL     H9   36  -0.134  -0.222   0.130
    1UNL    H10   37  -0.314  -0.050   0.127
    1UNL    H11   38  -0.220   0.143  -0.019
    1UNL    H12   39  -0.190   0.076  -0.248
    1UNL    H13   40   0.042  -0.033  -0.290
    1UNL    H14   41   0.040   0.143  -0.226
    1UNL    H15   42   0.416  -0.284   0.006
    1UNL    H16   43   0.578  -0.112   0.022
    1UNL    H17   44   0.671   0.089   0.129
    1UNL    H18   45   0.705   0.251   0.069
    1UNL    H19   46   0.709   0.111  -0.039
    1UNL    H20   47   0.279   0.186  -0.045
    1UNL    H21   48  -0.022  -0.032   0.115
    1UNL    H22   49   0.063   0.323   0.385
    1UNL    H23   50  -0.060   0.376   0.279
    1UNL    H24   51   0.098   0.378   0.214
   0.00000   0.00000   0.00000   0.00000   0.00000   0.00000   0.00000   0.00000   0.00000
Generated with MDTraj, t= 39.0
 51
    1UNL     C1    1  -0.539   0.017   0.080
    1UNL     C2    2  -0.497  -0.062  -0.041
    1UNL     C3    3  -0.369  -0.096  -0.059
    1UNL     C4    4  -0.319  -0.160  -0.187
    1UNL     N1    5  -0.170  -0.141  -0.193
    1UNL     C5    6  -0.096  -0.225  -0.092
    1UNL     C6    7  -0.175  -0.208   0.042
    1UNL     C7    8  -0.251  -0.074   0.037
    1UNL     C8    9  -0.160   0.035  -0.016
    1UNL     C9   10  -0.134   0.006  -0.173
    1UNL    C10   11   0.015   0.036  -0.193
    1UNL    C11   12   0.068  -0.023  -0.059
    1UNL    C12   13   0.045  -0.174  -0.068
    1UNL     N2   14   0.156  -0.236  -0.081
    1UNL    C13   15   0.263  -0.149  -0.059
    1UNL    C14   16   0.392  -0.179  -0.042
    1UNL    C15   17   0.473  -0.073  -0.010
    1UNL    C16   18   0.433   0.061   0.010
    1UNL     O1   19   0.513   0.162   0.053
    1UNL    C17   20   0.647   0.125   0.069
    1UNL    C18   21   0.302   0.088  -0.012
    1UNL    C19   22   0.219  -0.020  -0.031
    1UNL    C20   23  -0.023   0.033   0.052
    1UNL     O2   24   0.015   0.167   0.075
    1UNL    C21   25  -0.035   0.214   0.197
    1UNL    C22   26  -0.004   0.346   0.254
    1UNL     O3   27  -0.119   0.144   0.255
    1UNL     H1   28  -0.489  -0.025   0.164
    1UNL     H2   29  -0.645   0.007   0.102
    1UNL     H3   30  -0.509   0.125   0.064
    1UNL     H4   31  -0.575  -0.079  -0.116
    1UNL     H5   32  -0.346  -0.262  -0.203
    1UNL     H6   33  -0.357  -0.094  -0.274
    1UNL     H7   34  -0.086  -0.323  -0.129
    1UNL     H8   35  -0.252  -0.285   0.046
    1UNL     H9   36  -0.110  -0.225   0.128
    1UNL    H10   37  -0.282  -0.060   0.148
    1UNL    H11   38  -0.205   0.143   0.004
    1UNL    H12   39  -0.185   0.069  -0.249
    1UNL    H13   40   0.072  -0.019  -0.277
    1UNL    H14   41   0.026   0.151  -0.201
    1UNL    H15   42   0.428  -0.276  -0.062
    1UNL    H16   43   0.582  -0.094  -0.003
    1UNL    H17   44   0.650   0.060   0.151
    1UNL    H18   45   0.703   0.211   0.089
    1UNL    H19   46   0.696   0.074  -0.014
    1UNL    H20   47   0.272   0.194  -0.006
    1UNL    H21   48  -0.006  -0.026   0.146
    1UNL    H22   49  -0.084   0.384   0.318
    1UNL    H23   50  -0.016   0.417   0.172
    1UNL    H24   51   0.094   0.357   0.307
   0.00000   0.00000   0.00000   0.00000   0.00000   0.00000   0.00000   0.00000   0.00000
Generated with MDTraj, t= 40.0
 51
    1UNL     C1    1  -0.563  -0.006   0.085
    1UNL     C2    2  -0.492  -0.061  -0.036
    1UNL     C3    3  -0.366  -0.103  -0.048
    1UNL     C4    4  -0.312  -0.156  -0.180
    1UNL     N1    5  -0.166  -0.129  -0.193
    1UNL     C5    6  -0.094  -0.223  -0.095
    1UNL     C6    7  -0.166  -0.208   0.046
    1UNL     C7    8  -0.249  -0.079   0.047
    1UNL     C8    9  -0.157   0.035  -0.005
    1UNL     C9   10  -0.133   0.015  -0.156
    1UNL    C10   11   0.009   0.056  -0.179
    1UNL    C11   12   0.070  -0.024  -0.054
    1UNL    C12   13   0.045  -0.172  -0.077
    1UNL     N2   14   0.152  -0.237  -0.098
    1UNL    C13   15   0.261  -0.146  -0.069
    1UNL    C14   16   0.403  -0.177  -0.061
    1UNL    C15   17   0.495  -0.085  -0.025
    1UNL    C16   18   0.448   0.046   0.004
    1UNL     O1   19   0.526   0.151   0.055
    1UNL    C17   20   0.655   0.108   0.088
    1UNL    C18   21   0.308   0.082  -0.005
    1UNL    C19   22   0.217  -0.015  -0.035
    1UNL    C20   23  -0.022   0.038   0.058
    1UNL     O2   24   0.015   0.172   0.087
    1UNL    C21   25  -0.054   0.216   0.191
    1UNL    C22   26  -0.021   0.360   0.214
    1UNL     O3   27  -0.150   0.158   0.247
    1UNL     H1   28  -0.568  -0.092   0.156
    1UNL     H2   29  -0.665   0.022   0.069
    1UNL     H3   30  -0.505   0.078   0.127
    1UNL     H4   31  -0.554  -0.079  -0.117
    1UNL     H5   32  -0.323  -0.263  -0.178
    1UNL     H6   33  -0.375  -0.117  -0.267
    1UNL     H7   34  -0.090  -0.323  -0.130
    1UNL     H8   35  -0.218  -0.302   0.068
    1UNL     H9   36  -0.092  -0.202   0.123
    1UNL    H10   37  -0.273  -0.047   0.155
    1UNL    H11   38  -0.211   0.138   0.029
    1UNL    H12   39  -0.207   0.076  -0.215
    1UNL    H13   40   0.062   0.016  -0.274
    1UNL    H14   41   0.020   0.169  -0.162
    1UNL    H15   42   0.440  -0.278  -0.084
    1UNL    H16   43   0.601  -0.103  -0.030
    1UNL    H17   44   0.645   0.017   0.140
    1UNL    H18   45   0.705   0.178   0.146
    1UNL    H19   46   0.720   0.092   0.002
    1UNL    H20   47   0.272   0.182   0.013
    1UNL    H21   48  -0.030  -0.017   0.156
    1UNL    H22   49  -0.063   0.413   0.128
    1UNL    H23   50   0.087   0.380   0.188
    1UNL    H24   51  -0.049   0.403   0.310
   0.00000   0.00000   0.00000   0.00000   0.00000   0.00000   0.00000   0.00000   0.00000
Generated with MDTraj, t= 41.0
 51
    1UNL     C1    1  -0.537  -0.036   0.124
    1UNL     C2    2  -0.492  -0.079  -0.011
    1UNL     C3    3  -0.365  -0.097  -0.046
    1UNL     C4    4  -0.316  -0.142  -0.189
    1UNL     N1    5  -0.167  -0.123  -0.202
    1UNL     C5    6  -0.092  -0.212  -0.108
    1UNL     C6    7  -0.169  -0.216   0.023
    1UNL     C7    8  -0.249  -0.082   0.043
    1UNL     C8    9  -0.166   0.039  -0.013
    1UNL     C9   10  -0.135   0.018  -0.174
    1UNL    C10   11   0.021   0.053  -0.181
    1UNL    C11   12   0.078  -0.018  -0.048
    1UNL    C12   13   0.046  -0.164  -0.079
    1UNL     N2   14   0.154  -0.235  -0.083
    1UNL    C13   15   0.262  -0.155  -0.055
    1UNL    C14   16   0.397  -0.188  -0.060
    1UNL    C15   17   0.484  -0.086  -0.031
    1UNL    C16   18   0.450   0.041   0.004
    1UNL     O1   19   0.538   0.140   0.053
    1UNL    C17   20   0.667   0.107   0.093
    1UNL    C18   21   0.315   0.073  -0.003
    1UNL    C19   22   0.226  -0.025  -0.035
    1UNL    C20   23  -0.028   0.042   0.056
    1UNL     O2   24   0.016   0.176   0.091
    1UNL    C21   25  -0.066   0.233   0.192
    1UNL    C22   26  -0.034   0.373   0.216
    1UNL     O3   27  -0.175   0.180   0.231
    1UNL     H1   28  -0.524  -0.124   0.194
    1UNL     H2   29  -0.642  -0.015   0.137
    1UNL     H3   30  -0.492   0.053   0.165
    1UNL     H4   31  -0.566  -0.100  -0.096
    1UNL     H5   32  -0.347  -0.247  -0.207
    1UNL     H6   33  -0.364  -0.078  -0.267
    1UNL     H7   34  -0.097  -0.306  -0.156
    1UNL     H8   35  -0.232  -0.306   0.038
    1UNL     H9   36  -0.089  -0.225   0.094
    1UNL    H10   37  -0.298  -0.062   0.144
    1UNL    H11   38  -0.225   0.137   0.005
    1UNL    H12   39  -0.205   0.081  -0.237
    1UNL    H13   40   0.061  -0.001  -0.274
    1UNL    H14   41   0.049   0.165  -0.183
    1UNL    H15   42   0.419  -0.287  -0.091
    1UNL    H16   43   0.589  -0.098  -0.029
    1UNL    H17   44   0.664   0.025   0.164
    1UNL    H18   45   0.715   0.193   0.130
    1UNL    H19   46   0.727   0.076   0.005
    1UNL    H20   47   0.285   0.167   0.027
    1UNL    H21   48  -0.022  -0.014   0.155
    1UNL    H22   49   0.069   0.380   0.177
    1UNL    H23   50  -0.026   0.398   0.327
    1UNL    H24   51  -0.112   0.430   0.170
   0.00000   0.00000   0.00000   0.00000   0.00000   0.00000   0.00000   0.00000   0.00000
Generated with MDTraj, t= 42.0
 51
    1UNL     C1    1  -0.550  -0.067   0.124
    1UNL     C2    2  -0.491  -0.095  -0.009
    1UNL     C3    3  -0.366  -0.096  -0.054
    1UNL     C4    4  -0.323  -0.127  -0.186
    1UNL     N1    5  -0.171  -0.111  -0.198
    1UNL     C5    6  -0.098  -0.212  -0.104
    1UNL     C6    7  -0.173  -0.214   0.038
    1UNL     C7    8  -0.248  -0.078   0.038
    1UNL     C8    9  -0.163   0.039  -0.010
    1UNL     C9   10  -0.132   0.028  -0.164
    1UNL    C10   11   0.022   0.053  -0.187
    1UNL    C11   12   0.075  -0.015  -0.064
    1UNL    C12   13   0.039  -0.164  -0.089
    1UNL     N2   14   0.149  -0.234  -0.085
    1UNL    C13   15   0.258  -0.147  -0.058
    1UNL    C14   16   0.384  -0.188  -0.030
    1UNL    C15   17   0.477  -0.099   0.007
    1UNL    C16   18   0.448   0.044   0.014
    1UNL     O1   19   0.534   0.146   0.048
    1UNL    C17   20   0.668   0.107   0.070
    1UNL    C18   21   0.310   0.091  -0.011
    1UNL    C19   22   0.220  -0.010  -0.048
    1UNL    C20   23  -0.013   0.036   0.048
    1UNL     O2   24   0.034   0.170   0.093
    1UNL    C21   25  -0.044   0.225   0.182
    1UNL    C22   26  -0.033   0.370   0.230
    1UNL     O3   27  -0.156   0.177   0.210
    1UNL     H1   28  -0.490  -0.135   0.192
    1UNL     H2   29  -0.653  -0.101   0.131
    1UNL     H3   30  -0.546   0.036   0.147
    1UNL     H4   31  -0.558  -0.117  -0.082
    1UNL     H5   32  -0.349  -0.235  -0.208
    1UNL     H6   33  -0.383  -0.059  -0.247
    1UNL     H7   34  -0.094  -0.308  -0.145
    1UNL     H8   35  -0.247  -0.296   0.035
    1UNL     H9   36  -0.104  -0.239   0.116
    1UNL    H10   37  -0.274  -0.046   0.145
    1UNL    H11   38  -0.209   0.135   0.013
    1UNL    H12   39  -0.187   0.098  -0.235
    1UNL    H13   40   0.053   0.005  -0.287
    1UNL    H14   41   0.048   0.165  -0.193
    1UNL    H15   42   0.405  -0.295  -0.039
    1UNL    H16   43   0.572  -0.137   0.052
    1UNL    H17   44   0.676   0.045   0.163
    1UNL    H18   45   0.744   0.185   0.064
    1UNL    H19   46   0.691   0.031  -0.010
    1UNL    H20   47   0.276   0.194   0.020
    1UNL    H21   48  -0.004  -0.030   0.140
    1UNL    H22   49  -0.022   0.370   0.341
    1UNL    H23   50  -0.119   0.440   0.211
    1UNL    H24   51   0.054   0.412   0.183
   0.00000   0.00000   0.00000   0.00000   0.00000   0.00000   0.00000   0.00000   0.00000
Generated with MDTraj, t= 43.0
 51
    1UNL     C1    1  -0.541  -0.075   0.119
    1UNL     C2    2  -0.500  -0.104  -0.022
    1UNL     C3    3  -0.371  -0.102  -0.059
    1UNL     C4    4  -0.318  -0.134  -0.205
    1UNL     N1    5  -0.169  -0.118  -0.204
    1UNL     C5    6  -0.102  -0.212  -0.105
    1UNL     C6    7  -0.177  -0.207   0.031
    1UNL     C7    8  -0.252  -0.073   0.032
    1UNL     C8    9  -0.162   0.042  -0.018
    1UNL     C9   10  -0.133   0.021  -0.179
    1UNL    C10   11   0.011   0.048  -0.194
    1UNL    C11   12   0.068  -0.009  -0.067
    1UNL    C12   13   0.034  -0.160  -0.078
    1UNL     N2   14   0.143  -0.231  -0.070
    1UNL    C13   15   0.249  -0.150  -0.032
    1UNL    C14   16   0.377  -0.184  -0.011
    1UNL    C15   17   0.469  -0.089   0.021
    1UNL    C16   18   0.441   0.045   0.017
    1UNL     O1   19   0.529   0.151   0.041
    1UNL    C17   20   0.663   0.123   0.050
    1UNL    C18   21   0.308   0.081  -0.013
    1UNL    C19   22   0.215  -0.015  -0.040
    1UNL    C20   23  -0.023   0.048   0.047
    1UNL     O2   24   0.022   0.181   0.071
    1UNL    C21   25  -0.028   0.224   0.191
    1UNL    C22   26   0.020   0.352   0.243
    1UNL     O3   27  -0.128   0.168   0.250
    1UNL     H1   28  -0.528  -0.174   0.168
    1UNL     H2   29  -0.646  -0.042   0.126
    1UNL     H3   30  -0.479   0.000   0.160
    1UNL     H4   31  -0.571  -0.130  -0.105
    1UNL     H5   32  -0.355  -0.235  -0.248
    1UNL     H6   33  -0.347  -0.058  -0.274
    1UNL     H7   34  -0.098  -0.309  -0.143
    1UNL     H8   35  -0.243  -0.295   0.040
    1UNL     H9   36  -0.099  -0.216   0.105
    1UNL    H10   37  -0.287  -0.056   0.138
    1UNL    H11   38  -0.218   0.127  -0.003
    1UNL    H12   39  -0.197   0.097  -0.234
    1UNL    H13   40   0.059   0.000  -0.287
    1UNL    H14   41   0.029   0.162  -0.193
    1UNL    H15   42   0.390  -0.291  -0.008
    1UNL    H16   43   0.566  -0.115   0.043
    1UNL    H17   44   0.689   0.023   0.100
    1UNL    H18   45   0.714   0.207   0.103
    1UNL    H19   46   0.706   0.120  -0.053
    1UNL    H20   47   0.286   0.183  -0.008
    1UNL    H21   48  -0.019  -0.008   0.147
    1UNL    H22   49  -0.063   0.427   0.243
    1UNL    H23   50   0.108   0.398   0.196
    1UNL    H24   51   0.041   0.332   0.349
   0.00000   0.00000   0.00000   0.00000   0.00000   0.00000   0.00000   0.00000   0.00000
Generated with MDTraj, t= 44.0
 51
    1UNL     C1    1  -0.563  -0.054   0.087
    1UNL     C2    2  -0.509  -0.086  -0.044
    1UNL     C3    3  -0.376  -0.092  -0.068
    1UNL     C4    4  -0.319  -0.135  -0.204
    1UNL     N1    5  -0.171  -0.130  -0.199
    1UNL     C5    6  -0.100  -0.216  -0.091
    1UNL     C6    7  -0.179  -0.200   0.040
    1UNL     C7    8  -0.261  -0.063   0.032
    1UNL     C8    9  -0.165   0.049  -0.027
    1UNL     C9   10  -0.136   0.014  -0.180
    1UNL    C10   11   0.011   0.042  -0.195
    1UNL    C11   12   0.065  -0.018  -0.064
    1UNL    C12   13   0.039  -0.167  -0.072
    1UNL     N2   14   0.142  -0.240  -0.059
    1UNL    C13   15   0.248  -0.149  -0.033
    1UNL    C14   16   0.386  -0.182  -0.012
    1UNL    C15   17   0.479  -0.082   0.014
    1UNL    C16   18   0.437   0.051   0.016
    1UNL     O1   19   0.518   0.166   0.032
    1UNL    C17   20   0.657   0.149   0.043
    1UNL    C18   21   0.299   0.085  -0.015
    1UNL    C19   22   0.209  -0.014  -0.031
    1UNL    C20   23  -0.033   0.043   0.044
    1UNL     O2   24   0.017   0.175   0.082
    1UNL    C21   25  -0.013   0.202   0.204
    1UNL    C22   26   0.039   0.340   0.236
    1UNL     O3   27  -0.086   0.132   0.281
    1UNL     H1   28  -0.500  -0.101   0.160
    1UNL     H2   29  -0.662  -0.100   0.109
    1UNL     H3   30  -0.577   0.051   0.109
    1UNL     H4   31  -0.570  -0.112  -0.128
    1UNL     H5   32  -0.346  -0.245  -0.227
    1UNL     H6   33  -0.365  -0.074  -0.279
    1UNL     H7   34  -0.109  -0.317  -0.118
    1UNL     H8   35  -0.235  -0.294   0.047
    1UNL     H9   36  -0.110  -0.200   0.123
    1UNL    H10   37  -0.302  -0.019   0.127
    1UNL    H11   38  -0.194   0.145  -0.013
    1UNL    H12   39  -0.190   0.080  -0.257
    1UNL    H13   40   0.069  -0.012  -0.278
    1UNL    H14   41   0.028   0.155  -0.203
    1UNL    H15   42   0.415  -0.284   0.001
    1UNL    H16   43   0.581  -0.107   0.046
    1UNL    H17   44   0.693   0.144   0.151
    1UNL    H18   45   0.712   0.233  -0.010
    1UNL    H19   46   0.696   0.058  -0.007
    1UNL    H20   47   0.265   0.189  -0.025
    1UNL    H21   48  -0.031  -0.018   0.141
    1UNL    H22   49   0.119   0.375   0.171
    1UNL    H23   50   0.080   0.367   0.334
    1UNL    H24   51  -0.047   0.410   0.210
   0.00000   0.00000   0.00000   0.00000   0.00000   0.00000   0.00000   0.00000   0.00000
Generated with MDTraj, t= 45.0
 51
    1UNL     C1    1  -0.576  -0.008   0.054
    1UNL     C2    2  -0.498  -0.070  -0.055
    1UNL     C3    3  -0.368  -0.103  -0.068
    1UNL     C4    4  -0.317  -0.160  -0.196
    1UNL     N1    5  -0.170  -0.141  -0.204
    1UNL     C5    6  -0.101  -0.219  -0.087
    1UNL     C6    7  -0.174  -0.202   0.048
    1UNL     C7    8  -0.257  -0.071   0.029
    1UNL     C8    9  -0.172   0.041  -0.029
    1UNL     C9   10  -0.143   0.007  -0.177
    1UNL    C10   11   0.007   0.034  -0.195
    1UNL    C11   12   0.062  -0.020  -0.057
    1UNL    C12   13   0.040  -0.172  -0.071
    1UNL     N2   14   0.147  -0.236  -0.045
    1UNL    C13   15   0.250  -0.144  -0.028
    1UNL    C14   16   0.383  -0.174  -0.007
    1UNL    C15   17   0.471  -0.071  -0.001
    1UNL    C16   18   0.430   0.064   0.003
    1UNL     O1   19   0.509   0.175   0.018
    1UNL    C17   20   0.643   0.142   0.037
    1UNL    C18   21   0.298   0.091  -0.018
    1UNL    C19   22   0.210  -0.011  -0.032
    1UNL    C20   23  -0.035   0.045   0.042
    1UNL     O2   24   0.014   0.178   0.079
    1UNL    C21   25   0.003   0.200   0.216
    1UNL    C22   26   0.034   0.330   0.263
    1UNL     O3   27  -0.049   0.118   0.296
    1UNL     H1   28  -0.563  -0.072   0.136
    1UNL     H2   29  -0.685  -0.003   0.033
    1UNL     H3   30  -0.541   0.094   0.077
    1UNL     H4   31  -0.550  -0.096  -0.143
    1UNL     H5   32  -0.353  -0.267  -0.208
    1UNL     H6   33  -0.363  -0.106  -0.280
    1UNL     H7   34  -0.101  -0.320  -0.116
    1UNL     H8   35  -0.246  -0.284   0.047
    1UNL     H9   36  -0.098  -0.226   0.126
    1UNL    H10   37  -0.297  -0.041   0.128
    1UNL    H11   38  -0.225   0.131  -0.004
    1UNL    H12   39  -0.207   0.067  -0.250
    1UNL    H13   40   0.053  -0.026  -0.282
    1UNL    H14   41   0.035   0.144  -0.210
    1UNL    H15   42   0.416  -0.277   0.016
    1UNL    H16   43   0.575  -0.089   0.019
    1UNL    H17   44   0.657   0.059   0.110
    1UNL    H18   45   0.693   0.233   0.079
    1UNL    H19   46   0.701   0.122  -0.053
    1UNL    H20   47   0.266   0.195  -0.036
    1UNL    H21   48  -0.037  -0.016   0.139
    1UNL    H22   49   0.027   0.341   0.371
    1UNL    H23   50  -0.057   0.393   0.247
    1UNL    H24   51   0.125   0.375   0.210
   0.00000   0.00000   0.00000   0.00000   0.00000   0.00000   0.00000   0.00000   0.00000
Generated with MDTraj, t= 46.0
 51
    1UNL     C1    1  -0.553   0.037   0.044
    1UNL     C2    2  -0.505  -0.054  -0.063
    1UNL     C3    3  -0.380  -0.108  -0.069
    1UNL     C4    4  -0.320  -0.164  -0.196
    1UNL     N1    5  -0.167  -0.148  -0.195
    1UNL     C5    6  -0.096  -0.228  -0.089
    1UNL     C6    7  -0.188  -0.222   0.047
    1UNL     C7    8  -0.275  -0.086   0.036
    1UNL     C8    9  -0.183   0.028  -0.024
    1UNL     C9   10  -0.144  -0.005  -0.180
    1UNL    C10   11   0.008   0.023  -0.189
    1UNL    C11   12   0.061  -0.018  -0.051
    1UNL    C12   13   0.044  -0.169  -0.065
    1UNL     N2   14   0.151  -0.236  -0.053
    1UNL    C13   15   0.252  -0.139  -0.028
    1UNL    C14   16   0.387  -0.164  -0.010
    1UNL    C15   17   0.479  -0.064   0.001
    1UNL    C16   18   0.430   0.072  -0.002
    1UNL     O1   19   0.521   0.182   0.003
    1UNL    C17   20   0.656   0.151   0.041
    1UNL    C18   21   0.295   0.099  -0.017
    1UNL    C19   22   0.207  -0.006  -0.031
    1UNL    C20   23  -0.043   0.041   0.048
    1UNL     O2   24  -0.006   0.177   0.079
    1UNL    C21   25  -0.001   0.191   0.216
    1UNL    C22   26   0.040   0.325   0.274
    1UNL     O3   27  -0.040   0.105   0.295
    1UNL     H1   28  -0.559  -0.029   0.125
    1UNL     H2   29  -0.648   0.085   0.020
    1UNL     H3   30  -0.476   0.116   0.063
    1UNL     H4   31  -0.568  -0.070  -0.157
    1UNL     H5   32  -0.345  -0.271  -0.209
    1UNL     H6   33  -0.360  -0.118  -0.290
    1UNL     H7   34  -0.078  -0.326  -0.122
    1UNL     H8   35  -0.251  -0.311   0.062
    1UNL     H9   36  -0.112  -0.231   0.127
    1UNL    H10   37  -0.319  -0.057   0.135
    1UNL    H11   38  -0.246   0.123  -0.022
    1UNL    H12   39  -0.208   0.049  -0.260
    1UNL    H13   40   0.057  -0.036  -0.273
    1UNL    H14   41   0.022   0.134  -0.214
    1UNL    H15   42   0.409  -0.264   0.011
    1UNL    H16   43   0.582  -0.093   0.019
    1UNL    H17   44   0.653   0.107   0.139
    1UNL    H18   45   0.708   0.249   0.045
    1UNL    H19   46   0.713   0.090  -0.022
    1UNL    H20   47   0.269   0.196  -0.039
    1UNL    H21   48  -0.038  -0.028   0.141
    1UNL    H22   49  -0.040   0.390   0.241
    1UNL    H23   50   0.131   0.378   0.229
    1UNL    H24   51   0.053   0.316   0.385
   0.00000   0.00000   0.00000   0.00000   0.00000   0.00000   0.00000   0.00000   0.00000
Generated with MDTraj, t= 47.0
 51
    1UNL     C1    1  -0.549   0.032   0.040
    1UNL     C2    2  -0.503  -0.058  -0.066
    1UNL     C3    3  -0.375  -0.106  -0.075
    1UNL     C4    4  -0.316  -0.167  -0.198
    1UNL     N1    5  -0.168  -0.139  -0.190
    1UNL     C5    6  -0.105  -0.223  -0.080
    1UNL     C6    7  -0.187  -0.207   0.047
    1UNL     C7    8  -0.262  -0.081   0.027
    1UNL     C8    9  -0.169   0.031  -0.017
    1UNL     C9   10  -0.142   0.007  -0.168
    1UNL    C10   11   0.007   0.034  -0.191
    1UNL    C11   12   0.063  -0.029  -0.065
    1UNL    C12   13   0.039  -0.176  -0.061
    1UNL     N2   14   0.147  -0.244  -0.050
    1UNL    C13   15   0.249  -0.148  -0.024
    1UNL    C14   16   0.386  -0.171  -0.010
    1UNL    C15   17   0.476  -0.062   0.000
    1UNL    C16   18   0.428   0.071  -0.004
    1UNL     O1   19   0.498   0.183   0.020
    1UNL    C17   20   0.636   0.170   0.030
    1UNL    C18   21   0.291   0.088  -0.033
    1UNL    C19   22   0.208  -0.019  -0.038
    1UNL    C20   23  -0.026   0.037   0.052
    1UNL     O2   24   0.022   0.170   0.084
    1UNL    C21   25   0.001   0.186   0.220
    1UNL    C22   26   0.035   0.322   0.268
    1UNL     O3   27  -0.046   0.105   0.293
    1UNL     H1   28  -0.519  -0.009   0.135
    1UNL     H2   29  -0.655   0.048   0.051
    1UNL     H3   30  -0.510   0.136   0.034
    1UNL     H4   31  -0.561  -0.070  -0.148
    1UNL     H5   32  -0.328  -0.273  -0.213
    1UNL     H6   33  -0.367  -0.122  -0.291
    1UNL     H7   34  -0.116  -0.323  -0.110
    1UNL     H8   35  -0.255  -0.292   0.059
    1UNL     H9   36  -0.132  -0.196   0.144
    1UNL    H10   37  -0.298  -0.038   0.124
    1UNL    H11   38  -0.209   0.142  -0.001
    1UNL    H12   39  -0.202   0.086  -0.228
    1UNL    H13   40   0.040  -0.013  -0.288
    1UNL    H14   41   0.026   0.147  -0.199
    1UNL    H15   42   0.424  -0.274   0.008
    1UNL    H16   43   0.573  -0.094   0.036
    1UNL    H17   44   0.654   0.130   0.126
    1UNL    H18   45   0.670   0.273   0.020
    1UNL    H19   46   0.679   0.112  -0.044
    1UNL    H20   47   0.243   0.189  -0.043
    1UNL    H21   48  -0.031  -0.021   0.150
    1UNL    H22   49   0.122   0.355   0.206
    1UNL    H23   50   0.065   0.315   0.376
    1UNL    H24   51  -0.056   0.381   0.253
   0.00000   0.00000   0.00000   0.00000   0.00000   0.00000   0.00000   0.00000   0.00000
Generated with MDTraj, t= 48.0
 51
    1UNL     C1    1  -0.551  -0.001   0.076
    1UNL     C2    2  -0.503  -0.058  -0.051
    1UNL     C3    3  -0.374  -0.094  -0.063
    1UNL     C4    4  -0.322  -0.161  -0.188
    1UNL     N1    5  -0.176  -0.145  -0.197
    1UNL     C5    6  -0.100  -0.222  -0.091
    1UNL     C6    7  -0.179  -0.201   0.041
    1UNL     C7    8  -0.267  -0.064   0.032
    1UNL     C8    9  -0.170   0.039  -0.033
    1UNL     C9   10  -0.139   0.000  -0.183
    1UNL    C10   11   0.006   0.029  -0.193
    1UNL    C11   12   0.061  -0.018  -0.062
    1UNL    C12   13   0.039  -0.172  -0.074
    1UNL     N2   14   0.151  -0.235  -0.064
    1UNL    C13   15   0.254  -0.150  -0.025
    1UNL    C14   16   0.389  -0.167  -0.006
    1UNL    C15   17   0.485  -0.064   0.008
    1UNL    C16   18   0.431   0.067   0.009
    1UNL     O1   19   0.516   0.186   0.021
    1UNL    C17   20   0.651   0.148   0.027
    1UNL    C18   21   0.296   0.092  -0.006
    1UNL    C19   22   0.213  -0.015  -0.032
    1UNL    C20   23  -0.033   0.035   0.044
    1UNL     O2   24   0.009   0.170   0.074
    1UNL    C21   25  -0.014   0.187   0.211
    1UNL    C22   26   0.043   0.322   0.262
    1UNL     O3   27  -0.079   0.118   0.279
    1UNL     H1   28  -0.560  -0.083   0.152
    1UNL     H2   29  -0.645   0.047   0.071
    1UNL     H3   30  -0.488   0.076   0.118
    1UNL     H4   31  -0.572  -0.075  -0.141
    1UNL     H5   32  -0.348  -0.264  -0.183
    1UNL     H6   33  -0.363  -0.131  -0.293
    1UNL     H7   34  -0.086  -0.321  -0.124
    1UNL     H8   35  -0.242  -0.290   0.052
    1UNL     H9   36  -0.114  -0.207   0.133
    1UNL    H10   37  -0.314  -0.040   0.130
    1UNL    H11   38  -0.209   0.152  -0.033
    1UNL    H12   39  -0.203   0.054  -0.264
    1UNL    H13   40   0.053  -0.037  -0.273
    1UNL    H14   41   0.035   0.139  -0.207
    1UNL    H15   42   0.420  -0.267   0.007
    1UNL    H16   43   0.587  -0.088   0.031
    1UNL    H17   44   0.662   0.080   0.108
    1UNL    H18   45   0.704   0.242   0.041
    1UNL    H19   46   0.678   0.114  -0.068
    1UNL    H20   47   0.258   0.188   0.009
    1UNL    H21   48  -0.034  -0.033   0.135
    1UNL    H22   49   0.081   0.311   0.370
    1UNL    H23   50  -0.039   0.396   0.265
    1UNL    H24   51   0.127   0.341   0.193
   0.00000   0.00000   0.00000   0.00000   0.00000   0.00000   0.00000   0.00000   0.00000
Generated with MDTraj, t= 49.0
 51
    1UNL     C1    1  -0.566  -0.045   0.096
    1UNL     C2    2  -0.500  -0.089  -0.030
    1UNL     C3    3  -0.366  -0.099  -0.062
    1UNL     C4    4  -0.320  -0.152  -0.187
    1UNL     N1    5  -0.176  -0.128  -0.201
    1UNL     C5    6  -0.101  -0.213  -0.099
    1UNL     C6    7  -0.170  -0.206   0.039
    1UNL     C7    8  -0.253  -0.074   0.034
    1UNL     C8    9  -0.170   0.044  -0.021
    1UNL     C9   10  -0.142   0.022  -0.172
    1UNL    C10   11   0.005   0.043  -0.197
    1UNL    C11   12   0.068  -0.021  -0.069
    1UNL    C12   13   0.048  -0.166  -0.088
    1UNL     N2   14   0.153  -0.235  -0.063
    1UNL    C13   15   0.256  -0.146  -0.026
    1UNL    C14   16   0.389  -0.181  -0.010
    1UNL    C15   17   0.479  -0.079   0.005
    1UNL    C16   18   0.441   0.054  -0.001
    1UNL     O1   19   0.520   0.158   0.033
    1UNL    C17   20   0.662   0.127   0.041
    1UNL    C18   21   0.309   0.088  -0.029
    1UNL    C19   22   0.218  -0.014  -0.048
    1UNL    C20   23  -0.023   0.047   0.041
    1UNL     O2   24   0.015   0.184   0.080
    1UNL    C21   25  -0.032   0.211   0.210
    1UNL    C22   26   0.021   0.339   0.264
    1UNL     O3   27  -0.115   0.154   0.266
    1UNL     H1   28  -0.506  -0.095   0.178
    1UNL     H2   29  -0.670  -0.069   0.101
    1UNL     H3   30  -0.552   0.060   0.103
    1UNL     H4   31  -0.570  -0.111  -0.108
    1UNL     H5   32  -0.342  -0.256  -0.201
    1UNL     H6   33  -0.372  -0.097  -0.274
    1UNL     H7   34  -0.101  -0.311  -0.136
    1UNL     H8   35  -0.246  -0.287   0.053
    1UNL     H9   36  -0.096  -0.221   0.121
    1UNL    H10   37  -0.279  -0.053   0.140
    1UNL    H11   38  -0.212   0.147   0.006
    1UNL    H12   39  -0.212   0.077  -0.245
    1UNL    H13   40   0.041  -0.008  -0.292
    1UNL    H14   41   0.029   0.154  -0.199
    1UNL    H15   42   0.430  -0.281   0.011
    1UNL    H16   43   0.581  -0.096   0.039
    1UNL    H17   44   0.681   0.063   0.125
    1UNL    H18   45   0.711   0.228   0.042
    1UNL    H19   46   0.687   0.086  -0.055
    1UNL    H20   47   0.266   0.187  -0.021
    1UNL    H21   48  -0.026  -0.011   0.134
    1UNL    H22   49  -0.054   0.426   0.261
    1UNL    H23   50   0.101   0.383   0.204
    1UNL    H24   51   0.061   0.306   0.365
   0.00000   0.00000   0.00000   0.00000   0.00000   0.00000   0.00000   0.00000   0.00000
Generated with MDTraj, t= 50.0
 51
    1UNL     C1    1  -0.551  -0.080   0.121
    1UNL     C2    2  -0.501  -0.103  -0.011
    1UNL     C3    3  -0.369  -0.089  -0.052
    1UNL     C4    4  -0.320  -0.118  -0.196
    1UNL     N1    5  -0.167  -0.107  -0.199
    1UNL     C5    6  -0.097  -0.208  -0.105
    1UNL     C6    7  -0.175  -0.208   0.035
    1UNL     C7    8  -0.251  -0.073   0.045
    1UNL     C8    9  -0.162   0.044  -0.005
    1UNL     C9   10  -0.138   0.031  -0.163
    1UNL    C10   11   0.013   0.053  -0.183
    1UNL    C11   12   0.075  -0.021  -0.060
    1UNL    C12   13   0.047  -0.165  -0.083
    1UNL     N2   14   0.145  -0.243  -0.077
    1UNL    C13   15   0.257  -0.154  -0.041
    1UNL    C14   16   0.393  -0.190  -0.025
    1UNL    C15   17   0.483  -0.086  -0.013
    1UNL    C16   18   0.443   0.049  -0.000
    1UNL     O1   19   0.535   0.160   0.020
    1UNL    C17   20   0.667   0.113   0.066
    1UNL    C18   21   0.310   0.084  -0.016
    1UNL    C19   22   0.221  -0.018  -0.040
    1UNL    C20   23  -0.017   0.039   0.052
    1UNL     O2   24   0.034   0.168   0.091
    1UNL    C21   25  -0.052   0.216   0.190
    1UNL    C22   26  -0.021   0.361   0.227
    1UNL     O3   27  -0.148   0.165   0.233
    1UNL     H1   28  -0.475  -0.099   0.201
    1UNL     H2   29  -0.637  -0.135   0.156
    1UNL     H3   30  -0.576   0.022   0.133
    1UNL     H4   31  -0.574  -0.127  -0.086
    1UNL     H5   32  -0.334  -0.223  -0.221
    1UNL     H6   33  -0.372  -0.059  -0.279
    1UNL     H7   34  -0.102  -0.302  -0.151
    1UNL     H8   35  -0.249  -0.289   0.048
    1UNL     H9   36  -0.104  -0.212   0.120
    1UNL    H10   37  -0.288  -0.048   0.145
    1UNL    H11   38  -0.206   0.140   0.019
    1UNL    H12   39  -0.201   0.110  -0.220
    1UNL    H13   40   0.043  -0.001  -0.280
    1UNL    H14   41   0.039   0.162  -0.193
    1UNL    H15   42   0.411  -0.297  -0.023
    1UNL    H16   43   0.584  -0.106   0.017
    1UNL    H17   44   0.652   0.068   0.166
    1UNL    H18   45   0.739   0.200   0.057
    1UNL    H19   46   0.696   0.043  -0.017
    1UNL    H20   47   0.280   0.192  -0.007
    1UNL    H21   48  -0.013  -0.032   0.134
    1UNL    H22   49   0.065   0.412   0.176
    1UNL    H23   50   0.009   0.372   0.334
    1UNL    H24   51  -0.122   0.415   0.234
   0.00000   0.00000   0.00000   0.00000   0.00000   0.00000   0.00000   0.00000   0.00000
Generated with MDTraj, t= 51.0
 51
    1UNL     C1    1  -0.521  -0.088   0.132
    1UNL     C2    2  -0.496  -0.095  -0.010
    1UNL     C3    3  -0.366  -0.099  -0.048
    1UNL     C4    4  -0.323  -0.128  -0.190
    1UNL     N1    5  -0.173  -0.110  -0.199
    1UNL     C5    6  -0.107  -0.206  -0.105
    1UNL     C6    7  -0.172  -0.215   0.036
    1UNL     C7    8  -0.249  -0.080   0.044
    1UNL     C8    9  -0.160   0.041  -0.002
    1UNL     C9   10  -0.136   0.030  -0.161
    1UNL    C10   11   0.019   0.056  -0.177
    1UNL    C11   12   0.071  -0.018  -0.054
    1UNL    C12   13   0.038  -0.164  -0.081
    1UNL     N2   14   0.150  -0.228  -0.091
    1UNL    C13   15   0.264  -0.152  -0.065
    1UNL    C14   16   0.395  -0.184  -0.047
    1UNL    C15   17   0.487  -0.090  -0.025
    1UNL    C16   18   0.455   0.043   0.003
    1UNL     O1   19   0.545   0.141   0.026
    1UNL    C17   20   0.672   0.100   0.073
    1UNL    C18   21   0.318   0.076  -0.000
    1UNL    C19   22   0.223  -0.020  -0.038
    1UNL    C20   23  -0.018   0.039   0.064
    1UNL     O2   24   0.017   0.177   0.091
    1UNL    C21   25  -0.072   0.239   0.185
    1UNL    C22   26  -0.041   0.378   0.219
    1UNL     O3   27  -0.166   0.180   0.231
    1UNL     H1   28  -0.506  -0.179   0.191
    1UNL     H2   29  -0.618  -0.046   0.163
    1UNL     H3   30  -0.452  -0.018   0.174
    1UNL     H4   31  -0.570  -0.097  -0.098
    1UNL     H5   32  -0.354  -0.229  -0.227
    1UNL     H6   33  -0.354  -0.051  -0.266
    1UNL     H7   34  -0.096  -0.298  -0.154
    1UNL     H8   35  -0.232  -0.309   0.038
    1UNL     H9   36  -0.101  -0.222   0.120
    1UNL    H10   37  -0.273  -0.060   0.148
    1UNL    H11   38  -0.202   0.130   0.025
    1UNL    H12   39  -0.192   0.110  -0.224
    1UNL    H13   40   0.057   0.019  -0.278
    1UNL    H14   41   0.040   0.166  -0.170
    1UNL    H15   42   0.424  -0.287  -0.042
    1UNL    H16   43   0.589  -0.124  -0.021
    1UNL    H17   44   0.660   0.002   0.127
    1UNL    H18   45   0.709   0.186   0.136
    1UNL    H19   46   0.736   0.099  -0.023
    1UNL    H20   47   0.287   0.173   0.002
    1UNL    H21   48  -0.021  -0.025   0.151
    1UNL    H22   49  -0.017   0.390   0.326
    1UNL    H23   50  -0.139   0.434   0.202
    1UNL    H24   51   0.030   0.430   0.150
   0.00000   0.00000   0.00000   0.00000   0.00000   0.00000   0.00000   0.00000   0.00000
Generated with MDTraj, t= 52.0
 51
    1UNL     C1    1  -0.553  -0.055   0.117
    1UNL     C2    2  -0.499  -0.096  -0.013
    1UNL     C3    3  -0.365  -0.111  -0.047
    1UNL     C4    4  -0.320  -0.143  -0.180
    1UNL     N1    5  -0.173  -0.120  -0.185
    1UNL     C5    6  -0.094  -0.216  -0.098
    1UNL     C6    7  -0.156  -0.208   0.042
    1UNL     C7    8  -0.247  -0.081   0.047
    1UNL     C8    9  -0.161   0.038   0.002
    1UNL     C9   10  -0.146   0.025  -0.149
    1UNL    C10   11  -0.003   0.062  -0.182
    1UNL    C11   12   0.067  -0.011  -0.066
    1UNL    C12   13   0.042  -0.162  -0.085
    1UNL     N2   14   0.149  -0.230  -0.091
    1UNL    C13   15   0.260  -0.145  -0.080
    1UNL    C14   16   0.394  -0.180  -0.074
    1UNL    C15   17   0.494  -0.087  -0.033
    1UNL    C16   18   0.451   0.044   0.010
    1UNL     O1   19   0.540   0.138   0.065
    1UNL    C17   20   0.677   0.104   0.071
    1UNL    C18   21   0.311   0.081  -0.003
    1UNL    C19   22   0.223  -0.014  -0.048
    1UNL    C20   23  -0.014   0.039   0.057
    1UNL     O2   24   0.025   0.175   0.092
    1UNL    C21   25  -0.060   0.227   0.181
    1UNL    C22   26  -0.032   0.369   0.220
    1UNL     O3   27  -0.158   0.177   0.235
    1UNL     H1   28  -0.489  -0.084   0.195
    1UNL     H2   29  -0.658  -0.088   0.126
    1UNL     H3   30  -0.546   0.054   0.113
    1UNL     H4   31  -0.564  -0.116  -0.089
    1UNL     H5   32  -0.319  -0.254  -0.197
    1UNL     H6   33  -0.377  -0.090  -0.259
    1UNL     H7   34  -0.086  -0.311  -0.142
    1UNL     H8   35  -0.222  -0.297   0.059
    1UNL     H9   36  -0.082  -0.217   0.123
    1UNL    H10   37  -0.273  -0.068   0.151
    1UNL    H11   38  -0.200   0.129   0.025
    1UNL    H12   39  -0.216   0.098  -0.205
    1UNL    H13   40   0.031   0.003  -0.272
    1UNL    H14   41   0.015   0.174  -0.198
    1UNL    H15   42   0.418  -0.287  -0.077
    1UNL    H16   43   0.598  -0.114  -0.028
    1UNL    H17   44   0.675   0.020   0.144
    1UNL    H18   45   0.746   0.187   0.099
    1UNL    H19   46   0.711   0.076  -0.034
    1UNL    H20   47   0.279   0.188   0.006
    1UNL    H21   48   0.002  -0.028   0.138
    1UNL    H22   49  -0.119   0.435   0.197
    1UNL    H23   50   0.045   0.415   0.147
    1UNL    H24   51  -0.002   0.387   0.324
   0.00000   0.00000   0.00000   0.00000   0.00000   0.00000   0.00000   0.00000   0.00000
Generated with MDTraj, t= 53.0
 51
    1UNL     C1    1  -0.544  -0.022   0.113
    1UNL     C2    2  -0.495  -0.076  -0.010
    1UNL     C3    3  -0.362  -0.097  -0.043
    1UNL     C4    4  -0.320  -0.148  -0.179
    1UNL     N1    5  -0.176  -0.133  -0.194
    1UNL     C5    6  -0.099  -0.222  -0.098
    1UNL     C6    7  -0.168  -0.211   0.042
    1UNL     C7    8  -0.248  -0.076   0.050
    1UNL     C8    9  -0.163   0.039  -0.013
    1UNL     C9   10  -0.141   0.013  -0.170
    1UNL    C10   11   0.001   0.034  -0.198
    1UNL    C11   12   0.071  -0.029  -0.066
    1UNL    C12   13   0.048  -0.172  -0.088
    1UNL     N2   14   0.159  -0.238  -0.094
    1UNL    C13   15   0.266  -0.148  -0.077
    1UNL    C14   16   0.403  -0.171  -0.076
    1UNL    C15   17   0.480  -0.071  -0.029
    1UNL    C16   18   0.432   0.049   0.022
    1UNL     O1   19   0.518   0.156   0.061
    1UNL    C17   20   0.656   0.135   0.064
    1UNL    C18   21   0.297   0.074   0.011
    1UNL    C19   22   0.221  -0.020  -0.044
    1UNL    C20   23  -0.022   0.035   0.049
    1UNL     O2   24   0.017   0.170   0.080
    1UNL    C21   25  -0.042   0.225   0.196
    1UNL    C22   26   0.001   0.358   0.241
    1UNL     O3   27  -0.134   0.159   0.252
    1UNL     H1   28  -0.520  -0.073   0.200
    1UNL     H2   29  -0.652  -0.005   0.114
    1UNL     H3   30  -0.497   0.077   0.123
    1UNL     H4   31  -0.566  -0.097  -0.098
    1UNL     H5   32  -0.359  -0.255  -0.195
    1UNL     H6   33  -0.355  -0.082  -0.256
    1UNL     H7   34  -0.113  -0.319  -0.133
    1UNL     H8   35  -0.236  -0.294   0.078
    1UNL     H9   36  -0.089  -0.206   0.116
    1UNL    H10   37  -0.298  -0.055   0.144
    1UNL    H11   38  -0.213   0.133   0.009
    1UNL    H12   39  -0.214   0.071  -0.238
    1UNL    H13   40   0.039  -0.019  -0.290
    1UNL    H14   41   0.026   0.144  -0.204
    1UNL    H15   42   0.445  -0.262  -0.109
    1UNL    H16   43   0.584  -0.097  -0.019
    1UNL    H17   44   0.670   0.070   0.151
    1UNL    H18   45   0.707   0.227   0.086
    1UNL    H19   46   0.703   0.099  -0.030
    1UNL    H20   47   0.254   0.164   0.048
    1UNL    H21   48  -0.024  -0.015   0.142
    1UNL    H22   49   0.096   0.386   0.184
    1UNL    H23   50   0.031   0.371   0.350
    1UNL    H24   51  -0.089   0.418   0.219
   0.00000   0.00000   0.00000   0.00000   0.00000   0.00000   0.00000   0.00000   0.00000
Generated with MDTraj, t= 54.0
 51
    1UNL     C1    1  -0.535   0.002   0.098
    1UNL     C2    2  -0.492  -0.056  -0.023
    1UNL     C3    3  -0.365  -0.101  -0.047
    1UNL     C4    4  -0.328  -0.146  -0.185
    1UNL     N1    5  -0.179  -0.130  -0.197
    1UNL     C5    6  -0.102  -0.230  -0.101
    1UNL     C6    7  -0.171  -0.219   0.041
    1UNL     C7    8  -0.250  -0.087   0.046
    1UNL     C8    9  -0.169   0.031  -0.015
    1UNL     C9   10  -0.147   0.015  -0.169
    1UNL    C10   11   0.002   0.039  -0.198
    1UNL    C11   12   0.069  -0.025  -0.072
    1UNL    C12   13   0.041  -0.178  -0.086
    1UNL     N2   14   0.152  -0.245  -0.071
    1UNL    C13   15   0.261  -0.152  -0.058
    1UNL    C14   16   0.401  -0.176  -0.037
    1UNL    C15   17   0.480  -0.070   0.004
    1UNL    C16   18   0.431   0.069   0.002
    1UNL     O1   19   0.505   0.181   0.036
    1UNL    C17   20   0.642   0.151   0.059
    1UNL    C18   21   0.295   0.091  -0.024
    1UNL    C19   22   0.216  -0.016  -0.062
    1UNL    C20   23  -0.020   0.035   0.039
    1UNL     O2   24   0.021   0.167   0.078
    1UNL    C21   25  -0.024   0.195   0.201
    1UNL    C22   26   0.023   0.325   0.256
    1UNL     O3   27  -0.108   0.142   0.276
    1UNL     H1   28  -0.547  -0.063   0.182
    1UNL     H2   29  -0.627   0.057   0.086
    1UNL     H3   30  -0.459   0.072   0.134
    1UNL     H4   31  -0.554  -0.072  -0.109
    1UNL     H5   32  -0.347  -0.260  -0.191
    1UNL     H6   33  -0.383  -0.091  -0.259
    1UNL     H7   34  -0.103  -0.326  -0.143
    1UNL     H8   35  -0.241  -0.304   0.060
    1UNL     H9   36  -0.100  -0.218   0.124
    1UNL    H10   37  -0.271  -0.057   0.148
    1UNL    H11   38  -0.211   0.133   0.022
    1UNL    H12   39  -0.223   0.067  -0.237
    1UNL    H13   40   0.027  -0.006  -0.298
    1UNL    H14   41   0.022   0.150  -0.202
    1UNL    H15   42   0.438  -0.281  -0.040
    1UNL    H16   43   0.581  -0.089   0.036
    1UNL    H17   44   0.642   0.060   0.114
    1UNL    H18   45   0.693   0.224   0.113
    1UNL    H19   46   0.703   0.140  -0.030
    1UNL    H20   47   0.252   0.184   0.003
    1UNL    H21   48  -0.013  -0.028   0.124
    1UNL    H22   49   0.024   0.327   0.372
    1UNL    H23   50  -0.046   0.407   0.226
    1UNL    H24   51   0.116   0.351   0.199
   0.00000   0.00000   0.00000   0.00000   0.00000   0.00000   0.00000   0.00000   0.00000
Generated with MDTraj, t= 55.0
 51
    1UNL     C1    1  -0.536   0.013   0.089
    1UNL     C2    2  -0.504  -0.065  -0.031
    1UNL     C3    3  -0.373  -0.109  -0.056
    1UNL     C4    4  -0.323  -0.158  -0.187
    1UNL     N1    5  -0.176  -0.130  -0.200
    1UNL     C5    6  -0.104  -0.214  -0.099
    1UNL     C6    7  -0.171  -0.211   0.041
    1UNL     C7    8  -0.259  -0.083   0.038
    1UNL     C8    9  -0.167   0.032  -0.009
    1UNL     C9   10  -0.151   0.013  -0.167
    1UNL    C10   11  -0.001   0.050  -0.201
    1UNL    C11   12   0.065  -0.018  -0.077
    1UNL    C12   13   0.039  -0.171  -0.086
    1UNL     N2   14   0.147  -0.233  -0.049
    1UNL    C13   15   0.255  -0.144  -0.035
    1UNL    C14   16   0.388  -0.170  -0.002
    1UNL    C15   17   0.465  -0.061   0.021
    1UNL    C16   18   0.432   0.073  -0.008
    1UNL     O1   19   0.523   0.177  -0.010
    1UNL    C17   20   0.646   0.157   0.057
    1UNL    C18   21   0.298   0.094  -0.043
    1UNL    C19   22   0.216  -0.015  -0.065
    1UNL    C20   23  -0.021   0.028   0.043
    1UNL     O2   24   0.022   0.163   0.082
    1UNL    C21   25  -0.015   0.184   0.216
    1UNL    C22   26   0.028   0.314   0.274
    1UNL     O3   27  -0.088   0.103   0.271
    1UNL     H1   28  -0.479  -0.016   0.179
    1UNL     H2   29  -0.641   0.009   0.103
    1UNL     H3   30  -0.499   0.113   0.069
    1UNL     H4   31  -0.572  -0.077  -0.114
    1UNL     H5   32  -0.342  -0.272  -0.202
    1UNL     H6   33  -0.374  -0.097  -0.260
    1UNL     H7   34  -0.099  -0.310  -0.142
    1UNL     H8   35  -0.238  -0.299   0.057
    1UNL     H9   36  -0.096  -0.210   0.120
    1UNL    H10   37  -0.297  -0.069   0.138
    1UNL    H11   38  -0.213   0.143   0.004
    1UNL    H12   39  -0.217   0.091  -0.217
    1UNL    H13   40   0.032   0.001  -0.298
    1UNL    H14   41   0.029   0.158  -0.206
    1UNL    H15   42   0.420  -0.270   0.008
    1UNL    H16   43   0.567  -0.081   0.051
    1UNL    H17   44   0.623   0.146   0.161
    1UNL    H18   45   0.703   0.239   0.034
    1UNL    H19   46   0.706   0.071   0.035
    1UNL    H20   47   0.262   0.201  -0.037
    1UNL    H21   48  -0.009  -0.043   0.122
    1UNL    H22   49  -0.049   0.390   0.242
    1UNL    H23   50   0.127   0.336   0.231
    1UNL    H24   51   0.040   0.302   0.386
   0.00000   0.00000   0.00000   0.00000   0.00000   0.00000   0.00000   0.00000   0.00000
Generated with MDTraj, t= 56.0
 51
    1UNL     C1    1  -0.547  -0.011   0.097
    1UNL     C2    2  -0.507  -0.061  -0.037
    1UNL     C3    3  -0.377  -0.096  -0.068
    1UNL     C4    4  -0.324  -0.159  -0.198
    1UNL     N1    5  -0.175  -0.133  -0.193
    1UNL     C5    6  -0.097  -0.223  -0.097
    1UNL     C6    7  -0.175  -0.200   0.036
    1UNL     C7    8  -0.262  -0.065   0.030
    1UNL     C8    9  -0.166   0.049  -0.030
    1UNL     C9   10  -0.142   0.013  -0.181
    1UNL    C10   11   0.007   0.036  -0.203
    1UNL    C11   12   0.066  -0.022  -0.077
    1UNL    C12   13   0.042  -0.167  -0.068
    1UNL     N2   14   0.146  -0.232  -0.032
    1UNL    C13   15   0.252  -0.145  -0.030
    1UNL    C14   16   0.386  -0.168   0.004
    1UNL    C15   17   0.477  -0.065   0.006
    1UNL    C16   18   0.440   0.067  -0.019
    1UNL     O1   19   0.525   0.177  -0.021
    1UNL    C17   20   0.651   0.156   0.042
    1UNL    C18   21   0.300   0.094  -0.051
    1UNL    C19   22   0.209  -0.011  -0.051
    1UNL    C20   23  -0.027   0.041   0.041
    1UNL     O2   24   0.010   0.173   0.089
    1UNL    C21   25  -0.016   0.179   0.224
    1UNL    C22   26   0.017   0.308   0.297
    1UNL     O3   27  -0.078   0.096   0.285
    1UNL     H1   28  -0.543  -0.087   0.182
    1UNL     H2   29  -0.643   0.030   0.096
    1UNL     H3   30  -0.476   0.062   0.129
    1UNL     H4   31  -0.583  -0.094  -0.115
    1UNL     H5   32  -0.342  -0.271  -0.182
    1UNL     H6   33  -0.370  -0.124  -0.291
    1UNL     H7   34  -0.087  -0.327  -0.111
    1UNL     H8   35  -0.241  -0.283   0.060
    1UNL     H9   36  -0.105  -0.196   0.121
    1UNL    H10   37  -0.295  -0.032   0.128
    1UNL    H11   38  -0.207   0.159  -0.011
    1UNL    H12   39  -0.207   0.076  -0.249
    1UNL    H13   40   0.058  -0.030  -0.281
    1UNL    H14   41   0.027   0.146  -0.223
    1UNL    H15   42   0.416  -0.273   0.017
    1UNL    H16   43   0.577  -0.091   0.036
    1UNL    H17   44   0.640   0.084   0.123
    1UNL    H18   45   0.694   0.247   0.068
    1UNL    H19   46   0.726   0.109  -0.020
    1UNL    H20   47   0.273   0.193  -0.055
    1UNL    H21   48  -0.026  -0.027   0.126
    1UNL    H22   49   0.120   0.338   0.275
    1UNL    H23   50   0.022   0.284   0.407
    1UNL    H24   51  -0.062   0.391   0.279
   0.00000   0.00000   0.00000   0.00000   0.00000   0.00000   0.00000   0.00000   0.00000
Generated with MDTraj, t= 57.0
 51
    1UNL     C1    1  -0.584  -0.039   0.075
    1UNL     C2    2  -0.511  -0.075  -0.047
    1UNL     C3    3  -0.373  -0.092  -0.060
    1UNL     C4    4  -0.319  -0.156  -0.188
    1UNL     N1    5  -0.174  -0.126  -0.200
    1UNL     C5    6  -0.101  -0.210  -0.088
    1UNL     C6    7  -0.182  -0.196   0.038
    1UNL     C7    8  -0.258  -0.066   0.036
    1UNL     C8    9  -0.169   0.048  -0.017
    1UNL     C9   10  -0.137   0.019  -0.165
    1UNL    C10   11   0.009   0.042  -0.192
    1UNL    C11   12   0.068  -0.021  -0.058
    1UNL    C12   13   0.042  -0.173  -0.070
    1UNL     N2   14   0.151  -0.238  -0.052
    1UNL    C13   15   0.265  -0.148  -0.040
    1UNL    C14   16   0.399  -0.173  -0.022
    1UNL    C15   17   0.487  -0.067  -0.005
    1UNL    C16   18   0.441   0.065  -0.011
    1UNL     O1   19   0.526   0.176  -0.005
    1UNL    C17   20   0.660   0.143   0.012
    1UNL    C18   21   0.301   0.087  -0.021
    1UNL    C19   22   0.215  -0.016  -0.033
    1UNL    C20   23  -0.033   0.040   0.050
    1UNL     O2   24   0.016   0.177   0.089
    1UNL    C21   25  -0.020   0.191   0.221
    1UNL    C22   26   0.018   0.320   0.283
    1UNL     O3   27  -0.087   0.114   0.286
    1UNL     H1   28  -0.542  -0.070   0.176
    1UNL     H2   29  -0.686  -0.068   0.075
    1UNL     H3   30  -0.582   0.066   0.091
    1UNL     H4   31  -0.561  -0.097  -0.133
    1UNL     H5   32  -0.346  -0.264  -0.187
    1UNL     H6   33  -0.375  -0.106  -0.271
    1UNL     H7   34  -0.108  -0.303  -0.135
    1UNL     H8   35  -0.252  -0.277   0.059
    1UNL     H9   36  -0.114  -0.203   0.124
    1UNL    H10   37  -0.287  -0.043   0.138
    1UNL    H11   38  -0.225   0.143   0.004
    1UNL    H12   39  -0.195   0.080  -0.238
    1UNL    H13   40   0.048  -0.005  -0.287
    1UNL    H14   41   0.032   0.153  -0.186
    1UNL    H15   42   0.433  -0.274  -0.013
    1UNL    H16   43   0.596  -0.077  -0.006
    1UNL    H17   44   0.684   0.086   0.106
    1UNL    H18   45   0.721   0.230  -0.003
    1UNL    H19   46   0.693   0.077  -0.069
    1UNL    H20   47   0.257   0.188  -0.038
    1UNL    H21   48  -0.029  -0.028   0.137
    1UNL    H22   49   0.009   0.308   0.391
    1UNL    H23   50  -0.065   0.400   0.274
    1UNL    H24   51   0.108   0.374   0.238
   0.00000   0.00000   0.00000   0.00000   0.00000   0.00000   0.00000   0.00000   0.00000
Generated with MDTraj, t= 58.0
 51
    1UNL     C1    1  -0.556  -0.041   0.085
    1UNL     C2    2  -0.501  -0.092  -0.043
    1UNL     C3    3  -0.366  -0.106  -0.063
    1UNL     C4    4  -0.313  -0.149  -0.197
    1UNL     N1    5  -0.166  -0.113  -0.201
    1UNL     C5    6  -0.095  -0.214  -0.108
    1UNL     C6    7  -0.177  -0.217   0.031
    1UNL     C7    8  -0.267  -0.084   0.044
    1UNL     C8    9  -0.177   0.038  -0.003
    1UNL     C9   10  -0.138   0.026  -0.159
    1UNL    C10   11   0.012   0.058  -0.169
    1UNL    C11   12   0.068  -0.019  -0.042
    1UNL    C12   13   0.048  -0.169  -0.076
    1UNL     N2   14   0.154  -0.240  -0.070
    1UNL    C13   15   0.258  -0.152  -0.050
    1UNL    C14   16   0.394  -0.175  -0.050
    1UNL    C15   17   0.482  -0.073  -0.024
    1UNL    C16   18   0.440   0.055   0.006
    1UNL     O1   19   0.533   0.163   0.030
    1UNL    C17   20   0.657   0.130  -0.016
    1UNL    C18   21   0.300   0.086  -0.006
    1UNL    C19   22   0.214  -0.023  -0.022
    1UNL    C20   23  -0.031   0.033   0.064
    1UNL     O2   24   0.011   0.174   0.098
    1UNL    C21   25  -0.037   0.217   0.223
    1UNL    C22   26   0.017   0.347   0.259
    1UNL     O3   27  -0.121   0.154   0.289
    1UNL     H1   28  -0.488  -0.023   0.168
    1UNL     H2   29  -0.641  -0.105   0.110
    1UNL     H3   30  -0.590   0.058   0.064
    1UNL     H4   31  -0.569  -0.113  -0.133
    1UNL     H5   32  -0.316  -0.257  -0.211
    1UNL     H6   33  -0.377  -0.102  -0.280
    1UNL     H7   34  -0.089  -0.308  -0.153
    1UNL     H8   35  -0.241  -0.303   0.038
    1UNL     H9   36  -0.112  -0.231   0.119
    1UNL    H10   37  -0.307  -0.061   0.141
    1UNL    H11   38  -0.226   0.126   0.024
    1UNL    H12   39  -0.199   0.085  -0.229
    1UNL    H13   40   0.053   0.020  -0.268
    1UNL    H14   41   0.032   0.169  -0.158
    1UNL    H15   42   0.433  -0.273  -0.074
    1UNL    H16   43   0.585  -0.089  -0.041
    1UNL    H17   44   0.711   0.043   0.035
    1UNL    H18   45   0.722   0.221  -0.021
    1UNL    H19   46   0.650   0.103  -0.124
    1UNL    H20   47   0.267   0.188  -0.018
    1UNL    H21   48  -0.021  -0.028   0.157
    1UNL    H22   49  -0.066   0.419   0.241
    1UNL    H23   50   0.102   0.392   0.195
    1UNL    H24   51   0.074   0.353   0.355
   0.00000   0.00000   0.00000   0.00000   0.00000   0.00000   0.00000   0.00000   0.00000
Generated with MDTraj, t= 59.0
 51
    1UNL     C1    1  -0.556  -0.050   0.110
    1UNL     C2    2  -0.502  -0.080  -0.024
    1UNL     C3    3  -0.369  -0.085  -0.060
    1UNL     C4    4  -0.320  -0.130  -0.190
    1UNL     N1    5  -0.170  -0.109  -0.192
    1UNL     C5    6  -0.102  -0.210  -0.099
    1UNL     C6    7  -0.177  -0.216   0.031
    1UNL     C7    8  -0.256  -0.083   0.039
    1UNL     C8    9  -0.161   0.033   0.012
    1UNL     C9   10  -0.136   0.031  -0.148
    1UNL    C10   11   0.021   0.054  -0.165
    1UNL    C11   12   0.077  -0.030  -0.047
    1UNL    C12   13   0.050  -0.174  -0.077
    1UNL     N2   14   0.158  -0.241  -0.095
    1UNL    C13   15   0.266  -0.149  -0.072
    1UNL    C14   16   0.400  -0.178  -0.059
    1UNL    C15   17   0.488  -0.080  -0.020
    1UNL    C16   18   0.447   0.052   0.005
    1UNL     O1   19   0.530   0.158   0.035
    1UNL    C17   20   0.662   0.143  -0.008
    1UNL    C18   21   0.309   0.078   0.001
    1UNL    C19   22   0.220  -0.027  -0.027
    1UNL    C20   23  -0.018   0.025   0.067
    1UNL     O2   24   0.026   0.162   0.104
    1UNL    C21   25  -0.053   0.211   0.198
    1UNL    C22   26  -0.020   0.346   0.246
    1UNL     O3   27  -0.155   0.163   0.251
    1UNL     H1   28  -0.501  -0.080   0.193
    1UNL     H2   29  -0.659  -0.090   0.117
    1UNL     H3   30  -0.556   0.058   0.123
    1UNL     H4   31  -0.572  -0.093  -0.100
    1UNL     H5   32  -0.345  -0.233  -0.207
    1UNL     H6   33  -0.359  -0.067  -0.279
    1UNL     H7   34  -0.099  -0.310  -0.133
    1UNL     H8   35  -0.249  -0.294   0.047
    1UNL     H9   36  -0.103  -0.223   0.112
    1UNL    H10   37  -0.286  -0.073   0.141
    1UNL    H11   38  -0.205   0.119   0.043
    1UNL    H12   39  -0.195   0.112  -0.188
    1UNL    H13   40   0.048   0.010  -0.265
    1UNL    H14   41   0.051   0.164  -0.168
    1UNL    H15   42   0.430  -0.278  -0.088
    1UNL    H16   43   0.592  -0.107  -0.004
    1UNL    H17   44   0.719   0.062   0.047
    1UNL    H18   45   0.720   0.240  -0.014
    1UNL    H19   46   0.663   0.107  -0.115
    1UNL    H20   47   0.266   0.170   0.022
    1UNL    H21   48  -0.017  -0.031   0.164
    1UNL    H22   49   0.037   0.402   0.164
    1UNL    H23   50   0.036   0.359   0.344
    1UNL    H24   51  -0.113   0.400   0.265
   0.00000   0.00000   0.00000   0.00000   0.00000   0.00000   0.00000   0.00000   0.00000
Generated with MDTraj, t= 60.0
 51
    1UNL     C1    1  -0.528  -0.049   0.131
    1UNL     C2    2  -0.493  -0.077  -0.005
    1UNL     C3    3  -0.364  -0.101  -0.044
    1UNL     C4    4  -0.322  -0.135  -0.183
    1UNL     N1    5  -0.171  -0.111  -0.198
    1UNL     C5    6  -0.094  -0.209  -0.111
    1UNL     C6    7  -0.168  -0.211   0.024
    1UNL     C7    8  -0.250  -0.075   0.048
    1UNL     C8    9  -0.157   0.038   0.003
    1UNL     C9   10  -0.137   0.025  -0.160
    1UNL    C10   11   0.016   0.051  -0.182
    1UNL    C11   12   0.070  -0.017  -0.059
    1UNL    C12   13   0.045  -0.164  -0.088
    1UNL     N2   14   0.149  -0.237  -0.078
    1UNL    C13   15   0.261  -0.148  -0.056
    1UNL    C14   16   0.395  -0.178  -0.057
    1UNL    C15   17   0.492  -0.083  -0.031
    1UNL    C16   18   0.449   0.048  -0.004
    1UNL     O1   19   0.536   0.153   0.024
    1UNL    C17   20   0.673   0.125   0.026
    1UNL    C18   21   0.314   0.080  -0.003
    1UNL    C19   22   0.221  -0.015  -0.047
    1UNL    C20   23  -0.021   0.029   0.064
    1UNL     O2   24   0.021   0.161   0.107
    1UNL    C21   25  -0.070   0.217   0.198
    1UNL    C22   26  -0.039   0.350   0.257
    1UNL     O3   27  -0.172   0.152   0.235
    1UNL     H1   28  -0.576  -0.122   0.189
    1UNL     H2   29  -0.604   0.031   0.131
    1UNL     H3   30  -0.450  -0.017   0.199
    1UNL     H4   31  -0.571  -0.079  -0.081
    1UNL     H5   32  -0.330  -0.240  -0.204
    1UNL     H6   33  -0.389  -0.084  -0.263
    1UNL     H7   34  -0.083  -0.297  -0.167
    1UNL     H8   35  -0.236  -0.293   0.027
    1UNL     H9   36  -0.097  -0.223   0.106
    1UNL    H10   37  -0.272  -0.062   0.152
    1UNL    H11   38  -0.202   0.130   0.010
    1UNL    H12   39  -0.186   0.096  -0.222
    1UNL    H13   40   0.061   0.003  -0.274
    1UNL    H14   41   0.036   0.162  -0.189
    1UNL    H15   42   0.421  -0.274  -0.097
    1UNL    H16   43   0.596  -0.100  -0.051
    1UNL    H17   44   0.692   0.043   0.096
    1UNL    H18   45   0.733   0.220   0.050
    1UNL    H19   46   0.712   0.092  -0.072
    1UNL    H20   47   0.278   0.180   0.039
    1UNL    H21   48  -0.027  -0.036   0.157
    1UNL    H22   49   0.026   0.354   0.353
    1UNL    H23   50  -0.134   0.394   0.296
    1UNL    H24   51  -0.005   0.412   0.172
   0.00000   0.00000   0.00000   0.00000   0.00000   0.00000   0.00000   0.00000   0.00000
Generated with MDTraj, t= 61.0
 51
    1UNL     C1    1  -0.536  -0.034   0.119
    1UNL     C2    2  -0.491  -0.081  -0.015
    1UNL     C3    3  -0.361  -0.106  -0.045
    1UNL     C4    4  -0.323  -0.154  -0.182
    1UNL     N1    5  -0.180  -0.117  -0.189
    1UNL     C5    6  -0.096  -0.209  -0.104
    1UNL     C6    7  -0.154  -0.223   0.036
    1UNL     C7    8  -0.243  -0.093   0.047
    1UNL     C8    9  -0.166   0.039  -0.000
    1UNL     C9   10  -0.151   0.025  -0.159
    1UNL    C10   11  -0.005   0.062  -0.192
    1UNL    C11   12   0.063  -0.002  -0.072
    1UNL    C12   13   0.044  -0.157  -0.084
    1UNL     N2   14   0.150  -0.227  -0.085
    1UNL    C13   15   0.256  -0.143  -0.066
    1UNL    C14   16   0.388  -0.176  -0.046
    1UNL    C15   17   0.483  -0.080  -0.013
    1UNL    C16   18   0.452   0.053  -0.016
    1UNL     O1   19   0.547   0.154   0.011
    1UNL    C17   20   0.673   0.110   0.060
    1UNL    C18   21   0.316   0.088  -0.028
    1UNL    C19   22   0.220  -0.007  -0.058
    1UNL    C20   23  -0.021   0.043   0.050
    1UNL     O2   24   0.016   0.172   0.102
    1UNL    C21   25  -0.057   0.207   0.207
    1UNL    C22   26  -0.025   0.341   0.259
    1UNL     O3   27  -0.147   0.143   0.261
    1UNL     H1   28  -0.525  -0.099   0.202
    1UNL     H2   29  -0.644  -0.015   0.107
    1UNL     H3   30  -0.480   0.056   0.147
    1UNL     H4   31  -0.560  -0.084  -0.102
    1UNL     H5   32  -0.341  -0.259  -0.208
    1UNL     H6   33  -0.376  -0.094  -0.263
    1UNL     H7   34  -0.097  -0.302  -0.153
    1UNL     H8   35  -0.216  -0.310   0.039
    1UNL     H9   36  -0.080  -0.227   0.115
    1UNL    H10   37  -0.272  -0.072   0.148
    1UNL    H11   38  -0.215   0.117   0.056
    1UNL    H12   39  -0.224   0.079  -0.212
    1UNL    H13   40   0.027   0.010  -0.287
    1UNL    H14   41   0.004   0.174  -0.202
    1UNL    H15   42   0.427  -0.276  -0.066
    1UNL    H16   43   0.582  -0.112   0.010
    1UNL    H17   44   0.650   0.047   0.142
    1UNL    H18   45   0.733   0.202   0.086
    1UNL    H19   46   0.736   0.057  -0.010
    1UNL    H20   47   0.280   0.174   0.016
    1UNL    H21   48  -0.006  -0.032   0.134
    1UNL    H22   49  -0.116   0.402   0.296
    1UNL    H23   50  -0.004   0.407   0.173
    1UNL    H24   51   0.075   0.337   0.312
   0.00000   0.00000   0.00000   0.00000   0.00000   0.00000   0.00000   0.00000   0.00000
Generated with MDTraj, t= 62.0
 51
    1UNL     C1    1  -0.554  -0.029   0.111
    1UNL     C2    2  -0.498  -0.083  -0.011
    1UNL     C3    3  -0.365  -0.097  -0.042
    1UNL     C4    4  -0.327  -0.121  -0.182
    1UNL     N1    5  -0.179  -0.119  -0.200
    1UNL     C5    6  -0.100  -0.215  -0.099
    1UNL     C6    7  -0.172  -0.211   0.039
    1UNL     C7    8  -0.249  -0.076   0.054
    1UNL     C8    9  -0.160   0.037  -0.003
    1UNL     C9   10  -0.139   0.021  -0.165
    1UNL    C10   11   0.007   0.037  -0.200
    1UNL    C11   12   0.068  -0.027  -0.070
    1UNL    C12   13   0.045  -0.173  -0.084
    1UNL     N2   14   0.150  -0.242  -0.075
    1UNL    C13   15   0.258  -0.147  -0.064
    1UNL    C14   16   0.393  -0.175  -0.049
    1UNL    C15   17   0.483  -0.069  -0.021
    1UNL    C16   18   0.432   0.061  -0.007
    1UNL     O1   19   0.516   0.173   0.019
    1UNL    C17   20   0.646   0.141   0.073
    1UNL    C18   21   0.299   0.089  -0.026
    1UNL    C19   22   0.220  -0.014  -0.057
    1UNL    C20   23  -0.016   0.040   0.039
    1UNL     O2   24   0.023   0.172   0.081
    1UNL    C21   25  -0.030   0.197   0.211
    1UNL    C22   26   0.004   0.335   0.260
    1UNL     O3   27  -0.103   0.117   0.270
    1UNL     H1   28  -0.513  -0.068   0.204
    1UNL     H2   29  -0.659  -0.053   0.110
    1UNL     H3   30  -0.536   0.078   0.112
    1UNL     H4   31  -0.564  -0.084  -0.091
    1UNL     H5   32  -0.370  -0.222  -0.207
    1UNL     H6   33  -0.373  -0.051  -0.254
    1UNL     H7   34  -0.108  -0.315  -0.132
    1UNL     H8   35  -0.252  -0.283   0.046
    1UNL     H9   36  -0.103  -0.227   0.119
    1UNL    H10   37  -0.282  -0.057   0.157
    1UNL    H11   38  -0.214   0.134   0.023
    1UNL    H12   39  -0.198   0.083  -0.226
    1UNL    H13   40   0.038  -0.022  -0.290
    1UNL    H14   41   0.036   0.145  -0.216
    1UNL    H15   42   0.435  -0.270  -0.069
    1UNL    H16   43   0.591  -0.087  -0.016
    1UNL    H17   44   0.621   0.069   0.143
    1UNL    H18   45   0.692   0.233   0.113
    1UNL    H19   46   0.715   0.104   0.003
    1UNL    H20   47   0.249   0.185  -0.006
    1UNL    H21   48   0.004  -0.026   0.130
    1UNL    H22   49   0.010   0.405   0.171
    1UNL    H23   50   0.106   0.336   0.304
    1UNL    H24   51  -0.072   0.365   0.338
   0.00000   0.00000   0.00000   0.00000   0.00000   0.00000   0.00000   0.00000   0.00000
Generated with MDTraj, t= 63.0
 51
    1UNL     C1    1  -0.531  -0.030   0.109
    1UNL     C2    2  -0.497  -0.087  -0.019
    1UNL     C3    3  -0.370  -0.088  -0.057
    1UNL     C4    4  -0.326  -0.143  -0.191
    1UNL     N1    5  -0.179  -0.132  -0.202
    1UNL     C5    6  -0.106  -0.216  -0.097
    1UNL     C6    7  -0.175  -0.207   0.042
    1UNL     C7    8  -0.256  -0.068   0.044
    1UNL     C8    9  -0.169   0.042  -0.018
    1UNL     C9   10  -0.143   0.016  -0.173
    1UNL    C10   11   0.007   0.035  -0.206
    1UNL    C11   12   0.065  -0.024  -0.074
    1UNL    C12   13   0.038  -0.169  -0.083
    1UNL     N2   14   0.147  -0.237  -0.074
    1UNL    C13   15   0.252  -0.144  -0.071
    1UNL    C14   16   0.383  -0.167  -0.045
    1UNL    C15   17   0.471  -0.067  -0.012
    1UNL    C16   18   0.423   0.067   0.002
    1UNL     O1   19   0.505   0.178   0.033
    1UNL    C17   20   0.639   0.151   0.066
    1UNL    C18   21   0.291   0.091  -0.017
    1UNL    C19   22   0.209  -0.013  -0.052
    1UNL    C20   23  -0.027   0.037   0.041
    1UNL     O2   24   0.021   0.164   0.084
    1UNL    C21   25  -0.010   0.189   0.213
    1UNL    C22   26   0.047   0.321   0.260
    1UNL     O3   27  -0.075   0.127   0.290
    1UNL     H1   28  -0.528  -0.100   0.197
    1UNL     H2   29  -0.629   0.006   0.114
    1UNL     H3   30  -0.462   0.048   0.135
    1UNL     H4   31  -0.577  -0.116  -0.095
    1UNL     H5   32  -0.356  -0.252  -0.208
    1UNL     H6   33  -0.372  -0.087  -0.269
    1UNL     H7   34  -0.091  -0.315  -0.134
    1UNL     H8   35  -0.238  -0.290   0.068
    1UNL     H9   36  -0.093  -0.212   0.111
    1UNL    H10   37  -0.281  -0.052   0.150
    1UNL    H11   38  -0.215   0.148   0.008
    1UNL    H12   39  -0.199   0.082  -0.233
    1UNL    H13   40   0.032  -0.024  -0.297
    1UNL    H14   41   0.028   0.143  -0.231
    1UNL    H15   42   0.416  -0.272  -0.041
    1UNL    H16   43   0.574  -0.091  -0.015
    1UNL    H17   44   0.629   0.090   0.149
    1UNL    H18   45   0.683   0.251   0.079
    1UNL    H19   46   0.689   0.104  -0.013
    1UNL    H20   47   0.253   0.194  -0.021
    1UNL    H21   48  -0.030  -0.028   0.133
    1UNL    H22   49   0.157   0.316   0.277
    1UNL    H23   50   0.014   0.334   0.367
    1UNL    H24   51   0.023   0.401   0.181
   0.00000   0.00000   0.00000   0.00000   0.00000   0.00000   0.00000   0.00000   0.00000
Generated with MDTraj, t= 64.0
 51
    1UNL     C1    1  -0.562  -0.031   0.098
    1UNL     C2    2  -0.499  -0.079  -0.031
    1UNL     C3    3  -0.372  -0.115  -0.050
    1UNL     C4    4  -0.330  -0.169  -0.188
    1UNL     N1    5  -0.190  -0.126  -0.195
    1UNL     C5    6  -0.106  -0.215  -0.105
    1UNL     C6    7  -0.168  -0.214   0.035
    1UNL     C7    8  -0.252  -0.086   0.041
    1UNL     C8    9  -0.177   0.036  -0.005
    1UNL     C9   10  -0.164   0.017  -0.163
    1UNL    C10   11  -0.017   0.058  -0.204
    1UNL    C11   12   0.057  -0.007  -0.083
    1UNL    C12   13   0.036  -0.162  -0.092
    1UNL     N2   14   0.146  -0.228  -0.078
    1UNL    C13   15   0.249  -0.133  -0.061
    1UNL    C14   16   0.380  -0.168  -0.020
    1UNL    C15   17   0.476  -0.071   0.006
    1UNL    C16   18   0.435   0.066   0.012
    1UNL     O1   19   0.523   0.171   0.033
    1UNL    C17   20   0.661   0.152   0.057
    1UNL    C18   21   0.298   0.100  -0.019
    1UNL    C19   22   0.207  -0.003  -0.052
    1UNL    C20   23  -0.026   0.038   0.044
    1UNL     O2   24   0.015   0.175   0.070
    1UNL    C21   25   0.001   0.191   0.211
    1UNL    C22   26   0.071   0.316   0.262
    1UNL     O3   27  -0.060   0.120   0.281
    1UNL     H1   28  -0.536  -0.096   0.187
    1UNL     H2   29  -0.667  -0.038   0.091
    1UNL     H3   30  -0.528   0.069   0.123
    1UNL     H4   31  -0.558  -0.079  -0.114
    1UNL     H5   32  -0.326  -0.284  -0.186
    1UNL     H6   33  -0.390  -0.140  -0.271
    1UNL     H7   34  -0.097  -0.313  -0.145
    1UNL     H8   35  -0.226  -0.306   0.046
    1UNL     H9   36  -0.105  -0.221   0.121
    1UNL    H10   37  -0.291  -0.060   0.141
    1UNL    H11   38  -0.231   0.138   0.027
    1UNL    H12   39  -0.232   0.077  -0.215
    1UNL    H13   40   0.005   0.005  -0.299
    1UNL    H14   41  -0.000   0.167  -0.225
    1UNL    H15   42   0.402  -0.271  -0.019
    1UNL    H16   43   0.577  -0.111   0.023
    1UNL    H17   44   0.669   0.085   0.139
    1UNL    H18   45   0.695   0.258   0.067
    1UNL    H19   46   0.700   0.112  -0.035
    1UNL    H20   47   0.269   0.197  -0.035
    1UNL    H21   48  -0.007  -0.026   0.134
    1UNL    H22   49   0.056   0.329   0.370
    1UNL    H23   50   0.019   0.413   0.228
    1UNL    H24   51   0.176   0.301   0.219
   0.00000   0.00000   0.00000   0.00000   0.00000   0.00000   0.00000   0.00000   0.00000
Generated with MDTraj, t= 65.0
 51
    1UNL     C1    1  -0.542  -0.042   0.112
    1UNL     C2    2  -0.503  -0.087  -0.027
    1UNL     C3    3  -0.375  -0.097  -0.057
    1UNL     C4    4  -0.325  -0.146  -0.188
    1UNL     N1    5  -0.178  -0.126  -0.204
    1UNL     C5    6  -0.101  -0.216  -0.110
    1UNL     C6    7  -0.181  -0.211   0.023
    1UNL     C7    8  -0.258  -0.075   0.033
    1UNL     C8    9  -0.174   0.043  -0.018
    1UNL     C9   10  -0.144   0.017  -0.178
    1UNL    C10   11   0.007   0.040  -0.202
    1UNL    C11   12   0.059  -0.020  -0.068
    1UNL    C12   13   0.033  -0.169  -0.079
    1UNL     N2   14   0.139  -0.239  -0.071
    1UNL    C13   15   0.249  -0.152  -0.047
    1UNL    C14   16   0.385  -0.169  -0.022
    1UNL    C15   17   0.471  -0.062  -0.007
    1UNL    C16   18   0.425   0.071  -0.004
    1UNL     O1   19   0.508   0.182   0.020
    1UNL    C17   20   0.649   0.150   0.051
    1UNL    C18   21   0.290   0.088  -0.027
    1UNL    C19   22   0.206  -0.019  -0.044
    1UNL    C20   23  -0.034   0.044   0.047
    1UNL     O2   24   0.017   0.181   0.085
    1UNL    C21   25   0.007   0.194   0.223
    1UNL    C22   26   0.041   0.329   0.274
    1UNL     O3   27  -0.042   0.113   0.291
    1UNL     H1   28  -0.504  -0.111   0.187
    1UNL     H2   29  -0.649  -0.039   0.122
    1UNL     H3   30  -0.495   0.055   0.130
    1UNL     H4   31  -0.580  -0.094  -0.109
    1UNL     H5   32  -0.358  -0.255  -0.198
    1UNL     H6   33  -0.370  -0.088  -0.265
    1UNL     H7   34  -0.100  -0.309  -0.162
    1UNL     H8   35  -0.248  -0.295   0.039
    1UNL     H9   36  -0.117  -0.222   0.107
    1UNL    H10   37  -0.290  -0.048   0.135
    1UNL    H11   38  -0.223   0.147  -0.004
    1UNL    H12   39  -0.200   0.081  -0.240
    1UNL    H13   40   0.041  -0.026  -0.285
    1UNL    H14   41   0.044   0.144  -0.216
    1UNL    H15   42   0.423  -0.272  -0.025
    1UNL    H16   43   0.576  -0.079   0.003
    1UNL    H17   44   0.657   0.083   0.136
    1UNL    H18   45   0.690   0.255   0.063
    1UNL    H19   46   0.684   0.111  -0.047
    1UNL    H20   47   0.250   0.194  -0.023
    1UNL    H21   48  -0.026  -0.027   0.132
    1UNL    H22   49  -0.040   0.403   0.258
    1UNL    H23   50   0.131   0.371   0.217
    1UNL    H24   51   0.079   0.317   0.378
   0.00000   0.00000   0.00000   0.00000   0.00000   0.00000   0.00000   0.00000   0.00000
Generated with MDTraj, t= 66.0
 51
    1UNL     C1    1  -0.568  -0.047   0.103
    1UNL     C2    2  -0.500  -0.093  -0.021
    1UNL     C3    3  -0.376  -0.093  -0.059
    1UNL     C4    4  -0.328  -0.137  -0.196
    1UNL     N1    5  -0.179  -0.113  -0.198
    1UNL     C5    6  -0.109  -0.212  -0.100
    1UNL     C6    7  -0.189  -0.201   0.039
    1UNL     C7    8  -0.263  -0.070   0.040
    1UNL     C8    9  -0.168   0.044  -0.015
    1UNL     C9   10  -0.134   0.031  -0.168
    1UNL    C10   11   0.013   0.043  -0.184
    1UNL    C11   12   0.067  -0.029  -0.058
    1UNL    C12   13   0.040  -0.174  -0.075
    1UNL     N2   14   0.152  -0.238  -0.078
    1UNL    C13   15   0.256  -0.149  -0.045
    1UNL    C14   16   0.393  -0.170  -0.029
    1UNL    C15   17   0.475  -0.061  -0.009
    1UNL    C16   18   0.437   0.073  -0.020
    1UNL     O1   19   0.513   0.182   0.006
    1UNL    C17   20   0.655   0.140   0.047
    1UNL    C18   21   0.297   0.093  -0.029
    1UNL    C19   22   0.211  -0.013  -0.045
    1UNL    C20   23  -0.026   0.036   0.048
    1UNL     O2   24   0.014   0.171   0.079
    1UNL    C21   25  -0.007   0.184   0.216
    1UNL    C22   26   0.015   0.328   0.258
    1UNL     O3   27  -0.049   0.103   0.294
    1UNL     H1   28  -0.566  -0.119   0.182
    1UNL     H2   29  -0.677  -0.032   0.091
    1UNL     H3   30  -0.523   0.045   0.140
    1UNL     H4   31  -0.566  -0.115  -0.101
    1UNL     H5   32  -0.340  -0.246  -0.199
    1UNL     H6   33  -0.392  -0.089  -0.270
    1UNL     H7   34  -0.110  -0.312  -0.138
    1UNL     H8   35  -0.253  -0.282   0.071
    1UNL     H9   36  -0.107  -0.201   0.106
    1UNL    H10   37  -0.297  -0.047   0.142
    1UNL    H11   38  -0.209   0.140   0.018
    1UNL    H12   39  -0.191   0.090  -0.234
    1UNL    H13   40   0.049  -0.019  -0.270
    1UNL    H14   41   0.047   0.149  -0.185
    1UNL    H15   42   0.437  -0.266  -0.027
    1UNL    H16   43   0.579  -0.080   0.009
    1UNL    H17   44   0.650   0.073   0.135
    1UNL    H18   45   0.714   0.235   0.064
    1UNL    H19   46   0.689   0.088  -0.049
    1UNL    H20   47   0.258   0.188  -0.019
    1UNL    H21   48  -0.035  -0.029   0.135
    1UNL    H22   49   0.048   0.412   0.193
    1UNL    H23   50   0.084   0.319   0.347
    1UNL    H24   51  -0.081   0.368   0.296
   0.00000   0.00000   0.00000   0.00000   0.00000   0.00000   0.00000   0.00000   0.00000
Generated with MDTraj, t= 67.0
 51
    1UNL     C1    1  -0.546  -0.039   0.098
    1UNL     C2    2  -0.499  -0.084  -0.035
    1UNL     C3    3  -0.373  -0.106  -0.055
    1UNL     C4    4  -0.315  -0.164  -0.181
    1UNL     N1    5  -0.177  -0.120  -0.197
    1UNL     C5    6  -0.096  -0.207  -0.104
    1UNL     C6    7  -0.167  -0.209   0.035
    1UNL     C7    8  -0.257  -0.084   0.043
    1UNL     C8    9  -0.177   0.036  -0.001
    1UNL     C9   10  -0.149   0.022  -0.157
    1UNL    C10   11  -0.003   0.059  -0.183
    1UNL    C11   12   0.065  -0.010  -0.060
    1UNL    C12   13   0.044  -0.158  -0.087
    1UNL     N2   14   0.148  -0.230  -0.081
    1UNL    C13   15   0.254  -0.141  -0.047
    1UNL    C14   16   0.387  -0.182  -0.038
    1UNL    C15   17   0.475  -0.077  -0.020
    1UNL    C16   18   0.442   0.059  -0.019
    1UNL     O1   19   0.533   0.168   0.014
    1UNL    C17   20   0.673   0.129   0.031
    1UNL    C18   21   0.308   0.097  -0.040
    1UNL    C19   22   0.217  -0.004  -0.048
    1UNL    C20   23  -0.036   0.038   0.057
    1UNL     O2   24  -0.003   0.178   0.090
    1UNL    C21   25  -0.033   0.206   0.223
    1UNL    C22   26   0.021   0.330   0.275
    1UNL     O3   27  -0.096   0.123   0.289
    1UNL     H1   28  -0.514  -0.104   0.174
    1UNL     H2   29  -0.658  -0.044   0.104
    1UNL     H3   30  -0.512   0.065   0.113
    1UNL     H4   31  -0.572  -0.088  -0.116
    1UNL     H5   32  -0.322  -0.269  -0.166
    1UNL     H6   33  -0.374  -0.136  -0.270
    1UNL     H7   34  -0.089  -0.303  -0.149
    1UNL     H8   35  -0.224  -0.299   0.040
    1UNL     H9   36  -0.097  -0.208   0.117
    1UNL    H10   37  -0.305  -0.079   0.142
    1UNL    H11   38  -0.219   0.126   0.025
    1UNL    H12   39  -0.211   0.082  -0.219
    1UNL    H13   40   0.032   0.015  -0.279
    1UNL    H14   41   0.020   0.168  -0.177
    1UNL    H15   42   0.413  -0.285  -0.060
    1UNL    H16   43   0.577  -0.101   0.010
    1UNL    H17   44   0.672   0.058   0.118
    1UNL    H18   45   0.727   0.223   0.056
    1UNL    H19   46   0.699   0.091  -0.074
    1UNL    H20   47   0.287   0.199  -0.013
    1UNL    H21   48  -0.025  -0.031   0.138
    1UNL    H22   49   0.127   0.338   0.312
    1UNL    H23   50  -0.043   0.344   0.366
    1UNL    H24   51   0.025   0.412   0.198
   0.00000   0.00000   0.00000   0.00000   0.00000   0.00000   0.00000   0.00000   0.00000
Generated with MDTraj, t= 68.0
 51
    1UNL     C1    1  -0.539  -0.032   0.123
    1UNL     C2    2  -0.493  -0.069  -0.018
    1UNL     C3    3  -0.372  -0.094  -0.051
    1UNL     C4    4  -0.323  -0.154  -0.188
    1UNL     N1    5  -0.182  -0.121  -0.196
    1UNL     C5    6  -0.103  -0.219  -0.112
    1UNL     C6    7  -0.172  -0.214   0.031
    1UNL     C7    8  -0.250  -0.076   0.042
    1UNL     C8    9  -0.166   0.043  -0.004
    1UNL     C9   10  -0.144   0.020  -0.161
    1UNL    C10   11   0.009   0.048  -0.187
    1UNL    C11   12   0.066  -0.020  -0.061
    1UNL    C12   13   0.040  -0.169  -0.081
    1UNL     N2   14   0.151  -0.234  -0.083
    1UNL    C13   15   0.259  -0.148  -0.052
    1UNL    C14   16   0.399  -0.169  -0.057
    1UNL    C15   17   0.488  -0.069  -0.029
    1UNL    C16   18   0.444   0.064  -0.004
    1UNL     O1   19   0.532   0.166   0.018
    1UNL    C17   20   0.669   0.146   0.011
    1UNL    C18   21   0.304   0.088  -0.013
    1UNL    C19   22   0.215  -0.018  -0.035
    1UNL    C20   23  -0.017   0.031   0.061
    1UNL     O2   24   0.034   0.160   0.110
    1UNL    C21   25  -0.044   0.197   0.212
    1UNL    C22   26  -0.005   0.325   0.283
    1UNL     O3   27  -0.148   0.144   0.254
    1UNL     H1   28  -0.528  -0.116   0.188
    1UNL     H2   29  -0.648  -0.007   0.116
    1UNL     H3   30  -0.482   0.056   0.151
    1UNL     H4   31  -0.571  -0.073  -0.098
    1UNL     H5   32  -0.328  -0.258  -0.192
    1UNL     H6   33  -0.378  -0.110  -0.276
    1UNL     H7   34  -0.108  -0.313  -0.163
    1UNL     H8   35  -0.240  -0.296   0.035
    1UNL     H9   36  -0.105  -0.228   0.114
    1UNL    H10   37  -0.283  -0.058   0.146
    1UNL    H11   38  -0.197   0.136   0.021
    1UNL    H12   39  -0.195   0.091  -0.221
    1UNL    H13   40   0.040  -0.007  -0.278
    1UNL    H14   41   0.034   0.155  -0.208
    1UNL    H15   42   0.433  -0.267  -0.087
    1UNL    H16   43   0.589  -0.096  -0.036
    1UNL    H17   44   0.682   0.096   0.110
    1UNL    H18   45   0.711   0.245   0.006
    1UNL    H19   46   0.689   0.085  -0.081
    1UNL    H20   47   0.259   0.188   0.011
    1UNL    H21   48  -0.019  -0.040   0.141
    1UNL    H22   49  -0.016   0.340   0.395
    1UNL    H23   50  -0.069   0.401   0.240
    1UNL    H24   51   0.106   0.332   0.263
   0.00000   0.00000   0.00000   0.00000   0.00000   0.00000   0.00000   0.00000   0.00000
Generated with MDTraj, t= 69.0
 51
    1UNL     C1    1  -0.540  -0.025   0.119
    1UNL     C2    2  -0.491  -0.075  -0.008
    1UNL     C3    3  -0.370  -0.095  -0.039
    1UNL     C4    4  -0.324  -0.126  -0.179
    1UNL     N1    5  -0.174  -0.113  -0.197
    1UNL     C5    6  -0.100  -0.214  -0.110
    1UNL     C6    7  -0.172  -0.219   0.029
    1UNL     C7    8  -0.240  -0.086   0.049
    1UNL     C8    9  -0.156   0.038   0.004
    1UNL     C9   10  -0.132   0.030  -0.152
    1UNL    C10   11   0.020   0.044  -0.177
    1UNL    C11   12   0.072  -0.027  -0.056
    1UNL    C12   13   0.042  -0.173  -0.083
    1UNL     N2   14   0.152  -0.241  -0.092
    1UNL    C13   15   0.262  -0.156  -0.069
    1UNL    C14   16   0.399  -0.174  -0.062
    1UNL    C15   17   0.490  -0.075  -0.031
    1UNL    C16   18   0.442   0.059  -0.009
    1UNL     O1   19   0.526   0.170   0.024
    1UNL    C17   20   0.663   0.158  -0.003
    1UNL    C18   21   0.305   0.079  -0.012
    1UNL    C19   22   0.221  -0.029  -0.036
    1UNL    C20   23  -0.014   0.027   0.066
    1UNL     O2   24   0.030   0.153   0.119
    1UNL    C21   25  -0.058   0.207   0.210
    1UNL    C22   26  -0.027   0.332   0.279
    1UNL     O3   27  -0.167   0.149   0.229
    1UNL     H1   28  -0.519  -0.093   0.202
    1UNL     H2   29  -0.649  -0.005   0.125
    1UNL     H3   30  -0.486   0.069   0.134
    1UNL     H4   31  -0.562  -0.080  -0.084
    1UNL     H5   32  -0.357  -0.221  -0.206
    1UNL     H6   33  -0.370  -0.053  -0.252
    1UNL     H7   34  -0.094  -0.313  -0.151
    1UNL     H8   35  -0.239  -0.299   0.046
    1UNL     H9   36  -0.092  -0.233   0.102
    1UNL    H10   37  -0.263  -0.073   0.156
    1UNL    H11   38  -0.209   0.126   0.028
    1UNL    H12   39  -0.192   0.105  -0.199
    1UNL    H13   40   0.046  -0.006  -0.272
    1UNL    H14   41   0.052   0.150  -0.191
    1UNL    H15   42   0.428  -0.276  -0.062
    1UNL    H16   43   0.597  -0.101  -0.041
    1UNL    H17   44   0.683   0.065   0.052
    1UNL    H18   45   0.715   0.237   0.041
    1UNL    H19   46   0.677   0.150  -0.111
    1UNL    H20   47   0.264   0.172  -0.004
    1UNL    H21   48  -0.021  -0.046   0.143
    1UNL    H22   49  -0.120   0.392   0.296
    1UNL    H23   50   0.033   0.381   0.207
    1UNL    H24   51   0.026   0.303   0.375
   0.00000   0.00000   0.00000   0.00000   0.00000   0.00000   0.00000   0.00000   0.00000
Generated with MDTraj, t= 70.0
 51
    1UNL     C1    1  -0.527  -0.032   0.109
    1UNL     C2    2  -0.483  -0.082  -0.023
    1UNL     C3    3  -0.365  -0.118  -0.048
    1UNL     C4    4  -0.318  -0.139  -0.194
    1UNL     N1    5  -0.168  -0.112  -0.195
    1UNL     C5    6  -0.091  -0.214  -0.104
    1UNL     C6    7  -0.162  -0.222   0.034
    1UNL     C7    8  -0.252  -0.102   0.052
    1UNL     C8    9  -0.171   0.026   0.008
    1UNL     C9   10  -0.141   0.029  -0.151
    1UNL    C10   11   0.006   0.057  -0.171
    1UNL    C11   12   0.067  -0.018  -0.048
    1UNL    C12   13   0.045  -0.161  -0.076
    1UNL     N2   14   0.153  -0.227  -0.092
    1UNL    C13   15   0.255  -0.133  -0.079
    1UNL    C14   16   0.387  -0.173  -0.064
    1UNL    C15   17   0.477  -0.074  -0.033
    1UNL    C16   18   0.439   0.057   0.000
    1UNL     O1   19   0.542   0.156   0.023
    1UNL    C17   20   0.680   0.121  -0.011
    1UNL    C18   21   0.306   0.093  -0.005
    1UNL    C19   22   0.218  -0.005  -0.035
    1UNL    C20   23  -0.027   0.031   0.066
    1UNL     O2   24   0.002   0.167   0.101
    1UNL    C21   25  -0.060   0.207   0.213
    1UNL    C22   26  -0.007   0.342   0.262
    1UNL     O3   27  -0.153   0.148   0.275
    1UNL     H1   28  -0.525  -0.109   0.191
    1UNL     H2   29  -0.629   0.004   0.110
    1UNL     H3   30  -0.466   0.056   0.131
    1UNL     H4   31  -0.562  -0.079  -0.107
    1UNL     H5   32  -0.341  -0.238  -0.225
    1UNL     H6   33  -0.372  -0.076  -0.266
    1UNL     H7   34  -0.088  -0.303  -0.164
    1UNL     H8   35  -0.220  -0.311   0.043
    1UNL     H9   36  -0.091  -0.232   0.116
    1UNL    H10   37  -0.291  -0.091   0.156
    1UNL    H11   38  -0.223   0.121   0.036
    1UNL    H12   39  -0.209   0.092  -0.206
    1UNL    H13   40   0.043   0.022  -0.271
    1UNL    H14   41   0.029   0.166  -0.171
    1UNL    H15   42   0.418  -0.278  -0.077
    1UNL    H16   43   0.578  -0.103  -0.020
    1UNL    H17   44   0.716   0.048   0.062
    1UNL    H18   45   0.742   0.201   0.001
    1UNL    H19   46   0.685   0.083  -0.111
    1UNL    H20   47   0.273   0.200   0.002
    1UNL    H21   48  -0.020  -0.029   0.153
    1UNL    H22   49  -0.010   0.413   0.177
    1UNL    H23   50   0.081   0.330   0.320
    1UNL    H24   51  -0.079   0.382   0.341
   0.00000   0.00000   0.00000   0.00000   0.00000   0.00000   0.00000   0.00000   0.00000
Generated with MDTraj, t= 71.0
 51
    1UNL     C1    1  -0.568  -0.047   0.109
    1UNL     C2    2  -0.493  -0.086  -0.025
    1UNL     C3    3  -0.366  -0.096  -0.048
    1UNL     C4    4  -0.317  -0.138  -0.184
    1UNL     N1    5  -0.175  -0.112  -0.189
    1UNL     C5    6  -0.107  -0.208  -0.099
    1UNL     C6    7  -0.161  -0.209   0.044
    1UNL     C7    8  -0.252  -0.082   0.049
    1UNL     C8    9  -0.168   0.041   0.002
    1UNL     C9   10  -0.143   0.028  -0.152
    1UNL    C10   11   0.006   0.054  -0.189
    1UNL    C11   12   0.064  -0.015  -0.061
    1UNL    C12   13   0.041  -0.162  -0.085
    1UNL     N2   14   0.147  -0.233  -0.079
    1UNL    C13   15   0.256  -0.143  -0.067
    1UNL    C14   16   0.393  -0.178  -0.062
    1UNL    C15   17   0.486  -0.077  -0.034
    1UNL    C16   18   0.447   0.056  -0.008
    1UNL     O1   19   0.533   0.167   0.010
    1UNL    C17   20   0.675   0.144   0.022
    1UNL    C18   21   0.311   0.083  -0.013
    1UNL    C19   22   0.217  -0.008  -0.045
    1UNL    C20   23  -0.021   0.036   0.054
    1UNL     O2   24   0.022   0.163   0.104
    1UNL    C21   25  -0.042   0.193   0.215
    1UNL    C22   26  -0.021   0.334   0.254
    1UNL     O3   27  -0.114   0.121   0.286
    1UNL     H1   28  -0.582  -0.137   0.179
    1UNL     H2   29  -0.668  -0.014   0.086
    1UNL     H3   30  -0.516   0.040   0.150
    1UNL     H4   31  -0.565  -0.105  -0.096
    1UNL     H5   32  -0.335  -0.241  -0.214
    1UNL     H6   33  -0.371  -0.081  -0.256
    1UNL     H7   34  -0.119  -0.303  -0.152
    1UNL     H8   35  -0.212  -0.302   0.059
    1UNL     H9   36  -0.086  -0.209   0.123
    1UNL    H10   37  -0.304  -0.068   0.148
    1UNL    H11   38  -0.208   0.145   0.042
    1UNL    H12   39  -0.212   0.086  -0.210
    1UNL    H13   40   0.042   0.003  -0.282
    1UNL    H14   41   0.039   0.159  -0.197
    1UNL    H15   42   0.428  -0.276  -0.072
    1UNL    H16   43   0.592  -0.099  -0.032
    1UNL    H17   44   0.712   0.096   0.113
    1UNL    H18   45   0.719   0.237   0.025
    1UNL    H19   46   0.709   0.090  -0.064
    1UNL    H20   47   0.277   0.184  -0.010
    1UNL    H21   48  -0.008  -0.026   0.140
    1UNL    H22   49   0.084   0.370   0.240
    1UNL    H23   50  -0.078   0.352   0.345
    1UNL    H24   51  -0.073   0.404   0.185
   0.00000   0.00000   0.00000   0.00000   0.00000   0.00000   0.00000   0.00000   0.00000
Generated with MDTraj, t= 72.0
 51
    1UNL     C1    1  -0.531  -0.057   0.123
    1UNL     C2    2  -0.491  -0.077  -0.018
    1UNL     C3    3  -0.367  -0.092  -0.046
    1UNL     C4    4  -0.329  -0.127  -0.186
    1UNL     N1    5  -0.180  -0.121  -0.201
    1UNL     C5    6  -0.100  -0.215  -0.105
    1UNL     C6    7  -0.173  -0.205   0.030
    1UNL     C7    8  -0.247  -0.067   0.043
    1UNL     C8    9  -0.159   0.045  -0.016
    1UNL     C9   10  -0.143   0.018  -0.171
    1UNL    C10   11   0.010   0.034  -0.201
    1UNL    C11   12   0.063  -0.016  -0.071
    1UNL    C12   13   0.039  -0.169  -0.081
    1UNL     N2   14   0.145  -0.238  -0.067
    1UNL    C13   15   0.253  -0.153  -0.048
    1UNL    C14   16   0.391  -0.178  -0.050
    1UNL    C15   17   0.479  -0.074  -0.028
    1UNL    C16   18   0.434   0.062  -0.021
    1UNL     O1   19   0.523   0.172  -0.004
    1UNL    C17   20   0.652   0.152   0.050
    1UNL    C18   21   0.298   0.089  -0.027
    1UNL    C19   22   0.212  -0.016  -0.049
    1UNL    C20   23  -0.021   0.042   0.047
    1UNL     O2   24   0.024   0.171   0.097
    1UNL    C21   25  -0.034   0.202   0.225
    1UNL    C22   26  -0.007   0.330   0.290
    1UNL     O3   27  -0.102   0.116   0.281
    1UNL     H1   28  -0.473  -0.128   0.192
    1UNL     H2   29  -0.635  -0.078   0.148
    1UNL     H3   30  -0.515   0.050   0.146
    1UNL     H4   31  -0.578  -0.085  -0.089
    1UNL     H5   32  -0.359  -0.233  -0.201
    1UNL     H6   33  -0.376  -0.072  -0.260
    1UNL     H7   34  -0.087  -0.319  -0.137
    1UNL     H8   35  -0.245  -0.283   0.035
    1UNL     H9   36  -0.098  -0.224   0.105
    1UNL    H10   37  -0.275  -0.057   0.152
    1UNL    H11   38  -0.214   0.150  -0.002
    1UNL    H12   39  -0.207   0.083  -0.229
    1UNL    H13   40   0.045  -0.028  -0.289
    1UNL    H14   41   0.038   0.139  -0.219
    1UNL    H15   42   0.423  -0.283  -0.061
    1UNL    H16   43   0.586  -0.087  -0.020
    1UNL    H17   44   0.681   0.067   0.121
    1UNL    H18   45   0.674   0.239   0.104
    1UNL    H19   46   0.718   0.143  -0.037
    1UNL    H20   47   0.271   0.189  -0.015
    1UNL    H21   48  -0.020  -0.021   0.133
    1UNL    H22   49   0.021   0.332   0.397
    1UNL    H23   50  -0.090   0.399   0.261
    1UNL    H24   51   0.082   0.372   0.246
   0.00000   0.00000   0.00000   0.00000   0.00000   0.00000   0.00000   0.00000   0.00000
Generated with MDTraj, t= 73.0
 51
    1UNL     C1    1  -0.543  -0.042   0.120
    1UNL     C2    2  -0.494  -0.093  -0.008
    1UNL     C3    3  -0.373  -0.104  -0.044
    1UNL     C4    4  -0.333  -0.153  -0.186
    1UNL     N1    5  -0.184  -0.119  -0.197
    1UNL     C5    6  -0.102  -0.213  -0.103
    1UNL     C6    7  -0.167  -0.217   0.037
    1UNL     C7    8  -0.252  -0.084   0.047
    1UNL     C8    9  -0.167   0.041  -0.001
    1UNL     C9   10  -0.161   0.029  -0.158
    1UNL    C10   11  -0.011   0.051  -0.195
    1UNL    C11   12   0.064  -0.012  -0.080
    1UNL    C12   13   0.038  -0.164  -0.089
    1UNL     N2   14   0.148  -0.227  -0.084
    1UNL    C13   15   0.250  -0.135  -0.051
    1UNL    C14   16   0.386  -0.161  -0.029
    1UNL    C15   17   0.476  -0.063  -0.005
    1UNL    C16   18   0.446   0.074  -0.016
    1UNL     O1   19   0.538   0.172  -0.005
    1UNL    C17   20   0.650   0.132   0.068
    1UNL    C18   21   0.307   0.099  -0.046
    1UNL    C19   22   0.212  -0.003  -0.062
    1UNL    C20   23  -0.017   0.037   0.047
    1UNL     O2   24   0.027   0.166   0.084
    1UNL    C21   25  -0.026   0.189   0.207
    1UNL    C22   26   0.034   0.307   0.281
    1UNL     O3   27  -0.110   0.125   0.262
    1UNL     H1   28  -0.532  -0.111   0.207
    1UNL     H2   29  -0.650  -0.015   0.122
    1UNL     H3   30  -0.498   0.057   0.143
    1UNL     H4   31  -0.570  -0.118  -0.079
    1UNL     H5   32  -0.357  -0.259  -0.213
    1UNL     H6   33  -0.378  -0.090  -0.253
    1UNL     H7   34  -0.114  -0.315  -0.142
    1UNL     H8   35  -0.223  -0.306   0.061
    1UNL     H9   36  -0.080  -0.208   0.100
    1UNL    H10   37  -0.265  -0.064   0.157
    1UNL    H11   38  -0.217   0.143   0.020
    1UNL    H12   39  -0.217   0.106  -0.209
    1UNL    H13   40   0.012  -0.000  -0.292
    1UNL    H14   41   0.014   0.159  -0.204
    1UNL    H15   42   0.415  -0.261  -0.040
    1UNL    H16   43   0.567  -0.099   0.038
    1UNL    H17   44   0.639   0.102   0.180
    1UNL    H18   45   0.716   0.218   0.078
    1UNL    H19   46   0.698   0.042   0.021
    1UNL    H20   47   0.264   0.204  -0.033
    1UNL    H21   48  -0.005  -0.025   0.134
    1UNL    H22   49  -0.030   0.388   0.322
    1UNL    H23   50   0.100   0.360   0.207
    1UNL    H24   51   0.097   0.278   0.360
   0.00000   0.00000   0.00000   0.00000   0.00000   0.00000   0.00000   0.00000   0.00000
Generated with MDTraj, t= 74.0
 51
    1UNL     C1    1  -0.532  -0.038   0.130
    1UNL     C2    2  -0.497  -0.090  -0.008
    1UNL     C3    3  -0.372  -0.102  -0.039
    1UNL     C4    4  -0.328  -0.142  -0.179
    1UNL     N1    5  -0.181  -0.110  -0.198
    1UNL     C5    6  -0.102  -0.214  -0.111
    1UNL     C6    7  -0.161  -0.207   0.034
    1UNL     C7    8  -0.252  -0.083   0.052
    1UNL     C8    9  -0.168   0.039  -0.004
    1UNL     C9   10  -0.146   0.026  -0.160
    1UNL    C10   11   0.002   0.050  -0.196
    1UNL    C11   12   0.070  -0.018  -0.074
    1UNL    C12   13   0.041  -0.166  -0.102
    1UNL     N2   14   0.147  -0.240  -0.093
    1UNL    C13   15   0.258  -0.149  -0.060
    1UNL    C14   16   0.391  -0.172  -0.035
    1UNL    C15   17   0.477  -0.067  -0.009
    1UNL    C16   18   0.428   0.064  -0.012
    1UNL     O1   19   0.507   0.177   0.029
    1UNL    C17   20   0.644   0.156   0.055
    1UNL    C18   21   0.293   0.094  -0.046
    1UNL    C19   22   0.215  -0.017  -0.068
    1UNL    C20   23  -0.020   0.030   0.051
    1UNL     O2   24   0.026   0.160   0.086
    1UNL    C21   25  -0.026   0.196   0.212
    1UNL    C22   26   0.041   0.312   0.270
    1UNL     O3   27  -0.114   0.137   0.265
    1UNL     H1   28  -0.550  -0.121   0.197
    1UNL     H2   29  -0.624   0.025   0.124
    1UNL     H3   30  -0.456   0.040   0.164
    1UNL     H4   31  -0.581  -0.118  -0.068
    1UNL     H5   32  -0.334  -0.251  -0.193
    1UNL     H6   33  -0.388  -0.093  -0.249
    1UNL     H7   34  -0.115  -0.315  -0.154
    1UNL     H8   35  -0.230  -0.290   0.030
    1UNL     H9   36  -0.087  -0.221   0.112
    1UNL    H10   37  -0.289  -0.053   0.153
    1UNL    H11   38  -0.227   0.127   0.025
    1UNL    H12   39  -0.217   0.092  -0.207
    1UNL    H13   40   0.027  -0.003  -0.290
    1UNL    H14   41   0.032   0.158  -0.195
    1UNL    H15   42   0.414  -0.278  -0.025
    1UNL    H16   43   0.583  -0.083   0.013
    1UNL    H17   44   0.668   0.077   0.137
    1UNL    H18   45   0.681   0.247   0.105
    1UNL    H19   46   0.701   0.123  -0.037
    1UNL    H20   47   0.260   0.191  -0.038
    1UNL    H21   48   0.009  -0.034   0.133
    1UNL    H22   49   0.062   0.396   0.199
    1UNL    H23   50   0.137   0.281   0.315
    1UNL    H24   51  -0.023   0.340   0.349
   0.00000   0.00000   0.00000   0.00000   0.00000   0.00000   0.00000   0.00000   0.00000
Generated with MDTraj, t= 75.0
 51
    1UNL     C1    1  -0.531  -0.037   0.146
    1UNL     C2    2  -0.492  -0.062  -0.005
    1UNL     C3    3  -0.371  -0.096  -0.044
    1UNL     C4    4  -0.332  -0.148  -0.181
    1UNL     N1    5  -0.185  -0.118  -0.201
    1UNL     C5    6  -0.108  -0.214  -0.109
    1UNL     C6    7  -0.171  -0.216   0.030
    1UNL     C7    8  -0.252  -0.081   0.042
    1UNL     C8    9  -0.162   0.042  -0.013
    1UNL     C9   10  -0.145   0.022  -0.163
    1UNL    C10   11   0.008   0.039  -0.195
    1UNL    C11   12   0.070  -0.030  -0.062
    1UNL    C12   13   0.044  -0.180  -0.097
    1UNL     N2   14   0.159  -0.241  -0.104
    1UNL    C13   15   0.259  -0.149  -0.072
    1UNL    C14   16   0.395  -0.170  -0.067
    1UNL    C15   17   0.478  -0.059  -0.035
    1UNL    C16   18   0.436   0.068   0.005
    1UNL     O1   19   0.513   0.174   0.052
    1UNL    C17   20   0.648   0.154   0.032
    1UNL    C18   21   0.294   0.087  -0.001
    1UNL    C19   22   0.211  -0.017  -0.041
    1UNL    C20   23  -0.022   0.032   0.048
    1UNL     O2   24   0.026   0.163   0.088
    1UNL    C21   25  -0.033   0.193   0.206
    1UNL    C22   26   0.012   0.334   0.258
    1UNL     O3   27  -0.107   0.134   0.274
    1UNL     H1   28  -0.472  -0.101   0.207
    1UNL     H2   29  -0.639  -0.065   0.165
    1UNL     H3   30  -0.522   0.073   0.171
    1UNL     H4   31  -0.578  -0.061  -0.077
    1UNL     H5   32  -0.357  -0.252  -0.184
    1UNL     H6   33  -0.382  -0.091  -0.256
    1UNL     H7   34  -0.110  -0.311  -0.163
    1UNL     H8   35  -0.241  -0.298   0.034
    1UNL     H9   36  -0.090  -0.239   0.097
    1UNL    H10   37  -0.279  -0.067   0.150
    1UNL    H11   38  -0.204   0.132   0.015
    1UNL    H12   39  -0.207   0.083  -0.227
    1UNL    H13   40   0.043  -0.013  -0.286
    1UNL    H14   41   0.032   0.149  -0.195
    1UNL    H15   42   0.438  -0.268  -0.057
    1UNL    H16   43   0.583  -0.076  -0.034
    1UNL    H17   44   0.682   0.088   0.119
    1UNL    H18   45   0.702   0.246   0.059
    1UNL    H19   46   0.678   0.102  -0.063
    1UNL    H20   47   0.243   0.180   0.029
    1UNL    H21   48  -0.012  -0.025   0.141
    1UNL    H22   49   0.121   0.346   0.256
    1UNL    H23   50  -0.023   0.341   0.361
    1UNL    H24   51  -0.043   0.415   0.208
   0.00000   0.00000   0.00000   0.00000   0.00000   0.00000   0.00000   0.00000   0.00000
Generated with MDTraj, t= 76.0
 51
    1UNL     C1    1  -0.552  -0.036   0.105
    1UNL     C2    2  -0.494  -0.089  -0.020
    1UNL     C3    3  -0.367  -0.112  -0.041
    1UNL     C4    4  -0.323  -0.163  -0.174
    1UNL     N1    5  -0.177  -0.114  -0.190
    1UNL     C5    6  -0.093  -0.208  -0.104
    1UNL     C6    7  -0.160  -0.216   0.038
    1UNL     C7    8  -0.251  -0.089   0.061
    1UNL     C8    9  -0.163   0.033   0.009
    1UNL     C9   10  -0.158   0.029  -0.150
    1UNL    C10   11  -0.009   0.062  -0.178
    1UNL    C11   12   0.066  -0.012  -0.060
    1UNL    C12   13   0.042  -0.159  -0.089
    1UNL     N2   14   0.148  -0.224  -0.112
    1UNL    C13   15   0.260  -0.143  -0.085
    1UNL    C14   16   0.397  -0.173  -0.072
    1UNL    C15   17   0.488  -0.071  -0.044
    1UNL    C16   18   0.443   0.052  -0.001
    1UNL     O1   19   0.535   0.151   0.046
    1UNL    C17   20   0.672   0.130   0.021
    1UNL    C18   21   0.306   0.081  -0.016
    1UNL    C19   22   0.215  -0.015  -0.053
    1UNL    C20   23  -0.018   0.038   0.059
    1UNL     O2   24   0.026   0.174   0.098
    1UNL    C21   25  -0.046   0.213   0.213
    1UNL    C22   26  -0.032   0.352   0.265
    1UNL     O3   27  -0.112   0.133   0.268
    1UNL     H1   28  -0.556  -0.114   0.179
    1UNL     H2   29  -0.660   0.002   0.099
    1UNL     H3   30  -0.502   0.054   0.149
    1UNL     H4   31  -0.561  -0.123  -0.087
    1UNL     H5   32  -0.316  -0.265  -0.161
    1UNL     H6   33  -0.395  -0.135  -0.252
    1UNL     H7   34  -0.092  -0.312  -0.145
    1UNL     H8   35  -0.207  -0.312   0.060
    1UNL     H9   36  -0.081  -0.212   0.111
    1UNL    H10   37  -0.279  -0.089   0.169
    1UNL    H11   38  -0.209   0.120   0.033
    1UNL    H12   39  -0.224   0.104  -0.196
    1UNL    H13   40   0.042   0.020  -0.267
    1UNL    H14   41   0.011   0.172  -0.170
    1UNL    H15   42   0.434  -0.274  -0.083
    1UNL    H16   43   0.594  -0.093  -0.042
    1UNL    H17   44   0.704   0.040   0.075
    1UNL    H18   45   0.732   0.202   0.079
    1UNL    H19   46   0.702   0.125  -0.084
    1UNL    H20   47   0.274   0.185   0.001
    1UNL    H21   48  -0.006  -0.020   0.153
    1UNL    H22   49  -0.001   0.345   0.367
    1UNL    H23   50  -0.122   0.409   0.247
    1UNL    H24   51   0.044   0.405   0.201
   0.00000   0.00000   0.00000   0.00000   0.00000   0.00000   0.00000   0.00000   0.00000
Generated with MDTraj, t= 77.0
 51
    1UNL     C1    1  -0.531  -0.046   0.129
    1UNL     C2    2  -0.501  -0.090  -0.012
    1UNL     C3    3  -0.374  -0.102  -0.046
    1UNL     C4    4  -0.323  -0.138  -0.183
    1UNL     N1    5  -0.169  -0.120  -0.189
    1UNL     C5    6  -0.098  -0.213  -0.100
    1UNL     C6    7  -0.177  -0.213   0.032
    1UNL     C7    8  -0.253  -0.084   0.040
    1UNL     C8    9  -0.167   0.041   0.004
    1UNL     C9   10  -0.140   0.021  -0.151
    1UNL    C10   11   0.011   0.049  -0.172
    1UNL    C11   12   0.067  -0.016  -0.052
    1UNL    C12   13   0.043  -0.169  -0.081
    1UNL     N2   14   0.153  -0.228  -0.099
    1UNL    C13   15   0.262  -0.136  -0.073
    1UNL    C14   16   0.397  -0.165  -0.078
    1UNL    C15   17   0.492  -0.071  -0.050
    1UNL    C16   18   0.454   0.061  -0.018
    1UNL     O1   19   0.547   0.161   0.013
    1UNL    C17   20   0.685   0.119   0.024
    1UNL    C18   21   0.317   0.088  -0.015
    1UNL    C19   22   0.220  -0.011  -0.039
    1UNL    C20   23  -0.021   0.038   0.068
    1UNL     O2   24   0.010   0.171   0.103
    1UNL    C21   25  -0.067   0.203   0.213
    1UNL    C22   26  -0.040   0.342   0.265
    1UNL     O3   27  -0.147   0.136   0.271
    1UNL     H1   28  -0.548  -0.137   0.188
    1UNL     H2   29  -0.624   0.019   0.135
    1UNL     H3   30  -0.454   0.019   0.176
    1UNL     H4   31  -0.582  -0.103  -0.092
    1UNL     H5   32  -0.357  -0.229  -0.216
    1UNL     H6   33  -0.360  -0.058  -0.249
    1UNL     H7   34  -0.107  -0.321  -0.137
    1UNL     H8   35  -0.249  -0.295   0.037
    1UNL     H9   36  -0.121  -0.230   0.123
    1UNL    H10   37  -0.291  -0.062   0.144
    1UNL    H11   38  -0.220   0.127   0.033
    1UNL    H12   39  -0.211   0.091  -0.198
    1UNL    H13   40   0.047  -0.000  -0.267
    1UNL    H14   41   0.027   0.158  -0.178
    1UNL    H15   42   0.420  -0.268  -0.100
    1UNL    H16   43   0.594  -0.105  -0.052
    1UNL    H17   44   0.699   0.036   0.091
    1UNL    H18   45   0.753   0.191   0.071
    1UNL    H19   46   0.720   0.087  -0.071
    1UNL    H20   47   0.293   0.189  -0.017
    1UNL    H21   48  -0.013  -0.026   0.159
    1UNL    H22   49  -0.113   0.389   0.325
    1UNL    H23   50  -0.006   0.403   0.181
    1UNL    H24   51   0.056   0.344   0.322
   0.00000   0.00000   0.00000   0.00000   0.00000   0.00000   0.00000   0.00000   0.00000
Generated with MDTraj, t= 78.0
 51
    1UNL     C1    1  -0.544  -0.049   0.124
    1UNL     C2    2  -0.485  -0.085  -0.008
    1UNL     C3    3  -0.359  -0.086  -0.044
    1UNL     C4    4  -0.317  -0.120  -0.187
    1UNL     N1    5  -0.174  -0.103  -0.194
    1UNL     C5    6  -0.099  -0.212  -0.100
    1UNL     C6    7  -0.160  -0.215   0.042
    1UNL     C7    8  -0.245  -0.081   0.057
    1UNL     C8    9  -0.156   0.034   0.003
    1UNL     C9   10  -0.136   0.034  -0.155
    1UNL    C10   11   0.016   0.059  -0.178
    1UNL    C11   12   0.073  -0.016  -0.055
    1UNL    C12   13   0.046  -0.163  -0.085
    1UNL     N2   14   0.149  -0.237  -0.082
    1UNL    C13   15   0.258  -0.154  -0.058
    1UNL    C14   16   0.396  -0.180  -0.059
    1UNL    C15   17   0.484  -0.075  -0.040
    1UNL    C16   18   0.441   0.061  -0.027
    1UNL     O1   19   0.525   0.168  -0.013
    1UNL    C17   20   0.658   0.139   0.019
    1UNL    C18   21   0.306   0.085  -0.022
    1UNL    C19   22   0.220  -0.020  -0.040
    1UNL    C20   23  -0.012   0.024   0.066
    1UNL     O2   24   0.022   0.152   0.115
    1UNL    C21   25  -0.061   0.197   0.213
    1UNL    C22   26  -0.025   0.324   0.276
    1UNL     O3   27  -0.162   0.142   0.245
    1UNL     H1   28  -0.463  -0.064   0.202
    1UNL     H2   29  -0.624  -0.124   0.145
    1UNL     H3   30  -0.592   0.050   0.121
    1UNL     H4   31  -0.556  -0.102  -0.081
    1UNL     H5   32  -0.343  -0.217  -0.212
    1UNL     H6   33  -0.370  -0.057  -0.259
    1UNL     H7   34  -0.095  -0.298  -0.175
    1UNL     H8   35  -0.227  -0.300   0.047
    1UNL     H9   36  -0.088  -0.231   0.121
    1UNL    H10   37  -0.275  -0.050   0.162
    1UNL    H11   38  -0.193   0.138   0.026
    1UNL    H12   39  -0.196   0.100  -0.219
    1UNL    H13   40   0.053   0.028  -0.281
    1UNL    H14   41   0.036   0.168  -0.176
    1UNL    H15   42   0.424  -0.282  -0.078
    1UNL    H16   43   0.588  -0.102  -0.027
    1UNL    H17   44   0.675   0.085   0.108
    1UNL    H18   45   0.724   0.224   0.033
    1UNL    H19   46   0.692   0.087  -0.066
    1UNL    H20   47   0.263   0.189  -0.023
    1UNL    H21   48  -0.001  -0.044   0.157
    1UNL    H22   49  -0.061   0.411   0.221
    1UNL    H23   50   0.082   0.324   0.298
    1UNL    H24   51  -0.072   0.334   0.373
   0.00000   0.00000   0.00000   0.00000   0.00000   0.00000   0.00000   0.00000   0.00000
Generated with MDTraj, t= 79.0
 51
    1UNL     C1    1  -0.558  -0.047   0.103
    1UNL     C2    2  -0.498  -0.078  -0.021
    1UNL     C3    3  -0.370  -0.105  -0.042
    1UNL     C4    4  -0.322  -0.138  -0.181
    1UNL     N1    5  -0.178  -0.118  -0.198
    1UNL     C5    6  -0.101  -0.210  -0.109
    1UNL     C6    7  -0.167  -0.224   0.027
    1UNL     C7    8  -0.247  -0.091   0.050
    1UNL     C8    9  -0.164   0.034   0.000
    1UNL     C9   10  -0.144   0.027  -0.155
    1UNL    C10   11  -0.004   0.063  -0.185
    1UNL    C11   12   0.067  -0.016  -0.068
    1UNL    C12   13   0.045  -0.162  -0.096
    1UNL     N2   14   0.148  -0.232  -0.065
    1UNL    C13   15   0.255  -0.139  -0.043
    1UNL    C14   16   0.388  -0.174  -0.034
    1UNL    C15   17   0.482  -0.074  -0.025
    1UNL    C16   18   0.443   0.062  -0.013
    1UNL     O1   19   0.540   0.174  -0.009
    1UNL    C17   20   0.669   0.138   0.002
    1UNL    C18   21   0.307   0.097  -0.027
    1UNL    C19   22   0.218  -0.003  -0.052
    1UNL    C20   23  -0.022   0.036   0.056
    1UNL     O2   24   0.023   0.158   0.110
    1UNL    C21   25  -0.042   0.194   0.222
    1UNL    C22   26   0.021   0.316   0.286
    1UNL     O3   27  -0.143   0.143   0.274
    1UNL     H1   28  -0.490   0.028   0.159
    1UNL     H2   29  -0.552  -0.138   0.168
    1UNL     H3   30  -0.664  -0.019   0.111
    1UNL     H4   31  -0.563  -0.066  -0.108
    1UNL     H5   32  -0.346  -0.239  -0.209
    1UNL     H6   33  -0.378  -0.079  -0.251
    1UNL     H7   34  -0.092  -0.321  -0.137
    1UNL     H8   35  -0.237  -0.309   0.031
    1UNL     H9   36  -0.089  -0.241   0.099
    1UNL    H10   37  -0.279  -0.096   0.160
    1UNL    H11   38  -0.229   0.128   0.028
    1UNL    H12   39  -0.218   0.095  -0.200
    1UNL    H13   40   0.025   0.021  -0.286
    1UNL    H14   41   0.030   0.169  -0.184
    1UNL    H15   42   0.426  -0.276  -0.043
    1UNL    H16   43   0.587  -0.101  -0.019
    1UNL    H17   44   0.697   0.081   0.085
    1UNL    H18   45   0.726   0.231   0.014
    1UNL    H19   46   0.691   0.104  -0.098
    1UNL    H20   47   0.277   0.194  -0.003
    1UNL    H21   48  -0.017  -0.038   0.142
    1UNL    H22   49   0.122   0.344   0.245
    1UNL    H23   50   0.020   0.298   0.392
    1UNL    H24   51  -0.037   0.403   0.265
   0.00000   0.00000   0.00000   0.00000   0.00000   0.00000   0.00000   0.00000   0.00000
Generated with MDTraj, t= 80.0
 51
    1UNL     C1    1  -0.558  -0.032   0.105
    1UNL     C2    2  -0.500  -0.097  -0.016
    1UNL     C3    3  -0.372  -0.102  -0.054
    1UNL     C4    4  -0.323  -0.142  -0.195
    1UNL     N1    5  -0.177  -0.124  -0.205
    1UNL     C5    6  -0.098  -0.215  -0.105
    1UNL     C6    7  -0.175  -0.216   0.037
    1UNL     C7    8  -0.259  -0.078   0.041
    1UNL     C8    9  -0.170   0.041  -0.015
    1UNL     C9   10  -0.148   0.020  -0.171
    1UNL    C10   11   0.002   0.050  -0.194
    1UNL    C11   12   0.064  -0.013  -0.068
    1UNL    C12   13   0.036  -0.159  -0.079
    1UNL     N2   14   0.144  -0.227  -0.074
    1UNL    C13   15   0.253  -0.144  -0.056
    1UNL    C14   16   0.391  -0.174  -0.038
    1UNL    C15   17   0.482  -0.065  -0.008
    1UNL    C16   18   0.440   0.068  -0.009
    1UNL     O1   19   0.525   0.174  -0.003
    1UNL    C17   20   0.666   0.151  -0.007
    1UNL    C18   21   0.299   0.088  -0.011
    1UNL    C19   22   0.212  -0.011  -0.042
    1UNL    C20   23  -0.023   0.044   0.050
    1UNL     O2   24   0.015   0.172   0.100
    1UNL    C21   25  -0.024   0.193   0.229
    1UNL    C22   26   0.029   0.315   0.291
    1UNL     O3   27  -0.093   0.113   0.299
    1UNL     H1   28  -0.529   0.077   0.107
    1UNL     H2   29  -0.515  -0.078   0.197
    1UNL     H3   30  -0.668  -0.045   0.114
    1UNL     H4   31  -0.570  -0.120  -0.098
    1UNL     H5   32  -0.345  -0.248  -0.211
    1UNL     H6   33  -0.374  -0.098  -0.276
    1UNL     H7   34  -0.091  -0.321  -0.149
    1UNL     H8   35  -0.243  -0.301   0.050
    1UNL     H9   36  -0.106  -0.212   0.122
    1UNL    H10   37  -0.298  -0.060   0.148
    1UNL    H11   38  -0.215   0.148   0.013
    1UNL    H12   39  -0.207   0.088  -0.234
    1UNL    H13   40   0.036  -0.005  -0.285
    1UNL    H14   41   0.033   0.157  -0.211
    1UNL    H15   42   0.423  -0.274  -0.021
    1UNL    H16   43   0.584  -0.088   0.008
    1UNL    H17   44   0.697   0.111   0.086
    1UNL    H18   45   0.720   0.249  -0.023
    1UNL    H19   46   0.695   0.087  -0.094
    1UNL    H20   47   0.251   0.178   0.028
    1UNL    H21   48  -0.010  -0.024   0.142
    1UNL    H22   49   0.075   0.291   0.392
    1UNL    H23   50  -0.059   0.373   0.304
    1UNL    H24   51   0.106   0.356   0.229
   0.00000   0.00000   0.00000   0.00000   0.00000   0.00000   0.00000   0.00000   0.00000
Generated with MDTraj, t= 81.0
 51
    1UNL     C1    1  -0.553  -0.037   0.099
    1UNL     C2    2  -0.505  -0.077  -0.038
    1UNL     C3    3  -0.372  -0.092  -0.058
    1UNL     C4    4  -0.320  -0.137  -0.188
    1UNL     N1    5  -0.175  -0.124  -0.187
    1UNL     C5    6  -0.104  -0.217  -0.088
    1UNL     C6    7  -0.184  -0.209   0.046
    1UNL     C7    8  -0.255  -0.076   0.040
    1UNL     C8    9  -0.166   0.041  -0.007
    1UNL     C9   10  -0.146   0.024  -0.160
    1UNL    C10   11   0.006   0.048  -0.188
    1UNL    C11   12   0.062  -0.018  -0.064
    1UNL    C12   13   0.036  -0.174  -0.065
    1UNL     N2   14   0.151  -0.237  -0.057
    1UNL    C13   15   0.255  -0.141  -0.057
    1UNL    C14   16   0.386  -0.168  -0.044
    1UNL    C15   17   0.472  -0.066  -0.025
    1UNL    C16   18   0.429   0.069  -0.007
    1UNL     O1   19   0.507   0.185   0.017
    1UNL    C17   20   0.653   0.156   0.003
    1UNL    C18   21   0.296   0.096  -0.029
    1UNL    C19   22   0.209  -0.009  -0.059
    1UNL    C20   23  -0.023   0.032   0.051
    1UNL     O2   24   0.020   0.166   0.088
    1UNL    C21   25  -0.009   0.183   0.215
    1UNL    C22   26   0.013   0.320   0.284
    1UNL     O3   27  -0.046   0.088   0.288
    1UNL     H1   28  -0.474   0.025   0.142
    1UNL     H2   29  -0.568  -0.132   0.156
    1UNL     H3   30  -0.654   0.014   0.099
    1UNL     H4   31  -0.567  -0.081  -0.120
    1UNL     H5   32  -0.356  -0.237  -0.221
    1UNL     H6   33  -0.357  -0.079  -0.265
    1UNL     H7   34  -0.107  -0.311  -0.153
    1UNL     H8   35  -0.257  -0.291   0.040
    1UNL     H9   36  -0.125  -0.207   0.139
    1UNL    H10   37  -0.285  -0.044   0.146
    1UNL    H11   38  -0.217   0.144   0.013
    1UNL    H12   39  -0.207   0.083  -0.230
    1UNL    H13   40   0.042  -0.001  -0.281
    1UNL    H14   41   0.028   0.159  -0.196
    1UNL    H15   42   0.413  -0.274  -0.043
    1UNL    H16   43   0.578  -0.086  -0.035
    1UNL    H17   44   0.670   0.078   0.075
    1UNL    H18   45   0.709   0.252   0.034
    1UNL    H19   46   0.694   0.122  -0.098
    1UNL    H20   47   0.266   0.202  -0.009
    1UNL    H21   48  -0.013  -0.043   0.136
    1UNL    H22   49  -0.079   0.358   0.329
    1UNL    H23   50   0.031   0.385   0.201
    1UNL    H24   51   0.092   0.321   0.359
   0.00000   0.00000   0.00000   0.00000   0.00000   0.00000   0.00000   0.00000   0.00000
Generated with MDTraj, t= 82.0
 51
    1UNL     C1    1  -0.546  -0.013   0.101
    1UNL     C2    2  -0.503  -0.079  -0.021
    1UNL     C3    3  -0.376  -0.108  -0.053
    1UNL     C4    4  -0.327  -0.153  -0.192
    1UNL     N1    5  -0.177  -0.128  -0.196
    1UNL     C5    6  -0.099  -0.216  -0.105
    1UNL     C6    7  -0.179  -0.219   0.035
    1UNL     C7    8  -0.261  -0.092   0.042
    1UNL     C8    9  -0.173   0.033  -0.006
    1UNL     C9   10  -0.147   0.013  -0.164
    1UNL    C10   11  -0.005   0.051  -0.190
    1UNL    C11   12   0.058  -0.016  -0.064
    1UNL    C12   13   0.037  -0.161  -0.087
    1UNL     N2   14   0.148  -0.227  -0.090
    1UNL    C13   15   0.259  -0.137  -0.069
    1UNL    C14   16   0.396  -0.168  -0.044
    1UNL    C15   17   0.477  -0.064  -0.012
    1UNL    C16   18   0.435   0.071  -0.009
    1UNL     O1   19   0.519   0.179  -0.005
    1UNL    C17   20   0.657   0.147   0.030
    1UNL    C18   21   0.294   0.098  -0.018
    1UNL    C19   22   0.206  -0.010  -0.041
    1UNL    C20   23  -0.032   0.035   0.057
    1UNL     O2   24  -0.002   0.171   0.088
    1UNL    C21   25  -0.011   0.193   0.227
    1UNL    C22   26   0.031   0.319   0.273
    1UNL     O3   27  -0.046   0.109   0.312
    1UNL     H1   28  -0.520   0.092   0.100
    1UNL     H2   29  -0.508  -0.067   0.192
    1UNL     H3   30  -0.659  -0.029   0.125
    1UNL     H4   31  -0.571  -0.093  -0.112
    1UNL     H5   32  -0.334  -0.264  -0.198
    1UNL     H6   33  -0.380  -0.129  -0.277
    1UNL     H7   34  -0.080  -0.320  -0.142
    1UNL     H8   35  -0.249  -0.305   0.042
    1UNL     H9   36  -0.105  -0.222   0.118
    1UNL    H10   37  -0.298  -0.077   0.149
    1UNL    H11   38  -0.228   0.125   0.022
    1UNL    H12   39  -0.224   0.077  -0.209
    1UNL    H13   40   0.034   0.001  -0.282
    1UNL    H14   41   0.003   0.165  -0.189
    1UNL    H15   42   0.427  -0.269  -0.057
    1UNL    H16   43   0.576  -0.085   0.020
    1UNL    H17   44   0.643   0.095   0.124
    1UNL    H18   45   0.709   0.251   0.035
    1UNL    H19   46   0.715   0.077  -0.039
    1UNL    H20   47   0.262   0.195  -0.019
    1UNL    H21   48  -0.025  -0.025   0.152
    1UNL    H22   49   0.022   0.390   0.195
    1UNL    H23   50   0.139   0.319   0.302
    1UNL    H24   51  -0.030   0.349   0.357
   0.00000   0.00000   0.00000   0.00000   0.00000   0.00000   0.00000   0.00000   0.00000
Generated with MDTraj, t= 83.0
 51
    1UNL     C1    1  -0.555  -0.019   0.105
    1UNL     C2    2  -0.505  -0.085  -0.013
    1UNL     C3    3  -0.375  -0.108  -0.045
    1UNL     C4    4  -0.326  -0.163  -0.172
    1UNL     N1    5  -0.188  -0.124  -0.198
    1UNL     C5    6  -0.100  -0.214  -0.113
    1UNL     C6    7  -0.169  -0.220   0.030
    1UNL     C7    8  -0.255  -0.090   0.051
    1UNL     C8    9  -0.170   0.035  -0.006
    1UNL     C9   10  -0.160   0.021  -0.162
    1UNL    C10   11  -0.011   0.060  -0.195
    1UNL    C11   12   0.065  -0.017  -0.073
    1UNL    C12   13   0.045  -0.166  -0.098
    1UNL     N2   14   0.151  -0.229  -0.069
    1UNL    C13   15   0.256  -0.139  -0.054
    1UNL    C14   16   0.395  -0.167  -0.052
    1UNL    C15   17   0.481  -0.060  -0.031
    1UNL    C16   18   0.435   0.069  -0.014
    1UNL     O1   19   0.513   0.178   0.030
    1UNL    C17   20   0.646   0.143   0.040
    1UNL    C18   21   0.295   0.092  -0.029
    1UNL    C19   22   0.210  -0.007  -0.059
    1UNL    C20   23  -0.023   0.038   0.045
    1UNL     O2   24   0.019   0.172   0.096
    1UNL    C21   25  -0.011   0.190   0.221
    1UNL    C22   26   0.047   0.321   0.271
    1UNL     O3   27  -0.074   0.115   0.293
    1UNL     H1   28  -0.481   0.049   0.144
    1UNL     H2   29  -0.586  -0.099   0.177
    1UNL     H3   30  -0.655   0.035   0.092
    1UNL     H4   31  -0.566  -0.102  -0.092
    1UNL     H5   32  -0.349  -0.271  -0.182
    1UNL     H6   33  -0.378  -0.123  -0.253
    1UNL     H7   34  -0.103  -0.314  -0.160
    1UNL     H8   35  -0.227  -0.311   0.047
    1UNL     H9   36  -0.089  -0.225   0.107
    1UNL    H10   37  -0.277  -0.077   0.162
    1UNL    H11   38  -0.212   0.128   0.006
    1UNL    H12   39  -0.215   0.095  -0.222
    1UNL    H13   40   0.022   0.008  -0.289
    1UNL    H14   41   0.013   0.171  -0.199
    1UNL    H15   42   0.432  -0.267  -0.075
    1UNL    H16   43   0.588  -0.075  -0.035
    1UNL    H17   44   0.645   0.050   0.093
    1UNL    H18   45   0.692   0.239   0.088
    1UNL    H19   46   0.692   0.138  -0.061
    1UNL    H20   47   0.263   0.198  -0.047
    1UNL    H21   48  -0.007  -0.033   0.129
    1UNL    H22   49   0.151   0.328   0.265
    1UNL    H23   50   0.027   0.340   0.380
    1UNL    H24   51   0.007   0.408   0.220
   0.00000   0.00000   0.00000   0.00000   0.00000   0.00000   0.00000   0.00000   0.00000
Generated with MDTraj, t= 84.0
 51
    1UNL     C1    1  -0.547  -0.049   0.137
    1UNL     C2    2  -0.502  -0.074   0.000
    1UNL     C3    3  -0.372  -0.085  -0.037
    1UNL     C4    4  -0.333  -0.141  -0.171
    1UNL     N1    5  -0.187  -0.124  -0.197
    1UNL     C5    6  -0.098  -0.216  -0.097
    1UNL     C6    7  -0.167  -0.201   0.043
    1UNL     C7    8  -0.248  -0.071   0.045
    1UNL     C8    9  -0.163   0.045  -0.012
    1UNL     C9   10  -0.147   0.019  -0.166
    1UNL    C10   11   0.003   0.042  -0.195
    1UNL    C11   12   0.069  -0.023  -0.071
    1UNL    C12   13   0.046  -0.173  -0.086
    1UNL     N2   14   0.158  -0.235  -0.103
    1UNL    C13   15   0.266  -0.147  -0.085
    1UNL    C14   16   0.398  -0.170  -0.063
    1UNL    C15   17   0.482  -0.067  -0.025
    1UNL    C16   18   0.430   0.067  -0.006
    1UNL     O1   19   0.503   0.182   0.025
    1UNL    C17   20   0.639   0.151   0.052
    1UNL    C18   21   0.290   0.089  -0.018
    1UNL    C19   22   0.217  -0.013  -0.061
    1UNL    C20   23  -0.015   0.034   0.048
    1UNL     O2   24   0.032   0.163   0.081
    1UNL    C21   25  -0.024   0.193   0.210
    1UNL    C22   26   0.028   0.315   0.278
    1UNL     O3   27  -0.105   0.121   0.268
    1UNL     H1   28  -0.475  -0.089   0.210
    1UNL     H2   29  -0.649  -0.095   0.138
    1UNL     H3   30  -0.571   0.057   0.163
    1UNL     H4   31  -0.574  -0.079  -0.088
    1UNL     H5   32  -0.347  -0.249  -0.174
    1UNL     H6   33  -0.397  -0.109  -0.251
    1UNL     H7   34  -0.091  -0.321  -0.130
    1UNL     H8   35  -0.241  -0.284   0.046
    1UNL     H9   36  -0.107  -0.218   0.134
    1UNL    H10   37  -0.284  -0.059   0.151
    1UNL    H11   38  -0.207   0.131   0.017
    1UNL    H12   39  -0.215   0.080  -0.229
    1UNL    H13   40   0.032  -0.011  -0.291
    1UNL    H14   41   0.030   0.151  -0.191
    1UNL    H15   42   0.448  -0.263  -0.082
    1UNL    H16   43   0.585  -0.087  -0.002
    1UNL    H17   44   0.642   0.095   0.143
    1UNL    H18   45   0.703   0.241   0.029
    1UNL    H19   46   0.666   0.085  -0.029
    1UNL    H20   47   0.244   0.180   0.010
    1UNL    H21   48   0.003  -0.025   0.139
    1UNL    H22   49   0.039   0.286   0.381
    1UNL    H23   50  -0.052   0.391   0.276
    1UNL    H24   51   0.116   0.359   0.236
   0.00000   0.00000   0.00000   0.00000   0.00000   0.00000   0.00000   0.00000   0.00000
Generated with MDTraj, t= 85.0
 51
    1UNL     C1    1  -0.525  -0.049   0.156
    1UNL     C2    2  -0.500  -0.099   0.016
    1UNL     C3    3  -0.373  -0.106  -0.041
    1UNL     C4    4  -0.328  -0.149  -0.184
    1UNL     N1    5  -0.178  -0.110  -0.193
    1UNL     C5    6  -0.099  -0.210  -0.114
    1UNL     C6    7  -0.167  -0.219   0.027
    1UNL     C7    8  -0.247  -0.088   0.051
    1UNL     C8    9  -0.166   0.039   0.001
    1UNL     C9   10  -0.149   0.031  -0.152
    1UNL    C10   11  -0.001   0.061  -0.187
    1UNL    C11   12   0.065  -0.013  -0.074
    1UNL    C12   13   0.045  -0.158  -0.098
    1UNL     N2   14   0.154  -0.226  -0.088
    1UNL    C13   15   0.261  -0.138  -0.072
    1UNL    C14   16   0.394  -0.170  -0.053
    1UNL    C15   17   0.486  -0.072  -0.026
    1UNL    C16   18   0.442   0.061  -0.018
    1UNL     O1   19   0.523   0.163   0.023
    1UNL    C17   20   0.660   0.128   0.050
    1UNL    C18   21   0.309   0.092  -0.043
    1UNL    C19   22   0.220  -0.007  -0.065
    1UNL    C20   23  -0.021   0.034   0.055
    1UNL     O2   24   0.020   0.166   0.094
    1UNL    C21   25  -0.045   0.202   0.201
    1UNL    C22   26  -0.001   0.328   0.269
    1UNL     O3   27  -0.131   0.139   0.253
    1UNL     H1   28  -0.559  -0.133   0.227
    1UNL     H2   29  -0.595   0.037   0.148
    1UNL     H3   30  -0.446  -0.004   0.218
    1UNL     H4   31  -0.580  -0.109  -0.056
    1UNL     H5   32  -0.348  -0.249  -0.218
    1UNL     H6   33  -0.377  -0.083  -0.258
    1UNL     H7   34  -0.095  -0.305  -0.169
    1UNL     H8   35  -0.233  -0.308   0.038
    1UNL     H9   36  -0.091  -0.225   0.107
    1UNL    H10   37  -0.274  -0.074   0.159
    1UNL    H11   38  -0.212   0.128   0.034
    1UNL    H12   39  -0.222   0.092  -0.208
    1UNL    H13   40   0.026   0.010  -0.286
    1UNL    H14   41   0.022   0.171  -0.185
    1UNL    H15   42   0.419  -0.275  -0.062
    1UNL    H16   43   0.587  -0.105  -0.007
    1UNL    H17   44   0.668   0.024   0.070
    1UNL    H18   45   0.710   0.197   0.119
    1UNL    H19   46   0.706   0.149  -0.042
    1UNL    H20   47   0.273   0.181   0.004
    1UNL    H21   48  -0.013  -0.031   0.142
    1UNL    H22   49  -0.086   0.375   0.321
    1UNL    H23   50   0.044   0.388   0.195
    1UNL    H24   51   0.082   0.306   0.337
   0.00000   0.00000   0.00000   0.00000   0.00000   0.00000   0.00000   0.00000   0.00000
Generated with MDTraj, t= 86.0
 51
    1UNL     C1    1  -0.528  -0.058   0.147
    1UNL     C2    2  -0.500  -0.094   0.005
    1UNL     C3    3  -0.372  -0.117  -0.039
    1UNL     C4    4  -0.331  -0.136  -0.176
    1UNL     N1    5  -0.177  -0.100  -0.191
    1UNL     C5    6  -0.091  -0.205  -0.109
    1UNL     C6    7  -0.159  -0.226   0.022
    1UNL     C7    8  -0.246  -0.101   0.054
    1UNL     C8    9  -0.165   0.031   0.017
    1UNL     C9   10  -0.152   0.032  -0.147
    1UNL    C10   11  -0.004   0.076  -0.176
    1UNL    C11   12   0.066  -0.007  -0.063
    1UNL    C12   13   0.047  -0.155  -0.092
    1UNL     N2   14   0.153  -0.227  -0.110
    1UNL    C13   15   0.261  -0.140  -0.079
    1UNL    C14   16   0.399  -0.177  -0.067
    1UNL    C15   17   0.483  -0.082  -0.024
    1UNL    C16   18   0.442   0.055  -0.012
    1UNL     O1   19   0.540   0.157   0.003
    1UNL    C17   20   0.670   0.122   0.043
    1UNL    C18   21   0.314   0.090  -0.026
    1UNL    C19   22   0.222  -0.007  -0.062
    1UNL    C20   23  -0.016   0.031   0.064
    1UNL     O2   24   0.027   0.160   0.105
    1UNL    C21   25  -0.056   0.208   0.209
    1UNL    C22   26  -0.031   0.351   0.251
    1UNL     O3   27  -0.146   0.145   0.255
    1UNL     H1   28  -0.480  -0.139   0.214
    1UNL     H2   29  -0.636  -0.036   0.161
    1UNL     H3   30  -0.481   0.031   0.183
    1UNL     H4   31  -0.574  -0.094  -0.073
    1UNL     H5   32  -0.341  -0.239  -0.195
    1UNL     H6   33  -0.398  -0.084  -0.250
    1UNL     H7   34  -0.092  -0.294  -0.170
    1UNL     H8   35  -0.226  -0.315   0.029
    1UNL     H9   36  -0.081  -0.234   0.099
    1UNL    H10   37  -0.258  -0.101   0.166
    1UNL    H11   38  -0.212   0.130   0.037
    1UNL    H12   39  -0.219   0.103  -0.199
    1UNL    H13   40   0.033   0.038  -0.276
    1UNL    H14   41   0.016   0.187  -0.175
    1UNL    H15   42   0.431  -0.279  -0.077
    1UNL    H16   43   0.587  -0.108  -0.040
    1UNL    H17   44   0.670   0.117   0.151
    1UNL    H18   45   0.737   0.194  -0.001
    1UNL    H19   46   0.703   0.034   0.000
    1UNL    H20   47   0.275   0.190   0.003
    1UNL    H21   48  -0.008  -0.031   0.152
    1UNL    H22   49  -0.062   0.417   0.169
    1UNL    H23   50   0.069   0.351   0.275
    1UNL    H24   51  -0.087   0.382   0.342
   0.00000   0.00000   0.00000   0.00000   0.00000   0.00000   0.00000   0.00000   0.00000
Generated with MDTraj, t= 87.0
 51
    1UNL     C1    1  -0.546  -0.078   0.145
    1UNL     C2    2  -0.493  -0.080   0.001
    1UNL     C3    3  -0.361  -0.092  -0.035
    1UNL     C4    4  -0.326  -0.125  -0.175
    1UNL     N1    5  -0.181  -0.104  -0.195
    1UNL     C5    6  -0.100  -0.209  -0.109
    1UNL     C6    7  -0.165  -0.217   0.033
    1UNL     C7    8  -0.246  -0.084   0.051
    1UNL     C8    9  -0.155   0.034   0.003
    1UNL     C9   10  -0.140   0.032  -0.156
    1UNL    C10   11   0.016   0.054  -0.181
    1UNL    C11   12   0.072  -0.020  -0.060
    1UNL    C12   13   0.045  -0.169  -0.090
    1UNL     N2   14   0.156  -0.239  -0.085
    1UNL    C13   15   0.261  -0.146  -0.074
    1UNL    C14   16   0.400  -0.175  -0.083
    1UNL    C15   17   0.491  -0.071  -0.060
    1UNL    C16   18   0.443   0.061  -0.020
    1UNL     O1   19   0.525   0.167   0.013
    1UNL    C17   20   0.658   0.126   0.024
    1UNL    C18   21   0.311   0.085  -0.007
    1UNL    C19   22   0.220  -0.020  -0.032
    1UNL    C20   23  -0.013   0.033   0.058
    1UNL     O2   24   0.026   0.164   0.113
    1UNL    C21   25  -0.054   0.207   0.213
    1UNL    C22   26  -0.037   0.348   0.251
    1UNL     O3   27  -0.143   0.144   0.261
    1UNL     H1   28  -0.496  -0.159   0.210
    1UNL     H2   29  -0.655  -0.087   0.133
    1UNL     H3   30  -0.537   0.013   0.201
    1UNL     H4   31  -0.558  -0.064  -0.092
    1UNL     H5   32  -0.358  -0.215  -0.217
    1UNL     H6   33  -0.376  -0.046  -0.239
    1UNL     H7   34  -0.089  -0.310  -0.144
    1UNL     H8   35  -0.237  -0.302   0.043
    1UNL     H9   36  -0.089  -0.228   0.113
    1UNL    H10   37  -0.288  -0.069   0.153
    1UNL    H11   38  -0.216   0.127   0.043
    1UNL    H12   39  -0.219   0.101  -0.194
    1UNL    H13   40   0.040   0.008  -0.280
    1UNL    H14   41   0.036   0.164  -0.196
    1UNL    H15   42   0.438  -0.272  -0.113
    1UNL    H16   43   0.594  -0.091  -0.077
    1UNL    H17   44   0.661   0.018   0.026
    1UNL    H18   45   0.693   0.157   0.120
    1UNL    H19   46   0.718   0.172  -0.048
    1UNL    H20   47   0.281   0.180   0.022
    1UNL    H21   48  -0.013  -0.042   0.134
    1UNL    H22   49   0.043   0.397   0.198
    1UNL    H23   50  -0.024   0.348   0.356
    1UNL    H24   51  -0.122   0.413   0.224
   0.00000   0.00000   0.00000   0.00000   0.00000   0.00000   0.00000   0.00000   0.00000
Generated with MDTraj, t= 88.0
 51
    1UNL     C1    1  -0.551  -0.061   0.116
    1UNL     C2    2  -0.503  -0.109  -0.012
    1UNL     C3    3  -0.370  -0.101  -0.048
    1UNL     C4    4  -0.320  -0.138  -0.181
    1UNL     N1    5  -0.173  -0.118  -0.192
    1UNL     C5    6  -0.096  -0.213  -0.094
    1UNL     C6    7  -0.165  -0.203   0.039
    1UNL     C7    8  -0.260  -0.075   0.054
    1UNL     C8    9  -0.172   0.041  -0.001
    1UNL     C9   10  -0.142   0.019  -0.154
    1UNL    C10   11   0.007   0.051  -0.178
    1UNL    C11   12   0.071  -0.015  -0.050
    1UNL    C12   13   0.048  -0.162  -0.080
    1UNL     N2   14   0.156  -0.226  -0.096
    1UNL    C13   15   0.265  -0.139  -0.086
    1UNL    C14   16   0.398  -0.169  -0.088
    1UNL    C15   17   0.485  -0.068  -0.057
    1UNL    C16   18   0.440   0.054  -0.012
    1UNL     O1   19   0.524   0.163   0.012
    1UNL    C17   20   0.663   0.129   0.015
    1UNL    C18   21   0.306   0.082  -0.006
    1UNL    C19   22   0.222  -0.012  -0.044
    1UNL    C20   23  -0.022   0.038   0.065
    1UNL     O2   24   0.020   0.164   0.108
    1UNL    C21   25  -0.048   0.204   0.222
    1UNL    C22   26   0.001   0.340   0.269
    1UNL     O3   27  -0.136   0.146   0.285
    1UNL     H1   28  -0.543  -0.135   0.200
    1UNL     H2   29  -0.657  -0.039   0.099
    1UNL     H3   30  -0.516   0.035   0.156
    1UNL     H4   31  -0.570  -0.136  -0.084
    1UNL     H5   32  -0.345  -0.236  -0.208
    1UNL     H6   33  -0.379  -0.073  -0.252
    1UNL     H7   34  -0.100  -0.311  -0.135
    1UNL     H8   35  -0.219  -0.297   0.061
    1UNL     H9   36  -0.091  -0.190   0.121
    1UNL    H10   37  -0.279  -0.059   0.163
    1UNL    H11   38  -0.215   0.150   0.024
    1UNL    H12   39  -0.193   0.086  -0.226
    1UNL    H13   40   0.053   0.002  -0.268
    1UNL    H14   41   0.029   0.162  -0.198
    1UNL    H15   42   0.436  -0.257  -0.135
    1UNL    H16   43   0.588  -0.098  -0.073
    1UNL    H17   44   0.675   0.090   0.120
    1UNL    H18   45   0.718   0.219   0.010
    1UNL    H19   46   0.701   0.062  -0.062
    1UNL    H20   47   0.265   0.184   0.003
    1UNL    H21   48  -0.002  -0.017   0.155
    1UNL    H22   49   0.087   0.340   0.333
    1UNL    H23   50  -0.082   0.384   0.326
    1UNL    H24   51   0.038   0.408   0.194
   0.00000   0.00000   0.00000   0.00000   0.00000   0.00000   0.00000   0.00000   0.00000
Generated with MDTraj, t= 89.0
 51
    1UNL     C1    1  -0.551  -0.034   0.107
    1UNL     C2    2  -0.506  -0.091  -0.018
    1UNL     C3    3  -0.374  -0.113  -0.048
    1UNL     C4    4  -0.327  -0.152  -0.190
    1UNL     N1    5  -0.176  -0.117  -0.184
    1UNL     C5    6  -0.093  -0.215  -0.093
    1UNL     C6    7  -0.166  -0.223   0.037
    1UNL     C7    8  -0.257  -0.094   0.047
    1UNL     C8    9  -0.171   0.033   0.010
    1UNL     C9   10  -0.153   0.025  -0.140
    1UNL    C10   11  -0.016   0.060  -0.181
    1UNL    C11   12   0.063  -0.016  -0.068
    1UNL    C12   13   0.044  -0.163  -0.079
    1UNL     N2   14   0.151  -0.225  -0.078
    1UNL    C13   15   0.262  -0.132  -0.069
    1UNL    C14   16   0.391  -0.169  -0.055
    1UNL    C15   17   0.488  -0.071  -0.024
    1UNL    C16   18   0.446   0.065  -0.020
    1UNL     O1   19   0.530   0.168   0.018
    1UNL    C17   20   0.670   0.147  -0.001
    1UNL    C18   21   0.305   0.100  -0.028
    1UNL    C19   22   0.217  -0.000  -0.057
    1UNL    C20   23  -0.024   0.036   0.057
    1UNL     O2   24   0.015   0.169   0.095
    1UNL    C21   25  -0.032   0.198   0.215
    1UNL    C22   26   0.027   0.315   0.282
    1UNL     O3   27  -0.114   0.126   0.269
    1UNL     H1   28  -0.509  -0.076   0.198
    1UNL     H2   29  -0.658  -0.057   0.107
    1UNL     H3   30  -0.554   0.079   0.117
    1UNL     H4   31  -0.581  -0.097  -0.105
    1UNL     H5   32  -0.354  -0.251  -0.216
    1UNL     H6   33  -0.368  -0.085  -0.269
    1UNL     H7   34  -0.082  -0.310  -0.136
    1UNL     H8   35  -0.226  -0.315   0.055
    1UNL     H9   36  -0.092  -0.221   0.120
    1UNL    H10   37  -0.298  -0.084   0.149
    1UNL    H11   38  -0.242   0.121   0.041
    1UNL    H12   39  -0.233   0.081  -0.189
    1UNL    H13   40   0.019   0.026  -0.281
    1UNL    H14   41   0.007   0.171  -0.174
    1UNL    H15   42   0.415  -0.275  -0.064
    1UNL    H16   43   0.593  -0.094  -0.016
    1UNL    H17   44   0.691   0.052   0.060
    1UNL    H18   45   0.725   0.226   0.046
    1UNL    H19   46   0.691   0.138  -0.110
    1UNL    H20   47   0.277   0.202  -0.026
    1UNL    H21   48  -0.005  -0.029   0.139
    1UNL    H22   49  -0.003   0.320   0.385
    1UNL    H23   50  -0.016   0.406   0.232
    1UNL    H24   51   0.130   0.313   0.287
   0.00000   0.00000   0.00000   0.00000   0.00000   0.00000   0.00000   0.00000   0.00000
Generated with MDTraj, t= 90.0
 51
    1UNL     C1    1  -0.517  -0.021   0.133
    1UNL     C2    2  -0.495  -0.064  -0.012
    1UNL     C3    3  -0.369  -0.098  -0.049
    1UNL     C4    4  -0.328  -0.144  -0.188
    1UNL     N1    5  -0.181  -0.124  -0.199
    1UNL     C5    6  -0.104  -0.219  -0.105
    1UNL     C6    7  -0.175  -0.214   0.031
    1UNL     C7    8  -0.251  -0.079   0.046
    1UNL     C8    9  -0.165   0.040  -0.014
    1UNL     C9   10  -0.146   0.016  -0.172
    1UNL    C10   11   0.008   0.043  -0.197
    1UNL    C11   12   0.068  -0.020  -0.073
    1UNL    C12   13   0.039  -0.173  -0.083
    1UNL     N2   14   0.149  -0.235  -0.081
    1UNL    C13   15   0.259  -0.151  -0.058
    1UNL    C14   16   0.395  -0.167  -0.027
    1UNL    C15   17   0.474  -0.062  -0.005
    1UNL    C16   18   0.432   0.073  -0.007
    1UNL     O1   19   0.503   0.191  -0.014
    1UNL    C17   20   0.639   0.167  -0.004
    1UNL    C18   21   0.292   0.092  -0.020
    1UNL    C19   22   0.211  -0.017  -0.046
    1UNL    C20   23  -0.021   0.032   0.046
    1UNL     O2   24   0.032   0.153   0.098
    1UNL    C21   25  -0.021   0.185   0.224
    1UNL    C22   26   0.012   0.313   0.303
    1UNL     O3   27  -0.097   0.105   0.279
    1UNL     H1   28  -0.511  -0.102   0.200
    1UNL     H2   29  -0.615   0.026   0.142
    1UNL     H3   30  -0.449   0.060   0.174
    1UNL     H4   31  -0.572  -0.059  -0.084
    1UNL     H5   32  -0.343  -0.248  -0.215
    1UNL     H6   33  -0.374  -0.076  -0.261
    1UNL     H7   34  -0.094  -0.316  -0.142
    1UNL     H8   35  -0.252  -0.293   0.034
    1UNL     H9   36  -0.105  -0.236   0.115
    1UNL    H10   37  -0.256  -0.052   0.153
    1UNL    H11   38  -0.213   0.136   0.015
    1UNL    H12   39  -0.216   0.073  -0.230
    1UNL    H13   40   0.048  -0.009  -0.286
    1UNL    H14   41   0.022   0.153  -0.216
    1UNL    H15   42   0.441  -0.262  -0.035
    1UNL    H16   43   0.577  -0.081   0.018
    1UNL    H17   44   0.659   0.122   0.099
    1UNL    H18   45   0.686   0.266  -0.006
    1UNL    H19   46   0.674   0.102  -0.092
    1UNL    H20   47   0.248   0.187   0.008
    1UNL    H21   48  -0.012  -0.038   0.127
    1UNL    H22   49  -0.080   0.371   0.311
    1UNL    H23   50   0.082   0.371   0.242
    1UNL    H24   51   0.044   0.292   0.400
   0.00000   0.00000   0.00000   0.00000   0.00000   0.00000   0.00000   0.00000   0.00000
Generated with MDTraj, t= 91.0
 51
    1UNL     C1    1  -0.546   0.001   0.116
    1UNL     C2    2  -0.503  -0.066  -0.014
    1UNL     C3    3  -0.372  -0.101  -0.038
    1UNL     C4    4  -0.335  -0.149  -0.171
    1UNL     N1    5  -0.187  -0.121  -0.200
    1UNL     C5    6  -0.101  -0.217  -0.104
    1UNL     C6    7  -0.168  -0.223   0.034
    1UNL     C7    8  -0.251  -0.088   0.049
    1UNL     C8    9  -0.166   0.036  -0.001
    1UNL     C9   10  -0.156   0.016  -0.164
    1UNL    C10   11  -0.002   0.054  -0.198
    1UNL    C11   12   0.070  -0.016  -0.079
    1UNL    C12   13   0.041  -0.167  -0.089
    1UNL     N2   14   0.150  -0.230  -0.059
    1UNL    C13   15   0.259  -0.137  -0.042
    1UNL    C14   16   0.400  -0.165  -0.029
    1UNL    C15   17   0.487  -0.057  -0.020
    1UNL    C16   18   0.439   0.075  -0.022
    1UNL     O1   19   0.514   0.185   0.003
    1UNL    C17   20   0.655   0.163   0.009
    1UNL    C18   21   0.303   0.100  -0.051
    1UNL    C19   22   0.217  -0.009  -0.063
    1UNL    C20   23  -0.017   0.029   0.037
    1UNL     O2   24   0.028   0.150   0.099
    1UNL    C21   25  -0.026   0.170   0.225
    1UNL    C22   26   0.007   0.302   0.285
    1UNL     O3   27  -0.095   0.093   0.288
    1UNL     H1   28  -0.522  -0.055   0.202
    1UNL     H2   29  -0.656   0.004   0.122
    1UNL     H3   30  -0.523   0.111   0.122
    1UNL     H4   31  -0.576  -0.072  -0.095
    1UNL     H5   32  -0.348  -0.259  -0.177
    1UNL     H6   33  -0.394  -0.095  -0.243
    1UNL     H7   34  -0.097  -0.309  -0.153
    1UNL     H8   35  -0.231  -0.314   0.049
    1UNL     H9   36  -0.094  -0.228   0.118
    1UNL    H10   37  -0.280  -0.078   0.154
    1UNL    H11   38  -0.210   0.129   0.015
    1UNL    H12   39  -0.207   0.090  -0.218
    1UNL    H13   40   0.032   0.019  -0.299
    1UNL    H14   41   0.030   0.161  -0.194
    1UNL    H15   42   0.420  -0.272  -0.031
    1UNL    H16   43   0.596  -0.069  -0.022
    1UNL    H17   44   0.686   0.102   0.098
    1UNL    H18   45   0.706   0.260   0.016
    1UNL    H19   46   0.687   0.113  -0.090
    1UNL    H20   47   0.271   0.203  -0.038
    1UNL    H21   48  -0.008  -0.047   0.113
    1UNL    H22   49   0.002   0.373   0.205
    1UNL    H23   50   0.105   0.300   0.328
    1UNL    H24   51  -0.070   0.324   0.359
   0.00000   0.00000   0.00000   0.00000   0.00000   0.00000   0.00000   0.00000   0.00000
Generated with MDTraj, t= 92.0
 51
    1UNL     C1    1  -0.543  -0.009   0.107
    1UNL     C2    2  -0.493  -0.081  -0.016
    1UNL     C3    3  -0.364  -0.109  -0.045
    1UNL     C4    4  -0.320  -0.168  -0.180
    1UNL     N1    5  -0.170  -0.130  -0.188
    1UNL     C5    6  -0.091  -0.216  -0.096
    1UNL     C6    7  -0.159  -0.208   0.044
    1UNL     C7    8  -0.252  -0.086   0.057
    1UNL     C8    9  -0.171   0.033  -0.002
    1UNL     C9   10  -0.149   0.019  -0.153
    1UNL    C10   11  -0.008   0.057  -0.185
    1UNL    C11   12   0.067  -0.012  -0.065
    1UNL    C12   13   0.045  -0.157  -0.090
    1UNL     N2   14   0.155  -0.227  -0.099
    1UNL    C13   15   0.260  -0.135  -0.074
    1UNL    C14   16   0.393  -0.171  -0.059
    1UNL    C15   17   0.476  -0.069  -0.031
    1UNL    C16   18   0.440   0.067  -0.032
    1UNL     O1   19   0.522   0.174  -0.011
    1UNL    C17   20   0.654   0.135   0.026
    1UNL    C18   21   0.303   0.102  -0.032
    1UNL    C19   22   0.215  -0.005  -0.051
    1UNL    C20   23  -0.028   0.043   0.055
    1UNL     O2   24  -0.003   0.177   0.099
    1UNL    C21   25  -0.041   0.189   0.229
    1UNL    C22   26   0.017   0.311   0.299
    1UNL     O3   27  -0.106   0.107   0.289
    1UNL     H1   28  -0.535  -0.066   0.196
    1UNL     H2   29  -0.653   0.005   0.100
    1UNL     H3   30  -0.518   0.099   0.111
    1UNL     H4   31  -0.567  -0.101  -0.098
    1UNL     H5   32  -0.331  -0.281  -0.179
    1UNL     H6   33  -0.366  -0.123  -0.264
    1UNL     H7   34  -0.078  -0.318  -0.118
    1UNL     H8   35  -0.222  -0.297   0.063
    1UNL     H9   36  -0.080  -0.207   0.122
    1UNL    H10   37  -0.287  -0.073   0.158
    1UNL    H11   38  -0.215   0.120   0.025
    1UNL    H12   39  -0.234   0.055  -0.202
    1UNL    H13   40   0.015  -0.002  -0.278
    1UNL    H14   41   0.012   0.166  -0.191
    1UNL    H15   42   0.426  -0.273  -0.053
    1UNL    H16   43   0.577  -0.098  -0.014
    1UNL    H17   44   0.670   0.073   0.114
    1UNL    H18   45   0.714   0.227   0.041
    1UNL    H19   46   0.704   0.088  -0.064
    1UNL    H20   47   0.273   0.204  -0.019
    1UNL    H21   48  -0.011  -0.019   0.145
    1UNL    H22   49   0.117   0.330   0.271
    1UNL    H23   50   0.008   0.304   0.404
    1UNL    H24   51  -0.042   0.405   0.274
   0.00000   0.00000   0.00000   0.00000   0.00000   0.00000   0.00000   0.00000   0.00000
Generated with MDTraj, t= 93.0
 51
    1UNL     C1    1  -0.544  -0.046   0.125
    1UNL     C2    2  -0.504  -0.082  -0.013
    1UNL     C3    3  -0.373  -0.093  -0.048
    1UNL     C4    4  -0.330  -0.137  -0.179
    1UNL     N1    5  -0.180  -0.125  -0.187
    1UNL     C5    6  -0.098  -0.219  -0.094
    1UNL     C6    7  -0.176  -0.215   0.037
    1UNL     C7    8  -0.254  -0.080   0.049
    1UNL     C8    9  -0.166   0.042   0.004
    1UNL     C9   10  -0.144   0.015  -0.153
    1UNL    C10   11   0.002   0.047  -0.178
    1UNL    C11   12   0.069  -0.024  -0.052
    1UNL    C12   13   0.044  -0.171  -0.074
    1UNL     N2   14   0.158  -0.231  -0.091
    1UNL    C13   15   0.261  -0.140  -0.077
    1UNL    C14   16   0.397  -0.160  -0.078
    1UNL    C15   17   0.485  -0.050  -0.067
    1UNL    C16   18   0.437   0.074  -0.017
    1UNL     O1   19   0.527   0.178   0.016
    1UNL    C17   20   0.659   0.133   0.020
    1UNL    C18   21   0.299   0.096  -0.016
    1UNL    C19   22   0.216  -0.008  -0.046
    1UNL    C20   23  -0.018   0.027   0.069
    1UNL     O2   24   0.028   0.153   0.103
    1UNL    C21   25  -0.037   0.195   0.215
    1UNL    C22   26   0.004   0.324   0.272
    1UNL     O3   27  -0.121   0.126   0.268
    1UNL     H1   28  -0.575  -0.136   0.177
    1UNL     H2   29  -0.638   0.011   0.115
    1UNL     H3   30  -0.483   0.030   0.174
    1UNL     H4   31  -0.576  -0.099  -0.083
    1UNL     H5   32  -0.349  -0.248  -0.196
    1UNL     H6   33  -0.374  -0.076  -0.251
    1UNL     H7   34  -0.108  -0.307  -0.148
    1UNL     H8   35  -0.242  -0.303   0.056
    1UNL     H9   36  -0.105  -0.214   0.122
    1UNL    H10   37  -0.283  -0.072   0.151
    1UNL    H11   38  -0.208   0.135   0.011
    1UNL    H12   39  -0.197   0.072  -0.222
    1UNL    H13   40   0.056   0.004  -0.268
    1UNL    H14   41   0.026   0.153  -0.164
    1UNL    H15   42   0.430  -0.256  -0.112
    1UNL    H16   43   0.592  -0.065  -0.074
    1UNL    H17   44   0.683   0.047   0.075
    1UNL    H18   45   0.726   0.211   0.060
    1UNL    H19   46   0.695   0.126  -0.083
    1UNL    H20   47   0.259   0.197   0.000
    1UNL    H21   48  -0.022  -0.037   0.160
    1UNL    H22   49   0.067   0.314   0.356
    1UNL    H23   50  -0.085   0.378   0.290
    1UNL    H24   51   0.057   0.395   0.202
   0.00000   0.00000   0.00000   0.00000   0.00000   0.00000   0.00000   0.00000   0.00000
Generated with MDTraj, t= 94.0
 51
    1UNL     C1    1  -0.537  -0.060   0.138
    1UNL     C2    2  -0.497  -0.098   0.000
    1UNL     C3    3  -0.369  -0.106  -0.039
    1UNL     C4    4  -0.326  -0.132  -0.180
    1UNL     N1    5  -0.182  -0.102  -0.193
    1UNL     C5    6  -0.102  -0.211  -0.116
    1UNL     C6    7  -0.171  -0.221   0.030
    1UNL     C7    8  -0.248  -0.097   0.050
    1UNL     C8    9  -0.162   0.027   0.011
    1UNL     C9   10  -0.148   0.034  -0.143
    1UNL    C10   11   0.006   0.067  -0.170
    1UNL    C11   12   0.066  -0.018  -0.059
    1UNL    C12   13   0.039  -0.170  -0.095
    1UNL     N2   14   0.148  -0.234  -0.114
    1UNL    C13   15   0.262  -0.150  -0.081
    1UNL    C14   16   0.401  -0.176  -0.084
    1UNL    C15   17   0.496  -0.076  -0.051
    1UNL    C16   18   0.450   0.052  -0.018
    1UNL     O1   19   0.521   0.166   0.021
    1UNL    C17   20   0.656   0.162   0.016
    1UNL    C18   21   0.306   0.067  -0.009
    1UNL    C19   22   0.218  -0.027  -0.043
    1UNL    C20   23  -0.013   0.031   0.072
    1UNL     O2   24   0.035   0.161   0.117
    1UNL    C21   25  -0.046   0.215   0.213
    1UNL    C22   26  -0.017   0.352   0.264
    1UNL     O3   27  -0.140   0.158   0.261
    1UNL     H1   28  -0.486  -0.119   0.218
    1UNL     H2   29  -0.641  -0.092   0.147
    1UNL     H3   30  -0.544   0.045   0.148
    1UNL     H4   31  -0.568  -0.099  -0.090
    1UNL     H5   32  -0.342  -0.239  -0.214
    1UNL     H6   33  -0.364  -0.066  -0.253
    1UNL     H7   34  -0.096  -0.304  -0.163
    1UNL     H8   35  -0.244  -0.306   0.039
    1UNL     H9   36  -0.097  -0.243   0.109
    1UNL    H10   37  -0.274  -0.084   0.153
    1UNL    H11   38  -0.203   0.121   0.048
    1UNL    H12   39  -0.212   0.105  -0.179
    1UNL    H13   40   0.036   0.030  -0.271
    1UNL    H14   41   0.029   0.173  -0.152
    1UNL    H15   42   0.436  -0.280  -0.100
    1UNL    H16   43   0.601  -0.101  -0.049
    1UNL    H17   44   0.703   0.116   0.094
    1UNL    H18   45   0.698   0.262   0.012
    1UNL    H19   46   0.691   0.117  -0.074
    1UNL    H20   47   0.268   0.165   0.002
    1UNL    H21   48  -0.003  -0.045   0.154
    1UNL    H22   49  -0.076   0.381   0.350
    1UNL    H23   50  -0.017   0.414   0.175
    1UNL    H24   51   0.085   0.359   0.301
   0.00000   0.00000   0.00000   0.00000   0.00000   0.00000   0.00000   0.00000   0.00000
Generated with MDTraj, t= 95.0
 51
    1UNL     C1    1  -0.519  -0.085   0.155
    1UNL     C2    2  -0.495  -0.092   0.010
    1UNL     C3    3  -0.372  -0.111  -0.037
    1UNL     C4    4  -0.331  -0.132  -0.179
    1UNL     N1    5  -0.181  -0.107  -0.197
    1UNL     C5    6  -0.096  -0.205  -0.117
    1UNL     C6    7  -0.161  -0.225   0.025
    1UNL     C7    8  -0.246  -0.104   0.057
    1UNL     C8    9  -0.168   0.030   0.011
    1UNL     C9   10  -0.153   0.034  -0.149
    1UNL    C10   11  -0.005   0.076  -0.180
    1UNL    C11   12   0.068  -0.010  -0.067
    1UNL    C12   13   0.049  -0.150  -0.105
    1UNL     N2   14   0.152  -0.221  -0.106
    1UNL    C13   15   0.255  -0.140  -0.067
    1UNL    C14   16   0.388  -0.168  -0.069
    1UNL    C15   17   0.477  -0.074  -0.036
    1UNL    C16   18   0.447   0.060   0.001
    1UNL     O1   19   0.547   0.159   0.024
    1UNL    C17   20   0.677   0.117  -0.004
    1UNL    C18   21   0.309   0.094  -0.002
    1UNL    C19   22   0.214  -0.006  -0.042
    1UNL    C20   23  -0.014   0.028   0.060
    1UNL     O2   24   0.027   0.155   0.103
    1UNL    C21   25  -0.052   0.207   0.207
    1UNL    C22   26  -0.016   0.345   0.260
    1UNL     O3   27  -0.155   0.159   0.251
    1UNL     H1   28  -0.513  -0.188   0.201
    1UNL     H2   29  -0.623  -0.057   0.170
    1UNL     H3   30  -0.472  -0.006   0.205
    1UNL     H4   31  -0.572  -0.079  -0.057
    1UNL     H5   32  -0.354  -0.237  -0.208
    1UNL     H6   33  -0.385  -0.070  -0.248
    1UNL     H7   34  -0.088  -0.296  -0.168
    1UNL     H8   35  -0.212  -0.325   0.016
    1UNL     H9   36  -0.089  -0.239   0.108
    1UNL    H10   37  -0.274  -0.106   0.160
    1UNL    H11   38  -0.222   0.128   0.044
    1UNL    H12   39  -0.222   0.097  -0.191
    1UNL    H13   40   0.013   0.038  -0.281
    1UNL    H14   41   0.003   0.186  -0.177
    1UNL    H15   42   0.414  -0.267  -0.086
    1UNL    H16   43   0.580  -0.103  -0.045
    1UNL    H17   44   0.705   0.044   0.062
    1UNL    H18   45   0.753   0.194   0.014
    1UNL    H19   46   0.697   0.080  -0.102
    1UNL    H20   47   0.287   0.197   0.027
    1UNL    H21   48  -0.005  -0.042   0.148
    1UNL    H22   49  -0.082   0.426   0.223
    1UNL    H23   50   0.088   0.352   0.231
    1UNL    H24   51  -0.030   0.350   0.363
   0.00000   0.00000   0.00000   0.00000   0.00000   0.00000   0.00000   0.00000   0.00000
Generated with MDTraj, t= 96.0
 51
    1UNL     C1    1  -0.536  -0.087   0.149
    1UNL     C2    2  -0.488  -0.112   0.009
    1UNL     C3    3  -0.362  -0.096  -0.030
    1UNL     C4    4  -0.331  -0.115  -0.177
    1UNL     N1    5  -0.182  -0.106  -0.193
    1UNL     C5    6  -0.098  -0.206  -0.104
    1UNL     C6    7  -0.154  -0.208   0.047
    1UNL     C7    8  -0.237  -0.084   0.060
    1UNL     C8    9  -0.158   0.041   0.005
    1UNL     C9   10  -0.144   0.037  -0.151
    1UNL    C10   11   0.003   0.065  -0.187
    1UNL    C11   12   0.071  -0.015  -0.070
    1UNL    C12   13   0.046  -0.163  -0.105
    1UNL     N2   14   0.150  -0.233  -0.100
    1UNL    C13   15   0.262  -0.139  -0.078
    1UNL    C14   16   0.396  -0.176  -0.061
    1UNL    C15   17   0.485  -0.077  -0.037
    1UNL    C16   18   0.440   0.055  -0.017
    1UNL     O1   19   0.526   0.160   0.016
    1UNL    C17   20   0.665   0.126   0.020
    1UNL    C18   21   0.308   0.090  -0.043
    1UNL    C19   22   0.219  -0.008  -0.069
    1UNL    C20   23  -0.015   0.039   0.055
    1UNL     O2   24   0.016   0.168   0.106
    1UNL    C21   25  -0.055   0.203   0.213
    1UNL    C22   26  -0.025   0.334   0.274
    1UNL     O3   27  -0.146   0.140   0.260
    1UNL     H1   28  -0.524  -0.175   0.217
    1UNL     H2   29  -0.642  -0.069   0.147
    1UNL     H3   30  -0.501   0.006   0.187
    1UNL     H4   31  -0.558  -0.133  -0.072
    1UNL     H5   32  -0.359  -0.214  -0.214
    1UNL     H6   33  -0.384  -0.043  -0.244
    1UNL     H7   34  -0.106  -0.294  -0.159
    1UNL     H8   35  -0.222  -0.296   0.068
    1UNL     H9   36  -0.065  -0.213   0.112
    1UNL    H10   37  -0.264  -0.080   0.163
    1UNL    H11   38  -0.206   0.150   0.025
    1UNL    H12   39  -0.199   0.108  -0.201
    1UNL    H13   40   0.035   0.028  -0.283
    1UNL    H14   41   0.037   0.170  -0.179
    1UNL    H15   42   0.413  -0.287  -0.064
    1UNL    H16   43   0.589  -0.096  -0.014
    1UNL    H17   44   0.676   0.063   0.105
    1UNL    H18   45   0.737   0.210   0.044
    1UNL    H19   46   0.706   0.074  -0.065
    1UNL    H20   47   0.261   0.177  -0.006
    1UNL    H21   48   0.006  -0.036   0.138
    1UNL    H22   49   0.022   0.407   0.204
    1UNL    H23   50   0.041   0.306   0.353
    1UNL    H24   51  -0.115   0.376   0.306
   0.00000   0.00000   0.00000   0.00000   0.00000   0.00000   0.00000   0.00000   0.00000
Generated with MDTraj, t= 97.0
 51
    1UNL     C1    1  -0.539  -0.067   0.147
    1UNL     C2    2  -0.497  -0.111   0.003
    1UNL     C3    3  -0.374  -0.098  -0.041
    1UNL     C4    4  -0.331  -0.126  -0.183
    1UNL     N1    5  -0.185  -0.119  -0.197
    1UNL     C5    6  -0.101  -0.209  -0.109
    1UNL     C6    7  -0.166  -0.200   0.040
    1UNL     C7    8  -0.249  -0.075   0.051
    1UNL     C8    9  -0.168   0.045  -0.012
    1UNL     C9   10  -0.148   0.023  -0.164
    1UNL    C10   11  -0.001   0.051  -0.191
    1UNL    C11   12   0.062  -0.017  -0.066
    1UNL    C12   13   0.039  -0.165  -0.087
    1UNL     N2   14   0.149  -0.231  -0.084
    1UNL    C13   15   0.256  -0.145  -0.068
    1UNL    C14   16   0.396  -0.166  -0.073
    1UNL    C15   17   0.486  -0.060  -0.051
    1UNL    C16   18   0.447   0.068  -0.034
    1UNL     O1   19   0.534   0.175   0.001
    1UNL    C17   20   0.661   0.137   0.048
    1UNL    C18   21   0.305   0.088  -0.020
    1UNL    C19   22   0.211  -0.014  -0.052
    1UNL    C20   23  -0.021   0.043   0.057
    1UNL     O2   24   0.016   0.170   0.092
    1UNL    C21   25  -0.035   0.191   0.222
    1UNL    C22   26   0.005   0.326   0.273
    1UNL     O3   27  -0.107   0.114   0.289
    1UNL     H1   28  -0.489  -0.124   0.225
    1UNL     H2   29  -0.644  -0.082   0.161
    1UNL     H3   30  -0.524   0.040   0.152
    1UNL     H4   31  -0.576  -0.130  -0.073
    1UNL     H5   32  -0.371  -0.220  -0.214
    1UNL     H6   33  -0.371  -0.050  -0.258
    1UNL     H7   34  -0.106  -0.309  -0.138
    1UNL     H8   35  -0.234  -0.290   0.040
    1UNL     H9   36  -0.096  -0.208   0.126
    1UNL    H10   37  -0.268  -0.044   0.151
    1UNL    H11   38  -0.228   0.144   0.021
    1UNL    H12   39  -0.217   0.077  -0.219
    1UNL    H13   40   0.033   0.004  -0.282
    1UNL    H14   41   0.019   0.159  -0.201
    1UNL    H15   42   0.442  -0.259  -0.071
    1UNL    H16   43   0.592  -0.074  -0.048
    1UNL    H17   44   0.643   0.071   0.134
    1UNL    H18   45   0.716   0.230   0.086
    1UNL    H19   46   0.724   0.086  -0.026
    1UNL    H20   47   0.276   0.187   0.015
    1UNL    H21   48  -0.018  -0.021   0.153
    1UNL    H22   49   0.111   0.329   0.301
    1UNL    H23   50  -0.045   0.339   0.365
    1UNL    H24   51  -0.013   0.405   0.203
   0.00000   0.00000   0.00000   0.00000   0.00000   0.00000   0.00000   0.00000   0.00000
Generated with MDTraj, t= 98.0
 51
    1UNL     C1    1  -0.548  -0.050   0.108
    1UNL     C2    2  -0.499  -0.078  -0.029
    1UNL     C3    3  -0.375  -0.113  -0.045
    1UNL     C4    4  -0.328  -0.160  -0.177
    1UNL     N1    5  -0.186  -0.127  -0.187
    1UNL     C5    6  -0.096  -0.213  -0.095
    1UNL     C6    7  -0.170  -0.219   0.046
    1UNL     C7    8  -0.256  -0.091   0.050
    1UNL     C8    9  -0.167   0.036   0.005
    1UNL     C9   10  -0.166   0.022  -0.153
    1UNL    C10   11  -0.020   0.058  -0.185
    1UNL    C11   12   0.058  -0.012  -0.074
    1UNL    C12   13   0.037  -0.166  -0.089
    1UNL     N2   14   0.149  -0.231  -0.095
    1UNL    C13   15   0.253  -0.136  -0.072
    1UNL    C14   16   0.387  -0.161  -0.059
    1UNL    C15   17   0.477  -0.059  -0.037
    1UNL    C16   18   0.433   0.070  -0.016
    1UNL     O1   19   0.522   0.181   0.000
    1UNL    C17   20   0.651   0.148   0.046
    1UNL    C18   21   0.295   0.096  -0.033
    1UNL    C19   22   0.205  -0.001  -0.071
    1UNL    C20   23  -0.017   0.036   0.055
    1UNL     O2   24   0.028   0.166   0.101
    1UNL    C21   25  -0.004   0.195   0.226
    1UNL    C22   26   0.036   0.323   0.284
    1UNL     O3   27  -0.069   0.117   0.290
    1UNL     H1   28  -0.548  -0.137   0.169
    1UNL     H2   29  -0.648  -0.014   0.101
    1UNL     H3   30  -0.495   0.033   0.157
    1UNL     H4   31  -0.562  -0.072  -0.108
    1UNL     H5   32  -0.340  -0.264  -0.187
    1UNL     H6   33  -0.391  -0.118  -0.263
    1UNL     H7   34  -0.094  -0.305  -0.144
    1UNL     H8   35  -0.221  -0.317   0.064
    1UNL     H9   36  -0.088  -0.213   0.121
    1UNL    H10   37  -0.294  -0.083   0.149
    1UNL    H11   38  -0.219   0.138   0.017
    1UNL    H12   39  -0.237   0.079  -0.200
    1UNL    H13   40   0.007   0.020  -0.283
    1UNL    H14   41   0.009   0.163  -0.183
    1UNL    H15   42   0.425  -0.262  -0.084
    1UNL    H16   43   0.584  -0.080  -0.033
    1UNL    H17   44   0.634   0.069   0.126
    1UNL    H18   45   0.700   0.242   0.091
    1UNL    H19   46   0.709   0.105  -0.037
    1UNL    H20   47   0.256   0.196  -0.036
    1UNL    H21   48   0.009  -0.045   0.132
    1UNL    H22   49   0.044   0.322   0.389
    1UNL    H23   50  -0.040   0.396   0.264
    1UNL    H24   51   0.130   0.362   0.245
   0.00000   0.00000   0.00000   0.00000   0.00000   0.00000   0.00000   0.00000   0.00000
Generated with MDTraj, t= 99.0
 51
    1UNL     C1    1  -0.534  -0.009   0.117
    1UNL     C2    2  -0.499  -0.079  -0.010
    1UNL     C3    3  -0.379  -0.110  -0.044
    1UNL     C4    4  -0.333  -0.155  -0.182
    1UNL     N1    5  -0.187  -0.125  -0.192
    1UNL     C5    6  -0.101  -0.218  -0.106
    1UNL     C6    7  -0.173  -0.221   0.035
    1UNL     C7    8  -0.255  -0.099   0.049
    1UNL     C8    9  -0.175   0.021  -0.006
    1UNL     C9   10  -0.158   0.018  -0.159
    1UNL    C10   11  -0.008   0.046  -0.195
    1UNL    C11   12   0.059  -0.021  -0.068
    1UNL    C12   13   0.040  -0.165  -0.101
    1UNL     N2   14   0.150  -0.233  -0.084
    1UNL    C13   15   0.258  -0.140  -0.068
    1UNL    C14   16   0.393  -0.160  -0.057
    1UNL    C15   17   0.477  -0.050  -0.035
    1UNL    C16   18   0.430   0.078  -0.015
    1UNL     O1   19   0.502   0.190   0.013
    1UNL    C17   20   0.644   0.176   0.034
    1UNL    C18   21   0.291   0.095  -0.020
    1UNL    C19   22   0.206  -0.013  -0.043
    1UNL    C20   23  -0.030   0.033   0.049
    1UNL     O2   24   0.011   0.166   0.080
    1UNL    C21   25  -0.001   0.183   0.218
    1UNL    C22   26   0.058   0.306   0.289
    1UNL     O3   27  -0.054   0.108   0.297
    1UNL     H1   28  -0.543  -0.068   0.203
    1UNL     H2   29  -0.630   0.036   0.101
    1UNL     H3   30  -0.470   0.075   0.146
    1UNL     H4   31  -0.586  -0.084  -0.085
    1UNL     H5   32  -0.351  -0.257  -0.194
    1UNL     H6   33  -0.395  -0.111  -0.267
    1UNL     H7   34  -0.096  -0.316  -0.144
    1UNL     H8   35  -0.237  -0.313   0.038
    1UNL     H9   36  -0.098  -0.229   0.116
    1UNL    H10   37  -0.278  -0.086   0.152
    1UNL    H11   38  -0.222   0.117   0.013
    1UNL    H12   39  -0.218   0.086  -0.208
    1UNL    H13   40   0.012  -0.009  -0.288
    1UNL    H14   41   0.028   0.147  -0.208
    1UNL    H15   42   0.428  -0.263  -0.065
    1UNL    H16   43   0.577  -0.069  -0.002
    1UNL    H17   44   0.661   0.097   0.117
    1UNL    H18   45   0.686   0.276   0.060
    1UNL    H19   46   0.681   0.134  -0.060
    1UNL    H20   47   0.260   0.198  -0.024
    1UNL    H21   48  -0.012  -0.019   0.149
    1UNL    H22   49  -0.009   0.350   0.353
    1UNL    H23   50   0.086   0.381   0.216
    1UNL    H24   51   0.149   0.278   0.342
   0.00000   0.00000   0.00000   0.00000   0.00000   0.00000   0.00000   0.00000   0.00000
