[ moleculetype ]
; name        nrexcl
res           1

[ atoms ]
;    nr  type  resnr resid  atom  cgnr     charge       mass
      1 TC3       1 res   C1        1      0.000     36.000
      2 TC3       1 res   C2        2      0.000     36.000
      3 TN6d      1 res   C3        3      0.000     36.000
      4 SC5       1 res   C4        4      0.000     54.000
      5 SC4       1 res   C5        5      0.000     54.000
      6 TC3       1 res   C6        6      0.000     36.000
      7 TN6d      1 res   C7        7      0.000     36.000
      8 TC5       1 res   C8        8      0.000     36.000
      9 TC5       1 res   C9        9      0.000     36.000
     10 TC5       1 res   C10      10      0.000     36.000
     11 TN2a      1 res   C11      11      0.000     36.000
     12 SN4a      1 res   C12      12      0.000     54.000

[ constraints ]
;  ai    aj   funct      b0(nm)
    1     2     1      0.33278
   10    11     1      0.32197
    3     5     1      0.26047
    2     3     1      0.22794
    4     5     1      0.26391
    2     5     1      0.34631
    6     8     1      0.27204
    3     4     1      0.29790
    7     8     1      0.17973
    5     6     1      0.31849
    8    10     1      0.22073
    9    10     1      0.30081
    8     9     1      0.24786
    4     7     1      0.26723
    3     6     1      0.21830
    4     6     1      0.35839

[ bonds ]
;  ai    aj   funct      b0(nm)          k(kJ/mol/nm^2)
    5    12     1      0.36003           9376.1

[ angles ]
;  ai    aj    ak  funct     th0(deg)        k(kJ/mol/rad^2)
    1     2     3     1    108.73332           329.03
    1     2     5     1     70.80904          1060.64
    2     3     4     1     68.94717          2325.11
    2     3     5     1     90.08545          1901.43
    2     3     6     1    153.70317          1435.52
    2     5     3     1     41.14438          5124.99
    2     5     4     1     57.68430          3855.55
    2     5     6     1     81.50007          4419.29
    2     5    12     1    156.55836           153.09
    3     2     5     1     48.76997          3317.71
    3     4     5     1     54.83369          7056.16
    3     4     6     1     37.43837         12678.91
    3     4     7     1     94.91833          1344.02
    3     5     4     1     69.24442          4166.99
    3     5     6     1     42.84748          9972.38
    3     5    12     1    122.50049           305.39
    3     6     4     1     56.05711          6116.31
    3     6     5     1     54.23782          4858.77
    3     6     8     1    129.28816          1917.49
    4     3     5     1     55.92188          9216.90
    4     3     6     1     86.50446          3323.16
    4     5     6     1     75.31648          3653.30
    4     5    12     1    140.00450           126.75
    4     6     5     1     45.41589         10196.90
    4     6     8     1     73.31219          3238.73
    4     7     8     1    116.41290          1871.52
    5     3     6     1     82.91471          2865.40
    5     4     6     1     59.26759          6891.19
    5     4     7     1    104.04908          2617.57
    5     6     8     1     91.03775          1679.95
    6     4     7     1     59.98815          2305.22
    6     5    12     1     90.30886           452.75
    6     8     7     1     88.65072          2154.98
    6     8     9     1    152.39841           368.80
    6     8    10     1     90.76059           959.14
    7     8     9     1    101.79612          1740.57
    7     8    10     1    175.19791          1226.86
    8     9    10     1     46.20312          9639.39
    8    10     9     1     54.15029          6823.70
    8    10    11     1    123.00439          1731.08
    9     8    10     1     79.64662          4822.35
    9    10    11     1     69.11156          2763.69

[ dihedrals ]
;  ai    aj    ak    al  funct   phi0(deg)        k(kJ/mol)   mult
    1     2     3     4     1    -87.91983        9.315      1
    1     2     3     5     1   -140.02086       10.748      1
    1     2     3     6     1    -64.62498       15.716      1
    1     2     5     3     1     40.02601       12.214      1
    1     2     5     4     1    -54.03986       10.741      1
    1     2     5     6     1     23.95949       10.802      1
    1     2     5    12     1     82.24094       20.599      1
    2     3     4     5     1     74.02230        6.261      1
    2     3     4     6     1     -9.02791        7.049      1
    2     3     4     7     1    -28.09323        7.784      1
    2     3     5     4     1   -115.07139        5.528      1
    2     3     5     6     1    -25.01927        5.548      1
    2     3     5    12     1     18.15211       15.061      1
    2     3     6     4     1    159.07074       14.259      1
    2     3     6     5     1    103.52391       13.575      1
    2     3     6     8     1    161.64949       16.394      1
    2     5     3     4     1    115.07139        5.528      1
    2     5     3     6     1     25.01927        5.548      1
    2     5     4     3     1   -135.03999        3.964      1
    2     5     4     6     1    -90.99215        4.015      1
    2     5     4     7     1    -48.98934        7.071      1
    2     5     6     3     1   -163.97810        4.710      1
    2     5     6     4     1    121.02273        3.999      1
    2     5     6     8     1     56.72369        5.485      1
    3     2     5     4     1     84.98436        5.540      1
    3     2     5     6     1    162.98610        3.986      1
    3     2     5    12     1   -136.72552       20.187      1
    3     4     5     6     1    135.02181        2.453      1
    3     4     5    12     1     65.83413       13.614      1
    3     4     6     5     1   -109.01033        4.004      1
    3     4     6     8     1     -0.01274        6.318      1
    3     4     7     8     1   -126.02414        9.342      1
    3     5     4     6     1   -135.02181        2.453      1
    3     5     4     7     1    -93.98186        6.336      1
    3     5     6     4     1    105.01315        3.991      1
    3     5     6     8     1     40.90769        5.527      1
    3     6     4     5     1    109.01033        4.004      1
    3     6     4     7     1    -24.10463        7.825      1
    3     6     5     4     1   -105.01315        3.991      1
    3     6     5    12     1     37.01429       14.388      1
    3     6     8     7     1   -148.06108        7.812      1
    3     6     8     9     1    -31.47531       12.196      1
    3     6     8    10     1     33.13272       10.025      1
    4     3     2     5     1   -126.98630        3.973      1
    4     3     5     6     1    -89.03423        4.017      1
    4     3     5    12     1    -46.84688       15.698      1
    4     3     6     5     1    123.96426        3.175      1
    4     3     6     8     1    179.99523        7.802      1
    4     5     3     6     1     89.03423        4.017      1
    4     5     6     8     1    115.00565        4.001      1
    4     6     3     5     1   -123.96426        3.175      1
    4     6     5    12     1    -38.01573       13.693      1
    4     6     8     7     1   -149.02684        5.571      1
    4     6     8     9     1    -31.63423       10.746      1
    4     6     8    10     1     33.41437        9.951      1
    4     7     8     6     1    133.96338        6.353      1
    4     7     8     9     1    -20.11868        9.321      1
    4     7     8    10     1    176.47368       16.505      1
    5     2     3     6     1   -104.75548       12.894      1
    5     3     4     6     1     96.02619        4.737      1
    5     3     4     7     1     76.96218        5.566      1
    5     3     6     8     1   -123.61555        7.770      1
    5     4     3     6     1    -96.02619        4.737      1
    5     4     6     8     1    -71.00420        4.055      1
    5     4     7     8     1    178.98681       10.027      1
    5     6     4     7     1     47.07744        7.070      1
    5     6     8     7     1   -106.82078        7.024      1
    5     6     8     9     1      9.43108       11.451      1
    5     6     8    10     1     76.08942       10.681      1
    6     3     4     7     1    159.81188        6.310      1
    6     3     5    12     1   -137.32851       14.313      1
    6     4     5    12     1    110.80054       14.304      1
    6     4     7     8     1   -140.95071        7.044      1
    6     5     4     7     1   -139.89471        6.320      1
    6     8     9    10     1   -112.29133       13.534      1
    6     8    10     9     1     25.04990       10.024      1
    6     8    10    11     1     26.73586       12.918      1
    7     4     5    12     1    153.03889       12.930      1
    7     4     6     8     1    156.99656        4.043      1
    7     8     9    10     1      2.94214        8.577      1
    7     8    10     9     1    -19.47036       17.260      1
    7     8    10    11     1     -9.84235       16.776      1
    8     6     5    12     1   -102.95753       14.397      1
    8     9    10    11     1      0.94035       11.465      1
    9     8    10    11     1   -179.05114       12.888      1
