[ moleculetype ]
; name        nrexcl
res           1

[ atoms ]
;    nr  type  resnr resid  atom  cgnr     charge       mass
      1 SC4       1 res   C1        1      0.000     54.000
      2 TN4a      1 res   C2        2      0.000     36.000
      3 TN6a      1 res   C3        3      0.000     36.000
      4 SN6       1 res   C4        4      0.000     54.000
      5 SN3r      1 res   C5        5      0.000     54.000
      6 SN4a      1 res   C6        6      0.000     54.000
      7 N4a       1 res   C7        7      0.000     72.000
      8 TC5       1 res   C8        8      0.000     36.000
      9 TC5       1 res   C9        9      0.000     36.000
     10 SN6       1 res   C10      10      0.000     54.000
     11 SN6       1 res   C11      11      0.000     54.000
     12 TN6       1 res   C12      12      0.000     36.000
     13 TN6       1 res   C13      13      0.000     36.000
     14 TN6       1 res   C14      14      0.000     36.000

[ bonds ]
;  ai    aj   funct      b0(nm)          k(kJ/mol/nm^2)
    1     2     1      0.31223          22835.9
    2     3     1      0.27015          75849.9
    2     4     1      0.21437          41339.4
    3     4     1      0.30285          26140.6
    4     5     1      0.35570          27084.5
    5     6     1      0.25255          20692.9
    6     7     1      0.31529          28608.0
    6    12     1      0.29444          79985.7
    6    14     1      0.27261          42435.1
    8     9     1      0.22688          50484.0
    9    10     1      0.29721         163448.3
    9    11     1      0.33939         207275.8
   10    11     1      0.33010         130615.4
   12    13     1      0.23126          38339.6
   13    14     1      0.23527          28879.5

[ angles ]
;  ai    aj    ak  funct     th0(deg)        k(kJ/mol/rad^2)
    1     2     3     1    100.42665            77.91
    1     2     4     1    114.58674            55.77
    2     3     4     1     43.41938          3419.08
    2     4     3     1     60.17915           850.85
    2     4     5     1    108.64890           504.37
    3     2     4     1     76.40148           817.40
    3     4     5     1     53.18628          1144.72
    4     5     6     1    108.44735           251.01
    5     6     7     1    105.35916           180.16
    5     6    12     1    149.34194           279.42
    5     6    14     1    116.60941           371.02
    6    12    13     1     75.92670          2380.77
    6    14    13     1     79.88379          1043.90
    7     6    12     1     55.47080          1172.45
    7     6    14     1    134.35029           449.30
    8     9    10     1    157.15867           949.78
    8     9    11     1     96.30717          1221.16
    9    10    11     1     65.25920         10361.42
    9    11    10     1     52.68504         12538.16
   10     9    11     1     62.05577          6520.51
   12     6    14     1     79.37762          1381.97
   12    13    14     1    102.12422           361.25

[ dihedrals ]
;  ai    aj    ak    al  funct   phi0(deg)        k(kJ/mol)   mult
    1     2     3     4     1    -67.29547       18.417      1
    1     2     3     4     1     45.49771       16.609      2
    1     2     3     4     1    158.50746       13.842      3
    1     2     4     3     1     79.61139       20.252      1
    1     2     4     3     1    -20.50951       17.532      2
    1     2     4     3     1   -119.91978       13.553      3
    1     2     4     5     1     99.36040       26.273      1
    1     2     4     5     1     21.07030       18.554      2
    1     2     4     5     1    -48.65755        9.604      3
    2     3     4     5     1     22.06455       21.762      1
    2     3     4     5     1   -135.86142       18.885      2
    2     3     4     5     1     66.23756       14.601      3
    2     4     5     6     1   -140.34533       24.538      1
    2     4     5     6     1   -101.31267       19.446      2
    2     4     5     6     1    -64.28252       12.553      3
    3     2     4     5     1   -162.91097       17.216      1
    3     2     4     5     1   -145.81429       15.863      2
    3     2     4     5     1   -128.69965       13.750      3
    3     4     5     6     1   -121.65136       14.960      1
    3     4     5     6     1    -63.30017       13.917      2
    3     4     5     6     1     -4.95079       12.282      3
    4     5     6     7     1     80.95710       11.560      1
    4     5     6     7     1    -18.08634       11.175      2
    4     5     6     7     1   -117.13094       10.550      3
    4     5     6    12     1     33.13462       18.765      1
    4     5     6    12     1   -113.40565       16.222      2
    4     5     6    12     1    100.95322       12.586      3
    4     5     6    14     1    -83.03584       14.327      1
    4     5     6    14     1     13.95541       13.545      2
    4     5     6    14     1    111.00564       12.300      3
    5     6    12    13     1     85.94022       16.375      1
    5     6    12    13     1     -8.10171       15.017      2
    5     6    12    13     1   -102.10115       12.937      3
    5     6    14    13     1    -58.13469       12.267      1
    5     6    14    13     1     63.75054       11.781      2
    5     6    14    13     1   -174.32189       10.999      3
    6    12    13    14     1    143.92377       10.715      1
    6    12    13    14     1    107.84494       10.408      2
    6    12    13    14     1     71.76059        9.908      3
    6    14    13    12     1   -140.93872       10.101      1
    6    14    13    12     1   -101.87605        9.848      2
    6    14    13    12     1    -62.81047        9.434      3
    7     6    12    13     1     24.78977       12.161      1
    7     6    12    13     1   -130.09775       11.434      2
    7     6    12    13     1     75.70367       10.317      3
    7     6    14    13     1    147.92416       16.431      1
    7     6    14    13     1    115.84378       15.261      2
    7     6    14    13     1     83.75290       13.423      3
    8     9    10    11     1   -178.34540       26.125      1
    8     9    10    11     1   -176.80260       19.508      2
    8     9    10    11     1   -175.48704       11.051      3
    8     9    11    10     1      0.09913       14.975      1
    8     9    11    10     1   -179.83254       14.021      2
    8     9    11    10     1      0.16924       12.523      3
   12     6    14    13     1    149.03826       10.010      1
   12     6    14    13     1    118.07743        9.762      2
   12     6    14    13     1     87.11850        9.358      3
   13    12     6    14     1   -148.04485       10.739      1
   13    12     6    14     1   -116.09100       10.431      2
   13    12     6    14     1    -84.13991        9.929      3
