1TPCN05580
35
    1res  C1    1    1.143   0.298   0.479
    1res  C2    2    1.081   0.065   0.267
    1res  C3    3    1.044   0.050   0.024
    1res  C4    4    1.088  -0.058  -0.217
    1res  C5    5    0.830  -0.043  -0.114
    1res  C6    6    0.652  -0.259   0.062
    1res  C7    7    0.481   0.032  -0.155
    1res  C8    8    0.398  -0.285  -0.078
    1res  C9    9    0.179  -0.050   0.054
    1res  C10   10    0.036   0.024  -0.161
    1res  C11   11   -0.131  -0.039   0.033
    1res  C12   12   -0.276   0.128   0.155
    1res  C13   13   -0.243   0.463   0.156
    1res  C14   14   -0.489   0.276   0.230
    1res  C15   15   -0.562   0.173   0.071
    1res  C16   16   -0.837   0.239   0.129
    1res  C17   17   -1.087   0.123   0.114
    1res  C18   18   -0.939  -0.066   0.040
    1res  C19   19   -0.834   0.072  -0.090
    1res  C20   20   -0.832   0.232  -0.289
    1res  C21   21   -0.771   0.521  -0.255
    1res  C22   22   -0.840   0.377  -0.521
    1res  C23   23   -0.944   0.185  -0.569
    1res  C24   24   -1.025   0.089  -0.386
    1res  C25   25   -0.480  -0.018   0.043
    1res  C26   26   -0.620  -0.262  -0.019
    1res  C27   27   -0.611  -0.345  -0.261
    1res  C28   28   -0.688  -0.529  -0.004
    1res  C29   29   -0.467  -0.529   0.094
    1res  C30   30   -0.516  -0.313   0.215
    1res  C31   31   -0.095  -0.285  -0.089
    1res  C32   32   -0.105  -0.277   0.184
    1res  C33   33    0.267  -0.271   0.176
    1res  C34   34    0.671  -0.039   0.239
    1res  C35   35    0.733   0.229   0.014
  10.00000  10.00000  10.00000
