[ moleculetype ]
; name        nrexcl
res           1

[ atoms ]
;    nr  type  resnr resid  atom  cgnr     charge       mass
      1 TN3r      1 res   C1        1      0.000     36.000
      2 SN4a      1 res   C2        2      0.000     54.000
      3 SC4       1 res   C3        3      0.000     54.000
      4 TN4a      1 res   C4        4      0.000     36.000
      5 SN6       1 res   C5        5      0.000     54.000
      6 N4a       1 res   C6        6      0.000     72.000
      7 TC5       1 res   C7        7      0.000     36.000
      8 TC5       1 res   C8        8      0.000     36.000
      9 TC5       1 res   C9        9      0.000     36.000
     10 SN4a      1 res   C10      10      0.000     54.000
     11 N4a       1 res   C11      11      0.000     72.000
     12 TC5       1 res   C12      12      0.000     36.000
     13 SN6       1 res   C13      13      0.000     54.000
     14 TC5       1 res   C14      14      0.000     36.000
     15 SP4       1 res   C15      15      0.000     54.000
     16 TN6       1 res   C16      16      0.000     36.000

[ constraints ]
;  ai    aj   funct      b0(nm)
    4     5     1      0.24909
    5    10     1      0.25085
   13    14     1      0.28442
   10    15     1      0.26208
    2     4     1      0.30304
    7     9     1      0.29741
    5     6     1      0.30239
    6     7     1      0.31535
   15    16     1      0.28178
    3     5     1      0.28376
    2     3     1      0.32063
   12    14     1      0.29842
    7     8     1      0.25648
    2     5     1      0.21082
   10    16     1      0.24208
    3     4     1      0.31461
   12    13     1      0.30106
    8     9     1      0.28775

[ bonds ]
;  ai    aj   funct      b0(nm)          k(kJ/mol/nm^2)
    1     2     1      0.34665           6507.5
   10    11     1      0.32485           5290.2
   11    12     1      0.33537           8439.5

[ angles ]
;  ai    aj    ak  funct     th0(deg)        k(kJ/mol/rad^2)
    1     2     3     1     96.15212            73.35
    1     2     4     1     83.60810           453.21
    1     2     5     1    136.73536           259.32
    2     3     4     1     56.97442          9122.90
    2     3     5     1     40.24549         12765.30
    2     4     3     1     62.51648          5658.41
    2     4     5     1     43.53525         10657.23
    2     5     3     1     79.33125          3686.99
    2     5     4     1     81.98769          3853.03
    2     5     6     1     96.15988           634.81
    2     5    10     1    110.04611           750.15
    3     2     4     1     60.50911          7114.05
    3     2     5     1     60.42321          4412.41
    3     4     5     1     59.08987          5326.90
    3     5     4     1     72.04303          4183.06
    3     5     6     1    152.45430           861.38
    3     5    10     1    112.32596           441.48
    4     2     5     1     54.47703          4507.30
    4     3     5     1     48.86709          4731.04
    4     5     6     1     80.74182           995.14
    4     5    10     1    166.68563           604.12
    5     6     7     1    135.95709           228.12
    5    10    11     1    103.37530           425.80
    5    10    15     1    107.60134           284.76
    5    10    16     1    118.39273           678.02
    6     5    10     1     94.51698           269.83
    6     7     8     1    158.56025          1052.10
    6     7     9     1     97.37516          1511.24
    7     8     9     1     65.96137          7138.35
    7     9     8     1     51.95997          7626.75
    8     7     9     1     62.07868          6866.81
   10    11    12     1    126.61783            42.38
   10    15    16     1     52.71455          2585.67
   10    16    15     1     59.47398          2669.67
   11    10    15     1     83.02626           633.05
   11    10    16     1    133.86732           336.47
   11    12    13     1    146.00973           110.38
   11    12    14     1     90.22118           108.59
   12    13    14     1     61.21318          8600.86
   12    14    13     1     62.14805          7191.54
   13    12    14     1     56.63876          9984.40
   15    10    16     1     67.81153          2482.31

[ dihedrals ]
;  ai    aj    ak    al  funct   phi0(deg)        k(kJ/mol)   mult
    1     2     3     4     1    100.04069        6.319      1
    1     2     3     5     1     37.02785        7.082      1
    1     2     4     3     1    -80.99687       14.304      1
    1     2     4     5     1     -7.97587       15.090      1
    1     2     5     3     1   -115.00602       19.807      1
    1     2     5     4     1    171.16110       18.465      1
    1     2     5     6     1     92.77833       18.421      1
    1     2     5    10     1     -5.05761       18.980      1
    2     3     4     5     1    129.07109        2.427      1
    2     3     5     4     1    -94.67517        3.974      1
    2     3     5     6     1    -97.97490       15.089      1
    2     3     5    10     1     71.09116        8.489      1
    2     4     3     5     1   -129.07109        2.427      1
    2     4     5     3     1     98.98175        3.986      1
    2     4     5     6     1    -82.96157        7.089      1
    2     4     5    10     1    -11.39612       25.441      1
    2     5     3     4     1     94.67517        3.974      1
    2     5     4     3     1    -98.98175        3.986      1
    2     5     6     7     1   -112.88463       25.379      1
    2     5    10    11     1   -127.07373        8.577      1
    2     5    10    15     1    -39.98650       10.745      1
    2     5    10    16     1     34.01732       10.770      1
    3     2     4     5     1   -106.04071        4.701      1
    3     2     5     4     1    106.97000        3.956      1
    3     2     5     6     1     27.20393        7.016      1
    3     2     5    10     1    -70.13636        9.280      1
    3     4     2     5     1    106.04071        4.701      1
    3     4     5     6     1     -1.01793        8.562      1
    3     4     5    10     1     67.61010       26.193      1
    3     5     2     4     1   -106.97000        3.956      1
    3     5     6     7     1    167.75534       24.013      1
    3     5    10    11     1    -37.28735       10.027      1
    3     5    10    15     1     46.17289       10.764      1
    3     5    10    16     1    121.92989       12.206      1
    4     2     3     5     1    116.96223        4.019      1
    4     2     5     6     1    100.01590        6.321      1
    4     2     5    10     1      1.94329        9.275      1
    4     3     2     5     1   -116.96223        4.019      1
    4     3     5     6     1    176.26405       15.066      1
    4     3     5    10     1    -13.73984        9.226      1
    4     5     6     7     1    165.80866       24.707      1
    4     5    10    11     1     67.99752       25.955      1
    4     5    10    15     1    154.75529       27.188      1
    4     5    10    16     1   -131.86460       26.586      1
    5     6     7     8     1    -17.64333       29.383      1
    5     6     7     9     1    -16.13455       20.935      1
    5    10    11    12     1   -145.76372       23.983      1
    5    10    15    16     1    -65.96447        9.279      1
    5    10    16    15     1     78.99583       12.916      1
    6     5    10    11     1    136.01469        7.795      1
    6     5    10    15     1   -139.72487       10.712      1
    6     5    10    16     1    -63.04761       11.469      1
    6     7     8     9     1    178.72530       24.743      1
    6     7     9     8     1     -1.85796       12.226      1
    7     6     5    10     1     -2.31813       26.406      1
   10    11    12    13     1    -43.57399        7.300      1
   10    11    12    14     1    -16.10968        5.522      1
   11    10    15    16     1     33.34863       12.865      1
   11    10    16    15     1   -128.73956       12.168      1
   11    12    13    14     1   -176.66269       21.227      1
   11    12    14    13     1      2.05339       15.009      1
   12    11    10    15     1    108.64942       27.349      1
   12    11    10    16     1     55.86691       28.491      1
