[ moleculetype ]
; name        nrexcl
res           1

[ atoms ]
;    nr  type resnr resid  atom  cgnr     charge       mass
      1 SC4       1 res   C1        1      0.000     54.000
      2 SN6a      1 res   C2        2      0.000     54.000
      3 SC4       1 res   C3        3      0.000     54.000
      4 TN6       1 res   C4        4      0.000     36.000
      5 TP1       1 res   C5        5      0.000     36.000

[ bonds ]
;  ai    aj   funct      b0(nm)        k
    1     2     1      0.39248    20000
    1     4     1      0.28313    20000
    2     3     1      0.29043    20000
    3     4     1      0.27553    20000
    4     5     1      0.24320    20000
