[ moleculetype ]
; name        nrexcl
res           1

[ atoms ]
;    nr  type resnr resid  atom  cgnr     charge       mass
      1 SC4       1 res   C1        1      0.000     54.000
      2 TN3r      1 res   C2        2      0.000     36.000
      3 SN4a      1 res   C3        3      0.000     54.000
      4 TP1       1 res   C4        4      0.000     36.000
      5 TN6       1 res   C5        5      0.000     36.000
      6 TN6       1 res   C6        6      0.000     36.000
      7 TN6       1 res   C7        7      0.000     36.000
      8 TC3       1 res   C8        8      0.000     36.000
      9 TC5       1 res   C9        9      0.000     36.000
     10 SP2       1 res   C10      10      0.000     54.000
     11 TC3       1 res   C11      11      0.000     36.000
     12 SC4       1 res   C12      12      0.000     54.000
     13 TC3       1 res   C13      13      0.000     36.000
     14 SC4       1 res   C14      14      0.000     54.000
     15 SC4       1 res   C15      15      0.000     54.000
     16 SN6       1 res   C16      16      0.000     54.000
     17 TN6       1 res   C17      17      0.000     36.000
     18 TC4       1 res   C18      18      0.000     36.000
     19 TP1       1 res   C19      19      0.000     36.000
     20 TC3       1 res   C20      20      0.000     36.000

[ bonds ]
;  ai    aj   funct      b0(nm)        k
    1     2     1      0.25929    20000
    1     8     1      0.30783    20000
    1     9     1      0.32566    20000
    2     3     1      0.27750    20000
    3     4     1      0.32006    20000
    3     5     1      0.29271    20000
    3     7     1      0.26921    20000
    5     6     1      0.21913    20000
    6     7     1      0.23828    20000
    8     9     1      0.26839    20000
    9    10     1      0.33209    20000
    9    11     1      0.26489    20000
    9    12     1      0.29345    20000
   11    12     1      0.27880    20000
   12    13     1      0.34082    20000
   12    14     1      0.31237    20000
   13    14     1      0.27918    20000
   14    15     1      0.37396    20000
   14    20     1      0.28354    20000
   15    16     1      0.31528    20000
   15    18     1      0.33024    20000
   15    20     1      0.36135    20000
   16    17     1      0.26624    20000
   17    18     1      0.30212    20000
   18    19     1      0.28599    20000
