[ moleculetype ]
; name        nrexcl
res           1

[ atoms ]
;    nr  type  resnr resid  atom  cgnr     charge       mass
      1 SN4a      1 res   C1        1      0.000     54.000
      2 TC3       1 res   C2        2      0.000     36.000
      3 TC3       1 res   C3        3      0.000     36.000
      4 SN6d      1 res   C4        4      0.000     54.000
      5 TN6d      1 res   C5        5      0.000     36.000
      6 TC5       1 res   C6        6      0.000     36.000
      7 TC5       1 res   C7        7      0.000     36.000
      8 TC5       1 res   C8        8      0.000     36.000
      9 SC3       1 res   C9        9      0.000     54.000
     10 SC4       1 res   C10      10      0.000     54.000
     11 TN4a      1 res   C11      11      0.000     36.000

[ constraints ]
;  ai    aj   funct      b0(nm)
   10    11     1      0.29748
    4     9     1      0.26547
    2     3     1      0.24553
    4     5     1      0.24115
    6     9     1      0.33084
    2     9     1      0.24605
    6     8     1      0.24860
    3     4     1      0.24756
    3    10     1      0.36349
    5     6     1      0.18000
    7     8     1      0.28950
    4    10     1      0.33708
    6     7     1      0.24808

[ bonds ]
;  ai    aj   funct      b0(nm)          k(kJ/mol/nm^2)
    1     2     1      0.32260           8518.3

[ angles ]
;  ai    aj    ak  funct     th0(deg)        k(kJ/mol/rad^2)
    1     2     3     1    135.81267           160.70
    1     2     9     1    115.75731           159.94
    2     3     4     1     78.25728          2934.73
    2     3    10     1     86.34288          1650.31
    2     9     4     1     74.82931          3136.91
    2     9     6     1     80.58321          1261.10
    3     2     9     1    104.26017          1982.33
    3     4     5     1    108.62814           394.08
    3     4     9     1     98.21733          3701.95
    3     4    10     1     75.15063          2644.29
    3    10     4     1     41.16252          8976.38
    3    10    11     1     53.48559          1283.04
    4     3    10     1     63.68678          2751.24
    4     5     6     1    112.97634          2939.83
    4     9     6     1     71.58448          4324.86
    4    10    11     1     89.11127           615.75
    5     4     9     1     89.55311          2155.29
    5     4    10     1    167.89110           789.16
    5     6     7     1    101.84928          1725.79
    5     6     8     1    171.27733          1020.17
    5     6     9     1     83.14263          2276.95
    6     7     8     1     54.43263          9270.32
    6     8     7     1     54.26413          9726.73
    7     6     8     1     71.30324         10696.67
    7     6     9     1    159.41222           168.30
    8     6     9     1    103.30065           693.99
    9     4    10     1     79.24046          1865.30

[ dihedrals ]
;  ai    aj    ak    al  funct   phi0(deg)        k(kJ/mol)   mult
    1     2     3     4     1    -36.09058       23.402      1
    1     2     3    10     1     28.44628       23.238      1
    1     2     9     4     1     28.01846       17.833      1
    1     2     9     6     1    100.97115       17.174      1
    2     3     4     5     1    102.99777        5.534      1
    2     3     4     9     1   -164.03063        4.771      1
    2     3     4    10     1    -87.98654        6.272      1
    2     3    10     4     1    101.02577        5.489      1
    2     3    10    11     1    -45.08978       10.009      1
    2     9     4     3     1    164.03440        4.779      1
    2     9     4     5     1    -85.12189        8.549      1
    2     9     4    10     1     90.08053        4.783      1
    2     9     6     5     1     91.63458        7.809      1
    2     9     6     7     1    -22.08454       17.280      1
    2     9     6     8     1    -87.97229       12.216      1
    3     2     9     4     1   -163.03958        5.488      1
    3     2     9     6     1    -90.97071        5.551      1
    3     4     5     6     1    -97.18946       11.463      1
    3     4     9     6     1     80.18511        6.307      1
    3     4    10    11     1   -153.95071        9.224      1
    3    10     4     5     1    -73.65720       24.663      1
    3    10     4     9     1    -77.10468        3.983      1
    4     3     2     9     1    162.04066        6.258      1
    4     3    10    11     1     33.09559       11.481      1
    4     5     6     7     1     -6.23689       13.653      1
    4     5     6     8     1     -0.06346       29.797      1
    4     5     6     9     1   -166.06274        9.259      1
    4     9     6     5     1    168.03882        7.782      1
    4     9     6     7     1     54.57459       17.318      1
    4     9     6     8     1    -10.96261       11.520      1
    5     4     3    10     1     11.93053        6.285      1
    5     4     9     6     1   -171.96416        6.274      1
    5     4    10    11     1    -49.90188       25.339      1
    5     6     7     8     1     -1.00115       10.087      1
    5     6     8     7     1    177.14362       32.040      1
    6     5     4     9     1    163.18745       10.036      1
    6     5     4    10     1    161.33731       28.903      1
    6     9     4    10     1      6.03642        6.340      1
    7     8     6     9     1    -19.81460       12.235      1
    8     7     6     9     1    106.28757       17.961      1
    9     2     3    10     1   -133.97315        6.273      1
    9     4     3    10     1    104.90264        5.514      1
    9     4    10    11     1    -52.87858        8.538      1
