Generated with MDTraj, t= 0.0
 53
    1UNL     C1    1   0.007   0.331   0.185
    1UNL     O1    2   0.022   0.223   0.097
    1UNL     C2    3  -0.040   0.238  -0.027
    1UNL     C3    4  -0.113   0.351  -0.065
    1UNL     C4    5  -0.174   0.360  -0.189
    1UNL     C5    6  -0.250   0.483  -0.226
    1UNL     C6    7  -0.160   0.255  -0.278
    1UNL     C7    8  -0.087   0.143  -0.243
    1UNL     C8    9  -0.027   0.134  -0.120
    1UNL     C9   10   0.050   0.008  -0.083
    1UNL     O2   11   0.065  -0.079  -0.195
    1UNL    C10   12  -0.026  -0.067   0.028
    1UNL     O3   13  -0.150  -0.114  -0.017
    1UNL    C11   14  -0.208  -0.187   0.083
    1UNL     O4   15  -0.158  -0.208   0.191
    1UNL    C12   16  -0.345  -0.242   0.052
    1UNL    C13   17  -0.352  -0.390   0.089
    1UNL    C14   18  -0.450  -0.160   0.125
    1UNL    C15   19   0.191   0.041  -0.034
    1UNL     O5   20   0.260  -0.077  -0.008
    1UNL    C16   21   0.386  -0.047   0.036
    1UNL     O6   22   0.430   0.065   0.047
    1UNL    C17   23   0.473  -0.166   0.071
    1UNL    C18   24   0.408  -0.246   0.183
    1UNL    C19   25   0.500  -0.249  -0.053
    1UNL     H1   26   0.051   0.421   0.141
    1UNL     H2   27   0.059   0.308   0.278
    1UNL     H3   28  -0.099   0.347   0.207
    1UNL     H4   29  -0.124   0.433   0.004
    1UNL     H5   30  -0.183   0.561  -0.261
    1UNL     H6   31  -0.322   0.462  -0.305
    1UNL     H7   32  -0.305   0.522  -0.141
    1UNL     H8   33  -0.206   0.262  -0.375
    1UNL     H9   34  -0.077   0.061  -0.312
    1UNL    H10   35   0.126  -0.151  -0.168
    1UNL    H11   36   0.032  -0.153   0.063
    1UNL    H12   37  -0.044  -0.001   0.114
    1UNL    H13   38  -0.360  -0.232  -0.057
    1UNL    H14   39  -0.277  -0.448   0.035
    1UNL    H15   40  -0.450  -0.432   0.068
    1UNL    H16   41  -0.332  -0.402   0.196
    1UNL    H17   42  -0.551  -0.196   0.104
    1UNL    H18   43  -0.445  -0.055   0.096
    1UNL    H19   44  -0.435  -0.165   0.232
    1UNL    H20   45   0.247   0.096  -0.110
    1UNL    H21   46   0.189   0.101   0.058
    1UNL    H22   47   0.568  -0.124   0.108
    1UNL    H23   48   0.390  -0.185   0.271
    1UNL    H24   49   0.469  -0.331   0.212
    1UNL    H25   50   0.311  -0.285   0.150
    1UNL    H26   51   0.407  -0.289  -0.093
    1UNL    H27   52   0.565  -0.334  -0.031
    1UNL    H28   53   0.547  -0.190  -0.131
   0.00000   0.00000   0.00000   0.00000   0.00000   0.00000   0.00000   0.00000   0.00000
Generated with MDTraj, t= 1.0
 53
    1UNL     C1    1   0.018   0.333   0.181
    1UNL     O1    2  -0.001   0.220   0.095
    1UNL     C2    3  -0.057   0.240  -0.030
    1UNL     C3    4  -0.120   0.361  -0.068
    1UNL     C4    5  -0.172   0.375  -0.196
    1UNL     C5    6  -0.239   0.500  -0.242
    1UNL     C6    7  -0.142   0.274  -0.288
    1UNL     C7    8  -0.070   0.166  -0.253
    1UNL     C8    9  -0.034   0.137  -0.121
    1UNL     C9   10   0.044   0.015  -0.087
    1UNL     O2   11   0.074  -0.063  -0.212
    1UNL    C10   12  -0.029  -0.064   0.019
    1UNL     O3   13  -0.151  -0.118  -0.021
    1UNL    C11   14  -0.198  -0.194   0.081
    1UNL     O4   15  -0.133  -0.215   0.183
    1UNL    C12   16  -0.333  -0.258   0.063
    1UNL    C13   17  -0.329  -0.413   0.089
    1UNL    C14   18  -0.431  -0.191   0.161
    1UNL    C15   19   0.183   0.047  -0.035
    1UNL     O5   20   0.256  -0.074  -0.012
    1UNL    C16   21   0.379  -0.050   0.042
    1UNL     O6   22   0.426   0.060   0.067
    1UNL    C17   23   0.457  -0.171   0.074
    1UNL    C18   24   0.403  -0.239   0.199
    1UNL    C19   25   0.449  -0.274  -0.049
    1UNL     H1   26   0.072   0.410   0.127
    1UNL     H2   27   0.066   0.316   0.278
    1UNL     H3   28  -0.082   0.368   0.202
    1UNL     H4   29  -0.125   0.438   0.008
    1UNL     H5   30  -0.322   0.521  -0.176
    1UNL     H6   31  -0.166   0.578  -0.221
    1UNL     H7   32  -0.271   0.496  -0.347
    1UNL     H8   33  -0.173   0.288  -0.389
    1UNL     H9   34  -0.036   0.106  -0.341
    1UNL    H10   35   0.076  -0.156  -0.178
    1UNL    H11   36   0.030  -0.138   0.067
    1UNL    H12   37  -0.049  -0.000   0.108
    1UNL    H13   38  -0.364  -0.235  -0.038
    1UNL    H14   39  -0.261  -0.453   0.024
    1UNL    H15   40  -0.438  -0.456   0.090
    1UNL    H16   41  -0.294  -0.423   0.188
    1UNL    H17   42  -0.534  -0.220   0.159
    1UNL    H18   43  -0.440  -0.082   0.155
    1UNL    H19   44  -0.402  -0.207   0.263
    1UNL    H20   45   0.230   0.120  -0.107
    1UNL    H21   46   0.181   0.097   0.066
    1UNL    H22   47   0.564  -0.161   0.081
    1UNL    H23   48   0.414  -0.186   0.289
    1UNL    H24   49   0.440  -0.342   0.205
    1UNL    H25   50   0.292  -0.240   0.204
    1UNL    H26   51   0.381  -0.224  -0.116
    1UNL    H27   52   0.419  -0.370  -0.009
    1UNL    H28   53   0.547  -0.278  -0.097
   0.00000   0.00000   0.00000   0.00000   0.00000   0.00000   0.00000   0.00000   0.00000
Generated with MDTraj, t= 2.0
 53
    1UNL     C1    1   0.002   0.336   0.175
    1UNL     O1    2  -0.008   0.224   0.098
    1UNL     C2    3  -0.048   0.245  -0.038
    1UNL     C3    4  -0.112   0.359  -0.071
    1UNL     C4    5  -0.151   0.391  -0.201
    1UNL     C5    6  -0.231   0.517  -0.233
    1UNL     C6    7  -0.131   0.297  -0.301
    1UNL     C7    8  -0.074   0.176  -0.260
    1UNL     C8    9  -0.028   0.149  -0.131
    1UNL     C9   10   0.041   0.018  -0.095
    1UNL     O2   11   0.047  -0.071  -0.207
    1UNL    C10   12  -0.026  -0.056   0.015
    1UNL     O3   13  -0.153  -0.110  -0.011
    1UNL    C11   14  -0.181  -0.198   0.087
    1UNL     O4   15  -0.111  -0.226   0.185
    1UNL    C12   16  -0.313  -0.269   0.071
    1UNL    C13   17  -0.301  -0.417   0.069
    1UNL    C14   18  -0.411  -0.221   0.176
    1UNL    C15   19   0.188   0.050  -0.051
    1UNL     O5   20   0.247  -0.076  -0.028
    1UNL    C16   21   0.366  -0.055   0.043
    1UNL     O6   22   0.406   0.059   0.069
    1UNL    C17   23   0.438  -0.183   0.082
    1UNL    C18   24   0.389  -0.233   0.221
    1UNL    C19   25   0.420  -0.293  -0.030
    1UNL     H1   26   0.057   0.419   0.126
    1UNL     H2   27   0.053   0.320   0.272
    1UNL     H3   28  -0.100   0.356   0.208
    1UNL     H4   29  -0.126   0.426   0.010
    1UNL     H5   30  -0.235   0.526  -0.341
    1UNL     H6   31  -0.337   0.513  -0.208
    1UNL     H7   32  -0.191   0.607  -0.184
    1UNL     H8   33  -0.146   0.335  -0.404
    1UNL     H9   34  -0.053   0.091  -0.316
    1UNL    H10   35   0.030  -0.163  -0.179
    1UNL    H11   36   0.041  -0.130   0.049
    1UNL    H12   37  -0.030   0.002   0.110
    1UNL    H13   38  -0.354  -0.229  -0.018
    1UNL    H14   39  -0.233  -0.434  -0.006
    1UNL    H15   40  -0.406  -0.471   0.069
    1UNL    H16   41  -0.258  -0.445   0.159
    1UNL    H17   42  -0.508  -0.263   0.169
    1UNL    H18   43  -0.431  -0.114   0.172
    1UNL    H19   44  -0.371  -0.240   0.274
    1UNL    H20   45   0.244   0.120  -0.124
    1UNL    H21   46   0.180   0.115   0.044
    1UNL    H22   47   0.542  -0.160   0.080
    1UNL    H23   48   0.353  -0.156   0.282
    1UNL    H24   49   0.466  -0.299   0.259
    1UNL    H25   50   0.291  -0.291   0.223
    1UNL    H26   51   0.346  -0.360   0.008
    1UNL    H27   52   0.522  -0.330  -0.047
    1UNL    H28   53   0.383  -0.239  -0.116
   0.00000   0.00000   0.00000   0.00000   0.00000   0.00000   0.00000   0.00000   0.00000
Generated with MDTraj, t= 3.0
 53
    1UNL     C1    1  -0.008   0.324   0.191
    1UNL     O1    2   0.009   0.237   0.084
    1UNL     C2    3  -0.039   0.261  -0.039
    1UNL     C3    4  -0.106   0.377  -0.072
    1UNL     C4    5  -0.145   0.405  -0.203
    1UNL     C5    6  -0.207   0.528  -0.239
    1UNL     C6    7  -0.136   0.299  -0.292
    1UNL     C7    8  -0.088   0.176  -0.256
    1UNL     C8    9  -0.021   0.157  -0.136
    1UNL     C9   10   0.035   0.021  -0.101
    1UNL     O2   11   0.024  -0.076  -0.208
    1UNL    C10   12  -0.028  -0.038   0.019
    1UNL     O3   13  -0.151  -0.100  -0.004
    1UNL    C11   14  -0.181  -0.198   0.085
    1UNL     O4   15  -0.105  -0.225   0.177
    1UNL    C12   16  -0.301  -0.282   0.071
    1UNL    C13   17  -0.274  -0.430   0.048
    1UNL    C14   18  -0.400  -0.253   0.194
    1UNL    C15   19   0.184   0.039  -0.070
    1UNL     O5   20   0.247  -0.085  -0.051
    1UNL    C16   21   0.353  -0.060   0.032
    1UNL     O6   22   0.392   0.051   0.069
    1UNL    C17   23   0.426  -0.185   0.093
    1UNL    C18   24   0.375  -0.218   0.237
    1UNL    C19   25   0.413  -0.303   0.005
    1UNL     H1   26   0.039   0.422   0.164
    1UNL     H2   27   0.019   0.301   0.297
    1UNL     H3   28  -0.115   0.341   0.195
    1UNL     H4   29  -0.137   0.451   0.001
    1UNL     H5   30  -0.204   0.598  -0.158
    1UNL     H6   31  -0.175   0.574  -0.332
    1UNL     H7   32  -0.314   0.504  -0.257
    1UNL     H8   33  -0.168   0.310  -0.391
    1UNL     H9   34  -0.095   0.094  -0.334
    1UNL    H10   35   0.044  -0.160  -0.167
    1UNL    H11   36   0.040  -0.112   0.059
    1UNL    H12   37  -0.026   0.021   0.114
    1UNL    H13   38  -0.350  -0.240  -0.012
    1UNL    H14   39  -0.202  -0.446  -0.031
    1UNL    H15   40  -0.360  -0.492   0.048
    1UNL    H16   41  -0.223  -0.469   0.131
    1UNL    H17   42  -0.503  -0.276   0.170
    1UNL    H18   43  -0.404  -0.151   0.222
    1UNL    H19   44  -0.358  -0.305   0.277
    1UNL    H20   45   0.226   0.109  -0.151
    1UNL    H21   46   0.193   0.110   0.021
    1UNL    H22   47   0.525  -0.149   0.102
    1UNL    H23   48   0.395  -0.146   0.312
    1UNL    H24   49   0.411  -0.319   0.249
    1UNL    H25   50   0.262  -0.212   0.239
    1UNL    H26   51   0.468  -0.385   0.047
    1UNL    H27   52   0.460  -0.268  -0.089
    1UNL    H28   53   0.310  -0.336  -0.012
   0.00000   0.00000   0.00000   0.00000   0.00000   0.00000   0.00000   0.00000   0.00000
Generated with MDTraj, t= 4.0
 53
    1UNL     C1    1  -0.006   0.315   0.190
    1UNL     O1    2   0.031   0.236   0.084
    1UNL     C2    3  -0.026   0.256  -0.044
    1UNL     C3    4  -0.075   0.385  -0.080
    1UNL     C4    5  -0.138   0.404  -0.203
    1UNL     C5    6  -0.201   0.544  -0.248
    1UNL     C6    7  -0.158   0.297  -0.289
    1UNL     C7    8  -0.103   0.178  -0.252
    1UNL     C8    9  -0.035   0.153  -0.136
    1UNL     C9   10   0.034   0.025  -0.102
    1UNL     O2   11   0.033  -0.068  -0.217
    1UNL    C10   12  -0.030  -0.046   0.014
    1UNL     O3   13  -0.150  -0.102  -0.002
    1UNL    C11   14  -0.173  -0.200   0.092
    1UNL     O4   15  -0.098  -0.229   0.183
    1UNL    C12   16  -0.299  -0.284   0.072
    1UNL    C13   17  -0.265  -0.425   0.028
    1UNL    C14   18  -0.385  -0.293   0.202
    1UNL    C15   19   0.186   0.044  -0.074
    1UNL     O5   20   0.240  -0.079  -0.035
    1UNL    C16   21   0.352  -0.057   0.040
    1UNL     O6   22   0.394   0.056   0.056
    1UNL    C17   23   0.408  -0.186   0.103
    1UNL    C18   24   0.339  -0.207   0.244
    1UNL    C19   25   0.384  -0.297   0.015
    1UNL     H1   26   0.059   0.408   0.186
    1UNL     H2   27   0.002   0.270   0.290
    1UNL     H3   28  -0.109   0.343   0.184
    1UNL     H4   29  -0.053   0.479  -0.030
    1UNL     H5   30  -0.288   0.541  -0.311
    1UNL     H6   31  -0.225   0.598  -0.158
    1UNL     H7   32  -0.121   0.604  -0.294
    1UNL     H8   33  -0.202   0.305  -0.392
    1UNL     H9   34  -0.099   0.099  -0.317
    1UNL    H10   35   0.058  -0.158  -0.190
    1UNL    H11   36   0.035  -0.118   0.071
    1UNL    H12   37  -0.033   0.028   0.099
    1UNL    H13   38  -0.357  -0.243  -0.004
    1UNL    H14   39  -0.190  -0.420  -0.053
    1UNL    H15   40  -0.332  -0.496   0.013
    1UNL    H16   41  -0.206  -0.467   0.105
    1UNL    H17   42  -0.460  -0.370   0.195
    1UNL    H18   43  -0.437  -0.206   0.227
    1UNL    H19   44  -0.308  -0.309   0.275
    1UNL    H20   45   0.236   0.085  -0.164
    1UNL    H21   46   0.195   0.125   0.002
    1UNL    H22   47   0.506  -0.156   0.121
    1UNL    H23   48   0.337  -0.121   0.312
    1UNL    H24   49   0.378  -0.301   0.282
    1UNL    H25   50   0.232  -0.212   0.229
    1UNL    H26   51   0.425  -0.291  -0.084
    1UNL    H27   52   0.277  -0.308  -0.005
    1UNL    H28   53   0.420  -0.393   0.049
   0.00000   0.00000   0.00000   0.00000   0.00000   0.00000   0.00000   0.00000   0.00000
Generated with MDTraj, t= 5.0
 53
    1UNL     C1    1   0.015   0.332   0.182
    1UNL     O1    2   0.041   0.246   0.074
    1UNL     C2    3  -0.030   0.263  -0.044
    1UNL     C3    4  -0.078   0.390  -0.082
    1UNL     C4    5  -0.147   0.409  -0.197
    1UNL     C5    6  -0.196   0.542  -0.241
    1UNL     C6    7  -0.164   0.299  -0.284
    1UNL     C7    8  -0.106   0.174  -0.255
    1UNL     C8    9  -0.039   0.158  -0.137
    1UNL     C9   10   0.028   0.023  -0.108
    1UNL     O2   11   0.027  -0.067  -0.213
    1UNL    C10   12  -0.038  -0.039   0.021
    1UNL     O3   13  -0.145  -0.113  -0.010
    1UNL    C11   14  -0.174  -0.202   0.088
    1UNL     O4   15  -0.099  -0.221   0.178
    1UNL    C12   16  -0.295  -0.286   0.071
    1UNL    C13   17  -0.258  -0.420   0.007
    1UNL    C14   18  -0.359  -0.315   0.204
    1UNL    C15   19   0.182   0.037  -0.070
    1UNL     O5   20   0.234  -0.083  -0.027
    1UNL    C16   21   0.350  -0.058   0.041
    1UNL     O6   22   0.405   0.047   0.059
    1UNL    C17   23   0.398  -0.183   0.113
    1UNL    C18   24   0.320  -0.195   0.240
    1UNL    C19   25   0.379  -0.311   0.032
    1UNL     H1   26   0.044   0.438   0.152
    1UNL     H2   27   0.062   0.312   0.278
    1UNL     H3   28  -0.088   0.330   0.207
    1UNL     H4   29  -0.048   0.478  -0.028
    1UNL     H5   30  -0.133   0.614  -0.187
    1UNL     H6   31  -0.177   0.544  -0.347
    1UNL     H7   32  -0.303   0.555  -0.226
    1UNL     H8   33  -0.200   0.314  -0.380
    1UNL     H9   34  -0.098   0.087  -0.329
    1UNL    H10   35   0.042  -0.159  -0.179
    1UNL    H11   36   0.038  -0.099   0.082
    1UNL    H12   37  -0.060   0.030   0.106
    1UNL    H13   38  -0.360  -0.247  -0.000
    1UNL    H14   39  -0.216  -0.410  -0.093
    1UNL    H15   40  -0.345  -0.490   0.003
    1UNL    H16   41  -0.189  -0.470   0.067
    1UNL    H17   42  -0.460  -0.348   0.199
    1UNL    H18   43  -0.366  -0.235   0.275
    1UNL    H19   44  -0.295  -0.386   0.250
    1UNL    H20   45   0.237   0.070  -0.157
    1UNL    H21   46   0.191   0.119  -0.003
    1UNL    H22   47   0.498  -0.169   0.138
    1UNL    H23   48   0.287  -0.096   0.282
    1UNL    H24   49   0.362  -0.262   0.314
    1UNL    H25   50   0.222  -0.224   0.221
    1UNL    H26   51   0.309  -0.291  -0.049
    1UNL    H27   52   0.331  -0.390   0.091
    1UNL    H28   53   0.467  -0.348  -0.020
   0.00000   0.00000   0.00000   0.00000   0.00000   0.00000   0.00000   0.00000   0.00000
Generated with MDTraj, t= 6.0
 53
    1UNL     C1    1   0.047   0.356   0.164
    1UNL     O1    2   0.042   0.244   0.081
    1UNL     C2    3  -0.031   0.268  -0.041
    1UNL     C3    4  -0.093   0.391  -0.079
    1UNL     C4    5  -0.149   0.408  -0.205
    1UNL     C5    6  -0.226   0.531  -0.232
    1UNL     C6    7  -0.149   0.299  -0.293
    1UNL     C7    8  -0.093   0.177  -0.258
    1UNL     C8    9  -0.026   0.160  -0.139
    1UNL     C9   10   0.031   0.026  -0.106
    1UNL     O2   11   0.012  -0.066  -0.218
    1UNL    C10   12  -0.033  -0.040   0.018
    1UNL     O3   13  -0.154  -0.097   0.000
    1UNL    C11   14  -0.176  -0.202   0.093
    1UNL     O4   15  -0.097  -0.227   0.179
    1UNL    C12   16  -0.295  -0.289   0.073
    1UNL    C13   17  -0.253  -0.401  -0.018
    1UNL    C14   18  -0.354  -0.340   0.204
    1UNL    C15   19   0.181   0.040  -0.072
    1UNL     O5   20   0.231  -0.082  -0.029
    1UNL    C16   21   0.346  -0.064   0.047
    1UNL     O6   22   0.401   0.042   0.052
    1UNL    C17   23   0.392  -0.185   0.128
    1UNL    C18   24   0.303  -0.197   0.247
    1UNL    C19   25   0.400  -0.328   0.043
    1UNL     H1   26   0.141   0.418   0.141
    1UNL     H2   27   0.056   0.329   0.268
    1UNL     H3   28  -0.044   0.410   0.176
    1UNL     H4   29  -0.093   0.474  -0.007
    1UNL     H5   30  -0.244   0.539  -0.342
    1UNL     H6   31  -0.315   0.535  -0.173
    1UNL     H7   32  -0.170   0.623  -0.215
    1UNL     H8   33  -0.180   0.313  -0.400
    1UNL     H9   34  -0.103   0.104  -0.331
    1UNL    H10   35   0.068  -0.145  -0.195
    1UNL    H11   36   0.039  -0.118   0.058
    1UNL    H12   37  -0.034   0.019   0.110
    1UNL    H13   38  -0.365  -0.242   0.012
    1UNL    H14   39  -0.216  -0.362  -0.108
    1UNL    H15   40  -0.346  -0.474  -0.038
    1UNL    H16   41  -0.179  -0.456   0.036
    1UNL    H17   42  -0.421  -0.421   0.200
    1UNL    H18   43  -0.414  -0.264   0.254
    1UNL    H19   44  -0.273  -0.358   0.272
    1UNL    H20   45   0.240   0.071  -0.154
    1UNL    H21   46   0.187   0.113   0.001
    1UNL    H22   47   0.490  -0.173   0.159
    1UNL    H23   48   0.312  -0.115   0.325
    1UNL    H24   49   0.309  -0.292   0.297
    1UNL    H25   50   0.204  -0.178   0.221
    1UNL    H26   51   0.333  -0.392   0.101
    1UNL    H27   52   0.498  -0.373   0.034
    1UNL    H28   53   0.343  -0.313  -0.047
   0.00000   0.00000   0.00000   0.00000   0.00000   0.00000   0.00000   0.00000   0.00000
Generated with MDTraj, t= 7.0
 53
    1UNL     C1    1   0.086   0.358   0.140
    1UNL     O1    2   0.031   0.241   0.083
    1UNL     C2    3  -0.032   0.261  -0.047
    1UNL     C3    4  -0.107   0.378  -0.069
    1UNL     C4    5  -0.148   0.395  -0.202
    1UNL     C5    6  -0.228   0.522  -0.233
    1UNL     C6    7  -0.149   0.291  -0.290
    1UNL     C7    8  -0.097   0.166  -0.261
    1UNL     C8    9  -0.029   0.156  -0.142
    1UNL     C9   10   0.032   0.026  -0.095
    1UNL     O2   11   0.016  -0.074  -0.191
    1UNL    C10   12  -0.036  -0.029   0.035
    1UNL     O3   13  -0.154  -0.092   0.004
    1UNL    C11   14  -0.165  -0.199   0.084
    1UNL     O4   15  -0.094  -0.223   0.178
    1UNL    C12   16  -0.288  -0.280   0.062
    1UNL    C13   17  -0.262  -0.389  -0.045
    1UNL    C14   18  -0.346  -0.336   0.195
    1UNL    C15   19   0.183   0.047  -0.070
    1UNL     O5   20   0.225  -0.074  -0.017
    1UNL    C16   21   0.343  -0.061   0.051
    1UNL     O6   22   0.404   0.044   0.060
    1UNL    C17   23   0.381  -0.183   0.133
    1UNL    C18   24   0.289  -0.215   0.242
    1UNL    C19   25   0.394  -0.309   0.037
    1UNL     H1   26   0.113   0.438   0.065
    1UNL     H2   27   0.174   0.309   0.181
    1UNL     H3   28   0.040   0.400   0.224
    1UNL     H4   29  -0.104   0.455   0.003
    1UNL     H5   30  -0.325   0.530  -0.180
    1UNL     H6   31  -0.178   0.615  -0.215
    1UNL     H7   32  -0.267   0.524  -0.335
    1UNL     H8   33  -0.186   0.309  -0.386
    1UNL     H9   34  -0.100   0.077  -0.328
    1UNL    H10   35   0.073  -0.150  -0.158
    1UNL    H11   36   0.029  -0.103   0.085
    1UNL    H12   37  -0.039   0.043   0.114
    1UNL    H13   38  -0.366  -0.221   0.024
    1UNL    H14   39  -0.224  -0.346  -0.134
    1UNL    H15   40  -0.352  -0.452  -0.075
    1UNL    H16   41  -0.186  -0.457   0.010
    1UNL    H17   42  -0.444  -0.370   0.173
    1UNL    H18   43  -0.350  -0.263   0.276
    1UNL    H19   44  -0.282  -0.417   0.223
    1UNL    H20   45   0.226   0.072  -0.163
    1UNL    H21   46   0.198   0.126   0.001
    1UNL    H22   47   0.474  -0.165   0.175
    1UNL    H23   48   0.276  -0.117   0.295
    1UNL    H24   49   0.342  -0.282   0.307
    1UNL    H25   50   0.192  -0.243   0.211
    1UNL    H26   51   0.489  -0.360   0.057
    1UNL    H27   52   0.384  -0.279  -0.066
    1UNL    H28   53   0.320  -0.384   0.066
   0.00000   0.00000   0.00000   0.00000   0.00000   0.00000   0.00000   0.00000   0.00000
Generated with MDTraj, t= 8.0
 53
    1UNL     C1    1   0.107   0.384   0.120
    1UNL     O1    2   0.050   0.255   0.077
    1UNL     C2    3  -0.028   0.270  -0.038
    1UNL     C3    4  -0.092   0.390  -0.089
    1UNL     C4    5  -0.169   0.396  -0.205
    1UNL     C5    6  -0.232   0.521  -0.242
    1UNL     C6    7  -0.171   0.279  -0.285
    1UNL     C7    8  -0.112   0.159  -0.245
    1UNL     C8    9  -0.036   0.157  -0.127
    1UNL     C9   10   0.034   0.027  -0.091
    1UNL     O2   11   0.032  -0.068  -0.202
    1UNL    C10   12  -0.034  -0.033   0.034
    1UNL     O3   13  -0.164  -0.087   0.015
    1UNL    C11   14  -0.186  -0.205   0.091
    1UNL     O4   15  -0.102  -0.247   0.168
    1UNL    C12   16  -0.308  -0.288   0.064
    1UNL    C13   17  -0.287  -0.379  -0.050
    1UNL    C14   18  -0.357  -0.359   0.186
    1UNL    C15   19   0.186   0.050  -0.065
    1UNL     O5   20   0.243  -0.076  -0.026
    1UNL    C16   21   0.347  -0.059   0.060
    1UNL     O6   22   0.398   0.048   0.095
    1UNL    C17   23   0.398  -0.185   0.133
    1UNL    C18   24   0.305  -0.231   0.247
    1UNL    C19   25   0.412  -0.300   0.030
    1UNL     H1   26   0.171   0.437   0.041
    1UNL     H2   27   0.154   0.366   0.215
    1UNL     H3   28   0.037   0.463   0.126
    1UNL     H4   29  -0.064   0.489  -0.047
    1UNL     H5   30  -0.180   0.604  -0.190
    1UNL     H6   31  -0.219   0.532  -0.350
    1UNL     H7   32  -0.335   0.520  -0.203
    1UNL     H8   33  -0.214   0.290  -0.387
    1UNL     H9   34  -0.093   0.084  -0.319
    1UNL    H10   35   0.074  -0.152  -0.178
    1UNL    H11   36   0.033  -0.111   0.067
    1UNL    H12   37  -0.043   0.030   0.118
    1UNL    H13   38  -0.387  -0.220   0.045
    1UNL    H14   39  -0.267  -0.320  -0.141
    1UNL    H15   40  -0.373  -0.435  -0.081
    1UNL    H16   41  -0.199  -0.456  -0.015
    1UNL    H17   42  -0.442  -0.420   0.159
    1UNL    H18   43  -0.389  -0.285   0.258
    1UNL    H19   44  -0.275  -0.416   0.228
    1UNL    H20   45   0.238   0.075  -0.158
    1UNL    H21   46   0.199   0.131   0.009
    1UNL    H22   47   0.489  -0.154   0.172
    1UNL    H23   48   0.288  -0.139   0.303
    1UNL    H24   49   0.367  -0.291   0.310
    1UNL    H25   50   0.206  -0.266   0.211
    1UNL    H26   51   0.475  -0.386   0.062
    1UNL    H27   52   0.434  -0.277  -0.073
    1UNL    H28   53   0.320  -0.361   0.024
   0.00000   0.00000   0.00000   0.00000   0.00000   0.00000   0.00000   0.00000   0.00000
Generated with MDTraj, t= 9.0
 53
    1UNL     C1    1   0.112   0.396   0.112
    1UNL     O1    2   0.078   0.271   0.058
    1UNL     C2    3  -0.014   0.271  -0.052
    1UNL     C3    4  -0.070   0.389  -0.101
    1UNL     C4    5  -0.163   0.385  -0.201
    1UNL     C5    6  -0.229   0.510  -0.253
    1UNL     C6    7  -0.200   0.259  -0.257
    1UNL     C7    8  -0.127   0.147  -0.227
    1UNL     C8    9  -0.037   0.153  -0.124
    1UNL     C9   10   0.032   0.023  -0.080
    1UNL     O2   11   0.037  -0.068  -0.192
    1UNL    C10   12  -0.047  -0.039   0.046
    1UNL     O3   13  -0.159  -0.104   0.005
    1UNL    C11   14  -0.181  -0.212   0.080
    1UNL     O4   15  -0.096  -0.257   0.156
    1UNL    C12   16  -0.316  -0.271   0.055
    1UNL    C13   17  -0.306  -0.360  -0.066
    1UNL    C14   18  -0.365  -0.346   0.181
    1UNL    C15   19   0.179   0.043  -0.051
    1UNL     O5   20   0.238  -0.079  -0.010
    1UNL    C16   21   0.338  -0.054   0.076
    1UNL     O6   22   0.362   0.057   0.126
    1UNL    C17   23   0.415  -0.177   0.123
    1UNL    C18   24   0.334  -0.239   0.242
    1UNL    C19   25   0.429  -0.284   0.007
    1UNL     H1   26   0.140   0.484   0.045
    1UNL     H2   27   0.194   0.367   0.176
    1UNL     H3   28   0.037   0.423   0.181
    1UNL     H4   29  -0.042   0.484  -0.064
    1UNL     H5   30  -0.198   0.529  -0.356
    1UNL     H6   31  -0.336   0.483  -0.256
    1UNL     H7   32  -0.209   0.596  -0.189
    1UNL     H8   33  -0.255   0.271  -0.347
    1UNL     H9   34  -0.141   0.053  -0.277
    1UNL    H10   35   0.060  -0.158  -0.162
    1UNL    H11   36   0.009  -0.108   0.107
    1UNL    H12   37  -0.072   0.044   0.112
    1UNL    H13   38  -0.382  -0.186   0.049
    1UNL    H14   39  -0.288  -0.309  -0.171
    1UNL    H15   40  -0.403  -0.400  -0.091
    1UNL    H16   41  -0.241  -0.448  -0.040
    1UNL    H17   42  -0.461  -0.398   0.164
    1UNL    H18   43  -0.382  -0.292   0.273
    1UNL    H19   44  -0.295  -0.422   0.211
    1UNL    H20   45   0.222   0.094  -0.143
    1UNL    H21   46   0.187   0.107   0.044
    1UNL    H22   47   0.507  -0.147   0.158
    1UNL    H23   48   0.350  -0.186   0.331
    1UNL    H24   49   0.375  -0.336   0.271
    1UNL    H25   50   0.223  -0.231   0.222
    1UNL    H26   51   0.359  -0.369   0.021
    1UNL    H27   52   0.529  -0.316  -0.016
    1UNL    H28   53   0.394  -0.252  -0.093
   0.00000   0.00000   0.00000   0.00000   0.00000   0.00000   0.00000   0.00000   0.00000
Generated with MDTraj, t= 10.0
 53
    1UNL     C1    1   0.109   0.408   0.095
    1UNL     O1    2   0.094   0.281   0.037
    1UNL     C2    3  -0.004   0.277  -0.065
    1UNL     C3    4  -0.081   0.386  -0.110
    1UNL     C4    5  -0.176   0.376  -0.209
    1UNL     C5    6  -0.238   0.503  -0.252
    1UNL     C6    7  -0.207   0.252  -0.253
    1UNL     C7    8  -0.144   0.140  -0.210
    1UNL     C8    9  -0.029   0.149  -0.121
    1UNL     C9   10   0.036   0.023  -0.073
    1UNL     O2   11   0.028  -0.071  -0.180
    1UNL    C10   12  -0.034  -0.047   0.043
    1UNL     O3   13  -0.169  -0.076   0.029
    1UNL    C11   14  -0.190  -0.205   0.077
    1UNL     O4   15  -0.112  -0.281   0.137
    1UNL    C12   16  -0.330  -0.267   0.049
    1UNL    C13   17  -0.317  -0.352  -0.075
    1UNL    C14   18  -0.374  -0.340   0.172
    1UNL    C15   19   0.181   0.047  -0.030
    1UNL     O5   20   0.250  -0.076  -0.006
    1UNL    C16   21   0.345  -0.059   0.092
    1UNL     O6   22   0.357   0.047   0.153
    1UNL    C17   23   0.433  -0.178   0.124
    1UNL    C18   24   0.360  -0.255   0.230
    1UNL    C19   25   0.452  -0.271  -0.001
    1UNL     H1   26   0.175   0.481   0.036
    1UNL     H2   27   0.164   0.395   0.189
    1UNL     H3   28   0.012   0.436   0.129
    1UNL     H4   29  -0.053   0.484  -0.073
    1UNL     H5   30  -0.345   0.483  -0.264
    1UNL     H6   31  -0.242   0.575  -0.167
    1UNL     H7   32  -0.201   0.551  -0.343
    1UNL     H8   33  -0.264   0.243  -0.346
    1UNL     H9   34  -0.180   0.045  -0.251
    1UNL    H10   35   0.088  -0.149  -0.175
    1UNL    H11   36   0.023  -0.144   0.054
    1UNL    H12   37  -0.026   0.006   0.139
    1UNL    H13   38  -0.402  -0.185   0.040
    1UNL    H14   39  -0.306  -0.277  -0.170
    1UNL    H15   40  -0.412  -0.399  -0.107
    1UNL    H16   41  -0.246  -0.423  -0.061
    1UNL    H17   42  -0.481  -0.365   0.178
    1UNL    H18   43  -0.352  -0.292   0.267
    1UNL    H19   44  -0.320  -0.433   0.182
    1UNL    H20   45   0.241   0.090  -0.116
    1UNL    H21   46   0.184   0.122   0.058
    1UNL    H22   47   0.519  -0.138   0.164
    1UNL    H23   48   0.328  -0.195   0.309
    1UNL    H24   49   0.413  -0.332   0.285
    1UNL    H25   50   0.262  -0.287   0.183
    1UNL    H26   51   0.391  -0.232  -0.085
    1UNL    H27   52   0.440  -0.375   0.028
    1UNL    H28   53   0.559  -0.260  -0.023
   0.00000   0.00000   0.00000   0.00000   0.00000   0.00000   0.00000   0.00000   0.00000
Generated with MDTraj, t= 11.0
 53
    1UNL     C1    1   0.111   0.423   0.085
    1UNL     O1    2   0.093   0.291   0.033
    1UNL     C2    3  -0.008   0.273  -0.060
    1UNL     C3    4  -0.086   0.376  -0.105
    1UNL     C4    5  -0.184   0.362  -0.206
    1UNL     C5    6  -0.260   0.479  -0.252
    1UNL     C6    7  -0.208   0.232  -0.248
    1UNL     C7    8  -0.133   0.124  -0.194
    1UNL     C8    9  -0.027   0.144  -0.112
    1UNL     C9   10   0.040   0.018  -0.063
    1UNL     O2   11   0.021  -0.087  -0.156
    1UNL    C10   12  -0.029  -0.030   0.070
    1UNL     O3   13  -0.157  -0.068   0.037
    1UNL    C11   14  -0.193  -0.198   0.064
    1UNL     O4   15  -0.116  -0.276   0.115
    1UNL    C12   16  -0.327  -0.247   0.034
    1UNL    C13   17  -0.335  -0.338  -0.094
    1UNL    C14   18  -0.379  -0.319   0.163
    1UNL    C15   19   0.189   0.041  -0.032
    1UNL     O5   20   0.265  -0.074  -0.010
    1UNL    C16   21   0.347  -0.056   0.095
    1UNL     O6   22   0.365   0.045   0.158
    1UNL    C17   23   0.428  -0.179   0.125
    1UNL    C18   24   0.346  -0.280   0.212
    1UNL    C19   25   0.473  -0.255   0.000
    1UNL     H1   26   0.168   0.491   0.009
    1UNL     H2   27   0.189   0.413   0.162
    1UNL     H3   28   0.025   0.458   0.139
    1UNL     H4   29  -0.064   0.478  -0.075
    1UNL     H5   30  -0.271   0.545  -0.165
    1UNL     H6   31  -0.205   0.547  -0.321
    1UNL     H7   32  -0.359   0.463  -0.292
    1UNL     H8   33  -0.286   0.215  -0.319
    1UNL     H9   34  -0.139   0.030  -0.244
    1UNL    H10   35   0.084  -0.160  -0.138
    1UNL    H11   36   0.027  -0.120   0.109
    1UNL    H12   37  -0.024   0.050   0.149
    1UNL    H13   38  -0.390  -0.157   0.018
    1UNL    H14   39  -0.281  -0.292  -0.184
    1UNL    H15   40  -0.444  -0.348  -0.127
    1UNL    H16   41  -0.305  -0.432  -0.069
    1UNL    H17   42  -0.464  -0.380   0.134
    1UNL    H18   43  -0.407  -0.251   0.245
    1UNL    H19   44  -0.296  -0.380   0.203
    1UNL    H20   45   0.215   0.083  -0.132
    1UNL    H21   46   0.206   0.113   0.056
    1UNL    H22   47   0.507  -0.143   0.180
    1UNL    H23   48   0.288  -0.245   0.293
    1UNL    H24   49   0.412  -0.350   0.263
    1UNL    H25   50   0.268  -0.329   0.148
    1UNL    H26   51   0.395  -0.321  -0.038
    1UNL    H27   52   0.566  -0.303   0.038
    1UNL    H28   53   0.500  -0.173  -0.067
   0.00000   0.00000   0.00000   0.00000   0.00000   0.00000   0.00000   0.00000   0.00000
Generated with MDTraj, t= 12.0
 53
    1UNL     C1    1   0.123   0.411   0.078
    1UNL     O1    2   0.082   0.278   0.039
    1UNL     C2    3  -0.015   0.262  -0.061
    1UNL     C3    4  -0.088   0.371  -0.112
    1UNL     C4    5  -0.192   0.345  -0.201
    1UNL     C5    6  -0.280   0.458  -0.245
    1UNL     C6    7  -0.223   0.218  -0.251
    1UNL     C7    8  -0.135   0.119  -0.207
    1UNL     C8    9  -0.042   0.133  -0.108
    1UNL     C9   10   0.038   0.017  -0.053
    1UNL     O2   11   0.033  -0.091  -0.141
    1UNL    C10   12  -0.023  -0.021   0.086
    1UNL     O3   13  -0.155  -0.052   0.075
    1UNL    C11   14  -0.172  -0.190   0.062
    1UNL     O4   15  -0.087  -0.276   0.077
    1UNL    C12   16  -0.318  -0.216   0.027
    1UNL    C13   17  -0.325  -0.306  -0.093
    1UNL    C14   18  -0.391  -0.289   0.139
    1UNL    C15   19   0.187   0.044  -0.036
    1UNL     O5   20   0.249  -0.079   0.004
    1UNL    C16   21   0.345  -0.060   0.101
    1UNL     O6   22   0.365   0.048   0.150
    1UNL    C17   23   0.432  -0.187   0.134
    1UNL    C18   24   0.330  -0.303   0.191
    1UNL    C19   25   0.491  -0.236   0.011
    1UNL     H1   26   0.138   0.468  -0.021
    1UNL     H2   27   0.226   0.404   0.113
    1UNL     H3   28   0.060   0.460   0.148
    1UNL     H4   29  -0.065   0.474  -0.102
    1UNL     H5   30  -0.216   0.543  -0.268
    1UNL     H6   31  -0.335   0.435  -0.337
    1UNL     H7   32  -0.351   0.481  -0.163
    1UNL     H8   33  -0.284   0.204  -0.340
    1UNL     H9   34  -0.140   0.020  -0.253
    1UNL    H10   35   0.083  -0.170  -0.115
    1UNL    H11   36   0.036  -0.102   0.135
    1UNL    H12   37  -0.015   0.073   0.148
    1UNL    H13   38  -0.374  -0.125  -0.008
    1UNL    H14   39  -0.289  -0.252  -0.173
    1UNL    H15   40  -0.428  -0.356  -0.115
    1UNL    H16   41  -0.262  -0.390  -0.069
    1UNL    H17   42  -0.499  -0.278   0.125
    1UNL    H18   43  -0.354  -0.236   0.230
    1UNL    H19   44  -0.354  -0.394   0.149
    1UNL    H20   45   0.241   0.077  -0.124
    1UNL    H21   46   0.184   0.114   0.050
    1UNL    H22   47   0.501  -0.155   0.204
    1UNL    H23   48   0.297  -0.295   0.296
    1UNL    H24   49   0.382  -0.398   0.193
    1UNL    H25   50   0.239  -0.302   0.134
    1UNL    H26   51   0.413  -0.261  -0.060
    1UNL    H27   52   0.550  -0.326   0.029
    1UNL    H28   53   0.552  -0.152  -0.028
   0.00000   0.00000   0.00000   0.00000   0.00000   0.00000   0.00000   0.00000   0.00000
Generated with MDTraj, t= 13.0
 53
    1UNL     C1    1   0.124   0.417   0.066
    1UNL     O1    2   0.080   0.284   0.042
    1UNL     C2    3  -0.019   0.256  -0.047
    1UNL     C3    4  -0.106   0.359  -0.102
    1UNL     C4    5  -0.202   0.336  -0.195
    1UNL     C5    6  -0.281   0.450  -0.249
    1UNL     C6    7  -0.218   0.208  -0.240
    1UNL     C7    8  -0.129   0.109  -0.200
    1UNL     C8    9  -0.029   0.129  -0.103
    1UNL     C9   10   0.038   0.010  -0.048
    1UNL     O2   11   0.018  -0.101  -0.140
    1UNL    C10   12  -0.020  -0.017   0.101
    1UNL     O3   13  -0.157  -0.045   0.097
    1UNL    C11   14  -0.180  -0.170   0.057
    1UNL     O4   15  -0.088  -0.246   0.045
    1UNL    C12   16  -0.321  -0.209   0.028
    1UNL    C13   17  -0.309  -0.296  -0.103
    1UNL    C14   18  -0.394  -0.286   0.140
    1UNL    C15   19   0.192   0.037  -0.038
    1UNL     O5   20   0.255  -0.084  -0.013
    1UNL    C16   21   0.345  -0.061   0.091
    1UNL     O6   22   0.367   0.044   0.145
    1UNL    C17   23   0.426  -0.185   0.136
    1UNL    C18   24   0.315  -0.297   0.168
    1UNL    C19   25   0.525  -0.244   0.038
    1UNL     H1   26   0.174   0.438  -0.033
    1UNL     H2   27   0.203   0.421   0.139
    1UNL     H3   28   0.045   0.485   0.081
    1UNL     H4   29  -0.101   0.457  -0.056
    1UNL     H5   30  -0.261   0.449  -0.357
    1UNL     H6   31  -0.386   0.425  -0.231
    1UNL     H7   32  -0.252   0.547  -0.202
    1UNL     H8   33  -0.276   0.186  -0.330
    1UNL     H9   34  -0.136   0.013  -0.242
    1UNL    H10   35   0.044  -0.187  -0.098
    1UNL    H11   36   0.038  -0.106   0.134
    1UNL    H12   37   0.001   0.064   0.175
    1UNL    H13   38  -0.379  -0.120  -0.011
    1UNL    H14   39  -0.264  -0.242  -0.177
    1UNL    H15   40  -0.403  -0.343  -0.137
    1UNL    H16   41  -0.248  -0.392  -0.082
    1UNL    H17   42  -0.495  -0.316   0.105
    1UNL    H18   43  -0.414  -0.225   0.231
    1UNL    H19   44  -0.338  -0.373   0.183
    1UNL    H20   45   0.210   0.066  -0.138
    1UNL    H21   46   0.217   0.104   0.043
    1UNL    H22   47   0.475  -0.153   0.220
    1UNL    H23   48   0.228  -0.276   0.237
    1UNL    H24   49   0.366  -0.383   0.211
    1UNL    H25   50   0.268  -0.314   0.076
    1UNL    H26   51   0.495  -0.224  -0.063
    1UNL    H27   52   0.534  -0.355   0.030
    1UNL    H28   53   0.621  -0.194   0.043
   0.00000   0.00000   0.00000   0.00000   0.00000   0.00000   0.00000   0.00000   0.00000
Generated with MDTraj, t= 14.0
 53
    1UNL     C1    1   0.117   0.414   0.070
    1UNL     O1    2   0.077   0.289   0.043
    1UNL     C2    3  -0.018   0.266  -0.062
    1UNL     C3    4  -0.099   0.368  -0.109
    1UNL     C4    5  -0.199   0.344  -0.198
    1UNL     C5    6  -0.281   0.457  -0.242
    1UNL     C6    7  -0.223   0.215  -0.242
    1UNL     C7    8  -0.135   0.115  -0.196
    1UNL     C8    9  -0.033   0.137  -0.113
    1UNL     C9   10   0.041   0.012  -0.053
    1UNL     O2   11   0.009  -0.107  -0.133
    1UNL    C10   12  -0.013  -0.033   0.084
    1UNL     O3   13  -0.146  -0.057   0.076
    1UNL    C11   14  -0.167  -0.193   0.059
    1UNL     O4   15  -0.081  -0.278   0.070
    1UNL    C12   16  -0.314  -0.221   0.029
    1UNL    C13   17  -0.337  -0.278  -0.111
    1UNL    C14   18  -0.383  -0.282   0.151
    1UNL    C15   19   0.191   0.037  -0.046
    1UNL     O5   20   0.258  -0.081  -0.002
    1UNL    C16   21   0.345  -0.060   0.097
    1UNL     O6   22   0.380   0.046   0.143
    1UNL    C17   23   0.407  -0.190   0.138
    1UNL    C18   24   0.303  -0.295   0.140
    1UNL    C19   25   0.534  -0.232   0.070
    1UNL     H1   26   0.119   0.469  -0.028
    1UNL     H2   27   0.219   0.410   0.105
    1UNL     H3   28   0.047   0.458   0.135
    1UNL     H4   29  -0.077   0.466  -0.072
    1UNL     H5   30  -0.358   0.428  -0.314
    1UNL     H6   31  -0.338   0.498  -0.159
    1UNL     H7   32  -0.228   0.544  -0.289
    1UNL     H8   33  -0.295   0.206  -0.321
    1UNL     H9   34  -0.147   0.015  -0.243
    1UNL    H10   35   0.047  -0.184  -0.087
    1UNL    H11   36   0.038  -0.122   0.119
    1UNL    H12   37   0.002   0.053   0.147
    1UNL    H13   38  -0.358  -0.115   0.016
    1UNL    H14   39  -0.263  -0.231  -0.176
    1UNL    H15   40  -0.433  -0.269  -0.149
    1UNL    H16   41  -0.331  -0.393  -0.125
    1UNL    H17   42  -0.495  -0.298   0.148
    1UNL    H18   43  -0.376  -0.213   0.239
    1UNL    H19   44  -0.332  -0.370   0.195
    1UNL    H20   45   0.224   0.058  -0.142
    1UNL    H21   46   0.193   0.115   0.027
    1UNL    H22   47   0.443  -0.179   0.234
    1UNL    H23   48   0.206  -0.265   0.190
    1UNL    H24   49   0.343  -0.375   0.202
    1UNL    H25   50   0.272  -0.323   0.045
    1UNL    H26   51   0.529  -0.325   0.016
    1UNL    H27   52   0.622  -0.255   0.135
    1UNL    H28   53   0.556  -0.153  -0.001
   0.00000   0.00000   0.00000   0.00000   0.00000   0.00000   0.00000   0.00000   0.00000
Generated with MDTraj, t= 15.0
 53
    1UNL     C1    1   0.123   0.403   0.092
    1UNL     O1    2   0.100   0.278   0.024
    1UNL     C2    3  -0.005   0.267  -0.066
    1UNL     C3    4  -0.085   0.371  -0.107
    1UNL     C4    5  -0.195   0.350  -0.196
    1UNL     C5    6  -0.280   0.465  -0.246
    1UNL     C6    7  -0.222   0.227  -0.243
    1UNL     C7    8  -0.136   0.121  -0.210
    1UNL     C8    9  -0.036   0.134  -0.113
    1UNL     C9   10   0.035   0.012  -0.059
    1UNL     O2   11   0.011  -0.104  -0.143
    1UNL    C10   12  -0.015  -0.025   0.088
    1UNL     O3   13  -0.158  -0.045   0.083
    1UNL    C11   14  -0.184  -0.175   0.059
    1UNL     O4   15  -0.102  -0.262   0.040
    1UNL    C12   16  -0.323  -0.222   0.045
    1UNL    C13   17  -0.341  -0.297  -0.086
    1UNL    C14   18  -0.351  -0.321   0.158
    1UNL    C15   19   0.191   0.033  -0.060
    1UNL     O5   20   0.254  -0.084  -0.020
    1UNL    C16   21   0.340  -0.068   0.092
    1UNL     O6   22   0.370   0.044   0.133
    1UNL    C17   23   0.397  -0.185   0.162
    1UNL    C18   24   0.308  -0.314   0.150
    1UNL    C19   25   0.541  -0.201   0.097
    1UNL     H1   26   0.141   0.487   0.021
    1UNL     H2   27   0.208   0.396   0.157
    1UNL     H3   28   0.029   0.424   0.136
    1UNL     H4   29  -0.046   0.466  -0.081
    1UNL     H5   30  -0.387   0.444  -0.228
    1UNL     H6   31  -0.257   0.555  -0.189
    1UNL     H7   32  -0.272   0.488  -0.354
    1UNL     H8   33  -0.303   0.215  -0.317
    1UNL     H9   34  -0.148   0.035  -0.271
    1UNL    H10   35  -0.028  -0.175  -0.088
    1UNL    H11   36   0.037  -0.117   0.111
    1UNL    H12   37   0.011   0.054   0.154
    1UNL    H13   38  -0.394  -0.132   0.064
    1UNL    H14   39  -0.351  -0.221  -0.173
    1UNL    H15   40  -0.419  -0.360  -0.080
    1UNL    H16   41  -0.260  -0.368  -0.120
    1UNL    H17   42  -0.462  -0.350   0.161
    1UNL    H18   43  -0.335  -0.283   0.262
    1UNL    H19   44  -0.281  -0.407   0.149
    1UNL    H20   45   0.205   0.043  -0.165
    1UNL    H21   46   0.215   0.122  -0.001
    1UNL    H22   47   0.415  -0.163   0.260
    1UNL    H23   48   0.216  -0.327   0.213
    1UNL    H24   49   0.365  -0.406   0.164
    1UNL    H25   50   0.269  -0.313   0.052
    1UNL    H26   51   0.524  -0.155   0.001
    1UNL    H27   52   0.575  -0.304   0.074
    1UNL    H28   53   0.612  -0.135   0.145
   0.00000   0.00000   0.00000   0.00000   0.00000   0.00000   0.00000   0.00000   0.00000
Generated with MDTraj, t= 16.0
 53
    1UNL     C1    1   0.117   0.389   0.099
    1UNL     O1    2   0.102   0.272   0.013
    1UNL     C2    3  -0.007   0.261  -0.076
    1UNL     C3    4  -0.067   0.380  -0.117
    1UNL     C4    5  -0.185   0.368  -0.194
    1UNL     C5    6  -0.261   0.493  -0.242
    1UNL     C6    7  -0.217   0.243  -0.243
    1UNL     C7    8  -0.142   0.130  -0.213
    1UNL     C8    9  -0.034   0.137  -0.129
    1UNL     C9   10   0.035   0.010  -0.080
    1UNL     O2   11   0.010  -0.101  -0.163
    1UNL    C10   12  -0.022  -0.021   0.067
    1UNL     O3   13  -0.158  -0.058   0.053
    1UNL    C11   14  -0.174  -0.194   0.059
    1UNL     O4   15  -0.086  -0.277   0.044
    1UNL    C12   16  -0.318  -0.235   0.078
    1UNL    C13   17  -0.368  -0.292  -0.059
    1UNL    C14   18  -0.330  -0.353   0.177
    1UNL    C15   19   0.188   0.033  -0.060
    1UNL     O5   20   0.241  -0.085  -0.007
    1UNL    C16   21   0.322  -0.062   0.096
    1UNL     O6   22   0.355   0.042   0.149
    1UNL    C17   23   0.387  -0.183   0.161
    1UNL    C18   24   0.319  -0.320   0.132
    1UNL    C19   25   0.528  -0.175   0.114
    1UNL     H1   26   0.154   0.482   0.050
    1UNL     H2   27   0.182   0.366   0.183
    1UNL     H3   28   0.014   0.410   0.120
    1UNL     H4   29  -0.026   0.477  -0.082
    1UNL     H5   30  -0.330   0.528  -0.163
    1UNL     H6   31  -0.178   0.565  -0.248
    1UNL     H7   32  -0.311   0.484  -0.339
    1UNL     H8   33  -0.288   0.237  -0.322
    1UNL     H9   34  -0.166   0.038  -0.266
    1UNL    H10   35   0.006  -0.175  -0.097
    1UNL    H11   36   0.035  -0.097   0.118
    1UNL    H12   37  -0.021   0.073   0.120
    1UNL    H13   38  -0.376  -0.147   0.126
    1UNL    H14   39  -0.381  -0.200  -0.130
    1UNL    H15   40  -0.462  -0.346  -0.041
    1UNL    H16   41  -0.296  -0.361  -0.099
    1UNL    H17   42  -0.439  -0.364   0.209
    1UNL    H18   43  -0.276  -0.326   0.271
    1UNL    H19   44  -0.279  -0.444   0.135
    1UNL    H20   45   0.230   0.067  -0.157
    1UNL    H21   46   0.183   0.108   0.024
    1UNL    H22   47   0.395  -0.173   0.264
    1UNL    H23   48   0.212  -0.304   0.141
    1UNL    H24   49   0.348  -0.401   0.201
    1UNL    H25   50   0.328  -0.348   0.027
    1UNL    H26   51   0.540  -0.231   0.021
    1UNL    H27   52   0.597  -0.213   0.191
    1UNL    H28   53   0.555  -0.072   0.096
   0.00000   0.00000   0.00000   0.00000   0.00000   0.00000   0.00000   0.00000   0.00000
Generated with MDTraj, t= 17.0
 53
    1UNL     C1    1   0.110   0.396   0.098
    1UNL     O1    2   0.108   0.277   0.028
    1UNL     C2    3   0.006   0.270  -0.069
    1UNL     C3    4  -0.063   0.382  -0.110
    1UNL     C4    5  -0.156   0.376  -0.213
    1UNL     C5    6  -0.238   0.495  -0.250
    1UNL     C6    7  -0.205   0.251  -0.263
    1UNL     C7    8  -0.136   0.142  -0.218
    1UNL     C8    9  -0.034   0.148  -0.129
    1UNL     C9   10   0.022   0.015  -0.084
    1UNL     O2   11  -0.029  -0.100  -0.163
    1UNL    C10   12  -0.020  -0.023   0.059
    1UNL     O3   13  -0.155  -0.068   0.065
    1UNL    C11   14  -0.169  -0.206   0.059
    1UNL     O4   15  -0.072  -0.275   0.031
    1UNL    C12   16  -0.308  -0.256   0.094
    1UNL    C13   17  -0.385  -0.289  -0.036
    1UNL    C14   18  -0.297  -0.382   0.184
    1UNL    C15   19   0.181   0.023  -0.073
    1UNL     O5   20   0.249  -0.089  -0.025
    1UNL    C16   21   0.307  -0.065   0.100
    1UNL     O6   22   0.308   0.046   0.152
    1UNL    C17   23   0.377  -0.178   0.162
    1UNL    C18   24   0.313  -0.309   0.116
    1UNL    C19   25   0.534  -0.177   0.136
    1UNL     H1   26   0.120   0.485   0.032
    1UNL     H2   27   0.197   0.394   0.167
    1UNL     H3   28   0.006   0.400   0.136
    1UNL     H4   29  -0.044   0.474  -0.066
    1UNL     H5   30  -0.239   0.564  -0.162
    1UNL     H6   31  -0.184   0.547  -0.331
    1UNL     H7   32  -0.342   0.481  -0.280
    1UNL     H8   33  -0.275   0.253  -0.346
    1UNL     H9   34  -0.173   0.044  -0.235
    1UNL    H10   35  -0.037  -0.172  -0.101
    1UNL    H11   36   0.042  -0.106   0.097
    1UNL    H12   37  -0.003   0.066   0.121
    1UNL    H13   38  -0.364  -0.176   0.160
    1UNL    H14   39  -0.349  -0.211  -0.109
    1UNL    H15   40  -0.502  -0.270  -0.018
    1UNL    H16   41  -0.358  -0.387  -0.062
    1UNL    H17   42  -0.396  -0.432   0.199
    1UNL    H18   43  -0.270  -0.338   0.285
    1UNL    H19   44  -0.211  -0.453   0.157
    1UNL    H20   45   0.222   0.028  -0.178
    1UNL    H21   46   0.197   0.113  -0.004
    1UNL    H22   47   0.361  -0.164   0.263
    1UNL    H23   48   0.208  -0.294   0.127
    1UNL    H24   49   0.351  -0.400   0.167
    1UNL    H25   50   0.329  -0.314   0.005
    1UNL    H26   51   0.565  -0.149   0.034
    1UNL    H27   52   0.582  -0.271   0.162
    1UNL    H28   53   0.588  -0.113   0.204
   0.00000   0.00000   0.00000   0.00000   0.00000   0.00000   0.00000   0.00000   0.00000
Generated with MDTraj, t= 18.0
 53
    1UNL     C1    1   0.129   0.379   0.096
    1UNL     O1    2   0.078   0.262   0.045
    1UNL     C2    3  -0.007   0.266  -0.066
    1UNL     C3    4  -0.072   0.382  -0.111
    1UNL     C4    5  -0.156   0.384  -0.218
    1UNL     C5    6  -0.216   0.507  -0.277
    1UNL     C6    7  -0.187   0.258  -0.269
    1UNL     C7    8  -0.146   0.140  -0.218
    1UNL     C8    9  -0.042   0.142  -0.125
    1UNL     C9   10   0.018   0.015  -0.078
    1UNL     O2   11  -0.009  -0.092  -0.168
    1UNL    C10   12  -0.005  -0.015   0.075
    1UNL     O3   13  -0.137  -0.059   0.091
    1UNL    C11   14  -0.148  -0.194   0.076
    1UNL     O4   15  -0.055  -0.264   0.040
    1UNL    C12   16  -0.283  -0.261   0.106
    1UNL    C13   17  -0.367  -0.285  -0.029
    1UNL    C14   18  -0.270  -0.394   0.184
    1UNL    C15   19   0.175   0.036  -0.086
    1UNL     O5   20   0.248  -0.072  -0.047
    1UNL    C16   21   0.283  -0.070   0.085
    1UNL     O6   22   0.255   0.023   0.157
    1UNL    C17   23   0.351  -0.189   0.155
    1UNL    C18   24   0.299  -0.315   0.098
    1UNL    C19   25   0.505  -0.176   0.145
    1UNL     H1   26   0.185   0.430   0.016
    1UNL     H2   27   0.198   0.361   0.183
    1UNL     H3   28   0.038   0.441   0.109
    1UNL     H4   29  -0.043   0.476  -0.064
    1UNL     H5   30  -0.181   0.603  -0.234
    1UNL     H6   31  -0.188   0.508  -0.384
    1UNL     H7   32  -0.324   0.520  -0.276
    1UNL     H8   33  -0.262   0.253  -0.348
    1UNL     H9   34  -0.173   0.043  -0.256
    1UNL    H10   35  -0.007  -0.178  -0.121
    1UNL    H11   36   0.067  -0.092   0.112
    1UNL    H12   37   0.004   0.076   0.139
    1UNL    H13   38  -0.340  -0.185   0.174
    1UNL    H14   39  -0.438  -0.201  -0.047
    1UNL    H15   40  -0.447  -0.371  -0.012
    1UNL    H16   41  -0.301  -0.302  -0.112
    1UNL    H17   42  -0.374  -0.426   0.209
    1UNL    H18   43  -0.222  -0.380   0.287
    1UNL    H19   44  -0.212  -0.481   0.136
    1UNL    H20   45   0.191   0.055  -0.198
    1UNL    H21   46   0.200   0.127  -0.019
    1UNL    H22   47   0.318  -0.177   0.252
    1UNL    H23   48   0.199  -0.328   0.128
    1UNL    H24   49   0.367  -0.398   0.121
    1UNL    H25   50   0.299  -0.311  -0.017
    1UNL    H26   51   0.544  -0.181   0.043
    1UNL    H27   52   0.557  -0.247   0.208
    1UNL    H28   53   0.546  -0.086   0.189
   0.00000   0.00000   0.00000   0.00000   0.00000   0.00000   0.00000   0.00000   0.00000
Generated with MDTraj, t= 19.0
 53
    1UNL     C1    1   0.129   0.394   0.085
    1UNL     O1    2   0.068   0.273   0.050
    1UNL     C2    3  -0.027   0.271  -0.057
    1UNL     C3    4  -0.077   0.390  -0.108
    1UNL     C4    5  -0.153   0.385  -0.227
    1UNL     C5    6  -0.211   0.513  -0.285
    1UNL     C6    7  -0.175   0.260  -0.288
    1UNL     C7    8  -0.123   0.142  -0.240
    1UNL     C8    9  -0.049   0.149  -0.120
    1UNL     C9   10   0.026   0.023  -0.077
    1UNL     O2   11   0.011  -0.091  -0.154
    1UNL    C10   12  -0.023  -0.004   0.068
    1UNL     O3   13  -0.146  -0.063   0.092
    1UNL    C11   14  -0.127  -0.201   0.097
    1UNL     O4   15  -0.022  -0.264   0.086
    1UNL    C12   16  -0.268  -0.267   0.114
    1UNL    C13   17  -0.341  -0.286  -0.017
    1UNL    C14   18  -0.254  -0.401   0.174
    1UNL    C15   19   0.180   0.044  -0.079
    1UNL     O5   20   0.232  -0.077  -0.039
    1UNL    C16   21   0.265  -0.073   0.090
    1UNL     O6   22   0.232   0.010   0.173
    1UNL    C17   23   0.333  -0.209   0.139
    1UNL    C18   24   0.275  -0.323   0.058
    1UNL    C19   25   0.481  -0.183   0.121
    1UNL     H1   26   0.176   0.430  -0.007
    1UNL     H2   27   0.213   0.386   0.157
    1UNL     H3   28   0.052   0.468   0.117
    1UNL     H4   29  -0.039   0.485  -0.077
    1UNL     H5   30  -0.148   0.604  -0.275
    1UNL     H6   31  -0.228   0.490  -0.392
    1UNL     H7   32  -0.309   0.543  -0.245
    1UNL     H8   33  -0.242   0.258  -0.371
    1UNL     H9   34  -0.130   0.050  -0.300
    1UNL    H10   35   0.028  -0.166  -0.090
    1UNL    H11   36   0.050  -0.070   0.124
    1UNL    H12   37  -0.018   0.090   0.131
    1UNL    H13   38  -0.328  -0.194   0.182
    1UNL    H14   39  -0.307  -0.225  -0.103
    1UNL    H15   40  -0.439  -0.246  -0.016
    1UNL    H16   41  -0.337  -0.394  -0.057
    1UNL    H17   42  -0.356  -0.440   0.204
    1UNL    H18   43  -0.188  -0.405   0.267
    1UNL    H19   44  -0.207  -0.477   0.104
    1UNL    H20   45   0.218   0.073  -0.183
    1UNL    H21   46   0.205   0.116   0.006
    1UNL    H22   47   0.305  -0.220   0.238
    1UNL    H23   48   0.174  -0.294   0.041
    1UNL    H24   49   0.282  -0.419   0.110
    1UNL    H25   50   0.323  -0.354  -0.042
    1UNL    H26   51   0.500  -0.180   0.013
    1UNL    H27   52   0.537  -0.257   0.175
    1UNL    H28   53   0.517  -0.093   0.172
   0.00000   0.00000   0.00000   0.00000   0.00000   0.00000   0.00000   0.00000   0.00000
Generated with MDTraj, t= 20.0
 53
    1UNL     C1    1   0.100   0.434   0.082
    1UNL     O1    2   0.055   0.301   0.055
    1UNL     C2    3  -0.022   0.289  -0.066
    1UNL     C3    4  -0.071   0.401  -0.128
    1UNL     C4    5  -0.155   0.394  -0.242
    1UNL     C5    6  -0.233   0.514  -0.300
    1UNL     C6    7  -0.166   0.268  -0.305
    1UNL     C7    8  -0.110   0.155  -0.244
    1UNL     C8    9  -0.041   0.158  -0.126
    1UNL     C9   10   0.017   0.034  -0.064
    1UNL     O2   11  -0.008  -0.088  -0.141
    1UNL    C10   12  -0.038   0.014   0.076
    1UNL     O3   13  -0.159  -0.056   0.087
    1UNL    C11   14  -0.144  -0.193   0.101
    1UNL     O4   15  -0.037  -0.246   0.111
    1UNL    C12   16  -0.263  -0.285   0.109
    1UNL    C13   17  -0.325  -0.303  -0.024
    1UNL    C14   18  -0.224  -0.419   0.179
    1UNL    C15   19   0.174   0.040  -0.061
    1UNL     O5   20   0.246  -0.079  -0.037
    1UNL    C16   21   0.285  -0.093   0.101
    1UNL     O6   22   0.264  -0.015   0.192
    1UNL    C17   23   0.342  -0.229   0.132
    1UNL    C18   24   0.261  -0.333   0.048
    1UNL    C19   25   0.500  -0.243   0.110
    1UNL     H1   26   0.143   0.468  -0.012
    1UNL     H2   27   0.188   0.437   0.147
    1UNL     H3   28   0.023   0.500   0.128
    1UNL     H4   29  -0.054   0.496  -0.082
    1UNL     H5   30  -0.161   0.586  -0.340
    1UNL     H6   31  -0.302   0.472  -0.374
    1UNL     H7   32  -0.290   0.568  -0.222
    1UNL     H8   33  -0.213   0.265  -0.403
    1UNL     H9   34  -0.139   0.058  -0.274
    1UNL    H10   35   0.014  -0.155  -0.075
    1UNL    H11   36   0.035  -0.052   0.131
    1UNL    H12   37  -0.037   0.106   0.140
    1UNL    H13   38  -0.342  -0.230   0.172
    1UNL    H14   39  -0.411  -0.239  -0.051
    1UNL    H15   40  -0.376  -0.390  -0.030
    1UNL    H16   41  -0.244  -0.303  -0.110
    1UNL    H17   42  -0.320  -0.483   0.178
    1UNL    H18   43  -0.191  -0.404   0.285
    1UNL    H19   44  -0.144  -0.469   0.118
    1UNL    H20   45   0.210   0.058  -0.165
    1UNL    H21   46   0.208   0.113   0.015
    1UNL    H22   47   0.310  -0.236   0.233
    1UNL    H23   48   0.162  -0.337   0.093
    1UNL    H24   49   0.320  -0.427   0.039
    1UNL    H25   50   0.241  -0.311  -0.062
    1UNL    H26   51   0.522  -0.217   0.007
    1UNL    H27   52   0.518  -0.346   0.131
    1UNL    H28   53   0.567  -0.199   0.185
   0.00000   0.00000   0.00000   0.00000   0.00000   0.00000   0.00000   0.00000   0.00000
Generated with MDTraj, t= 21.0
 53
    1UNL     C1    1   0.065   0.434   0.109
    1UNL     O1    2   0.066   0.309   0.044
    1UNL     C2    3  -0.021   0.294  -0.065
    1UNL     C3    4  -0.085   0.404  -0.129
    1UNL     C4    5  -0.151   0.378  -0.248
    1UNL     C5    6  -0.216   0.482  -0.331
    1UNL     C6    7  -0.171   0.245  -0.287
    1UNL     C7    8  -0.123   0.139  -0.222
    1UNL     C8    9  -0.037   0.164  -0.118
    1UNL     C9   10   0.019   0.041  -0.049
    1UNL     O2   11  -0.003  -0.073  -0.125
    1UNL    C10   12  -0.038   0.023   0.091
    1UNL     O3   13  -0.150  -0.054   0.092
    1UNL    C11   14  -0.120  -0.187   0.086
    1UNL     O4   15  -0.009  -0.233   0.071
    1UNL    C12   16  -0.247  -0.275   0.103
    1UNL    C13   17  -0.301  -0.283  -0.041
    1UNL    C14   18  -0.211  -0.397   0.188
    1UNL    C15   19   0.169   0.060  -0.041
    1UNL     O5   20   0.230  -0.073  -0.028
    1UNL    C16   21   0.266  -0.110   0.100
    1UNL     O6   22   0.278  -0.030   0.188
    1UNL    C17   23   0.319  -0.252   0.125
    1UNL    C18   24   0.245  -0.355   0.056
    1UNL    C19   25   0.467  -0.246   0.077
    1UNL     H1   26   0.124   0.499   0.048
    1UNL     H2   27   0.127   0.431   0.199
    1UNL     H3   28  -0.037   0.465   0.140
    1UNL     H4   29  -0.089   0.505  -0.083
    1UNL     H5   30  -0.149   0.518  -0.407
    1UNL     H6   31  -0.313   0.452  -0.374
    1UNL     H7   32  -0.228   0.573  -0.268
    1UNL     H8   33  -0.243   0.217  -0.363
    1UNL     H9   34  -0.154   0.034  -0.241
    1UNL    H10   35   0.052  -0.141  -0.078
    1UNL    H11   36   0.040  -0.025   0.153
    1UNL    H12   37  -0.066   0.114   0.147
    1UNL    H13   38  -0.329  -0.211   0.150
    1UNL    H14   39  -0.288  -0.184  -0.091
    1UNL    H15   40  -0.407  -0.301  -0.043
    1UNL    H16   41  -0.246  -0.358  -0.096
    1UNL    H17   42  -0.301  -0.466   0.198
    1UNL    H18   43  -0.179  -0.364   0.292
    1UNL    H19   44  -0.129  -0.449   0.131
    1UNL    H20   45   0.196   0.112  -0.133
    1UNL    H21   46   0.197   0.111   0.049
    1UNL    H22   47   0.316  -0.277   0.228
    1UNL    H23   48   0.136  -0.333   0.078
    1UNL    H24   49   0.285  -0.453   0.089
    1UNL    H25   50   0.264  -0.358  -0.053
    1UNL    H26   51   0.481  -0.229  -0.028
    1UNL    H27   52   0.518  -0.331   0.118
    1UNL    H28   53   0.514  -0.170   0.141
   0.00000   0.00000   0.00000   0.00000   0.00000   0.00000   0.00000   0.00000   0.00000
Generated with MDTraj, t= 22.0
 53
    1UNL     C1    1   0.024   0.427   0.111
    1UNL     O1    2   0.076   0.314   0.043
    1UNL     C2    3   0.001   0.288  -0.069
    1UNL     C3    4  -0.065   0.396  -0.143
    1UNL     C4    5  -0.158   0.379  -0.243
    1UNL     C5    6  -0.213   0.492  -0.326
    1UNL     C6    7  -0.187   0.250  -0.281
    1UNL     C7    8  -0.132   0.140  -0.211
    1UNL     C8    9  -0.036   0.156  -0.108
    1UNL     C9   10   0.035   0.031  -0.050
    1UNL     O2   11   0.007  -0.084  -0.128
    1UNL    C10   12  -0.017   0.011   0.091
    1UNL     O3   13  -0.139  -0.055   0.103
    1UNL    C11   14  -0.135  -0.191   0.108
    1UNL     O4   15  -0.029  -0.248   0.096
    1UNL    C12   16  -0.268  -0.264   0.102
    1UNL    C13   17  -0.291  -0.295  -0.052
    1UNL    C14   18  -0.249  -0.388   0.184
    1UNL    C15   19   0.194   0.058  -0.058
    1UNL     O5   20   0.273  -0.056  -0.041
    1UNL    C16   21   0.276  -0.095   0.093
    1UNL     O6   22   0.247  -0.030   0.192
    1UNL    C17   23   0.328  -0.235   0.117
    1UNL    C18   24   0.230  -0.351   0.060
    1UNL    C19   25   0.473  -0.238   0.062
    1UNL     H1   26   0.064   0.516   0.071
    1UNL     H2   27   0.064   0.419   0.211
    1UNL     H3   28  -0.086   0.415   0.124
    1UNL     H4   29  -0.023   0.491  -0.143
    1UNL     H5   30  -0.175   0.504  -0.427
    1UNL     H6   31  -0.321   0.506  -0.333
    1UNL     H7   32  -0.174   0.585  -0.282
    1UNL     H8   33  -0.266   0.233  -0.353
    1UNL     H9   34  -0.153   0.039  -0.236
    1UNL    H10   35   0.006  -0.160  -0.066
    1UNL    H11   36   0.054  -0.035   0.160
    1UNL    H12   37  -0.030   0.111   0.130
    1UNL    H13   38  -0.354  -0.198   0.130
    1UNL    H14   39  -0.307  -0.201  -0.105
    1UNL    H15   40  -0.376  -0.367  -0.064
    1UNL    H16   41  -0.208  -0.336  -0.087
    1UNL    H17   42  -0.336  -0.458   0.185
    1UNL    H18   43  -0.225  -0.364   0.293
    1UNL    H19   44  -0.164  -0.446   0.132
    1UNL    H20   45   0.218   0.079  -0.161
    1UNL    H21   46   0.222   0.135   0.007
    1UNL    H22   47   0.337  -0.250   0.221
    1UNL    H23   48   0.145  -0.378   0.135
    1UNL    H24   49   0.291  -0.439   0.028
    1UNL    H25   50   0.181  -0.325  -0.031
    1UNL    H26   51   0.480  -0.222  -0.042
    1UNL    H27   52   0.519  -0.332   0.090
    1UNL    H28   53   0.544  -0.172   0.114
   0.00000   0.00000   0.00000   0.00000   0.00000   0.00000   0.00000   0.00000   0.00000
Generated with MDTraj, t= 23.0
 53
    1UNL     C1    1   0.058   0.393   0.131
    1UNL     O1    2   0.078   0.288   0.035
    1UNL     C2    3  -0.018   0.284  -0.067
    1UNL     C3    4  -0.075   0.393  -0.131
    1UNL     C4    5  -0.156   0.374  -0.239
    1UNL     C5    6  -0.228   0.479  -0.312
    1UNL     C6    7  -0.177   0.246  -0.284
    1UNL     C7    8  -0.113   0.139  -0.230
    1UNL     C8    9  -0.038   0.149  -0.121
    1UNL     C9   10   0.035   0.030  -0.054
    1UNL     O2   11   0.017  -0.085  -0.139
    1UNL    C10   12  -0.024   0.010   0.090
    1UNL     O3   13  -0.154  -0.048   0.082
    1UNL    C11   14  -0.151  -0.184   0.094
    1UNL     O4   15  -0.056  -0.253   0.119
    1UNL    C12   16  -0.284  -0.251   0.089
    1UNL    C13   17  -0.315  -0.302  -0.051
    1UNL    C14   18  -0.287  -0.361   0.190
    1UNL    C15   19   0.192   0.052  -0.053
    1UNL     O5   20   0.280  -0.053  -0.034
    1UNL    C16   21   0.300  -0.091   0.101
    1UNL     O6   22   0.252  -0.030   0.194
    1UNL    C17   23   0.366  -0.219   0.120
    1UNL    C18   24   0.267  -0.337   0.076
    1UNL    C19   25   0.482  -0.208   0.037
    1UNL     H1   26   0.131   0.468   0.127
    1UNL     H2   27   0.072   0.337   0.223
    1UNL     H3   28  -0.050   0.420   0.139
    1UNL     H4   29  -0.060   0.497  -0.096
    1UNL     H5   30  -0.237   0.457  -0.418
    1UNL     H6   31  -0.324   0.498  -0.266
    1UNL     H7   32  -0.165   0.570  -0.310
    1UNL     H8   33  -0.253   0.227  -0.358
    1UNL     H9   34  -0.134   0.039  -0.270
    1UNL    H10   35   0.049  -0.163  -0.093
    1UNL    H11   36   0.038  -0.055   0.152
    1UNL    H12   37  -0.025   0.104   0.139
    1UNL    H13   38  -0.355  -0.170   0.111
    1UNL    H14   39  -0.297  -0.229  -0.123
    1UNL    H15   40  -0.413  -0.360  -0.050
    1UNL    H16   41  -0.241  -0.376  -0.078
    1UNL    H17   42  -0.389  -0.405   0.207
    1UNL    H18   43  -0.256  -0.325   0.293
    1UNL    H19   44  -0.221  -0.448   0.156
    1UNL    H20   45   0.221   0.093  -0.147
    1UNL    H21   46   0.212   0.116   0.027
    1UNL    H22   47   0.400  -0.227   0.221
    1UNL    H23   48   0.175  -0.326   0.141
    1UNL    H24   49   0.306  -0.443   0.083
    1UNL    H25   50   0.229  -0.325  -0.024
    1UNL    H26   51   0.457  -0.183  -0.063
    1UNL    H27   52   0.541  -0.300   0.039
    1UNL    H28   53   0.550  -0.134   0.077
   0.00000   0.00000   0.00000   0.00000   0.00000   0.00000   0.00000   0.00000   0.00000
Generated with MDTraj, t= 24.0
 53
    1UNL     C1    1   0.056   0.405   0.117
    1UNL     O1    2   0.065   0.276   0.058
    1UNL     C2    3  -0.014   0.266  -0.061
    1UNL     C3    4  -0.082   0.377  -0.116
    1UNL     C4    5  -0.166   0.364  -0.229
    1UNL     C5    6  -0.243   0.487  -0.274
    1UNL     C6    7  -0.171   0.241  -0.291
    1UNL     C7    8  -0.106   0.131  -0.233
    1UNL     C8    9  -0.023   0.146  -0.122
    1UNL     C9   10   0.039   0.021  -0.065
    1UNL     O2   11   0.014  -0.099  -0.138
    1UNL    C10   12  -0.022   0.004   0.081
    1UNL     O3   13  -0.160  -0.039   0.089
    1UNL    C11   14  -0.156  -0.177   0.076
    1UNL     O4   15  -0.063  -0.254   0.069
    1UNL    C12   16  -0.297  -0.236   0.074
    1UNL    C13   17  -0.334  -0.296  -0.059
    1UNL    C14   18  -0.320  -0.316   0.202
    1UNL    C15   19   0.198   0.038  -0.055
    1UNL     O5   20   0.262  -0.080  -0.036
    1UNL    C16   21   0.296  -0.094   0.091
    1UNL     O6   22   0.267  -0.017   0.180
    1UNL    C17   23   0.393  -0.209   0.130
    1UNL    C18   24   0.311  -0.339   0.118
    1UNL    C19   25   0.509  -0.193   0.033
    1UNL     H1   26   0.074   0.486   0.052
    1UNL     H2   27   0.139   0.405   0.187
    1UNL     H3   28  -0.037   0.413   0.183
    1UNL     H4   29  -0.099   0.466  -0.061
    1UNL     H5   30  -0.297   0.455  -0.365
    1UNL     H6   31  -0.306   0.520  -0.191
    1UNL     H7   32  -0.175   0.565  -0.304
    1UNL     H8   33  -0.225   0.225  -0.383
    1UNL     H9   34  -0.143   0.036  -0.266
    1UNL    H10   35   0.072  -0.174  -0.106
    1UNL    H11   36   0.043  -0.065   0.132
    1UNL    H12   37  -0.018   0.095   0.134
    1UNL    H13   38  -0.355  -0.146   0.090
    1UNL    H14   39  -0.286  -0.251  -0.136
    1UNL    H15   40  -0.441  -0.323  -0.064
    1UNL    H16   41  -0.291  -0.405  -0.073
    1UNL    H17   42  -0.425  -0.362   0.214
    1UNL    H18   43  -0.310  -0.244   0.289
    1UNL    H19   44  -0.245  -0.399   0.207
    1UNL    H20   45   0.232   0.082  -0.147
    1UNL    H21   46   0.223   0.101   0.028
    1UNL    H22   47   0.430  -0.197   0.230
    1UNL    H23   48   0.214  -0.348   0.174
    1UNL    H24   49   0.374  -0.414   0.175
    1UNL    H25   50   0.304  -0.372   0.014
    1UNL    H26   51   0.475  -0.201  -0.069
    1UNL    H27   52   0.598  -0.254   0.051
    1UNL    H28   53   0.543  -0.094   0.051
   0.00000   0.00000   0.00000   0.00000   0.00000   0.00000   0.00000   0.00000   0.00000
Generated with MDTraj, t= 25.0
 53
    1UNL     C1    1   0.081   0.403   0.125
    1UNL     O1    2   0.058   0.275   0.062
    1UNL     C2    3  -0.021   0.263  -0.051
    1UNL     C3    4  -0.106   0.366  -0.096
    1UNL     C4    5  -0.178   0.361  -0.215
    1UNL     C5    6  -0.251   0.479  -0.269
    1UNL     C6    7  -0.182   0.239  -0.275
    1UNL     C7    8  -0.107   0.128  -0.232
    1UNL     C8    9  -0.029   0.137  -0.119
    1UNL     C9   10   0.048   0.013  -0.075
    1UNL     O2   11   0.014  -0.094  -0.165
    1UNL    C10   12   0.001  -0.031   0.072
    1UNL     O3   13  -0.137  -0.056   0.092
    1UNL    C11   14  -0.160  -0.184   0.071
    1UNL     O4   15  -0.080  -0.269   0.041
    1UNL    C12   16  -0.308  -0.213   0.069
    1UNL    C13   17  -0.343  -0.299  -0.057
    1UNL    C14   18  -0.361  -0.267   0.201
    1UNL    C15   19   0.206   0.033  -0.073
    1UNL     O5   20   0.278  -0.082  -0.046
    1UNL    C16   21   0.302  -0.089   0.092
    1UNL     O6   22   0.269   0.000   0.168
    1UNL    C17   23   0.403  -0.192   0.139
    1UNL    C18   24   0.316  -0.322   0.143
    1UNL    C19   25   0.533  -0.194   0.054
    1UNL     H1   26   0.164   0.448   0.076
    1UNL     H2   27   0.115   0.382   0.229
    1UNL     H3   28  -0.009   0.474   0.129
    1UNL     H4   29  -0.106   0.449  -0.029
    1UNL     H5   30  -0.329   0.433  -0.332
    1UNL     H6   31  -0.299   0.539  -0.192
    1UNL     H7   32  -0.192   0.545  -0.330
    1UNL     H8   33  -0.260   0.232  -0.352
    1UNL     H9   34  -0.112   0.030  -0.279
    1UNL    H10   35   0.013  -0.178  -0.116
    1UNL    H11   36   0.055  -0.118   0.114
    1UNL    H12   37   0.025   0.054   0.134
    1UNL    H13   38  -0.347  -0.113   0.066
    1UNL    H14   39  -0.338  -0.241  -0.149
    1UNL    H15   40  -0.427  -0.366  -0.045
    1UNL    H16   41  -0.259  -0.377  -0.085
    1UNL    H17   42  -0.466  -0.309   0.191
    1UNL    H18   43  -0.364  -0.191   0.285
    1UNL    H19   44  -0.297  -0.354   0.226
    1UNL    H20   45   0.247   0.061  -0.175
    1UNL    H21   46   0.228   0.111  -0.002
    1UNL    H22   47   0.432  -0.160   0.237
    1UNL    H23   48   0.262  -0.344   0.238
    1UNL    H24   49   0.388  -0.410   0.155
    1UNL    H25   50   0.257  -0.332   0.049
    1UNL    H26   51   0.508  -0.215  -0.051
    1UNL    H27   52   0.608  -0.263   0.092
    1UNL    H28   53   0.576  -0.097   0.062
   0.00000   0.00000   0.00000   0.00000   0.00000   0.00000   0.00000   0.00000   0.00000
Generated with MDTraj, t= 26.0
 53
    1UNL     C1    1   0.104   0.363   0.126
    1UNL     O1    2   0.074   0.245   0.061
    1UNL     C2    3  -0.015   0.246  -0.046
    1UNL     C3    4  -0.095   0.352  -0.090
    1UNL     C4    5  -0.188   0.334  -0.191
    1UNL     C5    6  -0.249   0.457  -0.237
    1UNL     C6    7  -0.183   0.222  -0.274
    1UNL     C7    8  -0.114   0.119  -0.226
    1UNL     C8    9  -0.033   0.125  -0.118
    1UNL     C9   10   0.049   0.001  -0.074
    1UNL     O2   11   0.033  -0.112  -0.170
    1UNL    C10   12  -0.001  -0.028   0.069
    1UNL     O3   13  -0.140  -0.046   0.069
    1UNL    C11   14  -0.170  -0.179   0.048
    1UNL     O4   15  -0.086  -0.265   0.034
    1UNL    C12   16  -0.317  -0.205   0.054
    1UNL    C13   17  -0.358  -0.300  -0.054
    1UNL    C14   18  -0.358  -0.236   0.195
    1UNL    C15   19   0.197   0.038  -0.073
    1UNL     O5   20   0.292  -0.061  -0.044
    1UNL    C16   21   0.318  -0.059   0.095
    1UNL     O6   22   0.276   0.028   0.169
    1UNL    C17   23   0.401  -0.173   0.146
    1UNL    C18   24   0.298  -0.291   0.135
    1UNL    C19   25   0.510  -0.187   0.055
    1UNL     H1   26   0.129   0.435   0.050
    1UNL     H2   27   0.195   0.345   0.189
    1UNL     H3   28   0.017   0.407   0.187
    1UNL     H4   29  -0.090   0.444  -0.029
    1UNL     H5   30  -0.352   0.439  -0.271
    1UNL     H6   31  -0.259   0.535  -0.163
    1UNL     H7   32  -0.202   0.511  -0.317
    1UNL     H8   33  -0.257   0.216  -0.351
    1UNL     H9   34  -0.110   0.033  -0.293
    1UNL    H10   35   0.032  -0.198  -0.125
    1UNL    H11   36   0.045  -0.116   0.121
    1UNL    H12   37   0.017   0.063   0.128
    1UNL    H13   38  -0.353  -0.108   0.031
    1UNL    H14   39  -0.276  -0.281  -0.140
    1UNL    H15   40  -0.458  -0.282  -0.087
    1UNL    H16   41  -0.342  -0.403  -0.018
    1UNL    H17   42  -0.467  -0.241   0.216
    1UNL    H18   43  -0.318  -0.156   0.266
    1UNL    H19   44  -0.317  -0.335   0.227
    1UNL    H20   45   0.220   0.095  -0.171
    1UNL    H21   46   0.202   0.110   0.011
    1UNL    H22   47   0.436  -0.150   0.244
    1UNL    H23   48   0.197  -0.258   0.161
    1UNL    H24   49   0.303  -0.371   0.215
    1UNL    H25   50   0.298  -0.331   0.027
    1UNL    H26   51   0.468  -0.194  -0.047
    1UNL    H27   52   0.566  -0.276   0.080
    1UNL    H28   53   0.579  -0.105   0.060
   0.00000   0.00000   0.00000   0.00000   0.00000   0.00000   0.00000   0.00000   0.00000
Generated with MDTraj, t= 27.0
 53
    1UNL     C1    1   0.096   0.383   0.120
    1UNL     O1    2   0.075   0.258   0.054
    1UNL     C2    3  -0.016   0.245  -0.052
    1UNL     C3    4  -0.090   0.356  -0.099
    1UNL     C4    5  -0.193   0.347  -0.192
    1UNL     C5    6  -0.288   0.463  -0.222
    1UNL     C6    7  -0.207   0.228  -0.262
    1UNL     C7    8  -0.111   0.123  -0.235
    1UNL     C8    9  -0.026   0.125  -0.119
    1UNL     C9   10   0.059  -0.000  -0.081
    1UNL     O2   11   0.034  -0.104  -0.177
    1UNL    C10   12   0.012  -0.045   0.063
    1UNL     O3   13  -0.132  -0.056   0.076
    1UNL    C11   14  -0.169  -0.179   0.046
    1UNL     O4   15  -0.095  -0.272   0.020
    1UNL    C12   16  -0.321  -0.195   0.045
    1UNL    C13   17  -0.358  -0.307  -0.054
    1UNL    C14   18  -0.364  -0.223   0.195
    1UNL    C15   19   0.218   0.036  -0.077
    1UNL     O5   20   0.296  -0.074  -0.038
    1UNL    C16   21   0.327  -0.057   0.090
    1UNL     O6   22   0.290   0.034   0.163
    1UNL    C17   23   0.391  -0.183   0.150
    1UNL    C18   24   0.292  -0.310   0.162
    1UNL    C19   25   0.526  -0.198   0.078
    1UNL     H1   26   0.152   0.445   0.052
    1UNL     H2   27   0.154   0.367   0.214
    1UNL     H3   28   0.005   0.446   0.140
    1UNL     H4   29  -0.094   0.442  -0.039
    1UNL     H5   30  -0.387   0.421  -0.207
    1UNL     H6   31  -0.276   0.533  -0.140
    1UNL     H7   32  -0.276   0.525  -0.310
    1UNL     H8   33  -0.287   0.217  -0.335
    1UNL     H9   34  -0.125   0.028  -0.281
    1UNL    H10   35  -0.003  -0.184  -0.131
    1UNL    H11   36   0.066  -0.142   0.084
    1UNL    H12   37   0.042   0.031   0.140
    1UNL    H13   38  -0.365  -0.108   0.007
    1UNL    H14   39  -0.356  -0.267  -0.168
    1UNL    H15   40  -0.461  -0.339  -0.035
    1UNL    H16   41  -0.281  -0.379  -0.034
    1UNL    H17   42  -0.475  -0.224   0.205
    1UNL    H18   43  -0.328  -0.147   0.269
    1UNL    H19   44  -0.331  -0.326   0.227
    1UNL    H20   45   0.238   0.067  -0.188
    1UNL    H21   46   0.240   0.125  -0.013
    1UNL    H22   47   0.417  -0.158   0.251
    1UNL    H23   48   0.238  -0.330   0.253
    1UNL    H24   49   0.359  -0.401   0.153
    1UNL    H25   50   0.232  -0.309   0.063
    1UNL    H26   51   0.521  -0.225  -0.029
    1UNL    H27   52   0.588  -0.262   0.137
    1UNL    H28   53   0.585  -0.107   0.082
   0.00000   0.00000   0.00000   0.00000   0.00000   0.00000   0.00000   0.00000   0.00000
Generated with MDTraj, t= 28.0
 53
    1UNL     C1    1   0.106   0.392   0.115
    1UNL     O1    2   0.089   0.279   0.032
    1UNL     C2    3  -0.015   0.269  -0.065
    1UNL     C3    4  -0.111   0.363  -0.087
    1UNL     C4    5  -0.214   0.339  -0.176
    1UNL     C5    6  -0.300   0.453  -0.231
    1UNL     C6    7  -0.206   0.222  -0.250
    1UNL     C7    8  -0.111   0.121  -0.221
    1UNL     C8    9  -0.016   0.137  -0.124
    1UNL     C9   10   0.062   0.015  -0.075
    1UNL     O2   11   0.035  -0.100  -0.168
    1UNL    C10   12   0.009  -0.039   0.061
    1UNL     O3   13  -0.129  -0.047   0.070
    1UNL    C11   14  -0.168  -0.178   0.036
    1UNL     O4   15  -0.092  -0.269   0.006
    1UNL    C12   16  -0.317  -0.200   0.043
    1UNL    C13   17  -0.363  -0.310  -0.056
    1UNL    C14   18  -0.346  -0.228   0.192
    1UNL    C15   19   0.219   0.036  -0.082
    1UNL     O5   20   0.290  -0.083  -0.039
    1UNL    C16   21   0.319  -0.078   0.100
    1UNL     O6   22   0.293   0.020   0.167
    1UNL    C17   23   0.388  -0.193   0.167
    1UNL    C18   24   0.308  -0.320   0.167
    1UNL    C19   25   0.510  -0.203   0.080
    1UNL     H1   26   0.116   0.480   0.053
    1UNL     H2   27   0.194   0.378   0.180
    1UNL     H3   28   0.016   0.416   0.174
    1UNL     H4   29  -0.123   0.448  -0.017
    1UNL     H5   30  -0.397   0.430  -0.189
    1UNL     H6   31  -0.255   0.539  -0.181
    1UNL     H7   32  -0.291   0.473  -0.338
    1UNL     H8   33  -0.275   0.194  -0.327
    1UNL     H9   34  -0.122   0.019  -0.259
    1UNL    H10   35  -0.024  -0.161  -0.124
    1UNL    H11   36   0.048  -0.145   0.076
    1UNL    H12   37   0.050   0.023   0.144
    1UNL    H13   38  -0.356  -0.107   0.012
    1UNL    H14   39  -0.329  -0.282  -0.152
    1UNL    H15   40  -0.475  -0.314  -0.081
    1UNL    H16   41  -0.314  -0.402  -0.024
    1UNL    H17   42  -0.455  -0.252   0.201
    1UNL    H18   43  -0.322  -0.139   0.255
    1UNL    H19   44  -0.282  -0.315   0.225
    1UNL    H20   45   0.247   0.057  -0.193
    1UNL    H21   46   0.248   0.121  -0.016
    1UNL    H22   47   0.418  -0.160   0.265
    1UNL    H23   48   0.200  -0.297   0.172
    1UNL    H24   49   0.331  -0.378   0.260
    1UNL    H25   50   0.335  -0.383   0.074
    1UNL    H26   51   0.484  -0.215  -0.025
    1UNL    H27   52   0.578  -0.277   0.117
    1UNL    H28   53   0.566  -0.108   0.082
   0.00000   0.00000   0.00000   0.00000   0.00000   0.00000   0.00000   0.00000   0.00000
Generated with MDTraj, t= 29.0
 53
    1UNL     C1    1   0.095   0.393   0.096
    1UNL     O1    2   0.103   0.275   0.027
    1UNL     C2    3   0.003   0.259  -0.074
    1UNL     C3    4  -0.077   0.360  -0.118
    1UNL     C4    5  -0.196   0.342  -0.192
    1UNL     C5    6  -0.296   0.457  -0.200
    1UNL     C6    7  -0.216   0.213  -0.245
    1UNL     C7    8  -0.122   0.118  -0.217
    1UNL     C8    9  -0.021   0.129  -0.125
    1UNL     C9   10   0.060   0.005  -0.074
    1UNL     O2   11   0.047  -0.108  -0.162
    1UNL    C10   12   0.004  -0.024   0.067
    1UNL     O3   13  -0.133  -0.044   0.063
    1UNL    C11   14  -0.168  -0.171   0.039
    1UNL     O4   15  -0.091  -0.261   0.015
    1UNL    C12   16  -0.315  -0.210   0.045
    1UNL    C13   17  -0.354  -0.313  -0.056
    1UNL    C14   18  -0.339  -0.249   0.193
    1UNL    C15   19   0.211   0.043  -0.063
    1UNL     O5   20   0.308  -0.056  -0.026
    1UNL    C16   21   0.306  -0.074   0.111
    1UNL     O6   22   0.265   0.011   0.188
    1UNL    C17   23   0.381  -0.196   0.155
    1UNL    C18   24   0.282  -0.311   0.134
    1UNL    C19   25   0.515  -0.201   0.070
    1UNL     H1   26   0.103   0.479   0.031
    1UNL     H2   27   0.173   0.398   0.171
    1UNL     H3   28  -0.004   0.402   0.138
    1UNL     H4   29  -0.066   0.462  -0.089
    1UNL     H5   30  -0.365   0.449  -0.119
    1UNL     H6   31  -0.249   0.555  -0.182
    1UNL     H7   32  -0.352   0.475  -0.293
    1UNL     H8   33  -0.319   0.180  -0.264
    1UNL     H9   34  -0.130   0.030  -0.277
    1UNL    H10   35  -0.007  -0.174  -0.110
    1UNL    H11   36   0.052  -0.113   0.114
    1UNL    H12   37   0.031   0.063   0.129
    1UNL    H13   38  -0.369  -0.123   0.025
    1UNL    H14   39  -0.331  -0.285  -0.148
    1UNL    H15   40  -0.469  -0.316  -0.076
    1UNL    H16   41  -0.313  -0.413  -0.041
    1UNL    H17   42  -0.450  -0.258   0.213
    1UNL    H18   43  -0.302  -0.166   0.259
    1UNL    H19   44  -0.285  -0.341   0.222
    1UNL    H20   45   0.244   0.077  -0.168
    1UNL    H21   46   0.226   0.124   0.010
    1UNL    H22   47   0.416  -0.185   0.256
    1UNL    H23   48   0.221  -0.309   0.229
    1UNL    H24   49   0.330  -0.413   0.131
    1UNL    H25   50   0.212  -0.299   0.048
    1UNL    H26   51   0.483  -0.202  -0.034
    1UNL    H27   52   0.567  -0.291   0.098
    1UNL    H28   53   0.588  -0.117   0.074
   0.00000   0.00000   0.00000   0.00000   0.00000   0.00000   0.00000   0.00000   0.00000
Generated with MDTraj, t= 30.0
 53
    1UNL     C1    1   0.120   0.405   0.110
    1UNL     O1    2   0.115   0.310   0.004
    1UNL     C2    3   0.002   0.276  -0.077
    1UNL     C3    4  -0.093   0.376  -0.110
    1UNL     C4    5  -0.203   0.341  -0.186
    1UNL     C5    6  -0.286   0.440  -0.247
    1UNL     C6    7  -0.215   0.211  -0.237
    1UNL     C7    8  -0.128   0.109  -0.203
    1UNL     C8    9  -0.023   0.141  -0.111
    1UNL     C9   10   0.062   0.023  -0.071
    1UNL     O2   11   0.049  -0.075  -0.169
    1UNL    C10   12   0.002  -0.032   0.065
    1UNL     O3   13  -0.136  -0.051   0.063
    1UNL    C11   14  -0.158  -0.185   0.060
    1UNL     O4   15  -0.067  -0.263   0.039
    1UNL    C12   16  -0.307  -0.212   0.058
    1UNL    C13   17  -0.340  -0.305  -0.053
    1UNL    C14   18  -0.346  -0.276   0.189
    1UNL    C15   19   0.216   0.056  -0.050
    1UNL     O5   20   0.297  -0.055  -0.030
    1UNL    C16   21   0.298  -0.080   0.099
    1UNL     O6   22   0.245  -0.013   0.185
    1UNL    C17   23   0.364  -0.208   0.147
    1UNL    C18   24   0.273  -0.327   0.114
    1UNL    C19   25   0.502  -0.212   0.076
    1UNL     H1   26   0.122   0.509   0.077
    1UNL     H2   27   0.205   0.385   0.175
    1UNL     H3   28   0.028   0.394   0.161
    1UNL     H4   29  -0.073   0.478  -0.082
    1UNL     H5   30  -0.336   0.509  -0.181
    1UNL     H6   31  -0.240   0.513  -0.316
    1UNL     H7   32  -0.369   0.395  -0.303
    1UNL     H8   33  -0.303   0.194  -0.295
    1UNL     H9   34  -0.144   0.002  -0.219
    1UNL    H10   35   0.019  -0.159  -0.130
    1UNL    H11   36   0.064  -0.119   0.097
    1UNL    H12   37   0.017   0.045   0.138
    1UNL    H13   38  -0.349  -0.116   0.048
    1UNL    H14   39  -0.357  -0.261  -0.152
    1UNL    H15   40  -0.441  -0.347  -0.028
    1UNL    H16   41  -0.273  -0.386  -0.068
    1UNL    H17   42  -0.457  -0.281   0.200
    1UNL    H18   43  -0.314  -0.220   0.283
    1UNL    H19   44  -0.304  -0.376   0.207
    1UNL    H20   45   0.253   0.105  -0.143
    1UNL    H21   46   0.234   0.122   0.035
    1UNL    H22   47   0.375  -0.201   0.254
    1UNL    H23   48   0.172  -0.311   0.172
    1UNL    H24   49   0.321  -0.423   0.149
    1UNL    H25   50   0.248  -0.341   0.008
    1UNL    H26   51   0.484  -0.217  -0.030
    1UNL    H27   52   0.568  -0.289   0.117
    1UNL    H28   53   0.562  -0.118   0.086
   0.00000   0.00000   0.00000   0.00000   0.00000   0.00000   0.00000   0.00000   0.00000
Generated with MDTraj, t= 31.0
 53
    1UNL     C1    1   0.075   0.419   0.081
    1UNL     O1    2   0.114   0.311   0.003
    1UNL     C2    3   0.006   0.276  -0.083
    1UNL     C3    4  -0.070   0.374  -0.149
    1UNL     C4    5  -0.192   0.355  -0.213
    1UNL     C5    6  -0.275   0.480  -0.247
    1UNL     C6    7  -0.227   0.216  -0.226
    1UNL     C7    8  -0.141   0.118  -0.188
    1UNL     C8    9  -0.027   0.145  -0.116
    1UNL     C9   10   0.052   0.026  -0.058
    1UNL     O2   11   0.032  -0.093  -0.147
    1UNL    C10   12  -0.008   0.003   0.085
    1UNL     O3   13  -0.139  -0.044   0.085
    1UNL    C11   14  -0.141  -0.179   0.061
    1UNL     O4   15  -0.042  -0.246   0.038
    1UNL    C12   16  -0.289  -0.232   0.062
    1UNL    C13   17  -0.325  -0.306  -0.070
    1UNL    C14   18  -0.312  -0.309   0.189
    1UNL    C15   19   0.201   0.050  -0.041
    1UNL     O5   20   0.271  -0.067  -0.026
    1UNL    C16   21   0.304  -0.091   0.105
    1UNL     O6   22   0.260  -0.019   0.194
    1UNL    C17   23   0.358  -0.229   0.142
    1UNL    C18   24   0.265  -0.332   0.087
    1UNL    C19   25   0.496  -0.232   0.082
    1UNL     H1   26   0.078   0.515   0.029
    1UNL     H2   27   0.140   0.428   0.169
    1UNL     H3   28  -0.023   0.389   0.113
    1UNL     H4   29  -0.044   0.474  -0.117
    1UNL     H5   30  -0.226   0.578  -0.241
    1UNL     H6   31  -0.306   0.485  -0.353
    1UNL     H7   32  -0.371   0.468  -0.194
    1UNL     H8   33  -0.329   0.187  -0.255
    1UNL     H9   34  -0.168   0.014  -0.182
    1UNL    H10   35   0.069  -0.171  -0.102
    1UNL    H11   36   0.048  -0.075   0.136
    1UNL    H12   37  -0.001   0.094   0.141
    1UNL    H13   38  -0.349  -0.146   0.067
    1UNL    H14   39  -0.285  -0.229  -0.155
    1UNL    H15   40  -0.430  -0.321  -0.071
    1UNL    H16   41  -0.272  -0.397  -0.089
    1UNL    H17   42  -0.409  -0.359   0.184
    1UNL    H18   43  -0.325  -0.244   0.283
    1UNL    H19   44  -0.231  -0.381   0.215
    1UNL    H20   45   0.244   0.102  -0.125
    1UNL    H21   46   0.216   0.110   0.048
    1UNL    H22   47   0.350  -0.236   0.249
    1UNL    H23   48   0.157  -0.297   0.114
    1UNL    H24   49   0.288  -0.439   0.119
    1UNL    H25   50   0.275  -0.336  -0.021
    1UNL    H26   51   0.499  -0.195  -0.019
    1UNL    H27   52   0.560  -0.320   0.103
    1UNL    H28   53   0.546  -0.151   0.139
   0.00000   0.00000   0.00000   0.00000   0.00000   0.00000   0.00000   0.00000   0.00000
Generated with MDTraj, t= 32.0
 53
    1UNL     C1    1   0.127   0.425   0.091
    1UNL     O1    2   0.111   0.316  -0.006
    1UNL     C2    3  -0.003   0.295  -0.083
    1UNL     C3    4  -0.085   0.396  -0.129
    1UNL     C4    5  -0.189   0.366  -0.214
    1UNL     C5    6  -0.265   0.478  -0.288
    1UNL     C6    7  -0.211   0.234  -0.256
    1UNL     C7    8  -0.145   0.128  -0.193
    1UNL     C8    9  -0.037   0.158  -0.112
    1UNL     C9   10   0.034   0.038  -0.052
    1UNL     O2   11   0.009  -0.079  -0.128
    1UNL    C10   12  -0.020   0.007   0.091
    1UNL     O3   13  -0.151  -0.045   0.091
    1UNL    C11   14  -0.140  -0.180   0.083
    1UNL     O4   15  -0.037  -0.244   0.099
    1UNL    C12   16  -0.275  -0.256   0.065
    1UNL    C13   17  -0.284  -0.315  -0.078
    1UNL    C14   18  -0.291  -0.370   0.176
    1UNL    C15   19   0.191   0.048  -0.046
    1UNL     O5   20   0.258  -0.075  -0.030
    1UNL    C16   21   0.285  -0.096   0.101
    1UNL     O6   22   0.275  -0.010   0.187
    1UNL    C17   23   0.343  -0.230   0.133
    1UNL    C18   24   0.243  -0.341   0.062
    1UNL    C19   25   0.493  -0.237   0.093
    1UNL     H1   26   0.198   0.501   0.050
    1UNL     H2   27   0.174   0.400   0.189
    1UNL     H3   28   0.027   0.460   0.108
    1UNL     H4   29  -0.068   0.500  -0.111
    1UNL     H5   30  -0.205   0.518  -0.369
    1UNL     H6   31  -0.347   0.423  -0.335
    1UNL     H7   32  -0.299   0.551  -0.213
    1UNL     H8   33  -0.302   0.224  -0.311
    1UNL     H9   34  -0.183   0.029  -0.207
    1UNL    H10   35   0.021  -0.150  -0.061
    1UNL    H11   36   0.045  -0.065   0.140
    1UNL    H12   37  -0.024   0.091   0.154
    1UNL    H13   38  -0.353  -0.189   0.080
    1UNL    H14   39  -0.258  -0.224  -0.149
    1UNL    H15   40  -0.378  -0.362  -0.082
    1UNL    H16   41  -0.203  -0.386  -0.095
    1UNL    H17   42  -0.394  -0.409   0.161
    1UNL    H18   43  -0.289  -0.327   0.278
    1UNL    H19   44  -0.210  -0.448   0.168
    1UNL    H20   45   0.229   0.086  -0.137
    1UNL    H21   46   0.222   0.120   0.023
    1UNL    H22   47   0.324  -0.239   0.237
    1UNL    H23   48   0.152  -0.349   0.128
    1UNL    H24   49   0.289  -0.441   0.035
    1UNL    H25   50   0.204  -0.310  -0.039
    1UNL    H26   51   0.512  -0.213  -0.011
    1UNL    H27   52   0.517  -0.345   0.111
    1UNL    H28   53   0.566  -0.183   0.154
   0.00000   0.00000   0.00000   0.00000   0.00000   0.00000   0.00000   0.00000   0.00000
Generated with MDTraj, t= 33.0
 53
    1UNL     C1    1   0.127   0.432   0.057
    1UNL     O1    2   0.087   0.302   0.030
    1UNL     C2    3  -0.007   0.283  -0.079
    1UNL     C3    4  -0.056   0.394  -0.148
    1UNL     C4    5  -0.161   0.384  -0.239
    1UNL     C5    6  -0.239   0.514  -0.283
    1UNL     C6    7  -0.210   0.259  -0.261
    1UNL     C7    8  -0.153   0.143  -0.201
    1UNL     C8    9  -0.054   0.155  -0.107
    1UNL     C9   10   0.023   0.028  -0.051
    1UNL     O2   11   0.001  -0.088  -0.127
    1UNL    C10   12  -0.020   0.011   0.093
    1UNL     O3   13  -0.145  -0.055   0.108
    1UNL    C11   14  -0.132  -0.192   0.110
    1UNL     O4   15  -0.027  -0.250   0.120
    1UNL    C12   16  -0.253  -0.271   0.075
    1UNL    C13   17  -0.251  -0.311  -0.068
    1UNL    C14   18  -0.254  -0.398   0.159
    1UNL    C15   19   0.174   0.045  -0.064
    1UNL     O5   20   0.240  -0.076  -0.041
    1UNL    C16   21   0.257  -0.092   0.095
    1UNL     O6   22   0.252  -0.015   0.190
    1UNL    C17   23   0.323  -0.227   0.127
    1UNL    C18   24   0.243  -0.333   0.065
    1UNL    C19   25   0.467  -0.229   0.087
    1UNL     H1   26   0.143   0.483  -0.043
    1UNL     H2   27   0.233   0.438   0.092
    1UNL     H3   28   0.056   0.474   0.127
    1UNL     H4   29  -0.009   0.489  -0.129
    1UNL     H5   30  -0.263   0.511  -0.391
    1UNL     H6   31  -0.330   0.499  -0.228
    1UNL     H7   32  -0.177   0.600  -0.253
    1UNL     H8   33  -0.309   0.244  -0.300
    1UNL     H9   34  -0.196   0.045  -0.220
    1UNL    H10   35   0.002  -0.158  -0.059
    1UNL    H11   36   0.044  -0.050   0.158
    1UNL    H12   37  -0.029   0.107   0.139
    1UNL    H13   38  -0.334  -0.210   0.094
    1UNL    H14   39  -0.251  -0.226  -0.128
    1UNL    H15   40  -0.327  -0.386  -0.081
    1UNL    H16   41  -0.149  -0.356  -0.095
    1UNL    H17   42  -0.359  -0.440   0.149
    1UNL    H18   43  -0.242  -0.364   0.262
    1UNL    H19   44  -0.167  -0.467   0.133
    1UNL    H20   45   0.198   0.088  -0.157
    1UNL    H21   46   0.208   0.118   0.005
    1UNL    H22   47   0.312  -0.243   0.231
    1UNL    H23   48   0.145  -0.290   0.048
    1UNL    H24   49   0.234  -0.432   0.122
    1UNL    H25   50   0.289  -0.377  -0.032
    1UNL    H26   51   0.480  -0.220  -0.021
    1UNL    H27   52   0.518  -0.318   0.133
    1UNL    H28   53   0.514  -0.146   0.138
   0.00000   0.00000   0.00000   0.00000   0.00000   0.00000   0.00000   0.00000   0.00000
Generated with MDTraj, t= 34.0
 53
    1UNL     C1    1   0.170   0.402   0.049
    1UNL     O1    2   0.084   0.291   0.038
    1UNL     C2    3  -0.020   0.290  -0.057
    1UNL     C3    4  -0.079   0.406  -0.117
    1UNL     C4    5  -0.171   0.390  -0.221
    1UNL     C5    6  -0.211   0.506  -0.304
    1UNL     C6    7  -0.196   0.262  -0.275
    1UNL     C7    8  -0.148   0.147  -0.210
    1UNL     C8    9  -0.057   0.162  -0.112
    1UNL     C9   10   0.007   0.039  -0.055
    1UNL     O2   11  -0.023  -0.085  -0.127
    1UNL    C10   12  -0.039   0.026   0.090
    1UNL     O3   13  -0.160  -0.053   0.104
    1UNL    C11   14  -0.132  -0.186   0.100
    1UNL     O4   15  -0.022  -0.236   0.096
    1UNL    C12   16  -0.251  -0.282   0.089
    1UNL    C13   17  -0.270  -0.312  -0.062
    1UNL    C14   18  -0.221  -0.406   0.171
    1UNL    C15   19   0.161   0.043  -0.063
    1UNL     O5   20   0.217  -0.086  -0.035
    1UNL    C16   21   0.265  -0.100   0.096
    1UNL     O6   22   0.234  -0.019   0.180
    1UNL    C17   23   0.334  -0.228   0.133
    1UNL    C18   24   0.259  -0.349   0.061
    1UNL    C19   25   0.490  -0.200   0.102
    1UNL     H1   26   0.275   0.358   0.034
    1UNL     H2   27   0.171   0.448   0.149
    1UNL     H3   28   0.141   0.472  -0.026
    1UNL     H4   29  -0.066   0.502  -0.070
    1UNL     H5   30  -0.307   0.491  -0.358
    1UNL     H6   31  -0.230   0.596  -0.250
    1UNL     H7   32  -0.136   0.515  -0.385
    1UNL     H8   33  -0.260   0.247  -0.363
    1UNL     H9   34  -0.187   0.051  -0.239
    1UNL    H10   35   0.032  -0.152  -0.075
    1UNL    H11   36   0.036  -0.027   0.152
    1UNL    H12   37  -0.061   0.121   0.140
    1UNL    H13   38  -0.334  -0.231   0.120
    1UNL    H14   39  -0.260  -0.235  -0.125
    1UNL    H15   40  -0.359  -0.373  -0.082
    1UNL    H16   41  -0.187  -0.375  -0.108
    1UNL    H17   42  -0.298  -0.488   0.153
    1UNL    H18   43  -0.219  -0.390   0.281
    1UNL    H19   44  -0.117  -0.438   0.146
    1UNL    H20   45   0.193   0.070  -0.162
    1UNL    H21   46   0.201   0.122  -0.004
    1UNL    H22   47   0.318  -0.240   0.237
    1UNL    H23   48   0.166  -0.390   0.100
    1UNL    H24   49   0.337  -0.431   0.050
    1UNL    H25   50   0.244  -0.333  -0.052
    1UNL    H26   51   0.498  -0.195  -0.008
    1UNL    H27   52   0.565  -0.266   0.151
    1UNL    H28   53   0.511  -0.100   0.136
   0.00000   0.00000   0.00000   0.00000   0.00000   0.00000   0.00000   0.00000   0.00000
Generated with MDTraj, t= 35.0
 53
    1UNL     C1    1   0.178   0.394   0.047
    1UNL     O1    2   0.073   0.294   0.048
    1UNL     C2    3  -0.013   0.285  -0.064
    1UNL     C3    4  -0.074   0.402  -0.120
    1UNL     C4    5  -0.145   0.402  -0.236
    1UNL     C5    6  -0.209   0.523  -0.289
    1UNL     C6    7  -0.181   0.277  -0.288
    1UNL     C7    8  -0.138   0.155  -0.229
    1UNL     C8    9  -0.054   0.159  -0.122
    1UNL     C9   10   0.004   0.033  -0.056
    1UNL     O2   11  -0.027  -0.080  -0.135
    1UNL    C10   12  -0.046   0.007   0.091
    1UNL     O3   13  -0.161  -0.075   0.093
    1UNL    C11   14  -0.134  -0.211   0.087
    1UNL     O4   15  -0.025  -0.265   0.071
    1UNL    C12   16  -0.264  -0.298   0.110
    1UNL    C13   17  -0.317  -0.322  -0.033
    1UNL    C14   18  -0.239  -0.422   0.193
    1UNL    C15   19   0.158   0.052  -0.058
    1UNL     O5   20   0.227  -0.071  -0.037
    1UNL    C16   21   0.268  -0.082   0.096
    1UNL     O6   22   0.242  -0.012   0.190
    1UNL    C17   23   0.347  -0.206   0.128
    1UNL    C18   24   0.283  -0.324   0.058
    1UNL    C19   25   0.490  -0.193   0.107
    1UNL     H1   26   0.210   0.418   0.153
    1UNL     H2   27   0.140   0.482  -0.002
    1UNL     H3   28   0.256   0.355  -0.012
    1UNL     H4   29  -0.070   0.494  -0.065
    1UNL     H5   30  -0.277   0.575  -0.219
    1UNL     H6   31  -0.159   0.606  -0.335
    1UNL     H7   32  -0.286   0.493  -0.362
    1UNL     H8   33  -0.252   0.273  -0.367
    1UNL     H9   34  -0.188   0.059  -0.247
    1UNL    H10   35  -0.021  -0.155  -0.075
    1UNL    H11   36   0.033  -0.040   0.156
    1UNL    H12   37  -0.070   0.104   0.140
    1UNL    H13   38  -0.330  -0.234   0.154
    1UNL    H14   39  -0.325  -0.232  -0.098
    1UNL    H15   40  -0.410  -0.377  -0.037
    1UNL    H16   41  -0.250  -0.379  -0.093
    1UNL    H17   42  -0.326  -0.490   0.217
    1UNL    H18   43  -0.190  -0.403   0.294
    1UNL    H19   44  -0.159  -0.475   0.138
    1UNL    H20   45   0.191   0.093  -0.154
    1UNL    H21   46   0.188   0.131   0.014
    1UNL    H22   47   0.341  -0.222   0.234
    1UNL    H23   48   0.176  -0.319   0.085
    1UNL    H24   49   0.308  -0.423   0.103
    1UNL    H25   50   0.285  -0.329  -0.055
    1UNL    H26   51   0.506  -0.129   0.018
    1UNL    H27   52   0.535  -0.290   0.090
    1UNL    H28   53   0.545  -0.148   0.190
   0.00000   0.00000   0.00000   0.00000   0.00000   0.00000   0.00000   0.00000   0.00000
Generated with MDTraj, t= 36.0
 53
    1UNL     C1    1   0.154   0.402   0.059
    1UNL     O1    2   0.067   0.289   0.061
    1UNL     C2    3  -0.019   0.281  -0.052
    1UNL     C3    4  -0.069   0.397  -0.111
    1UNL     C4    5  -0.150   0.390  -0.222
    1UNL     C5    6  -0.196   0.519  -0.282
    1UNL     C6    7  -0.183   0.267  -0.279
    1UNL     C7    8  -0.143   0.151  -0.215
    1UNL     C8    9  -0.052   0.159  -0.110
    1UNL     C9   10   0.025   0.028  -0.073
    1UNL     O2   11   0.001  -0.091  -0.161
    1UNL    C10   12  -0.028  -0.010   0.062
    1UNL     O3   13  -0.151  -0.078   0.060
    1UNL    C11   14  -0.150  -0.214   0.078
    1UNL     O4   15  -0.050  -0.276   0.051
    1UNL    C12   16  -0.269  -0.289   0.118
    1UNL    C13   17  -0.356  -0.330  -0.002
    1UNL    C14   18  -0.235  -0.406   0.199
    1UNL    C15   19   0.176   0.054  -0.065
    1UNL     O5   20   0.248  -0.061  -0.036
    1UNL    C16   21   0.265  -0.075   0.097
    1UNL     O6   22   0.247   0.007   0.182
    1UNL    C17   23   0.339  -0.200   0.131
    1UNL    C18   24   0.269  -0.319   0.064
    1UNL    C19   25   0.491  -0.181   0.106
    1UNL     H1   26   0.101   0.488   0.109
    1UNL     H2   27   0.184   0.428  -0.040
    1UNL     H3   28   0.238   0.384   0.118
    1UNL     H4   29  -0.034   0.492  -0.073
    1UNL     H5   30  -0.131   0.610  -0.271
    1UNL     H6   31  -0.237   0.511  -0.382
    1UNL     H7   32  -0.283   0.547  -0.219
    1UNL     H8   33  -0.257   0.247  -0.359
    1UNL     H9   34  -0.160   0.054  -0.254
    1UNL    H10   35  -0.008  -0.171  -0.100
    1UNL    H11   36   0.047  -0.080   0.110
    1UNL    H12   37  -0.025   0.082   0.126
    1UNL    H13   38  -0.323  -0.219   0.173
    1UNL    H14   39  -0.416  -0.241  -0.056
    1UNL    H15   40  -0.421  -0.406   0.036
    1UNL    H16   41  -0.298  -0.370  -0.074
    1UNL    H17   42  -0.327  -0.454   0.243
    1UNL    H18   43  -0.170  -0.369   0.286
    1UNL    H19   44  -0.174  -0.474   0.135
    1UNL    H20   45   0.216   0.093  -0.163
    1UNL    H21   46   0.205   0.132   0.012
    1UNL    H22   47   0.337  -0.209   0.239
    1UNL    H23   48   0.156  -0.307   0.085
    1UNL    H24   49   0.299  -0.415   0.110
    1UNL    H25   50   0.286  -0.313  -0.043
    1UNL    H26   51   0.519  -0.191   0.000
    1UNL    H27   52   0.548  -0.254   0.160
    1UNL    H28   53   0.534  -0.083   0.133
   0.00000   0.00000   0.00000   0.00000   0.00000   0.00000   0.00000   0.00000   0.00000
Generated with MDTraj, t= 37.0
 53
    1UNL     C1    1   0.124   0.390   0.113
    1UNL     O1    2   0.075   0.273   0.047
    1UNL     C2    3  -0.018   0.280  -0.060
    1UNL     C3    4  -0.078   0.392  -0.111
    1UNL     C4    5  -0.164   0.389  -0.218
    1UNL     C5    6  -0.237   0.504  -0.288
    1UNL     C6    7  -0.191   0.266  -0.279
    1UNL     C7    8  -0.130   0.149  -0.231
    1UNL     C8    9  -0.038   0.151  -0.122
    1UNL     C9   10   0.036   0.028  -0.081
    1UNL     O2   11   0.008  -0.077  -0.171
    1UNL    C10   12  -0.006  -0.010   0.066
    1UNL     O3   13  -0.137  -0.059   0.080
    1UNL    C11   14  -0.144  -0.196   0.063
    1UNL     O4   15  -0.067  -0.277   0.012
    1UNL    C12   16  -0.270  -0.263   0.119
    1UNL    C13   17  -0.358  -0.322   0.003
    1UNL    C14   18  -0.241  -0.383   0.207
    1UNL    C15   19   0.185   0.048  -0.079
    1UNL     O5   20   0.261  -0.062  -0.038
    1UNL    C16   21   0.280  -0.078   0.099
    1UNL     O6   22   0.250   0.003   0.182
    1UNL    C17   23   0.342  -0.208   0.145
    1UNL    C18   24   0.265  -0.326   0.092
    1UNL    C19   25   0.494  -0.199   0.103
    1UNL     H1   26   0.044   0.419   0.187
    1UNL     H2   27   0.140   0.473   0.049
    1UNL     H3   28   0.206   0.367   0.175
    1UNL     H4   29  -0.067   0.486  -0.064
    1UNL     H5   30  -0.234   0.500  -0.399
    1UNL     H6   31  -0.339   0.495  -0.245
    1UNL     H7   32  -0.180   0.593  -0.257
    1UNL     H8   33  -0.262   0.264  -0.356
    1UNL     H9   34  -0.153   0.057  -0.288
    1UNL    H10   35  -0.023  -0.150  -0.113
    1UNL    H11   36   0.076  -0.074   0.108
    1UNL    H12   37  -0.004   0.082   0.128
    1UNL    H13   38  -0.325  -0.194   0.173
    1UNL    H14   39  -0.353  -0.263  -0.096
    1UNL    H15   40  -0.457  -0.337   0.042
    1UNL    H16   41  -0.314  -0.418  -0.018
    1UNL    H17   42  -0.339  -0.432   0.236
    1UNL    H18   43  -0.187  -0.348   0.300
    1UNL    H19   44  -0.179  -0.452   0.143
    1UNL    H20   45   0.234   0.076  -0.179
    1UNL    H21   46   0.213   0.134  -0.007
    1UNL    H22   47   0.346  -0.195   0.254
    1UNL    H23   48   0.155  -0.338   0.127
    1UNL    H24   49   0.319  -0.422   0.115
    1UNL    H25   50   0.272  -0.298  -0.011
    1UNL    H26   51   0.505  -0.186  -0.004
    1UNL    H27   52   0.558  -0.276   0.141
    1UNL    H28   53   0.533  -0.102   0.139
   0.00000   0.00000   0.00000   0.00000   0.00000   0.00000   0.00000   0.00000   0.00000
Generated with MDTraj, t= 38.0
 53
    1UNL     C1    1   0.048   0.396   0.127
    1UNL     O1    2   0.091   0.296   0.043
    1UNL     C2    3  -0.002   0.276  -0.067
    1UNL     C3    4  -0.085   0.372  -0.102
    1UNL     C4    5  -0.174   0.370  -0.206
    1UNL     C5    6  -0.258   0.490  -0.243
    1UNL     C6    7  -0.182   0.251  -0.277
    1UNL     C7    8  -0.107   0.145  -0.239
    1UNL     C8    9  -0.018   0.153  -0.134
    1UNL     C9   10   0.048   0.023  -0.086
    1UNL     O2   11   0.013  -0.098  -0.159
    1UNL    C10   12  -0.010   0.000   0.060
    1UNL     O3   13  -0.139  -0.050   0.058
    1UNL    C11   14  -0.145  -0.188   0.062
    1UNL     O4   15  -0.053  -0.264   0.041
    1UNL    C12   16  -0.279  -0.246   0.103
    1UNL    C13   17  -0.351  -0.310  -0.017
    1UNL    C14   18  -0.265  -0.345   0.217
    1UNL    C15   19   0.201   0.046  -0.086
    1UNL     O5   20   0.266  -0.070  -0.047
    1UNL    C16   21   0.293  -0.074   0.087
    1UNL     O6   22   0.268   0.003   0.175
    1UNL    C17   23   0.353  -0.211   0.139
    1UNL    C18   24   0.259  -0.328   0.103
    1UNL    C19   25   0.491  -0.224   0.091
    1UNL     H1   26  -0.066   0.394   0.139
    1UNL     H2   27   0.084   0.493   0.099
    1UNL     H3   28   0.073   0.373   0.228
    1UNL     H4   29  -0.078   0.464  -0.043
    1UNL     H5   30  -0.359   0.454  -0.269
    1UNL     H6   31  -0.272   0.552  -0.152
    1UNL     H7   32  -0.215   0.542  -0.330
    1UNL     H8   33  -0.239   0.245  -0.372
    1UNL     H9   34  -0.124   0.048  -0.278
    1UNL    H10   35  -0.008  -0.169  -0.099
    1UNL    H11   36   0.048  -0.078   0.115
    1UNL    H12   37  -0.006   0.093   0.116
    1UNL    H13   38  -0.331  -0.165   0.146
    1UNL    H14   39  -0.395  -0.242  -0.083
    1UNL    H15   40  -0.433  -0.375   0.015
    1UNL    H16   41  -0.275  -0.371  -0.081
    1UNL    H17   42  -0.366  -0.378   0.259
    1UNL    H18   43  -0.210  -0.303   0.304
    1UNL    H19   44  -0.213  -0.439   0.177
    1UNL    H20   45   0.245   0.083  -0.186
    1UNL    H21   46   0.231   0.126  -0.010
    1UNL    H22   47   0.366  -0.200   0.250
    1UNL    H23   48   0.156  -0.307   0.144
    1UNL    H24   49   0.281  -0.428   0.151
    1UNL    H25   50   0.249  -0.327  -0.004
    1UNL    H26   51   0.489  -0.188  -0.010
    1UNL    H27   52   0.526  -0.326   0.101
    1UNL    H28   53   0.558  -0.153   0.140
   0.00000   0.00000   0.00000   0.00000   0.00000   0.00000   0.00000   0.00000   0.00000
Generated with MDTraj, t= 39.0
 53
    1UNL     C1    1   0.043   0.351   0.154
    1UNL     O1    2   0.077   0.282   0.036
    1UNL     C2    3  -0.018   0.270  -0.065
    1UNL     C3    4  -0.098   0.383  -0.103
    1UNL     C4    5  -0.181   0.361  -0.211
    1UNL     C5    6  -0.272   0.465  -0.250
    1UNL     C6    7  -0.189   0.239  -0.276
    1UNL     C7    8  -0.117   0.133  -0.235
    1UNL     C8    9  -0.025   0.148  -0.132
    1UNL     C9   10   0.054   0.032  -0.085
    1UNL     O2   11   0.034  -0.087  -0.170
    1UNL    C10   12   0.011  -0.002   0.062
    1UNL     O3   13  -0.124  -0.039   0.064
    1UNL    C11   14  -0.135  -0.177   0.080
    1UNL     O4   15  -0.040  -0.249   0.084
    1UNL    C12   16  -0.278  -0.227   0.084
    1UNL    C13   17  -0.306  -0.290  -0.045
    1UNL    C14   18  -0.302  -0.304   0.212
    1UNL    C15   19   0.201   0.064  -0.075
    1UNL     O5   20   0.270  -0.056  -0.044
    1UNL    C16   21   0.293  -0.082   0.087
    1UNL     O6   22   0.278  -0.002   0.176
    1UNL    C17   23   0.350  -0.217   0.121
    1UNL    C18   24   0.240  -0.333   0.103
    1UNL    C19   25   0.491  -0.249   0.068
    1UNL     H1   26  -0.059   0.313   0.193
    1UNL     H2   27   0.025   0.455   0.128
    1UNL     H3   28   0.110   0.336   0.238
    1UNL     H4   29  -0.101   0.477  -0.051
    1UNL     H5   30  -0.364   0.458  -0.191
    1UNL     H6   31  -0.251   0.574  -0.237
    1UNL     H7   32  -0.305   0.453  -0.352
    1UNL     H8   33  -0.262   0.228  -0.352
    1UNL     H9   34  -0.110   0.043  -0.298
    1UNL    H10   35   0.034  -0.167  -0.110
    1UNL    H11   36   0.065  -0.089   0.099
    1UNL    H12   37   0.015   0.083   0.129
    1UNL    H13   38  -0.330  -0.135   0.095
    1UNL    H14   39  -0.288  -0.231  -0.125
    1UNL    H15   40  -0.415  -0.307  -0.060
    1UNL    H16   41  -0.245  -0.390  -0.062
    1UNL    H17   42  -0.405  -0.354   0.220
    1UNL    H18   43  -0.305  -0.240   0.304
    1UNL    H19   44  -0.229  -0.391   0.234
    1UNL    H20   45   0.240   0.093  -0.176
    1UNL    H21   46   0.236   0.143  -0.003
    1UNL    H22   47   0.362  -0.205   0.234
    1UNL    H23   48   0.147  -0.317   0.158
    1UNL    H24   49   0.270  -0.429   0.151
    1UNL    H25   50   0.213  -0.350  -0.005
    1UNL    H26   51   0.476  -0.276  -0.034
    1UNL    H27   52   0.535  -0.333   0.124
    1UNL    H28   53   0.561  -0.167   0.057
   0.00000   0.00000   0.00000   0.00000   0.00000   0.00000   0.00000   0.00000   0.00000
Generated with MDTraj, t= 40.0
 53
    1UNL     C1    1   0.023   0.371   0.156
    1UNL     O1    2   0.078   0.289   0.054
    1UNL     C2    3  -0.006   0.268  -0.056
    1UNL     C3    4  -0.092   0.371  -0.108
    1UNL     C4    5  -0.191   0.344  -0.208
    1UNL     C5    6  -0.281   0.447  -0.261
    1UNL     C6    7  -0.192   0.218  -0.271
    1UNL     C7    8  -0.106   0.123  -0.223
    1UNL     C8    9  -0.023   0.139  -0.114
    1UNL     C9   10   0.061   0.021  -0.058
    1UNL     O2   11   0.032  -0.089  -0.146
    1UNL    C10   12   0.016   0.003   0.089
    1UNL     O3   13  -0.123  -0.027   0.094
    1UNL    C11   14  -0.136  -0.156   0.079
    1UNL     O4   15  -0.053  -0.242   0.082
    1UNL    C12   16  -0.284  -0.208   0.059
    1UNL    C13   17  -0.287  -0.306  -0.059
    1UNL    C14   18  -0.331  -0.285   0.187
    1UNL    C15   19   0.206   0.058  -0.083
    1UNL     O5   20   0.284  -0.064  -0.056
    1UNL    C16   21   0.302  -0.087   0.078
    1UNL     O6   22   0.281  -0.008   0.169
    1UNL    C17   23   0.358  -0.217   0.117
    1UNL    C18   24   0.249  -0.305   0.103
    1UNL    C19   25   0.472  -0.256   0.029
    1UNL     H1   26  -0.088   0.349   0.174
    1UNL     H2   27   0.027   0.473   0.115
    1UNL     H3   28   0.068   0.351   0.253
    1UNL     H4   29  -0.074   0.471  -0.074
    1UNL     H5   30  -0.320   0.503  -0.176
    1UNL     H6   31  -0.248   0.532  -0.327
    1UNL     H7   32  -0.365   0.397  -0.308
    1UNL     H8   33  -0.250   0.207  -0.364
    1UNL     H9   34  -0.089   0.028  -0.269
    1UNL    H10   35   0.018  -0.166  -0.088
    1UNL    H11   36   0.064  -0.077   0.143
    1UNL    H12   37   0.020   0.100   0.138
    1UNL    H13   38  -0.349  -0.127   0.040
    1UNL    H14   39  -0.243  -0.262  -0.147
    1UNL    H15   40  -0.392  -0.321  -0.101
    1UNL    H16   41  -0.229  -0.396  -0.035
    1UNL    H17   42  -0.436  -0.327   0.175
    1UNL    H18   43  -0.338  -0.223   0.283
    1UNL    H19   44  -0.268  -0.378   0.204
    1UNL    H20   45   0.226   0.074  -0.188
    1UNL    H21   46   0.237   0.148  -0.028
    1UNL    H22   47   0.378  -0.219   0.231
    1UNL    H23   48   0.166  -0.298   0.172
    1UNL    H24   49   0.292  -0.405   0.124
    1UNL    H25   50   0.216  -0.301  -0.008
    1UNL    H26   51   0.459  -0.219  -0.070
    1UNL    H27   52   0.505  -0.362   0.034
    1UNL    H28   53   0.553  -0.190   0.055
   0.00000   0.00000   0.00000   0.00000   0.00000   0.00000   0.00000   0.00000   0.00000
Generated with MDTraj, t= 41.0
 53
    1UNL     C1    1   0.030   0.409   0.122
    1UNL     O1    2   0.052   0.293   0.051
    1UNL     C2    3  -0.037   0.271  -0.053
    1UNL     C3    4  -0.117   0.375  -0.102
    1UNL     C4    5  -0.194   0.349  -0.214
    1UNL     C5    6  -0.274   0.461  -0.277
    1UNL     C6    7  -0.199   0.219  -0.265
    1UNL     C7    8  -0.112   0.122  -0.217
    1UNL     C8    9  -0.023   0.144  -0.115
    1UNL     C9   10   0.065   0.031  -0.053
    1UNL     O2   11   0.043  -0.100  -0.125
    1UNL    C10   12   0.017   0.005   0.094
    1UNL     O3   13  -0.119  -0.039   0.101
    1UNL    C11   14  -0.148  -0.179   0.081
    1UNL     O4   15  -0.058  -0.260   0.084
    1UNL    C12   16  -0.289  -0.206   0.045
    1UNL    C13   17  -0.304  -0.310  -0.067
    1UNL    C14   18  -0.348  -0.270   0.173
    1UNL    C15   19   0.217   0.066  -0.054
    1UNL     O5   20   0.298  -0.055  -0.037
    1UNL    C16   21   0.319  -0.090   0.090
    1UNL     O6   22   0.299  -0.015   0.186
    1UNL    C17   23   0.383  -0.228   0.100
    1UNL    C18   24   0.260  -0.328   0.113
    1UNL    C19   25   0.486  -0.262  -0.010
    1UNL     H1   26  -0.078   0.424   0.147
    1UNL     H2   27   0.066   0.488   0.053
    1UNL     H3   28   0.081   0.392   0.216
    1UNL     H4   29  -0.124   0.474  -0.054
    1UNL     H5   30  -0.220   0.550  -0.246
    1UNL     H6   31  -0.286   0.464  -0.387
    1UNL     H7   32  -0.370   0.450  -0.226
    1UNL     H8   33  -0.254   0.208  -0.356
    1UNL     H9   34  -0.106   0.025  -0.263
    1UNL    H10   35   0.017  -0.170  -0.063
    1UNL    H11   36   0.068  -0.081   0.135
    1UNL    H12   37   0.025   0.086   0.164
    1UNL    H13   38  -0.334  -0.112   0.023
    1UNL    H14   39  -0.295  -0.247  -0.164
    1UNL    H15   40  -0.411  -0.348  -0.076
    1UNL    H16   41  -0.225  -0.374  -0.057
    1UNL    H17   42  -0.461  -0.268   0.168
    1UNL    H18   43  -0.314  -0.207   0.265
    1UNL    H19   44  -0.315  -0.378   0.173
    1UNL    H20   45   0.239   0.103  -0.150
    1UNL    H21   46   0.252   0.137   0.017
    1UNL    H22   47   0.428  -0.230   0.206
    1UNL    H23   48   0.198  -0.311   0.201
    1UNL    H24   49   0.285  -0.435   0.123
    1UNL    H25   50   0.199  -0.309   0.020
    1UNL    H26   51   0.444  -0.247  -0.108
    1UNL    H27   52   0.519  -0.366   0.007
    1UNL    H28   53   0.567  -0.192  -0.014
   0.00000   0.00000   0.00000   0.00000   0.00000   0.00000   0.00000   0.00000   0.00000
Generated with MDTraj, t= 42.0
 53
    1UNL     C1    1   0.076   0.430   0.107
    1UNL     O1    2   0.052   0.292   0.072
    1UNL     C2    3  -0.023   0.274  -0.048
    1UNL     C3    4  -0.110   0.367  -0.105
    1UNL     C4    5  -0.186   0.339  -0.217
    1UNL     C5    6  -0.280   0.437  -0.284
    1UNL     C6    7  -0.181   0.216  -0.271
    1UNL     C7    8  -0.101   0.119  -0.214
    1UNL     C8    9  -0.016   0.147  -0.104
    1UNL     C9   10   0.066   0.029  -0.040
    1UNL     O2   11   0.054  -0.086  -0.116
    1UNL    C10   12   0.008  -0.001   0.106
    1UNL     O3   13  -0.125  -0.040   0.096
    1UNL    C11   14  -0.153  -0.171   0.065
    1UNL     O4   15  -0.071  -0.259   0.053
    1UNL    C12   16  -0.298  -0.220   0.051
    1UNL    C13   17  -0.324  -0.316  -0.068
    1UNL    C14   18  -0.339  -0.285   0.190
    1UNL    C15   19   0.212   0.076  -0.033
    1UNL     O5   20   0.288  -0.042  -0.041
    1UNL    C16   21   0.312  -0.084   0.086
    1UNL     O6   22   0.269  -0.029   0.188
    1UNL    C17   23   0.384  -0.218   0.096
    1UNL    C18   24   0.287  -0.340   0.117
    1UNL    C19   25   0.459  -0.237  -0.031
    1UNL     H1   26  -0.019   0.481   0.128
    1UNL     H2   27   0.123   0.469   0.015
    1UNL     H3   28   0.131   0.437   0.198
    1UNL     H4   29  -0.120   0.462  -0.061
    1UNL     H5   30  -0.221   0.485  -0.360
    1UNL     H6   31  -0.374   0.395  -0.323
    1UNL     H7   32  -0.308   0.504  -0.202
    1UNL     H8   33  -0.225   0.192  -0.366
    1UNL     H9   34  -0.099   0.023  -0.268
    1UNL    H10   35   0.010  -0.161  -0.065
    1UNL    H11   36   0.059  -0.078   0.164
    1UNL    H12   37   0.008   0.087   0.168
    1UNL    H13   38  -0.364  -0.141   0.027
    1UNL    H14   39  -0.283  -0.269  -0.168
    1UNL    H15   40  -0.434  -0.317  -0.088
    1UNL    H16   41  -0.276  -0.405  -0.045
    1UNL    H17   42  -0.431  -0.351   0.178
    1UNL    H18   43  -0.368  -0.198   0.261
    1UNL    H19   44  -0.257  -0.354   0.227
    1UNL    H20   45   0.240   0.137  -0.113
    1UNL    H21   46   0.235   0.126   0.057
    1UNL    H22   47   0.454  -0.200   0.186
    1UNL    H23   48   0.213  -0.308   0.196
    1UNL    H24   49   0.326  -0.435   0.159
    1UNL    H25   50   0.229  -0.352   0.026
    1UNL    H26   51   0.389  -0.270  -0.107
    1UNL    H27   52   0.536  -0.311  -0.006
    1UNL    H28   53   0.498  -0.145  -0.070
   0.00000   0.00000   0.00000   0.00000   0.00000   0.00000   0.00000   0.00000   0.00000
Generated with MDTraj, t= 43.0
 53
    1UNL     C1    1   0.101   0.426   0.073
    1UNL     O1    2   0.049   0.295   0.066
    1UNL     C2    3  -0.030   0.273  -0.047
    1UNL     C3    4  -0.109   0.370  -0.103
    1UNL     C4    5  -0.180   0.345  -0.219
    1UNL     C5    6  -0.267   0.456  -0.273
    1UNL     C6    7  -0.189   0.219  -0.274
    1UNL     C7    8  -0.105   0.120  -0.217
    1UNL     C8    9  -0.027   0.142  -0.104
    1UNL     C9   10   0.059   0.034  -0.050
    1UNL     O2   11   0.065  -0.082  -0.143
    1UNL    C10   12  -0.007  -0.014   0.082
    1UNL     O3   13  -0.142  -0.044   0.070
    1UNL    C11   14  -0.157  -0.179   0.067
    1UNL     O4   15  -0.067  -0.261   0.053
    1UNL    C12   16  -0.296  -0.227   0.075
    1UNL    C13   17  -0.325  -0.306  -0.048
    1UNL    C14   18  -0.321  -0.308   0.197
    1UNL    C15   19   0.204   0.085  -0.014
    1UNL     O5   20   0.312  -0.007  -0.016
    1UNL    C16   21   0.305  -0.083   0.096
    1UNL     O6   22   0.230  -0.070   0.193
    1UNL    C17   23   0.388  -0.220   0.104
    1UNL    C18   24   0.296  -0.328   0.135
    1UNL    C19   25   0.459  -0.235  -0.042
    1UNL     H1   26   0.030   0.488   0.124
    1UNL     H2   27   0.124   0.455  -0.030
    1UNL     H3   28   0.183   0.414   0.140
    1UNL     H4   29  -0.096   0.472  -0.064
    1UNL     H5   30  -0.301   0.433  -0.372
    1UNL     H6   31  -0.359   0.464  -0.215
    1UNL     H7   32  -0.228   0.557  -0.284
    1UNL     H8   33  -0.242   0.203  -0.371
    1UNL     H9   34  -0.094   0.031  -0.272
    1UNL    H10   35   0.016  -0.148  -0.091
    1UNL    H11   36   0.043  -0.100   0.128
    1UNL    H12   37  -0.001   0.061   0.162
    1UNL    H13   38  -0.360  -0.143   0.070
    1UNL    H14   39  -0.315  -0.254  -0.148
    1UNL    H15   40  -0.431  -0.332  -0.052
    1UNL    H16   41  -0.257  -0.403  -0.050
    1UNL    H17   42  -0.433  -0.308   0.225
    1UNL    H18   43  -0.271  -0.271   0.292
    1UNL    H19   44  -0.299  -0.418   0.178
    1UNL    H20   45   0.241   0.161  -0.078
    1UNL    H21   46   0.199   0.127   0.083
    1UNL    H22   47   0.467  -0.199   0.185
    1UNL    H23   48   0.242  -0.322   0.237
    1UNL    H24   49   0.354  -0.423   0.143
    1UNL    H25   50   0.224  -0.327   0.058
    1UNL    H26   51   0.398  -0.196  -0.126
    1UNL    H27   52   0.495  -0.334  -0.063
    1UNL    H28   53   0.544  -0.168  -0.043
   0.00000   0.00000   0.00000   0.00000   0.00000   0.00000   0.00000   0.00000   0.00000
Generated with MDTraj, t= 44.0
 53
    1UNL     C1    1   0.108   0.446   0.073
    1UNL     O1    2   0.072   0.308   0.052
    1UNL     C2    3  -0.019   0.280  -0.053
    1UNL     C3    4  -0.098   0.380  -0.114
    1UNL     C4    5  -0.187   0.354  -0.216
    1UNL     C5    6  -0.267   0.456  -0.275
    1UNL     C6    7  -0.177   0.227  -0.268
    1UNL     C7    8  -0.103   0.127  -0.209
    1UNL     C8    9  -0.024   0.150  -0.106
    1UNL     C9   10   0.054   0.032  -0.048
    1UNL     O2   11   0.043  -0.072  -0.142
    1UNL    C10   12  -0.023  -0.006   0.087
    1UNL     O3   13  -0.152  -0.051   0.067
    1UNL    C11   14  -0.152  -0.190   0.058
    1UNL     O4   15  -0.056  -0.262   0.026
    1UNL    C12   16  -0.289  -0.247   0.084
    1UNL    C13   17  -0.332  -0.311  -0.046
    1UNL    C14   18  -0.290  -0.335   0.199
    1UNL    C15   19   0.195   0.077  -0.016
    1UNL     O5   20   0.290  -0.024  -0.016
    1UNL    C16   21   0.298  -0.092   0.102
    1UNL     O6   22   0.237  -0.052   0.198
    1UNL    C17   23   0.378  -0.221   0.106
    1UNL    C18   24   0.285  -0.340   0.144
    1UNL    C19   25   0.460  -0.234  -0.027
    1UNL     H1   26   0.024   0.499   0.109
    1UNL     H2   27   0.145   0.489  -0.022
    1UNL     H3   28   0.178   0.448   0.155
    1UNL     H4   29  -0.089   0.474  -0.067
    1UNL     H5   30  -0.371   0.426  -0.273
    1UNL     H6   31  -0.272   0.545  -0.215
    1UNL     H7   32  -0.252   0.481  -0.381
    1UNL     H8   33  -0.220   0.206  -0.360
    1UNL     H9   34  -0.091   0.029  -0.261
    1UNL    H10   35   0.002  -0.151  -0.095
    1UNL    H11   36   0.035  -0.085   0.140
    1UNL    H12   37  -0.031   0.069   0.168
    1UNL    H13   38  -0.355  -0.167   0.103
    1UNL    H14   39  -0.349  -0.245  -0.132
    1UNL    H15   40  -0.433  -0.357  -0.048
    1UNL    H16   41  -0.259  -0.395  -0.088
    1UNL    H17   42  -0.384  -0.402   0.205
    1UNL    H18   43  -0.288  -0.284   0.300
    1UNL    H19   44  -0.202  -0.410   0.188
    1UNL    H20   45   0.219   0.157  -0.087
    1UNL    H21   46   0.199   0.120   0.085
    1UNL    H22   47   0.457  -0.197   0.185
    1UNL    H23   48   0.265  -0.327   0.254
    1UNL    H24   49   0.339  -0.437   0.146
    1UNL    H25   50   0.190  -0.332   0.097
    1UNL    H26   51   0.387  -0.260  -0.107
    1UNL    H27   52   0.530  -0.314  -0.027
    1UNL    H28   53   0.506  -0.142  -0.066
   0.00000   0.00000   0.00000   0.00000   0.00000   0.00000   0.00000   0.00000   0.00000
Generated with MDTraj, t= 45.0
 53
    1UNL     C1    1   0.089   0.446   0.084
    1UNL     O1    2   0.087   0.315   0.034
    1UNL     C2    3  -0.003   0.288  -0.063
    1UNL     C3    4  -0.086   0.392  -0.123
    1UNL     C4    5  -0.181   0.368  -0.223
    1UNL     C5    6  -0.259   0.484  -0.282
    1UNL     C6    7  -0.211   0.240  -0.256
    1UNL     C7    8  -0.129   0.139  -0.208
    1UNL     C8    9  -0.027   0.162  -0.112
    1UNL     C9   10   0.044   0.044  -0.051
    1UNL     O2   11   0.030  -0.069  -0.141
    1UNL    C10   12  -0.018  -0.002   0.080
    1UNL     O3   13  -0.141  -0.065   0.074
    1UNL    C11   14  -0.138  -0.200   0.063
    1UNL     O4   15  -0.034  -0.261   0.039
    1UNL    C12   16  -0.273  -0.267   0.076
    1UNL    C13   17  -0.324  -0.319  -0.058
    1UNL    C14   18  -0.272  -0.374   0.197
    1UNL    C15   19   0.197   0.072  -0.027
    1UNL     O5   20   0.281  -0.043  -0.027
    1UNL    C16   21   0.296  -0.089   0.100
    1UNL     O6   22   0.261  -0.031   0.198
    1UNL    C17   23   0.360  -0.227   0.125
    1UNL    C18   24   0.264  -0.344   0.148
    1UNL    C19   25   0.440  -0.250   0.006
    1UNL     H1   26   0.003   0.463   0.142
    1UNL     H2   27   0.098   0.528   0.007
    1UNL     H3   28   0.169   0.442   0.158
    1UNL     H4   29  -0.077   0.496  -0.095
    1UNL     H5   30  -0.293   0.534  -0.193
    1UNL     H6   31  -0.199   0.563  -0.323
    1UNL     H7   32  -0.348   0.454  -0.342
    1UNL     H8   33  -0.285   0.223  -0.339
    1UNL     H9   34  -0.148   0.041  -0.237
    1UNL    H10   35   0.015  -0.151  -0.086
    1UNL    H11   36   0.050  -0.070   0.137
    1UNL    H12   37  -0.028   0.085   0.149
    1UNL    H13   38  -0.341  -0.196   0.112
    1UNL    H14   39  -0.358  -0.243  -0.134
    1UNL    H15   40  -0.425  -0.377  -0.045
    1UNL    H16   41  -0.261  -0.389  -0.102
    1UNL    H17   42  -0.374  -0.420   0.219
    1UNL    H18   43  -0.246  -0.320   0.293
    1UNL    H19   44  -0.199  -0.459   0.167
    1UNL    H20   45   0.240   0.116  -0.121
    1UNL    H21   46   0.208   0.144   0.060
    1UNL    H22   47   0.429  -0.214   0.214
    1UNL    H23   48   0.189  -0.296   0.210
    1UNL    H24   49   0.309  -0.423   0.213
    1UNL    H25   50   0.208  -0.375   0.058
    1UNL    H26   51   0.369  -0.264  -0.080
    1UNL    H27   52   0.500  -0.339   0.015
    1UNL    H28   53   0.505  -0.168  -0.029
   0.00000   0.00000   0.00000   0.00000   0.00000   0.00000   0.00000   0.00000   0.00000
Generated with MDTraj, t= 46.0
 53
    1UNL     C1    1   0.099   0.420   0.103
    1UNL     O1    2   0.096   0.303   0.020
    1UNL     C2    3  -0.003   0.294  -0.074
    1UNL     C3    4  -0.073   0.401  -0.128
    1UNL     C4    5  -0.181   0.379  -0.209
    1UNL     C5    6  -0.249   0.497  -0.278
    1UNL     C6    7  -0.221   0.252  -0.239
    1UNL     C7    8  -0.147   0.146  -0.190
    1UNL     C8    9  -0.035   0.160  -0.117
    1UNL     C9   10   0.041   0.032  -0.067
    1UNL     O2   11   0.010  -0.073  -0.155
    1UNL    C10   12  -0.012   0.003   0.076
    1UNL     O3   13  -0.139  -0.061   0.083
    1UNL    C11   14  -0.132  -0.200   0.081
    1UNL     O4   15  -0.024  -0.254   0.077
    1UNL    C12   16  -0.260  -0.282   0.077
    1UNL    C13   17  -0.294  -0.327  -0.064
    1UNL    C14   18  -0.245  -0.404   0.163
    1UNL    C15   19   0.192   0.052  -0.062
    1UNL     O5   20   0.283  -0.059  -0.036
    1UNL    C16   21   0.284  -0.078   0.099
    1UNL     O6   22   0.251   0.005   0.178
    1UNL    C17   23   0.329  -0.213   0.136
    1UNL    C18   24   0.225  -0.318   0.159
    1UNL    C19   25   0.438  -0.259   0.025
    1UNL     H1   26   0.003   0.451   0.133
    1UNL     H2   27   0.158   0.507   0.059
    1UNL     H3   28   0.142   0.385   0.200
    1UNL     H4   29  -0.042   0.504  -0.114
    1UNL     H5   30  -0.169   0.571  -0.276
    1UNL     H6   31  -0.265   0.480  -0.382
    1UNL     H7   32  -0.338   0.517  -0.215
    1UNL     H8   33  -0.302   0.235  -0.303
    1UNL     H9   34  -0.167   0.042  -0.226
    1UNL    H10   35   0.004  -0.150  -0.097
    1UNL    H11   36   0.051  -0.069   0.133
    1UNL    H12   37  -0.013   0.096   0.136
    1UNL    H13   38  -0.340  -0.226   0.117
    1UNL    H14   39  -0.303  -0.230  -0.121
    1UNL    H15   40  -0.400  -0.376  -0.067
    1UNL    H16   41  -0.223  -0.392  -0.097
    1UNL    H17   42  -0.342  -0.453   0.196
    1UNL    H18   43  -0.203  -0.363   0.264
    1UNL    H19   44  -0.179  -0.481   0.110
    1UNL    H20   45   0.211   0.087  -0.169
    1UNL    H21   46   0.217   0.141   0.006
    1UNL    H22   47   0.376  -0.202   0.238
    1UNL    H23   48   0.146  -0.289   0.223
    1UNL    H24   49   0.270  -0.412   0.197
    1UNL    H25   50   0.170  -0.333   0.059
    1UNL    H26   51   0.410  -0.247  -0.081
    1UNL    H27   52   0.477  -0.360   0.047
    1UNL    H28   53   0.527  -0.196   0.041
   0.00000   0.00000   0.00000   0.00000   0.00000   0.00000   0.00000   0.00000   0.00000
Generated with MDTraj, t= 47.0
 53
    1UNL     C1    1   0.109   0.398   0.102
    1UNL     O1    2   0.113   0.289   0.009
    1UNL     C2    3  -0.004   0.278  -0.075
    1UNL     C3    4  -0.067   0.391  -0.124
    1UNL     C4    5  -0.176   0.391  -0.212
    1UNL     C5    6  -0.249   0.518  -0.245
    1UNL     C6    7  -0.214   0.263  -0.255
    1UNL     C7    8  -0.146   0.150  -0.209
    1UNL     C8    9  -0.044   0.153  -0.119
    1UNL     C9   10   0.021   0.027  -0.067
    1UNL     O2   11  -0.014  -0.081  -0.154
    1UNL    C10   12  -0.023   0.002   0.077
    1UNL     O3   13  -0.148  -0.064   0.093
    1UNL    C11   14  -0.123  -0.199   0.077
    1UNL     O4   15  -0.014  -0.248   0.072
    1UNL    C12   16  -0.249  -0.273   0.074
    1UNL    C13   17  -0.285  -0.311  -0.080
    1UNL    C14   18  -0.225  -0.402   0.151
    1UNL    C15   19   0.170   0.036  -0.076
    1UNL     O5   20   0.238  -0.090  -0.037
    1UNL    C16   21   0.277  -0.078   0.096
    1UNL     O6   22   0.255   0.018   0.166
    1UNL    C17   23   0.347  -0.197   0.154
    1UNL    C18   24   0.240  -0.304   0.184
    1UNL    C19   25   0.451  -0.249   0.053
    1UNL     H1   26   0.022   0.395   0.163
    1UNL     H2   27   0.124   0.499   0.052
    1UNL     H3   28   0.190   0.387   0.179
    1UNL     H4   29  -0.030   0.486  -0.100
    1UNL     H5   30  -0.229   0.545  -0.349
    1UNL     H6   31  -0.356   0.504  -0.230
    1UNL     H7   32  -0.221   0.593  -0.169
    1UNL     H8   33  -0.295   0.248  -0.329
    1UNL     H9   34  -0.179   0.058  -0.248
    1UNL    H10   35   0.027  -0.161  -0.110
    1UNL    H11   36   0.055  -0.060   0.125
    1UNL    H12   37  -0.032   0.093   0.139
    1UNL    H13   38  -0.323  -0.214   0.119
    1UNL    H14   39  -0.285  -0.214  -0.139
    1UNL    H15   40  -0.382  -0.358  -0.086
    1UNL    H16   41  -0.206  -0.380  -0.110
    1UNL    H17   42  -0.295  -0.485   0.119
    1UNL    H18   43  -0.249  -0.397   0.266
    1UNL    H19   44  -0.123  -0.445   0.132
    1UNL    H20   45   0.194   0.071  -0.180
    1UNL    H21   46   0.196   0.118  -0.001
    1UNL    H22   47   0.397  -0.177   0.250
    1UNL    H23   48   0.174  -0.280   0.264
    1UNL    H24   49   0.274  -0.406   0.205
    1UNL    H25   50   0.163  -0.306   0.099
    1UNL    H26   51   0.408  -0.305  -0.031
    1UNL    H27   52   0.521  -0.312   0.115
    1UNL    H28   53   0.509  -0.163   0.017
   0.00000   0.00000   0.00000   0.00000   0.00000   0.00000   0.00000   0.00000   0.00000
Generated with MDTraj, t= 48.0
 53
    1UNL     C1    1   0.125   0.394   0.095
    1UNL     O1    2   0.105   0.282   0.012
    1UNL     C2    3  -0.004   0.276  -0.074
    1UNL     C3    4  -0.067   0.393  -0.115
    1UNL     C4    5  -0.173   0.390  -0.202
    1UNL     C5    6  -0.246   0.519  -0.233
    1UNL     C6    7  -0.213   0.269  -0.255
    1UNL     C7    8  -0.153   0.147  -0.216
    1UNL     C8    9  -0.043   0.151  -0.126
    1UNL     C9   10   0.014   0.026  -0.077
    1UNL     O2   11  -0.015  -0.085  -0.160
    1UNL    C10   12  -0.033  -0.003   0.066
    1UNL     O3   13  -0.157  -0.070   0.075
    1UNL    C11   14  -0.125  -0.202   0.075
    1UNL     O4   15  -0.019  -0.260   0.079
    1UNL    C12   16  -0.257  -0.283   0.063
    1UNL    C13   17  -0.299  -0.298  -0.086
    1UNL    C14   18  -0.250  -0.405   0.152
    1UNL    C15   19   0.168   0.030  -0.064
    1UNL     O5   20   0.222  -0.098  -0.028
    1UNL    C16   21   0.287  -0.074   0.095
    1UNL     O6   22   0.261   0.026   0.163
    1UNL    C17   23   0.373  -0.183   0.152
    1UNL    C18   24   0.262  -0.286   0.202
    1UNL    C19   25   0.474  -0.241   0.057
    1UNL     H1   26   0.040   0.436   0.143
    1UNL     H2   27   0.187   0.467   0.035
    1UNL     H3   28   0.186   0.362   0.184
    1UNL     H4   29  -0.020   0.487  -0.079
    1UNL     H5   30  -0.316   0.518  -0.318
    1UNL     H6   31  -0.310   0.538  -0.147
    1UNL     H7   32  -0.187   0.608  -0.253
    1UNL     H8   33  -0.283   0.272  -0.335
    1UNL     H9   34  -0.192   0.047  -0.239
    1UNL    H10   35   0.030  -0.155  -0.108
    1UNL    H11   36   0.042  -0.065   0.119
    1UNL    H12   37  -0.028   0.092   0.121
    1UNL    H13   38  -0.335  -0.228   0.108
    1UNL    H14   39  -0.334  -0.202  -0.127
    1UNL    H15   40  -0.371  -0.367  -0.107
    1UNL    H16   41  -0.204  -0.331  -0.150
    1UNL    H17   42  -0.346  -0.450   0.200
    1UNL    H18   43  -0.201  -0.374   0.252
    1UNL    H19   44  -0.190  -0.491   0.110
    1UNL    H20   45   0.210   0.051  -0.164
    1UNL    H21   46   0.207   0.107   0.006
    1UNL    H22   47   0.421  -0.149   0.244
    1UNL    H23   48   0.185  -0.238   0.264
    1UNL    H24   49   0.291  -0.377   0.256
    1UNL    H25   50   0.198  -0.318   0.116
    1UNL    H26   51   0.414  -0.275  -0.027
    1UNL    H27   52   0.526  -0.331   0.103
    1UNL    H28   53   0.555  -0.174   0.020
   0.00000   0.00000   0.00000   0.00000   0.00000   0.00000   0.00000   0.00000   0.00000
Generated with MDTraj, t= 49.0
 53
    1UNL     C1    1   0.135   0.406   0.090
    1UNL     O1    2   0.100   0.282   0.038
    1UNL     C2    3  -0.003   0.279  -0.060
    1UNL     C3    4  -0.075   0.389  -0.108
    1UNL     C4    5  -0.179   0.379  -0.199
    1UNL     C5    6  -0.243   0.501  -0.254
    1UNL     C6    7  -0.206   0.250  -0.244
    1UNL     C7    8  -0.141   0.143  -0.202
    1UNL     C8    9  -0.032   0.153  -0.123
    1UNL     C9   10   0.032   0.023  -0.071
    1UNL     O2   11   0.013  -0.086  -0.160
    1UNL    C10   12  -0.014  -0.013   0.073
    1UNL     O3   13  -0.147  -0.069   0.081
    1UNL    C11   14  -0.152  -0.210   0.073
    1UNL     O4   15  -0.052  -0.275   0.063
    1UNL    C12   16  -0.280  -0.283   0.066
    1UNL    C13   17  -0.323  -0.308  -0.079
    1UNL    C14   18  -0.271  -0.411   0.150
    1UNL    C15   19   0.184   0.040  -0.072
    1UNL     O5   20   0.257  -0.072  -0.032
    1UNL    C16   21   0.301  -0.053   0.094
    1UNL     O6   22   0.270   0.040   0.168
    1UNL    C17   23   0.364  -0.179   0.141
    1UNL    C18   24   0.251  -0.267   0.190
    1UNL    C19   25   0.454  -0.240   0.040
    1UNL     H1   26   0.059   0.451   0.148
    1UNL     H2   27   0.164   0.463   0.000
    1UNL     H3   28   0.218   0.396   0.164
    1UNL     H4   29  -0.040   0.481  -0.072
    1UNL     H5   30  -0.351   0.494  -0.280
    1UNL     H6   31  -0.257   0.571  -0.172
    1UNL     H7   32  -0.212   0.545  -0.349
    1UNL     H8   33  -0.290   0.232  -0.308
    1UNL     H9   34  -0.164   0.044  -0.241
    1UNL    H10   35  -0.001  -0.161  -0.096
    1UNL    H11   36   0.056  -0.091   0.107
    1UNL    H12   37  -0.003   0.069   0.141
    1UNL    H13   38  -0.347  -0.218   0.116
    1UNL    H14   39  -0.325  -0.220  -0.142
    1UNL    H15   40  -0.420  -0.352  -0.092
    1UNL    H16   41  -0.259  -0.381  -0.143
    1UNL    H17   42  -0.356  -0.487   0.135
    1UNL    H18   43  -0.280  -0.389   0.260
    1UNL    H19   44  -0.171  -0.465   0.129
    1UNL    H20   45   0.219   0.065  -0.170
    1UNL    H21   46   0.203   0.124  -0.003
    1UNL    H22   47   0.419  -0.158   0.232
    1UNL    H23   48   0.179  -0.234   0.273
    1UNL    H24   49   0.312  -0.349   0.231
    1UNL    H25   50   0.190  -0.303   0.110
    1UNL    H26   51   0.400  -0.240  -0.055
    1UNL    H27   52   0.489  -0.345   0.063
    1UNL    H28   53   0.546  -0.179   0.023
   0.00000   0.00000   0.00000   0.00000   0.00000   0.00000   0.00000   0.00000   0.00000
Generated with MDTraj, t= 50.0
 53
    1UNL     C1    1   0.118   0.425   0.066
    1UNL     O1    2   0.064   0.296   0.056
    1UNL     C2    3  -0.021   0.276  -0.053
    1UNL     C3    4  -0.093   0.387  -0.101
    1UNL     C4    5  -0.186   0.370  -0.202
    1UNL     C5    6  -0.250   0.492  -0.269
    1UNL     C6    7  -0.216   0.239  -0.247
    1UNL     C7    8  -0.139   0.132  -0.206
    1UNL     C8    9  -0.041   0.148  -0.111
    1UNL     C9   10   0.041   0.026  -0.065
    1UNL     O2   11   0.032  -0.078  -0.154
    1UNL    C10   12   0.006  -0.021   0.077
    1UNL     O3   13  -0.122  -0.078   0.093
    1UNL    C11   14  -0.136  -0.208   0.055
    1UNL     O4   15  -0.045  -0.283   0.024
    1UNL    C12   16  -0.281  -0.252   0.064
    1UNL    C13   17  -0.330  -0.295  -0.075
    1UNL    C14   18  -0.286  -0.374   0.156
    1UNL    C15   19   0.195   0.054  -0.063
    1UNL     O5   20   0.275  -0.051  -0.035
    1UNL    C16   21   0.300  -0.066   0.099
    1UNL     O6   22   0.291   0.025   0.183
    1UNL    C17   23   0.361  -0.200   0.148
    1UNL    C18   24   0.249  -0.297   0.187
    1UNL    C19   25   0.448  -0.260   0.042
    1UNL     H1   26   0.056   0.486   0.125
    1UNL     H2   27   0.126   0.460  -0.036
    1UNL     H3   28   0.213   0.422   0.123
    1UNL     H4   29  -0.069   0.492  -0.081
    1UNL     H5   30  -0.347   0.506  -0.214
    1UNL     H6   31  -0.201   0.585  -0.234
    1UNL     H7   32  -0.281   0.489  -0.373
    1UNL     H8   33  -0.298   0.228  -0.323
    1UNL     H9   34  -0.161   0.033  -0.237
    1UNL    H10   35   0.030  -0.162  -0.103
    1UNL    H11   36   0.084  -0.084   0.120
    1UNL    H12   37   0.007   0.070   0.133
    1UNL    H13   38  -0.343  -0.176   0.108
    1UNL    H14   39  -0.295  -0.224  -0.147
    1UNL    H15   40  -0.445  -0.306  -0.090
    1UNL    H16   41  -0.292  -0.387  -0.107
    1UNL    H17   42  -0.387  -0.395   0.207
    1UNL    H18   43  -0.216  -0.362   0.242
    1UNL    H19   44  -0.254  -0.463   0.090
    1UNL    H20   45   0.223   0.079  -0.161
    1UNL    H21   46   0.226   0.134   0.003
    1UNL    H22   47   0.419  -0.175   0.234
    1UNL    H23   48   0.185  -0.274   0.281
    1UNL    H24   49   0.299  -0.391   0.210
    1UNL    H25   50   0.188  -0.312   0.103
    1UNL    H26   51   0.371  -0.301  -0.027
    1UNL    H27   52   0.520  -0.337   0.076
    1UNL    H28   53   0.500  -0.179  -0.015
   0.00000   0.00000   0.00000   0.00000   0.00000   0.00000   0.00000   0.00000   0.00000
Generated with MDTraj, t= 51.0
 53
    1UNL     C1    1   0.113   0.430   0.089
    1UNL     O1    2   0.084   0.296   0.043
    1UNL     C2    3  -0.019   0.274  -0.048
    1UNL     C3    4  -0.099   0.377  -0.098
    1UNL     C4    5  -0.196   0.348  -0.199
    1UNL     C5    6  -0.291   0.455  -0.260
    1UNL     C6    7  -0.193   0.223  -0.258
    1UNL     C7    8  -0.113   0.120  -0.216
    1UNL     C8    9  -0.026   0.149  -0.112
    1UNL     C9   10   0.055   0.036  -0.060
    1UNL     O2   11   0.039  -0.082  -0.148
    1UNL    C10   12  -0.003   0.003   0.081
    1UNL     O3   13  -0.136  -0.053   0.069
    1UNL    C11   14  -0.149  -0.187   0.054
    1UNL     O4   15  -0.052  -0.259   0.034
    1UNL    C12   16  -0.286  -0.243   0.064
    1UNL    C13   17  -0.329  -0.285  -0.079
    1UNL    C14   18  -0.277  -0.358   0.166
    1UNL    C15   19   0.203   0.072  -0.052
    1UNL     O5   20   0.285  -0.039  -0.027
    1UNL    C16   21   0.297  -0.077   0.102
    1UNL     O6   22   0.268   0.003   0.189
    1UNL    C17   23   0.362  -0.218   0.131
    1UNL    C18   24   0.254  -0.319   0.178
    1UNL    C19   25   0.446  -0.266   0.016
    1UNL     H1   26   0.018   0.477   0.104
    1UNL     H2   27   0.159   0.484   0.008
    1UNL     H3   28   0.159   0.432   0.189
    1UNL     H4   29  -0.096   0.478  -0.060
    1UNL     H5   30  -0.337   0.503  -0.171
    1UNL     H6   31  -0.234   0.529  -0.319
    1UNL     H7   32  -0.371   0.400  -0.308
    1UNL     H8   33  -0.253   0.198  -0.338
    1UNL     H9   34  -0.108   0.016  -0.254
    1UNL    H10   35   0.027  -0.164  -0.097
    1UNL    H11   36   0.068  -0.064   0.130
    1UNL    H12   37  -0.011   0.095   0.138
    1UNL    H13   38  -0.362  -0.172   0.093
    1UNL    H14   39  -0.354  -0.198  -0.139
    1UNL    H15   40  -0.415  -0.363  -0.066
    1UNL    H16   41  -0.249  -0.336  -0.115
    1UNL    H17   42  -0.359  -0.438   0.165
    1UNL    H18   43  -0.282  -0.317   0.271
    1UNL    H19   44  -0.177  -0.410   0.148
    1UNL    H20   45   0.250   0.121  -0.131
    1UNL    H21   46   0.214   0.138   0.033
    1UNL    H22   47   0.434  -0.196   0.208
    1UNL    H23   48   0.192  -0.283   0.265
    1UNL    H24   49   0.296  -0.414   0.215
    1UNL    H25   50   0.184  -0.339   0.100
    1UNL    H26   51   0.385  -0.255  -0.080
    1UNL    H27   52   0.470  -0.370   0.039
    1UNL    H28   53   0.542  -0.210   0.007
   0.00000   0.00000   0.00000   0.00000   0.00000   0.00000   0.00000   0.00000   0.00000
Generated with MDTraj, t= 52.0
 53
    1UNL     C1    1   0.070   0.422   0.105
    1UNL     O1    2   0.095   0.309   0.030
    1UNL     C2    3  -0.003   0.282  -0.073
    1UNL     C3    4  -0.098   0.376  -0.108
    1UNL     C4    5  -0.192   0.346  -0.208
    1UNL     C5    6  -0.302   0.445  -0.237
    1UNL     C6    7  -0.197   0.220  -0.266
    1UNL     C7    8  -0.113   0.122  -0.224
    1UNL     C8    9  -0.014   0.154  -0.134
    1UNL     C9   10   0.063   0.034  -0.065
    1UNL     O2   11   0.055  -0.083  -0.152
    1UNL    C10   12  -0.004   0.001   0.069
    1UNL     O3   13  -0.133  -0.046   0.052
    1UNL    C11   14  -0.135  -0.184   0.068
    1UNL     O4   15  -0.038  -0.261   0.082
    1UNL    C12   16  -0.272  -0.235   0.070
    1UNL    C13   17  -0.304  -0.274  -0.073
    1UNL    C14   18  -0.301  -0.343   0.172
    1UNL    C15   19   0.212   0.084  -0.039
    1UNL     O5   20   0.301  -0.022  -0.022
    1UNL    C16   21   0.295  -0.083   0.105
    1UNL     O6   22   0.239  -0.042   0.205
    1UNL    C17   23   0.349  -0.222   0.123
    1UNL    C18   24   0.253  -0.334   0.158
    1UNL    C19   25   0.430  -0.263   0.003
    1UNL     H1   26  -0.029   0.401   0.147
    1UNL     H2   27   0.056   0.500   0.035
    1UNL     H3   28   0.137   0.441   0.192
    1UNL     H4   29  -0.108   0.473  -0.068
    1UNL     H5   30  -0.291   0.542  -0.184
    1UNL     H6   31  -0.329   0.466  -0.343
    1UNL     H7   32  -0.388   0.397  -0.188
    1UNL     H8   33  -0.284   0.208  -0.338
    1UNL     H9   34  -0.126   0.022  -0.248
    1UNL    H10   35   0.031  -0.155  -0.088
    1UNL    H11   36   0.052  -0.080   0.119
    1UNL    H12   37  -0.012   0.090   0.132
    1UNL    H13   38  -0.338  -0.150   0.092
    1UNL    H14   39  -0.281  -0.187  -0.136
    1UNL    H15   40  -0.404  -0.308  -0.084
    1UNL    H16   41  -0.236  -0.354  -0.102
    1UNL    H17   42  -0.409  -0.354   0.198
    1UNL    H18   43  -0.255  -0.318   0.275
    1UNL    H19   44  -0.261  -0.443   0.137
    1UNL    H20   45   0.242   0.145  -0.120
    1UNL    H21   46   0.238   0.144   0.050
    1UNL    H22   47   0.418  -0.203   0.204
    1UNL    H23   48   0.198  -0.318   0.251
    1UNL    H24   49   0.305  -0.430   0.169
    1UNL    H25   50   0.183  -0.344   0.071
    1UNL    H26   51   0.380  -0.271  -0.100
    1UNL    H27   52   0.480  -0.357   0.026
    1UNL    H28   53   0.514  -0.193  -0.007
   0.00000   0.00000   0.00000   0.00000   0.00000   0.00000   0.00000   0.00000   0.00000
Generated with MDTraj, t= 53.0
 53
    1UNL     C1    1   0.048   0.412   0.128
    1UNL     O1    2   0.090   0.328   0.024
    1UNL     C2    3  -0.008   0.291  -0.069
    1UNL     C3    4  -0.103   0.381  -0.114
    1UNL     C4    5  -0.195   0.336  -0.208
    1UNL     C5    6  -0.289   0.434  -0.264
    1UNL     C6    7  -0.200   0.205  -0.257
    1UNL     C7    8  -0.114   0.115  -0.207
    1UNL     C8    9  -0.017   0.154  -0.116
    1UNL     C9   10   0.059   0.040  -0.052
    1UNL     O2   11   0.050  -0.078  -0.139
    1UNL    C10   12  -0.002   0.019   0.084
    1UNL     O3   13  -0.135  -0.023   0.076
    1UNL    C11   14  -0.138  -0.158   0.066
    1UNL     O4   15  -0.045  -0.239   0.064
    1UNL    C12   16  -0.269  -0.231   0.060
    1UNL    C13   17  -0.296  -0.291  -0.075
    1UNL    C14   18  -0.282  -0.341   0.166
    1UNL    C15   19   0.214   0.077  -0.043
    1UNL     O5   20   0.297  -0.041  -0.030
    1UNL    C16   21   0.297  -0.093   0.097
    1UNL     O6   22   0.267  -0.034   0.198
    1UNL    C17   23   0.350  -0.239   0.121
    1UNL    C18   24   0.231  -0.340   0.144
    1UNL    C19   25   0.444  -0.279  -0.001
    1UNL     H1   26  -0.062   0.421   0.111
    1UNL     H2   27   0.088   0.509   0.117
    1UNL     H3   28   0.056   0.362   0.228
    1UNL     H4   29  -0.085   0.485  -0.083
    1UNL     H5   30  -0.248   0.525  -0.313
    1UNL     H6   31  -0.372   0.394  -0.328
    1UNL     H7   32  -0.356   0.462  -0.180
    1UNL     H8   33  -0.277   0.180  -0.322
    1UNL     H9   34  -0.125   0.007  -0.236
    1UNL    H10   35   0.025  -0.152  -0.081
    1UNL    H11   36   0.047  -0.058   0.146
    1UNL    H12   37  -0.004   0.119   0.132
    1UNL    H13   38  -0.347  -0.158   0.080
    1UNL    H14   39  -0.267  -0.228  -0.158
    1UNL    H15   40  -0.391  -0.316  -0.091
    1UNL    H16   41  -0.240  -0.388  -0.100
    1UNL    H17   42  -0.381  -0.392   0.152
    1UNL    H18   43  -0.285  -0.304   0.276
    1UNL    H19   44  -0.205  -0.419   0.149
    1UNL    H20   45   0.261   0.129  -0.127
    1UNL    H21   46   0.240   0.149   0.040
    1UNL    H22   47   0.415  -0.239   0.206
    1UNL    H23   48   0.185  -0.312   0.236
    1UNL    H24   49   0.264  -0.444   0.155
    1UNL    H25   50   0.156  -0.335   0.057
    1UNL    H26   51   0.396  -0.314  -0.095
    1UNL    H27   52   0.507  -0.365   0.030
    1UNL    H28   53   0.520  -0.206  -0.031
   0.00000   0.00000   0.00000   0.00000   0.00000   0.00000   0.00000   0.00000   0.00000
Generated with MDTraj, t= 54.0
 53
    1UNL     C1    1   0.032   0.411   0.130
    1UNL     O1    2   0.071   0.308   0.043
    1UNL     C2    3  -0.021   0.274  -0.064
    1UNL     C3    4  -0.089   0.382  -0.127
    1UNL     C4    5  -0.190   0.356  -0.220
    1UNL     C5    6  -0.271   0.466  -0.288
    1UNL     C6    7  -0.203   0.224  -0.266
    1UNL     C7    8  -0.129   0.120  -0.208
    1UNL     C8    9  -0.032   0.144  -0.108
    1UNL     C9   10   0.057   0.036  -0.055
    1UNL     O2   11   0.035  -0.082  -0.136
    1UNL    C10   12   0.012   0.015   0.098
    1UNL     O3   13  -0.119  -0.045   0.096
    1UNL    C11   14  -0.127  -0.181   0.076
    1UNL     O4   15  -0.029  -0.253   0.065
    1UNL    C12   16  -0.268  -0.233   0.056
    1UNL    C13   17  -0.289  -0.292  -0.078
    1UNL    C14   18  -0.301  -0.333   0.165
    1UNL    C15   19   0.208   0.071  -0.055
    1UNL     O5   20   0.274  -0.054  -0.028
    1UNL    C16   21   0.304  -0.090   0.104
    1UNL     O6   22   0.300  -0.015   0.197
    1UNL    C17   23   0.351  -0.232   0.119
    1UNL    C18   24   0.230  -0.323   0.133
    1UNL    C19   25   0.443  -0.269  -0.001
    1UNL     H1   26  -0.058   0.363   0.180
    1UNL     H2   27   0.000   0.495   0.076
    1UNL     H3   28   0.107   0.433   0.210
    1UNL     H4   29  -0.058   0.477  -0.093
    1UNL     H5   30  -0.239   0.486  -0.393
    1UNL     H6   31  -0.381   0.446  -0.274
    1UNL     H7   32  -0.271   0.560  -0.229
    1UNL     H8   33  -0.281   0.196  -0.339
    1UNL     H9   34  -0.140   0.021  -0.239
    1UNL    H10   35   0.013  -0.155  -0.074
    1UNL    H11   36   0.079  -0.053   0.154
    1UNL    H12   37  -0.002   0.110   0.157
    1UNL    H13   38  -0.333  -0.144   0.070
    1UNL    H14   39  -0.292  -0.224  -0.156
    1UNL    H15   40  -0.386  -0.346  -0.085
    1UNL    H16   41  -0.212  -0.366  -0.110
    1UNL    H17   42  -0.396  -0.388   0.139
    1UNL    H18   43  -0.319  -0.285   0.266
    1UNL    H19   44  -0.220  -0.411   0.166
    1UNL    H20   45   0.259   0.118  -0.142
    1UNL    H21   46   0.244   0.139   0.031
    1UNL    H22   47   0.415  -0.239   0.208
    1UNL    H23   48   0.178  -0.266   0.204
    1UNL    H24   49   0.252  -0.420   0.182
    1UNL    H25   50   0.159  -0.346   0.045
    1UNL    H26   51   0.397  -0.234  -0.093
    1UNL    H27   52   0.455  -0.380  -0.014
    1UNL    H28   53   0.546  -0.232   0.007
   0.00000   0.00000   0.00000   0.00000   0.00000   0.00000   0.00000   0.00000   0.00000
Generated with MDTraj, t= 55.0
 53
    1UNL     C1    1   0.051   0.407   0.135
    1UNL     O1    2   0.066   0.291   0.059
    1UNL     C2    3  -0.021   0.283  -0.056
    1UNL     C3    4  -0.092   0.386  -0.106
    1UNL     C4    5  -0.163   0.363  -0.222
    1UNL     C5    6  -0.233   0.480  -0.284
    1UNL     C6    7  -0.185   0.236  -0.279
    1UNL     C7    8  -0.120   0.133  -0.214
    1UNL     C8    9  -0.038   0.150  -0.107
    1UNL     C9   10   0.045   0.029  -0.056
    1UNL     O2   11   0.028  -0.087  -0.136
    1UNL    C10   12   0.001  -0.006   0.093
    1UNL     O3   13  -0.129  -0.059   0.090
    1UNL    C11   14  -0.136  -0.195   0.088
    1UNL     O4   15  -0.038  -0.266   0.108
    1UNL    C12   16  -0.283  -0.245   0.060
    1UNL    C13   17  -0.291  -0.309  -0.080
    1UNL    C14   18  -0.318  -0.350   0.168
    1UNL    C15   19   0.195   0.063  -0.064
    1UNL     O5   20   0.261  -0.057  -0.060
    1UNL    C16   21   0.296  -0.077   0.070
    1UNL     O6   22   0.267  -0.005   0.161
    1UNL    C17   23   0.364  -0.200   0.120
    1UNL    C18   24   0.258  -0.296   0.153
    1UNL    C19   25   0.461  -0.255   0.010
    1UNL     H1   26  -0.060   0.427   0.135
    1UNL     H2   27   0.099   0.487   0.084
    1UNL     H3   28   0.082   0.389   0.241
    1UNL     H4   29  -0.093   0.488  -0.071
    1UNL     H5   30  -0.262   0.453  -0.387
    1UNL     H6   31  -0.314   0.502  -0.209
    1UNL     H7   32  -0.172   0.574  -0.279
    1UNL     H8   33  -0.256   0.213  -0.357
    1UNL     H9   34  -0.157   0.032  -0.239
    1UNL    H10   35   0.092  -0.156  -0.106
    1UNL    H11   36   0.067  -0.082   0.139
    1UNL    H12   37   0.002   0.082   0.161
    1UNL    H13   38  -0.353  -0.160   0.060
    1UNL    H14   39  -0.278  -0.239  -0.155
    1UNL    H15   40  -0.397  -0.361  -0.091
    1UNL    H16   41  -0.215  -0.383  -0.083
    1UNL    H17   42  -0.427  -0.383   0.177
    1UNL    H18   43  -0.291  -0.311   0.268
    1UNL    H19   44  -0.263  -0.443   0.141
    1UNL    H20   45   0.217   0.093  -0.170
    1UNL    H21   46   0.256   0.144  -0.004
    1UNL    H22   47   0.423  -0.182   0.212
    1UNL    H23   48   0.194  -0.258   0.229
    1UNL    H24   49   0.307  -0.393   0.183
    1UNL    H25   50   0.191  -0.326   0.069
    1UNL    H26   51   0.410  -0.298  -0.073
    1UNL    H27   52   0.536  -0.329   0.049
    1UNL    H28   53   0.526  -0.173  -0.024
   0.00000   0.00000   0.00000   0.00000   0.00000   0.00000   0.00000   0.00000   0.00000
Generated with MDTraj, t= 56.0
 53
    1UNL     C1    1   0.083   0.381   0.121
    1UNL     O1    2   0.056   0.260   0.058
    1UNL     C2    3  -0.028   0.268  -0.051
    1UNL     C3    4  -0.087   0.379  -0.103
    1UNL     C4    5  -0.165   0.380  -0.218
    1UNL     C5    6  -0.213   0.513  -0.267
    1UNL     C6    7  -0.175   0.265  -0.294
    1UNL     C7    8  -0.123   0.147  -0.237
    1UNL     C8    9  -0.045   0.147  -0.123
    1UNL     C9   10   0.029   0.022  -0.075
    1UNL     O2   11   0.000  -0.096  -0.156
    1UNL    C10   12  -0.013  -0.007   0.077
    1UNL     O3   13  -0.145  -0.043   0.082
    1UNL    C11   14  -0.153  -0.182   0.084
    1UNL     O4   15  -0.058  -0.254   0.094
    1UNL    C12   16  -0.281  -0.260   0.076
    1UNL    C13   17  -0.278  -0.324  -0.068
    1UNL    C14   18  -0.294  -0.366   0.186
    1UNL    C15   19   0.179   0.039  -0.074
    1UNL     O5   20   0.251  -0.071  -0.038
    1UNL    C16   21   0.290  -0.078   0.092
    1UNL     O6   22   0.252  -0.004   0.180
    1UNL    C17   23   0.386  -0.185   0.120
    1UNL    C18   24   0.295  -0.291   0.181
    1UNL    C19   25   0.475  -0.224  -0.002
    1UNL     H1   26  -0.013   0.423   0.158
    1UNL     H2   27   0.127   0.446   0.050
    1UNL     H3   28   0.147   0.361   0.209
    1UNL     H4   29  -0.086   0.474  -0.052
    1UNL     H5   30  -0.297   0.494  -0.336
    1UNL     H6   31  -0.240   0.575  -0.180
    1UNL     H7   32  -0.135   0.571  -0.323
    1UNL     H8   33  -0.246   0.252  -0.373
    1UNL     H9   34  -0.143   0.056  -0.290
    1UNL    H10   35   0.024  -0.180  -0.111
    1UNL    H11   36   0.050  -0.081   0.131
    1UNL    H12   37  -0.001   0.087   0.135
    1UNL    H13   38  -0.363  -0.185   0.076
    1UNL    H14   39  -0.231  -0.249  -0.136
    1UNL    H15   40  -0.383  -0.345  -0.102
    1UNL    H16   41  -0.221  -0.411  -0.063
    1UNL    H17   42  -0.378  -0.438   0.162
    1UNL    H18   43  -0.315  -0.321   0.284
    1UNL    H19   44  -0.204  -0.434   0.186
    1UNL    H20   45   0.225   0.075  -0.169
    1UNL    H21   46   0.213   0.125  -0.006
    1UNL    H22   47   0.455  -0.154   0.204
    1UNL    H23   48   0.252  -0.254   0.279
    1UNL    H24   49   0.353  -0.385   0.191
    1UNL    H25   50   0.210  -0.314   0.121
    1UNL    H26   51   0.422  -0.269  -0.082
    1UNL    H27   52   0.552  -0.297   0.031
    1UNL    H28   53   0.542  -0.141  -0.034
   0.00000   0.00000   0.00000   0.00000   0.00000   0.00000   0.00000   0.00000   0.00000
Generated with MDTraj, t= 57.0
 53
    1UNL     C1    1   0.100   0.404   0.115
    1UNL     O1    2   0.058   0.279   0.059
    1UNL     C2    3  -0.016   0.276  -0.057
    1UNL     C3    4  -0.066   0.393  -0.115
    1UNL     C4    5  -0.149   0.397  -0.222
    1UNL     C5    6  -0.221   0.516  -0.265
    1UNL     C6    7  -0.167   0.279  -0.287
    1UNL     C7    8  -0.112   0.156  -0.244
    1UNL     C8    9  -0.048   0.158  -0.118
    1UNL     C9   10   0.024   0.027  -0.068
    1UNL     O2   11  -0.028  -0.078  -0.150
    1UNL    C10   12  -0.031  -0.010   0.071
    1UNL     O3   13  -0.158  -0.069   0.073
    1UNL    C11   14  -0.145  -0.206   0.067
    1UNL     O4   15  -0.050  -0.276   0.053
    1UNL    C12   16  -0.277  -0.280   0.081
    1UNL    C13   17  -0.301  -0.351  -0.048
    1UNL    C14   18  -0.282  -0.372   0.195
    1UNL    C15   19   0.176   0.030  -0.077
    1UNL     O5   20   0.228  -0.089  -0.033
    1UNL    C16   21   0.284  -0.080   0.097
    1UNL     O6   22   0.259   0.008   0.179
    1UNL    C17   23   0.395  -0.180   0.135
    1UNL    C18   24   0.313  -0.300   0.193
    1UNL    C19   25   0.473  -0.212   0.017
    1UNL     H1   26   0.022   0.460   0.170
    1UNL     H2   27   0.132   0.464   0.033
    1UNL     H3   28   0.184   0.390   0.181
    1UNL     H4   29  -0.041   0.483  -0.067
    1UNL     H5   30  -0.325   0.489  -0.289
    1UNL     H6   31  -0.232   0.593  -0.187
    1UNL     H7   32  -0.191   0.564  -0.361
    1UNL     H8   33  -0.239   0.283  -0.371
    1UNL     H9   34  -0.136   0.059  -0.285
    1UNL    H10   35   0.002  -0.169  -0.127
    1UNL    H11   36   0.042  -0.078   0.115
    1UNL    H12   37  -0.033   0.080   0.135
    1UNL    H13   38  -0.351  -0.198   0.095
    1UNL    H14   39  -0.333  -0.273  -0.128
    1UNL    H15   40  -0.380  -0.418  -0.045
    1UNL    H16   41  -0.217  -0.406  -0.088
    1UNL    H17   42  -0.387  -0.400   0.217
    1UNL    H18   43  -0.246  -0.313   0.281
    1UNL    H19   44  -0.227  -0.470   0.178
    1UNL    H20   45   0.218   0.057  -0.172
    1UNL    H21   46   0.217   0.108  -0.007
    1UNL    H22   47   0.454  -0.135   0.220
    1UNL    H23   48   0.217  -0.258   0.242
    1UNL    H24   49   0.365  -0.374   0.256
    1UNL    H25   50   0.279  -0.355   0.110
    1UNL    H26   51   0.404  -0.243  -0.062
    1UNL    H27   52   0.535  -0.299   0.037
    1UNL    H28   53   0.545  -0.135  -0.011
   0.00000   0.00000   0.00000   0.00000   0.00000   0.00000   0.00000   0.00000   0.00000
Generated with MDTraj, t= 58.0
 53
    1UNL     C1    1   0.101   0.403   0.109
    1UNL     O1    2   0.081   0.279   0.043
    1UNL     C2    3  -0.011   0.284  -0.052
    1UNL     C3    4  -0.075   0.397  -0.107
    1UNL     C4    5  -0.158   0.391  -0.216
    1UNL     C5    6  -0.190   0.521  -0.284
    1UNL     C6    7  -0.187   0.266  -0.273
    1UNL     C7    8  -0.135   0.153  -0.213
    1UNL     C8    9  -0.047   0.160  -0.110
    1UNL     C9   10   0.027   0.035  -0.061
    1UNL     O2   11   0.001  -0.076  -0.154
    1UNL    C10   12  -0.031  -0.014   0.073
    1UNL     O3   13  -0.157  -0.079   0.056
    1UNL    C11   14  -0.145  -0.215   0.053
    1UNL     O4   15  -0.054  -0.284   0.015
    1UNL    C12   16  -0.275  -0.285   0.088
    1UNL    C13   17  -0.326  -0.370  -0.031
    1UNL    C14   18  -0.261  -0.383   0.213
    1UNL    C15   19   0.174   0.060  -0.069
    1UNL     O5   20   0.249  -0.054  -0.041
    1UNL    C16   21   0.290  -0.064   0.088
    1UNL     O6   22   0.263   0.022   0.170
    1UNL    C17   23   0.366  -0.192   0.141
    1UNL    C18   24   0.270  -0.312   0.184
    1UNL    C19   25   0.476  -0.222   0.038
    1UNL     H1   26   0.015   0.455   0.156
    1UNL     H2   27   0.152   0.467   0.038
    1UNL     H3   28   0.173   0.386   0.185
    1UNL     H4   29  -0.062   0.493  -0.056
    1UNL     H5   30  -0.298   0.547  -0.280
    1UNL     H6   31  -0.153   0.612  -0.235
    1UNL     H7   32  -0.174   0.518  -0.394
    1UNL     H8   33  -0.263   0.268  -0.344
    1UNL     H9   34  -0.171   0.056  -0.243
    1UNL    H10   35  -0.011  -0.163  -0.111
    1UNL    H11   36   0.039  -0.079   0.123
    1UNL    H12   37  -0.045   0.071   0.139
    1UNL    H13   38  -0.341  -0.200   0.113
    1UNL    H14   39  -0.356  -0.324  -0.130
    1UNL    H15   40  -0.410  -0.421  -0.004
    1UNL    H16   41  -0.258  -0.452  -0.064
    1UNL    H17   42  -0.349  -0.446   0.229
    1UNL    H18   43  -0.247  -0.320   0.303
    1UNL    H19   44  -0.175  -0.455   0.205
    1UNL    H20   45   0.200   0.104  -0.160
    1UNL    H21   46   0.215   0.129   0.006
    1UNL    H22   47   0.411  -0.156   0.240
    1UNL    H23   48   0.224  -0.323   0.288
    1UNL    H24   49   0.326  -0.403   0.165
    1UNL    H25   50   0.193  -0.329   0.111
    1UNL    H26   51   0.428  -0.277  -0.047
    1UNL    H27   52   0.549  -0.284   0.083
    1UNL    H28   53   0.532  -0.132   0.016
   0.00000   0.00000   0.00000   0.00000   0.00000   0.00000   0.00000   0.00000   0.00000
Generated with MDTraj, t= 59.0
 53
    1UNL     C1    1   0.087   0.403   0.116
    1UNL     O1    2   0.085   0.284   0.043
    1UNL     C2    3  -0.002   0.284  -0.063
    1UNL     C3    4  -0.058   0.397  -0.127
    1UNL     C4    5  -0.156   0.384  -0.223
    1UNL     C5    6  -0.214   0.503  -0.281
    1UNL     C6    7  -0.204   0.260  -0.255
    1UNL     C7    8  -0.148   0.149  -0.199
    1UNL     C8    9  -0.041   0.158  -0.113
    1UNL     C9   10   0.041   0.034  -0.076
    1UNL     O2   11   0.019  -0.067  -0.172
    1UNL    C10   12  -0.004  -0.012   0.063
    1UNL     O3   13  -0.138  -0.071   0.056
    1UNL    C11   14  -0.138  -0.210   0.053
    1UNL     O4   15  -0.042  -0.273   0.013
    1UNL    C12   16  -0.267  -0.286   0.100
    1UNL    C13   17  -0.314  -0.369  -0.023
    1UNL    C14   18  -0.244  -0.378   0.217
    1UNL    C15   19   0.188   0.065  -0.064
    1UNL     O5   20   0.264  -0.052  -0.035
    1UNL    C16   21   0.278  -0.063   0.106
    1UNL     O6   22   0.263   0.022   0.196
    1UNL    C17   23   0.325  -0.205   0.137
    1UNL    C18   24   0.221  -0.312   0.137
    1UNL    C19   25   0.445  -0.230   0.050
    1UNL     H1   26  -0.002   0.422   0.179
    1UNL     H2   27   0.115   0.487   0.050
    1UNL     H3   28   0.169   0.398   0.184
    1UNL     H4   29  -0.033   0.493  -0.086
    1UNL     H5   30  -0.311   0.533  -0.234
    1UNL     H6   31  -0.157   0.590  -0.245
    1UNL     H7   32  -0.228   0.482  -0.389
    1UNL     H8   33  -0.303   0.249  -0.309
    1UNL     H9   34  -0.187   0.052  -0.219
    1UNL    H10   35  -0.024  -0.142  -0.123
    1UNL    H11   36   0.056  -0.091   0.103
    1UNL    H12   37  -0.004   0.070   0.132
    1UNL    H13   38  -0.335  -0.205   0.127
    1UNL    H14   39  -0.311  -0.301  -0.102
    1UNL    H15   40  -0.423  -0.403  -0.013
    1UNL    H16   41  -0.246  -0.454  -0.052
    1UNL    H17   42  -0.327  -0.442   0.246
    1UNL    H18   43  -0.216  -0.309   0.300
    1UNL    H19   44  -0.160  -0.447   0.200
    1UNL    H20   45   0.231   0.097  -0.152
    1UNL    H21   46   0.216   0.139   0.011
    1UNL    H22   47   0.361  -0.201   0.246
    1UNL    H23   48   0.158  -0.309   0.226
    1UNL    H24   49   0.280  -0.404   0.136
    1UNL    H25   50   0.160  -0.325   0.045
    1UNL    H26   51   0.414  -0.204  -0.055
    1UNL    H27   52   0.472  -0.332   0.053
    1UNL    H28   53   0.527  -0.178   0.095
   0.00000   0.00000   0.00000   0.00000   0.00000   0.00000   0.00000   0.00000   0.00000
Generated with MDTraj, t= 60.0
 53
    1UNL     C1    1   0.077   0.422   0.116
    1UNL     O1    2   0.105   0.321   0.022
    1UNL     C2    3  -0.002   0.293  -0.075
    1UNL     C3    4  -0.081   0.398  -0.120
    1UNL     C4    5  -0.178   0.380  -0.217
    1UNL     C5    6  -0.270   0.489  -0.257
    1UNL     C6    7  -0.193   0.256  -0.273
    1UNL     C7    8  -0.120   0.152  -0.222
    1UNL     C8    9  -0.031   0.167  -0.122
    1UNL     C9   10   0.038   0.046  -0.073
    1UNL     O2   11   0.003  -0.063  -0.156
    1UNL    C10   12  -0.010   0.011   0.065
    1UNL     O3   13  -0.140  -0.058   0.072
    1UNL    C11   14  -0.137  -0.191   0.057
    1UNL     O4   15  -0.032  -0.250   0.034
    1UNL    C12   16  -0.263  -0.270   0.087
    1UNL    C13   17  -0.291  -0.363  -0.037
    1UNL    C14   18  -0.237  -0.361   0.207
    1UNL    C15   19   0.197   0.059  -0.064
    1UNL     O5   20   0.270  -0.067  -0.036
    1UNL    C16   21   0.276  -0.097   0.099
    1UNL     O6   22   0.243  -0.021   0.188
    1UNL    C17   23   0.335  -0.227   0.144
    1UNL    C18   24   0.223  -0.335   0.123
    1UNL    C19   25   0.463  -0.265   0.078
    1UNL     H1   26  -0.028   0.456   0.126
    1UNL     H2   27   0.158   0.500   0.121
    1UNL     H3   28   0.090   0.374   0.211
    1UNL     H4   29  -0.064   0.498  -0.088
    1UNL     H5   30  -0.339   0.511  -0.172
    1UNL     H6   31  -0.211   0.580  -0.261
    1UNL     H7   32  -0.325   0.453  -0.346
    1UNL     H8   33  -0.264   0.232  -0.344
    1UNL     H9   34  -0.147   0.048  -0.246
    1UNL    H10   35   0.035  -0.146  -0.116
    1UNL    H11   36   0.055  -0.057   0.114
    1UNL    H12   37  -0.023   0.098   0.128
    1UNL    H13   38  -0.344  -0.200   0.108
    1UNL    H14   39  -0.325  -0.301  -0.111
    1UNL    H15   40  -0.376  -0.437   0.001
    1UNL    H16   41  -0.199  -0.415  -0.068
    1UNL    H17   42  -0.330  -0.397   0.253
    1UNL    H18   43  -0.174  -0.310   0.283
    1UNL    H19   44  -0.187  -0.452   0.176
    1UNL    H20   45   0.234   0.085  -0.156
    1UNL    H21   46   0.242   0.137  -0.003
    1UNL    H22   47   0.354  -0.221   0.257
    1UNL    H23   48   0.132  -0.283   0.138
    1UNL    H24   49   0.237  -0.419   0.191
    1UNL    H25   50   0.226  -0.387   0.020
    1UNL    H26   51   0.433  -0.301  -0.022
    1UNL    H27   52   0.499  -0.354   0.126
    1UNL    H28   53   0.547  -0.202   0.083
   0.00000   0.00000   0.00000   0.00000   0.00000   0.00000   0.00000   0.00000   0.00000
Generated with MDTraj, t= 61.0
 53
    1UNL     C1    1   0.074   0.407   0.108
    1UNL     O1    2   0.093   0.298   0.019
    1UNL     C2    3  -0.007   0.282  -0.075
    1UNL     C3    4  -0.090   0.387  -0.113
    1UNL     C4    5  -0.191   0.373  -0.205
    1UNL     C5    6  -0.276   0.494  -0.233
    1UNL     C6    7  -0.198   0.246  -0.274
    1UNL     C7    8  -0.114   0.139  -0.236
    1UNL     C8    9  -0.015   0.155  -0.141
    1UNL     C9   10   0.043   0.033  -0.076
    1UNL     O2   11   0.022  -0.078  -0.162
    1UNL    C10   12  -0.014   0.022   0.063
    1UNL     O3   13  -0.138  -0.035   0.054
    1UNL    C11   14  -0.122  -0.170   0.071
    1UNL     O4   15  -0.018  -0.237   0.084
    1UNL    C12   16  -0.255  -0.245   0.070
    1UNL    C13   17  -0.279  -0.331  -0.054
    1UNL    C14   18  -0.261  -0.334   0.199
    1UNL    C15   19   0.191   0.044  -0.060
    1UNL     O5   20   0.245  -0.080  -0.015
    1UNL    C16   21   0.273  -0.100   0.116
    1UNL     O6   22   0.234  -0.030   0.204
    1UNL    C17   23   0.341  -0.237   0.137
    1UNL    C18   24   0.242  -0.349   0.106
    1UNL    C19   25   0.472  -0.242   0.057
    1UNL     H1   26   0.013   0.371   0.193
    1UNL     H2   27   0.047   0.510   0.066
    1UNL     H3   28   0.169   0.425   0.154
    1UNL     H4   29  -0.101   0.481  -0.058
    1UNL     H5   30  -0.310   0.544  -0.141
    1UNL     H6   31  -0.215   0.561  -0.292
    1UNL     H7   32  -0.360   0.466  -0.299
    1UNL     H8   33  -0.286   0.219  -0.338
    1UNL     H9   34  -0.131   0.045  -0.280
    1UNL    H10   35   0.013  -0.156  -0.103
    1UNL    H11   36   0.043  -0.039   0.131
    1UNL    H12   37  -0.036   0.124   0.100
    1UNL    H13   38  -0.336  -0.173   0.078
    1UNL    H14   39  -0.270  -0.269  -0.152
    1UNL    H15   40  -0.381  -0.376  -0.039
    1UNL    H16   41  -0.205  -0.410  -0.055
    1UNL    H17   42  -0.332  -0.418   0.187
    1UNL    H18   43  -0.292  -0.268   0.280
    1UNL    H19   44  -0.165  -0.374   0.218
    1UNL    H20   45   0.244   0.070  -0.146
    1UNL    H21   46   0.227   0.123   0.008
    1UNL    H22   47   0.368  -0.251   0.246
    1UNL    H23   48   0.160  -0.341   0.172
    1UNL    H24   49   0.289  -0.450   0.105
    1UNL    H25   50   0.202  -0.345  -0.001
    1UNL    H26   51   0.456  -0.265  -0.047
    1UNL    H27   52   0.552  -0.306   0.094
    1UNL    H28   53   0.523  -0.149   0.064
   0.00000   0.00000   0.00000   0.00000   0.00000   0.00000   0.00000   0.00000   0.00000
Generated with MDTraj, t= 62.0
 53
    1UNL     C1    1   0.102   0.402   0.119
    1UNL     O1    2   0.089   0.282   0.036
    1UNL     C2    3  -0.004   0.282  -0.068
    1UNL     C3    4  -0.086   0.380  -0.117
    1UNL     C4    5  -0.177   0.360  -0.215
    1UNL     C5    6  -0.268   0.470  -0.247
    1UNL     C6    7  -0.194   0.235  -0.270
    1UNL     C7    8  -0.117   0.130  -0.228
    1UNL     C8    9  -0.031   0.152  -0.120
    1UNL     C9   10   0.047   0.034  -0.056
    1UNL     O2   11   0.032  -0.087  -0.130
    1UNL    C10   12  -0.016   0.012   0.082
    1UNL     O3   13  -0.146  -0.043   0.090
    1UNL    C11   14  -0.150  -0.181   0.088
    1UNL     O4   15  -0.048  -0.245   0.096
    1UNL    C12   16  -0.279  -0.252   0.062
    1UNL    C13   17  -0.281  -0.328  -0.068
    1UNL    C14   18  -0.324  -0.333   0.182
    1UNL    C15   19   0.204   0.064  -0.061
    1UNL     O5   20   0.277  -0.055  -0.056
    1UNL    C16   21   0.287  -0.080   0.079
    1UNL     O6   22   0.239  -0.015   0.168
    1UNL    C17   23   0.344  -0.206   0.127
    1UNL    C18   24   0.256  -0.323   0.097
    1UNL    C19   25   0.487  -0.239   0.058
    1UNL     H1   26   0.007   0.459   0.115
    1UNL     H2   27   0.194   0.462   0.086
    1UNL     H3   28   0.115   0.371   0.221
    1UNL     H4   29  -0.069   0.481  -0.091
    1UNL     H5   30  -0.291   0.539  -0.164
    1UNL     H6   31  -0.241   0.514  -0.343
    1UNL     H7   32  -0.365   0.435  -0.285
    1UNL     H8   33  -0.268   0.222  -0.343
    1UNL     H9   34  -0.125   0.022  -0.252
    1UNL    H10   35   0.044  -0.166  -0.072
    1UNL    H11   36   0.044  -0.069   0.122
    1UNL    H12   37  -0.001   0.100   0.148
    1UNL    H13   38  -0.353  -0.174   0.054
    1UNL    H14   39  -0.248  -0.266  -0.167
    1UNL    H15   40  -0.374  -0.378  -0.084
    1UNL    H16   41  -0.208  -0.410  -0.071
    1UNL    H17   42  -0.428  -0.362   0.165
    1UNL    H18   43  -0.317  -0.282   0.276
    1UNL    H19   44  -0.269  -0.425   0.187
    1UNL    H20   45   0.246   0.130  -0.132
    1UNL    H21   46   0.242   0.119   0.031
    1UNL    H22   47   0.357  -0.194   0.237
    1UNL    H23   48   0.161  -0.317   0.147
    1UNL    H24   49   0.304  -0.424   0.106
    1UNL    H25   50   0.235  -0.329  -0.011
    1UNL    H26   51   0.498  -0.201  -0.039
    1UNL    H27   52   0.513  -0.345   0.053
    1UNL    H28   53   0.565  -0.209   0.126
   0.00000   0.00000   0.00000   0.00000   0.00000   0.00000   0.00000   0.00000   0.00000
Generated with MDTraj, t= 63.0
 53
    1UNL     C1    1   0.079   0.431   0.099
    1UNL     O1    2   0.072   0.296   0.055
    1UNL     C2    3  -0.020   0.270  -0.048
    1UNL     C3    4  -0.091   0.375  -0.114
    1UNL     C4    5  -0.183   0.354  -0.215
    1UNL     C5    6  -0.227   0.478  -0.291
    1UNL     C6    7  -0.211   0.224  -0.252
    1UNL     C7    8  -0.145   0.119  -0.196
    1UNL     C8    9  -0.040   0.142  -0.101
    1UNL     C9   10   0.044   0.020  -0.053
    1UNL     O2   11   0.024  -0.087  -0.146
    1UNL    C10   12   0.007  -0.026   0.089
    1UNL     O3   13  -0.123  -0.055   0.108
    1UNL    C11   14  -0.147  -0.188   0.074
    1UNL     O4   15  -0.062  -0.274   0.070
    1UNL    C12   16  -0.294  -0.231   0.049
    1UNL    C13   17  -0.293  -0.307  -0.079
    1UNL    C14   18  -0.341  -0.300   0.174
    1UNL    C15   19   0.191   0.048  -0.057
    1UNL     O5   20   0.261  -0.069  -0.026
    1UNL    C16   21   0.302  -0.078   0.103
    1UNL     O6   22   0.294   0.012   0.180
    1UNL    C17   23   0.367  -0.215   0.120
    1UNL    C18   24   0.264  -0.322   0.078
    1UNL    C19   25   0.502  -0.220   0.042
    1UNL     H1   26  -0.006   0.444   0.167
    1UNL     H2   27   0.081   0.501   0.010
    1UNL     H3   28   0.171   0.432   0.152
    1UNL     H4   29  -0.096   0.475  -0.071
    1UNL     H5   30  -0.200   0.573  -0.245
    1UNL     H6   31  -0.193   0.465  -0.395
    1UNL     H7   32  -0.331   0.496  -0.318
    1UNL     H8   33  -0.290   0.208  -0.324
    1UNL     H9   34  -0.156   0.020  -0.231
    1UNL    H10   35   0.024  -0.173  -0.099
    1UNL    H11   36   0.074  -0.105   0.123
    1UNL    H12   37   0.025   0.059   0.162
    1UNL    H13   38  -0.357  -0.146   0.033
    1UNL    H14   39  -0.249  -0.250  -0.162
    1UNL    H15   40  -0.385  -0.357  -0.108
    1UNL    H16   41  -0.215  -0.390  -0.074
    1UNL    H17   42  -0.445  -0.325   0.170
    1UNL    H18   43  -0.322  -0.260   0.271
    1UNL    H19   44  -0.298  -0.400   0.176
    1UNL    H20   45   0.235   0.099  -0.142
    1UNL    H21   46   0.221   0.122   0.027
    1UNL    H22   47   0.391  -0.228   0.228
    1UNL    H23   48   0.192  -0.309   0.164
    1UNL    H24   49   0.293  -0.429   0.064
    1UNL    H25   50   0.211  -0.300  -0.012
    1UNL    H26   51   0.483  -0.244  -0.058
    1UNL    H27   52   0.567  -0.295   0.087
    1UNL    H28   53   0.564  -0.131   0.054
   0.00000   0.00000   0.00000   0.00000   0.00000   0.00000   0.00000   0.00000   0.00000
Generated with MDTraj, t= 64.0
 53
    1UNL     C1    1   0.099   0.423   0.105
    1UNL     O1    2   0.060   0.293   0.061
    1UNL     C2    3  -0.015   0.278  -0.059
    1UNL     C3    4  -0.080   0.385  -0.126
    1UNL     C4    5  -0.179   0.357  -0.226
    1UNL     C5    6  -0.250   0.464  -0.292
    1UNL     C6    7  -0.203   0.217  -0.251
    1UNL     C7    8  -0.131   0.114  -0.196
    1UNL     C8    9  -0.044   0.141  -0.095
    1UNL     C9   10   0.033   0.022  -0.036
    1UNL     O2   11   0.017  -0.088  -0.128
    1UNL    C10   12  -0.016  -0.017   0.106
    1UNL     O3   13  -0.146  -0.058   0.103
    1UNL    C11   14  -0.164  -0.187   0.057
    1UNL     O4   15  -0.080  -0.269   0.039
    1UNL    C12   16  -0.309  -0.223   0.042
    1UNL    C13   17  -0.332  -0.303  -0.081
    1UNL    C14   18  -0.336  -0.304   0.171
    1UNL    C15   19   0.183   0.053  -0.036
    1UNL     O5   20   0.267  -0.061  -0.033
    1UNL    C16   21   0.323  -0.080   0.088
    1UNL     O6   22   0.312  -0.001   0.178
    1UNL    C17   23   0.399  -0.206   0.128
    1UNL    C18   24   0.301  -0.320   0.097
    1UNL    C19   25   0.525  -0.225   0.039
    1UNL     H1   26   0.009   0.481   0.120
    1UNL     H2   27   0.170   0.464   0.029
    1UNL     H3   28   0.148   0.400   0.196
    1UNL     H4   29  -0.069   0.485  -0.087
    1UNL     H5   30  -0.211   0.551  -0.242
    1UNL     H6   31  -0.231   0.463  -0.399
    1UNL     H7   32  -0.357   0.469  -0.275
    1UNL     H8   33  -0.276   0.197  -0.328
    1UNL     H9   34  -0.148   0.008  -0.221
    1UNL    H10   35   0.032  -0.172  -0.079
    1UNL    H11   36   0.052  -0.091   0.150
    1UNL    H12   37  -0.005   0.071   0.177
    1UNL    H13   38  -0.373  -0.136   0.037
    1UNL    H14   39  -0.281  -0.270  -0.161
    1UNL    H15   40  -0.441  -0.322  -0.096
    1UNL    H16   41  -0.278  -0.403  -0.058
    1UNL    H17   42  -0.422  -0.363   0.165
    1UNL    H18   43  -0.339  -0.250   0.262
    1UNL    H19   44  -0.257  -0.378   0.181
    1UNL    H20   45   0.213   0.100  -0.131
    1UNL    H21   46   0.228   0.137   0.034
    1UNL    H22   47   0.416  -0.199   0.237
    1UNL    H23   48   0.197  -0.280   0.122
    1UNL    H24   49   0.321  -0.410   0.159
    1UNL    H25   50   0.315  -0.350  -0.001
    1UNL    H26   51   0.493  -0.232  -0.062
    1UNL    H27   52   0.583  -0.312   0.064
    1UNL    H28   53   0.600  -0.146   0.051
   0.00000   0.00000   0.00000   0.00000   0.00000   0.00000   0.00000   0.00000   0.00000
Generated with MDTraj, t= 65.0
 53
    1UNL     C1    1   0.113   0.418   0.095
    1UNL     O1    2   0.098   0.285   0.040
    1UNL     C2    3  -0.013   0.269  -0.057
    1UNL     C3    4  -0.099   0.372  -0.097
    1UNL     C4    5  -0.188   0.350  -0.206
    1UNL     C5    6  -0.260   0.475  -0.263
    1UNL     C6    7  -0.195   0.228  -0.269
    1UNL     C7    8  -0.117   0.126  -0.225
    1UNL     C8    9  -0.032   0.141  -0.119
    1UNL     C9   10   0.045   0.021  -0.065
    1UNL     O2   11   0.027  -0.094  -0.145
    1UNL    C10   12  -0.021  -0.018   0.072
    1UNL     O3   13  -0.159  -0.054   0.060
    1UNL    C11   14  -0.182  -0.193   0.071
    1UNL     O4   15  -0.094  -0.273   0.075
    1UNL    C12   16  -0.321  -0.234   0.060
    1UNL    C13   17  -0.352  -0.297  -0.075
    1UNL    C14   18  -0.358  -0.326   0.181
    1UNL    C15   19   0.199   0.050  -0.039
    1UNL     O5   20   0.274  -0.069  -0.014
    1UNL    C16   21   0.325  -0.070   0.111
    1UNL     O6   22   0.305   0.008   0.203
    1UNL    C17   23   0.400  -0.200   0.123
    1UNL    C18   24   0.316  -0.326   0.110
    1UNL    C19   25   0.520  -0.189   0.028
    1UNL     H1   26   0.028   0.442   0.155
    1UNL     H2   27   0.127   0.488   0.010
    1UNL     H3   28   0.197   0.408   0.158
    1UNL     H4   29  -0.094   0.470  -0.056
    1UNL     H5   30  -0.200   0.555  -0.225
    1UNL     H6   31  -0.255   0.474  -0.371
    1UNL     H7   32  -0.358   0.486  -0.219
    1UNL     H8   33  -0.259   0.218  -0.352
    1UNL     H9   34  -0.113   0.035  -0.279
    1UNL    H10   35  -0.008  -0.165  -0.085
    1UNL    H11   36   0.035  -0.103   0.112
    1UNL    H12   37  -0.003   0.062   0.148
    1UNL    H13   38  -0.381  -0.145   0.069
    1UNL    H14   39  -0.326  -0.226  -0.149
    1UNL    H15   40  -0.458  -0.336  -0.075
    1UNL    H16   41  -0.274  -0.375  -0.089
    1UNL    H17   42  -0.460  -0.352   0.182
    1UNL    H18   43  -0.330  -0.276   0.272
    1UNL    H19   44  -0.296  -0.412   0.171
    1UNL    H20   45   0.261   0.111  -0.110
    1UNL    H21   46   0.206   0.125   0.051
    1UNL    H22   47   0.430  -0.196   0.228
    1UNL    H23   48   0.284  -0.369   0.211
    1UNL    H24   49   0.383  -0.399   0.064
    1UNL    H25   50   0.238  -0.313   0.040
    1UNL    H26   51   0.485  -0.162  -0.071
    1UNL    H27   52   0.583  -0.275   0.019
    1UNL    H28   53   0.592  -0.117   0.067
   0.00000   0.00000   0.00000   0.00000   0.00000   0.00000   0.00000   0.00000   0.00000
Generated with MDTraj, t= 66.0
 53
    1UNL     C1    1   0.102   0.409   0.101
    1UNL     O1    2   0.085   0.279   0.039
    1UNL     C2    3   0.002   0.265  -0.071
    1UNL     C3    4  -0.069   0.378  -0.117
    1UNL     C4    5  -0.171   0.357  -0.209
    1UNL     C5    6  -0.274   0.474  -0.221
    1UNL     C6    7  -0.195   0.231  -0.265
    1UNL     C7    8  -0.124   0.119  -0.228
    1UNL     C8    9  -0.021   0.139  -0.132
    1UNL     C9   10   0.040   0.013  -0.070
    1UNL     O2   11   0.014  -0.095  -0.158
    1UNL    C10   12  -0.021  -0.013   0.073
    1UNL     O3   13  -0.159  -0.040   0.065
    1UNL    C11   14  -0.172  -0.176   0.061
    1UNL     O4   15  -0.086  -0.260   0.046
    1UNL    C12   16  -0.311  -0.233   0.070
    1UNL    C13   17  -0.355  -0.288  -0.070
    1UNL    C14   18  -0.340  -0.335   0.186
    1UNL    C15   19   0.189   0.040  -0.053
    1UNL     O5   20   0.267  -0.077  -0.027
    1UNL    C16   21   0.309  -0.079   0.107
    1UNL     O6   22   0.283   0.005   0.194
    1UNL    C17   23   0.405  -0.196   0.139
    1UNL    C18   24   0.341  -0.342   0.142
    1UNL    C19   25   0.522  -0.178   0.048
    1UNL     H1   26   0.010   0.454   0.132
    1UNL     H2   27   0.150   0.473   0.024
    1UNL     H3   28   0.167   0.388   0.183
    1UNL     H4   29  -0.068   0.469  -0.058
    1UNL     H5   30  -0.225   0.566  -0.203
    1UNL     H6   31  -0.318   0.478  -0.320
    1UNL     H7   32  -0.349   0.459  -0.145
    1UNL     H8   33  -0.281   0.217  -0.334
    1UNL     H9   34  -0.148   0.023  -0.277
    1UNL    H10   35  -0.027  -0.164  -0.101
    1UNL    H11   36   0.030  -0.093   0.124
    1UNL    H12   37  -0.008   0.079   0.133
    1UNL    H13   38  -0.376  -0.149   0.094
    1UNL    H14   39  -0.344  -0.194  -0.140
    1UNL    H15   40  -0.459  -0.325  -0.074
    1UNL    H16   41  -0.287  -0.355  -0.112
    1UNL    H17   42  -0.445  -0.347   0.204
    1UNL    H18   43  -0.293  -0.297   0.275
    1UNL    H19   44  -0.292  -0.423   0.159
    1UNL    H20   45   0.215   0.094  -0.144
    1UNL    H21   46   0.206   0.126   0.021
    1UNL    H22   47   0.445  -0.175   0.238
    1UNL    H23   48   0.230  -0.331   0.148
    1UNL    H24   49   0.354  -0.411   0.225
    1UNL    H25   50   0.359  -0.401   0.051
    1UNL    H26   51   0.485  -0.223  -0.047
    1UNL    H27   52   0.608  -0.231   0.079
    1UNL    H28   53   0.553  -0.075   0.031
   0.00000   0.00000   0.00000   0.00000   0.00000   0.00000   0.00000   0.00000   0.00000
Generated with MDTraj, t= 67.0
 53
    1UNL     C1    1   0.104   0.387   0.120
    1UNL     O1    2   0.107   0.281   0.025
    1UNL     C2    3  -0.007   0.272  -0.060
    1UNL     C3    4  -0.094   0.373  -0.103
    1UNL     C4    5  -0.185   0.363  -0.202
    1UNL     C5    6  -0.252   0.480  -0.256
    1UNL     C6    7  -0.213   0.234  -0.248
    1UNL     C7    8  -0.136   0.121  -0.201
    1UNL     C8    9  -0.038   0.143  -0.110
    1UNL     C9   10   0.044   0.021  -0.078
    1UNL     O2   11  -0.004  -0.092  -0.171
    1UNL    C10   12   0.004  -0.026   0.061
    1UNL     O3   13  -0.134  -0.054   0.077
    1UNL    C11   14  -0.156  -0.184   0.056
    1UNL     O4   15  -0.071  -0.267   0.027
    1UNL    C12   16  -0.300  -0.219   0.075
    1UNL    C13   17  -0.357  -0.269  -0.054
    1UNL    C14   18  -0.311  -0.332   0.179
    1UNL    C15   19   0.195   0.032  -0.092
    1UNL     O5   20   0.277  -0.082  -0.046
    1UNL    C16   21   0.294  -0.084   0.093
    1UNL     O6   22   0.249   0.000   0.169
    1UNL    C17   23   0.388  -0.184   0.163
    1UNL    C18   24   0.317  -0.325   0.162
    1UNL    C19   25   0.520  -0.184   0.086
    1UNL     H1   26   0.022   0.376   0.192
    1UNL     H2   27   0.079   0.476   0.060
    1UNL     H3   28   0.198   0.395   0.176
    1UNL     H4   29  -0.069   0.469  -0.065
    1UNL     H5   30  -0.192   0.566  -0.272
    1UNL     H6   31  -0.301   0.468  -0.351
    1UNL     H7   32  -0.329   0.507  -0.185
    1UNL     H8   33  -0.278   0.226  -0.331
    1UNL     H9   34  -0.160   0.022  -0.229
    1UNL    H10   35   0.021  -0.179  -0.135
    1UNL    H11   36   0.058  -0.116   0.085
    1UNL    H12   37   0.021   0.054   0.134
    1UNL    H13   38  -0.349  -0.125   0.106
    1UNL    H14   39  -0.333  -0.200  -0.148
    1UNL    H15   40  -0.466  -0.280  -0.052
    1UNL    H16   41  -0.317  -0.360  -0.088
    1UNL    H17   42  -0.406  -0.382   0.182
    1UNL    H18   43  -0.308  -0.291   0.277
    1UNL    H19   44  -0.232  -0.399   0.177
    1UNL    H20   45   0.214   0.067  -0.191
    1UNL    H21   46   0.217   0.127  -0.037
    1UNL    H22   47   0.413  -0.150   0.262
    1UNL    H23   48   0.261  -0.357   0.249
    1UNL    H24   49   0.383  -0.409   0.144
    1UNL    H25   50   0.248  -0.325   0.070
    1UNL    H26   51   0.495  -0.207  -0.020
    1UNL    H27   52   0.591  -0.256   0.124
    1UNL    H28   53   0.568  -0.089   0.093
   0.00000   0.00000   0.00000   0.00000   0.00000   0.00000   0.00000   0.00000   0.00000
Generated with MDTraj, t= 68.0
 53
    1UNL     C1    1   0.087   0.340   0.128
    1UNL     O1    2   0.118   0.286   0.005
    1UNL     C2    3   0.011   0.261  -0.081
    1UNL     C3    4  -0.056   0.373  -0.131
    1UNL     C4    5  -0.171   0.363  -0.200
    1UNL     C5    6  -0.251   0.488  -0.237
    1UNL     C6    7  -0.220   0.238  -0.239
    1UNL     C7    8  -0.155   0.122  -0.193
    1UNL     C8    9  -0.033   0.132  -0.122
    1UNL     C9   10   0.057   0.011  -0.079
    1UNL     O2   11   0.025  -0.097  -0.166
    1UNL    C10   12   0.010  -0.029   0.069
    1UNL     O3   13  -0.127  -0.063   0.073
    1UNL    C11   14  -0.153  -0.195   0.065
    1UNL     O4   15  -0.067  -0.282   0.047
    1UNL    C12   16  -0.303  -0.235   0.088
    1UNL    C13   17  -0.363  -0.266  -0.051
    1UNL    C14   18  -0.317  -0.356   0.179
    1UNL    C15   19   0.204   0.041  -0.083
    1UNL     O5   20   0.284  -0.058  -0.035
    1UNL    C16   21   0.297  -0.051   0.099
    1UNL     O6   22   0.253   0.038   0.171
    1UNL    C17   23   0.358  -0.174   0.141
    1UNL    C18   24   0.259  -0.294   0.132
    1UNL    C19   25   0.497  -0.193   0.079
    1UNL     H1   26   0.021   0.273   0.186
    1UNL     H2   27   0.029   0.431   0.115
    1UNL     H3   28   0.179   0.359   0.188
    1UNL     H4   29  -0.018   0.469  -0.097
    1UNL     H5   30  -0.208   0.578  -0.279
    1UNL     H6   31  -0.321   0.464  -0.316
    1UNL     H7   32  -0.314   0.513  -0.154
    1UNL     H8   33  -0.315   0.228  -0.292
    1UNL     H9   34  -0.186   0.024  -0.232
    1UNL    H10   35   0.074  -0.174  -0.131
    1UNL    H11   36   0.064  -0.112   0.107
    1UNL    H12   37   0.021   0.058   0.136
    1UNL    H13   38  -0.353  -0.145   0.129
    1UNL    H14   39  -0.364  -0.181  -0.116
    1UNL    H15   40  -0.468  -0.301  -0.048
    1UNL    H16   41  -0.306  -0.337  -0.110
    1UNL    H17   42  -0.412  -0.366   0.226
    1UNL    H18   43  -0.260  -0.338   0.265
    1UNL    H19   44  -0.281  -0.448   0.144
    1UNL    H20   45   0.229   0.062  -0.183
    1UNL    H21   46   0.224   0.139  -0.035
    1UNL    H22   47   0.381  -0.156   0.244
    1UNL    H23   48   0.157  -0.270   0.148
    1UNL    H24   49   0.298  -0.370   0.201
    1UNL    H25   50   0.277  -0.325   0.023
    1UNL    H26   51   0.502  -0.173  -0.029
    1UNL    H27   52   0.554  -0.284   0.104
    1UNL    H28   53   0.553  -0.117   0.131
   0.00000   0.00000   0.00000   0.00000   0.00000   0.00000   0.00000   0.00000   0.00000
Generated with MDTraj, t= 69.0
 53
    1UNL     C1    1   0.099   0.315   0.127
    1UNL     O1    2   0.118   0.305  -0.013
    1UNL     C2    3   0.003   0.287  -0.092
    1UNL     C3    4  -0.083   0.394  -0.128
    1UNL     C4    5  -0.192   0.364  -0.207
    1UNL     C5    6  -0.279   0.479  -0.246
    1UNL     C6    7  -0.227   0.234  -0.239
    1UNL     C7    8  -0.143   0.133  -0.202
    1UNL     C8    9  -0.031   0.155  -0.126
    1UNL     C9   10   0.047   0.027  -0.076
    1UNL     O2   11   0.022  -0.092  -0.154
    1UNL    C10   12  -0.007  -0.003   0.067
    1UNL     O3   13  -0.139  -0.045   0.068
    1UNL    C11   14  -0.154  -0.180   0.068
    1UNL     O4   15  -0.059  -0.257   0.058
    1UNL    C12   16  -0.290  -0.241   0.087
    1UNL    C13   17  -0.348  -0.268  -0.058
    1UNL    C14   18  -0.283  -0.372   0.163
    1UNL    C15   19   0.200   0.036  -0.076
    1UNL     O5   20   0.263  -0.081  -0.030
    1UNL    C16   21   0.302  -0.070   0.097
    1UNL     O6   22   0.303   0.026   0.172
    1UNL    C17   23   0.361  -0.193   0.162
    1UNL    C18   24   0.258  -0.307   0.127
    1UNL    C19   25   0.493  -0.225   0.107
    1UNL     H1   26  -0.006   0.335   0.159
    1UNL     H2   27   0.150   0.398   0.173
    1UNL     H3   28   0.137   0.223   0.180
    1UNL     H4   29  -0.061   0.495  -0.101
    1UNL     H5   30  -0.231   0.564  -0.293
    1UNL     H6   31  -0.349   0.453  -0.325
    1UNL     H7   32  -0.324   0.501  -0.150
    1UNL     H8   33  -0.310   0.208  -0.301
    1UNL     H9   34  -0.174   0.033  -0.223
    1UNL    H10   35   0.073  -0.162  -0.105
    1UNL    H11   36   0.058  -0.079   0.107
    1UNL    H12   37   0.003   0.085   0.131
    1UNL    H13   38  -0.352  -0.162   0.137
    1UNL    H14   39  -0.360  -0.183  -0.106
    1UNL    H15   40  -0.449  -0.313  -0.047
    1UNL    H16   41  -0.282  -0.332  -0.124
    1UNL    H17   42  -0.383  -0.403   0.175
    1UNL    H18   43  -0.255  -0.358   0.261
    1UNL    H19   44  -0.218  -0.442   0.111
    1UNL    H20   45   0.228   0.030  -0.177
    1UNL    H21   46   0.243   0.131  -0.037
    1UNL    H22   47   0.375  -0.175   0.266
    1UNL    H23   48   0.164  -0.284   0.174
    1UNL    H24   49   0.292  -0.409   0.157
    1UNL    H25   50   0.246  -0.298   0.017
    1UNL    H26   51   0.476  -0.283   0.015
    1UNL    H27   52   0.560  -0.284   0.174
    1UNL    H28   53   0.549  -0.135   0.083
   0.00000   0.00000   0.00000   0.00000   0.00000   0.00000   0.00000   0.00000   0.00000
Generated with MDTraj, t= 70.0
 53
    1UNL     C1    1   0.118   0.357   0.107
    1UNL     O1    2   0.125   0.309  -0.024
    1UNL     C2    3  -0.001   0.282  -0.091
    1UNL     C3    4  -0.089   0.385  -0.127
    1UNL     C4    5  -0.205   0.372  -0.206
    1UNL     C5    6  -0.297   0.484  -0.252
    1UNL     C6    7  -0.224   0.242  -0.245
    1UNL     C7    8  -0.145   0.134  -0.196
    1UNL     C8    9  -0.034   0.149  -0.123
    1UNL     C9   10   0.039   0.030  -0.067
    1UNL     O2   11   0.006  -0.082  -0.144
    1UNL    C10   12  -0.011   0.006   0.084
    1UNL     O3   13  -0.138  -0.042   0.085
    1UNL    C11   14  -0.135  -0.181   0.078
    1UNL     O4   15  -0.036  -0.251   0.065
    1UNL    C12   16  -0.272  -0.247   0.077
    1UNL    C13   17  -0.310  -0.264  -0.069
    1UNL    C14   18  -0.271  -0.381   0.148
    1UNL    C15   19   0.200   0.036  -0.083
    1UNL     O5   20   0.246  -0.089  -0.027
    1UNL    C16   21   0.290  -0.085   0.102
    1UNL     O6   22   0.290   0.021   0.161
    1UNL    C17   23   0.350  -0.214   0.158
    1UNL    C18   24   0.243  -0.324   0.133
    1UNL    C19   25   0.492  -0.242   0.115
    1UNL     H1   26   0.018   0.389   0.137
    1UNL     H2   27   0.176   0.444   0.122
    1UNL     H3   28   0.152   0.283   0.185
    1UNL     H4   29  -0.068   0.482  -0.086
    1UNL     H5   30  -0.239   0.561  -0.300
    1UNL     H6   31  -0.371   0.458  -0.326
    1UNL     H7   32  -0.332   0.514  -0.154
    1UNL     H8   33  -0.304   0.225  -0.315
    1UNL     H9   34  -0.168   0.031  -0.218
    1UNL    H10   35   0.088  -0.136  -0.151
    1UNL    H11   36   0.059  -0.059   0.134
    1UNL    H12   37  -0.003   0.103   0.135
    1UNL    H13   38  -0.347  -0.175   0.124
    1UNL    H14   39  -0.290  -0.170  -0.124
    1UNL    H15   40  -0.415  -0.280  -0.067
    1UNL    H16   41  -0.253  -0.347  -0.119
    1UNL    H17   42  -0.365  -0.423   0.138
    1UNL    H18   43  -0.266  -0.357   0.250
    1UNL    H19   44  -0.186  -0.436   0.108
    1UNL    H20   45   0.237   0.050  -0.179
    1UNL    H21   46   0.231   0.122  -0.019
    1UNL    H22   47   0.357  -0.191   0.262
    1UNL    H23   48   0.144  -0.294   0.178
    1UNL    H24   49   0.254  -0.427   0.174
    1UNL    H25   50   0.217  -0.341   0.031
    1UNL    H26   51   0.491  -0.206   0.013
    1UNL    H27   52   0.528  -0.348   0.121
    1UNL    H28   53   0.566  -0.180   0.169
   0.00000   0.00000   0.00000   0.00000   0.00000   0.00000   0.00000   0.00000   0.00000
Generated with MDTraj, t= 71.0
 53
    1UNL     C1    1   0.106   0.412   0.065
    1UNL     O1    2   0.118   0.296  -0.006
    1UNL     C2    3   0.010   0.269  -0.088
    1UNL     C3    4  -0.049   0.382  -0.146
    1UNL     C4    5  -0.174   0.360  -0.202
    1UNL     C5    6  -0.258   0.483  -0.225
    1UNL     C6    7  -0.231   0.233  -0.221
    1UNL     C7    8  -0.164   0.128  -0.173
    1UNL     C8    9  -0.038   0.142  -0.114
    1UNL     C9   10   0.039   0.021  -0.063
    1UNL     O2   11   0.021  -0.098  -0.146
    1UNL    C10   12  -0.011  -0.004   0.077
    1UNL     O3   13  -0.143  -0.051   0.073
    1UNL    C11   14  -0.137  -0.186   0.091
    1UNL     O4   15  -0.042  -0.253   0.121
    1UNL    C12   16  -0.272  -0.257   0.068
    1UNL    C13   17  -0.285  -0.268  -0.082
    1UNL    C14   18  -0.278  -0.393   0.147
    1UNL    C15   19   0.197   0.049  -0.074
    1UNL     O5   20   0.269  -0.066  -0.045
    1UNL    C16   21   0.278  -0.069   0.089
    1UNL     O6   22   0.247   0.012   0.174
    1UNL    C17   23   0.326  -0.200   0.149
    1UNL    C18   24   0.232  -0.309   0.104
    1UNL    C19   25   0.472  -0.237   0.091
    1UNL     H1   26   0.014   0.418   0.124
    1UNL     H2   27   0.116   0.496   0.004
    1UNL     H3   28   0.189   0.424   0.140
    1UNL     H4   29  -0.019   0.485  -0.128
    1UNL     H5   30  -0.206   0.561  -0.279
    1UNL     H6   31  -0.352   0.470  -0.277
    1UNL     H7   32  -0.279   0.517  -0.124
    1UNL     H8   33  -0.330   0.215  -0.258
    1UNL     H9   34  -0.195   0.028  -0.200
    1UNL    H10   35   0.106  -0.146  -0.157
    1UNL    H11   36   0.061  -0.072   0.123
    1UNL    H12   37  -0.002   0.093   0.130
    1UNL    H13   38  -0.352  -0.188   0.111
    1UNL    H14   39  -0.305  -0.166  -0.144
    1UNL    H15   40  -0.370  -0.326  -0.098
    1UNL    H16   41  -0.196  -0.312  -0.126
    1UNL    H17   42  -0.377  -0.421   0.156
    1UNL    H18   43  -0.245  -0.386   0.248
    1UNL    H19   44  -0.221  -0.462   0.090
    1UNL    H20   45   0.226   0.083  -0.170
    1UNL    H21   46   0.231   0.128   0.002
    1UNL    H22   47   0.320  -0.189   0.254
    1UNL    H23   48   0.120  -0.306   0.131
    1UNL    H24   49   0.260  -0.408   0.144
    1UNL    H25   50   0.235  -0.321   0.001
    1UNL    H26   51   0.459  -0.263  -0.012
    1UNL    H27   52   0.549  -0.300   0.144
    1UNL    H28   53   0.523  -0.138   0.082
   0.00000   0.00000   0.00000   0.00000   0.00000   0.00000   0.00000   0.00000   0.00000
Generated with MDTraj, t= 72.0
 53
    1UNL     C1    1   0.165   0.433   0.025
    1UNL     O1    2   0.119   0.304   0.001
    1UNL     C2    3   0.000   0.294  -0.070
    1UNL     C3    4  -0.097   0.393  -0.106
    1UNL     C4    5  -0.195   0.369  -0.202
    1UNL     C5    6  -0.269   0.480  -0.266
    1UNL     C6    7  -0.225   0.239  -0.242
    1UNL     C7    8  -0.148   0.141  -0.189
    1UNL     C8    9  -0.039   0.159  -0.102
    1UNL     C9   10   0.033   0.028  -0.059
    1UNL     O2   11   0.009  -0.066  -0.161
    1UNL    C10   12  -0.018  -0.010   0.080
    1UNL     O3   13  -0.147  -0.064   0.055
    1UNL    C11   14  -0.151  -0.196   0.097
    1UNL     O4   15  -0.060  -0.256   0.144
    1UNL    C12   16  -0.287  -0.265   0.066
    1UNL    C13   17  -0.292  -0.286  -0.083
    1UNL    C14   18  -0.306  -0.385   0.149
    1UNL    C15   19   0.188   0.049  -0.056
    1UNL     O5   20   0.266  -0.072  -0.022
    1UNL    C16   21   0.286  -0.090   0.113
    1UNL     O6   22   0.242  -0.025   0.203
    1UNL    C17   23   0.368  -0.212   0.137
    1UNL    C18   24   0.285  -0.340   0.109
    1UNL    C19   25   0.499  -0.217   0.058
    1UNL     H1   26   0.079   0.489   0.058
    1UNL     H2   27   0.195   0.471  -0.067
    1UNL     H3   28   0.242   0.452   0.104
    1UNL     H4   29  -0.085   0.494  -0.078
    1UNL     H5   30  -0.210   0.539  -0.336
    1UNL     H6   31  -0.356   0.455  -0.325
    1UNL     H7   32  -0.306   0.551  -0.192
    1UNL     H8   33  -0.298   0.225  -0.318
    1UNL     H9   34  -0.169   0.038  -0.207
    1UNL    H10   35   0.059  -0.147  -0.140
    1UNL    H11   36   0.045  -0.088   0.126
    1UNL    H12   37  -0.019   0.087   0.139
    1UNL    H13   38  -0.359  -0.182   0.099
    1UNL    H14   39  -0.275  -0.193  -0.146
    1UNL    H15   40  -0.389  -0.324  -0.117
    1UNL    H16   41  -0.211  -0.349  -0.114
    1UNL    H17   42  -0.383  -0.442   0.103
    1UNL    H18   43  -0.345  -0.381   0.248
    1UNL    H19   44  -0.222  -0.442   0.147
    1UNL    H20   45   0.227   0.085  -0.149
    1UNL    H21   46   0.215   0.118   0.031
    1UNL    H22   47   0.383  -0.205   0.243
    1UNL    H23   48   0.193  -0.314   0.168
    1UNL    H24   49   0.321  -0.439   0.144
    1UNL    H25   50   0.259  -0.342   0.002
    1UNL    H26   51   0.485  -0.195  -0.047
    1UNL    H27   52   0.557  -0.310   0.074
    1UNL    H28   53   0.569  -0.142   0.103
   0.00000   0.00000   0.00000   0.00000   0.00000   0.00000   0.00000   0.00000   0.00000
Generated with MDTraj, t= 73.0
 53
    1UNL     C1    1   0.181   0.439  -0.002
    1UNL     O1    2   0.107   0.316   0.009
    1UNL     C2    3  -0.007   0.293  -0.071
    1UNL     C3    4  -0.077   0.396  -0.125
    1UNL     C4    5  -0.185   0.375  -0.208
    1UNL     C5    6  -0.273   0.491  -0.251
    1UNL     C6    7  -0.208   0.240  -0.252
    1UNL     C7    8  -0.141   0.134  -0.195
    1UNL     C8    9  -0.040   0.158  -0.107
    1UNL     C9   10   0.031   0.038  -0.042
    1UNL     O2   11   0.017  -0.076  -0.128
    1UNL    C10   12  -0.041  -0.004   0.089
    1UNL     O3   13  -0.170  -0.065   0.071
    1UNL    C11   14  -0.167  -0.200   0.084
    1UNL     O4   15  -0.069  -0.262   0.111
    1UNL    C12   16  -0.301  -0.274   0.052
    1UNL    C13   17  -0.308  -0.325  -0.085
    1UNL    C14   18  -0.326  -0.381   0.157
    1UNL    C15   19   0.187   0.063  -0.023
    1UNL     O5   20   0.265  -0.063  -0.012
    1UNL    C16   21   0.295  -0.094   0.116
    1UNL     O6   22   0.265  -0.029   0.211
    1UNL    C17   23   0.385  -0.213   0.132
    1UNL    C18   24   0.309  -0.351   0.105
    1UNL    C19   25   0.500  -0.196   0.031
    1UNL     H1   26   0.117   0.513   0.045
    1UNL     H2   27   0.202   0.455  -0.104
    1UNL     H3   28   0.275   0.449   0.058
    1UNL     H4   29  -0.066   0.497  -0.084
    1UNL     H5   30  -0.224   0.537  -0.335
    1UNL     H6   31  -0.367   0.451  -0.284
    1UNL     H7   32  -0.293   0.573  -0.181
    1UNL     H8   33  -0.284   0.221  -0.329
    1UNL     H9   34  -0.146   0.028  -0.225
    1UNL    H10   35   0.043  -0.155  -0.076
    1UNL    H11   36   0.019  -0.077   0.146
    1UNL    H12   37  -0.065   0.092   0.145
    1UNL    H13   38  -0.375  -0.187   0.066
    1UNL    H14   39  -0.286  -0.262  -0.161
    1UNL    H15   40  -0.415  -0.365  -0.105
    1UNL    H16   41  -0.231  -0.403  -0.086
    1UNL    H17   42  -0.426  -0.417   0.149
    1UNL    H18   43  -0.320  -0.352   0.257
    1UNL    H19   44  -0.260  -0.457   0.138
    1UNL    H20   45   0.230   0.099  -0.116
    1UNL    H21   46   0.219   0.134   0.065
    1UNL    H22   47   0.413  -0.217   0.236
    1UNL    H23   48   0.234  -0.347   0.181
    1UNL    H24   49   0.367  -0.444   0.111
    1UNL    H25   50   0.257  -0.332   0.003
    1UNL    H26   51   0.461  -0.188  -0.072
    1UNL    H27   52   0.561  -0.287   0.041
    1UNL    H28   53   0.573  -0.113   0.052
   0.00000   0.00000   0.00000   0.00000   0.00000   0.00000   0.00000   0.00000   0.00000
Generated with MDTraj, t= 74.0
 53
    1UNL     C1    1   0.171   0.423   0.004
    1UNL     O1    2   0.101   0.305   0.028
    1UNL     C2    3  -0.002   0.273  -0.070
    1UNL     C3    4  -0.061   0.377  -0.138
    1UNL     C4    5  -0.176   0.358  -0.215
    1UNL     C5    6  -0.245   0.488  -0.266
    1UNL     C6    7  -0.230   0.228  -0.219
    1UNL     C7    8  -0.164   0.118  -0.166
    1UNL     C8    9  -0.047   0.143  -0.089
    1UNL     C9   10   0.035   0.032  -0.039
    1UNL     O2   11   0.034  -0.083  -0.130
    1UNL    C10   12  -0.030  -0.012   0.100
    1UNL     O3   13  -0.166  -0.055   0.093
    1UNL    C11   14  -0.164  -0.185   0.057
    1UNL     O4   15  -0.066  -0.256   0.037
    1UNL    C12   16  -0.297  -0.262   0.040
    1UNL    C13   17  -0.303  -0.343  -0.084
    1UNL    C14   18  -0.318  -0.339   0.175
    1UNL    C15   19   0.181   0.071  -0.018
    1UNL     O5   20   0.263  -0.051  -0.011
    1UNL    C16   21   0.295  -0.080   0.118
    1UNL     O6   22   0.265  -0.017   0.217
    1UNL    C17   23   0.372  -0.214   0.130
    1UNL    C18   24   0.296  -0.335   0.099
    1UNL    C19   25   0.486  -0.190   0.023
    1UNL     H1   26   0.107   0.502   0.047
    1UNL     H2   27   0.189   0.426  -0.101
    1UNL     H3   28   0.267   0.433   0.063
    1UNL     H4   29  -0.025   0.478  -0.133
    1UNL     H5   30  -0.194   0.520  -0.357
    1UNL     H6   31  -0.347   0.460  -0.287
    1UNL     H7   32  -0.238   0.575  -0.201
    1UNL     H8   33  -0.313   0.207  -0.279
    1UNL     H9   34  -0.208   0.023  -0.183
    1UNL    H10   35   0.005  -0.161  -0.078
    1UNL    H11   36   0.034  -0.087   0.147
    1UNL    H12   37  -0.045   0.078   0.164
    1UNL    H13   38  -0.379  -0.182   0.035
    1UNL    H14   39  -0.294  -0.283  -0.168
    1UNL    H15   40  -0.402  -0.401  -0.089
    1UNL    H16   41  -0.211  -0.402  -0.074
    1UNL    H17   42  -0.415  -0.377   0.182
    1UNL    H18   43  -0.300  -0.276   0.256
    1UNL    H19   44  -0.244  -0.415   0.166
    1UNL    H20   45   0.211   0.121  -0.110
    1UNL    H21   46   0.212   0.133   0.075
    1UNL    H22   47   0.403  -0.224   0.233
    1UNL    H23   48   0.211  -0.350   0.159
    1UNL    H24   49   0.357  -0.429   0.102
    1UNL    H25   50   0.260  -0.311  -0.008
    1UNL    H26   51   0.443  -0.198  -0.080
    1UNL    H27   52   0.573  -0.250   0.037
    1UNL    H28   53   0.521  -0.087   0.043
   0.00000   0.00000   0.00000   0.00000   0.00000   0.00000   0.00000   0.00000   0.00000
Generated with MDTraj, t= 75.0
 53
    1UNL     C1    1   0.164   0.455   0.031
    1UNL     O1    2   0.121   0.320   0.008
    1UNL     C2    3  -0.005   0.301  -0.062
    1UNL     C3    4  -0.087   0.399  -0.116
    1UNL     C4    5  -0.192   0.365  -0.201
    1UNL     C5    6  -0.252   0.457  -0.298
    1UNL     C6    7  -0.229   0.231  -0.212
    1UNL     C7    8  -0.161   0.131  -0.146
    1UNL     C8    9  -0.044   0.164  -0.080
    1UNL     C9   10   0.039   0.036  -0.046
    1UNL     O2   11   0.017  -0.059  -0.148
    1UNL    C10   12  -0.004  -0.030   0.095
    1UNL     O3   13  -0.136  -0.084   0.085
    1UNL    C11   14  -0.145  -0.215   0.051
    1UNL     O4   15  -0.055  -0.294   0.024
    1UNL    C12   16  -0.286  -0.261   0.048
    1UNL    C13   17  -0.323  -0.351  -0.074
    1UNL    C14   18  -0.336  -0.312   0.187
    1UNL    C15   19   0.183   0.065  -0.039
    1UNL     O5   20   0.283  -0.042  -0.024
    1UNL    C16   21   0.294  -0.080   0.107
    1UNL     O6   22   0.240  -0.025   0.202
    1UNL    C17   23   0.365  -0.214   0.129
    1UNL    C18   24   0.270  -0.326   0.113
    1UNL    C19   25   0.504  -0.220   0.056
    1UNL     H1   26   0.075   0.515   0.058
    1UNL     H2   27   0.219   0.484  -0.058
    1UNL     H3   28   0.228   0.463   0.125
    1UNL     H4   29  -0.057   0.501  -0.105
    1UNL     H5   30  -0.180   0.460  -0.382
    1UNL     H6   31  -0.354   0.431  -0.329
    1UNL     H7   32  -0.246   0.562  -0.271
    1UNL     H8   33  -0.312   0.212  -0.283
    1UNL     H9   34  -0.180   0.024  -0.164
    1UNL    H10   35   0.025  -0.153  -0.121
    1UNL    H11   36   0.054  -0.117   0.118
    1UNL    H12   37   0.009   0.042   0.177
    1UNL    H13   38  -0.333  -0.156   0.038
    1UNL    H14   39  -0.275  -0.302  -0.166
    1UNL    H15   40  -0.427  -0.354  -0.094
    1UNL    H16   41  -0.269  -0.443  -0.060
    1UNL    H17   42  -0.429  -0.355   0.176
    1UNL    H18   43  -0.341  -0.239   0.261
    1UNL    H19   44  -0.264  -0.389   0.207
    1UNL    H20   45   0.216   0.112  -0.129
    1UNL    H21   46   0.190   0.139   0.049
    1UNL    H22   47   0.389  -0.206   0.236
    1UNL    H23   48   0.176  -0.315   0.164
    1UNL    H24   49   0.305  -0.425   0.154
    1UNL    H25   50   0.235  -0.342   0.008
    1UNL    H26   51   0.481  -0.184  -0.047
    1UNL    H27   52   0.531  -0.323   0.044
    1UNL    H28   53   0.595  -0.178   0.100
   0.00000   0.00000   0.00000   0.00000   0.00000   0.00000   0.00000   0.00000   0.00000
Generated with MDTraj, t= 76.0
 53
    1UNL     C1    1   0.118   0.447   0.053
    1UNL     O1    2   0.125   0.315  -0.004
    1UNL     C2    3   0.020   0.287  -0.087
    1UNL     C3    4  -0.056   0.387  -0.152
    1UNL     C4    5  -0.183   0.358  -0.200
    1UNL     C5    6  -0.281   0.470  -0.234
    1UNL     C6    7  -0.235   0.226  -0.191
    1UNL     C7    8  -0.154   0.122  -0.157
    1UNL     C8    9  -0.027   0.152  -0.109
    1UNL     C9   10   0.054   0.031  -0.065
    1UNL     O2   11   0.039  -0.080  -0.155
    1UNL    C10   12  -0.016  -0.013   0.074
    1UNL     O3   13  -0.149  -0.061   0.068
    1UNL    C11   14  -0.151  -0.192   0.046
    1UNL     O4   15  -0.051  -0.263   0.027
    1UNL    C12   16  -0.289  -0.254   0.047
    1UNL    C13   17  -0.286  -0.361  -0.056
    1UNL    C14   18  -0.319  -0.308   0.186
    1UNL    C15   19   0.197   0.056  -0.037
    1UNL     O5   20   0.274  -0.056  -0.020
    1UNL    C16   21   0.286  -0.083   0.113
    1UNL     O6   22   0.254  -0.017   0.213
    1UNL    C17   23   0.347  -0.217   0.140
    1UNL    C18   24   0.245  -0.318   0.100
    1UNL    C19   25   0.482  -0.228   0.068
    1UNL     H1   26   0.019   0.468   0.096
    1UNL     H2   27   0.145   0.517  -0.027
    1UNL     H3   28   0.192   0.444   0.138
    1UNL     H4   29  -0.015   0.486  -0.161
    1UNL     H5   30  -0.252   0.509  -0.333
    1UNL     H6   31  -0.388   0.446  -0.231
    1UNL     H7   32  -0.262   0.564  -0.184
    1UNL     H8   33  -0.335   0.214  -0.226
    1UNL     H9   34  -0.193   0.024  -0.164
    1UNL    H10   35   0.012  -0.163  -0.108
    1UNL    H11   36   0.041  -0.087   0.127
    1UNL    H12   37  -0.018   0.071   0.144
    1UNL    H13   38  -0.356  -0.165   0.023
    1UNL    H14   39  -0.287  -0.315  -0.166
    1UNL    H15   40  -0.366  -0.424  -0.055
    1UNL    H16   41  -0.191  -0.413  -0.051
    1UNL    H17   42  -0.409  -0.355   0.203
    1UNL    H18   43  -0.319  -0.231   0.256
    1UNL    H19   44  -0.243  -0.379   0.210
    1UNL    H20   45   0.229   0.095  -0.129
    1UNL    H21   46   0.221   0.128   0.046
    1UNL    H22   47   0.369  -0.221   0.250
    1UNL    H23   48   0.158  -0.317   0.169
    1UNL    H24   49   0.280  -0.425   0.109
    1UNL    H25   50   0.205  -0.295   0.002
    1UNL    H26   51   0.452  -0.294  -0.015
    1UNL    H27   52   0.554  -0.290   0.120
    1UNL    H28   53   0.537  -0.139   0.038
   0.00000   0.00000   0.00000   0.00000   0.00000   0.00000   0.00000   0.00000   0.00000
Generated with MDTraj, t= 77.0
 53
    1UNL     C1    1   0.157   0.370   0.084
    1UNL     O1    2   0.134   0.337  -0.057
    1UNL     C2    3   0.003   0.289  -0.096
    1UNL     C3    4  -0.098   0.390  -0.115
    1UNL     C4    5  -0.211   0.369  -0.185
    1UNL     C5    6  -0.315   0.477  -0.210
    1UNL     C6    7  -0.223   0.240  -0.233
    1UNL     C7    8  -0.140   0.130  -0.208
    1UNL     C8    9  -0.027   0.158  -0.131
    1UNL     C9   10   0.052   0.042  -0.071
    1UNL     O2   11   0.044  -0.076  -0.154
    1UNL    C10   12  -0.016   0.010   0.065
    1UNL     O3   13  -0.140  -0.053   0.052
    1UNL    C11   14  -0.135  -0.185   0.056
    1UNL     O4   15  -0.035  -0.254   0.062
    1UNL    C12   16  -0.272  -0.255   0.052
    1UNL    C13   17  -0.264  -0.363  -0.055
    1UNL    C14   18  -0.304  -0.307   0.193
    1UNL    C15   19   0.194   0.066  -0.041
    1UNL     O5   20   0.261  -0.058  -0.019
    1UNL    C16   21   0.282  -0.090   0.110
    1UNL     O6   22   0.250  -0.010   0.196
    1UNL    C17   23   0.328  -0.233   0.147
    1UNL    C18   24   0.227  -0.336   0.116
    1UNL    C19   25   0.475  -0.245   0.095
    1UNL     H1   26   0.064   0.377   0.140
    1UNL     H2   27   0.206   0.467   0.089
    1UNL     H3   28   0.216   0.287   0.129
    1UNL     H4   29  -0.071   0.491  -0.090
    1UNL     H5   30  -0.291   0.513  -0.312
    1UNL     H6   31  -0.419   0.438  -0.203
    1UNL     H7   32  -0.299   0.566  -0.149
    1UNL     H8   33  -0.301   0.228  -0.306
    1UNL     H9   34  -0.172   0.028  -0.234
    1UNL    H10   35   0.062  -0.153  -0.096
    1UNL    H11   36   0.049  -0.046   0.129
    1UNL    H12   37  -0.047   0.097   0.126
    1UNL    H13   38  -0.343  -0.176   0.017
    1UNL    H14   39  -0.236  -0.333  -0.156
    1UNL    H15   40  -0.359  -0.410  -0.074
    1UNL    H16   41  -0.190  -0.438  -0.030
    1UNL    H17   42  -0.404  -0.332   0.218
    1UNL    H18   43  -0.287  -0.232   0.263
    1UNL    H19   44  -0.249  -0.389   0.226
    1UNL    H20   45   0.241   0.102  -0.125
    1UNL    H21   46   0.205   0.136   0.043
    1UNL    H22   47   0.341  -0.241   0.260
    1UNL    H23   48   0.122  -0.314   0.162
    1UNL    H24   49   0.267  -0.426   0.167
    1UNL    H25   50   0.226  -0.335   0.010
    1UNL    H26   51   0.491  -0.176   0.013
    1UNL    H27   52   0.506  -0.341   0.054
    1UNL    H28   53   0.539  -0.227   0.178
   0.00000   0.00000   0.00000   0.00000   0.00000   0.00000   0.00000   0.00000   0.00000
Generated with MDTraj, t= 78.0
 53
    1UNL     C1    1   0.102   0.363   0.107
    1UNL     O1    2   0.139   0.314  -0.019
    1UNL     C2    3   0.019   0.288  -0.095
    1UNL     C3    4  -0.067   0.390  -0.126
    1UNL     C4    5  -0.191   0.371  -0.190
    1UNL     C5    6  -0.291   0.484  -0.189
    1UNL     C6    7  -0.231   0.242  -0.220
    1UNL     C7    8  -0.143   0.131  -0.197
    1UNL     C8    9  -0.019   0.153  -0.142
    1UNL     C9   10   0.052   0.029  -0.089
    1UNL     O2   11   0.022  -0.091  -0.158
    1UNL    C10   12  -0.010   0.010   0.050
    1UNL     O3   13  -0.142  -0.039   0.050
    1UNL    C11   14  -0.140  -0.178   0.061
    1UNL     O4   15  -0.039  -0.242   0.076
    1UNL    C12   16  -0.268  -0.252   0.056
    1UNL    C13   17  -0.251  -0.365  -0.055
    1UNL    C14   18  -0.290  -0.314   0.191
    1UNL    C15   19   0.202   0.041  -0.082
    1UNL     O5   20   0.267  -0.077  -0.041
    1UNL    C16   21   0.271  -0.086   0.097
    1UNL     O6   22   0.235   0.004   0.172
    1UNL    C17   23   0.321  -0.206   0.157
    1UNL    C18   24   0.230  -0.332   0.124
    1UNL    C19   25   0.464  -0.221   0.105
    1UNL     H1   26   0.046   0.297   0.171
    1UNL     H2   27   0.037   0.449   0.095
    1UNL     H3   28   0.201   0.380   0.154
    1UNL     H4   29  -0.039   0.488  -0.089
    1UNL     H5   30  -0.280   0.528  -0.289
    1UNL     H6   31  -0.393   0.442  -0.174
    1UNL     H7   32  -0.269   0.564  -0.117
    1UNL     H8   33  -0.337   0.230  -0.243
    1UNL     H9   34  -0.166   0.030  -0.220
    1UNL    H10   35   0.016  -0.158  -0.087
    1UNL    H11   36   0.045  -0.065   0.104
    1UNL    H12   37   0.000   0.096   0.117
    1UNL    H13   38  -0.349  -0.184   0.023
    1UNL    H14   39  -0.216  -0.326  -0.139
    1UNL    H15   40  -0.345  -0.416  -0.090
    1UNL    H16   41  -0.174  -0.438  -0.027
    1UNL    H17   42  -0.362  -0.392   0.181
    1UNL    H18   43  -0.332  -0.241   0.253
    1UNL    H19   44  -0.203  -0.352   0.229
    1UNL    H20   45   0.235   0.067  -0.176
    1UNL    H21   46   0.237   0.120  -0.013
    1UNL    H22   47   0.326  -0.190   0.271
    1UNL    H23   48   0.123  -0.325   0.164
    1UNL    H24   49   0.277  -0.426   0.158
    1UNL    H25   50   0.225  -0.318   0.018
    1UNL    H26   51   0.471  -0.295   0.027
    1UNL    H27   52   0.528  -0.262   0.185
    1UNL    H28   53   0.508  -0.128   0.076
   0.00000   0.00000   0.00000   0.00000   0.00000   0.00000   0.00000   0.00000   0.00000
Generated with MDTraj, t= 79.0
 53
    1UNL     C1    1   0.116   0.365   0.120
    1UNL     O1    2   0.106   0.268   0.015
    1UNL     C2    3   0.001   0.276  -0.080
    1UNL     C3    4  -0.067   0.393  -0.115
    1UNL     C4    5  -0.182   0.385  -0.195
    1UNL     C5    6  -0.257   0.512  -0.235
    1UNL     C6    7  -0.223   0.259  -0.242
    1UNL     C7    8  -0.156   0.146  -0.203
    1UNL     C8    9  -0.041   0.149  -0.126
    1UNL     C9   10   0.029   0.017  -0.082
    1UNL     O2   11  -0.012  -0.088  -0.166
    1UNL    C10   12  -0.006  -0.003   0.057
    1UNL     O3   13  -0.136  -0.054   0.075
    1UNL    C11   14  -0.134  -0.195   0.061
    1UNL     O4   15  -0.036  -0.266   0.057
    1UNL    C12   16  -0.270  -0.256   0.053
    1UNL    C13   17  -0.282  -0.363  -0.062
    1UNL    C14   18  -0.308  -0.324   0.186
    1UNL    C15   19   0.187   0.026  -0.091
    1UNL     O5   20   0.263  -0.084  -0.040
    1UNL    C16   21   0.284  -0.066   0.094
    1UNL     O6   22   0.261   0.026   0.172
    1UNL    C17   23   0.353  -0.188   0.149
    1UNL    C18   24   0.260  -0.311   0.146
    1UNL    C19   25   0.493  -0.208   0.105
    1UNL     H1   26   0.193   0.340   0.190
    1UNL     H2   27   0.024   0.375   0.179
    1UNL     H3   28   0.160   0.450   0.066
    1UNL     H4   29  -0.036   0.489  -0.075
    1UNL     H5   30  -0.233   0.536  -0.339
    1UNL     H6   31  -0.366   0.494  -0.241
    1UNL     H7   32  -0.246   0.608  -0.177
    1UNL     H8   33  -0.302   0.241  -0.311
    1UNL     H9   34  -0.203   0.052  -0.238
    1UNL    H10   35  -0.021  -0.167  -0.108
    1UNL    H11   36   0.062  -0.073   0.102
    1UNL    H12   37   0.005   0.088   0.120
    1UNL    H13   38  -0.349  -0.183   0.027
    1UNL    H14   39  -0.277  -0.314  -0.157
    1UNL    H15   40  -0.383  -0.412  -0.059
    1UNL    H16   41  -0.204  -0.435  -0.059
    1UNL    H17   42  -0.413  -0.336   0.183
    1UNL    H18   43  -0.284  -0.250   0.257
    1UNL    H19   44  -0.258  -0.415   0.196
    1UNL    H20   45   0.223   0.053  -0.185
    1UNL    H21   46   0.214   0.116  -0.030
    1UNL    H22   47   0.371  -0.179   0.263
    1UNL    H23   48   0.160  -0.289   0.184
    1UNL    H24   49   0.278  -0.403   0.207
    1UNL    H25   50   0.236  -0.340   0.040
    1UNL    H26   51   0.513  -0.175   0.006
    1UNL    H27   52   0.519  -0.314   0.107
    1UNL    H28   53   0.560  -0.156   0.171
   0.00000   0.00000   0.00000   0.00000   0.00000   0.00000   0.00000   0.00000   0.00000
Generated with MDTraj, t= 80.0
 53
    1UNL     C1    1   0.114   0.406   0.117
    1UNL     O1    2   0.100   0.286   0.038
    1UNL     C2    3  -0.010   0.269  -0.051
    1UNL     C3    4  -0.071   0.385  -0.101
    1UNL     C4    5  -0.153   0.383  -0.207
    1UNL     C5    6  -0.213   0.507  -0.265
    1UNL     C6    7  -0.188   0.260  -0.264
    1UNL     C7    8  -0.133   0.142  -0.216
    1UNL     C8    9  -0.046   0.147  -0.109
    1UNL     C9   10   0.011   0.020  -0.062
    1UNL     O2   11  -0.007  -0.090  -0.151
    1UNL    C10   12  -0.026  -0.023   0.079
    1UNL     O3   13  -0.150  -0.081   0.092
    1UNL    C11   14  -0.157  -0.214   0.061
    1UNL     O4   15  -0.060  -0.278   0.035
    1UNL    C12   16  -0.298  -0.270   0.062
    1UNL    C13   17  -0.326  -0.363  -0.060
    1UNL    C14   18  -0.321  -0.358   0.189
    1UNL    C15   19   0.173   0.042  -0.079
    1UNL     O5   20   0.239  -0.079  -0.034
    1UNL    C16   21   0.302  -0.064   0.090
    1UNL     O6   22   0.303   0.041   0.147
    1UNL    C17   23   0.372  -0.179   0.151
    1UNL    C18   24   0.275  -0.296   0.134
    1UNL    C19   25   0.510  -0.185   0.072
    1UNL     H1   26   0.200   0.467   0.097
    1UNL     H2   27   0.123   0.375   0.221
    1UNL     H3   28   0.027   0.471   0.104
    1UNL     H4   29  -0.058   0.482  -0.055
    1UNL     H5   30  -0.169   0.538  -0.363
    1UNL     H6   31  -0.320   0.499  -0.288
    1UNL     H7   32  -0.205   0.594  -0.195
    1UNL     H8   33  -0.266   0.255  -0.342
    1UNL     H9   34  -0.147   0.045  -0.258
    1UNL    H10   35   0.018  -0.174  -0.110
    1UNL    H11   36   0.044  -0.094   0.124
    1UNL    H12   37  -0.019   0.064   0.148
    1UNL    H13   38  -0.379  -0.194   0.054
    1UNL    H14   39  -0.321  -0.311  -0.167
    1UNL    H15   40  -0.427  -0.399  -0.049
    1UNL    H16   41  -0.262  -0.444  -0.065
    1UNL    H17   42  -0.416  -0.398   0.193
    1UNL    H18   43  -0.311  -0.293   0.271
    1UNL    H19   44  -0.250  -0.437   0.194
    1UNL    H20   45   0.200   0.066  -0.179
    1UNL    H21   46   0.209   0.136  -0.027
    1UNL    H22   47   0.386  -0.153   0.262
    1UNL    H23   48   0.176  -0.303   0.170
    1UNL    H24   49   0.320  -0.387   0.178
    1UNL    H25   50   0.262  -0.326   0.022
    1UNL    H26   51   0.507  -0.252  -0.010
    1UNL    H27   52   0.603  -0.208   0.124
    1UNL    H28   53   0.523  -0.086   0.030
   0.00000   0.00000   0.00000   0.00000   0.00000   0.00000   0.00000   0.00000   0.00000
Generated with MDTraj, t= 81.0
 53
    1UNL     C1    1   0.096   0.390   0.129
    1UNL     O1    2   0.053   0.270   0.071
    1UNL     C2    3  -0.021   0.273  -0.049
    1UNL     C3    4  -0.072   0.387  -0.116
    1UNL     C4    5  -0.160   0.384  -0.224
    1UNL     C5    6  -0.188   0.512  -0.298
    1UNL     C6    7  -0.195   0.258  -0.279
    1UNL     C7    8  -0.152   0.145  -0.213
    1UNL     C8    9  -0.059   0.145  -0.109
    1UNL     C9   10   0.014   0.015  -0.062
    1UNL     O2   11   0.006  -0.085  -0.166
    1UNL    C10   12  -0.040  -0.020   0.067
    1UNL     O3   13  -0.172  -0.064   0.063
    1UNL    C11   14  -0.174  -0.207   0.063
    1UNL     O4   15  -0.070  -0.268   0.055
    1UNL    C12   16  -0.311  -0.273   0.076
    1UNL    C13   17  -0.349  -0.339  -0.053
    1UNL    C14   18  -0.305  -0.374   0.188
    1UNL    C15   19   0.167   0.046  -0.045
    1UNL     O5   20   0.239  -0.076  -0.015
    1UNL    C16   21   0.325  -0.060   0.097
    1UNL     O6   22   0.345   0.037   0.161
    1UNL    C17   23   0.405  -0.189   0.134
    1UNL    C18   24   0.309  -0.306   0.130
    1UNL    C19   25   0.532  -0.195   0.050
    1UNL     H1   26   0.151   0.448   0.058
    1UNL     H2   27   0.176   0.366   0.200
    1UNL     H3   28   0.013   0.434   0.189
    1UNL     H4   29  -0.036   0.482  -0.083
    1UNL     H5   30  -0.107   0.534  -0.372
    1UNL     H6   31  -0.285   0.515  -0.348
    1UNL     H7   32  -0.186   0.588  -0.215
    1UNL     H8   33  -0.254   0.255  -0.367
    1UNL     H9   34  -0.177   0.046  -0.249
    1UNL    H10   35   0.045  -0.170  -0.133
    1UNL    H11   36   0.022  -0.092   0.120
    1UNL    H12   37  -0.042   0.070   0.136
    1UNL    H13   38  -0.390  -0.198   0.101
    1UNL    H14   39  -0.339  -0.258  -0.140
    1UNL    H15   40  -0.447  -0.381  -0.054
    1UNL    H16   41  -0.285  -0.418  -0.091
    1UNL    H17   42  -0.377  -0.447   0.198
    1UNL    H18   43  -0.306  -0.326   0.281
    1UNL    H19   44  -0.212  -0.429   0.186
    1UNL    H20   45   0.207   0.091  -0.134
    1UNL    H21   46   0.192   0.119   0.040
    1UNL    H22   47   0.432  -0.170   0.244
    1UNL    H23   48   0.231  -0.286   0.197
    1UNL    H24   49   0.363  -0.397   0.166
    1UNL    H25   50   0.257  -0.324   0.028
    1UNL    H26   51   0.515  -0.131  -0.036
    1UNL    H27   52   0.564  -0.290   0.011
    1UNL    H28   53   0.612  -0.149   0.109
   0.00000   0.00000   0.00000   0.00000   0.00000   0.00000   0.00000   0.00000   0.00000
Generated with MDTraj, t= 82.0
 53
    1UNL     C1    1   0.075   0.411   0.125
    1UNL     O1    2   0.029   0.285   0.081
    1UNL     C2    3  -0.032   0.271  -0.047
    1UNL     C3    4  -0.084   0.388  -0.109
    1UNL     C4    5  -0.135   0.377  -0.241
    1UNL     C5    6  -0.206   0.500  -0.287
    1UNL     C6    7  -0.147   0.257  -0.301
    1UNL     C7    8  -0.098   0.142  -0.242
    1UNL     C8    9  -0.038   0.147  -0.115
    1UNL     C9   10   0.014   0.017  -0.049
    1UNL     O2   11  -0.004  -0.096  -0.134
    1UNL    C10   12  -0.056  -0.010   0.082
    1UNL     O3   13  -0.185  -0.074   0.068
    1UNL    C11   14  -0.176  -0.206   0.068
    1UNL     O4   15  -0.073  -0.270   0.061
    1UNL    C12   16  -0.306  -0.269   0.081
    1UNL    C13   17  -0.355  -0.309  -0.059
    1UNL    C14   18  -0.303  -0.386   0.179
    1UNL    C15   19   0.163   0.035  -0.023
    1UNL     O5   20   0.219  -0.086   0.026
    1UNL    C16   21   0.330  -0.061   0.095
    1UNL     O6   22   0.377   0.038   0.140
    1UNL    C17   23   0.409  -0.188   0.113
    1UNL    C18   24   0.312  -0.311   0.109
    1UNL    C19   25   0.525  -0.188   0.018
    1UNL     H1   26   0.130   0.462   0.045
    1UNL     H2   27   0.166   0.392   0.188
    1UNL     H3   28  -0.002   0.457   0.192
    1UNL     H4   29  -0.088   0.486  -0.064
    1UNL     H5   30  -0.149   0.576  -0.346
    1UNL     H6   31  -0.299   0.474  -0.341
    1UNL     H7   32  -0.241   0.546  -0.192
    1UNL     H8   33  -0.212   0.249  -0.390
    1UNL     H9   34  -0.115   0.048  -0.291
    1UNL    H10   35  -0.006  -0.168  -0.069
    1UNL    H11   36   0.008  -0.079   0.138
    1UNL    H12   37  -0.068   0.076   0.152
    1UNL    H13   38  -0.380  -0.201   0.128
    1UNL    H14   39  -0.366  -0.229  -0.132
    1UNL    H15   40  -0.445  -0.367  -0.051
    1UNL    H16   41  -0.287  -0.381  -0.120
    1UNL    H17   42  -0.400  -0.406   0.218
    1UNL    H18   43  -0.246  -0.383   0.266
    1UNL    H19   44  -0.279  -0.479   0.130
    1UNL    H20   45   0.221   0.070  -0.110
    1UNL    H21   46   0.190   0.110   0.062
    1UNL    H22   47   0.444  -0.171   0.220
    1UNL    H23   48   0.245  -0.295   0.193
    1UNL    H24   49   0.375  -0.403   0.128
    1UNL    H25   50   0.253  -0.312   0.016
    1UNL    H26   51   0.509  -0.260  -0.062
    1UNL    H27   52   0.607  -0.233   0.069
    1UNL    H28   53   0.552  -0.087  -0.018
   0.00000   0.00000   0.00000   0.00000   0.00000   0.00000   0.00000   0.00000   0.00000
Generated with MDTraj, t= 83.0
 53
    1UNL     C1    1   0.058   0.411   0.142
    1UNL     O1    2   0.016   0.284   0.086
    1UNL     C2    3  -0.042   0.276  -0.041
    1UNL     C3    4  -0.113   0.382  -0.103
    1UNL     C4    5  -0.163   0.371  -0.237
    1UNL     C5    6  -0.210   0.490  -0.313
    1UNL     C6    7  -0.119   0.260  -0.306
    1UNL     C7    8  -0.063   0.146  -0.243
    1UNL     C8    9  -0.029   0.149  -0.111
    1UNL     C9   10   0.018   0.024  -0.037
    1UNL     O2   11  -0.007  -0.091  -0.119
    1UNL    C10   12  -0.066   0.001   0.094
    1UNL     O3   13  -0.195  -0.054   0.077
    1UNL    C11   14  -0.190  -0.197   0.081
    1UNL     O4   15  -0.088  -0.266   0.082
    1UNL    C12   16  -0.316  -0.275   0.076
    1UNL    C13   17  -0.357  -0.291  -0.066
    1UNL    C14   18  -0.307  -0.409   0.158
    1UNL    C15   19   0.167   0.041  -0.006
    1UNL     O5   20   0.217  -0.085   0.028
    1UNL    C16   21   0.346  -0.076   0.074
    1UNL     O6   22   0.396   0.034   0.086
    1UNL    C17   23   0.429  -0.197   0.116
    1UNL    C18   24   0.333  -0.314   0.130
    1UNL    C19   25   0.540  -0.209   0.002
    1UNL     H1   26   0.166   0.417   0.126
    1UNL     H2   27   0.051   0.413   0.253
    1UNL     H3   28  -0.007   0.493   0.106
    1UNL     H4   29  -0.131   0.473  -0.050
    1UNL     H5   30  -0.134   0.570  -0.334
    1UNL     H6   31  -0.259   0.459  -0.409
    1UNL     H7   32  -0.294   0.537  -0.262
    1UNL     H8   33  -0.138   0.251  -0.410
    1UNL     H9   34  -0.046   0.050  -0.289
    1UNL    H10   35  -0.004  -0.175  -0.069
    1UNL    H11   36  -0.022  -0.055   0.176
    1UNL    H12   37  -0.082   0.101   0.139
    1UNL    H13   38  -0.396  -0.222   0.133
    1UNL    H14   39  -0.358  -0.199  -0.109
    1UNL    H15   40  -0.446  -0.356  -0.079
    1UNL    H16   41  -0.271  -0.343  -0.125
    1UNL    H17   42  -0.377  -0.487   0.132
    1UNL    H18   43  -0.324  -0.385   0.259
    1UNL    H19   44  -0.208  -0.450   0.151
    1UNL    H20   45   0.235   0.070  -0.089
    1UNL    H21   46   0.190   0.118   0.079
    1UNL    H22   47   0.469  -0.163   0.215
    1UNL    H23   48   0.234  -0.290   0.183
    1UNL    H24   49   0.379  -0.407   0.174
    1UNL    H25   50   0.306  -0.333   0.029
    1UNL    H26   51   0.508  -0.164  -0.094
    1UNL    H27   52   0.561  -0.310  -0.023
    1UNL    H28   53   0.628  -0.152   0.034
   0.00000   0.00000   0.00000   0.00000   0.00000   0.00000   0.00000   0.00000   0.00000
Generated with MDTraj, t= 84.0
 53
    1UNL     C1    1   0.033   0.390   0.147
    1UNL     O1    2  -0.032   0.269   0.104
    1UNL     C2    3  -0.063   0.269  -0.034
    1UNL     C3    4  -0.104   0.377  -0.110
    1UNL     C4    5  -0.143   0.366  -0.240
    1UNL     C5    6  -0.184   0.488  -0.309
    1UNL     C6    7  -0.147   0.239  -0.304
    1UNL     C7    8  -0.087   0.138  -0.237
    1UNL     C8    9  -0.048   0.150  -0.108
    1UNL     C9   10   0.020   0.027  -0.035
    1UNL     O2   11   0.018  -0.098  -0.105
    1UNL    C10   12  -0.052  -0.005   0.107
    1UNL     O3   13  -0.179  -0.055   0.081
    1UNL    C11   14  -0.184  -0.191   0.086
    1UNL     O4   15  -0.088  -0.265   0.107
    1UNL    C12   16  -0.312  -0.254   0.062
    1UNL    C13   17  -0.337  -0.263  -0.086
    1UNL    C14   18  -0.316  -0.394   0.133
    1UNL    C15   19   0.168   0.047  -0.002
    1UNL     O5   20   0.223  -0.062   0.066
    1UNL    C16   21   0.354  -0.060   0.062
    1UNL     O6   22   0.430   0.027   0.020
    1UNL    C17   23   0.419  -0.194   0.103
    1UNL    C18   24   0.322  -0.302   0.128
    1UNL    C19   25   0.533  -0.229   0.009
    1UNL     H1   26   0.044   0.388   0.256
    1UNL     H2   27  -0.031   0.480   0.128
    1UNL     H3   28   0.131   0.392   0.097
    1UNL     H4   29  -0.109   0.477  -0.068
    1UNL     H5   30  -0.127   0.581  -0.292
    1UNL     H6   31  -0.194   0.463  -0.419
    1UNL     H7   32  -0.289   0.505  -0.285
    1UNL     H8   33  -0.198   0.226  -0.400
    1UNL     H9   34  -0.087   0.038  -0.280
    1UNL    H10   35   0.007  -0.177  -0.047
    1UNL    H11   36   0.004  -0.080   0.161
    1UNL    H12   37  -0.066   0.075   0.183
    1UNL    H13   38  -0.392  -0.195   0.115
    1UNL    H14   39  -0.300  -0.177  -0.136
    1UNL    H15   40  -0.440  -0.305  -0.107
    1UNL    H16   41  -0.265  -0.342  -0.116
    1UNL    H17   42  -0.417  -0.424   0.161
    1UNL    H18   43  -0.251  -0.394   0.218
    1UNL    H19   44  -0.279  -0.460   0.061
    1UNL    H20   45   0.225   0.060  -0.095
    1UNL    H21   46   0.191   0.137   0.066
    1UNL    H22   47   0.467  -0.174   0.200
    1UNL    H23   48   0.247  -0.277   0.215
    1UNL    H24   49   0.361  -0.402   0.152
    1UNL    H25   50   0.257  -0.316   0.047
    1UNL    H26   51   0.512  -0.314  -0.059
    1UNL    H27   52   0.622  -0.262   0.062
    1UNL    H28   53   0.558  -0.141  -0.051
   0.00000   0.00000   0.00000   0.00000   0.00000   0.00000   0.00000   0.00000   0.00000
Generated with MDTraj, t= 85.0
 53
    1UNL     C1    1   0.013   0.410   0.144
    1UNL     O1    2  -0.006   0.277   0.106
    1UNL     C2    3  -0.052   0.264  -0.028
    1UNL     C3    4  -0.098   0.373  -0.107
    1UNL     C4    5  -0.140   0.356  -0.232
    1UNL     C5    6  -0.195   0.473  -0.311
    1UNL     C6    7  -0.116   0.230  -0.291
    1UNL     C7    8  -0.078   0.118  -0.218
    1UNL     C8    9  -0.045   0.136  -0.080
    1UNL     C9   10   0.020   0.022  -0.011
    1UNL     O2   11   0.012  -0.098  -0.097
    1UNL    C10   12  -0.048  -0.015   0.125
    1UNL     O3   13  -0.180  -0.070   0.107
    1UNL    C11   14  -0.181  -0.201   0.084
    1UNL     O4   15  -0.084  -0.275   0.087
    1UNL    C12   16  -0.318  -0.253   0.047
    1UNL    C13   17  -0.330  -0.244  -0.101
    1UNL    C14   18  -0.335  -0.389   0.110
    1UNL    C15   19   0.164   0.063   0.006
    1UNL     O5   20   0.230  -0.032   0.079
    1UNL    C16   21   0.353  -0.058   0.035
    1UNL     O6   22   0.405   0.006  -0.055
    1UNL    C17   23   0.419  -0.169   0.103
    1UNL    C18   24   0.316  -0.279   0.150
    1UNL    C19   25   0.531  -0.240   0.016
    1UNL     H1   26  -0.060   0.487   0.116
    1UNL     H2   27   0.102   0.453   0.089
    1UNL     H3   28   0.032   0.404   0.251
    1UNL     H4   29  -0.103   0.472  -0.065
    1UNL     H5   30  -0.175   0.569  -0.260
    1UNL     H6   31  -0.154   0.462  -0.415
    1UNL     H7   32  -0.304   0.460  -0.322
    1UNL     H8   33  -0.133   0.217  -0.396
    1UNL     H9   34  -0.072   0.023  -0.267
    1UNL    H10   35  -0.008  -0.177  -0.045
    1UNL    H11   36   0.008  -0.080   0.190
    1UNL    H12   37  -0.068   0.077   0.182
    1UNL    H13   38  -0.399  -0.187   0.092
    1UNL    H14   39  -0.288  -0.145  -0.142
    1UNL    H15   40  -0.429  -0.278  -0.142
    1UNL    H16   41  -0.260  -0.313  -0.134
    1UNL    H17   42  -0.385  -0.460   0.044
    1UNL    H18   43  -0.373  -0.397   0.213
    1UNL    H19   44  -0.236  -0.428   0.106
    1UNL    H20   45   0.216   0.060  -0.088
    1UNL    H21   46   0.182   0.162   0.055
    1UNL    H22   47   0.465  -0.124   0.190
    1UNL    H23   48   0.238  -0.228   0.215
    1UNL    H24   49   0.352  -0.367   0.205
    1UNL    H25   50   0.258  -0.314   0.063
    1UNL    H26   51   0.511  -0.205  -0.087
    1UNL    H27   52   0.507  -0.348   0.002
    1UNL    H28   53   0.638  -0.224   0.031
   0.00000   0.00000   0.00000   0.00000   0.00000   0.00000   0.00000   0.00000   0.00000
Generated with MDTraj, t= 86.0
 53
    1UNL     C1    1  -0.003   0.411   0.159
    1UNL     O1    2   0.005   0.284   0.102
    1UNL     C2    3  -0.053   0.281  -0.026
    1UNL     C3    4  -0.110   0.378  -0.107
    1UNL     C4    5  -0.150   0.353  -0.237
    1UNL     C5    6  -0.195   0.456  -0.335
    1UNL     C6    7  -0.152   0.221  -0.277
    1UNL     C7    8  -0.094   0.116  -0.206
    1UNL     C8    9  -0.040   0.146  -0.080
    1UNL     C9   10   0.032   0.037   0.004
    1UNL     O2   11   0.039  -0.076  -0.088
    1UNL    C10   12  -0.055  -0.001   0.122
    1UNL     O3   13  -0.183  -0.058   0.075
    1UNL    C11   14  -0.184  -0.195   0.075
    1UNL     O4   15  -0.087  -0.264   0.098
    1UNL    C12   16  -0.315  -0.260   0.031
    1UNL    C13   17  -0.330  -0.241  -0.119
    1UNL    C14   18  -0.342  -0.392   0.096
    1UNL    C15   19   0.174   0.077   0.044
    1UNL     O5   20   0.251  -0.025   0.107
    1UNL    C16   21   0.345  -0.077   0.032
    1UNL     O6   22   0.370  -0.042  -0.082
    1UNL    C17   23   0.433  -0.182   0.102
    1UNL    C18   24   0.356  -0.296   0.170
    1UNL    C19   25   0.538  -0.249   0.007
    1UNL     H1   26  -0.067   0.423   0.243
    1UNL     H2   27  -0.032   0.495   0.091
    1UNL     H3   28   0.096   0.422   0.199
    1UNL     H4   29  -0.113   0.474  -0.058
    1UNL     H5   30  -0.215   0.553  -0.286
    1UNL     H6   31  -0.127   0.466  -0.421
    1UNL     H7   32  -0.292   0.424  -0.379
    1UNL     H8   33  -0.197   0.200  -0.373
    1UNL     H9   34  -0.088   0.014  -0.242
    1UNL    H10   35   0.021  -0.152  -0.026
    1UNL    H11   36  -0.014  -0.075   0.189
    1UNL    H12   37  -0.086   0.090   0.177
    1UNL    H13   38  -0.389  -0.182   0.073
    1UNL    H14   39  -0.344  -0.130  -0.161
    1UNL    H15   40  -0.402  -0.308  -0.167
    1UNL    H16   41  -0.241  -0.266  -0.166
    1UNL    H17   42  -0.443  -0.427   0.093
    1UNL    H18   43  -0.300  -0.407   0.198
    1UNL    H19   44  -0.294  -0.468   0.036
    1UNL    H20   45   0.228   0.109  -0.041
    1UNL    H21   46   0.169   0.161   0.115
    1UNL    H22   47   0.493  -0.140   0.180
    1UNL    H23   48   0.278  -0.242   0.224
    1UNL    H24   49   0.418  -0.363   0.233
    1UNL    H25   50   0.303  -0.352   0.083
    1UNL    H26   51   0.471  -0.286  -0.072
    1UNL    H27   52   0.600  -0.335   0.048
    1UNL    H28   53   0.602  -0.179  -0.046
   0.00000   0.00000   0.00000   0.00000   0.00000   0.00000   0.00000   0.00000   0.00000
Generated with MDTraj, t= 87.0
 53
    1UNL     C1    1  -0.033   0.417   0.147
    1UNL     O1    2   0.041   0.308   0.092
    1UNL     C2    3  -0.019   0.282  -0.034
    1UNL     C3    4  -0.087   0.370  -0.111
    1UNL     C4    5  -0.157   0.332  -0.227
    1UNL     C5    6  -0.230   0.435  -0.298
    1UNL     C6    7  -0.144   0.208  -0.277
    1UNL     C7    8  -0.081   0.113  -0.201
    1UNL     C8    9  -0.023   0.151  -0.083
    1UNL     C9   10   0.033   0.035  -0.000
    1UNL     O2   11   0.053  -0.082  -0.086
    1UNL    C10   12  -0.054  -0.003   0.121
    1UNL     O3   13  -0.185  -0.044   0.086
    1UNL    C11   14  -0.181  -0.178   0.070
    1UNL     O4   15  -0.084  -0.250   0.082
    1UNL    C12   16  -0.310  -0.245   0.024
    1UNL    C13   17  -0.327  -0.242  -0.125
    1UNL    C14   18  -0.322  -0.388   0.081
    1UNL    C15   19   0.173   0.075   0.054
    1UNL     O5   20   0.243  -0.026   0.124
    1UNL    C16   21   0.330  -0.086   0.035
    1UNL     O6   22   0.337  -0.060  -0.082
    1UNL    C17   23   0.415  -0.186   0.097
    1UNL    C18   24   0.353  -0.294   0.173
    1UNL    C19   25   0.523  -0.241  -0.000
    1UNL     H1   26  -0.084   0.371   0.229
    1UNL     H2   27  -0.116   0.467   0.089
    1UNL     H3   28   0.018   0.492   0.202
    1UNL     H4   29  -0.073   0.475  -0.102
    1UNL     H5   30  -0.280   0.499  -0.223
    1UNL     H6   31  -0.176   0.502  -0.363
    1UNL     H7   32  -0.316   0.399  -0.360
    1UNL     H8   33  -0.190   0.191  -0.374
    1UNL     H9   34  -0.070   0.016  -0.244
    1UNL    H10   35   0.031  -0.159  -0.032
    1UNL    H11   36  -0.011  -0.084   0.180
    1UNL    H12   37  -0.072   0.085   0.186
    1UNL    H13   38  -0.391  -0.172   0.062
    1UNL    H14   39  -0.286  -0.155  -0.182
    1UNL    H15   40  -0.430  -0.264  -0.154
    1UNL    H16   41  -0.275  -0.330  -0.168
    1UNL    H17   42  -0.405  -0.445   0.043
    1UNL    H18   43  -0.316  -0.385   0.190
    1UNL    H19   44  -0.234  -0.443   0.041
    1UNL    H20   45   0.223   0.118  -0.027
    1UNL    H21   46   0.169   0.147   0.136
    1UNL    H22   47   0.469  -0.129   0.170
    1UNL    H23   48   0.299  -0.242   0.249
    1UNL    H24   49   0.426  -0.369   0.213
    1UNL    H25   50   0.272  -0.339   0.100
    1UNL    H26   51   0.494  -0.340  -0.040
    1UNL    H27   52   0.622  -0.253   0.054
    1UNL    H28   53   0.538  -0.182  -0.091
   0.00000   0.00000   0.00000   0.00000   0.00000   0.00000   0.00000   0.00000   0.00000
Generated with MDTraj, t= 88.0
 53
    1UNL     C1    1  -0.035   0.372   0.169
    1UNL     O1    2   0.048   0.328   0.064
    1UNL     C2    3  -0.029   0.280  -0.038
    1UNL     C3    4  -0.104   0.378  -0.114
    1UNL     C4    5  -0.174   0.339  -0.227
    1UNL     C5    6  -0.241   0.436  -0.321
    1UNL     C6    7  -0.164   0.205  -0.259
    1UNL     C7    8  -0.092   0.108  -0.193
    1UNL     C8    9  -0.021   0.148  -0.082
    1UNL     C9   10   0.045   0.041  -0.001
    1UNL     O2   11   0.061  -0.069  -0.088
    1UNL    C10   12  -0.040  -0.002   0.125
    1UNL     O3   13  -0.170  -0.048   0.082
    1UNL    C11   14  -0.169  -0.184   0.076
    1UNL     O4   15  -0.077  -0.257   0.101
    1UNL    C12   16  -0.307  -0.239   0.024
    1UNL    C13   17  -0.312  -0.241  -0.128
    1UNL    C14   18  -0.335  -0.378   0.070
    1UNL    C15   19   0.184   0.094   0.050
    1UNL     O5   20   0.253  -0.007   0.119
    1UNL    C16   21   0.335  -0.082   0.038
    1UNL     O6   22   0.367  -0.052  -0.073
    1UNL    C17   23   0.406  -0.200   0.106
    1UNL    C18   24   0.315  -0.297   0.165
    1UNL    C19   25   0.511  -0.270   0.002
    1UNL     H1   26   0.017   0.343   0.259
    1UNL     H2   27  -0.138   0.322   0.173
    1UNL     H3   28  -0.063   0.476   0.177
    1UNL     H4   29  -0.107   0.484  -0.086
    1UNL     H5   30  -0.332   0.467  -0.268
    1UNL     H6   31  -0.183   0.525  -0.343
    1UNL     H7   32  -0.273   0.382  -0.413
    1UNL     H8   33  -0.209   0.170  -0.350
    1UNL     H9   34  -0.077   0.005  -0.224
    1UNL    H10   35   0.029  -0.155  -0.053
    1UNL    H11   36   0.013  -0.077   0.184
    1UNL    H12   37  -0.061   0.087   0.189
    1UNL    H13   38  -0.384  -0.162   0.060
    1UNL    H14   39  -0.316  -0.143  -0.159
    1UNL    H15   40  -0.395  -0.301  -0.168
    1UNL    H16   41  -0.212  -0.287  -0.171
    1UNL    H17   42  -0.420  -0.413   0.010
    1UNL    H18   43  -0.342  -0.379   0.178
    1UNL    H19   44  -0.246  -0.437   0.032
    1UNL    H20   45   0.244   0.128  -0.029
    1UNL    H21   46   0.171   0.182   0.112
    1UNL    H22   47   0.468  -0.161   0.184
    1UNL    H23   48   0.245  -0.252   0.233
    1UNL    H24   49   0.357  -0.390   0.217
    1UNL    H25   50   0.249  -0.330   0.079
    1UNL    H26   51   0.480  -0.267  -0.104
    1UNL    H27   52   0.530  -0.377   0.028
    1UNL    H28   53   0.616  -0.231  -0.002
   0.00000   0.00000   0.00000   0.00000   0.00000   0.00000   0.00000   0.00000   0.00000
Generated with MDTraj, t= 89.0
 53
    1UNL     C1    1  -0.045   0.375   0.171
    1UNL     O1    2   0.038   0.296   0.087
    1UNL     C2    3  -0.028   0.271  -0.039
    1UNL     C3    4  -0.103   0.373  -0.112
    1UNL     C4    5  -0.176   0.335  -0.225
    1UNL     C5    6  -0.249   0.436  -0.304
    1UNL     C6    7  -0.179   0.199  -0.270
    1UNL     C7    8  -0.106   0.111  -0.200
    1UNL     C8    9  -0.033   0.142  -0.092
    1UNL     C9   10   0.044   0.042  -0.011
    1UNL     O2   11   0.056  -0.082  -0.090
    1UNL    C10   12  -0.025   0.009   0.121
    1UNL     O3   13  -0.157  -0.044   0.092
    1UNL    C11   14  -0.153  -0.178   0.072
    1UNL     O4   15  -0.055  -0.244   0.091
    1UNL    C12   16  -0.287  -0.232   0.024
    1UNL    C13   17  -0.294  -0.237  -0.132
    1UNL    C14   18  -0.325  -0.370   0.090
    1UNL    C15   19   0.187   0.088   0.020
    1UNL     O5   20   0.255  -0.008   0.102
    1UNL    C16   21   0.363  -0.071   0.045
    1UNL     O6   22   0.423  -0.022  -0.047
    1UNL    C17   23   0.380  -0.212   0.113
    1UNL    C18   24   0.249  -0.288   0.125
    1UNL    C19   25   0.476  -0.290   0.025
    1UNL     H1   26   0.004   0.470   0.187
    1UNL     H2   27  -0.061   0.331   0.276
    1UNL     H3   28  -0.149   0.385   0.136
    1UNL     H4   29  -0.097   0.472  -0.078
    1UNL     H5   30  -0.354   0.420  -0.276
    1UNL     H6   31  -0.225   0.540  -0.279
    1UNL     H7   32  -0.242   0.411  -0.411
    1UNL     H8   33  -0.219   0.179  -0.368
    1UNL     H9   34  -0.096   0.009  -0.231
    1UNL    H10   35   0.030  -0.165  -0.045
    1UNL    H11   36   0.030  -0.064   0.183
    1UNL    H12   37  -0.024   0.105   0.179
    1UNL    H13   38  -0.353  -0.147   0.063
    1UNL    H14   39  -0.276  -0.143  -0.176
    1UNL    H15   40  -0.397  -0.268  -0.156
    1UNL    H16   41  -0.219  -0.316  -0.172
    1UNL    H17   42  -0.431  -0.389   0.062
    1UNL    H18   43  -0.314  -0.359   0.197
    1UNL    H19   44  -0.266  -0.456   0.049
    1UNL    H20   45   0.242   0.104  -0.070
    1UNL    H21   46   0.191   0.183   0.074
    1UNL    H22   47   0.427  -0.196   0.211
    1UNL    H23   48   0.175  -0.222   0.178
    1UNL    H24   49   0.243  -0.384   0.188
    1UNL    H25   50   0.199  -0.308   0.033
    1UNL    H26   51   0.423  -0.358  -0.044
    1UNL    H27   52   0.542  -0.350   0.088
    1UNL    H28   53   0.545  -0.231  -0.042
   0.00000   0.00000   0.00000   0.00000   0.00000   0.00000   0.00000   0.00000   0.00000
Generated with MDTraj, t= 90.0
 53
    1UNL     C1    1  -0.048   0.418   0.164
    1UNL     O1    2   0.007   0.314   0.085
    1UNL     C2    3  -0.049   0.288  -0.036
    1UNL     C3    4  -0.140   0.374  -0.104
    1UNL     C4    5  -0.183   0.350  -0.234
    1UNL     C5    6  -0.281   0.444  -0.293
    1UNL     C6    7  -0.143   0.227  -0.289
    1UNL     C7    8  -0.065   0.134  -0.221
    1UNL     C8    9  -0.014   0.162  -0.095
    1UNL     C9   10   0.054   0.041  -0.023
    1UNL     O2   11   0.057  -0.069  -0.108
    1UNL    C10   12  -0.020   0.003   0.108
    1UNL     O3   13  -0.152  -0.043   0.082
    1UNL    C11   14  -0.152  -0.179   0.076
    1UNL     O4   15  -0.053  -0.248   0.085
    1UNL    C12   16  -0.291  -0.246   0.039
    1UNL    C13   17  -0.296  -0.266  -0.111
    1UNL    C14   18  -0.308  -0.374   0.121
    1UNL    C15   19   0.201   0.075   0.015
    1UNL     O5   20   0.242  -0.025   0.106
    1UNL    C16   21   0.357  -0.086   0.058
    1UNL     O6   22   0.437  -0.045  -0.023
    1UNL    C17   23   0.376  -0.225   0.111
    1UNL    C18   24   0.247  -0.314   0.113
    1UNL    C19   25   0.480  -0.303   0.024
    1UNL     H1   26  -0.075   0.509   0.110
    1UNL     H2   27   0.024   0.445   0.248
    1UNL     H3   28  -0.133   0.366   0.211
    1UNL     H4   29  -0.175   0.462  -0.047
    1UNL     H5   30  -0.377   0.392  -0.293
    1UNL     H6   31  -0.296   0.537  -0.235
    1UNL     H7   32  -0.264   0.459  -0.399
    1UNL     H8   33  -0.182   0.216  -0.389
    1UNL     H9   34  -0.030   0.049  -0.277
    1UNL    H10   35   0.006  -0.135  -0.059
    1UNL    H11   36   0.040  -0.076   0.157
    1UNL    H12   37  -0.023   0.088   0.179
    1UNL    H13   38  -0.364  -0.165   0.077
    1UNL    H14   39  -0.267  -0.170  -0.166
    1UNL    H15   40  -0.399  -0.280  -0.143
    1UNL    H16   41  -0.230  -0.344  -0.141
    1UNL    H17   42  -0.399  -0.436   0.094
    1UNL    H18   43  -0.330  -0.338   0.223
    1UNL    H19   44  -0.226  -0.446   0.127
    1UNL    H20   45   0.272   0.081  -0.070
    1UNL    H21   46   0.207   0.171   0.070
    1UNL    H22   47   0.403  -0.214   0.217
    1UNL    H23   48   0.176  -0.277   0.198
    1UNL    H24   49   0.283  -0.414   0.147
    1UNL    H25   50   0.198  -0.319   0.019
    1UNL    H26   51   0.489  -0.246  -0.071
    1UNL    H27   52   0.451  -0.405   0.005
    1UNL    H28   53   0.583  -0.306   0.069
   0.00000   0.00000   0.00000   0.00000   0.00000   0.00000   0.00000   0.00000   0.00000
Generated with MDTraj, t= 91.0
 53
    1UNL     C1    1  -0.030   0.433   0.156
    1UNL     O1    2  -0.030   0.300   0.105
    1UNL     C2    3  -0.051   0.284  -0.034
    1UNL     C3    4  -0.124   0.375  -0.103
    1UNL     C4    5  -0.173   0.352  -0.231
    1UNL     C5    6  -0.284   0.448  -0.282
    1UNL     C6    7  -0.124   0.245  -0.293
    1UNL     C7    8  -0.040   0.155  -0.233
    1UNL     C8    9  -0.006   0.168  -0.098
    1UNL     C9   10   0.055   0.053  -0.020
    1UNL     O2   11   0.066  -0.063  -0.105
    1UNL    C10   12  -0.050   0.015   0.083
    1UNL     O3   13  -0.165  -0.044   0.040
    1UNL    C11   14  -0.156  -0.176   0.060
    1UNL     O4   15  -0.053  -0.236   0.083
    1UNL    C12   16  -0.288  -0.250   0.055
    1UNL    C13   17  -0.296  -0.299  -0.089
    1UNL    C14   18  -0.277  -0.366   0.153
    1UNL    C15   19   0.193   0.074   0.047
    1UNL     O5   20   0.225  -0.051   0.106
    1UNL    C16   21   0.340  -0.098   0.045
    1UNL     O6   22   0.406  -0.045  -0.043
    1UNL    C17   23   0.377  -0.235   0.105
    1UNL    C18   24   0.248  -0.328   0.104
    1UNL    C19   25   0.504  -0.296   0.038
    1UNL     H1   26   0.042   0.500   0.112
    1UNL     H2   27  -0.010   0.419   0.265
    1UNL     H3   28  -0.135   0.462   0.142
    1UNL     H4   29  -0.162   0.458  -0.051
    1UNL     H5   30  -0.369   0.390  -0.318
    1UNL     H6   31  -0.324   0.514  -0.203
    1UNL     H7   32  -0.258   0.502  -0.372
    1UNL     H8   33  -0.146   0.231  -0.397
    1UNL     H9   34   0.009   0.077  -0.292
    1UNL    H10   35   0.093  -0.144  -0.052
    1UNL    H11   36  -0.002  -0.055   0.153
    1UNL    H12   37  -0.086   0.102   0.141
    1UNL    H13   38  -0.361  -0.174   0.095
    1UNL    H14   39  -0.344  -0.215  -0.157
    1UNL    H15   40  -0.381  -0.369  -0.095
    1UNL    H16   41  -0.212  -0.334  -0.133
    1UNL    H17   42  -0.378  -0.414   0.167
    1UNL    H18   43  -0.245  -0.338   0.258
    1UNL    H19   44  -0.217  -0.450   0.121
    1UNL    H20   45   0.274   0.100  -0.029
    1UNL    H21   46   0.191   0.154   0.126
    1UNL    H22   47   0.390  -0.216   0.214
    1UNL    H23   48   0.163  -0.283   0.170
    1UNL    H24   49   0.285  -0.417   0.156
    1UNL    H25   50   0.220  -0.354   0.002
    1UNL    H26   51   0.468  -0.368  -0.038
    1UNL    H27   52   0.577  -0.336   0.108
    1UNL    H28   53   0.552  -0.214  -0.019
   0.00000   0.00000   0.00000   0.00000   0.00000   0.00000   0.00000   0.00000   0.00000
Generated with MDTraj, t= 92.0
 53
    1UNL     C1    1  -0.016   0.428   0.169
    1UNL     O1    2   0.015   0.308   0.098
    1UNL     C2    3  -0.048   0.292  -0.028
    1UNL     C3    4  -0.126   0.383  -0.098
    1UNL     C4    5  -0.160   0.369  -0.234
    1UNL     C5    6  -0.218   0.476  -0.313
    1UNL     C6    7  -0.115   0.258  -0.304
    1UNL     C7    8  -0.040   0.164  -0.229
    1UNL     C8    9  -0.026   0.170  -0.091
    1UNL     C9   10   0.032   0.050  -0.017
    1UNL     O2   11   0.041  -0.064  -0.101
    1UNL    C10   12  -0.054   0.008   0.104
    1UNL     O3   13  -0.166  -0.063   0.076
    1UNL    C11   14  -0.155  -0.200   0.064
    1UNL     O4   15  -0.053  -0.269   0.052
    1UNL    C12   16  -0.286  -0.282   0.059
    1UNL    C13   17  -0.290  -0.352  -0.079
    1UNL    C14   18  -0.285  -0.387   0.167
    1UNL    C15   19   0.170   0.083   0.029
    1UNL     O5   20   0.235  -0.011   0.111
    1UNL    C16   21   0.322  -0.087   0.040
    1UNL     O6   22   0.357  -0.064  -0.076
    1UNL    C17   23   0.373  -0.219   0.111
    1UNL    C18   24   0.248  -0.320   0.098
    1UNL    C19   25   0.506  -0.254   0.050
    1UNL     H1   26   0.004   0.513   0.108
    1UNL     H2   27   0.049   0.423   0.260
    1UNL     H3   28  -0.123   0.426   0.183
    1UNL     H4   29  -0.171   0.469  -0.049
    1UNL     H5   30  -0.281   0.444  -0.397
    1UNL     H6   31  -0.279   0.531  -0.238
    1UNL     H7   32  -0.145   0.535  -0.366
    1UNL     H8   33  -0.118   0.251  -0.412
    1UNL     H9   34   0.004   0.081  -0.281
    1UNL    H10   35  -0.002  -0.141  -0.059
    1UNL    H11   36  -0.003  -0.066   0.166
    1UNL    H12   37  -0.072   0.097   0.167
    1UNL    H13   38  -0.371  -0.212   0.081
    1UNL    H14   39  -0.255  -0.273  -0.152
    1UNL    H15   40  -0.396  -0.363  -0.107
    1UNL    H16   41  -0.229  -0.439  -0.095
    1UNL    H17   42  -0.379  -0.444   0.160
    1UNL    H18   43  -0.278  -0.336   0.270
    1UNL    H19   44  -0.203  -0.460   0.152
    1UNL    H20   45   0.239   0.094  -0.061
    1UNL    H21   46   0.171   0.175   0.097
    1UNL    H22   47   0.388  -0.190   0.219
    1UNL    H23   48   0.150  -0.279   0.132
    1UNL    H24   49   0.256  -0.412   0.156
    1UNL    H25   50   0.236  -0.353  -0.011
    1UNL    H26   51   0.507  -0.214  -0.053
    1UNL    H27   52   0.515  -0.363   0.051
    1UNL    H28   53   0.592  -0.214   0.105
   0.00000   0.00000   0.00000   0.00000   0.00000   0.00000   0.00000   0.00000   0.00000
Generated with MDTraj, t= 93.0
 53
    1UNL     C1    1  -0.035   0.431   0.163
    1UNL     O1    2  -0.026   0.301   0.101
    1UNL     C2    3  -0.039   0.288  -0.033
    1UNL     C3    4  -0.057   0.401  -0.112
    1UNL     C4    5  -0.119   0.390  -0.232
    1UNL     C5    6  -0.145   0.511  -0.317
    1UNL     C6    7  -0.159   0.260  -0.276
    1UNL     C7    8  -0.118   0.148  -0.204
    1UNL     C8    9  -0.048   0.156  -0.085
    1UNL     C9   10   0.028   0.044  -0.023
    1UNL     O2   11   0.032  -0.065  -0.110
    1UNL    C10   12  -0.043  -0.005   0.104
    1UNL     O3   13  -0.157  -0.077   0.068
    1UNL    C11   14  -0.147  -0.213   0.072
    1UNL     O4   15  -0.041  -0.275   0.084
    1UNL    C12   16  -0.276  -0.292   0.049
    1UNL    C13   17  -0.263  -0.376  -0.080
    1UNL    C14   18  -0.295  -0.381   0.179
    1UNL    C15   19   0.165   0.095   0.018
    1UNL     O5   20   0.232   0.006   0.101
    1UNL    C16   21   0.306  -0.085   0.034
    1UNL     O6   22   0.339  -0.075  -0.083
    1UNL    C17   23   0.356  -0.209   0.104
    1UNL    C18   24   0.265  -0.325   0.076
    1UNL    C19   25   0.495  -0.232   0.061
    1UNL     H1   26   0.053   0.481   0.131
    1UNL     H2   27  -0.031   0.404   0.272
    1UNL     H3   28  -0.117   0.489   0.120
    1UNL     H4   29  -0.045   0.499  -0.068
    1UNL     H5   30  -0.174   0.498  -0.421
    1UNL     H6   31  -0.221   0.564  -0.259
    1UNL     H7   32  -0.055   0.570  -0.331
    1UNL     H8   33  -0.211   0.241  -0.368
    1UNL     H9   34  -0.114   0.050  -0.250
    1UNL    H10   35   0.060  -0.144  -0.062
    1UNL    H11   36   0.030  -0.074   0.145
    1UNL    H12   37  -0.078   0.064   0.180
    1UNL    H13   38  -0.361  -0.222   0.041
    1UNL    H14   39  -0.278  -0.322  -0.169
    1UNL    H15   40  -0.343  -0.452  -0.066
    1UNL    H16   41  -0.155  -0.421  -0.085
    1UNL    H17   42  -0.385  -0.443   0.166
    1UNL    H18   43  -0.314  -0.306   0.260
    1UNL    H19   44  -0.206  -0.448   0.203
    1UNL    H20   45   0.238   0.104  -0.069
    1UNL    H21   46   0.151   0.190   0.076
    1UNL    H22   47   0.357  -0.170   0.211
    1UNL    H23   48   0.163  -0.331   0.110
    1UNL    H24   49   0.303  -0.416   0.125
    1UNL    H25   50   0.265  -0.353  -0.038
    1UNL    H26   51   0.509  -0.303  -0.022
    1UNL    H27   52   0.556  -0.256   0.149
    1UNL    H28   53   0.536  -0.139   0.026
   0.00000   0.00000   0.00000   0.00000   0.00000   0.00000   0.00000   0.00000   0.00000
Generated with MDTraj, t= 94.0
 53
    1UNL     C1    1  -0.029   0.416   0.180
    1UNL     O1    2   0.022   0.313   0.095
    1UNL     C2    3  -0.045   0.296  -0.031
    1UNL     C3    4  -0.089   0.405  -0.110
    1UNL     C4    5  -0.122   0.391  -0.240
    1UNL     C5    6  -0.120   0.517  -0.327
    1UNL     C6    7  -0.135   0.263  -0.290
    1UNL     C7    8  -0.108   0.158  -0.208
    1UNL     C8    9  -0.061   0.169  -0.081
    1UNL     C9   10   0.001   0.050  -0.011
    1UNL     O2   11  -0.005  -0.057  -0.099
    1UNL    C10   12  -0.084   0.011   0.113
    1UNL     O3   13  -0.193  -0.078   0.091
    1UNL    C11   14  -0.148  -0.204   0.074
    1UNL     O4   15  -0.029  -0.237   0.085
    1UNL    C12   16  -0.260  -0.303   0.045
    1UNL    C13   17  -0.213  -0.400  -0.066
    1UNL    C14   18  -0.292  -0.379   0.171
    1UNL    C15   19   0.148   0.081   0.023
    1UNL     O5   20   0.206  -0.032   0.089
    1UNL    C16   21   0.294  -0.103   0.009
    1UNL     O6   22   0.334  -0.085  -0.107
    1UNL    C17   23   0.363  -0.207   0.097
    1UNL    C18   24   0.291  -0.339   0.076
    1UNL    C19   25   0.510  -0.223   0.072
    1UNL     H1   26   0.023   0.499   0.133
    1UNL     H2   27   0.017   0.395   0.280
    1UNL     H3   28  -0.138   0.430   0.170
    1UNL     H4   29  -0.076   0.500  -0.066
    1UNL     H5   30  -0.101   0.506  -0.434
    1UNL     H6   31  -0.212   0.567  -0.303
    1UNL     H7   32  -0.038   0.585  -0.302
    1UNL     H8   33  -0.155   0.243  -0.395
    1UNL     H9   34  -0.102   0.058  -0.247
    1UNL    H10   35   0.032  -0.137  -0.052
    1UNL    H11   36  -0.030  -0.046   0.189
    1UNL    H12   37  -0.123   0.102   0.156
    1UNL    H13   38  -0.343  -0.243   0.007
    1UNL    H14   39  -0.168  -0.346  -0.142
    1UNL    H15   40  -0.298  -0.459  -0.104
    1UNL    H16   41  -0.124  -0.467  -0.026
    1UNL    H17   42  -0.382  -0.444   0.155
    1UNL    H18   43  -0.316  -0.303   0.247
    1UNL    H19   44  -0.210  -0.449   0.213
    1UNL    H20   45   0.205   0.099  -0.072
    1UNL    H21   46   0.153   0.163   0.097
    1UNL    H22   47   0.348  -0.160   0.201
    1UNL    H23   48   0.186  -0.349   0.096
    1UNL    H24   49   0.339  -0.406   0.154
    1UNL    H25   50   0.320  -0.382  -0.026
    1UNL    H26   51   0.546  -0.215  -0.030
    1UNL    H27   52   0.544  -0.318   0.119
    1UNL    H28   53   0.559  -0.143   0.123
   0.00000   0.00000   0.00000   0.00000   0.00000   0.00000   0.00000   0.00000   0.00000
Generated with MDTraj, t= 95.0
 53
    1UNL     C1    1  -0.031   0.420   0.173
    1UNL     O1    2   0.006   0.309   0.092
    1UNL     C2    3  -0.030   0.307  -0.037
    1UNL     C3    4  -0.056   0.416  -0.114
    1UNL     C4    5  -0.110   0.406  -0.244
    1UNL     C5    6  -0.172   0.523  -0.305
    1UNL     C6    7  -0.121   0.282  -0.304
    1UNL     C7    8  -0.081   0.169  -0.233
    1UNL     C8    9  -0.040   0.181  -0.101
    1UNL     C9   10  -0.004   0.051  -0.028
    1UNL     O2   11  -0.007  -0.060  -0.119
    1UNL    C10   12  -0.085   0.017   0.104
    1UNL     O3   13  -0.191  -0.076   0.078
    1UNL    C11   14  -0.144  -0.204   0.094
    1UNL     O4   15  -0.036  -0.235   0.138
    1UNL    C12   16  -0.247  -0.312   0.057
    1UNL    C13   17  -0.182  -0.402  -0.051
    1UNL    C14   18  -0.310  -0.390   0.169
    1UNL    C15   19   0.140   0.068   0.023
    1UNL     O5   20   0.193  -0.043   0.106
    1UNL    C16   21   0.288  -0.108   0.032
    1UNL     O6   22   0.323  -0.080  -0.082
    1UNL    C17   23   0.363  -0.228   0.099
    1UNL    C18   24   0.292  -0.363   0.046
    1UNL    C19   25   0.510  -0.219   0.057
    1UNL     H1   26  -0.023   0.504   0.104
    1UNL     H2   27   0.050   0.436   0.248
    1UNL     H3   28  -0.137   0.410   0.208
    1UNL     H4   29  -0.060   0.514  -0.068
    1UNL     H5   30  -0.157   0.520  -0.413
    1UNL     H6   31  -0.274   0.518  -0.272
    1UNL     H7   32  -0.129   0.618  -0.274
    1UNL     H8   33  -0.161   0.283  -0.404
    1UNL     H9   34  -0.094   0.076  -0.287
    1UNL    H10   35   0.021  -0.132  -0.063
    1UNL    H11   36  -0.018  -0.035   0.174
    1UNL    H12   37  -0.130   0.104   0.153
    1UNL    H13   38  -0.318  -0.250   0.005
    1UNL    H14   39  -0.130  -0.340  -0.126
    1UNL    H15   40  -0.247  -0.473  -0.107
    1UNL    H16   41  -0.094  -0.458  -0.022
    1UNL    H17   42  -0.385  -0.465   0.126
    1UNL    H18   43  -0.361  -0.325   0.244
    1UNL    H19   44  -0.239  -0.454   0.228
    1UNL    H20   45   0.206   0.075  -0.065
    1UNL    H21   46   0.142   0.162   0.075
    1UNL    H22   47   0.366  -0.217   0.214
    1UNL    H23   48   0.200  -0.373   0.105
    1UNL    H24   49   0.359  -0.446   0.084
    1UNL    H25   50   0.280  -0.362  -0.063
    1UNL    H26   51   0.526  -0.261  -0.041
    1UNL    H27   52   0.575  -0.270   0.131
    1UNL    H28   53   0.535  -0.115   0.053
   0.00000   0.00000   0.00000   0.00000   0.00000   0.00000   0.00000   0.00000   0.00000
Generated with MDTraj, t= 96.0
 53
    1UNL     C1    1  -0.022   0.416   0.188
    1UNL     O1    2   0.005   0.302   0.104
    1UNL     C2    3  -0.050   0.293  -0.032
    1UNL     C3    4  -0.097   0.403  -0.101
    1UNL     C4    5  -0.142   0.390  -0.235
    1UNL     C5    6  -0.179   0.518  -0.312
    1UNL     C6    7  -0.132   0.269  -0.295
    1UNL     C7    8  -0.076   0.161  -0.226
    1UNL     C8    9  -0.034   0.171  -0.097
    1UNL     C9   10   0.029   0.055  -0.023
    1UNL     O2   11   0.035  -0.059  -0.113
    1UNL    C10   12  -0.072   0.021   0.083
    1UNL     O3   13  -0.173  -0.070   0.030
    1UNL    C11   14  -0.158  -0.188   0.091
    1UNL     O4   15  -0.077  -0.219   0.174
    1UNL    C12   16  -0.248  -0.305   0.049
    1UNL    C13   17  -0.174  -0.399  -0.045
    1UNL    C14   18  -0.304  -0.379   0.176
    1UNL    C15   19   0.170   0.087   0.028
    1UNL     O5   20   0.216  -0.031   0.090
    1UNL    C16   21   0.303  -0.108   0.017
    1UNL     O6   22   0.328  -0.078  -0.096
    1UNL    C17   23   0.344  -0.230   0.090
    1UNL    C18   24   0.260  -0.354   0.030
    1UNL    C19   25   0.499  -0.244   0.074
    1UNL     H1   26   0.075   0.456   0.224
    1UNL     H2   27  -0.074   0.389   0.282
    1UNL     H3   28  -0.087   0.487   0.131
    1UNL     H4   29  -0.094   0.499  -0.056
    1UNL     H5   30  -0.142   0.505  -0.414
    1UNL     H6   31  -0.285   0.531  -0.308
    1UNL     H7   32  -0.129   0.610  -0.283
    1UNL     H8   33  -0.165   0.262  -0.398
    1UNL     H9   34  -0.066   0.066  -0.276
    1UNL    H10   35   0.060  -0.140  -0.069
    1UNL    H11   36  -0.022  -0.032   0.168
    1UNL    H12   37  -0.125   0.112   0.115
    1UNL    H13   38  -0.326  -0.266  -0.012
    1UNL    H14   39  -0.160  -0.371  -0.157
    1UNL    H15   40  -0.214  -0.500  -0.039
    1UNL    H16   41  -0.077  -0.408  -0.020
    1UNL    H17   42  -0.346  -0.484   0.157
    1UNL    H18   43  -0.377  -0.311   0.232
    1UNL    H19   44  -0.219  -0.390   0.246
    1UNL    H20   45   0.233   0.126  -0.052
    1UNL    H21   46   0.162   0.160   0.104
    1UNL    H22   47   0.318  -0.210   0.201
    1UNL    H23   48   0.154  -0.315   0.032
    1UNL    H24   49   0.261  -0.434   0.109
    1UNL    H25   50   0.293  -0.385  -0.065
    1UNL    H26   51   0.533  -0.209  -0.022
    1UNL    H27   52   0.531  -0.346   0.088
    1UNL    H28   53   0.550  -0.183   0.149
   0.00000   0.00000   0.00000   0.00000   0.00000   0.00000   0.00000   0.00000   0.00000
Generated with MDTraj, t= 97.0
 53
    1UNL     C1    1  -0.044   0.418   0.162
    1UNL     O1    2  -0.013   0.300   0.094
    1UNL     C2    3  -0.042   0.294  -0.040
    1UNL     C3    4  -0.109   0.403  -0.104
    1UNL     C4    5  -0.144   0.398  -0.237
    1UNL     C5    6  -0.217   0.514  -0.293
    1UNL     C6    7  -0.129   0.275  -0.306
    1UNL     C7    8  -0.074   0.165  -0.238
    1UNL     C8    9  -0.023   0.172  -0.107
    1UNL     C9   10   0.044   0.050  -0.034
    1UNL     O2   11   0.071  -0.057  -0.124
    1UNL    C10   12  -0.035  -0.007   0.094
    1UNL     O3   13  -0.149  -0.077   0.055
    1UNL    C11   14  -0.148  -0.204   0.112
    1UNL     O4   15  -0.066  -0.245   0.188
    1UNL    C12   16  -0.252  -0.288   0.051
    1UNL    C13   17  -0.192  -0.384  -0.048
    1UNL    C14   18  -0.328  -0.367   0.156
    1UNL    C15   19   0.184   0.090   0.032
    1UNL     O5   20   0.233  -0.015   0.102
    1UNL    C16   21   0.301  -0.098   0.024
    1UNL     O6   22   0.335  -0.079  -0.089
    1UNL    C17   23   0.329  -0.232   0.090
    1UNL    C18   24   0.240  -0.331   0.025
    1UNL    C19   25   0.477  -0.273   0.079
    1UNL     H1   26   0.004   0.510   0.127
    1UNL     H2   27  -0.017   0.411   0.268
    1UNL     H3   28  -0.155   0.421   0.164
    1UNL     H4   29  -0.111   0.496  -0.047
    1UNL     H5   30  -0.187   0.526  -0.396
    1UNL     H6   31  -0.322   0.494  -0.279
    1UNL     H7   32  -0.190   0.608  -0.247
    1UNL     H8   33  -0.178   0.260  -0.400
    1UNL     H9   34  -0.074   0.068  -0.285
    1UNL    H10   35   0.167  -0.078  -0.119
    1UNL    H11   36   0.034  -0.076   0.151
    1UNL    H12   37  -0.060   0.079   0.158
    1UNL    H13   38  -0.312  -0.220  -0.004
    1UNL    H14   39  -0.089  -0.343  -0.080
    1UNL    H15   40  -0.261  -0.404  -0.129
    1UNL    H16   41  -0.167  -0.474   0.002
    1UNL    H17   42  -0.417  -0.425   0.117
    1UNL    H18   43  -0.348  -0.296   0.245
    1UNL    H19   44  -0.250  -0.437   0.193
    1UNL    H20   45   0.251   0.124  -0.045
    1UNL    H21   46   0.174   0.165   0.102
    1UNL    H22   47   0.300  -0.237   0.200
    1UNL    H23   48   0.131  -0.308   0.058
    1UNL    H24   49   0.255  -0.437   0.056
    1UNL    H25   50   0.240  -0.326  -0.080
    1UNL    H26   51   0.514  -0.298  -0.019
    1UNL    H27   52   0.516  -0.346   0.147
    1UNL    H28   53   0.535  -0.182   0.101
   0.00000   0.00000   0.00000   0.00000   0.00000   0.00000   0.00000   0.00000   0.00000
Generated with MDTraj, t= 98.0
 53
    1UNL     C1    1  -0.032   0.416   0.188
    1UNL     O1    2  -0.009   0.303   0.114
    1UNL     C2    3  -0.063   0.294  -0.016
    1UNL     C3    4  -0.136   0.389  -0.093
    1UNL     C4    5  -0.158   0.372  -0.225
    1UNL     C5    6  -0.241   0.464  -0.309
    1UNL     C6    7  -0.115   0.256  -0.293
    1UNL     C7    8  -0.058   0.161  -0.218
    1UNL     C8    9  -0.020   0.177  -0.087
    1UNL     C9   10   0.056   0.057  -0.030
    1UNL     O2   11   0.073  -0.055  -0.135
    1UNL    C10   12  -0.017  -0.010   0.089
    1UNL     O3   13  -0.139  -0.059   0.041
    1UNL    C11   14  -0.151  -0.190   0.076
    1UNL     O4   15  -0.073  -0.242   0.149
    1UNL    C12   16  -0.265  -0.284   0.040
    1UNL    C13   17  -0.215  -0.391  -0.066
    1UNL    C14   18  -0.330  -0.343   0.162
    1UNL    C15   19   0.204   0.105   0.016
    1UNL     O5   20   0.265   0.011   0.092
    1UNL    C16   21   0.317  -0.096   0.021
    1UNL     O6   22   0.344  -0.103  -0.096
    1UNL    C17   23   0.330  -0.217   0.100
    1UNL    C18   24   0.218  -0.306   0.066
    1UNL    C19   25   0.466  -0.288   0.077
    1UNL     H1   26   0.046   0.491   0.190
    1UNL     H2   27  -0.044   0.390   0.292
    1UNL     H3   28  -0.128   0.458   0.158
    1UNL     H4   29  -0.167   0.481  -0.048
    1UNL     H5   30  -0.216   0.463  -0.413
    1UNL     H6   31  -0.347   0.444  -0.295
    1UNL     H7   32  -0.216   0.565  -0.285
    1UNL     H8   33  -0.146   0.233  -0.394
    1UNL     H9   34  -0.037   0.065  -0.264
    1UNL    H10   35   0.170  -0.081  -0.135
    1UNL    H11   36   0.058  -0.080   0.135
    1UNL    H12   37  -0.037   0.067   0.162
    1UNL    H13   38  -0.339  -0.226  -0.008
    1UNL    H14   39  -0.200  -0.331  -0.158
    1UNL    H15   40  -0.281  -0.473  -0.073
    1UNL    H16   41  -0.107  -0.423  -0.037
    1UNL    H17   42  -0.421  -0.402   0.131
    1UNL    H18   43  -0.351  -0.276   0.253
    1UNL    H19   44  -0.257  -0.421   0.201
    1UNL    H20   45   0.267   0.114  -0.070
    1UNL    H21   46   0.203   0.198   0.062
    1UNL    H22   47   0.319  -0.189   0.208
    1UNL    H23   48   0.117  -0.258   0.088
    1UNL    H24   49   0.205  -0.404   0.111
    1UNL    H25   50   0.207  -0.328  -0.041
    1UNL    H26   51   0.480  -0.314  -0.028
    1UNL    H27   52   0.467  -0.378   0.133
    1UNL    H28   53   0.559  -0.234   0.104
   0.00000   0.00000   0.00000   0.00000   0.00000   0.00000   0.00000   0.00000   0.00000
Generated with MDTraj, t= 99.0
 53
    1UNL     C1    1  -0.043   0.404   0.168
    1UNL     O1    2  -0.005   0.286   0.099
    1UNL     C2    3  -0.055   0.276  -0.034
    1UNL     C3    4  -0.136   0.378  -0.088
    1UNL     C4    5  -0.181   0.373  -0.215
    1UNL     C5    6  -0.280   0.472  -0.271
    1UNL     C6    7  -0.145   0.266  -0.293
    1UNL     C7    8  -0.065   0.160  -0.244
    1UNL     C8    9  -0.017   0.166  -0.113
    1UNL     C9   10   0.063   0.049  -0.044
    1UNL     O2   11   0.076  -0.060  -0.136
    1UNL    C10   12  -0.016   0.001   0.083
    1UNL     O3   13  -0.135  -0.052   0.037
    1UNL    C11   14  -0.129  -0.183   0.072
    1UNL     O4   15  -0.041  -0.246   0.127
    1UNL    C12   16  -0.259  -0.253   0.029
    1UNL    C13   17  -0.245  -0.350  -0.081
    1UNL    C14   18  -0.339  -0.304   0.148
    1UNL    C15   19   0.209   0.089   0.014
    1UNL     O5   20   0.237  -0.011   0.106
    1UNL    C16   21   0.323  -0.103   0.049
    1UNL     O6   22   0.358  -0.098  -0.068
    1UNL    C17   23   0.357  -0.229   0.125
    1UNL    C18   24   0.240  -0.325   0.131
    1UNL    C19   25   0.482  -0.291   0.054
    1UNL     H1   26  -0.043   0.493   0.108
    1UNL     H2   27   0.011   0.430   0.258
    1UNL     H3   28  -0.147   0.399   0.198
    1UNL     H4   29  -0.159   0.473  -0.040
    1UNL     H5   30  -0.266   0.499  -0.374
    1UNL     H6   31  -0.383   0.440  -0.253
    1UNL     H7   32  -0.258   0.564  -0.224
    1UNL     H8   33  -0.184   0.260  -0.396
    1UNL     H9   34  -0.066   0.061  -0.286
    1UNL    H10   35   0.171  -0.089  -0.129
    1UNL    H11   36   0.046  -0.072   0.137
    1UNL    H12   37  -0.024   0.088   0.147
    1UNL    H13   38  -0.317  -0.173  -0.006
    1UNL    H14   39  -0.183  -0.316  -0.160
    1UNL    H15   40  -0.340  -0.386  -0.115
    1UNL    H16   41  -0.186  -0.440  -0.029
    1UNL    H17   42  -0.421  -0.378   0.122
    1UNL    H18   43  -0.389  -0.223   0.208
    1UNL    H19   44  -0.275  -0.354   0.230
    1UNL    H20   45   0.286   0.106  -0.065
    1UNL    H21   46   0.202   0.181   0.065
    1UNL    H22   47   0.371  -0.208   0.233
    1UNL    H23   48   0.152  -0.277   0.164
    1UNL    H24   49   0.253  -0.419   0.186
    1UNL    H25   50   0.222  -0.361   0.024
    1UNL    H26   51   0.454  -0.298  -0.051
    1UNL    H27   52   0.504  -0.391   0.087
    1UNL    H28   53   0.573  -0.231   0.060
   0.00000   0.00000   0.00000   0.00000   0.00000   0.00000   0.00000   0.00000   0.00000
