[ moleculetype ]
; name        nrexcl
res           1

[ atoms ]
;    nr  type resnr resid  atom  cgnr     charge       mass
      1 TC4       1 res   C1        1      0.000     36.000
      2 TN4a      1 res   C2        2      0.000     36.000
      3 TN6       1 res   C3        3      0.000     36.000
      4 TN6       1 res   C4        4      0.000     36.000
      5 SC3       1 res   C5        5      0.000     54.000
      6 SC4       1 res   C6        6      0.000     54.000
      7 TC3       1 res   C7        7      0.000     36.000
      8 SC4       1 res   C8        8      0.000     54.000
      9 TC3       1 res   C9        9      0.000     36.000
     10 SC4       1 res   C10      10      0.000     54.000
     11 TC5       1 res   C11      11      0.000     36.000
     12 TN6       1 res   C12      12      0.000     36.000
     13 SC4       1 res   C13      13      0.000     54.000
     14 TC3       1 res   C14      14      0.000     36.000
     15 SN4a      1 res   C15      15      0.000     54.000
     16 SN4a      1 res   C16      16      0.000     54.000
     17 TN3r      1 res   C17      17      0.000     36.000
     18 SN4a      1 res   C18      18      0.000     54.000
     19 TP1       1 res   C19      19      0.000     36.000
     20 TN6       1 res   C20      20      0.000     36.000
     21 TN6       1 res   C21      21      0.000     36.000
     22 TN6       1 res   C22      22      0.000     36.000
     23 TN6       1 res   C23      23      0.000     36.000
     24 TN6       1 res   C24      24      0.000     36.000
     25 TN6       1 res   C25      25      0.000     36.000
     26 TC3       1 res   C26      26      0.000     36.000
     27 SC4       1 res   C27      27      0.000     54.000
     28 TN4a      1 res   C28      28      0.000     36.000
     29 TN6       1 res   C29      29      0.000     36.000
     30 TN6       1 res   C30      30      0.000     36.000
     31 TN6       1 res   C31      31      0.000     36.000
     32 SN6       1 res   C32      32      0.000     54.000
     33 TN6       1 res   C33      33      0.000     36.000
     34 TN4a      1 res   C34      34      0.000     36.000
     35 TN6       1 res   C35      35      0.000     36.000
     36 SN4a      1 res   C36      36      0.000     54.000
     37 TP1       1 res   C37      37      0.000     36.000
     38 TN6       1 res   C38      38      0.000     36.000
     39 TN6       1 res   C39      39      0.000     36.000
     40 TN6       1 res   C40      40      0.000     36.000
     41 TN6       1 res   C41      41      0.000     36.000
     42 TN6       1 res   C42      42      0.000     36.000

[ bonds ]
;  ai    aj   funct      b0(nm)        k
    1     2     1      0.30400    20000
    1    32     1      0.30944    20000
    2     3     1      0.19566    20000
    2    31     1      0.24969    20000
    3     4     1      0.21091    20000
    3    30     1      0.22121    20000
    4     5     1      0.31515    20000
    4    28     1      0.27851    20000
    5     6     1      0.26100    20000
    5    27     1      0.32937    20000
    6     7     1      0.36961    20000
    6     8     1      0.26815    20000
    6    27     1      0.39113    20000
    7     8     1      0.25741    20000
    8     9     1      0.29777    20000
    8    10     1      0.31204    20000
    9    10     1      0.32169    20000
   10    11     1      0.35022    20000
   10    26     1      0.31513    20000
   11    12     1      0.26532    20000
   11    14     1      0.25533    20000
   11    15     1      0.29081    20000
   11    26     1      0.27076    20000
   12    13     1      0.25741    20000
   13    14     1      0.29837    20000
   15    16     1      0.32126    20000
   16    17     1      0.30384    20000
   16    23     1      0.29477    20000
   16    25     1      0.26598    20000
   17    18     1      0.32049    20000
   18    19     1      0.29183    20000
   18    20     1      0.29932    20000
   18    22     1      0.30172    20000
   20    21     1      0.22281    20000
   21    22     1      0.23542    20000
   23    24     1      0.26494    20000
   24    25     1      0.22712    20000
   28    29     1      0.22791    20000
   29    30     1      0.24375    20000
   31    32     1      0.27180    20000
   32    33     1      0.25672    20000
   33    34     1      0.26703    20000
   33    42     1      0.24511    20000
   34    35     1      0.21772    20000
   35    36     1      0.33855    20000
   35    41     1      0.24052    20000
   36    37     1      0.24351    20000
   36    38     1      0.28481    20000
   36    40     1      0.30350    20000
   38    39     1      0.25448    20000
   39    40     1      0.21853    20000
   41    42     1      0.23768    20000
