[ moleculetype ]
; name        nrexcl
res           1

[ atoms ]
;    nr  type resnr resid  atom  cgnr     charge       mass
      1 SN4a      1 res   C1        1      0.000     54.000
      2 TC3       1 res   C2        2      0.000     36.000
      3 TC4       1 res   C3        3      0.000     36.000
      4 TN4a      1 res   C4        4      0.000     36.000
      5 SN4a      1 res   C5        5      0.000     54.000
      6 SC5       1 res   C6        6      0.000     54.000
      7 TC3       1 res   C7        7      0.000     36.000
      8 SC4       1 res   C8        8      0.000     54.000
      9 TC5       1 res   C9        9      0.000     36.000
     10 TC3       1 res   C10      10      0.000     36.000
     11 SC4       1 res   C11      11      0.000     54.000
     12 SC4       1 res   C12      12      0.000     54.000
     13 SN6       1 res   C13      13      0.000     54.000
     14 TN6       1 res   C14      14      0.000     36.000
     15 SN4a      1 res   C15      15      0.000     54.000
     16 TP1       1 res   C16      16      0.000     36.000
     17 TN6       1 res   C17      17      0.000     36.000
     18 TN6       1 res   C18      18      0.000     36.000
     19 TN6       1 res   C19      19      0.000     36.000
     20 SN4a      1 res   C20      20      0.000     54.000
     21 TP1       1 res   C21      21      0.000     36.000
     22 TN6       1 res   C22      22      0.000     36.000
     23 TN6       1 res   C23      23      0.000     36.000
     24 TN6       1 res   C24      24      0.000     36.000
     25 TC4       1 res   C25      25      0.000     36.000
     26 SP2       1 res   C26      26      0.000     54.000
     27 TC3       1 res   C27      27      0.000     36.000
     28 TN2a      1 res   C28      28      0.000     36.000
     29 TC3       1 res   C29      29      0.000     36.000
     30 TN6       1 res   C30      30      0.000     36.000
     31 TN4a      1 res   C31      31      0.000     36.000
     32 TC4       1 res   C32      32      0.000     36.000
     33 TN6       1 res   C33      33      0.000     36.000
     34 SN4a      1 res   C34      34      0.000     54.000
     35 TN6       1 res   C35      35      0.000     36.000
     36 SN4a      1 res   C36      36      0.000     54.000
     37 TP1       1 res   C37      37      0.000     36.000
     38 TN6       1 res   C38      38      0.000     36.000
     39 TN6       1 res   C39      39      0.000     36.000
     40 TN6       1 res   C40      40      0.000     36.000
     41 TN6       1 res   C41      41      0.000     36.000
     42 TN6       1 res   C42      42      0.000     36.000
     43 TN6       1 res   C43      43      0.000     36.000
     44 TN6       1 res   C44      44      0.000     36.000
     45 SN4a      1 res   C45      45      0.000     54.000

[ bonds ]
;  ai    aj   funct      b0(nm)        k
    1     2     1      0.28154    20000
    2     3     1      0.27071    20000
    2    30     1      0.23882    20000
    2    45     1      0.36954    20000
    3     4     1      0.32295    20000
    4     5     1      0.22646    20000
    4    30     1      0.21502    20000
    5     6     1      0.31615    20000
    6     7     1      0.28441    20000
    6     8     1      0.27727    20000
    6     9     1      0.26472    20000
    6    29     1      0.36272    20000
    7     8     1      0.29341    20000
    9    10     1      0.25452    20000
    9    11     1      0.29766    20000
    9    28     1      0.24079    20000
    9    29     1      0.25265    20000
   10    11     1      0.32663    20000
   11    12     1      0.35297    20000
   11    27     1      0.27305    20000
   12    13     1      0.31387    20000
   12    25     1      0.27665    20000
   12    27     1      0.31463    20000
   13    14     1      0.25304    20000
   14    15     1      0.25757    20000
   14    25     1      0.27471    20000
   15    16     1      0.29319    20000
   15    17     1      0.29486    20000
   15    19     1      0.24804    20000
   17    18     1      0.22732    20000
   18    19     1      0.23808    20000
   19    20     1      0.28288    20000
   20    21     1      0.30482    20000
   20    22     1      0.26791    20000
   20    24     1      0.27326    20000
   22    23     1      0.24291    20000
   23    24     1      0.20963    20000
   25    26     1      0.29621    20000
   30    31     1      0.21838    20000
   31    32     1      0.25384    20000
   31    44     1      0.26065    20000
   32    33     1      0.26406    20000
   33    34     1      0.28358    20000
   33    43     1      0.23533    20000
   34    35     1      0.24070    20000
   34    42     1      0.29325    20000
   35    36     1      0.27259    20000
   35    41     1      0.22572    20000
   36    37     1      0.31088    20000
   36    38     1      0.28277    20000
   36    40     1      0.29377    20000
   38    39     1      0.22039    20000
   39    40     1      0.23268    20000
   41    42     1      0.24751    20000
   43    44     1      0.26904    20000
