[ moleculetype ]
; name        nrexcl
res           1

[ atoms ]
;    nr  type  resnr resid  atom  cgnr     charge       mass
      1 TC4       1 res   C1        1      0.000     36.000
      2 SN6a      1 res   C2        2      0.000     54.000
      3 SC3       1 res   C3        3      0.000     54.000
      4 TN6       1 res   C4        4      0.000     36.000
      5 TP1       1 res   C5        5      0.000     36.000
      6 TN3r      1 res   C6        6      0.000     36.000

[ constraints ]
;  ai    aj   funct      b0(nm)
    1     2     1      0.32414
    3     5     1      0.27499
    2     3     1      0.27858
    3     4     1      0.26391
    1     6     1      0.35669
    3     6     1      0.33427

[ bonds ]
;  ai    aj   funct      b0(nm)          k(kJ/mol/nm^2)
    1     4     1      0.26397          19684.1

[ angles ]
;  ai    aj    ak  funct     th0(deg)        k(kJ/mol/rad^2)
    1     2     3     1     80.60137          1465.54
    1     4     3     1     95.74347           819.00
    1     6     3     1     68.90868          2000.84
    2     1     4     1     84.46456          1415.19
    2     1     6     1     55.49822          1938.96
    2     3     4     1     94.29449          1400.42
    2     3     5     1    127.68488          1081.00
    2     3     6     1     61.80072          1926.26
    4     1     6     1     58.71091           310.13
    4     3     5     1     64.41230           322.20
    4     3     6     1     62.25386           264.96
    5     3     6     1     66.25259          1864.13

[ dihedrals ]
;  ai    aj    ak    al  funct   phi0(deg)        k(kJ/mol)   mult
    1     2     3     4     1    168.88517       10.018      1
    1     2     3     5     1    104.85791       11.448      1
    1     2     3     6     1    110.97598        5.554      1
    1     4     3     2     1   -165.90487       12.186      1
    1     4     3     5     1    -36.81952       12.936      1
    1     4     3     6     1   -109.96304        9.303      1
    1     6     3     2     1   -115.10898        5.494      1
    1     6     3     4     1    131.98571        6.357      1
    1     6     3     5     1     59.77550        9.195      1
    2     1     4     3     1    167.91646       10.721      1
    2     1     6     3     1    124.96704        5.471      1
    3     2     1     4     1   -168.89404       10.008      1
    3     2     1     6     1   -110.96704        5.472      1
    3     4     1     6     1    113.96353        9.296      1
    3     6     1     4     1   -130.92378        7.087      1
