1TPCN04887
12
    1res  C1    1   -0.543   0.015  -0.217
    1res  C2    2   -0.550   0.148   0.032
    1res  C3    3   -0.312  -0.013   0.129
    1res  C4    4   -0.202   0.237   0.082
    1res  C5    5   -0.095   0.037  -0.179
    1res  C6    6   -0.026  -0.211  -0.061
    1res  C7    7    0.095  -0.025   0.125
    1res  C8    8    0.257   0.192   0.043
    1res  C9    9    0.363  -0.096  -0.064
    1res  C10   10    0.603   0.066   0.085
    1res  C11   11    0.628  -0.172   0.087
    1res  C12   12    0.384  -0.277   0.128
  10.00000  10.00000  10.00000
