[ moleculetype ]
; name        nrexcl
res           1

[ atoms ]
;    nr  type  resnr resid  atom  cgnr     charge       mass
      1 TC5       1 res   C1        1      0.000     36.000
      2 TC6       1 res   C2        2      0.000     36.000
      3 TN1a      1 res   C3        3      0.000     36.000
      4 TC5       1 res   C4        4      0.000     36.000
      5 TC6       1 res   C5        5      0.000     36.000

[ bonds ]
;  ai    aj   funct      b0(nm)          k(kJ/mol/nm^2)
    1     2     1      0.31884           2528.5
    1     3     1      0.25147         196915.9
    1     4     1      0.21789         173360.2
    3     4     1      0.25126         181062.4
    4     5     1      0.31870           2887.5

[ angles ]
;  ai    aj    ak  funct     th0(deg)        k(kJ/mol/rad^2)
    1     3     4     1     51.37717          5671.26
    1     4     3     1     64.36043          9380.21
    1     4     5     1    135.18299           121.17
    2     1     3     1     80.07406            39.92
    2     1     4     1    135.42234           100.70
    3     1     4     1     64.26241          8572.21
    3     4     5     1     79.68142            42.76

[ dihedrals ]
;  ai    aj    ak    al  funct   phi0(deg)        k(kJ/mol)   mult
    1     3     4     5     1     -1.97226       26.588      1
    1     3     4     5     1    175.74161       19.139      2
    1     3     4     5     1     -7.91924        9.476      3
    2     1     3     4     1     -1.33802       25.539      1
    2     1     3     4     1    177.62277       19.151      2
    2     1     3     4     1     -2.15224       10.524      3
    2     1     4     3     1    177.07924       27.753      1
    2     1     4     3     1    179.04009        3.478      2
    2     1     4     3     1     -6.52518        7.797      3
    2     1     4     5     1    174.09462       16.572      1
    2     1     4     5     1      2.41378       13.081      2
    2     1     4     5     1   -173.19565        6.268      3
    3     1     4     5     1   -179.10813       31.388      1
    3     1     4     5     1    160.47542        3.837      2
    3     1     4     5     1     14.18326       10.353      3
