1TPCN00231
10
    1res  C1    1    0.460   0.075   0.109
    1res  C2    2    0.190  -0.002   0.045
    1res  C3    3    0.354  -0.188  -0.127
    1res  C4    4    0.037  -0.289  -0.249
    1res  C5    5    0.005  -0.106  -0.049
    1res  C6    6   -0.237   0.021   0.088
    1res  C7    7   -0.496  -0.058   0.184
    1res  C8    8   -0.450   0.212  -0.004
    1res  C9    9   -0.241   0.300  -0.005
    1res  C10   10   -0.097   0.143  -0.113
  10.00000  10.00000  10.00000
