1TPCN05201
16
    1res  C1    1    0.822   0.092  -0.116
    1res  C2    2    0.524   0.148  -0.079
    1res  C3    3    0.172   0.172  -0.077
    1res  C4    4    0.140   0.340   0.161
    1res  C5    5    0.207   0.040   0.195
    1res  C6    6    0.035  -0.254   0.144
    1res  C7    7   -0.160   0.050   0.282
    1res  C8    8   -0.247  -0.237   0.232
    1res  C9    9   -0.320  -0.073  -0.076
    1res  C10   10   -0.568   0.069   0.019
    1res  C11   11   -0.517   0.186  -0.239
    1res  C12   12   -0.286   0.152  -0.034
    1res  C13   13   -0.467  -0.081  -0.307
    1res  C14   14   -0.333  -0.315  -0.038
    1res  C15   15    0.057  -0.144  -0.102
    1res  C16   16    0.425  -0.154   0.011
  10.00000  10.00000  10.00000
