1TPCN00464
13
    1res  C1    1   -0.140  -0.349   0.025
    1res  C2    2   -0.117  -0.161   0.228
    1res  C3    3    0.065   0.006   0.165
    1res  C4    4    0.274  -0.139   0.251
    1res  C5    5    0.263   0.039   0.084
    1res  C6    6    0.196   0.213  -0.032
    1res  C7    7    0.394   0.129   0.008
    1res  C8    8    0.514   0.303  -0.126
    1res  C9    9    0.639   0.081   0.022
    1res  C10   10   -0.095   0.046   0.029
    1res  C11   11   -0.351  -0.080  -0.034
    1res  C12   12   -0.584  -0.148  -0.173
    1res  C13   13   -0.347   0.259  -0.222
  10.00000  10.00000  10.00000
