[ moleculetype ]
; name        nrexcl
res           1

[ atoms ]
;    nr  type resnr resid  atom  cgnr     charge       mass
      1 TC4       1 res   C1        1      0.000     36.000
      2 TC3       1 res   C2        2      0.000     36.000
      3 SC4       1 res   C3        3      0.000     54.000
      4 TC5       1 res   C4        4      0.000     36.000
      5 SP2       1 res   C5        5      0.000     54.000
      6 TC3       1 res   C6        6      0.000     36.000
      7 SN4a      1 res   C7        7      0.000     54.000
      8 TC5       1 res   C8        8      0.000     36.000
      9 TC5       1 res   C9        9      0.000     36.000
     10 TC5       1 res   C10      10      0.000     36.000
     11 TC4       1 res   C11      11      0.000     36.000
     12 TC3       1 res   C12      12      0.000     36.000
     13 TC5       1 res   C13      13      0.000     36.000
     14 TC5       1 res   C14      14      0.000     36.000
     15 TN2a      1 res   C15      15      0.000     36.000

[ bonds ]
;  ai    aj   funct      b0(nm)        k
    1     2     1      0.27496    20000
    1    11     1      0.27692    20000
    2     3     1      0.26224    20000
    3     4     1      0.27775    20000
    3     6     1      0.26621    20000
    3    11     1      0.40558    20000
    4     5     1      0.28248    20000
    4     6     1      0.27469    20000
    6     7     1      0.22946    20000
    7     8     1      0.24733    20000
    8     9     1      0.25813    20000
    8    10     1      0.30232    20000
    9    10     1      0.29091    20000
   11    12     1      0.31036    20000
   12    13     1      0.26135    20000
   13    14     1      0.26230    20000
   13    15     1      0.16744    20000
   14    15     1      0.20240    20000
