[ moleculetype ]
; name        nrexcl
res           1

[ atoms ]
;    nr  type  resnr resid  atom  cgnr     charge       mass
      1 TN6a      1 res   C1        1      0.000     36.000
      2 TN6a      1 res   C2        2      0.000     36.000
      3 TN3r      1 res   C3        3      0.000     36.000
      4 SX3       1 res   C4        4      0.000     54.000

[ constraints ]
;  ai    aj   funct      b0(nm)
    1     2     1      0.22262
    2     3     1      0.23278
    1     4     1      0.30168
    2     4     1      0.24901

[ bonds ]
;  ai    aj   funct      b0(nm)          k(kJ/mol/nm^2)

[ angles ]
;  ai    aj    ak  funct     th0(deg)        k(kJ/mol/rad^2)
    1     2     3     1    120.40439          1362.70
    1     2     4     1     79.31564          7284.94
    1     4     2     1     46.47758         10237.71
    2     1     4     1     54.20676          7465.68
    3     2     4     1    159.42838          1218.81

[ dihedrals ]
;  ai    aj    ak    al  funct   phi0(deg)        k(kJ/mol)   mult
    1     4     2     3     1      0.24142       21.813      1
    3     2     1     4     1      1.23969       12.842      1
