1TPCN05705
30
    1res  C1    1   -1.181  -0.067  -0.006
    1res  C2    2   -0.867  -0.288  -0.090
    1res  C3    3   -0.889  -0.095  -0.261
    1res  C4    4   -0.811   0.154  -0.175
    1res  C5    5   -0.564  -0.021  -0.078
    1res  C6    6   -0.615  -0.197   0.172
    1res  C7    7   -0.633   0.028   0.308
    1res  C8    8   -0.506   0.272   0.121
    1res  C9    9   -0.367   0.133   0.355
    1res  C10   10   -0.139   0.138   0.182
    1res  C11   11   -0.185   0.214  -0.089
    1res  C12   12    0.080   0.296  -0.077
    1res  C13   13    0.110   0.147   0.193
    1res  C14   14   -0.080  -0.101   0.030
    1res  C15   15    0.167  -0.269  -0.090
    1res  C16   16    0.349  -0.097   0.002
    1res  C17   17    0.604   0.056  -0.097
    1res  C18   18    0.767   0.280   0.050
    1res  C19   19    0.867   0.051  -0.112
    1res  C20   20    1.056   0.059  -0.048
    1res  C21   21    1.181  -0.225  -0.135
    1res  C22   22    1.336  -0.152   0.072
    1res  C23   23    1.267   0.039   0.204
    1res  C24   24    1.021   0.023   0.198
    1res  C25   25    0.824  -0.091  -0.270
    1res  C26   26    0.669  -0.224  -0.095
    1res  C27   27    0.298  -0.222  -0.334
    1res  C28   28    0.158  -0.044  -0.344
    1res  C29   29   -0.043  -0.156  -0.274
    1res  C30   30   -0.209  -0.085   0.324
  10.00000  10.00000  10.00000
