[ moleculetype ]
; name        nrexcl
res           1

[ atoms ]
;    nr  type  resnr resid  atom  cgnr     charge       mass
      1 TX3       1 res   C1        1      0.000     36.000
      2 TX3       1 res   C2        2      0.000     36.000
      3 SX3       1 res   C3        3      0.000     54.000
      4 SX3       1 res   C4        4      0.000     54.000

[ constraints ]
;  ai    aj   funct      b0(nm)
    1     2     1      0.21579
    2     3     1      0.27172
    1     4     1      0.27367
    3     4     1      0.28523

[ bonds ]
;  ai    aj   funct      b0(nm)          k(kJ/mol/nm^2)

[ angles ]
;  ai    aj    ak  funct     th0(deg)        k(kJ/mol/rad^2)
    1     2     3     1     95.34432          1534.15
    1     4     3     1     80.81115          1958.98
    2     1     4     1     94.97788          1509.64
    2     3     4     1     81.28848          2057.01

[ dihedrals ]
;  ai    aj    ak    al  funct   phi0(deg)        k(kJ/mol)   mult
    1     2     3     4     1    159.03472        7.096      1
    1     4     3     2     1   -163.96404        6.356      1
    2     1     4     3     1    159.02152        7.117      1
    3     2     1     4     1   -158.96070        7.141      1
