1TPCN02385
17
    1res  C1    1   -0.291  -0.065   0.190
    1res  C2    2   -0.427  -0.030  -0.113
    1res  C3    3   -0.652  -0.023   0.028
    1res  C4    4   -0.697   0.198  -0.107
    1res  C5    5   -0.789   0.073   0.024
    1res  C6    6   -0.246   0.189  -0.119
    1res  C7    7   -0.306   0.207   0.104
    1res  C8    8   -0.019   0.171   0.103
    1res  C9    9   -0.089  -0.053  -0.057
    1res  C10   10    0.166  -0.079  -0.052
    1res  C11   11    0.442  -0.024  -0.037
    1res  C12   12    0.498  -0.115   0.156
    1res  C13   13    0.670   0.140  -0.055
    1res  C14   14    0.501   0.280  -0.077
    1res  C15   15    0.358   0.148  -0.216
    1res  C16   16    0.024  -0.311  -0.105
    1res  C17   17   -0.114  -0.289   0.132
  10.00000  10.00000  10.00000
