1TPCN05119
12
    1res  C1    1    0.769   0.042   0.018
    1res  C2    2    0.418  -0.080  -0.067
    1res  C3    3    0.218  -0.172   0.142
    1res  C4    4    0.026  -0.068   0.084
    1res  C5    5   -0.166   0.054   0.049
    1res  C6    6   -0.325  -0.114   0.145
    1res  C7    7   -0.310   0.156  -0.040
    1res  C8    8   -0.642   0.130   0.050
    1res  C9    9   -0.677  -0.024  -0.131
    1res  C10   10   -0.454  -0.012  -0.259
    1res  C11   11   -0.021  -0.034  -0.209
    1res  C12   12    0.615   0.288   0.128
  10.00000  10.00000  10.00000
