[ moleculetype ]
; name        nrexcl
res           1

[ atoms ]
;    nr  type resnr resid  atom  cgnr     charge       mass
      1 TC4       1 res   C1        1      0.000     36.000
      2 TN4a      1 res   C2        2      0.000     36.000
      3 TN6       1 res   C3        3      0.000     36.000
      4 TN6       1 res   C4        4      0.000     36.000
      5 SN6       1 res   C5        5      0.000     54.000
      6 TN6       1 res   C6        6      0.000     36.000
      7 SC3       1 res   C7        7      0.000     54.000
      8 SC4       1 res   C8        8      0.000     54.000
      9 TC3       1 res   C9        9      0.000     36.000
     10 SC4       1 res   C10      10      0.000     54.000
     11 TC3       1 res   C11      11      0.000     36.000
     12 SC4       1 res   C12      12      0.000     54.000
     13 SC5       1 res   C13      13      0.000     54.000
     14 SC1       1 res   C14      14      0.000     54.000
     15 SP1       1 res   C15      15      0.000     54.000
     16 SP2       1 res   C16      16      0.000     54.000
     17 SC4       1 res   C17      17      0.000     54.000
     18 TN4a      1 res   C18      18      0.000     36.000
     19 SP2       1 res   C19      19      0.000     54.000
     20 TN6       1 res   C20      20      0.000     36.000
     21 TN4a      1 res   C21      21      0.000     36.000
     22 TP1       1 res   C22      22      0.000     36.000
     23 TN6       1 res   C23      23      0.000     36.000
     24 TN6       1 res   C24      24      0.000     36.000
     25 TN6       1 res   C25      25      0.000     36.000
     26 TN6       1 res   C26      26      0.000     36.000
     27 TN6       1 res   C27      27      0.000     36.000

[ bonds ]
;  ai    aj   funct      b0(nm)        k
    1     2     1      0.25324    20000
    1    27     1      0.28392    20000
    2     3     1      0.21174    20000
    2    25     1      0.25512    20000
    3     4     1      0.21214    20000
    3    24     1      0.24218    20000
    4     5     1      0.28701    20000
    4    21     1      0.23064    20000
    5     6     1      0.29562    20000
    5    20     1      0.25582    20000
    6     7     1      0.31763    20000
    6    18     1      0.22820    20000
    7     8     1      0.28741    20000
    7    17     1      0.35101    20000
    8     9     1      0.37354    20000
    8    10     1      0.37389    20000
    8    17     1      0.32888    20000
    9    10     1      0.28387    20000
   10    11     1      0.37852    20000
   10    12     1      0.31214    20000
   11    12     1      0.39730    20000
   12    13     1      0.24798    20000
   13    14     1      0.48482    20000
   13    16     1      0.34829    20000
   14    15     1      0.31073    20000
   18    19     1      0.25743    20000
   18    20     1      0.25687    20000
   21    22     1      0.24167    20000
   21    23     1      0.26058    20000
   23    24     1      0.22523    20000
   25    26     1      0.26288    20000
   26    27     1      0.22402    20000
