[ moleculetype ]
; name        nrexcl
res           1

[ atoms ]
;    nr  type  resnr resid  atom  cgnr     charge       mass
      1 SC2       1 res   C1        1      0.000     54.000
      2 P1        1 res   C2        2      0.000     72.000
      3 SC4       1 res   C3        3      0.000     54.000
      4 TN3r      1 res   C4        4      0.000     36.000
      5 SN4a      1 res   C5        5      0.000     54.000
      6 TP1       1 res   C6        6      0.000     36.000
      7 TN6       1 res   C7        7      0.000     36.000
      8 TN6       1 res   C8        8      0.000     36.000
      9 TN6       1 res   C9        9      0.000     36.000

[ bonds ]
;  ai    aj   funct      b0(nm)          k(kJ/mol/nm^2)
    4     5     1      0.31529          19691.3
    5     6     1      0.28608          18102.1
    5     7     1      0.26638          34330.9
    5     9     1      0.28738          25428.4
    7     8     1      0.23080           7595.4
    8     9     1      0.23373           8076.2

[ angles ]
;  ai    aj    ak  funct     th0(deg)        k(kJ/mol/rad^2)
    4     5     6     1    111.01256           102.92
    4     5     7     1    117.81678            56.04
    4     5     9     1     69.55991           213.77
    5     7     8     1     77.87394           719.09
    5     9     8     1     73.16152           711.66
    6     5     7     1     63.28908           200.29
    6     5     9     1    137.42523           189.86
    7     5     9     1     79.34269           493.52
    7     8     9     1     99.41295           202.86
