Generated with MDTraj, t= 0.0
 53
    1UNL     C1    1  -0.350  -0.282   0.002
    1UNL     C2    2  -0.272  -0.244  -0.097
    1UNL     C3    3  -0.145  -0.166  -0.077
    1UNL     C4    4  -0.034  -0.252  -0.014
    1UNL     N1    5   0.094  -0.175   0.000
    1UNL     C5    6   0.214  -0.254   0.037
    1UNL     C6    7   0.344  -0.175   0.018
    1UNL     C7    8   0.329  -0.035   0.068
    1UNL     C8    9   0.208   0.022   0.098
    1UNL     N2   10   0.228   0.150   0.144
    1UNL     C9   11   0.364   0.177   0.143
    1UNL    C10   12   0.438   0.290   0.180
    1UNL    C11   13   0.574   0.286   0.168
    1UNL    C12   14   0.640   0.172   0.121
    1UNL    C13   15   0.570   0.060   0.084
    1UNL    C14   16   0.430   0.062   0.095
    1UNL    C15   17   0.077  -0.050   0.083
    1UNL    C16   18  -0.031   0.039   0.020
    1UNL    C17   19  -0.165  -0.036   0.006
    1UNL    C18   20  -0.273   0.051  -0.051
    1UNL    C19   21  -0.386   0.075   0.020
    1UNL     O1   22  -0.410   0.025   0.144
    1UNL    C20   23  -0.535   0.065   0.194
    1UNL    C21   24  -0.256   0.107  -0.185
    1UNL     O2   25  -0.154   0.083  -0.248
    1UNL     O3   26  -0.358   0.185  -0.232
    1UNL    C22   27  -0.327   0.230  -0.360
    1UNL     H1   28  -0.440  -0.337  -0.015
    1UNL     H2   29  -0.327  -0.257   0.103
    1UNL     H3   30  -0.299  -0.271  -0.198
    1UNL     H4   31  -0.108  -0.133  -0.176
    1UNL     H5   32  -0.065  -0.287   0.085
    1UNL     H6   33  -0.015  -0.342  -0.074
    1UNL     H7   34   0.203  -0.286   0.141
    1UNL     H8   35   0.214  -0.346  -0.024
    1UNL     H9   36   0.372  -0.173  -0.088
    1UNL    H10   37   0.427  -0.224   0.071
    1UNL    H11   38   0.156   0.215   0.175
    1UNL    H12   39   0.386   0.377   0.216
    1UNL    H13   40   0.632   0.373   0.196
    1UNL    H14   41   0.747   0.172   0.113
    1UNL    H15   42   0.620  -0.028   0.048
    1UNL    H16   43   0.044  -0.083   0.182
    1UNL    H17   44  -0.045   0.131   0.078
    1UNL    H18   45   0.002   0.070  -0.079
    1UNL    H19   46  -0.198  -0.067   0.107
    1UNL    H20   47  -0.462   0.138  -0.025
    1UNL    H21   48  -0.549   0.022   0.293
    1UNL    H22   49  -0.538   0.174   0.201
    1UNL    H23   50  -0.614   0.030   0.127
    1UNL    H24   51  -0.409   0.292  -0.398
    1UNL    H25   52  -0.312   0.144  -0.426
    1UNL    H26   53  -0.235   0.288  -0.356
   0.00000   0.00000   0.00000   0.00000   0.00000   0.00000   0.00000   0.00000   0.00000
Generated with MDTraj, t= 1.0
 53
    1UNL     C1    1  -0.361  -0.268   0.013
    1UNL     C2    2  -0.278  -0.250  -0.084
    1UNL     C3    3  -0.151  -0.182  -0.072
    1UNL     C4    4  -0.036  -0.260   0.006
    1UNL     N1    5   0.094  -0.188   0.004
    1UNL     C5    6   0.232  -0.254   0.027
    1UNL     C6    7   0.353  -0.158  -0.002
    1UNL     C7    8   0.329  -0.025   0.061
    1UNL     C8    9   0.203   0.022   0.098
    1UNL     N2   10   0.219   0.147   0.153
    1UNL     C9   11   0.357   0.176   0.150
    1UNL    C10   12   0.434   0.285   0.201
    1UNL    C11   13   0.570   0.285   0.187
    1UNL    C12   14   0.635   0.169   0.131
    1UNL    C13   15   0.570   0.062   0.091
    1UNL    C14   16   0.429   0.069   0.091
    1UNL    C15   17   0.074  -0.057   0.077
    1UNL    C16   18  -0.031   0.019  -0.000
    1UNL    C17   19  -0.168  -0.046   0.002
    1UNL    C18   20  -0.271   0.047  -0.057
    1UNL    C19   21  -0.377   0.086   0.020
    1UNL     O1   22  -0.408   0.018   0.128
    1UNL    C20   23  -0.484   0.091   0.213
    1UNL    C21   24  -0.254   0.109  -0.196
    1UNL     O2   25  -0.161   0.089  -0.273
    1UNL     O3   26  -0.360   0.186  -0.233
    1UNL    C22   27  -0.352   0.228  -0.370
    1UNL     H1   28  -0.460  -0.308   0.004
    1UNL     H2   29  -0.324  -0.248   0.114
    1UNL     H3   30  -0.307  -0.278  -0.188
    1UNL     H4   31  -0.120  -0.148  -0.174
    1UNL     H5   32  -0.082  -0.285   0.102
    1UNL     H6   33  -0.019  -0.356  -0.040
    1UNL     H7   34   0.245  -0.306   0.124
    1UNL     H8   35   0.246  -0.335  -0.038
    1UNL     H9   36   0.380  -0.152  -0.107
    1UNL    H10   37   0.441  -0.194   0.051
    1UNL    H11   38   0.147   0.211   0.163
    1UNL    H12   39   0.377   0.354   0.252
    1UNL    H13   40   0.637   0.377   0.211
    1UNL    H14   41   0.745   0.167   0.140
    1UNL    H15   42   0.612  -0.030   0.048
    1UNL    H16   43   0.031  -0.091   0.170
    1UNL    H17   44  -0.034   0.121   0.041
    1UNL    H18   45   0.007   0.038  -0.102
    1UNL    H19   46  -0.189  -0.053   0.111
    1UNL    H20   47  -0.436   0.160  -0.030
    1UNL    H21   48  -0.527   0.023   0.293
    1UNL    H22   49  -0.431   0.182   0.258
    1UNL    H23   50  -0.567   0.138   0.156
    1UNL    H24   51  -0.352   0.140  -0.438
    1UNL    H25   52  -0.280   0.310  -0.374
    1UNL    H26   53  -0.447   0.277  -0.406
   0.00000   0.00000   0.00000   0.00000   0.00000   0.00000   0.00000   0.00000   0.00000
Generated with MDTraj, t= 2.0
 53
    1UNL     C1    1  -0.352  -0.261   0.018
    1UNL     C2    2  -0.266  -0.262  -0.081
    1UNL     C3    3  -0.146  -0.172  -0.091
    1UNL     C4    4  -0.024  -0.252  -0.015
    1UNL     N1    5   0.096  -0.170  -0.016
    1UNL     C5    6   0.221  -0.248   0.024
    1UNL     C6    7   0.347  -0.168  -0.002
    1UNL     C7    8   0.328  -0.032   0.049
    1UNL     C8    9   0.205   0.018   0.089
    1UNL     N2   10   0.220   0.139   0.153
    1UNL     C9   11   0.359   0.165   0.160
    1UNL    C10   12   0.429   0.273   0.218
    1UNL    C11   13   0.562   0.282   0.202
    1UNL    C12   14   0.638   0.177   0.134
    1UNL    C13   15   0.566   0.072   0.089
    1UNL    C14   16   0.426   0.057   0.102
    1UNL    C15   17   0.076  -0.052   0.067
    1UNL    C16   18  -0.032   0.033   0.001
    1UNL    C17   19  -0.164  -0.036  -0.011
    1UNL    C18   20  -0.282   0.042  -0.062
    1UNL    C19   21  -0.384   0.084   0.020
    1UNL     O1   22  -0.378   0.050   0.156
    1UNL    C20   23  -0.482   0.109   0.228
    1UNL    C21   24  -0.276   0.091  -0.200
    1UNL     O2   25  -0.175   0.065  -0.264
    1UNL     O3   26  -0.372   0.170  -0.251
    1UNL    C22   27  -0.331   0.229  -0.368
    1UNL     H1   28  -0.417  -0.345   0.031
    1UNL     H2   29  -0.353  -0.196   0.102
    1UNL     H3   30  -0.262  -0.341  -0.148
    1UNL     H4   31  -0.111  -0.155  -0.196
    1UNL     H5   32  -0.046  -0.276   0.089
    1UNL     H6   33  -0.016  -0.352  -0.059
    1UNL     H7   34   0.223  -0.271   0.135
    1UNL     H8   35   0.226  -0.343  -0.012
    1UNL     H9   36   0.366  -0.163  -0.108
    1UNL    H10   37   0.432  -0.217   0.042
    1UNL    H11   38   0.151   0.177   0.205
    1UNL    H12   39   0.364   0.356   0.266
    1UNL    H13   40   0.612   0.356   0.248
    1UNL    H14   41   0.740   0.188   0.106
    1UNL    H15   42   0.611  -0.013   0.047
    1UNL    H16   43   0.032  -0.081   0.160
    1UNL    H17   44  -0.048   0.126   0.062
    1UNL    H18   45  -0.016   0.076  -0.097
    1UNL    H19   46  -0.199  -0.060   0.092
    1UNL    H20   47  -0.467   0.148  -0.012
    1UNL    H21   48  -0.463   0.110   0.343
    1UNL    H22   49  -0.519   0.215   0.195
    1UNL    H23   50  -0.579   0.052   0.217
    1UNL    H24   51  -0.248   0.298  -0.355
    1UNL    H25   52  -0.426   0.271  -0.395
    1UNL    H26   53  -0.296   0.149  -0.444
   0.00000   0.00000   0.00000   0.00000   0.00000   0.00000   0.00000   0.00000   0.00000
Generated with MDTraj, t= 3.0
 53
    1UNL     C1    1  -0.369  -0.269  -0.001
    1UNL     C2    2  -0.283  -0.261  -0.098
    1UNL     C3    3  -0.158  -0.174  -0.093
    1UNL     C4    4  -0.035  -0.255  -0.023
    1UNL     N1    5   0.091  -0.174  -0.015
    1UNL     C5    6   0.221  -0.248  -0.020
    1UNL     C6    7   0.344  -0.158  -0.015
    1UNL     C7    8   0.335  -0.033   0.064
    1UNL     C8    9   0.214   0.023   0.094
    1UNL     N2   10   0.227   0.150   0.156
    1UNL     C9   11   0.362   0.180   0.155
    1UNL    C10   12   0.427   0.285   0.214
    1UNL    C11   13   0.567   0.278   0.216
    1UNL    C12   14   0.635   0.171   0.156
    1UNL    C13   15   0.567   0.065   0.093
    1UNL    C14   16   0.429   0.069   0.096
    1UNL    C15   17   0.085  -0.053   0.075
    1UNL    C16   18  -0.029   0.027   0.011
    1UNL    C17   19  -0.158  -0.037  -0.003
    1UNL    C18   20  -0.266   0.046  -0.050
    1UNL    C19   21  -0.369   0.095   0.025
    1UNL     O1   22  -0.371   0.082   0.161
    1UNL    C20   23  -0.494   0.119   0.210
    1UNL    C21   24  -0.263   0.082  -0.190
    1UNL     O2   25  -0.186   0.027  -0.270
    1UNL     O3   26  -0.352   0.184  -0.222
    1UNL    C22   27  -0.357   0.192  -0.360
    1UNL     H1   28  -0.457  -0.331  -0.017
    1UNL     H2   29  -0.353  -0.231   0.097
    1UNL     H3   30  -0.289  -0.321  -0.195
    1UNL     H4   31  -0.122  -0.160  -0.198
    1UNL     H5   32  -0.074  -0.292   0.072
    1UNL     H6   33  -0.015  -0.348  -0.077
    1UNL     H7   34   0.226  -0.327   0.060
    1UNL     H8   35   0.229  -0.312  -0.099
    1UNL     H9   36   0.363  -0.131  -0.118
    1UNL    H10   37   0.435  -0.206   0.017
    1UNL    H11   38   0.154   0.202   0.191
    1UNL    H12   39   0.367   0.360   0.261
    1UNL    H13   40   0.625   0.367   0.252
    1UNL    H14   41   0.741   0.157   0.169
    1UNL    H15   42   0.618  -0.023   0.053
    1UNL    H16   43   0.056  -0.089   0.170
    1UNL    H17   44  -0.050   0.122   0.068
    1UNL    H18   45  -0.000   0.072  -0.082
    1UNL    H19   46  -0.169  -0.079   0.102
    1UNL    H20   47  -0.455   0.152  -0.011
    1UNL    H21   48  -0.494   0.126   0.327
    1UNL    H22   49  -0.538   0.218   0.167
    1UNL    H23   50  -0.579   0.046   0.186
    1UNL    H24   51  -0.450   0.235  -0.401
    1UNL    H25   52  -0.355   0.092  -0.402
    1UNL    H26   53  -0.252   0.228  -0.396
   0.00000   0.00000   0.00000   0.00000   0.00000   0.00000   0.00000   0.00000   0.00000
Generated with MDTraj, t= 4.0
 53
    1UNL     C1    1  -0.354  -0.276  -0.018
    1UNL     C2    2  -0.264  -0.250  -0.105
    1UNL     C3    3  -0.144  -0.163  -0.087
    1UNL     C4    4  -0.023  -0.249  -0.024
    1UNL     N1    5   0.098  -0.174  -0.021
    1UNL     C5    6   0.226  -0.249   0.005
    1UNL     C6    7   0.355  -0.157  -0.027
    1UNL     C7    8   0.332  -0.032   0.049
    1UNL     C8    9   0.213   0.009   0.100
    1UNL     N2   10   0.224   0.131   0.158
    1UNL     C9   11   0.361   0.164   0.162
    1UNL    C10   12   0.432   0.272   0.221
    1UNL    C11   13   0.574   0.279   0.220
    1UNL    C12   14   0.639   0.177   0.153
    1UNL    C13   15   0.574   0.065   0.092
    1UNL    C14   16   0.434   0.062   0.100
    1UNL    C15   17   0.080  -0.054   0.071
    1UNL    C16   18  -0.030   0.036   0.028
    1UNL    C17   19  -0.159  -0.027   0.004
    1UNL    C18   20  -0.265   0.059  -0.051
    1UNL    C19   21  -0.370   0.106   0.028
    1UNL     O1   22  -0.393   0.073   0.158
    1UNL    C20   23  -0.493   0.146   0.223
    1UNL    C21   24  -0.278   0.089  -0.194
    1UNL     O2   25  -0.197   0.034  -0.267
    1UNL     O3   26  -0.385   0.159  -0.240
    1UNL    C22   27  -0.367   0.177  -0.371
    1UNL     H1   28  -0.424  -0.354  -0.036
    1UNL     H2   29  -0.359  -0.221   0.073
    1UNL     H3   30  -0.260  -0.307  -0.190
    1UNL     H4   31  -0.118  -0.133  -0.193
    1UNL     H5   32  -0.068  -0.272   0.071
    1UNL     H6   33  -0.017  -0.346  -0.076
    1UNL     H7   34   0.235  -0.303   0.103
    1UNL     H8   35   0.229  -0.330  -0.059
    1UNL     H9   36   0.377  -0.138  -0.132
    1UNL    H10   37   0.440  -0.211   0.010
    1UNL    H11   38   0.156   0.202   0.172
    1UNL    H12   39   0.385   0.354   0.260
    1UNL    H13   40   0.620   0.369   0.258
    1UNL    H14   41   0.747   0.177   0.142
    1UNL    H15   42   0.627  -0.011   0.039
    1UNL    H16   43   0.052  -0.102   0.162
    1UNL    H17   44  -0.040   0.131   0.088
    1UNL    H18   45   0.006   0.084  -0.062
    1UNL    H19   46  -0.176  -0.064   0.112
    1UNL    H20   47  -0.458   0.151  -0.016
    1UNL    H21   48  -0.533   0.087   0.310
    1UNL    H22   49  -0.453   0.246   0.259
    1UNL    H23   50  -0.582   0.180   0.161
    1UNL    H24   51  -0.464   0.167  -0.422
    1UNL    H25   52  -0.287   0.114  -0.412
    1UNL    H26   53  -0.305   0.278  -0.379
   0.00000   0.00000   0.00000   0.00000   0.00000   0.00000   0.00000   0.00000   0.00000
Generated with MDTraj, t= 5.0
 53
    1UNL     C1    1  -0.346  -0.287  -0.021
    1UNL     C2    2  -0.265  -0.246  -0.112
    1UNL     C3    3  -0.145  -0.164  -0.089
    1UNL     C4    4  -0.027  -0.250  -0.025
    1UNL     N1    5   0.098  -0.174  -0.008
    1UNL     C5    6   0.225  -0.245   0.021
    1UNL     C6    7   0.345  -0.152  -0.001
    1UNL     C7    8   0.325  -0.016   0.056
    1UNL     C8    9   0.203   0.030   0.099
    1UNL     N2   10   0.228   0.143   0.174
    1UNL     C9   11   0.362   0.168   0.183
    1UNL    C10   12   0.445   0.260   0.239
    1UNL    C11   13   0.577   0.262   0.205
    1UNL    C12   14   0.639   0.162   0.129
    1UNL    C13   15   0.561   0.063   0.076
    1UNL    C14   16   0.427   0.066   0.108
    1UNL    C15   17   0.078  -0.046   0.074
    1UNL    C16   18  -0.033   0.031   0.013
    1UNL    C17   19  -0.163  -0.034  -0.001
    1UNL    C18   20  -0.267   0.047  -0.058
    1UNL    C19   21  -0.375   0.085   0.017
    1UNL     O1   22  -0.370   0.067   0.157
    1UNL    C20   23  -0.462   0.153   0.223
    1UNL    C21   24  -0.278   0.087  -0.201
    1UNL     O2   25  -0.177   0.087  -0.273
    1UNL     O3   26  -0.401   0.124  -0.246
    1UNL    C22   27  -0.385   0.178  -0.372
    1UNL     H1   28  -0.434  -0.344  -0.043
    1UNL     H2   29  -0.329  -0.266   0.084
    1UNL     H3   30  -0.293  -0.259  -0.221
    1UNL     H4   31  -0.115  -0.123  -0.190
    1UNL     H5   32  -0.057  -0.285   0.071
    1UNL     H6   33  -0.031  -0.339  -0.095
    1UNL     H7   34   0.217  -0.282   0.125
    1UNL     H8   35   0.233  -0.334  -0.039
    1UNL     H9   36   0.353  -0.145  -0.110
    1UNL    H10   37   0.439  -0.187   0.036
    1UNL    H11   38   0.152   0.195   0.225
    1UNL    H12   39   0.395   0.348   0.296
    1UNL    H13   40   0.637   0.338   0.247
    1UNL    H14   41   0.744   0.157   0.104
    1UNL    H15   42   0.599  -0.021   0.017
    1UNL    H16   43   0.036  -0.060   0.173
    1UNL    H17   44  -0.040   0.136   0.052
    1UNL    H18   45  -0.015   0.058  -0.090
    1UNL    H19   46  -0.201  -0.067   0.102
    1UNL    H20   47  -0.457   0.146  -0.013
    1UNL    H21   48  -0.438   0.155   0.328
    1UNL    H22   49  -0.461   0.252   0.179
    1UNL    H23   50  -0.570   0.123   0.214
    1UNL    H24   51  -0.444   0.268  -0.384
    1UNL    H25   52  -0.402   0.101  -0.445
    1UNL    H26   53  -0.272   0.207  -0.370
   0.00000   0.00000   0.00000   0.00000   0.00000   0.00000   0.00000   0.00000   0.00000
Generated with MDTraj, t= 6.0
 53
    1UNL     C1    1  -0.333  -0.311  -0.028
    1UNL     C2    2  -0.274  -0.231  -0.115
    1UNL     C3    3  -0.146  -0.158  -0.084
    1UNL     C4    4  -0.036  -0.252  -0.013
    1UNL     N1    5   0.093  -0.186   0.013
    1UNL     C5    6   0.223  -0.252   0.016
    1UNL     C6    7   0.340  -0.166  -0.015
    1UNL     C7    8   0.324  -0.026   0.047
    1UNL     C8    9   0.206   0.021   0.098
    1UNL     N2   10   0.229   0.139   0.165
    1UNL     C9   11   0.364   0.168   0.169
    1UNL    C10   12   0.439   0.278   0.226
    1UNL    C11   13   0.570   0.275   0.209
    1UNL    C12   14   0.638   0.168   0.141
    1UNL    C13   15   0.569   0.063   0.096
    1UNL    C14   16   0.427   0.063   0.104
    1UNL    C15   17   0.075  -0.051   0.084
    1UNL    C16   18  -0.032   0.033   0.019
    1UNL    C17   19  -0.168  -0.025  -0.006
    1UNL    C18   20  -0.274   0.057  -0.060
    1UNL    C19   21  -0.366   0.106   0.027
    1UNL     O1   22  -0.355   0.075   0.158
    1UNL    C20   23  -0.460   0.126   0.241
    1UNL    C21   24  -0.279   0.103  -0.207
    1UNL     O2   25  -0.183   0.082  -0.282
    1UNL     O3   26  -0.396   0.159  -0.250
    1UNL    C22   27  -0.387   0.154  -0.391
    1UNL     H1   28  -0.413  -0.378  -0.052
    1UNL     H2   29  -0.312  -0.317   0.077
    1UNL     H3   30  -0.304  -0.219  -0.215
    1UNL     H4   31  -0.092  -0.120  -0.175
    1UNL     H5   32  -0.075  -0.288   0.080
    1UNL     H6   33  -0.020  -0.344  -0.079
    1UNL     H7   34   0.233  -0.292   0.116
    1UNL     H8   35   0.211  -0.340  -0.053
    1UNL     H9   36   0.340  -0.145  -0.121
    1UNL    H10   37   0.428  -0.226   0.004
    1UNL    H11   38   0.150   0.179   0.229
    1UNL    H12   39   0.389   0.351   0.280
    1UNL    H13   40   0.640   0.356   0.238
    1UNL    H14   41   0.743   0.167   0.155
    1UNL    H15   42   0.612  -0.020   0.046
    1UNL    H16   43   0.039  -0.069   0.185
    1UNL    H17   44  -0.046   0.133   0.068
    1UNL    H18   45   0.017   0.066  -0.071
    1UNL    H19   46  -0.204  -0.064   0.097
    1UNL    H20   47  -0.443   0.172  -0.010
    1UNL    H21   48  -0.424   0.144   0.337
    1UNL    H22   49  -0.500   0.209   0.190
    1UNL    H23   50  -0.543   0.058   0.250
    1UNL    H24   51  -0.470   0.197  -0.442
    1UNL    H25   52  -0.382   0.049  -0.415
    1UNL    H26   53  -0.294   0.226  -0.403
   0.00000   0.00000   0.00000   0.00000   0.00000   0.00000   0.00000   0.00000   0.00000
Generated with MDTraj, t= 7.0
 53
    1UNL     C1    1  -0.321  -0.320  -0.035
    1UNL     C2    2  -0.272  -0.230  -0.112
    1UNL     C3    3  -0.146  -0.157  -0.082
    1UNL     C4    4  -0.035  -0.247  -0.033
    1UNL     N1    5   0.092  -0.177  -0.019
    1UNL     C5    6   0.213  -0.257   0.004
    1UNL     C6    7   0.346  -0.174   0.004
    1UNL     C7    8   0.326  -0.032   0.065
    1UNL     C8    9   0.203   0.019   0.098
    1UNL     N2   10   0.223   0.140   0.164
    1UNL     C9   11   0.359   0.171   0.163
    1UNL    C10   12   0.439   0.281   0.214
    1UNL    C11   13   0.571   0.285   0.196
    1UNL    C12   14   0.636   0.169   0.146
    1UNL    C13   15   0.570   0.061   0.102
    1UNL    C14   16   0.429   0.058   0.107
    1UNL    C15   17   0.075  -0.044   0.068
    1UNL    C16   18  -0.024   0.046   0.012
    1UNL    C17   19  -0.156  -0.025   0.000
    1UNL    C18   20  -0.265   0.061  -0.047
    1UNL    C19   21  -0.364   0.119   0.033
    1UNL     O1   22  -0.364   0.092   0.167
    1UNL    C20   23  -0.488   0.126   0.226
    1UNL    C21   24  -0.276   0.084  -0.192
    1UNL     O2   25  -0.200   0.036  -0.274
    1UNL     O3   26  -0.384   0.155  -0.237
    1UNL    C22   27  -0.369   0.174  -0.372
    1UNL     H1   28  -0.422  -0.354  -0.051
    1UNL     H2   29  -0.271  -0.351   0.053
    1UNL     H3   30  -0.334  -0.193  -0.196
    1UNL     H4   31  -0.111  -0.107  -0.175
    1UNL     H5   32  -0.058  -0.298   0.059
    1UNL     H6   33  -0.016  -0.327  -0.113
    1UNL     H7   34   0.182  -0.306   0.095
    1UNL     H8   35   0.209  -0.336  -0.081
    1UNL     H9   36   0.387  -0.174  -0.096
    1UNL    H10   37   0.419  -0.218   0.070
    1UNL    H11   38   0.131   0.200   0.181
    1UNL    H12   39   0.387   0.364   0.255
    1UNL    H13   40   0.636   0.364   0.227
    1UNL    H14   41   0.748   0.167   0.139
    1UNL    H15   42   0.626  -0.029   0.078
    1UNL    H16   43   0.036  -0.091   0.160
    1UNL    H17   44  -0.028   0.141   0.071
    1UNL    H18   45   0.022   0.082  -0.079
    1UNL    H19   46  -0.186  -0.068   0.103
    1UNL    H20   47  -0.446   0.176  -0.014
    1UNL    H21   48  -0.505   0.053   0.296
    1UNL    H22   49  -0.479   0.221   0.265
    1UNL    H23   50  -0.568   0.125   0.158
    1UNL    H24   51  -0.467   0.193  -0.410
    1UNL    H25   52  -0.344   0.076  -0.407
    1UNL    H26   53  -0.304   0.271  -0.378
   0.00000   0.00000   0.00000   0.00000   0.00000   0.00000   0.00000   0.00000   0.00000
Generated with MDTraj, t= 8.0
 53
    1UNL     C1    1  -0.310  -0.333  -0.016
    1UNL     C2    2  -0.261  -0.257  -0.107
    1UNL     C3    3  -0.138  -0.168  -0.093
    1UNL     C4    4  -0.022  -0.254  -0.041
    1UNL     N1    5   0.098  -0.176  -0.019
    1UNL     C5    6   0.211  -0.258   0.015
    1UNL     C6    7   0.344  -0.173   0.016
    1UNL     C7    8   0.328  -0.040   0.076
    1UNL     C8    9   0.209   0.023   0.101
    1UNL     N2   10   0.231   0.149   0.150
    1UNL     C9   11   0.370   0.173   0.152
    1UNL    C10   12   0.437   0.285   0.196
    1UNL    C11   13   0.573   0.281   0.194
    1UNL    C12   14   0.640   0.171   0.151
    1UNL    C13   15   0.571   0.061   0.105
    1UNL    C14   16   0.433   0.059   0.107
    1UNL    C15   17   0.078  -0.058   0.078
    1UNL    C16   18  -0.034   0.033   0.027
    1UNL    C17   19  -0.162  -0.041  -0.006
    1UNL    C18   20  -0.272   0.055  -0.053
    1UNL    C19   21  -0.378   0.097   0.020
    1UNL     O1   22  -0.390   0.072   0.153
    1UNL    C20   23  -0.486   0.157   0.214
    1UNL    C21   24  -0.277   0.096  -0.191
    1UNL     O2   25  -0.201   0.055  -0.276
    1UNL     O3   26  -0.381   0.176  -0.224
    1UNL    C22   27  -0.386   0.211  -0.364
    1UNL     H1   28  -0.390  -0.400  -0.041
    1UNL     H2   29  -0.274  -0.318   0.085
    1UNL     H3   30  -0.311  -0.264  -0.203
    1UNL     H4   31  -0.112  -0.125  -0.191
    1UNL     H5   32  -0.031  -0.301   0.056
    1UNL     H6   33   0.002  -0.341  -0.113
    1UNL     H7   34   0.190  -0.296   0.113
    1UNL     H8   35   0.201  -0.341  -0.068
    1UNL     H9   36   0.381  -0.155  -0.083
    1UNL    H10   37   0.414  -0.235   0.071
    1UNL    H11   38   0.158   0.221   0.191
    1UNL    H12   39   0.380   0.378   0.224
    1UNL    H13   40   0.625   0.373   0.214
    1UNL    H14   41   0.742   0.171   0.149
    1UNL    H15   42   0.626  -0.026   0.074
    1UNL    H16   43   0.040  -0.101   0.173
    1UNL    H17   44  -0.048   0.120   0.095
    1UNL    H18   45   0.002   0.087  -0.059
    1UNL    H19   46  -0.212  -0.094   0.086
    1UNL    H20   47  -0.455   0.165  -0.012
    1UNL    H21   48  -0.480   0.134   0.315
    1UNL    H22   49  -0.467   0.258   0.195
    1UNL    H23   50  -0.581   0.128   0.184
    1UNL    H24   51  -0.424   0.310  -0.375
    1UNL    H25   52  -0.448   0.132  -0.398
    1UNL    H26   53  -0.279   0.206  -0.400
   0.00000   0.00000   0.00000   0.00000   0.00000   0.00000   0.00000   0.00000   0.00000
Generated with MDTraj, t= 9.0
 53
    1UNL     C1    1  -0.331  -0.306  -0.015
    1UNL     C2    2  -0.259  -0.258  -0.113
    1UNL     C3    3  -0.141  -0.177  -0.092
    1UNL     C4    4  -0.031  -0.260  -0.026
    1UNL     N1    5   0.098  -0.181  -0.014
    1UNL     C5    6   0.217  -0.256   0.032
    1UNL     C6    7   0.345  -0.178   0.017
    1UNL     C7    8   0.327  -0.039   0.069
    1UNL     C8    9   0.204   0.017   0.091
    1UNL     N2   10   0.219   0.151   0.133
    1UNL     C9   11   0.353   0.185   0.152
    1UNL    C10   12   0.427   0.297   0.193
    1UNL    C11   13   0.569   0.280   0.194
    1UNL    C12   14   0.634   0.175   0.144
    1UNL    C13   15   0.562   0.063   0.103
    1UNL    C14   16   0.420   0.062   0.109
    1UNL    C15   17   0.079  -0.056   0.068
    1UNL    C16   18  -0.032   0.028  -0.000
    1UNL    C17   19  -0.165  -0.047  -0.010
    1UNL    C18   20  -0.282   0.042  -0.056
    1UNL    C19   21  -0.380   0.085   0.027
    1UNL     O1   22  -0.376   0.062   0.161
    1UNL    C20   23  -0.475   0.137   0.234
    1UNL    C21   24  -0.276   0.097  -0.192
    1UNL     O2   25  -0.189   0.053  -0.266
    1UNL     O3   26  -0.368   0.186  -0.225
    1UNL    C22   27  -0.350   0.232  -0.362
    1UNL     H1   28  -0.422  -0.358  -0.030
    1UNL     H2   29  -0.298  -0.287   0.085
    1UNL     H3   30  -0.290  -0.265  -0.214
    1UNL     H4   31  -0.089  -0.139  -0.180
    1UNL     H5   32  -0.055  -0.289   0.076
    1UNL     H6   33   0.008  -0.356  -0.075
    1UNL     H7   34   0.186  -0.275   0.132
    1UNL     H8   35   0.221  -0.353  -0.034
    1UNL     H9   36   0.352  -0.168  -0.090
    1UNL    H10   37   0.435  -0.222   0.058
    1UNL    H11   38   0.144   0.221   0.159
    1UNL    H12   39   0.380   0.385   0.215
    1UNL    H13   40   0.617   0.373   0.220
    1UNL    H14   41   0.748   0.169   0.142
    1UNL    H15   42   0.615  -0.020   0.061
    1UNL    H16   43   0.029  -0.085   0.165
    1UNL    H17   44  -0.038   0.130   0.043
    1UNL    H18   45   0.014   0.063  -0.093
    1UNL    H19   46  -0.180  -0.089   0.098
    1UNL    H20   47  -0.457   0.146  -0.014
    1UNL    H21   48  -0.476   0.098   0.336
    1UNL    H22   49  -0.453   0.242   0.228
    1UNL    H23   50  -0.569   0.113   0.196
    1UNL    H24   51  -0.385   0.334  -0.358
    1UNL    H25   52  -0.384   0.159  -0.433
    1UNL    H26   53  -0.237   0.231  -0.374
   0.00000   0.00000   0.00000   0.00000   0.00000   0.00000   0.00000   0.00000   0.00000
Generated with MDTraj, t= 10.0
 53
    1UNL     C1    1  -0.365  -0.272  -0.013
    1UNL     C2    2  -0.281  -0.243  -0.109
    1UNL     C3    3  -0.144  -0.176  -0.081
    1UNL     C4    4  -0.040  -0.259  -0.018
    1UNL     N1    5   0.093  -0.192  -0.011
    1UNL     C5    6   0.219  -0.266   0.033
    1UNL     C6    7   0.347  -0.174   0.019
    1UNL     C7    8   0.327  -0.032   0.068
    1UNL     C8    9   0.203   0.020   0.090
    1UNL     N2   10   0.208   0.151   0.133
    1UNL     C9   11   0.346   0.183   0.137
    1UNL    C10   12   0.419   0.294   0.186
    1UNL    C11   13   0.555   0.295   0.188
    1UNL    C12   14   0.624   0.178   0.143
    1UNL    C13   15   0.562   0.068   0.092
    1UNL    C14   16   0.420   0.070   0.094
    1UNL    C15   17   0.078  -0.064   0.070
    1UNL    C16   18  -0.036   0.028   0.011
    1UNL    C17   19  -0.166  -0.044   0.006
    1UNL    C18   20  -0.273   0.042  -0.060
    1UNL    C19   21  -0.371   0.085   0.028
    1UNL     O1   22  -0.353   0.059   0.164
    1UNL    C20   23  -0.468   0.081   0.240
    1UNL    C21   24  -0.260   0.094  -0.197
    1UNL     O2   25  -0.180   0.036  -0.270
    1UNL     O3   26  -0.343   0.200  -0.230
    1UNL    C22   27  -0.323   0.238  -0.367
    1UNL     H1   28  -0.459  -0.324  -0.032
    1UNL     H2   29  -0.344  -0.237   0.086
    1UNL     H3   30  -0.305  -0.291  -0.208
    1UNL     H4   31  -0.111  -0.125  -0.170
    1UNL     H5   32  -0.069  -0.283   0.086
    1UNL     H6   33  -0.031  -0.361  -0.069
    1UNL     H7   34   0.204  -0.291   0.135
    1UNL     H8   35   0.221  -0.366  -0.028
    1UNL     H9   36   0.381  -0.162  -0.081
    1UNL    H10   37   0.423  -0.222   0.077
    1UNL    H11   38   0.152   0.234   0.146
    1UNL    H12   39   0.362   0.386   0.222
    1UNL    H13   40   0.606   0.375   0.241
    1UNL    H14   41   0.731   0.186   0.154
    1UNL    H15   42   0.623  -0.021   0.068
    1UNL    H16   43   0.030  -0.107   0.165
    1UNL    H17   44  -0.036   0.124   0.066
    1UNL    H18   45  -0.010   0.069  -0.086
    1UNL    H19   46  -0.204  -0.071   0.113
    1UNL    H20   47  -0.454   0.149  -0.005
    1UNL    H21   48  -0.470   0.006   0.324
    1UNL    H22   49  -0.468   0.187   0.277
    1UNL    H23   50  -0.554   0.056   0.179
    1UNL    H24   51  -0.424   0.248  -0.403
    1UNL    H25   52  -0.253   0.173  -0.417
    1UNL    H26   53  -0.276   0.343  -0.357
   0.00000   0.00000   0.00000   0.00000   0.00000   0.00000   0.00000   0.00000   0.00000
Generated with MDTraj, t= 11.0
 53
    1UNL     C1    1  -0.370  -0.259  -0.015
    1UNL     C2    2  -0.264  -0.259  -0.097
    1UNL     C3    3  -0.143  -0.175  -0.086
    1UNL     C4    4  -0.035  -0.260  -0.025
    1UNL     N1    5   0.096  -0.187  -0.004
    1UNL     C5    6   0.226  -0.263   0.038
    1UNL     C6    7   0.343  -0.173   0.007
    1UNL     C7    8   0.328  -0.037   0.076
    1UNL     C8    9   0.202   0.009   0.104
    1UNL     N2   10   0.219   0.138   0.158
    1UNL     C9   11   0.352   0.175   0.150
    1UNL    C10   12   0.425   0.299   0.175
    1UNL    C11   13   0.561   0.300   0.160
    1UNL    C12   14   0.632   0.182   0.119
    1UNL    C13   15   0.562   0.068   0.094
    1UNL    C14   16   0.421   0.062   0.105
    1UNL    C15   17   0.076  -0.062   0.081
    1UNL    C16   18  -0.031   0.030   0.006
    1UNL    C17   19  -0.167  -0.038  -0.002
    1UNL    C18   20  -0.265   0.055  -0.055
    1UNL    C19   21  -0.368   0.084   0.029
    1UNL     O1   22  -0.389   0.033   0.156
    1UNL    C20   23  -0.500   0.086   0.220
    1UNL    C21   24  -0.258   0.105  -0.192
    1UNL     O2   25  -0.178   0.048  -0.267
    1UNL     O3   26  -0.346   0.206  -0.222
    1UNL    C22   27  -0.323   0.241  -0.361
    1UNL     H1   28  -0.436  -0.342  -0.008
    1UNL     H2   29  -0.392  -0.181   0.052
    1UNL     H3   30  -0.252  -0.349  -0.147
    1UNL     H4   31  -0.115  -0.147  -0.187
    1UNL     H5   32  -0.064  -0.302   0.073
    1UNL     H6   33  -0.021  -0.355  -0.086
    1UNL     H7   34   0.224  -0.290   0.142
    1UNL     H8   35   0.229  -0.362  -0.020
    1UNL     H9   36   0.358  -0.162  -0.098
    1UNL    H10   37   0.431  -0.208   0.059
    1UNL    H11   38   0.158   0.201   0.205
    1UNL    H12   39   0.368   0.379   0.217
    1UNL    H13   40   0.614   0.391   0.178
    1UNL    H14   41   0.734   0.190   0.124
    1UNL    H15   42   0.613  -0.017   0.058
    1UNL    H16   43   0.031  -0.102   0.177
    1UNL    H17   44  -0.025   0.132   0.048
    1UNL    H18   45   0.003   0.049  -0.095
    1UNL    H19   46  -0.203  -0.076   0.103
    1UNL    H20   47  -0.429   0.170   0.002
    1UNL    H21   48  -0.481   0.098   0.333
    1UNL    H22   49  -0.521   0.190   0.176
    1UNL    H23   50  -0.587   0.014   0.210
    1UNL    H24   51  -0.332   0.146  -0.412
    1UNL    H25   52  -0.228   0.291  -0.380
    1UNL    H26   53  -0.405   0.321  -0.390
   0.00000   0.00000   0.00000   0.00000   0.00000   0.00000   0.00000   0.00000   0.00000
Generated with MDTraj, t= 12.0
 53
    1UNL     C1    1  -0.377  -0.245  -0.026
    1UNL     C2    2  -0.261  -0.265  -0.094
    1UNL     C3    3  -0.143  -0.176  -0.080
    1UNL     C4    4  -0.035  -0.256  -0.008
    1UNL     N1    5   0.091  -0.177   0.002
    1UNL     C5    6   0.219  -0.265   0.019
    1UNL     C6    7   0.351  -0.186   0.031
    1UNL     C7    8   0.334  -0.037   0.063
    1UNL     C8    9   0.213   0.017   0.102
    1UNL     N2   10   0.226   0.142   0.160
    1UNL     C9   11   0.366   0.176   0.154
    1UNL    C10   12   0.436   0.290   0.192
    1UNL    C11   13   0.569   0.292   0.157
    1UNL    C12   14   0.637   0.184   0.095
    1UNL    C13   15   0.565   0.070   0.068
    1UNL    C14   16   0.430   0.065   0.099
    1UNL    C15   17   0.083  -0.061   0.092
    1UNL    C16   18  -0.023   0.033   0.026
    1UNL    C17   19  -0.164  -0.040   0.010
    1UNL    C18   20  -0.266   0.043  -0.050
    1UNL    C19   21  -0.377   0.076   0.017
    1UNL     O1   22  -0.417   0.030   0.143
    1UNL    C20   23  -0.534   0.095   0.183
    1UNL    C21   24  -0.254   0.102  -0.186
    1UNL     O2   25  -0.150   0.076  -0.247
    1UNL     O3   26  -0.370   0.163  -0.231
    1UNL    C22   27  -0.329   0.252  -0.334
    1UNL     H1   28  -0.469  -0.304  -0.031
    1UNL     H2   29  -0.390  -0.167   0.050
    1UNL     H3   30  -0.250  -0.351  -0.166
    1UNL     H4   31  -0.100  -0.155  -0.178
    1UNL     H5   32  -0.081  -0.281   0.090
    1UNL     H6   33   0.003  -0.357  -0.044
    1UNL     H7   34   0.199  -0.338   0.100
    1UNL     H8   35   0.235  -0.326  -0.075
    1UNL     H9   36   0.390  -0.170  -0.067
    1UNL    H10   37   0.420  -0.237   0.098
    1UNL    H11   38   0.154   0.197   0.195
    1UNL    H12   39   0.378   0.361   0.243
    1UNL    H13   40   0.618   0.389   0.177
    1UNL    H14   41   0.746   0.198   0.054
    1UNL    H15   42   0.620  -0.007   0.012
    1UNL    H16   43   0.059  -0.097   0.196
    1UNL    H17   44  -0.029   0.122   0.091
    1UNL    H18   45   0.023   0.083  -0.059
    1UNL    H19   46  -0.199  -0.081   0.113
    1UNL    H20   47  -0.448   0.143  -0.027
    1UNL    H21   48  -0.571   0.057   0.285
    1UNL    H22   49  -0.503   0.204   0.199
    1UNL    H23   50  -0.625   0.084   0.110
    1UNL    H24   51  -0.253   0.207  -0.397
    1UNL    H25   52  -0.300   0.351  -0.301
    1UNL    H26   53  -0.432   0.273  -0.390
   0.00000   0.00000   0.00000   0.00000   0.00000   0.00000   0.00000   0.00000   0.00000
Generated with MDTraj, t= 13.0
 53
    1UNL     C1    1  -0.379  -0.249  -0.032
    1UNL     C2    2  -0.266  -0.246  -0.111
    1UNL     C3    3  -0.137  -0.168  -0.077
    1UNL     C4    4  -0.031  -0.254  -0.005
    1UNL     N1    5   0.092  -0.182   0.017
    1UNL     C5    6   0.220  -0.259   0.038
    1UNL     C6    7   0.332  -0.170  -0.012
    1UNL     C7    8   0.326  -0.031   0.050
    1UNL     C8    9   0.211   0.022   0.097
    1UNL     N2   10   0.233   0.147   0.149
    1UNL     C9   11   0.372   0.172   0.140
    1UNL    C10   12   0.441   0.288   0.179
    1UNL    C11   13   0.576   0.292   0.151
    1UNL    C12   14   0.640   0.177   0.106
    1UNL    C13   15   0.569   0.057   0.070
    1UNL    C14   16   0.434   0.058   0.078
    1UNL    C15   17   0.080  -0.060   0.107
    1UNL    C16   18  -0.034   0.035   0.051
    1UNL    C17   19  -0.167  -0.047   0.021
    1UNL    C18   20  -0.267   0.047  -0.035
    1UNL    C19   21  -0.397   0.064   0.018
    1UNL     O1   22  -0.430   0.027   0.143
    1UNL    C20   23  -0.559   0.069   0.179
    1UNL    C21   24  -0.245   0.119  -0.163
    1UNL     O2   25  -0.131   0.115  -0.204
    1UNL     O3   26  -0.352   0.170  -0.236
    1UNL    C22   27  -0.307   0.209  -0.368
    1UNL     H1   28  -0.454  -0.322  -0.040
    1UNL     H2   29  -0.393  -0.179   0.048
    1UNL     H3   30  -0.254  -0.320  -0.182
    1UNL     H4   31  -0.104  -0.125  -0.173
    1UNL     H5   32  -0.070  -0.306   0.086
    1UNL     H6   33  -0.016  -0.350  -0.065
    1UNL     H7   34   0.239  -0.281   0.148
    1UNL     H8   35   0.216  -0.358  -0.012
    1UNL     H9   36   0.331  -0.170  -0.119
    1UNL    H10   37   0.429  -0.199   0.029
    1UNL    H11   38   0.160   0.203   0.175
    1UNL    H12   39   0.379   0.375   0.222
    1UNL    H13   40   0.617   0.386   0.174
    1UNL    H14   41   0.740   0.184   0.084
    1UNL    H15   42   0.619  -0.025   0.026
    1UNL    H16   43   0.060  -0.106   0.207
    1UNL    H17   44  -0.052   0.108   0.132
    1UNL    H18   45  -0.006   0.109  -0.024
    1UNL    H19   46  -0.212  -0.077   0.125
    1UNL    H20   47  -0.476   0.121  -0.028
    1UNL    H21   48  -0.597   0.016   0.270
    1UNL    H22   49  -0.550   0.177   0.211
    1UNL    H23   50  -0.644   0.053   0.099
    1UNL    H24   51  -0.286   0.127  -0.435
    1UNL    H25   52  -0.226   0.279  -0.374
    1UNL    H26   53  -0.400   0.274  -0.400
   0.00000   0.00000   0.00000   0.00000   0.00000   0.00000   0.00000   0.00000   0.00000
Generated with MDTraj, t= 14.0
 53
    1UNL     C1    1  -0.380  -0.254  -0.039
    1UNL     C2    2  -0.268  -0.228  -0.103
    1UNL     C3    3  -0.148  -0.145  -0.054
    1UNL     C4    4  -0.047  -0.236   0.009
    1UNL     N1    5   0.083  -0.171   0.017
    1UNL     C5    6   0.210  -0.255   0.020
    1UNL     C6    7   0.338  -0.168  -0.000
    1UNL     C7    8   0.321  -0.033   0.063
    1UNL     C8    9   0.207   0.022   0.107
    1UNL     N2   10   0.229   0.146   0.154
    1UNL     C9   11   0.364   0.180   0.140
    1UNL    C10   12   0.448   0.289   0.176
    1UNL    C11   13   0.586   0.276   0.149
    1UNL    C12   14   0.642   0.164   0.082
    1UNL    C13   15   0.558   0.059   0.050
    1UNL    C14   16   0.421   0.070   0.073
    1UNL    C15   17   0.078  -0.055   0.108
    1UNL    C16   18  -0.033   0.046   0.054
    1UNL    C17   19  -0.175  -0.024   0.036
    1UNL    C18   20  -0.272   0.063  -0.029
    1UNL    C19   21  -0.396   0.065   0.021
    1UNL     O1   22  -0.428   0.003   0.137
    1UNL    C20   23  -0.560   0.023   0.175
    1UNL    C21   24  -0.233   0.119  -0.168
    1UNL     O2   25  -0.119   0.112  -0.212
    1UNL     O3   26  -0.336   0.166  -0.238
    1UNL    C22   27  -0.287   0.193  -0.370
    1UNL     H1   28  -0.455  -0.304  -0.103
    1UNL     H2   29  -0.404  -0.220   0.062
    1UNL     H3   30  -0.266  -0.264  -0.210
    1UNL     H4   31  -0.094  -0.113  -0.147
    1UNL     H5   32  -0.081  -0.291   0.101
    1UNL     H6   33  -0.042  -0.328  -0.056
    1UNL     H7   34   0.221  -0.321   0.118
    1UNL     H8   35   0.206  -0.330  -0.059
    1UNL     H9   36   0.377  -0.153  -0.100
    1UNL    H10   37   0.415  -0.221   0.058
    1UNL    H11   38   0.164   0.188   0.211
    1UNL    H12   39   0.406   0.365   0.230
    1UNL    H13   40   0.657   0.350   0.190
    1UNL    H14   41   0.751   0.156   0.074
    1UNL    H15   42   0.605  -0.030   0.006
    1UNL    H16   43   0.051  -0.099   0.207
    1UNL    H17   44  -0.037   0.139   0.115
    1UNL    H18   45  -0.000   0.100  -0.036
    1UNL    H19   46  -0.206  -0.068   0.140
    1UNL    H20   47  -0.464   0.143  -0.015
    1UNL    H21   48  -0.573   0.003   0.281
    1UNL    H22   49  -0.591   0.128   0.161
    1UNL    H23   50  -0.631  -0.047   0.122
    1UNL    H24   51  -0.254   0.112  -0.433
    1UNL    H25   52  -0.211   0.265  -0.376
    1UNL    H26   53  -0.377   0.245  -0.418
   0.00000   0.00000   0.00000   0.00000   0.00000   0.00000   0.00000   0.00000   0.00000
Generated with MDTraj, t= 15.0
 53
    1UNL     C1    1  -0.362  -0.266  -0.011
    1UNL     C2    2  -0.273  -0.222  -0.100
    1UNL     C3    3  -0.147  -0.155  -0.056
    1UNL     C4    4  -0.038  -0.252   0.003
    1UNL     N1    5   0.085  -0.180   0.027
    1UNL     C5    6   0.215  -0.254   0.052
    1UNL     C6    7   0.340  -0.172   0.003
    1UNL     C7    8   0.330  -0.036   0.072
    1UNL     C8    9   0.209   0.012   0.126
    1UNL     N2   10   0.243   0.141   0.176
    1UNL     C9   11   0.376   0.164   0.154
    1UNL    C10   12   0.454   0.282   0.177
    1UNL    C11   13   0.581   0.285   0.137
    1UNL    C12   14   0.638   0.176   0.063
    1UNL    C13   15   0.566   0.064   0.043
    1UNL    C14   16   0.432   0.056   0.086
    1UNL    C15   17   0.078  -0.056   0.107
    1UNL    C16   18  -0.027   0.044   0.043
    1UNL    C17   19  -0.169  -0.026   0.029
    1UNL    C18   20  -0.267   0.065  -0.041
    1UNL    C19   21  -0.393   0.080   0.014
    1UNL     O1   22  -0.435   0.013   0.136
    1UNL    C20   23  -0.575   0.012   0.148
    1UNL    C21   24  -0.241   0.123  -0.176
    1UNL     O2   25  -0.138   0.108  -0.237
    1UNL     O3   26  -0.351   0.169  -0.242
    1UNL    C22   27  -0.308   0.235  -0.363
    1UNL     H1   28  -0.441  -0.328  -0.046
    1UNL     H2   29  -0.365  -0.220   0.084
    1UNL     H3   30  -0.286  -0.255  -0.200
    1UNL     H4   31  -0.092  -0.116  -0.146
    1UNL     H5   32  -0.086  -0.289   0.096
    1UNL     H6   33  -0.018  -0.351  -0.045
    1UNL     H7   34   0.220  -0.271   0.169
    1UNL     H8   35   0.216  -0.349  -0.000
    1UNL     H9   36   0.309  -0.153  -0.099
    1UNL    H10   37   0.441  -0.217  -0.003
    1UNL    H11   38   0.188   0.210   0.216
    1UNL    H12   39   0.414   0.367   0.232
    1UNL    H13   40   0.645   0.361   0.168
    1UNL    H14   41   0.742   0.183   0.020
    1UNL    H15   42   0.607  -0.024  -0.001
    1UNL    H16   43   0.035  -0.073   0.206
    1UNL    H17   44  -0.033   0.139   0.100
    1UNL    H18   45   0.014   0.093  -0.048
    1UNL    H19   46  -0.205  -0.055   0.136
    1UNL    H20   47  -0.472   0.139  -0.034
    1UNL    H21   48  -0.598  -0.062   0.219
    1UNL    H22   49  -0.613   0.103   0.189
    1UNL    H23   50  -0.624  -0.016   0.057
    1UNL    H24   51  -0.242   0.187  -0.433
    1UNL    H25   52  -0.265   0.329  -0.347
    1UNL    H26   53  -0.405   0.249  -0.420
   0.00000   0.00000   0.00000   0.00000   0.00000   0.00000   0.00000   0.00000   0.00000
Generated with MDTraj, t= 16.0
 53
    1UNL     C1    1  -0.336  -0.304   0.015
    1UNL     C2    2  -0.269  -0.241  -0.081
    1UNL     C3    3  -0.141  -0.175  -0.058
    1UNL     C4    4  -0.046  -0.253   0.027
    1UNL     N1    5   0.087  -0.187   0.034
    1UNL     C5    6   0.212  -0.264   0.042
    1UNL     C6    7   0.334  -0.178   0.016
    1UNL     C7    8   0.325  -0.043   0.072
    1UNL     C8    9   0.210   0.015   0.116
    1UNL     N2   10   0.231   0.145   0.160
    1UNL     C9   11   0.367   0.166   0.154
    1UNL    C10   12   0.448   0.281   0.174
    1UNL    C11   13   0.579   0.288   0.139
    1UNL    C12   14   0.638   0.176   0.075
    1UNL    C13   15   0.568   0.065   0.046
    1UNL    C14   16   0.427   0.058   0.087
    1UNL    C15   17   0.082  -0.051   0.107
    1UNL    C16   18  -0.024   0.041   0.031
    1UNL    C17   19  -0.160  -0.033   0.006
    1UNL    C18   20  -0.262   0.056  -0.060
    1UNL    C19   21  -0.393   0.064  -0.004
    1UNL     O1   22  -0.437   0.006   0.113
    1UNL    C20   23  -0.568   0.035   0.149
    1UNL    C21   24  -0.234   0.137  -0.181
    1UNL     O2   25  -0.133   0.125  -0.243
    1UNL     O3   26  -0.348   0.210  -0.216
    1UNL    C22   27  -0.329   0.257  -0.352
    1UNL     H1   28  -0.437  -0.340  -0.002
    1UNL     H2   29  -0.294  -0.284   0.115
    1UNL     H3   30  -0.317  -0.225  -0.177
    1UNL     H4   31  -0.094  -0.154  -0.159
    1UNL     H5   32  -0.078  -0.282   0.130
    1UNL     H6   33  -0.046  -0.351  -0.022
    1UNL     H7   34   0.224  -0.303   0.152
    1UNL     H8   35   0.208  -0.348  -0.027
    1UNL     H9   36   0.350  -0.168  -0.091
    1UNL    H10   37   0.423  -0.232   0.053
    1UNL    H11   38   0.168   0.221   0.172
    1UNL    H12   39   0.398   0.370   0.222
    1UNL    H13   40   0.648   0.378   0.146
    1UNL    H14   41   0.731   0.190   0.037
    1UNL    H15   42   0.610  -0.013  -0.017
    1UNL    H16   43   0.051  -0.076   0.208
    1UNL    H17   44  -0.021   0.149   0.054
    1UNL    H18   45   0.020   0.056  -0.069
    1UNL    H19   46  -0.202  -0.046   0.115
    1UNL    H20   47  -0.475   0.125  -0.038
    1UNL    H21   48  -0.588   0.005   0.247
    1UNL    H22   49  -0.586   0.138   0.140
    1UNL    H23   50  -0.629  -0.017   0.083
    1UNL    H24   51  -0.343   0.179  -0.428
    1UNL    H25   52  -0.239   0.304  -0.377
    1UNL    H26   53  -0.418   0.320  -0.378
   0.00000   0.00000   0.00000   0.00000   0.00000   0.00000   0.00000   0.00000   0.00000
Generated with MDTraj, t= 17.0
 53
    1UNL     C1    1  -0.332  -0.311   0.044
    1UNL     C2    2  -0.279  -0.255  -0.067
    1UNL     C3    3  -0.153  -0.173  -0.066
    1UNL     C4    4  -0.040  -0.247  -0.005
    1UNL     N1    5   0.086  -0.175   0.008
    1UNL     C5    6   0.196  -0.255   0.050
    1UNL     C6    7   0.331  -0.182   0.020
    1UNL     C7    8   0.325  -0.037   0.062
    1UNL     C8    9   0.204   0.026   0.088
    1UNL     N2   10   0.230   0.155   0.134
    1UNL     C9   11   0.366   0.182   0.132
    1UNL    C10   12   0.442   0.295   0.156
    1UNL    C11   13   0.576   0.288   0.146
    1UNL    C12   14   0.634   0.171   0.109
    1UNL    C13   15   0.565   0.054   0.075
    1UNL    C14   16   0.428   0.062   0.083
    1UNL    C15   17   0.073  -0.045   0.086
    1UNL    C16   18  -0.037   0.036   0.019
    1UNL    C17   19  -0.169  -0.038   0.008
    1UNL    C18   20  -0.278   0.047  -0.057
    1UNL    C19   21  -0.398   0.056  -0.001
    1UNL     O1   22  -0.435  -0.006   0.118
    1UNL    C20   23  -0.560   0.031   0.177
    1UNL    C21   24  -0.237   0.129  -0.184
    1UNL     O2   25  -0.129   0.095  -0.230
    1UNL     O3   26  -0.330   0.210  -0.225
    1UNL    C22   27  -0.274   0.285  -0.330
    1UNL     H1   28  -0.428  -0.355   0.042
    1UNL     H2   29  -0.278  -0.293   0.134
    1UNL     H3   30  -0.340  -0.237  -0.157
    1UNL     H4   31  -0.117  -0.144  -0.169
    1UNL     H5   32  -0.080  -0.269   0.098
    1UNL     H6   33  -0.026  -0.350  -0.036
    1UNL     H7   34   0.189  -0.276   0.162
    1UNL     H8   35   0.186  -0.347  -0.007
    1UNL     H9   36   0.366  -0.195  -0.084
    1UNL    H10   37   0.415  -0.228   0.075
    1UNL    H11   38   0.167   0.220   0.183
    1UNL    H12   39   0.402   0.383   0.187
    1UNL    H13   40   0.632   0.372   0.165
    1UNL    H14   41   0.745   0.171   0.084
    1UNL    H15   42   0.603  -0.032   0.024
    1UNL    H16   43   0.043  -0.070   0.186
    1UNL    H17   44  -0.045   0.129   0.072
    1UNL    H18   45  -0.002   0.075  -0.078
    1UNL    H19   46  -0.203  -0.086   0.109
    1UNL    H20   47  -0.467   0.131  -0.035
    1UNL    H21   48  -0.589  -0.041   0.251
    1UNL    H22   49  -0.556   0.127   0.216
    1UNL    H23   50  -0.629   0.040   0.103
    1UNL    H24   51  -0.301   0.243  -0.429
    1UNL    H25   52  -0.166   0.299  -0.331
    1UNL    H26   53  -0.328   0.380  -0.336
   0.00000   0.00000   0.00000   0.00000   0.00000   0.00000   0.00000   0.00000   0.00000
Generated with MDTraj, t= 18.0
 53
    1UNL     C1    1  -0.351  -0.291   0.043
    1UNL     C2    2  -0.281  -0.259  -0.069
    1UNL     C3    3  -0.153  -0.180  -0.065
    1UNL     C4    4  -0.034  -0.258  -0.003
    1UNL     N1    5   0.092  -0.177  -0.007
    1UNL     C5    6   0.215  -0.261   0.026
    1UNL     C6    7   0.349  -0.184   0.035
    1UNL     C7    8   0.321  -0.038   0.058
    1UNL     C8    9   0.205   0.026   0.083
    1UNL     N2   10   0.226   0.158   0.114
    1UNL     C9   11   0.362   0.186   0.108
    1UNL    C10   12   0.433   0.301   0.135
    1UNL    C11   13   0.569   0.291   0.145
    1UNL    C12   14   0.635   0.173   0.135
    1UNL    C13   15   0.568   0.056   0.107
    1UNL    C14   16   0.428   0.065   0.086
    1UNL    C15   17   0.075  -0.051   0.071
    1UNL    C16   18  -0.038   0.036   0.026
    1UNL    C17   19  -0.170  -0.044   0.011
    1UNL    C18   20  -0.274   0.043  -0.051
    1UNL    C19   21  -0.396   0.068   0.015
    1UNL     O1   22  -0.430   0.006   0.136
    1UNL    C20   23  -0.568   0.030   0.168
    1UNL    C21   24  -0.241   0.117  -0.179
    1UNL     O2   25  -0.169   0.056  -0.252
    1UNL     O3   26  -0.309   0.233  -0.205
    1UNL    C22   27  -0.258   0.302  -0.321
    1UNL     H1   28  -0.438  -0.357   0.038
    1UNL     H2   29  -0.332  -0.244   0.138
    1UNL     H3   30  -0.301  -0.306  -0.161
    1UNL     H4   31  -0.128  -0.138  -0.167
    1UNL     H5   32  -0.051  -0.304   0.097
    1UNL     H6   33  -0.025  -0.348  -0.061
    1UNL     H7   34   0.187  -0.315   0.119
    1UNL     H8   35   0.225  -0.338  -0.053
    1UNL     H9   36   0.402  -0.184  -0.063
    1UNL    H10   37   0.432  -0.228   0.095
    1UNL    H11   38   0.151   0.222   0.155
    1UNL    H12   39   0.377   0.394   0.162
    1UNL    H13   40   0.617   0.382   0.186
    1UNL    H14   41   0.738   0.167   0.137
    1UNL    H15   42   0.628  -0.033   0.093
    1UNL    H16   43   0.045  -0.087   0.167
    1UNL    H17   44  -0.055   0.123   0.085
    1UNL    H18   45  -0.006   0.082  -0.071
    1UNL    H19   46  -0.223  -0.079   0.108
    1UNL    H20   47  -0.462   0.146  -0.020
    1UNL    H21   48  -0.585  -0.043   0.247
    1UNL    H22   49  -0.578   0.128   0.207
    1UNL    H23   50  -0.637   0.026   0.091
    1UNL    H24   51  -0.207   0.233  -0.398
    1UNL    H25   52  -0.185   0.384  -0.306
    1UNL    H26   53  -0.346   0.334  -0.376
   0.00000   0.00000   0.00000   0.00000   0.00000   0.00000   0.00000   0.00000   0.00000
Generated with MDTraj, t= 19.0
 53
    1UNL     C1    1  -0.355  -0.275   0.018
    1UNL     C2    2  -0.274  -0.253  -0.083
    1UNL     C3    3  -0.152  -0.177  -0.066
    1UNL     C4    4  -0.028  -0.268  -0.012
    1UNL     N1    5   0.100  -0.193  -0.002
    1UNL     C5    6   0.220  -0.261   0.047
    1UNL     C6    7   0.350  -0.185   0.035
    1UNL     C7    8   0.336  -0.038   0.074
    1UNL     C8    9   0.210   0.016   0.083
    1UNL     N2   10   0.217   0.151   0.103
    1UNL     C9   11   0.354   0.179   0.124
    1UNL    C10   12   0.425   0.298   0.146
    1UNL    C11   13   0.561   0.296   0.140
    1UNL    C12   14   0.635   0.180   0.124
    1UNL    C13   15   0.569   0.062   0.106
    1UNL    C14   16   0.433   0.063   0.096
    1UNL    C15   17   0.082  -0.059   0.071
    1UNL    C16   18  -0.028   0.028   0.006
    1UNL    C17   19  -0.170  -0.041   0.007
    1UNL    C18   20  -0.274   0.045  -0.046
    1UNL    C19   21  -0.393   0.061   0.022
    1UNL     O1   22  -0.425   0.014   0.147
    1UNL    C20   23  -0.560   0.049   0.164
    1UNL    C21   24  -0.247   0.113  -0.175
    1UNL     O2   25  -0.190   0.053  -0.260
    1UNL     O3   26  -0.296   0.242  -0.190
    1UNL    C22   27  -0.290   0.294  -0.325
    1UNL     H1   28  -0.453  -0.313  -0.001
    1UNL     H2   29  -0.327  -0.241   0.114
    1UNL     H3   30  -0.304  -0.294  -0.183
    1UNL     H4   31  -0.116  -0.127  -0.160
    1UNL     H5   32  -0.045  -0.314   0.088
    1UNL     H6   33  -0.018  -0.355  -0.072
    1UNL     H7   34   0.209  -0.284   0.153
    1UNL     H8   35   0.219  -0.360  -0.007
    1UNL     H9   36   0.393  -0.196  -0.067
    1UNL    H10   37   0.435  -0.227   0.091
    1UNL    H11   38   0.133   0.220   0.095
    1UNL    H12   39   0.375   0.386   0.189
    1UNL    H13   40   0.621   0.385   0.168
    1UNL    H14   41   0.746   0.187   0.140
    1UNL    H15   42   0.620  -0.034   0.090
    1UNL    H16   43   0.050  -0.081   0.171
    1UNL    H17   44  -0.022   0.122   0.054
    1UNL    H18   45   0.003   0.054  -0.099
    1UNL    H19   46  -0.194  -0.068   0.117
    1UNL    H20   47  -0.474   0.121  -0.024
    1UNL    H21   48  -0.570   0.047   0.277
    1UNL    H22   49  -0.577   0.151   0.125
    1UNL    H23   50  -0.635  -0.013   0.115
    1UNL    H24   51  -0.183   0.285  -0.372
    1UNL    H25   52  -0.312   0.402  -0.314
    1UNL    H26   53  -0.365   0.253  -0.392
   0.00000   0.00000   0.00000   0.00000   0.00000   0.00000   0.00000   0.00000   0.00000
Generated with MDTraj, t= 20.0
 53
    1UNL     C1    1  -0.362  -0.286  -0.009
    1UNL     C2    2  -0.266  -0.257  -0.094
    1UNL     C3    3  -0.145  -0.172  -0.080
    1UNL     C4    4  -0.028  -0.249  -0.003
    1UNL     N1    5   0.093  -0.176   0.011
    1UNL     C5    6   0.206  -0.259   0.058
    1UNL     C6    7   0.339  -0.184   0.039
    1UNL     C7    8   0.320  -0.039   0.082
    1UNL     C8    9   0.199   0.023   0.104
    1UNL     N2   10   0.229   0.154   0.126
    1UNL     C9   11   0.365   0.176   0.132
    1UNL    C10   12   0.439   0.296   0.161
    1UNL    C11   13   0.574   0.291   0.153
    1UNL    C12   14   0.631   0.169   0.100
    1UNL    C13   15   0.566   0.056   0.077
    1UNL    C14   16   0.423   0.060   0.093
    1UNL    C15   17   0.071  -0.051   0.090
    1UNL    C16   18  -0.037   0.030   0.015
    1UNL    C17   19  -0.167  -0.047   0.003
    1UNL    C18   20  -0.277   0.041  -0.054
    1UNL    C19   21  -0.388   0.062   0.014
    1UNL     O1   22  -0.400   0.009   0.146
    1UNL    C20   23  -0.520   0.058   0.197
    1UNL    C21   24  -0.255   0.113  -0.188
    1UNL     O2   25  -0.158   0.075  -0.252
    1UNL     O3   26  -0.351   0.209  -0.235
    1UNL    C22   27  -0.302   0.293  -0.332
    1UNL     H1   28  -0.427  -0.372  -0.019
    1UNL     H2   29  -0.367  -0.228   0.083
    1UNL     H3   30  -0.268  -0.325  -0.172
    1UNL     H4   31  -0.100  -0.138  -0.175
    1UNL     H5   32  -0.061  -0.292   0.094
    1UNL     H6   33   0.006  -0.334  -0.057
    1UNL     H7   34   0.190  -0.285   0.161
    1UNL     H8   35   0.220  -0.354  -0.003
    1UNL     H9   36   0.382  -0.186  -0.065
    1UNL    H10   37   0.417  -0.234   0.097
    1UNL    H11   38   0.160   0.235   0.151
    1UNL    H12   39   0.383   0.376   0.188
    1UNL    H13   40   0.637   0.368   0.179
    1UNL    H14   41   0.733   0.171   0.072
    1UNL    H15   42   0.620  -0.028   0.046
    1UNL    H16   43   0.034  -0.080   0.186
    1UNL    H17   44  -0.059   0.127   0.051
    1UNL    H18   45   0.016   0.047  -0.083
    1UNL    H19   46  -0.184  -0.096   0.107
    1UNL    H20   47  -0.469   0.128  -0.018
    1UNL    H21   48  -0.578  -0.017   0.262
    1UNL    H22   49  -0.492   0.155   0.251
    1UNL    H23   50  -0.587   0.098   0.115
    1UNL    H24   51  -0.225   0.355  -0.269
    1UNL    H25   52  -0.389   0.356  -0.353
    1UNL    H26   53  -0.263   0.254  -0.425
   0.00000   0.00000   0.00000   0.00000   0.00000   0.00000   0.00000   0.00000   0.00000
Generated with MDTraj, t= 21.0
 53
    1UNL     C1    1  -0.363  -0.274  -0.043
    1UNL     C2    2  -0.262  -0.246  -0.122
    1UNL     C3    3  -0.146  -0.167  -0.083
    1UNL     C4    4  -0.047  -0.253  -0.006
    1UNL     N1    5   0.079  -0.180   0.027
    1UNL     C5    6   0.203  -0.256   0.060
    1UNL     C6    7   0.332  -0.177   0.025
    1UNL     C7    8   0.327  -0.040   0.081
    1UNL     C8    9   0.206   0.017   0.114
    1UNL     N2   10   0.227   0.146   0.152
    1UNL     C9   11   0.362   0.175   0.139
    1UNL    C10   12   0.436   0.290   0.160
    1UNL    C11   13   0.572   0.283   0.147
    1UNL    C12   14   0.639   0.167   0.101
    1UNL    C13   15   0.564   0.055   0.070
    1UNL    C14   16   0.424   0.060   0.085
    1UNL    C15   17   0.078  -0.049   0.104
    1UNL    C16   18  -0.026   0.044   0.026
    1UNL    C17   19  -0.157  -0.028   0.001
    1UNL    C18   20  -0.270   0.049  -0.051
    1UNL    C19   21  -0.389   0.054   0.015
    1UNL     O1   22  -0.409  -0.007   0.141
    1UNL    C20   23  -0.490   0.080   0.216
    1UNL    C21   24  -0.249   0.120  -0.175
    1UNL     O2   25  -0.137   0.128  -0.218
    1UNL     O3   26  -0.363   0.171  -0.243
    1UNL    C22   27  -0.333   0.235  -0.371
    1UNL     H1   28  -0.460  -0.312  -0.069
    1UNL     H2   29  -0.347  -0.261   0.061
    1UNL     H3   30  -0.275  -0.277  -0.230
    1UNL     H4   31  -0.103  -0.124  -0.175
    1UNL     H5   32  -0.090  -0.280   0.093
    1UNL     H6   33  -0.034  -0.348  -0.051
    1UNL     H7   34   0.216  -0.289   0.159
    1UNL     H8   35   0.206  -0.344  -0.016
    1UNL     H9   36   0.338  -0.177  -0.087
    1UNL    H10   37   0.425  -0.225   0.060
    1UNL    H11   38   0.162   0.214   0.201
    1UNL    H12   39   0.384   0.389   0.185
    1UNL    H13   40   0.625   0.384   0.164
    1UNL    H14   41   0.744   0.178   0.074
    1UNL    H15   42   0.608  -0.040   0.032
    1UNL    H16   43   0.035  -0.068   0.201
    1UNL    H17   44  -0.035   0.132   0.084
    1UNL    H18   45   0.015   0.077  -0.074
    1UNL    H19   46  -0.184  -0.071   0.105
    1UNL    H20   47  -0.458   0.128  -0.014
    1UNL    H21   48  -0.492   0.049   0.326
    1UNL    H22   49  -0.457   0.188   0.198
    1UNL    H23   50  -0.600   0.073   0.177
    1UNL    H24   51  -0.274   0.327  -0.336
    1UNL    H25   52  -0.426   0.267  -0.413
    1UNL    H26   53  -0.279   0.184  -0.445
   0.00000   0.00000   0.00000   0.00000   0.00000   0.00000   0.00000   0.00000   0.00000
Generated with MDTraj, t= 22.0
 53
    1UNL     C1    1  -0.357  -0.261  -0.057
    1UNL     C2    2  -0.263  -0.218  -0.141
    1UNL     C3    3  -0.131  -0.155  -0.086
    1UNL     C4    4  -0.039  -0.248  -0.006
    1UNL     N1    5   0.089  -0.176   0.012
    1UNL     C5    6   0.212  -0.268   0.045
    1UNL     C6    7   0.345  -0.186   0.028
    1UNL     C7    8   0.324  -0.043   0.067
    1UNL     C8    9   0.208   0.012   0.109
    1UNL     N2   10   0.227   0.135   0.161
    1UNL     C9   11   0.367   0.168   0.152
    1UNL    C10   12   0.437   0.281   0.170
    1UNL    C11   13   0.575   0.291   0.144
    1UNL    C12   14   0.635   0.174   0.096
    1UNL    C13   15   0.564   0.053   0.072
    1UNL    C14   16   0.424   0.055   0.093
    1UNL    C15   17   0.079  -0.057   0.093
    1UNL    C16   18  -0.036   0.042   0.048
    1UNL    C17   19  -0.161  -0.024   0.008
    1UNL    C18   20  -0.269   0.067  -0.040
    1UNL    C19   21  -0.369   0.096   0.047
    1UNL     O1   22  -0.405   0.031   0.159
    1UNL    C20   23  -0.531   0.068   0.205
    1UNL    C21   24  -0.252   0.126  -0.178
    1UNL     O2   25  -0.142   0.134  -0.222
    1UNL     O3   26  -0.370   0.143  -0.243
    1UNL    C22   27  -0.349   0.176  -0.382
    1UNL     H1   28  -0.436  -0.325  -0.098
    1UNL     H2   29  -0.345  -0.262   0.049
    1UNL     H3   30  -0.262  -0.250  -0.238
    1UNL     H4   31  -0.076  -0.113  -0.171
    1UNL     H5   32  -0.075  -0.273   0.095
    1UNL     H6   33  -0.022  -0.340  -0.054
    1UNL     H7   34   0.211  -0.293   0.146
    1UNL     H8   35   0.224  -0.364  -0.018
    1UNL     H9   36   0.367  -0.182  -0.083
    1UNL    H10   37   0.432  -0.235   0.076
    1UNL    H11   38   0.158   0.206   0.182
    1UNL    H12   39   0.381   0.359   0.211
    1UNL    H13   40   0.619   0.381   0.166
    1UNL    H14   41   0.743   0.184   0.077
    1UNL    H15   42   0.613  -0.026   0.025
    1UNL    H16   43   0.052  -0.095   0.191
    1UNL    H17   44  -0.060   0.109   0.127
    1UNL    H18   45   0.007   0.097  -0.040
    1UNL    H19   46  -0.191  -0.079   0.105
    1UNL    H20   47  -0.434   0.180   0.023
    1UNL    H21   48  -0.547   0.006   0.296
    1UNL    H22   49  -0.548   0.180   0.221
    1UNL    H23   50  -0.614   0.032   0.132
    1UNL    H24   51  -0.270   0.255  -0.394
    1UNL    H25   52  -0.437   0.219  -0.425
    1UNL    H26   53  -0.319   0.095  -0.438
   0.00000   0.00000   0.00000   0.00000   0.00000   0.00000   0.00000   0.00000   0.00000
Generated with MDTraj, t= 23.0
 53
    1UNL     C1    1  -0.350  -0.241  -0.037
    1UNL     C2    2  -0.263  -0.207  -0.132
    1UNL     C3    3  -0.134  -0.140  -0.088
    1UNL     C4    4  -0.028  -0.233  -0.042
    1UNL     N1    5   0.101  -0.163  -0.007
    1UNL     C5    6   0.222  -0.256   0.017
    1UNL     C6    7   0.350  -0.183   0.028
    1UNL     C7    8   0.332  -0.040   0.081
    1UNL     C8    9   0.209   0.017   0.110
    1UNL     N2   10   0.234   0.138   0.170
    1UNL     C9   11   0.372   0.166   0.161
    1UNL    C10   12   0.443   0.288   0.177
    1UNL    C11   13   0.579   0.282   0.142
    1UNL    C12   14   0.639   0.162   0.098
    1UNL    C13   15   0.569   0.046   0.077
    1UNL    C14   16   0.432   0.052   0.108
    1UNL    C15   17   0.083  -0.058   0.092
    1UNL    C16   18  -0.041   0.033   0.053
    1UNL    C17   19  -0.163  -0.035   0.020
    1UNL    C18   20  -0.274   0.060  -0.037
    1UNL    C19   21  -0.381   0.101   0.037
    1UNL     O1   22  -0.413   0.064   0.172
    1UNL    C20   23  -0.553   0.062   0.196
    1UNL    C21   24  -0.257   0.108  -0.180
    1UNL     O2   25  -0.154   0.092  -0.240
    1UNL     O3   26  -0.376   0.141  -0.240
    1UNL    C22   27  -0.354   0.164  -0.373
    1UNL     H1   28  -0.441  -0.284  -0.070
    1UNL     H2   29  -0.326  -0.257   0.067
    1UNL     H3   30  -0.272  -0.217  -0.244
    1UNL     H4   31  -0.095  -0.079  -0.169
    1UNL     H5   32  -0.063  -0.287   0.048
    1UNL     H6   33  -0.002  -0.310  -0.108
    1UNL     H7   34   0.212  -0.305   0.108
    1UNL     H8   35   0.231  -0.339  -0.063
    1UNL     H9   36   0.409  -0.184  -0.069
    1UNL    H10   37   0.420  -0.229   0.101
    1UNL    H11   38   0.164   0.204   0.189
    1UNL    H12   39   0.397   0.372   0.229
    1UNL    H13   40   0.635   0.369   0.185
    1UNL    H14   41   0.741   0.165   0.075
    1UNL    H15   42   0.613  -0.039   0.025
    1UNL    H16   43   0.063  -0.116   0.183
    1UNL    H17   44  -0.060   0.093   0.140
    1UNL    H18   45  -0.013   0.092  -0.038
    1UNL    H19   46  -0.204  -0.083   0.117
    1UNL    H20   47  -0.466   0.170   0.008
    1UNL    H21   48  -0.575   0.004   0.283
    1UNL    H22   49  -0.601   0.163   0.203
    1UNL    H23   50  -0.603   0.003   0.116
    1UNL    H24   51  -0.290   0.251  -0.402
    1UNL    H25   52  -0.451   0.181  -0.417
    1UNL    H26   53  -0.307   0.079  -0.408
   0.00000   0.00000   0.00000   0.00000   0.00000   0.00000   0.00000   0.00000   0.00000
Generated with MDTraj, t= 24.0
 53
    1UNL     C1    1  -0.359  -0.272  -0.029
    1UNL     C2    2  -0.266  -0.235  -0.109
    1UNL     C3    3  -0.147  -0.157  -0.076
    1UNL     C4    4  -0.042  -0.244  -0.003
    1UNL     N1    5   0.088  -0.170   0.007
    1UNL     C5    6   0.218  -0.249   0.018
    1UNL     C6    7   0.342  -0.171   0.003
    1UNL     C7    8   0.337  -0.037   0.073
    1UNL     C8    9   0.213   0.016   0.115
    1UNL     N2   10   0.235   0.142   0.156
    1UNL     C9   11   0.374   0.164   0.154
    1UNL    C10   12   0.445   0.283   0.178
    1UNL    C11   13   0.579   0.280   0.171
    1UNL    C12   14   0.654   0.162   0.128
    1UNL    C13   15   0.582   0.058   0.091
    1UNL    C14   16   0.441   0.055   0.103
    1UNL    C15   17   0.077  -0.048   0.088
    1UNL    C16   18  -0.029   0.048   0.016
    1UNL    C17   19  -0.161  -0.025   0.007
    1UNL    C18   20  -0.269   0.057  -0.049
    1UNL    C19   21  -0.390   0.077   0.014
    1UNL     O1   22  -0.410   0.031   0.147
    1UNL    C20   23  -0.523   0.084   0.217
    1UNL    C21   24  -0.255   0.110  -0.190
    1UNL     O2   25  -0.159   0.093  -0.261
    1UNL     O3   26  -0.376   0.165  -0.230
    1UNL    C22   27  -0.374   0.194  -0.369
    1UNL     H1   28  -0.450  -0.320  -0.062
    1UNL     H2   29  -0.344  -0.248   0.075
    1UNL     H3   30  -0.271  -0.252  -0.212
    1UNL     H4   31  -0.106  -0.126  -0.171
    1UNL     H5   32  -0.066  -0.284   0.096
    1UNL     H6   33  -0.024  -0.327  -0.065
    1UNL     H7   34   0.222  -0.307   0.106
    1UNL     H8   35   0.217  -0.326  -0.067
    1UNL     H9   36   0.380  -0.156  -0.103
    1UNL    H10   37   0.429  -0.227   0.047
    1UNL    H11   38   0.174   0.198   0.205
    1UNL    H12   39   0.381   0.363   0.218
    1UNL    H13   40   0.641   0.362   0.197
    1UNL    H14   41   0.766   0.173   0.116
    1UNL    H15   42   0.631  -0.022   0.037
    1UNL    H16   43   0.036  -0.092   0.182
    1UNL    H17   44  -0.029   0.138   0.076
    1UNL    H18   45   0.007   0.065  -0.087
    1UNL    H19   46  -0.196  -0.052   0.114
    1UNL    H20   47  -0.464   0.141  -0.031
    1UNL    H21   48  -0.523   0.050   0.316
    1UNL    H22   49  -0.529   0.190   0.209
    1UNL    H23   50  -0.612   0.038   0.181
    1UNL    H24   51  -0.304   0.272  -0.416
    1UNL    H25   52  -0.473   0.227  -0.399
    1UNL    H26   53  -0.346   0.105  -0.414
   0.00000   0.00000   0.00000   0.00000   0.00000   0.00000   0.00000   0.00000   0.00000
Generated with MDTraj, t= 25.0
 53
    1UNL     C1    1  -0.349  -0.287   0.018
    1UNL     C2    2  -0.269  -0.262  -0.080
    1UNL     C3    3  -0.151  -0.173  -0.079
    1UNL     C4    4  -0.027  -0.256  -0.009
    1UNL     N1    5   0.090  -0.167   0.015
    1UNL     C5    6   0.214  -0.248   0.054
    1UNL     C6    7   0.335  -0.173   0.003
    1UNL     C7    8   0.324  -0.025   0.047
    1UNL     C8    9   0.207   0.032   0.085
    1UNL     N2   10   0.230   0.161   0.136
    1UNL     C9   11   0.367   0.178   0.136
    1UNL    C10   12   0.444   0.272   0.210
    1UNL    C11   13   0.576   0.257   0.218
    1UNL    C12   14   0.637   0.152   0.144
    1UNL    C13   15   0.568   0.058   0.078
    1UNL    C14   16   0.428   0.068   0.073
    1UNL    C15   17   0.072  -0.029   0.070
    1UNL    C16   18  -0.031   0.046  -0.018
    1UNL    C17   19  -0.164  -0.033  -0.012
    1UNL    C18   20  -0.275   0.040  -0.065
    1UNL    C19   21  -0.382   0.072   0.017
    1UNL     O1   22  -0.389   0.036   0.144
    1UNL    C20   23  -0.494   0.078   0.233
    1UNL    C21   24  -0.262   0.103  -0.203
    1UNL     O2   25  -0.166   0.078  -0.271
    1UNL     O3   26  -0.373   0.176  -0.237
    1UNL    C22   27  -0.346   0.245  -0.352
    1UNL     H1   28  -0.425  -0.362   0.007
    1UNL     H2   29  -0.365  -0.221   0.099
    1UNL     H3   30  -0.281  -0.332  -0.165
    1UNL     H4   31  -0.128  -0.155  -0.182
    1UNL     H5   32  -0.068  -0.304   0.082
    1UNL     H6   33   0.016  -0.336  -0.063
    1UNL     H7   34   0.215  -0.253   0.161
    1UNL     H8   35   0.206  -0.352   0.013
    1UNL     H9   36   0.333  -0.169  -0.109
    1UNL    H10   37   0.441  -0.207   0.023
    1UNL    H11   38   0.159   0.223   0.161
    1UNL    H12   39   0.385   0.337   0.265
    1UNL    H13   40   0.631   0.331   0.276
    1UNL    H14   41   0.742   0.156   0.142
    1UNL    H15   42   0.609  -0.025   0.023
    1UNL    H16   43   0.022  -0.034   0.170
    1UNL    H17   44  -0.047   0.145   0.026
    1UNL    H18   45   0.015   0.050  -0.117
    1UNL    H19   46  -0.190  -0.064   0.097
    1UNL    H20   47  -0.457   0.132  -0.026
    1UNL    H21   48  -0.510   0.007   0.307
    1UNL    H22   49  -0.471   0.175   0.266
    1UNL    H23   50  -0.584   0.076   0.183
    1UNL    H24   51  -0.245   0.297  -0.371
    1UNL    H25   52  -0.430   0.321  -0.357
    1UNL    H26   53  -0.362   0.183  -0.436
   0.00000   0.00000   0.00000   0.00000   0.00000   0.00000   0.00000   0.00000   0.00000
Generated with MDTraj, t= 26.0
 53
    1UNL     C1    1  -0.355  -0.279   0.046
    1UNL     C2    2  -0.277  -0.267  -0.060
    1UNL     C3    3  -0.148  -0.179  -0.072
    1UNL     C4    4  -0.023  -0.258  -0.005
    1UNL     N1    5   0.103  -0.173  -0.010
    1UNL     C5    6   0.223  -0.252   0.022
    1UNL     C6    7   0.348  -0.167  -0.013
    1UNL     C7    8   0.331  -0.033   0.047
    1UNL     C8    9   0.213   0.038   0.061
    1UNL     N2   10   0.226   0.156   0.122
    1UNL     C9   11   0.360   0.179   0.143
    1UNL    C10   12   0.432   0.280   0.209
    1UNL    C11   13   0.568   0.272   0.217
    1UNL    C12   14   0.632   0.161   0.163
    1UNL    C13   15   0.566   0.050   0.102
    1UNL    C14   16   0.428   0.065   0.089
    1UNL    C15   17   0.084  -0.039   0.055
    1UNL    C16   18  -0.027   0.037  -0.021
    1UNL    C17   19  -0.163  -0.034  -0.009
    1UNL    C18   20  -0.286   0.036  -0.067
    1UNL    C19   21  -0.388   0.073   0.016
    1UNL     O1   22  -0.392   0.033   0.151
    1UNL    C20   23  -0.501   0.081   0.224
    1UNL    C21   24  -0.272   0.098  -0.203
    1UNL     O2   25  -0.195   0.048  -0.283
    1UNL     O3   26  -0.354   0.207  -0.226
    1UNL    C22   27  -0.323   0.261  -0.349
    1UNL     H1   28  -0.457  -0.315   0.036
    1UNL     H2   29  -0.338  -0.238   0.144
    1UNL     H3   30  -0.329  -0.289  -0.152
    1UNL     H4   31  -0.133  -0.150  -0.175
    1UNL     H5   32  -0.033  -0.292   0.100
    1UNL     H6   33  -0.021  -0.350  -0.059
    1UNL     H7   34   0.221  -0.275   0.130
    1UNL     H8   35   0.218  -0.343  -0.039
    1UNL     H9   36   0.364  -0.149  -0.122
    1UNL    H10   37   0.442  -0.222   0.020
    1UNL    H11   38   0.152   0.218   0.156
    1UNL    H12   39   0.384   0.371   0.256
    1UNL    H13   40   0.621   0.345   0.277
    1UNL    H14   41   0.739   0.156   0.164
    1UNL    H15   42   0.619  -0.039   0.076
    1UNL    H16   43   0.046  -0.052   0.161
    1UNL    H17   44  -0.031   0.142   0.014
    1UNL    H18   45   0.001   0.035  -0.125
    1UNL    H19   46  -0.185  -0.044   0.104
    1UNL    H20   47  -0.474   0.137  -0.005
    1UNL    H21   48  -0.482   0.065   0.327
    1UNL    H22   49  -0.517   0.183   0.201
    1UNL    H23   50  -0.580   0.017   0.209
    1UNL    H24   51  -0.226   0.322  -0.349
    1UNL    H25   52  -0.411   0.324  -0.383
    1UNL    H26   53  -0.308   0.187  -0.425
   0.00000   0.00000   0.00000   0.00000   0.00000   0.00000   0.00000   0.00000   0.00000
Generated with MDTraj, t= 27.0
 53
    1UNL     C1    1  -0.340  -0.274   0.065
    1UNL     C2    2  -0.281  -0.251  -0.054
    1UNL     C3    3  -0.151  -0.179  -0.068
    1UNL     C4    4  -0.019  -0.261  -0.033
    1UNL     N1    5   0.104  -0.173  -0.044
    1UNL     C5    6   0.228  -0.250  -0.013
    1UNL     C6    7   0.358  -0.165  -0.011
    1UNL     C7    8   0.331  -0.035   0.050
    1UNL     C8    9   0.208   0.020   0.073
    1UNL     N2   10   0.223   0.147   0.127
    1UNL     C9   11   0.354   0.167   0.146
    1UNL    C10   12   0.421   0.282   0.186
    1UNL    C11   13   0.564   0.281   0.198
    1UNL    C12   14   0.633   0.171   0.170
    1UNL    C13   15   0.567   0.057   0.122
    1UNL    C14   16   0.429   0.058   0.099
    1UNL    C15   17   0.081  -0.055   0.058
    1UNL    C16   18  -0.030   0.032   0.004
    1UNL    C17   19  -0.159  -0.040   0.003
    1UNL    C18   20  -0.272   0.049  -0.054
    1UNL    C19   21  -0.376   0.090   0.025
    1UNL     O1   22  -0.400   0.042   0.156
    1UNL    C20   23  -0.528   0.084   0.200
    1UNL    C21   24  -0.267   0.102  -0.193
    1UNL     O2   25  -0.197   0.045  -0.274
    1UNL     O3   26  -0.345   0.210  -0.219
    1UNL    C22   27  -0.329   0.243  -0.361
    1UNL     H1   28  -0.437  -0.316   0.080
    1UNL     H2   29  -0.298  -0.258   0.163
    1UNL     H3   30  -0.338  -0.254  -0.147
    1UNL     H4   31  -0.144  -0.146  -0.170
    1UNL     H5   32  -0.029  -0.304   0.069
    1UNL     H6   33  -0.006  -0.344  -0.098
    1UNL     H7   34   0.209  -0.292   0.090
    1UNL     H8   35   0.236  -0.325  -0.090
    1UNL     H9   36   0.403  -0.160  -0.113
    1UNL    H10   37   0.442  -0.208   0.056
    1UNL    H11   38   0.148   0.201   0.178
    1UNL    H12   39   0.376   0.375   0.201
    1UNL    H13   40   0.615   0.369   0.231
    1UNL    H14   41   0.744   0.159   0.181
    1UNL    H15   42   0.628  -0.030   0.093
    1UNL    H16   43   0.048  -0.097   0.158
    1UNL    H17   44  -0.038   0.126   0.064
    1UNL    H18   45  -0.007   0.063  -0.095
    1UNL    H19   46  -0.166  -0.063   0.118
    1UNL    H20   47  -0.440   0.177  -0.003
    1UNL    H21   48  -0.561   0.024   0.286
    1UNL    H22   49  -0.525   0.191   0.214
    1UNL    H23   50  -0.598   0.053   0.126
    1UNL    H24   51  -0.221   0.220  -0.383
    1UNL    H25   52  -0.338   0.354  -0.381
    1UNL    H26   53  -0.384   0.185  -0.431
   0.00000   0.00000   0.00000   0.00000   0.00000   0.00000   0.00000   0.00000   0.00000
Generated with MDTraj, t= 28.0
 53
    1UNL     C1    1  -0.311  -0.307   0.050
    1UNL     C2    2  -0.277  -0.259  -0.069
    1UNL     C3    3  -0.154  -0.174  -0.082
    1UNL     C4    4  -0.027  -0.251  -0.039
    1UNL     N1    5   0.089  -0.166  -0.034
    1UNL     C5    6   0.214  -0.249  -0.001
    1UNL     C6    7   0.349  -0.174   0.012
    1UNL     C7    8   0.329  -0.034   0.057
    1UNL     C8    9   0.207   0.020   0.090
    1UNL     N2   10   0.223   0.140   0.159
    1UNL     C9   11   0.362   0.167   0.153
    1UNL    C10   12   0.428   0.282   0.197
    1UNL    C11   13   0.562   0.277   0.188
    1UNL    C12   14   0.638   0.169   0.136
    1UNL    C13   15   0.572   0.062   0.086
    1UNL    C14   16   0.432   0.058   0.093
    1UNL    C15   17   0.073  -0.049   0.056
    1UNL    C16   18  -0.039   0.035   0.017
    1UNL    C17   19  -0.171  -0.041   0.007
    1UNL    C18   20  -0.272   0.050  -0.054
    1UNL    C19   21  -0.375   0.090   0.027
    1UNL     O1   22  -0.400   0.051   0.155
    1UNL    C20   23  -0.530   0.094   0.194
    1UNL    C21   24  -0.257   0.114  -0.187
    1UNL     O2   25  -0.170   0.076  -0.259
    1UNL     O3   26  -0.352   0.200  -0.229
    1UNL    C22   27  -0.329   0.220  -0.367
    1UNL     H1   28  -0.404  -0.358   0.071
    1UNL     H2   29  -0.247  -0.300   0.137
    1UNL     H3   30  -0.341  -0.282  -0.154
    1UNL     H4   31  -0.152  -0.148  -0.186
    1UNL     H5   32  -0.040  -0.289   0.064
    1UNL     H6   33  -0.009  -0.336  -0.101
    1UNL     H7   34   0.192  -0.293   0.101
    1UNL     H8   35   0.221  -0.323  -0.076
    1UNL     H9   36   0.409  -0.170  -0.082
    1UNL    H10   37   0.416  -0.239   0.080
    1UNL    H11   38   0.147   0.218   0.164
    1UNL    H12   39   0.380   0.370   0.241
    1UNL    H13   40   0.628   0.360   0.221
    1UNL    H14   41   0.741   0.172   0.129
    1UNL    H15   42   0.622  -0.020   0.039
    1UNL    H16   43   0.034  -0.090   0.155
    1UNL    H17   44  -0.056   0.131   0.074
    1UNL    H18   45  -0.021   0.070  -0.081
    1UNL    H19   46  -0.199  -0.088   0.110
    1UNL    H20   47  -0.443   0.164  -0.012
    1UNL    H21   48  -0.578   0.012   0.258
    1UNL    H22   49  -0.525   0.195   0.239
    1UNL    H23   50  -0.599   0.093   0.106
    1UNL    H24   51  -0.236   0.279  -0.375
    1UNL    H25   52  -0.402   0.299  -0.397
    1UNL    H26   53  -0.316   0.131  -0.425
   0.00000   0.00000   0.00000   0.00000   0.00000   0.00000   0.00000   0.00000   0.00000
Generated with MDTraj, t= 29.0
 53
    1UNL     C1    1  -0.331  -0.322  -0.001
    1UNL     C2    2  -0.282  -0.234  -0.087
    1UNL     C3    3  -0.151  -0.162  -0.077
    1UNL     C4    4  -0.043  -0.243  -0.008
    1UNL     N1    5   0.084  -0.179   0.015
    1UNL     C5    6   0.215  -0.257   0.013
    1UNL     C6    7   0.330  -0.165  -0.018
    1UNL     C7    8   0.332  -0.039   0.061
    1UNL     C8    9   0.211   0.011   0.112
    1UNL     N2   10   0.232   0.137   0.170
    1UNL     C9   11   0.365   0.167   0.158
    1UNL    C10   12   0.441   0.282   0.196
    1UNL    C11   13   0.573   0.282   0.179
    1UNL    C12   14   0.635   0.173   0.113
    1UNL    C13   15   0.571   0.070   0.061
    1UNL    C14   16   0.433   0.058   0.095
    1UNL    C15   17   0.073  -0.048   0.095
    1UNL    C16   18  -0.031   0.044   0.025
    1UNL    C17   19  -0.164  -0.032  -0.003
    1UNL    C18   20  -0.277   0.044  -0.056
    1UNL    C19   21  -0.387   0.074   0.015
    1UNL     O1   22  -0.412   0.029   0.142
    1UNL    C20   23  -0.511   0.108   0.198
    1UNL    C21   24  -0.252   0.106  -0.188
    1UNL     O2   25  -0.139   0.115  -0.240
    1UNL     O3   26  -0.370   0.151  -0.248
    1UNL    C22   27  -0.330   0.223  -0.359
    1UNL     H1   28  -0.418  -0.376  -0.033
    1UNL     H2   29  -0.280  -0.348   0.087
    1UNL     H3   30  -0.335  -0.232  -0.179
    1UNL     H4   31  -0.126  -0.142  -0.181
    1UNL     H5   32  -0.083  -0.273   0.090
    1UNL     H6   33  -0.027  -0.331  -0.066
    1UNL     H7   34   0.228  -0.293   0.120
    1UNL     H8   35   0.207  -0.335  -0.055
    1UNL     H9   36   0.314  -0.144  -0.126
    1UNL    H10   37   0.436  -0.210  -0.017
    1UNL    H11   38   0.143   0.185   0.214
    1UNL    H12   39   0.380   0.355   0.247
    1UNL    H13   40   0.632   0.358   0.214
    1UNL    H14   41   0.743   0.183   0.093
    1UNL    H15   42   0.617  -0.006   0.003
    1UNL    H16   43   0.024  -0.076   0.192
    1UNL    H17   44  -0.048   0.145   0.072
    1UNL    H18   45   0.005   0.077  -0.070
    1UNL    H19   46  -0.208  -0.061   0.102
    1UNL    H20   47  -0.457   0.148  -0.016
    1UNL    H21   48  -0.472   0.129   0.305
    1UNL    H22   49  -0.526   0.206   0.143
    1UNL    H23   50  -0.609   0.049   0.214
    1UNL    H24   51  -0.279   0.315  -0.330
    1UNL    H25   52  -0.423   0.260  -0.406
    1UNL    H26   53  -0.268   0.168  -0.425
   0.00000   0.00000   0.00000   0.00000   0.00000   0.00000   0.00000   0.00000   0.00000
Generated with MDTraj, t= 30.0
 53
    1UNL     C1    1  -0.355  -0.299  -0.046
    1UNL     C2    2  -0.255  -0.258  -0.127
    1UNL     C3    3  -0.141  -0.168  -0.073
    1UNL     C4    4  -0.041  -0.251   0.013
    1UNL     N1    5   0.089  -0.181   0.040
    1UNL     C5    6   0.221  -0.251   0.034
    1UNL     C6    7   0.328  -0.157  -0.019
    1UNL     C7    8   0.319  -0.034   0.061
    1UNL     C8    9   0.204   0.019   0.113
    1UNL     N2   10   0.232   0.139   0.169
    1UNL     C9   11   0.368   0.168   0.156
    1UNL    C10   12   0.447   0.272   0.207
    1UNL    C11   13   0.575   0.266   0.174
    1UNL    C12   14   0.632   0.175   0.082
    1UNL    C13   15   0.553   0.075   0.034
    1UNL    C14   16   0.423   0.063   0.082
    1UNL    C15   17   0.071  -0.046   0.108
    1UNL    C16   18  -0.033   0.041   0.039
    1UNL    C17   19  -0.166  -0.035   0.009
    1UNL    C18   20  -0.271   0.062  -0.041
    1UNL    C19   21  -0.384   0.092   0.024
    1UNL     O1   22  -0.406   0.034   0.144
    1UNL    C20   23  -0.527   0.086   0.204
    1UNL    C21   24  -0.253   0.118  -0.178
    1UNL     O2   25  -0.139   0.114  -0.225
    1UNL     O3   26  -0.365   0.159  -0.250
    1UNL    C22   27  -0.321   0.203  -0.376
    1UNL     H1   28  -0.431  -0.372  -0.071
    1UNL     H2   29  -0.346  -0.273   0.059
    1UNL     H3   30  -0.247  -0.293  -0.232
    1UNL     H4   31  -0.082  -0.136  -0.160
    1UNL     H5   32  -0.081  -0.270   0.113
    1UNL     H6   33  -0.018  -0.342  -0.040
    1UNL     H7   34   0.245  -0.287   0.141
    1UNL     H8   35   0.208  -0.332  -0.028
    1UNL     H9   36   0.319  -0.129  -0.127
    1UNL    H10   37   0.424  -0.221  -0.014
    1UNL    H11   38   0.165   0.196   0.233
    1UNL    H12   39   0.407   0.338   0.281
    1UNL    H13   40   0.643   0.345   0.225
    1UNL    H14   41   0.738   0.183   0.063
    1UNL    H15   42   0.582  -0.001  -0.044
    1UNL    H16   43   0.042  -0.082   0.209
    1UNL    H17   44  -0.045   0.142   0.088
    1UNL    H18   45   0.013   0.080  -0.051
    1UNL    H19   46  -0.201  -0.056   0.118
    1UNL    H20   47  -0.450   0.164  -0.026
    1UNL    H21   48  -0.535   0.060   0.315
    1UNL    H22   49  -0.517   0.201   0.199
    1UNL    H23   50  -0.630   0.058   0.158
    1UNL    H24   51  -0.278   0.302  -0.377
    1UNL    H25   52  -0.416   0.209  -0.433
    1UNL    H26   53  -0.266   0.127  -0.427
   0.00000   0.00000   0.00000   0.00000   0.00000   0.00000   0.00000   0.00000   0.00000
Generated with MDTraj, t= 31.0
 53
    1UNL     C1    1  -0.379  -0.238  -0.058
    1UNL     C2    2  -0.265  -0.214  -0.129
    1UNL     C3    3  -0.136  -0.154  -0.067
    1UNL     C4    4  -0.031  -0.251  -0.006
    1UNL     N1    5   0.094  -0.181   0.038
    1UNL     C5    6   0.226  -0.251   0.041
    1UNL     C6    7   0.335  -0.150  -0.016
    1UNL     C7    8   0.313  -0.023   0.054
    1UNL     C8    9   0.201   0.015   0.121
    1UNL     N2   10   0.233   0.136   0.181
    1UNL     C9   11   0.367   0.168   0.158
    1UNL    C10   12   0.446   0.270   0.200
    1UNL    C11   13   0.578   0.277   0.153
    1UNL    C12   14   0.633   0.177   0.072
    1UNL    C13   15   0.556   0.066   0.036
    1UNL    C14   16   0.422   0.065   0.077
    1UNL    C15   17   0.075  -0.059   0.123
    1UNL    C16   18  -0.029   0.035   0.062
    1UNL    C17   19  -0.162  -0.036   0.032
    1UNL    C18   20  -0.266   0.056  -0.040
    1UNL    C19   21  -0.389   0.074   0.015
    1UNL     O1   22  -0.408   0.045   0.142
    1UNL    C20   23  -0.543   0.056   0.188
    1UNL    C21   24  -0.248   0.096  -0.179
    1UNL     O2   25  -0.146   0.060  -0.232
    1UNL     O3   26  -0.351   0.169  -0.235
    1UNL    C22   27  -0.314   0.199  -0.369
    1UNL     H1   28  -0.467  -0.262  -0.110
    1UNL     H2   29  -0.377  -0.237   0.049
    1UNL     H3   30  -0.266  -0.215  -0.234
    1UNL     H4   31  -0.078  -0.115  -0.153
    1UNL     H5   32  -0.078  -0.291   0.084
    1UNL     H6   33  -0.001  -0.326  -0.079
    1UNL     H7   34   0.243  -0.272   0.152
    1UNL     H8   35   0.211  -0.343  -0.006
    1UNL     H9   36   0.317  -0.146  -0.125
    1UNL    H10   37   0.446  -0.176  -0.007
    1UNL    H11   38   0.166   0.213   0.215
    1UNL    H12   39   0.395   0.347   0.257
    1UNL    H13   40   0.636   0.358   0.178
    1UNL    H14   41   0.731   0.184   0.032
    1UNL    H15   42   0.602  -0.005  -0.023
    1UNL    H16   43   0.054  -0.087   0.227
    1UNL    H17   44  -0.044   0.122   0.131
    1UNL    H18   45   0.007   0.092  -0.024
    1UNL    H19   46  -0.209  -0.085   0.126
    1UNL    H20   47  -0.468   0.125  -0.046
    1UNL    H21   48  -0.593  -0.038   0.215
    1UNL    H22   49  -0.537   0.127   0.276
    1UNL    H23   50  -0.616   0.108   0.118
    1UNL    H24   51  -0.216   0.244  -0.377
    1UNL    H25   52  -0.390   0.266  -0.419
    1UNL    H26   53  -0.333   0.108  -0.425
   0.00000   0.00000   0.00000   0.00000   0.00000   0.00000   0.00000   0.00000   0.00000
Generated with MDTraj, t= 32.0
 53
    1UNL     C1    1  -0.384  -0.239  -0.063
    1UNL     C2    2  -0.255  -0.250  -0.096
    1UNL     C3    3  -0.140  -0.162  -0.054
    1UNL     C4    4  -0.036  -0.252   0.021
    1UNL     N1    5   0.092  -0.176   0.036
    1UNL     C5    6   0.220  -0.255   0.011
    1UNL     C6    7   0.343  -0.167  -0.005
    1UNL     C7    8   0.329  -0.033   0.059
    1UNL     C8    9   0.211   0.009   0.120
    1UNL     N2   10   0.235   0.128   0.182
    1UNL     C9   11   0.370   0.161   0.161
    1UNL    C10   12   0.439   0.283   0.197
    1UNL    C11   13   0.564   0.296   0.134
    1UNL    C12   14   0.627   0.186   0.073
    1UNL    C13   15   0.566   0.063   0.049
    1UNL    C14   16   0.429   0.063   0.083
    1UNL    C15   17   0.079  -0.052   0.113
    1UNL    C16   18  -0.032   0.038   0.041
    1UNL    C17   19  -0.171  -0.034   0.026
    1UNL    C18   20  -0.269   0.061  -0.046
    1UNL    C19   21  -0.384   0.085   0.018
    1UNL     O1   22  -0.417   0.031   0.142
    1UNL    C20   23  -0.548   0.053   0.170
    1UNL    C21   24  -0.248   0.107  -0.178
    1UNL     O2   25  -0.154   0.062  -0.239
    1UNL     O3   26  -0.338   0.196  -0.222
    1UNL    C22   27  -0.311   0.213  -0.363
    1UNL     H1   28  -0.456  -0.307  -0.109
    1UNL     H2   29  -0.419  -0.151  -0.010
    1UNL     H3   30  -0.231  -0.342  -0.156
    1UNL     H4   31  -0.103  -0.128  -0.155
    1UNL     H5   32  -0.079  -0.279   0.118
    1UNL     H6   33  -0.021  -0.335  -0.049
    1UNL     H7   34   0.230  -0.333   0.092
    1UNL     H8   35   0.206  -0.312  -0.077
    1UNL     H9   36   0.367  -0.150  -0.113
    1UNL    H10   37   0.432  -0.232   0.024
    1UNL    H11   38   0.177   0.187   0.245
    1UNL    H12   39   0.390   0.368   0.238
    1UNL    H13   40   0.608   0.396   0.131
    1UNL    H14   41   0.735   0.197   0.045
    1UNL    H15   42   0.622  -0.027   0.012
    1UNL    H16   43   0.050  -0.077   0.214
    1UNL    H17   44  -0.045   0.141   0.077
    1UNL    H18   45   0.003   0.063  -0.061
    1UNL    H19   46  -0.228  -0.066   0.121
    1UNL    H20   47  -0.464   0.142  -0.022
    1UNL    H21   48  -0.605   0.010   0.092
    1UNL    H22   49  -0.568   0.012   0.271
    1UNL    H23   50  -0.566   0.160   0.176
    1UNL    H24   51  -0.207   0.243  -0.376
    1UNL    H25   52  -0.383   0.286  -0.415
    1UNL    H26   53  -0.342   0.120  -0.411
   0.00000   0.00000   0.00000   0.00000   0.00000   0.00000   0.00000   0.00000   0.00000
Generated with MDTraj, t= 33.0
 53
    1UNL     C1    1  -0.389  -0.249  -0.010
    1UNL     C2    2  -0.272  -0.273  -0.071
    1UNL     C3    3  -0.151  -0.183  -0.064
    1UNL     C4    4  -0.032  -0.268  -0.011
    1UNL     N1    5   0.090  -0.187   0.015
    1UNL     C5    6   0.223  -0.260   0.041
    1UNL     C6    7   0.340  -0.177   0.002
    1UNL     C7    8   0.329  -0.031   0.053
    1UNL     C8    9   0.207   0.016   0.104
    1UNL     N2   10   0.228   0.139   0.164
    1UNL     C9   11   0.357   0.176   0.141
    1UNL    C10   12   0.431   0.285   0.175
    1UNL    C11   13   0.563   0.299   0.152
    1UNL    C12   14   0.634   0.196   0.082
    1UNL    C13   15   0.565   0.077   0.063
    1UNL    C14   16   0.424   0.066   0.085
    1UNL    C15   17   0.071  -0.061   0.093
    1UNL    C16   18  -0.037   0.027   0.026
    1UNL    C17   19  -0.174  -0.055   0.016
    1UNL    C18   20  -0.267   0.044  -0.052
    1UNL    C19   21  -0.370   0.088   0.020
    1UNL     O1   22  -0.422   0.022   0.135
    1UNL    C20   23  -0.543   0.079   0.167
    1UNL    C21   24  -0.242   0.108  -0.181
    1UNL     O2   25  -0.135   0.086  -0.233
    1UNL     O3   26  -0.340   0.186  -0.225
    1UNL    C22   27  -0.288   0.251  -0.337
    1UNL     H1   28  -0.466  -0.323  -0.008
    1UNL     H2   29  -0.402  -0.154   0.032
    1UNL     H3   30  -0.265  -0.363  -0.122
    1UNL     H4   31  -0.127  -0.151  -0.169
    1UNL     H5   32  -0.072  -0.307   0.083
    1UNL     H6   33  -0.008  -0.342  -0.091
    1UNL     H7   34   0.230  -0.284   0.148
    1UNL     H8   35   0.223  -0.353  -0.013
    1UNL     H9   36   0.349  -0.191  -0.109
    1UNL    H10   37   0.437  -0.217   0.041
    1UNL    H11   38   0.169   0.184   0.234
    1UNL    H12   39   0.373   0.361   0.229
    1UNL    H13   40   0.620   0.395   0.182
    1UNL    H14   41   0.737   0.203   0.073
    1UNL    H15   42   0.625  -0.006   0.033
    1UNL    H16   43   0.044  -0.092   0.193
    1UNL    H17   44  -0.045   0.121   0.079
    1UNL    H18   45  -0.003   0.065  -0.072
    1UNL    H19   46  -0.193  -0.079   0.126
    1UNL    H20   47  -0.419   0.164  -0.035
    1UNL    H21   48  -0.569   0.130   0.081
    1UNL    H22   49  -0.611   0.007   0.202
    1UNL    H23   50  -0.524   0.144   0.248
    1UNL    H24   51  -0.201   0.308  -0.303
    1UNL    H25   52  -0.370   0.324  -0.372
    1UNL    H26   53  -0.266   0.181  -0.420
   0.00000   0.00000   0.00000   0.00000   0.00000   0.00000   0.00000   0.00000   0.00000
Generated with MDTraj, t= 34.0
 53
    1UNL     C1    1  -0.337  -0.306   0.032
    1UNL     C2    2  -0.271  -0.262  -0.078
    1UNL     C3    3  -0.145  -0.183  -0.070
    1UNL     C4    4  -0.037  -0.268  -0.004
    1UNL     N1    5   0.085  -0.185  -0.004
    1UNL     C5    6   0.216  -0.267   0.021
    1UNL     C6    7   0.343  -0.183   0.014
    1UNL     C7    8   0.320  -0.040   0.068
    1UNL     C8    9   0.200   0.018   0.090
    1UNL     N2   10   0.213   0.153   0.121
    1UNL     C9   11   0.348   0.182   0.119
    1UNL    C10   12   0.415   0.296   0.166
    1UNL    C11   13   0.551   0.298   0.159
    1UNL    C12   14   0.624   0.181   0.116
    1UNL    C13   15   0.557   0.072   0.068
    1UNL    C14   16   0.416   0.064   0.083
    1UNL    C15   17   0.075  -0.066   0.080
    1UNL    C16   18  -0.035   0.027   0.032
    1UNL    C17   19  -0.172  -0.054   0.011
    1UNL    C18   20  -0.273   0.039  -0.052
    1UNL    C19   21  -0.387   0.077   0.015
    1UNL     O1   22  -0.421   0.027   0.136
    1UNL    C20   23  -0.531   0.101   0.186
    1UNL    C21   24  -0.243   0.108  -0.178
    1UNL     O2   25  -0.133   0.084  -0.226
    1UNL     O3   26  -0.330   0.213  -0.222
    1UNL    C22   27  -0.258   0.261  -0.337
    1UNL     H1   28  -0.438  -0.349   0.024
    1UNL     H2   29  -0.293  -0.299   0.130
    1UNL     H3   30  -0.329  -0.264  -0.174
    1UNL     H4   31  -0.107  -0.159  -0.173
    1UNL     H5   32  -0.067  -0.286   0.099
    1UNL     H6   33  -0.020  -0.357  -0.070
    1UNL     H7   34   0.215  -0.311   0.118
    1UNL     H8   35   0.221  -0.347  -0.054
    1UNL     H9   36   0.392  -0.177  -0.088
    1UNL    H10   37   0.414  -0.239   0.078
    1UNL    H11   38   0.137   0.214   0.126
    1UNL    H12   39   0.360   0.378   0.203
    1UNL    H13   40   0.594   0.380   0.197
    1UNL    H14   41   0.736   0.190   0.128
    1UNL    H15   42   0.604  -0.020   0.042
    1UNL    H16   43   0.049  -0.103   0.178
    1UNL    H17   44  -0.053   0.107   0.100
    1UNL    H18   45  -0.010   0.085  -0.060
    1UNL    H19   46  -0.219  -0.081   0.111
    1UNL    H20   47  -0.449   0.164  -0.021
    1UNL    H21   48  -0.615   0.053   0.147
    1UNL    H22   49  -0.522   0.104   0.291
    1UNL    H23   50  -0.526   0.201   0.157
    1UNL    H24   51  -0.196   0.341  -0.298
    1UNL    H25   52  -0.337   0.309  -0.401
    1UNL    H26   53  -0.196   0.186  -0.391
   0.00000   0.00000   0.00000   0.00000   0.00000   0.00000   0.00000   0.00000   0.00000
Generated with MDTraj, t= 35.0
 53
    1UNL     C1    1  -0.314  -0.362   0.019
    1UNL     C2    2  -0.284  -0.255  -0.061
    1UNL     C3    3  -0.154  -0.178  -0.068
    1UNL     C4    4  -0.031  -0.257  -0.014
    1UNL     N1    5   0.090  -0.172  -0.020
    1UNL     C5    6   0.208  -0.258   0.025
    1UNL     C6    7   0.335  -0.176   0.013
    1UNL     C7    8   0.325  -0.049   0.092
    1UNL     C8    9   0.202   0.014   0.106
    1UNL     N2   10   0.216   0.151   0.132
    1UNL     C9   11   0.354   0.179   0.126
    1UNL    C10   12   0.424   0.301   0.142
    1UNL    C11   13   0.562   0.301   0.147
    1UNL    C12   14   0.626   0.178   0.125
    1UNL    C13   15   0.562   0.060   0.091
    1UNL    C14   16   0.424   0.057   0.106
    1UNL    C15   17   0.078  -0.061   0.080
    1UNL    C16   18  -0.040   0.029   0.024
    1UNL    C17   19  -0.179  -0.044   0.007
    1UNL    C18   20  -0.276   0.053  -0.049
    1UNL    C19   21  -0.390   0.084   0.011
    1UNL     O1   22  -0.411   0.039   0.133
    1UNL    C20   23  -0.534   0.090   0.196
    1UNL    C21   24  -0.250   0.111  -0.179
    1UNL     O2   25  -0.155   0.069  -0.245
    1UNL     O3   26  -0.324   0.222  -0.219
    1UNL    C22   27  -0.268   0.263  -0.350
    1UNL     H1   28  -0.412  -0.404   0.021
    1UNL     H2   29  -0.241  -0.412   0.078
    1UNL     H3   30  -0.358  -0.217  -0.127
    1UNL     H4   31  -0.129  -0.161  -0.176
    1UNL     H5   32  -0.047  -0.273   0.091
    1UNL     H6   33  -0.010  -0.350  -0.076
    1UNL     H7   34   0.190  -0.283   0.123
    1UNL     H8   35   0.217  -0.348  -0.039
    1UNL     H9   36   0.352  -0.155  -0.098
    1UNL    H10   37   0.426  -0.226   0.050
    1UNL    H11   38   0.151   0.215   0.101
    1UNL    H12   39   0.365   0.392   0.140
    1UNL    H13   40   0.621   0.397   0.138
    1UNL    H14   41   0.730   0.174   0.125
    1UNL    H15   42   0.620  -0.027   0.046
    1UNL    H16   43   0.045  -0.103   0.172
    1UNL    H17   44  -0.055   0.109   0.092
    1UNL    H18   45  -0.015   0.083  -0.071
    1UNL    H19   46  -0.228  -0.071   0.106
    1UNL    H20   47  -0.467   0.146  -0.039
    1UNL    H21   48  -0.610   0.015   0.212
    1UNL    H22   49  -0.490   0.123   0.288
    1UNL    H23   50  -0.573   0.179   0.154
    1UNL    H24   51  -0.162   0.252  -0.346
    1UNL    H25   52  -0.290   0.371  -0.342
    1UNL    H26   53  -0.310   0.222  -0.442
   0.00000   0.00000   0.00000   0.00000   0.00000   0.00000   0.00000   0.00000   0.00000
Generated with MDTraj, t= 36.0
 53
    1UNL     C1    1  -0.310  -0.370  -0.030
    1UNL     C2    2  -0.284  -0.245  -0.077
    1UNL     C3    3  -0.148  -0.173  -0.062
    1UNL     C4    4  -0.038  -0.255   0.006
    1UNL     N1    5   0.092  -0.176  -0.006
    1UNL     C5    6   0.207  -0.255   0.046
    1UNL     C6    7   0.341  -0.180   0.047
    1UNL     C7    8   0.323  -0.036   0.077
    1UNL     C8    9   0.202   0.019   0.108
    1UNL     N2   10   0.222   0.151   0.146
    1UNL     C9   11   0.360   0.180   0.134
    1UNL    C10   12   0.434   0.294   0.159
    1UNL    C11   13   0.573   0.281   0.161
    1UNL    C12   14   0.638   0.175   0.105
    1UNL    C13   15   0.565   0.063   0.069
    1UNL    C14   16   0.427   0.062   0.099
    1UNL    C15   17   0.076  -0.051   0.079
    1UNL    C16   18  -0.030   0.043   0.007
    1UNL    C17   19  -0.168  -0.036   0.013
    1UNL    C18   20  -0.276   0.052  -0.051
    1UNL    C19   21  -0.384   0.097   0.014
    1UNL     O1   22  -0.404   0.058   0.140
    1UNL    C20   23  -0.540   0.082   0.186
    1UNL    C21   24  -0.258   0.104  -0.188
    1UNL     O2   25  -0.183   0.050  -0.266
    1UNL     O3   26  -0.330   0.218  -0.212
    1UNL    C22   27  -0.305   0.251  -0.343
    1UNL     H1   28  -0.405  -0.420  -0.029
    1UNL     H2   29  -0.225  -0.423   0.014
    1UNL     H3   30  -0.357  -0.187  -0.132
    1UNL     H4   31  -0.113  -0.151  -0.166
    1UNL     H5   32  -0.054  -0.269   0.111
    1UNL     H6   33  -0.020  -0.348  -0.056
    1UNL     H7   34   0.186  -0.289   0.141
    1UNL     H8   35   0.212  -0.343  -0.022
    1UNL     H9   36   0.395  -0.178  -0.053
    1UNL    H10   37   0.414  -0.223   0.116
    1UNL    H11   38   0.163   0.220   0.177
    1UNL    H12   39   0.386   0.390   0.173
    1UNL    H13   40   0.630   0.370   0.188
    1UNL    H14   41   0.748   0.169   0.087
    1UNL    H15   42   0.605  -0.018   0.025
    1UNL    H16   43   0.043  -0.097   0.170
    1UNL    H17   44  -0.037   0.132   0.065
    1UNL    H18   45   0.003   0.072  -0.096
    1UNL    H19   46  -0.185  -0.061   0.121
    1UNL    H20   47  -0.452   0.142  -0.051
    1UNL    H21   48  -0.623   0.060   0.112
    1UNL    H22   49  -0.553   0.011   0.270
    1UNL    H23   50  -0.546   0.184   0.225
    1UNL    H24   51  -0.202   0.260  -0.358
    1UNL    H25   52  -0.359   0.346  -0.349
    1UNL    H26   53  -0.346   0.178  -0.415
   0.00000   0.00000   0.00000   0.00000   0.00000   0.00000   0.00000   0.00000   0.00000
Generated with MDTraj, t= 37.0
 53
    1UNL     C1    1  -0.293  -0.360  -0.085
    1UNL     C2    2  -0.277  -0.229  -0.088
    1UNL     C3    3  -0.146  -0.163  -0.062
    1UNL     C4    4  -0.042  -0.247   0.014
    1UNL     N1    5   0.090  -0.181   0.054
    1UNL     C5    6   0.216  -0.253   0.078
    1UNL     C6    7   0.330  -0.175   0.014
    1UNL     C7    8   0.326  -0.039   0.067
    1UNL     C8    9   0.208   0.022   0.098
    1UNL     N2   10   0.234   0.147   0.149
    1UNL     C9   11   0.370   0.177   0.140
    1UNL    C10   12   0.443   0.290   0.172
    1UNL    C11   13   0.578   0.280   0.151
    1UNL    C12   14   0.642   0.162   0.109
    1UNL    C13   15   0.570   0.056   0.070
    1UNL    C14   16   0.432   0.061   0.089
    1UNL    C15   17   0.073  -0.042   0.099
    1UNL    C16   18  -0.034   0.049   0.018
    1UNL    C17   19  -0.171  -0.027   0.014
    1UNL    C18   20  -0.276   0.069  -0.053
    1UNL    C19   21  -0.384   0.102   0.018
    1UNL     O1   22  -0.416   0.034   0.137
    1UNL    C20   23  -0.521   0.088   0.208
    1UNL    C21   24  -0.265   0.101  -0.192
    1UNL     O2   25  -0.175   0.059  -0.264
    1UNL     O3   26  -0.359   0.194  -0.230
    1UNL    C22   27  -0.334   0.233  -0.366
    1UNL     H1   28  -0.386  -0.398  -0.125
    1UNL     H2   29  -0.211  -0.422  -0.060
    1UNL     H3   30  -0.364  -0.166  -0.114
    1UNL     H4   31  -0.116  -0.128  -0.163
    1UNL     H5   32  -0.090  -0.279   0.104
    1UNL     H6   33  -0.004  -0.329  -0.056
    1UNL     H7   34   0.227  -0.264   0.180
    1UNL     H8   35   0.204  -0.353   0.030
    1UNL     H9   36   0.324  -0.174  -0.099
    1UNL    H10   37   0.428  -0.215   0.037
    1UNL    H11   38   0.166   0.201   0.196
    1UNL    H12   39   0.400   0.379   0.211
    1UNL    H13   40   0.635   0.359   0.184
    1UNL    H14   41   0.747   0.155   0.128
    1UNL    H15   42   0.610  -0.050   0.061
    1UNL    H16   43   0.039  -0.060   0.199
    1UNL    H17   44  -0.042   0.139   0.073
    1UNL    H18   45  -0.006   0.071  -0.089
    1UNL    H19   46  -0.214  -0.043   0.117
    1UNL    H20   47  -0.454   0.176  -0.015
    1UNL    H21   48  -0.611   0.088   0.133
    1UNL    H22   49  -0.548   0.024   0.297
    1UNL    H23   50  -0.491   0.195   0.227
    1UNL    H24   51  -0.252   0.297  -0.379
    1UNL    H25   52  -0.430   0.270  -0.403
    1UNL    H26   53  -0.316   0.140  -0.423
   0.00000   0.00000   0.00000   0.00000   0.00000   0.00000   0.00000   0.00000   0.00000
Generated with MDTraj, t= 38.0
 53
    1UNL     C1    1  -0.272  -0.350  -0.157
    1UNL     C2    2  -0.277  -0.247  -0.076
    1UNL     C3    3  -0.156  -0.168  -0.052
    1UNL     C4    4  -0.050  -0.238   0.036
    1UNL     N1    5   0.080  -0.163   0.053
    1UNL     C5    6   0.204  -0.250   0.046
    1UNL     C6    7   0.330  -0.169   0.027
    1UNL     C7    8   0.318  -0.026   0.066
    1UNL     C8    9   0.201   0.041   0.105
    1UNL     N2   10   0.237   0.166   0.153
    1UNL     C9   11   0.377   0.177   0.149
    1UNL    C10   12   0.467   0.280   0.183
    1UNL    C11   13   0.596   0.268   0.153
    1UNL    C12   14   0.642   0.150   0.092
    1UNL    C13   15   0.567   0.039   0.072
    1UNL    C14   16   0.428   0.053   0.100
    1UNL    C15   17   0.065  -0.030   0.104
    1UNL    C16   18  -0.045   0.052   0.023
    1UNL    C17   19  -0.183  -0.028   0.018
    1UNL    C18   20  -0.285   0.054  -0.057
    1UNL    C19   21  -0.392   0.090   0.016
    1UNL     O1   22  -0.408   0.046   0.148
    1UNL    C20   23  -0.505   0.105   0.218
    1UNL    C21   24  -0.262   0.100  -0.192
    1UNL     O2   25  -0.150   0.116  -0.235
    1UNL     O3   26  -0.376   0.144  -0.246
    1UNL    C22   27  -0.344   0.194  -0.379
    1UNL     H1   28  -0.363  -0.410  -0.162
    1UNL     H2   29  -0.187  -0.372  -0.217
    1UNL     H3   30  -0.366  -0.234  -0.025
    1UNL     H4   31  -0.119  -0.151  -0.155
    1UNL     H5   32  -0.085  -0.260   0.136
    1UNL     H6   33  -0.015  -0.328  -0.023
    1UNL     H7   34   0.207  -0.297   0.140
    1UNL     H8   35   0.190  -0.331  -0.030
    1UNL     H9   36   0.370  -0.168  -0.078
    1UNL    H10   37   0.416  -0.210   0.082
    1UNL    H11   38   0.170   0.243   0.153
    1UNL    H12   39   0.425   0.370   0.228
    1UNL    H13   40   0.675   0.350   0.163
    1UNL    H14   41   0.748   0.137   0.080
    1UNL    H15   42   0.606  -0.055   0.038
    1UNL    H16   43   0.028  -0.034   0.206
    1UNL    H17   44  -0.063   0.146   0.070
    1UNL    H18   45  -0.003   0.060  -0.080
    1UNL    H19   46  -0.226  -0.055   0.117
    1UNL    H20   47  -0.468   0.158  -0.031
    1UNL    H21   48  -0.598   0.038   0.194
    1UNL    H22   49  -0.483   0.097   0.329
    1UNL    H23   50  -0.521   0.208   0.172
    1UNL    H24   51  -0.250   0.243  -0.397
    1UNL    H25   52  -0.429   0.249  -0.418
    1UNL    H26   53  -0.340   0.097  -0.437
   0.00000   0.00000   0.00000   0.00000   0.00000   0.00000   0.00000   0.00000   0.00000
Generated with MDTraj, t= 39.0
 53
    1UNL     C1    1  -0.315  -0.281  -0.189
    1UNL     C2    2  -0.274  -0.228  -0.074
    1UNL     C3    3  -0.144  -0.161  -0.057
    1UNL     C4    4  -0.044  -0.248   0.020
    1UNL     N1    5   0.084  -0.167   0.032
    1UNL     C5    6   0.205  -0.242   0.066
    1UNL     C6    7   0.337  -0.179   0.021
    1UNL     C7    8   0.329  -0.033   0.055
    1UNL     C8    9   0.212   0.027   0.101
    1UNL     N2   10   0.237   0.150   0.154
    1UNL     C9   11   0.369   0.167   0.133
    1UNL    C10   12   0.447   0.278   0.178
    1UNL    C11   13   0.583   0.276   0.162
    1UNL    C12   14   0.650   0.162   0.112
    1UNL    C13   15   0.580   0.055   0.073
    1UNL    C14   16   0.437   0.054   0.086
    1UNL    C15   17   0.074  -0.040   0.107
    1UNL    C16   18  -0.029   0.047   0.033
    1UNL    C17   19  -0.166  -0.027   0.023
    1UNL    C18   20  -0.277   0.056  -0.038
    1UNL    C19   21  -0.393   0.086   0.026
    1UNL     O1   22  -0.410   0.070   0.158
    1UNL    C20   23  -0.532   0.119   0.199
    1UNL    C21   24  -0.264   0.095  -0.178
    1UNL     O2   25  -0.154   0.102  -0.226
    1UNL     O3   26  -0.379   0.121  -0.241
    1UNL    C22   27  -0.345   0.152  -0.374
    1UNL     H1   28  -0.410  -0.325  -0.209
    1UNL     H2   29  -0.254  -0.293  -0.277
    1UNL     H3   30  -0.348  -0.222   0.012
    1UNL     H4   31  -0.099  -0.134  -0.153
    1UNL     H5   32  -0.084  -0.271   0.118
    1UNL     H6   33  -0.012  -0.339  -0.041
    1UNL     H7   34   0.205  -0.260   0.171
    1UNL     H8   35   0.197  -0.340   0.017
    1UNL     H9   36   0.350  -0.195  -0.087
    1UNL    H10   37   0.425  -0.230   0.066
    1UNL    H11   38   0.170   0.218   0.200
    1UNL    H12   39   0.408   0.376   0.198
    1UNL    H13   40   0.639   0.363   0.168
    1UNL    H14   41   0.762   0.167   0.104
    1UNL    H15   42   0.624  -0.028   0.028
    1UNL    H16   43   0.050  -0.056   0.213
    1UNL    H17   44  -0.034   0.134   0.097
    1UNL    H18   45   0.007   0.066  -0.069
    1UNL    H19   46  -0.188  -0.060   0.126
    1UNL    H20   47  -0.481   0.105  -0.038
    1UNL    H21   48  -0.615   0.093   0.127
    1UNL    H22   49  -0.558   0.062   0.292
    1UNL    H23   50  -0.528   0.233   0.211
    1UNL    H24   51  -0.301   0.249  -0.404
    1UNL    H25   52  -0.440   0.142  -0.428
    1UNL    H26   53  -0.273   0.067  -0.408
   0.00000   0.00000   0.00000   0.00000   0.00000   0.00000   0.00000   0.00000   0.00000
Generated with MDTraj, t= 40.0
 53
    1UNL     C1    1  -0.352  -0.213  -0.182
    1UNL     C2    2  -0.275  -0.237  -0.075
    1UNL     C3    3  -0.143  -0.160  -0.050
    1UNL     C4    4  -0.034  -0.247   0.015
    1UNL     N1    5   0.096  -0.169   0.007
    1UNL     C5    6   0.211  -0.256   0.036
    1UNL     C6    7   0.347  -0.183   0.026
    1UNL     C7    8   0.333  -0.047   0.085
    1UNL     C8    9   0.217   0.017   0.118
    1UNL     N2   10   0.239   0.150   0.151
    1UNL     C9   11   0.368   0.177   0.129
    1UNL    C10   12   0.440   0.287   0.170
    1UNL    C11   13   0.578   0.287   0.155
    1UNL    C12   14   0.644   0.169   0.121
    1UNL    C13   15   0.570   0.059   0.080
    1UNL    C14   16   0.432   0.055   0.091
    1UNL    C15   17   0.082  -0.045   0.095
    1UNL    C16   18  -0.029   0.048   0.043
    1UNL    C17   19  -0.164  -0.030   0.033
    1UNL    C18   20  -0.270   0.064  -0.029
    1UNL    C19   21  -0.380   0.115   0.032
    1UNL     O1   22  -0.408   0.068   0.157
    1UNL    C20   23  -0.544   0.111   0.189
    1UNL    C21   24  -0.261   0.081  -0.176
    1UNL     O2   25  -0.157   0.055  -0.238
    1UNL     O3   26  -0.370   0.140  -0.237
    1UNL    C22   27  -0.349   0.120  -0.375
    1UNL     H1   28  -0.448  -0.251  -0.212
    1UNL     H2   29  -0.319  -0.144  -0.258
    1UNL     H3   30  -0.304  -0.304  -0.003
    1UNL     H4   31  -0.103  -0.123  -0.145
    1UNL     H5   32  -0.044  -0.263   0.122
    1UNL     H6   33  -0.019  -0.342  -0.044
    1UNL     H7   34   0.200  -0.299   0.136
    1UNL     H8   35   0.216  -0.338  -0.034
    1UNL     H9   36   0.389  -0.183  -0.076
    1UNL    H10   37   0.421  -0.237   0.091
    1UNL    H11   38   0.170   0.218   0.200
    1UNL    H12   39   0.389   0.380   0.190
    1UNL    H13   40   0.643   0.378   0.165
    1UNL    H14   41   0.745   0.164   0.125
    1UNL    H15   42   0.634  -0.034   0.060
    1UNL    H16   43   0.054  -0.081   0.196
    1UNL    H17   44  -0.049   0.128   0.115
    1UNL    H18   45   0.000   0.081  -0.056
    1UNL    H19   46  -0.198  -0.041   0.137
    1UNL    H20   47  -0.458   0.173  -0.008
    1UNL    H21   48  -0.623   0.066   0.132
    1UNL    H22   49  -0.566   0.070   0.288
    1UNL    H23   50  -0.561   0.221   0.183
    1UNL    H24   51  -0.302   0.210  -0.420
    1UNL    H25   52  -0.442   0.111  -0.432
    1UNL    H26   53  -0.280   0.026  -0.398
   0.00000   0.00000   0.00000   0.00000   0.00000   0.00000   0.00000   0.00000   0.00000
Generated with MDTraj, t= 41.0
 53
    1UNL     C1    1  -0.388  -0.211  -0.119
    1UNL     C2    2  -0.276  -0.259  -0.073
    1UNL     C3    3  -0.150  -0.173  -0.064
    1UNL     C4    4  -0.034  -0.252  -0.000
    1UNL     N1    5   0.096  -0.176   0.014
    1UNL     C5    6   0.220  -0.258   0.047
    1UNL     C6    7   0.346  -0.169   0.030
    1UNL     C7    8   0.332  -0.042   0.102
    1UNL     C8    9   0.212   0.020   0.124
    1UNL     N2   10   0.230   0.153   0.156
    1UNL     C9   11   0.371   0.179   0.144
    1UNL    C10   12   0.449   0.299   0.168
    1UNL    C11   13   0.586   0.293   0.152
    1UNL    C12   14   0.638   0.178   0.095
    1UNL    C13   15   0.567   0.052   0.088
    1UNL    C14   16   0.432   0.056   0.122
    1UNL    C15   17   0.078  -0.048   0.097
    1UNL    C16   18  -0.039   0.031   0.040
    1UNL    C17   19  -0.177  -0.040   0.014
    1UNL    C18   20  -0.270   0.051  -0.050
    1UNL    C19   21  -0.369   0.107   0.027
    1UNL     O1   22  -0.386   0.064   0.151
    1UNL    C20   23  -0.518   0.108   0.198
    1UNL    C21   24  -0.262   0.075  -0.195
    1UNL     O2   25  -0.158   0.062  -0.255
    1UNL     O3   26  -0.372   0.136  -0.249
    1UNL    C22   27  -0.344   0.168  -0.382
    1UNL     H1   28  -0.479  -0.267  -0.131
    1UNL     H2   29  -0.386  -0.111  -0.154
    1UNL     H3   30  -0.268  -0.366  -0.043
    1UNL     H4   31  -0.121  -0.153  -0.167
    1UNL     H5   32  -0.056  -0.272   0.105
    1UNL     H6   33   0.002  -0.346  -0.052
    1UNL     H7   34   0.223  -0.300   0.150
    1UNL     H8   35   0.228  -0.343  -0.017
    1UNL     H9   36   0.366  -0.146  -0.074
    1UNL    H10   37   0.440  -0.220   0.067
    1UNL    H11   38   0.153   0.228   0.135
    1UNL    H12   39   0.403   0.388   0.209
    1UNL    H13   40   0.644   0.378   0.178
    1UNL    H14   41   0.752   0.168   0.091
    1UNL    H15   42   0.617  -0.037   0.076
    1UNL    H16   43   0.046  -0.065   0.204
    1UNL    H17   44  -0.062   0.116   0.108
    1UNL    H18   45  -0.012   0.055  -0.062
    1UNL    H19   46  -0.221  -0.078   0.107
    1UNL    H20   47  -0.435   0.177  -0.021
    1UNL    H21   48  -0.594   0.041   0.178
    1UNL    H22   49  -0.517   0.108   0.305
    1UNL    H23   50  -0.550   0.202   0.154
    1UNL    H24   51  -0.237   0.182  -0.396
    1UNL    H25   52  -0.380   0.267  -0.399
    1UNL    H26   53  -0.387   0.104  -0.470
   0.00000   0.00000   0.00000   0.00000   0.00000   0.00000   0.00000   0.00000   0.00000
Generated with MDTraj, t= 42.0
 53
    1UNL     C1    1  -0.384  -0.239  -0.097
    1UNL     C2    2  -0.273  -0.259  -0.034
    1UNL     C3    3  -0.144  -0.182  -0.055
    1UNL     C4    4  -0.026  -0.267   0.011
    1UNL     N1    5   0.095  -0.189   0.016
    1UNL     C5    6   0.216  -0.253   0.073
    1UNL     C6    7   0.347  -0.180   0.046
    1UNL     C7    8   0.328  -0.037   0.075
    1UNL     C8    9   0.202   0.012   0.108
    1UNL     N2   10   0.215   0.145   0.137
    1UNL     C9   11   0.352   0.174   0.144
    1UNL    C10   12   0.421   0.289   0.179
    1UNL    C11   13   0.559   0.291   0.169
    1UNL    C12   14   0.634   0.181   0.115
    1UNL    C13   15   0.567   0.072   0.068
    1UNL    C14   16   0.429   0.064   0.099
    1UNL    C15   17   0.070  -0.055   0.080
    1UNL    C16   18  -0.023   0.027  -0.005
    1UNL    C17   19  -0.160  -0.036   0.005
    1UNL    C18   20  -0.271   0.042  -0.060
    1UNL    C19   21  -0.372   0.089   0.015
    1UNL     O1   22  -0.385   0.056   0.147
    1UNL    C20   23  -0.484   0.122   0.212
    1UNL    C21   24  -0.260   0.090  -0.197
    1UNL     O2   25  -0.160   0.062  -0.262
    1UNL     O3   26  -0.360   0.180  -0.248
    1UNL    C22   27  -0.331   0.203  -0.376
    1UNL     H1   28  -0.469  -0.302  -0.069
    1UNL     H2   29  -0.390  -0.169  -0.178
    1UNL     H3   30  -0.273  -0.323   0.051
    1UNL     H4   31  -0.133  -0.177  -0.163
    1UNL     H5   32  -0.044  -0.294   0.117
    1UNL     H6   33  -0.004  -0.360  -0.049
    1UNL     H7   34   0.199  -0.277   0.182
    1UNL     H8   35   0.234  -0.350   0.036
    1UNL     H9   36   0.367  -0.190  -0.059
    1UNL    H10   37   0.441  -0.218   0.095
    1UNL    H11   38   0.136   0.206   0.174
    1UNL    H12   39   0.358   0.370   0.200
    1UNL    H13   40   0.606   0.388   0.191
    1UNL    H14   41   0.740   0.181   0.122
    1UNL    H15   42   0.628  -0.017   0.039
    1UNL    H16   43   0.018  -0.081   0.177
    1UNL    H17   44  -0.032   0.130   0.038
    1UNL    H18   45   0.011   0.016  -0.106
    1UNL    H19   46  -0.191  -0.045   0.110
    1UNL    H20   47  -0.455   0.139  -0.040
    1UNL    H21   48  -0.571   0.116   0.162
    1UNL    H22   49  -0.499   0.073   0.305
    1UNL    H23   50  -0.453   0.223   0.213
    1UNL    H24   51  -0.226   0.212  -0.393
    1UNL    H25   52  -0.365   0.298  -0.401
    1UNL    H26   53  -0.384   0.138  -0.452
   0.00000   0.00000   0.00000   0.00000   0.00000   0.00000   0.00000   0.00000   0.00000
Generated with MDTraj, t= 43.0
 53
    1UNL     C1    1  -0.385  -0.257  -0.113
    1UNL     C2    2  -0.292  -0.268  -0.024
    1UNL     C3    3  -0.163  -0.194  -0.047
    1UNL     C4    4  -0.041  -0.255   0.035
    1UNL     N1    5   0.094  -0.187   0.022
    1UNL     C5    6   0.217  -0.259   0.046
    1UNL     C6    7   0.344  -0.182   0.019
    1UNL     C7    8   0.333  -0.034   0.061
    1UNL     C8    9   0.209   0.021   0.083
    1UNL     N2   10   0.224   0.147   0.130
    1UNL     C9   11   0.358   0.184   0.128
    1UNL    C10   12   0.414   0.307   0.163
    1UNL    C11   13   0.548   0.299   0.168
    1UNL    C12   14   0.630   0.180   0.150
    1UNL    C13   15   0.568   0.068   0.104
    1UNL    C14   16   0.430   0.066   0.097
    1UNL    C15   17   0.076  -0.046   0.074
    1UNL    C16   18  -0.033   0.025  -0.013
    1UNL    C17   19  -0.163  -0.047   0.000
    1UNL    C18   20  -0.272   0.040  -0.059
    1UNL    C19   21  -0.378   0.078   0.010
    1UNL     O1   22  -0.384   0.058   0.149
    1UNL    C20   23  -0.479   0.130   0.217
    1UNL    C21   24  -0.256   0.077  -0.194
    1UNL     O2   25  -0.171   0.018  -0.263
    1UNL     O3   26  -0.327   0.196  -0.226
    1UNL    C22   27  -0.308   0.231  -0.355
    1UNL     H1   28  -0.476  -0.308  -0.100
    1UNL     H2   29  -0.375  -0.200  -0.204
    1UNL     H3   30  -0.303  -0.322   0.067
    1UNL     H4   31  -0.147  -0.190  -0.154
    1UNL     H5   32  -0.072  -0.254   0.142
    1UNL     H6   33  -0.021  -0.359   0.001
    1UNL     H7   34   0.226  -0.305   0.150
    1UNL     H8   35   0.215  -0.349  -0.007
    1UNL     H9   36   0.380  -0.189  -0.084
    1UNL    H10   37   0.427  -0.233   0.075
    1UNL    H11   38   0.153   0.215   0.161
    1UNL    H12   39   0.350   0.397   0.151
    1UNL    H13   40   0.605   0.391   0.170
    1UNL    H14   41   0.734   0.190   0.161
    1UNL    H15   42   0.613  -0.025   0.076
    1UNL    H16   43   0.036  -0.064   0.179
    1UNL    H17   44  -0.040   0.133   0.019
    1UNL    H18   45  -0.006   0.011  -0.115
    1UNL    H19   46  -0.184  -0.034   0.106
    1UNL    H20   47  -0.457   0.133  -0.044
    1UNL    H21   48  -0.563   0.137   0.158
    1UNL    H22   49  -0.507   0.083   0.309
    1UNL    H23   50  -0.437   0.227   0.218
    1UNL    H24   51  -0.247   0.316  -0.362
    1UNL    H25   52  -0.395   0.249  -0.406
    1UNL    H26   53  -0.261   0.149  -0.415
   0.00000   0.00000   0.00000   0.00000   0.00000   0.00000   0.00000   0.00000   0.00000
Generated with MDTraj, t= 44.0
 53
    1UNL     C1    1  -0.380  -0.278  -0.132
    1UNL     C2    2  -0.275  -0.275  -0.053
    1UNL     C3    3  -0.153  -0.185  -0.050
    1UNL     C4    4  -0.025  -0.259   0.008
    1UNL     N1    5   0.098  -0.174   0.017
    1UNL     C5    6   0.219  -0.258   0.048
    1UNL     C6    7   0.352  -0.175   0.024
    1UNL     C7    8   0.325  -0.027   0.057
    1UNL     C8    9   0.201   0.035   0.072
    1UNL     N2   10   0.224   0.163   0.123
    1UNL     C9   11   0.363   0.189   0.119
    1UNL    C10   12   0.434   0.303   0.162
    1UNL    C11   13   0.572   0.292   0.172
    1UNL    C12   14   0.636   0.169   0.138
    1UNL    C13   15   0.569   0.055   0.108
    1UNL    C14   16   0.425   0.066   0.101
    1UNL    C15   17   0.075  -0.042   0.081
    1UNL    C16   18  -0.044   0.034   0.020
    1UNL    C17   19  -0.172  -0.047   0.020
    1UNL    C18   20  -0.286   0.033  -0.049
    1UNL    C19   21  -0.380   0.101   0.023
    1UNL     O1   22  -0.396   0.072   0.153
    1UNL    C20   23  -0.512   0.135   0.215
    1UNL    C21   24  -0.274   0.063  -0.190
    1UNL     O2   25  -0.195  -0.005  -0.250
    1UNL     O3   26  -0.328   0.184  -0.231
    1UNL    C22   27  -0.277   0.235  -0.353
    1UNL     H1   28  -0.470  -0.325  -0.099
    1UNL     H2   29  -0.395  -0.229  -0.229
    1UNL     H3   30  -0.275  -0.334   0.042
    1UNL     H4   31  -0.126  -0.178  -0.155
    1UNL     H5   32  -0.041  -0.292   0.114
    1UNL     H6   33  -0.009  -0.347  -0.057
    1UNL     H7   34   0.213  -0.278   0.160
    1UNL     H8   35   0.220  -0.355   0.009
    1UNL     H9   36   0.387  -0.189  -0.080
    1UNL    H10   37   0.439  -0.205   0.084
    1UNL    H11   38   0.150   0.228   0.120
    1UNL    H12   39   0.375   0.389   0.181
    1UNL    H13   40   0.626   0.383   0.194
    1UNL    H14   41   0.752   0.155   0.151
    1UNL    H15   42   0.621  -0.032   0.082
    1UNL    H16   43   0.047  -0.065   0.188
    1UNL    H17   44  -0.064   0.132   0.071
    1UNL    H18   45  -0.022   0.047  -0.083
    1UNL    H19   46  -0.195  -0.068   0.124
    1UNL    H20   47  -0.439   0.165  -0.034
    1UNL    H21   48  -0.600   0.071   0.209
    1UNL    H22   49  -0.492   0.143   0.323
    1UNL    H23   50  -0.532   0.232   0.170
    1UNL    H24   51  -0.223   0.326  -0.342
    1UNL    H25   52  -0.352   0.247  -0.425
    1UNL    H26   53  -0.202   0.163  -0.395
   0.00000   0.00000   0.00000   0.00000   0.00000   0.00000   0.00000   0.00000   0.00000
Generated with MDTraj, t= 45.0
 53
    1UNL     C1    1  -0.347  -0.253  -0.157
    1UNL     C2    2  -0.271  -0.257  -0.054
    1UNL     C3    3  -0.146  -0.174  -0.054
    1UNL     C4    4  -0.030  -0.262   0.018
    1UNL     N1    5   0.098  -0.186   0.025
    1UNL     C5    6   0.227  -0.258   0.054
    1UNL     C6    7   0.360  -0.172   0.036
    1UNL     C7    8   0.324  -0.032   0.075
    1UNL     C8    9   0.199   0.030   0.092
    1UNL     N2   10   0.219   0.165   0.124
    1UNL     C9   11   0.361   0.182   0.137
    1UNL    C10   12   0.437   0.291   0.180
    1UNL    C11   13   0.573   0.289   0.154
    1UNL    C12   14   0.641   0.171   0.113
    1UNL    C13   15   0.565   0.058   0.075
    1UNL    C14   16   0.428   0.062   0.098
    1UNL    C15   17   0.073  -0.053   0.088
    1UNL    C16   18  -0.039   0.033   0.028
    1UNL    C17   19  -0.170  -0.040   0.018
    1UNL    C18   20  -0.280   0.043  -0.044
    1UNL    C19   21  -0.379   0.100   0.028
    1UNL     O1   22  -0.406   0.065   0.153
    1UNL    C20   23  -0.522   0.143   0.199
    1UNL    C21   24  -0.267   0.070  -0.186
    1UNL     O2   25  -0.188   0.005  -0.251
    1UNL     O3   26  -0.339   0.177  -0.229
    1UNL    C22   27  -0.312   0.210  -0.364
    1UNL     H1   28  -0.434  -0.313  -0.171
    1UNL     H2   29  -0.325  -0.197  -0.243
    1UNL     H3   30  -0.284  -0.320   0.028
    1UNL     H4   31  -0.111  -0.158  -0.155
    1UNL     H5   32  -0.072  -0.271   0.120
    1UNL     H6   33  -0.014  -0.360  -0.028
    1UNL     H7   34   0.227  -0.288   0.164
    1UNL     H8   35   0.234  -0.348   0.004
    1UNL     H9   36   0.393  -0.169  -0.070
    1UNL    H10   37   0.444  -0.219   0.088
    1UNL    H11   38   0.159   0.213   0.181
    1UNL    H12   39   0.400   0.386   0.220
    1UNL    H13   40   0.631   0.378   0.177
    1UNL    H14   41   0.741   0.166   0.126
    1UNL    H15   42   0.616  -0.040   0.052
    1UNL    H16   43   0.040  -0.072   0.194
    1UNL    H17   44  -0.060   0.134   0.074
    1UNL    H18   45  -0.016   0.045  -0.075
    1UNL    H19   46  -0.205  -0.067   0.116
    1UNL    H20   47  -0.462   0.152  -0.019
    1UNL    H21   48  -0.625   0.109   0.161
    1UNL    H22   49  -0.522   0.107   0.306
    1UNL    H23   50  -0.509   0.253   0.203
    1UNL    H24   51  -0.207   0.237  -0.381
    1UNL    H25   52  -0.382   0.289  -0.388
    1UNL    H26   53  -0.326   0.114  -0.422
   0.00000   0.00000   0.00000   0.00000   0.00000   0.00000   0.00000   0.00000   0.00000
Generated with MDTraj, t= 46.0
 53
    1UNL     C1    1  -0.343  -0.237  -0.186
    1UNL     C2    2  -0.277  -0.247  -0.077
    1UNL     C3    3  -0.147  -0.172  -0.050
    1UNL     C4    4  -0.050  -0.259   0.039
    1UNL     N1    5   0.085  -0.189   0.049
    1UNL     C5    6   0.213  -0.262   0.064
    1UNL     C6    7   0.332  -0.178   0.015
    1UNL     C7    8   0.331  -0.043   0.084
    1UNL     C8    9   0.216   0.006   0.136
    1UNL     N2   10   0.235   0.139   0.170
    1UNL     C9   11   0.361   0.177   0.146
    1UNL    C10   12   0.432   0.293   0.166
    1UNL    C11   13   0.571   0.295   0.138
    1UNL    C12   14   0.639   0.190   0.083
    1UNL    C13   15   0.572   0.071   0.072
    1UNL    C14   16   0.431   0.063   0.106
    1UNL    C15   17   0.072  -0.049   0.116
    1UNL    C16   18  -0.027   0.035   0.035
    1UNL    C17   19  -0.163  -0.039   0.019
    1UNL    C18   20  -0.269   0.048  -0.049
    1UNL    C19   21  -0.381   0.090   0.013
    1UNL     O1   22  -0.389   0.064   0.147
    1UNL    C20   23  -0.504   0.125   0.204
    1UNL    C21   24  -0.255   0.084  -0.194
    1UNL     O2   25  -0.153   0.055  -0.257
    1UNL     O3   26  -0.355   0.166  -0.239
    1UNL    C22   27  -0.360   0.177  -0.379
    1UNL     H1   28  -0.438  -0.289  -0.202
    1UNL     H2   29  -0.303  -0.185  -0.271
    1UNL     H3   30  -0.324  -0.294   0.014
    1UNL     H4   31  -0.102  -0.143  -0.145
    1UNL     H5   32  -0.086  -0.255   0.144
    1UNL     H6   33  -0.058  -0.359  -0.002
    1UNL     H7   34   0.222  -0.271   0.177
    1UNL     H8   35   0.216  -0.359   0.024
    1UNL     H9   36   0.324  -0.171  -0.098
    1UNL    H10   37   0.426  -0.227   0.032
    1UNL    H11   38   0.162   0.201   0.175
    1UNL    H12   39   0.382   0.385   0.195
    1UNL    H13   40   0.627   0.384   0.144
    1UNL    H14   41   0.748   0.196   0.055
    1UNL    H15   42   0.623  -0.016   0.052
    1UNL    H16   43   0.039  -0.068   0.221
    1UNL    H17   44  -0.049   0.138   0.075
    1UNL    H18   45   0.012   0.043  -0.064
    1UNL    H19   46  -0.186  -0.050   0.122
    1UNL    H20   47  -0.462   0.152  -0.034
    1UNL    H21   48  -0.598   0.117   0.132
    1UNL    H22   49  -0.535   0.066   0.297
    1UNL    H23   50  -0.482   0.228   0.242
    1UNL    H24   51  -0.277   0.119  -0.429
    1UNL    H25   52  -0.386   0.282  -0.407
    1UNL    H26   53  -0.448   0.108  -0.395
   0.00000   0.00000   0.00000   0.00000   0.00000   0.00000   0.00000   0.00000   0.00000
Generated with MDTraj, t= 47.0
 53
    1UNL     C1    1  -0.342  -0.221  -0.199
    1UNL     C2    2  -0.266  -0.240  -0.094
    1UNL     C3    3  -0.138  -0.162  -0.061
    1UNL     C4    4  -0.032  -0.247   0.023
    1UNL     N1    5   0.090  -0.175   0.035
    1UNL     C5    6   0.202  -0.263   0.076
    1UNL     C6    7   0.327  -0.183   0.046
    1UNL     C7    8   0.323  -0.042   0.097
    1UNL     C8    9   0.204   0.015   0.150
    1UNL     N2   10   0.233   0.147   0.188
    1UNL     C9   11   0.358   0.177   0.143
    1UNL    C10   12   0.441   0.289   0.175
    1UNL    C11   13   0.567   0.281   0.138
    1UNL    C12   14   0.620   0.173   0.063
    1UNL    C13   15   0.551   0.061   0.034
    1UNL    C14   16   0.419   0.063   0.084
    1UNL    C15   17   0.067  -0.047   0.117
    1UNL    C16   18  -0.024   0.043   0.043
    1UNL    C17   19  -0.158  -0.031   0.019
    1UNL    C18   20  -0.264   0.055  -0.043
    1UNL    C19   21  -0.373   0.104   0.027
    1UNL     O1   22  -0.382   0.077   0.165
    1UNL    C20   23  -0.507   0.103   0.220
    1UNL    C21   24  -0.256   0.083  -0.190
    1UNL     O2   25  -0.146   0.075  -0.241
    1UNL     O3   26  -0.372   0.125  -0.255
    1UNL    C22   27  -0.337   0.154  -0.391
    1UNL     H1   28  -0.426  -0.281  -0.219
    1UNL     H2   29  -0.324  -0.140  -0.267
    1UNL     H3   30  -0.288  -0.312  -0.022
    1UNL     H4   31  -0.100  -0.138  -0.162
    1UNL     H5   32  -0.070  -0.256   0.127
    1UNL     H6   33  -0.016  -0.343  -0.022
    1UNL     H7   34   0.203  -0.288   0.187
    1UNL     H8   35   0.189  -0.348   0.014
    1UNL     H9   36   0.351  -0.182  -0.064
    1UNL    H10   37   0.411  -0.236   0.087
    1UNL    H11   38   0.171   0.206   0.236
    1UNL    H12   39   0.410   0.380   0.218
    1UNL    H13   40   0.630   0.371   0.143
    1UNL    H14   41   0.728   0.175   0.039
    1UNL    H15   42   0.593  -0.033  -0.006
    1UNL    H16   43   0.025  -0.067   0.216
    1UNL    H17   44  -0.040   0.147   0.082
    1UNL    H18   45   0.016   0.052  -0.057
    1UNL    H19   46  -0.194  -0.069   0.111
    1UNL    H20   47  -0.451   0.146  -0.033
    1UNL    H21   48  -0.571   0.023   0.162
    1UNL    H22   49  -0.522   0.098   0.332
    1UNL    H23   50  -0.530   0.206   0.189
    1UNL    H24   51  -0.230   0.124  -0.417
    1UNL    H25   52  -0.372   0.255  -0.421
    1UNL    H26   53  -0.401   0.080  -0.446
   0.00000   0.00000   0.00000   0.00000   0.00000   0.00000   0.00000   0.00000   0.00000
Generated with MDTraj, t= 48.0
 53
    1UNL     C1    1  -0.332  -0.204  -0.204
    1UNL     C2    2  -0.271  -0.239  -0.095
    1UNL     C3    3  -0.149  -0.166  -0.055
    1UNL     C4    4  -0.041  -0.254   0.018
    1UNL     N1    5   0.084  -0.178   0.032
    1UNL     C5    6   0.211  -0.260   0.069
    1UNL     C6    7   0.338  -0.184   0.038
    1UNL     C7    8   0.324  -0.044   0.088
    1UNL     C8    9   0.204   0.017   0.112
    1UNL     N2   10   0.229   0.146   0.146
    1UNL     C9   11   0.364   0.176   0.142
    1UNL    C10   12   0.439   0.295   0.166
    1UNL    C11   13   0.567   0.295   0.123
    1UNL    C12   14   0.630   0.175   0.082
    1UNL    C13   15   0.567   0.059   0.061
    1UNL    C14   16   0.430   0.054   0.103
    1UNL    C15   17   0.069  -0.053   0.117
    1UNL    C16   18  -0.041   0.036   0.066
    1UNL    C17   19  -0.170  -0.037   0.026
    1UNL    C18   20  -0.266   0.056  -0.039
    1UNL    C19   21  -0.359   0.110   0.043
    1UNL     O1   22  -0.397   0.073   0.170
    1UNL    C20   23  -0.524   0.110   0.201
    1UNL    C21   24  -0.256   0.086  -0.180
    1UNL     O2   25  -0.146   0.073  -0.231
    1UNL     O3   26  -0.366   0.128  -0.248
    1UNL    C22   27  -0.326   0.139  -0.382
    1UNL     H1   28  -0.433  -0.237  -0.222
    1UNL     H2   29  -0.291  -0.132  -0.275
    1UNL     H3   30  -0.312  -0.310  -0.023
    1UNL     H4   31  -0.104  -0.138  -0.153
    1UNL     H5   32  -0.069  -0.267   0.125
    1UNL     H6   33  -0.023  -0.348  -0.030
    1UNL     H7   34   0.191  -0.279   0.179
    1UNL     H8   35   0.215  -0.351   0.014
    1UNL     H9   36   0.358  -0.176  -0.073
    1UNL    H10   37   0.431  -0.228   0.073
    1UNL    H11   38   0.152   0.195   0.191
    1UNL    H12   39   0.383   0.387   0.193
    1UNL    H13   40   0.633   0.380   0.120
    1UNL    H14   41   0.733   0.178   0.072
    1UNL    H15   42   0.618  -0.033   0.032
    1UNL    H16   43   0.045  -0.080   0.220
    1UNL    H17   44  -0.076   0.117   0.134
    1UNL    H18   45  -0.001   0.088  -0.021
    1UNL    H19   46  -0.224  -0.075   0.109
    1UNL    H20   47  -0.437   0.158  -0.009
    1UNL    H21   48  -0.592   0.040   0.143
    1UNL    H22   49  -0.537   0.098   0.309
    1UNL    H23   50  -0.535   0.217   0.185
    1UNL    H24   51  -0.223   0.178  -0.398
    1UNL    H25   52  -0.400   0.202  -0.433
    1UNL    H26   53  -0.340   0.045  -0.437
   0.00000   0.00000   0.00000   0.00000   0.00000   0.00000   0.00000   0.00000   0.00000
Generated with MDTraj, t= 49.0
 53
    1UNL     C1    1  -0.334  -0.242  -0.186
    1UNL     C2    2  -0.272  -0.246  -0.072
    1UNL     C3    3  -0.142  -0.170  -0.050
    1UNL     C4    4  -0.037  -0.262   0.024
    1UNL     N1    5   0.087  -0.185   0.040
    1UNL     C5    6   0.218  -0.264   0.047
    1UNL     C6    7   0.347  -0.182   0.037
    1UNL     C7    8   0.325  -0.035   0.069
    1UNL     C8    9   0.206   0.020   0.104
    1UNL     N2   10   0.227   0.150   0.136
    1UNL     C9   11   0.362   0.177   0.117
    1UNL    C10   12   0.432   0.297   0.135
    1UNL    C11   13   0.570   0.287   0.132
    1UNL    C12   14   0.645   0.175   0.106
    1UNL    C13   15   0.574   0.058   0.095
    1UNL    C14   16   0.432   0.058   0.104
    1UNL    C15   17   0.074  -0.051   0.112
    1UNL    C16   18  -0.039   0.033   0.048
    1UNL    C17   19  -0.167  -0.042   0.032
    1UNL    C18   20  -0.275   0.047  -0.038
    1UNL    C19   21  -0.381   0.082   0.033
    1UNL     O1   22  -0.424   0.053   0.156
    1UNL    C20   23  -0.535   0.139   0.193
    1UNL    C21   24  -0.254   0.088  -0.177
    1UNL     O2   25  -0.147   0.067  -0.233
    1UNL     O3   26  -0.349   0.168  -0.230
    1UNL    C22   27  -0.334   0.176  -0.369
    1UNL     H1   28  -0.434  -0.276  -0.200
    1UNL     H2   29  -0.282  -0.200  -0.267
    1UNL     H3   30  -0.325  -0.281   0.017
    1UNL     H4   31  -0.095  -0.135  -0.146
    1UNL     H5   32  -0.076  -0.296   0.122
    1UNL     H6   33  -0.010  -0.345  -0.039
    1UNL     H7   34   0.219  -0.309   0.149
    1UNL     H8   35   0.203  -0.340  -0.028
    1UNL     H9   36   0.393  -0.190  -0.063
    1UNL    H10   37   0.429  -0.217   0.101
    1UNL    H11   38   0.151   0.221   0.127
    1UNL    H12   39   0.388   0.390   0.146
    1UNL    H13   40   0.626   0.380   0.142
    1UNL    H14   41   0.760   0.172   0.111
    1UNL    H15   42   0.621  -0.033   0.078
    1UNL    H16   43   0.046  -0.079   0.212
    1UNL    H17   44  -0.045   0.130   0.098
    1UNL    H18   45  -0.006   0.067  -0.052
    1UNL    H19   46  -0.195  -0.055   0.133
    1UNL    H20   47  -0.447   0.159  -0.015
    1UNL    H21   48  -0.615   0.136   0.121
    1UNL    H22   49  -0.566   0.103   0.287
    1UNL    H23   50  -0.500   0.237   0.217
    1UNL    H24   51  -0.322   0.281  -0.396
    1UNL    H25   52  -0.417   0.128  -0.419
    1UNL    H26   53  -0.254   0.118  -0.412
   0.00000   0.00000   0.00000   0.00000   0.00000   0.00000   0.00000   0.00000   0.00000
Generated with MDTraj, t= 50.0
 53
    1UNL     C1    1  -0.349  -0.282  -0.149
    1UNL     C2    2  -0.269  -0.264  -0.045
    1UNL     C3    3  -0.145  -0.177  -0.056
    1UNL     C4    4  -0.029  -0.255   0.012
    1UNL     N1    5   0.094  -0.170   0.033
    1UNL     C5    6   0.204  -0.258   0.080
    1UNL     C6    7   0.339  -0.192   0.056
    1UNL     C7    8   0.328  -0.041   0.072
    1UNL     C8    9   0.207   0.032   0.095
    1UNL     N2   10   0.234   0.161   0.133
    1UNL     C9   11   0.370   0.180   0.127
    1UNL    C10   12   0.438   0.294   0.152
    1UNL    C11   13   0.574   0.290   0.135
    1UNL    C12   14   0.639   0.168   0.114
    1UNL    C13   15   0.572   0.052   0.076
    1UNL    C14   16   0.435   0.058   0.087
    1UNL    C15   17   0.074  -0.033   0.091
    1UNL    C16   18  -0.044   0.037   0.010
    1UNL    C17   19  -0.168  -0.042   0.020
    1UNL    C18   20  -0.284   0.039  -0.051
    1UNL    C19   21  -0.392   0.084   0.023
    1UNL     O1   22  -0.408   0.055   0.155
    1UNL    C20   23  -0.539   0.115   0.200
    1UNL    C21   24  -0.259   0.082  -0.189
    1UNL     O2   25  -0.163   0.045  -0.256
    1UNL     O3   26  -0.349   0.178  -0.228
    1UNL    C22   27  -0.302   0.242  -0.345
    1UNL     H1   28  -0.420  -0.364  -0.160
    1UNL     H2   29  -0.335  -0.229  -0.242
    1UNL     H3   30  -0.280  -0.314   0.046
    1UNL     H4   31  -0.125  -0.161  -0.166
    1UNL     H5   32  -0.058  -0.290   0.113
    1UNL     H6   33  -0.005  -0.340  -0.048
    1UNL     H7   34   0.180  -0.273   0.186
    1UNL     H8   35   0.198  -0.353   0.026
    1UNL     H9   36   0.394  -0.221  -0.035
    1UNL    H10   37   0.404  -0.230   0.138
    1UNL    H11   38   0.168   0.235   0.177
    1UNL    H12   39   0.380   0.388   0.163
    1UNL    H13   40   0.622   0.384   0.127
    1UNL    H14   41   0.739   0.158   0.137
    1UNL    H15   42   0.635  -0.043   0.063
    1UNL    H16   43   0.040  -0.053   0.190
    1UNL    H17   44  -0.064   0.133   0.056
    1UNL    H18   45  -0.019   0.066  -0.094
    1UNL    H19   46  -0.198  -0.058   0.120
    1UNL    H20   47  -0.469   0.144  -0.028
    1UNL    H21   48  -0.621   0.071   0.152
    1UNL    H22   49  -0.549   0.105   0.303
    1UNL    H23   50  -0.539   0.220   0.189
    1UNL    H24   51  -0.388   0.291  -0.391
    1UNL    H25   52  -0.238   0.179  -0.406
    1UNL    H26   53  -0.231   0.316  -0.322
   0.00000   0.00000   0.00000   0.00000   0.00000   0.00000   0.00000   0.00000   0.00000
Generated with MDTraj, t= 51.0
 53
    1UNL     C1    1  -0.364  -0.288  -0.135
    1UNL     C2    2  -0.288  -0.265  -0.027
    1UNL     C3    3  -0.164  -0.191  -0.038
    1UNL     C4    4  -0.050  -0.260   0.035
    1UNL     N1    5   0.083  -0.175   0.034
    1UNL     C5    6   0.205  -0.255   0.081
    1UNL     C6    7   0.336  -0.184   0.045
    1UNL     C7    8   0.324  -0.036   0.076
    1UNL     C8    9   0.206   0.030   0.090
    1UNL     N2   10   0.224   0.164   0.122
    1UNL     C9   11   0.366   0.184   0.123
    1UNL    C10   12   0.446   0.298   0.149
    1UNL    C11   13   0.584   0.295   0.146
    1UNL    C12   14   0.643   0.173   0.108
    1UNL    C13   15   0.568   0.057   0.087
    1UNL    C14   16   0.428   0.060   0.106
    1UNL    C15   17   0.071  -0.033   0.087
    1UNL    C16   18  -0.032   0.038  -0.002
    1UNL    C17   19  -0.169  -0.036   0.009
    1UNL    C18   20  -0.278   0.037  -0.062
    1UNL    C19   21  -0.381   0.087   0.016
    1UNL     O1   22  -0.399   0.035   0.139
    1UNL    C20   23  -0.517   0.071   0.210
    1UNL    C21   24  -0.253   0.089  -0.198
    1UNL     O2   25  -0.174   0.037  -0.277
    1UNL     O3   26  -0.315   0.209  -0.216
    1UNL    C22   27  -0.296   0.257  -0.349
    1UNL     H1   28  -0.464  -0.317  -0.118
    1UNL     H2   29  -0.337  -0.267  -0.237
    1UNL     H3   30  -0.331  -0.284   0.076
    1UNL     H4   31  -0.145  -0.199  -0.149
    1UNL     H5   32  -0.073  -0.291   0.138
    1UNL     H6   33  -0.014  -0.343  -0.021
    1UNL     H7   34   0.199  -0.268   0.187
    1UNL     H8   35   0.200  -0.355   0.031
    1UNL     H9   36   0.359  -0.205  -0.059
    1UNL    H10   37   0.422  -0.225   0.105
    1UNL    H11   38   0.152   0.237   0.161
    1UNL    H12   39   0.386   0.388   0.147
    1UNL    H13   40   0.641   0.388   0.156
    1UNL    H14   41   0.756   0.176   0.103
    1UNL    H15   42   0.613  -0.038   0.081
    1UNL    H16   43   0.043  -0.034   0.190
    1UNL    H17   44  -0.035   0.145   0.011
    1UNL    H18   45   0.004   0.034  -0.109
    1UNL    H19   46  -0.192  -0.043   0.111
    1UNL    H20   47  -0.454   0.143  -0.034
    1UNL    H21   48  -0.598   0.021   0.170
    1UNL    H22   49  -0.499   0.046   0.312
    1UNL    H23   50  -0.532   0.177   0.211
    1UNL    H24   51  -0.387   0.222  -0.400
    1UNL    H25   52  -0.201   0.234  -0.397
    1UNL    H26   53  -0.308   0.360  -0.349
   0.00000   0.00000   0.00000   0.00000   0.00000   0.00000   0.00000   0.00000   0.00000
Generated with MDTraj, t= 52.0
 53
    1UNL     C1    1  -0.354  -0.260  -0.122
    1UNL     C2    2  -0.286  -0.232  -0.012
    1UNL     C3    3  -0.155  -0.178  -0.029
    1UNL     C4    4  -0.044  -0.260   0.038
    1UNL     N1    5   0.085  -0.193   0.035
    1UNL     C5    6   0.217  -0.257   0.075
    1UNL     C6    7   0.343  -0.178   0.042
    1UNL     C7    8   0.329  -0.038   0.083
    1UNL     C8    9   0.204   0.022   0.094
    1UNL     N2   10   0.231   0.159   0.118
    1UNL     C9   11   0.365   0.179   0.105
    1UNL    C10   12   0.432   0.296   0.142
    1UNL    C11   13   0.566   0.294   0.151
    1UNL    C12   14   0.638   0.171   0.111
    1UNL    C13   15   0.568   0.056   0.088
    1UNL    C14   16   0.429   0.057   0.090
    1UNL    C15   17   0.073  -0.052   0.086
    1UNL    C16   18  -0.023   0.025  -0.000
    1UNL    C17   19  -0.162  -0.023   0.018
    1UNL    C18   20  -0.268   0.055  -0.049
    1UNL    C19   21  -0.382   0.083   0.013
    1UNL     O1   22  -0.427   0.015   0.130
    1UNL    C20   23  -0.528   0.060   0.208
    1UNL    C21   24  -0.256   0.100  -0.192
    1UNL     O2   25  -0.177   0.041  -0.267
    1UNL     O3   26  -0.325   0.211  -0.231
    1UNL    C22   27  -0.288   0.252  -0.363
    1UNL     H1   28  -0.451  -0.306  -0.116
    1UNL     H2   29  -0.322  -0.223  -0.218
    1UNL     H3   30  -0.332  -0.258   0.076
    1UNL     H4   31  -0.133  -0.172  -0.139
    1UNL     H5   32  -0.058  -0.273   0.147
    1UNL     H6   33  -0.022  -0.354  -0.007
    1UNL     H7   34   0.215  -0.275   0.179
    1UNL     H8   35   0.223  -0.357   0.022
    1UNL     H9   36   0.362  -0.178  -0.064
    1UNL    H10   37   0.432  -0.229   0.090
    1UNL    H11   38   0.161   0.243   0.116
    1UNL    H12   39   0.377   0.384   0.153
    1UNL    H13   40   0.618   0.385   0.165
    1UNL    H14   41   0.740   0.168   0.133
    1UNL    H15   42   0.625  -0.034   0.082
    1UNL    H16   43   0.044  -0.065   0.188
    1UNL    H17   44  -0.012   0.129   0.022
    1UNL    H18   45   0.008   0.024  -0.109
    1UNL    H19   46  -0.179  -0.016   0.122
    1UNL    H20   47  -0.451   0.157  -0.023
    1UNL    H21   48  -0.615   0.051   0.151
    1UNL    H22   49  -0.527  -0.001   0.299
    1UNL    H23   50  -0.513   0.165   0.239
    1UNL    H24   51  -0.281   0.157  -0.427
    1UNL    H25   52  -0.202   0.322  -0.373
    1UNL    H26   53  -0.377   0.300  -0.391
   0.00000   0.00000   0.00000   0.00000   0.00000   0.00000   0.00000   0.00000   0.00000
Generated with MDTraj, t= 53.0
 53
    1UNL     C1    1  -0.383  -0.241  -0.116
    1UNL     C2    2  -0.275  -0.271  -0.041
    1UNL     C3    3  -0.150  -0.185  -0.042
    1UNL     C4    4  -0.031  -0.251   0.020
    1UNL     N1    5   0.092  -0.173   0.016
    1UNL     C5    6   0.205  -0.252   0.074
    1UNL     C6    7   0.335  -0.182   0.050
    1UNL     C7    8   0.329  -0.036   0.077
    1UNL     C8    9   0.209   0.029   0.103
    1UNL     N2   10   0.235   0.159   0.116
    1UNL     C9   11   0.373   0.185   0.122
    1UNL    C10   12   0.457   0.300   0.155
    1UNL    C11   13   0.595   0.289   0.132
    1UNL    C12   14   0.659   0.164   0.108
    1UNL    C13   15   0.577   0.055   0.078
    1UNL    C14   16   0.431   0.063   0.090
    1UNL    C15   17   0.075  -0.040   0.088
    1UNL    C16   18  -0.043   0.037   0.024
    1UNL    C17   19  -0.173  -0.043   0.022
    1UNL    C18   20  -0.279   0.036  -0.049
    1UNL    C19   21  -0.403   0.068   0.011
    1UNL     O1   22  -0.431   0.042   0.144
    1UNL    C20   23  -0.561   0.075   0.180
    1UNL    C21   24  -0.245   0.091  -0.182
    1UNL     O2   25  -0.133   0.082  -0.231
    1UNL     O3   26  -0.350   0.167  -0.236
    1UNL    C22   27  -0.300   0.230  -0.351
    1UNL     H1   28  -0.478  -0.293  -0.116
    1UNL     H2   29  -0.387  -0.155  -0.179
    1UNL     H3   30  -0.290  -0.356   0.030
    1UNL     H4   31  -0.131  -0.166  -0.151
    1UNL     H5   32  -0.045  -0.281   0.126
    1UNL     H6   33  -0.003  -0.338  -0.034
    1UNL     H7   34   0.183  -0.257   0.176
    1UNL     H8   35   0.208  -0.361   0.036
    1UNL     H9   36   0.360  -0.205  -0.053
    1UNL    H10   37   0.417  -0.227   0.114
    1UNL    H11   38   0.156   0.228   0.124
    1UNL    H12   39   0.401   0.399   0.161
    1UNL    H13   40   0.656   0.381   0.132
    1UNL    H14   41   0.769   0.158   0.117
    1UNL    H15   42   0.633  -0.045   0.061
    1UNL    H16   43   0.047  -0.071   0.187
    1UNL    H17   44  -0.060   0.126   0.081
    1UNL    H18   45  -0.017   0.080  -0.078
    1UNL    H19   46  -0.206  -0.065   0.120
    1UNL    H20   47  -0.484   0.117  -0.047
    1UNL    H21   48  -0.625   0.030   0.105
    1UNL    H22   49  -0.592   0.051   0.287
    1UNL    H23   50  -0.571   0.188   0.163
    1UNL    H24   51  -0.267   0.147  -0.428
    1UNL    H25   52  -0.209   0.293  -0.328
    1UNL    H26   53  -0.383   0.287  -0.383
   0.00000   0.00000   0.00000   0.00000   0.00000   0.00000   0.00000   0.00000   0.00000
Generated with MDTraj, t= 54.0
 53
    1UNL     C1    1  -0.378  -0.215  -0.126
    1UNL     C2    2  -0.265  -0.256  -0.062
    1UNL     C3    3  -0.143  -0.165  -0.048
    1UNL     C4    4  -0.038  -0.245   0.025
    1UNL     N1    5   0.089  -0.175   0.028
    1UNL     C5    6   0.200  -0.260   0.061
    1UNL     C6    7   0.334  -0.183   0.039
    1UNL     C7    8   0.334  -0.036   0.076
    1UNL     C8    9   0.219   0.021   0.115
    1UNL     N2   10   0.238   0.154   0.142
    1UNL     C9   11   0.373   0.185   0.112
    1UNL    C10   12   0.445   0.305   0.136
    1UNL    C11   13   0.584   0.286   0.129
    1UNL    C12   14   0.646   0.166   0.092
    1UNL    C13   15   0.576   0.045   0.077
    1UNL    C14   16   0.438   0.055   0.095
    1UNL    C15   17   0.085  -0.051   0.111
    1UNL    C16   18  -0.029   0.040   0.050
    1UNL    C17   19  -0.167  -0.034   0.032
    1UNL    C18   20  -0.265   0.050  -0.039
    1UNL    C19   21  -0.390   0.073   0.013
    1UNL     O1   22  -0.436   0.032   0.136
    1UNL    C20   23  -0.574   0.076   0.159
    1UNL    C21   24  -0.242   0.103  -0.173
    1UNL     O2   25  -0.130   0.107  -0.222
    1UNL     O3   26  -0.355   0.153  -0.229
    1UNL    C22   27  -0.325   0.180  -0.370
    1UNL     H1   28  -0.462  -0.279  -0.148
    1UNL     H2   29  -0.386  -0.119  -0.176
    1UNL     H3   30  -0.261  -0.356  -0.026
    1UNL     H4   31  -0.098  -0.136  -0.146
    1UNL     H5   32  -0.066  -0.263   0.132
    1UNL     H6   33  -0.021  -0.340  -0.019
    1UNL     H7   34   0.194  -0.296   0.160
    1UNL     H8   35   0.187  -0.348  -0.013
    1UNL     H9   36   0.368  -0.194  -0.063
    1UNL    H10   37   0.407  -0.240   0.103
    1UNL    H11   38   0.174   0.215   0.189
    1UNL    H12   39   0.397   0.392   0.161
    1UNL    H13   40   0.636   0.375   0.153
    1UNL    H14   41   0.754   0.170   0.086
    1UNL    H15   42   0.620  -0.045   0.063
    1UNL    H16   43   0.053  -0.072   0.213
    1UNL    H17   44  -0.041   0.126   0.112
    1UNL    H18   45   0.015   0.088  -0.040
    1UNL    H19   46  -0.199  -0.065   0.127
    1UNL    H20   47  -0.461   0.118  -0.055
    1UNL    H21   48  -0.648  -0.002   0.129
    1UNL    H22   49  -0.582   0.095   0.274
    1UNL    H23   50  -0.607   0.173   0.106
    1UNL    H24   51  -0.288   0.087  -0.430
    1UNL    H25   52  -0.234   0.247  -0.371
    1UNL    H26   53  -0.413   0.229  -0.404
   0.00000   0.00000   0.00000   0.00000   0.00000   0.00000   0.00000   0.00000   0.00000
Generated with MDTraj, t= 55.0
 53
    1UNL     C1    1  -0.362  -0.195  -0.167
    1UNL     C2    2  -0.283  -0.207  -0.059
    1UNL     C3    3  -0.147  -0.154  -0.046
    1UNL     C4    4  -0.046  -0.249   0.026
    1UNL     N1    5   0.088  -0.181   0.039
    1UNL     C5    6   0.209  -0.269   0.069
    1UNL     C6    7   0.339  -0.186   0.039
    1UNL     C7    8   0.324  -0.045   0.083
    1UNL     C8    9   0.207   0.017   0.117
    1UNL     N2   10   0.236   0.146   0.153
    1UNL     C9   11   0.371   0.175   0.135
    1UNL    C10   12   0.446   0.289   0.156
    1UNL    C11   13   0.577   0.294   0.118
    1UNL    C12   14   0.636   0.176   0.071
    1UNL    C13   15   0.565   0.061   0.058
    1UNL    C14   16   0.431   0.054   0.094
    1UNL    C15   17   0.075  -0.052   0.112
    1UNL    C16   18  -0.021   0.047   0.040
    1UNL    C17   19  -0.160  -0.023   0.033
    1UNL    C18   20  -0.259   0.081  -0.027
    1UNL    C19   21  -0.378   0.092   0.034
    1UNL     O1   22  -0.423   0.033   0.148
    1UNL    C20   23  -0.564   0.041   0.176
    1UNL    C21   24  -0.251   0.104  -0.175
    1UNL     O2   25  -0.138   0.083  -0.222
    1UNL     O3   26  -0.354   0.143  -0.250
    1UNL    C22   27  -0.305   0.152  -0.386
    1UNL     H1   28  -0.464  -0.223  -0.160
    1UNL     H2   29  -0.323  -0.158  -0.261
    1UNL     H3   30  -0.320  -0.256   0.030
    1UNL     H4   31  -0.102  -0.127  -0.145
    1UNL     H5   32  -0.077  -0.281   0.128
    1UNL     H6   33  -0.031  -0.339  -0.026
    1UNL     H7   34   0.196  -0.308   0.167
    1UNL     H8   35   0.210  -0.353  -0.010
    1UNL     H9   36   0.356  -0.186  -0.070
    1UNL    H10   37   0.432  -0.225   0.085
    1UNL    H11   38   0.182   0.213   0.199
    1UNL    H12   39   0.390   0.370   0.210
    1UNL    H13   40   0.624   0.392   0.109
    1UNL    H14   41   0.742   0.171   0.063
    1UNL    H15   42   0.628  -0.027   0.029
    1UNL    H16   43   0.024  -0.068   0.208
    1UNL    H17   44  -0.014   0.145   0.084
    1UNL    H18   45   0.020   0.069  -0.061
    1UNL    H19   46  -0.194  -0.044   0.130
    1UNL    H20   47  -0.463   0.146  -0.000
    1UNL    H21   48  -0.630   0.049   0.084
    1UNL    H22   49  -0.580  -0.056   0.235
    1UNL    H23   50  -0.595   0.127   0.243
    1UNL    H24   51  -0.239   0.064  -0.420
    1UNL    H25   52  -0.230   0.233  -0.378
    1UNL    H26   53  -0.391   0.177  -0.441
   0.00000   0.00000   0.00000   0.00000   0.00000   0.00000   0.00000   0.00000   0.00000
Generated with MDTraj, t= 56.0
 53
    1UNL     C1    1  -0.339  -0.240  -0.177
    1UNL     C2    2  -0.274  -0.235  -0.063
    1UNL     C3    3  -0.149  -0.159  -0.047
    1UNL     C4    4  -0.056  -0.245   0.038
    1UNL     N1    5   0.080  -0.179   0.050
    1UNL     C5    6   0.206  -0.255   0.065
    1UNL     C6    7   0.326  -0.177   0.027
    1UNL     C7    8   0.321  -0.033   0.077
    1UNL     C8    9   0.203   0.023   0.123
    1UNL     N2   10   0.232   0.153   0.169
    1UNL     C9   11   0.371   0.174   0.152
    1UNL    C10   12   0.463   0.287   0.172
    1UNL    C11   13   0.583   0.281   0.112
    1UNL    C12   14   0.637   0.165   0.059
    1UNL    C13   15   0.558   0.055   0.050
    1UNL    C14   16   0.424   0.062   0.096
    1UNL    C15   17   0.073  -0.045   0.127
    1UNL    C16   18  -0.037   0.050   0.065
    1UNL    C17   19  -0.174  -0.026   0.026
    1UNL    C18   20  -0.271   0.057  -0.052
    1UNL    C19   21  -0.388   0.092   0.020
    1UNL     O1   22  -0.401   0.043   0.149
    1UNL    C20   23  -0.535   0.044   0.193
    1UNL    C21   24  -0.245   0.101  -0.191
    1UNL     O2   25  -0.132   0.087  -0.235
    1UNL     O3   26  -0.350   0.162  -0.251
    1UNL    C22   27  -0.316   0.176  -0.388
    1UNL     H1   28  -0.442  -0.276  -0.179
    1UNL     H2   29  -0.292  -0.203  -0.266
    1UNL     H3   30  -0.319  -0.274   0.030
    1UNL     H4   31  -0.111  -0.146  -0.151
    1UNL     H5   32  -0.105  -0.260   0.138
    1UNL     H6   33  -0.046  -0.345   0.005
    1UNL     H7   34   0.221  -0.283   0.167
    1UNL     H8   35   0.193  -0.349   0.001
    1UNL     H9   36   0.348  -0.167  -0.081
    1UNL    H10   37   0.417  -0.219   0.071
    1UNL    H11   38   0.175   0.230   0.175
    1UNL    H12   39   0.424   0.381   0.204
    1UNL    H13   40   0.640   0.369   0.094
    1UNL    H14   41   0.741   0.167   0.016
    1UNL    H15   42   0.585  -0.045   0.011
    1UNL    H16   43   0.039  -0.084   0.226
    1UNL    H17   44  -0.056   0.125   0.141
    1UNL    H18   45   0.014   0.105  -0.016
    1UNL    H19   46  -0.222  -0.055   0.115
    1UNL    H20   47  -0.469   0.151  -0.017
    1UNL    H21   48  -0.606   0.009   0.111
    1UNL    H22   49  -0.540  -0.020   0.283
    1UNL    H23   50  -0.569   0.145   0.217
    1UNL    H24   51  -0.294   0.083  -0.441
    1UNL    H25   52  -0.227   0.236  -0.385
    1UNL    H26   53  -0.401   0.223  -0.427
   0.00000   0.00000   0.00000   0.00000   0.00000   0.00000   0.00000   0.00000   0.00000
Generated with MDTraj, t= 57.0
 53
    1UNL     C1    1  -0.321  -0.262  -0.189
    1UNL     C2    2  -0.273  -0.243  -0.068
    1UNL     C3    3  -0.137  -0.176  -0.042
    1UNL     C4    4  -0.045  -0.254   0.055
    1UNL     N1    5   0.087  -0.185   0.056
    1UNL     C5    6   0.209  -0.256   0.080
    1UNL     C6    7   0.321  -0.181   0.015
    1UNL     C7    8   0.319  -0.033   0.058
    1UNL     C8    9   0.209   0.029   0.113
    1UNL     N2   10   0.238   0.155   0.171
    1UNL     C9   11   0.369   0.184   0.134
    1UNL    C10   12   0.451   0.290   0.163
    1UNL    C11   13   0.584   0.283   0.142
    1UNL    C12   14   0.635   0.167   0.075
    1UNL    C13   15   0.563   0.057   0.048
    1UNL    C14   16   0.427   0.065   0.078
    1UNL    C15   17   0.075  -0.045   0.108
    1UNL    C16   18  -0.029   0.036   0.019
    1UNL    C17   19  -0.166  -0.035   0.025
    1UNL    C18   20  -0.271   0.043  -0.039
    1UNL    C19   21  -0.396   0.073   0.012
    1UNL     O1   22  -0.429   0.054   0.148
    1UNL    C20   23  -0.552   0.103   0.186
    1UNL    C21   24  -0.244   0.091  -0.178
    1UNL     O2   25  -0.141   0.062  -0.236
    1UNL     O3   26  -0.351   0.165  -0.224
    1UNL    C22   27  -0.318   0.219  -0.355
    1UNL     H1   28  -0.395  -0.340  -0.206
    1UNL     H2   29  -0.277  -0.207  -0.268
    1UNL     H3   30  -0.328  -0.284   0.011
    1UNL     H4   31  -0.087  -0.169  -0.139
    1UNL     H5   32  -0.088  -0.254   0.160
    1UNL     H6   33  -0.044  -0.357   0.029
    1UNL     H7   34   0.216  -0.243   0.188
    1UNL     H8   35   0.205  -0.366   0.052
    1UNL     H9   36   0.311  -0.178  -0.096
    1UNL    H10   37   0.421  -0.217   0.036
    1UNL    H11   38   0.179   0.203   0.231
    1UNL    H12   39   0.405   0.385   0.182
    1UNL    H13   40   0.655   0.364   0.162
    1UNL    H14   41   0.736   0.167   0.058
    1UNL    H15   42   0.612  -0.027   0.016
    1UNL    H16   43   0.039  -0.062   0.213
    1UNL    H17   44  -0.021   0.138   0.058
    1UNL    H18   45   0.010   0.034  -0.082
    1UNL    H19   46  -0.188  -0.061   0.125
    1UNL    H20   47  -0.473   0.112  -0.057
    1UNL    H21   48  -0.628   0.032   0.145
    1UNL    H22   49  -0.557   0.116   0.291
    1UNL    H23   50  -0.573   0.188   0.127
    1UNL    H24   51  -0.314   0.143  -0.433
    1UNL    H25   52  -0.230   0.277  -0.345
    1UNL    H26   53  -0.403   0.275  -0.382
   0.00000   0.00000   0.00000   0.00000   0.00000   0.00000   0.00000   0.00000   0.00000
Generated with MDTraj, t= 58.0
 53
    1UNL     C1    1  -0.331  -0.289  -0.175
    1UNL     C2    2  -0.258  -0.279  -0.067
    1UNL     C3    3  -0.146  -0.182  -0.037
    1UNL     C4    4  -0.044  -0.253   0.042
    1UNL     N1    5   0.089  -0.179   0.033
    1UNL     C5    6   0.212  -0.263   0.066
    1UNL     C6    7   0.342  -0.181   0.022
    1UNL     C7    8   0.326  -0.036   0.064
    1UNL     C8    9   0.210   0.025   0.098
    1UNL     N2   10   0.227   0.156   0.133
    1UNL     C9   11   0.365   0.183   0.122
    1UNL    C10   12   0.444   0.297   0.164
    1UNL    C11   13   0.583   0.283   0.152
    1UNL    C12   14   0.648   0.175   0.102
    1UNL    C13   15   0.569   0.069   0.056
    1UNL    C14   16   0.429   0.065   0.072
    1UNL    C15   17   0.079  -0.048   0.105
    1UNL    C16   18  -0.038   0.042   0.047
    1UNL    C17   19  -0.175  -0.036   0.032
    1UNL    C18   20  -0.278   0.046  -0.039
    1UNL    C19   21  -0.396   0.083   0.014
    1UNL     O1   22  -0.439   0.057   0.143
    1UNL    C20   23  -0.548   0.126   0.196
    1UNL    C21   24  -0.256   0.084  -0.179
    1UNL     O2   25  -0.165   0.030  -0.243
    1UNL     O3   26  -0.337   0.183  -0.224
    1UNL    C22   27  -0.295   0.236  -0.351
    1UNL     H1   28  -0.424  -0.341  -0.183
    1UNL     H2   29  -0.304  -0.224  -0.258
    1UNL     H3   30  -0.302  -0.332   0.022
    1UNL     H4   31  -0.099  -0.146  -0.128
    1UNL     H5   32  -0.082  -0.259   0.149
    1UNL     H6   33  -0.030  -0.354   0.008
    1UNL     H7   34   0.217  -0.288   0.174
    1UNL     H8   35   0.202  -0.358   0.009
    1UNL     H9   36   0.352  -0.173  -0.089
    1UNL    H10   37   0.435  -0.224   0.055
    1UNL    H11   38   0.172   0.207   0.197
    1UNL    H12   39   0.406   0.395   0.199
    1UNL    H13   40   0.638   0.366   0.184
    1UNL    H14   41   0.755   0.150   0.125
    1UNL    H15   42   0.614  -0.031   0.021
    1UNL    H16   43   0.055  -0.061   0.214
    1UNL    H17   44  -0.058   0.127   0.116
    1UNL    H18   45   0.002   0.080  -0.045
    1UNL    H19   46  -0.216  -0.053   0.128
    1UNL    H20   47  -0.472   0.153  -0.027
    1UNL    H21   48  -0.614   0.149   0.113
    1UNL    H22   49  -0.593   0.062   0.264
    1UNL    H23   50  -0.519   0.214   0.238
    1UNL    H24   51  -0.301   0.158  -0.429
    1UNL    H25   52  -0.210   0.303  -0.344
    1UNL    H26   53  -0.385   0.293  -0.373
   0.00000   0.00000   0.00000   0.00000   0.00000   0.00000   0.00000   0.00000   0.00000
Generated with MDTraj, t= 59.0
 53
    1UNL     C1    1  -0.369  -0.278  -0.152
    1UNL     C2    2  -0.293  -0.249  -0.045
    1UNL     C3    3  -0.155  -0.180  -0.058
    1UNL     C4    4  -0.036  -0.260  -0.003
    1UNL     N1    5   0.086  -0.183   0.007
    1UNL     C5    6   0.214  -0.257   0.045
    1UNL     C6    7   0.341  -0.163   0.026
    1UNL     C7    8   0.320  -0.032   0.079
    1UNL     C8    9   0.200   0.033   0.097
    1UNL     N2   10   0.225   0.164   0.127
    1UNL     C9   11   0.359   0.190   0.137
    1UNL    C10   12   0.431   0.310   0.155
    1UNL    C11   13   0.571   0.293   0.134
    1UNL    C12   14   0.632   0.174   0.103
    1UNL    C13   15   0.558   0.055   0.092
    1UNL    C14   16   0.421   0.064   0.115
    1UNL    C15   17   0.073  -0.060   0.093
    1UNL    C16   18  -0.037   0.032   0.032
    1UNL    C17   19  -0.169  -0.044   0.023
    1UNL    C18   20  -0.270   0.042  -0.039
    1UNL    C19   21  -0.382   0.085   0.030
    1UNL     O1   22  -0.406   0.053   0.160
    1UNL    C20   23  -0.526   0.113   0.213
    1UNL    C21   24  -0.242   0.085  -0.177
    1UNL     O2   25  -0.159   0.019  -0.235
    1UNL     O3   26  -0.317   0.186  -0.227
    1UNL    C22   27  -0.274   0.217  -0.362
    1UNL     H1   28  -0.460  -0.335  -0.155
    1UNL     H2   29  -0.349  -0.245  -0.252
    1UNL     H3   30  -0.314  -0.285   0.050
    1UNL     H4   31  -0.133  -0.148  -0.158
    1UNL     H5   32  -0.062  -0.292   0.100
    1UNL     H6   33  -0.024  -0.347  -0.066
    1UNL     H7   34   0.197  -0.299   0.150
    1UNL     H8   35   0.227  -0.344  -0.019
    1UNL     H9   36   0.373  -0.160  -0.080
    1UNL    H10   37   0.425  -0.203   0.080
    1UNL    H11   38   0.168   0.236   0.083
    1UNL    H12   39   0.383   0.400   0.175
    1UNL    H13   40   0.640   0.379   0.144
    1UNL    H14   41   0.736   0.163   0.087
    1UNL    H15   42   0.613  -0.033   0.074
    1UNL    H16   43   0.032  -0.088   0.194
    1UNL    H17   44  -0.042   0.122   0.097
    1UNL    H18   45  -0.010   0.060  -0.067
    1UNL    H19   46  -0.203  -0.077   0.118
    1UNL    H20   47  -0.457   0.139  -0.021
    1UNL    H21   48  -0.614   0.078   0.161
    1UNL    H22   49  -0.526   0.078   0.311
    1UNL    H23   50  -0.525   0.216   0.216
    1UNL    H24   51  -0.321   0.137  -0.427
    1UNL    H25   52  -0.166   0.231  -0.377
    1UNL    H26   53  -0.327   0.311  -0.390
   0.00000   0.00000   0.00000   0.00000   0.00000   0.00000   0.00000   0.00000   0.00000
Generated with MDTraj, t= 60.0
 53
    1UNL     C1    1  -0.379  -0.250  -0.123
    1UNL     C2    2  -0.277  -0.257  -0.040
    1UNL     C3    3  -0.150  -0.183  -0.050
    1UNL     C4    4  -0.031  -0.257   0.021
    1UNL     N1    5   0.100  -0.195   0.018
    1UNL     C5    6   0.221  -0.279   0.044
    1UNL     C6    7   0.343  -0.190   0.046
    1UNL     C7    8   0.330  -0.042   0.075
    1UNL     C8    9   0.206   0.004   0.097
    1UNL     N2   10   0.211   0.135   0.139
    1UNL     C9   11   0.342   0.178   0.130
    1UNL    C10   12   0.408   0.306   0.150
    1UNL    C11   13   0.546   0.310   0.141
    1UNL    C12   14   0.625   0.190   0.123
    1UNL    C13   15   0.566   0.072   0.093
    1UNL    C14   16   0.425   0.062   0.097
    1UNL    C15   17   0.077  -0.069   0.095
    1UNL    C16   18  -0.025   0.023   0.015
    1UNL    C17   19  -0.167  -0.039   0.019
    1UNL    C18   20  -0.266   0.055  -0.051
    1UNL    C19   21  -0.374   0.092   0.024
    1UNL     O1   22  -0.378   0.060   0.158
    1UNL    C20   23  -0.503   0.104   0.217
    1UNL    C21   24  -0.250   0.101  -0.197
    1UNL     O2   25  -0.163   0.045  -0.261
    1UNL     O3   26  -0.338   0.191  -0.244
    1UNL    C22   27  -0.302   0.235  -0.377
    1UNL     H1   28  -0.469  -0.307  -0.102
    1UNL     H2   29  -0.388  -0.181  -0.204
    1UNL     H3   30  -0.282  -0.318   0.055
    1UNL     H4   31  -0.117  -0.158  -0.149
    1UNL     H5   32  -0.063  -0.278   0.126
    1UNL     H6   33  -0.022  -0.352  -0.032
    1UNL     H7   34   0.212  -0.329   0.148
    1UNL     H8   35   0.226  -0.364  -0.024
    1UNL     H9   36   0.394  -0.202  -0.051
    1UNL    H10   37   0.410  -0.232   0.119
    1UNL    H11   38   0.126   0.190   0.164
    1UNL    H12   39   0.360   0.405   0.175
    1UNL    H13   40   0.591   0.404   0.137
    1UNL    H14   41   0.732   0.203   0.114
    1UNL    H15   42   0.620  -0.014   0.063
    1UNL    H16   43   0.033  -0.090   0.197
    1UNL    H17   44  -0.035   0.126   0.059
    1UNL    H18   45   0.018   0.030  -0.081
    1UNL    H19   46  -0.186  -0.062   0.120
    1UNL    H20   47  -0.450   0.150  -0.024
    1UNL    H21   48  -0.571   0.018   0.224
    1UNL    H22   49  -0.486   0.143   0.315
    1UNL    H23   50  -0.552   0.183   0.164
    1UNL    H24   51  -0.310   0.145  -0.443
    1UNL    H25   52  -0.201   0.281  -0.387
    1UNL    H26   53  -0.380   0.313  -0.413
   0.00000   0.00000   0.00000   0.00000   0.00000   0.00000   0.00000   0.00000   0.00000
Generated with MDTraj, t= 61.0
 53
    1UNL     C1    1  -0.388  -0.222  -0.115
    1UNL     C2    2  -0.280  -0.268  -0.066
    1UNL     C3    3  -0.151  -0.192  -0.067
    1UNL     C4    4  -0.035  -0.268   0.003
    1UNL     N1    5   0.093  -0.194   0.022
    1UNL     C5    6   0.211  -0.261   0.082
    1UNL     C6    7   0.338  -0.182   0.047
    1UNL     C7    8   0.329  -0.035   0.076
    1UNL     C8    9   0.205   0.018   0.104
    1UNL     N2   10   0.223   0.151   0.155
    1UNL     C9   11   0.358   0.186   0.144
    1UNL    C10   12   0.426   0.305   0.167
    1UNL    C11   13   0.559   0.301   0.149
    1UNL    C12   14   0.630   0.179   0.110
    1UNL    C13   15   0.565   0.065   0.086
    1UNL    C14   16   0.422   0.070   0.101
    1UNL    C15   17   0.075  -0.059   0.085
    1UNL    C16   18  -0.019   0.028  -0.002
    1UNL    C17   19  -0.157  -0.046   0.001
    1UNL    C18   20  -0.263   0.036  -0.058
    1UNL    C19   21  -0.361   0.079   0.021
    1UNL     O1   22  -0.377   0.057   0.157
    1UNL    C20   23  -0.493   0.125   0.202
    1UNL    C21   24  -0.253   0.083  -0.195
    1UNL     O2   25  -0.160   0.051  -0.265
    1UNL     O3   26  -0.351   0.171  -0.231
    1UNL    C22   27  -0.340   0.220  -0.361
    1UNL     H1   28  -0.478  -0.281  -0.104
    1UNL     H2   29  -0.388  -0.123  -0.155
    1UNL     H3   30  -0.273  -0.359  -0.014
    1UNL     H4   31  -0.126  -0.171  -0.170
    1UNL     H5   32  -0.075  -0.302   0.099
    1UNL     H6   33  -0.016  -0.359  -0.055
    1UNL     H7   34   0.194  -0.276   0.197
    1UNL     H8   35   0.229  -0.363   0.050
    1UNL     H9   36   0.361  -0.193  -0.058
    1UNL    H10   37   0.423  -0.223   0.099
    1UNL    H11   38   0.165   0.198   0.231
    1UNL    H12   39   0.367   0.385   0.199
    1UNL    H13   40   0.622   0.391   0.147
    1UNL    H14   41   0.739   0.186   0.099
    1UNL    H15   42   0.614  -0.025   0.036
    1UNL    H16   43   0.028  -0.074   0.186
    1UNL    H17   44  -0.022   0.129   0.047
    1UNL    H18   45   0.010   0.037  -0.104
    1UNL    H19   46  -0.186  -0.062   0.102
    1UNL    H20   47  -0.434   0.161  -0.000
    1UNL    H21   48  -0.573   0.111   0.126
    1UNL    H22   49  -0.535   0.083   0.297
    1UNL    H23   50  -0.469   0.232   0.226
    1UNL    H24   51  -0.299   0.147  -0.434
    1UNL    H25   52  -0.283   0.312  -0.365
    1UNL    H26   53  -0.446   0.250  -0.395
   0.00000   0.00000   0.00000   0.00000   0.00000   0.00000   0.00000   0.00000   0.00000
Generated with MDTraj, t= 62.0
 53
    1UNL     C1    1  -0.372  -0.235  -0.150
    1UNL     C2    2  -0.271  -0.258  -0.072
    1UNL     C3    3  -0.142  -0.178  -0.060
    1UNL     C4    4  -0.033  -0.253   0.018
    1UNL     N1    5   0.092  -0.171   0.012
    1UNL     C5    6   0.209  -0.253   0.051
    1UNL     C6    7   0.350  -0.178   0.039
    1UNL     C7    8   0.329  -0.041   0.089
    1UNL     C8    9   0.202   0.025   0.104
    1UNL     N2   10   0.232   0.156   0.144
    1UNL     C9   11   0.370   0.179   0.138
    1UNL    C10   12   0.449   0.289   0.175
    1UNL    C11   13   0.584   0.291   0.161
    1UNL    C12   14   0.645   0.175   0.108
    1UNL    C13   15   0.570   0.060   0.092
    1UNL    C14   16   0.429   0.057   0.107
    1UNL    C15   17   0.074  -0.043   0.094
    1UNL    C16   18  -0.039   0.045   0.039
    1UNL    C17   19  -0.167  -0.037   0.011
    1UNL    C18   20  -0.275   0.043  -0.050
    1UNL    C19   21  -0.383   0.079   0.023
    1UNL     O1   22  -0.404   0.045   0.156
    1UNL    C20   23  -0.482   0.133   0.224
    1UNL    C21   24  -0.266   0.088  -0.190
    1UNL     O2   25  -0.171   0.052  -0.255
    1UNL     O3   26  -0.371   0.157  -0.254
    1UNL    C22   27  -0.345   0.180  -0.391
    1UNL     H1   28  -0.444  -0.314  -0.153
    1UNL     H2   29  -0.387  -0.136  -0.194
    1UNL     H3   30  -0.255  -0.354  -0.021
    1UNL     H4   31  -0.105  -0.162  -0.161
    1UNL     H5   32  -0.066  -0.281   0.117
    1UNL     H6   33  -0.023  -0.350  -0.034
    1UNL     H7   34   0.205  -0.296   0.160
    1UNL     H8   35   0.214  -0.341  -0.011
    1UNL     H9   36   0.380  -0.179  -0.064
    1UNL    H10   37   0.428  -0.227   0.098
    1UNL    H11   38   0.167   0.243   0.136
    1UNL    H12   39   0.397   0.377   0.216
    1UNL    H13   40   0.638   0.366   0.218
    1UNL    H14   41   0.752   0.176   0.096
    1UNL    H15   42   0.611  -0.034   0.082
    1UNL    H16   43   0.051  -0.083   0.195
    1UNL    H17   44  -0.060   0.123   0.117
    1UNL    H18   45  -0.006   0.088  -0.052
    1UNL    H19   46  -0.206  -0.068   0.106
    1UNL    H20   47  -0.464   0.128  -0.031
    1UNL    H21   48  -0.585   0.133   0.183
    1UNL    H22   49  -0.494   0.089   0.330
    1UNL    H23   50  -0.427   0.234   0.242
    1UNL    H24   51  -0.350   0.097  -0.458
    1UNL    H25   52  -0.251   0.220  -0.406
    1UNL    H26   53  -0.417   0.261  -0.426
   0.00000   0.00000   0.00000   0.00000   0.00000   0.00000   0.00000   0.00000   0.00000
Generated with MDTraj, t= 63.0
 53
    1UNL     C1    1  -0.335  -0.242  -0.191
    1UNL     C2    2  -0.277  -0.244  -0.074
    1UNL     C3    3  -0.147  -0.161  -0.055
    1UNL     C4    4  -0.036  -0.248   0.004
    1UNL     N1    5   0.095  -0.175   0.011
    1UNL     C5    6   0.214  -0.251   0.035
    1UNL     C6    7   0.344  -0.169   0.010
    1UNL     C7    8   0.328  -0.033   0.079
    1UNL     C8    9   0.213   0.029   0.107
    1UNL     N2   10   0.225   0.162   0.127
    1UNL     C9   11   0.367   0.181   0.142
    1UNL    C10   12   0.441   0.289   0.178
    1UNL    C11   13   0.582   0.279   0.170
    1UNL    C12   14   0.640   0.156   0.136
    1UNL    C13   15   0.569   0.047   0.097
    1UNL    C14   16   0.429   0.061   0.094
    1UNL    C15   17   0.085  -0.044   0.092
    1UNL    C16   18  -0.025   0.037   0.025
    1UNL    C17   19  -0.168  -0.025   0.025
    1UNL    C18   20  -0.275   0.060  -0.031
    1UNL    C19   21  -0.380   0.104   0.047
    1UNL     O1   22  -0.398   0.070   0.177
    1UNL    C20   23  -0.521   0.129   0.218
    1UNL    C21   24  -0.261   0.080  -0.181
    1UNL     O2   25  -0.167   0.042  -0.247
    1UNL     O3   26  -0.372   0.139  -0.243
    1UNL    C22   27  -0.350   0.138  -0.378
    1UNL     H1   28  -0.437  -0.280  -0.199
    1UNL     H2   29  -0.288  -0.196  -0.275
    1UNL     H3   30  -0.318  -0.283   0.019
    1UNL     H4   31  -0.108  -0.135  -0.152
    1UNL     H5   32  -0.079  -0.277   0.098
    1UNL     H6   33  -0.032  -0.348  -0.046
    1UNL     H7   34   0.213  -0.277   0.149
    1UNL     H8   35   0.218  -0.350  -0.008
    1UNL     H9   36   0.364  -0.154  -0.094
    1UNL    H10   37   0.426  -0.227   0.051
    1UNL    H11   38   0.148   0.240   0.124
    1UNL    H12   39   0.391   0.383   0.196
    1UNL    H13   40   0.634   0.371   0.184
    1UNL    H14   41   0.745   0.146   0.148
    1UNL    H15   42   0.620  -0.047   0.069
    1UNL    H16   43   0.052  -0.076   0.192
    1UNL    H17   44  -0.035   0.134   0.079
    1UNL    H18   45   0.007   0.059  -0.075
    1UNL    H19   46  -0.191  -0.049   0.125
    1UNL    H20   47  -0.444   0.165  -0.012
    1UNL    H21   48  -0.601   0.062   0.180
    1UNL    H22   49  -0.535   0.141   0.332
    1UNL    H23   50  -0.526   0.239   0.179
    1UNL    H24   51  -0.354   0.046  -0.427
    1UNL    H25   52  -0.259   0.177  -0.407
    1UNL    H26   53  -0.422   0.210  -0.423
   0.00000   0.00000   0.00000   0.00000   0.00000   0.00000   0.00000   0.00000   0.00000
Generated with MDTraj, t= 64.0
 53
    1UNL     C1    1  -0.319  -0.272  -0.198
    1UNL     C2    2  -0.287  -0.237  -0.076
    1UNL     C3    3  -0.156  -0.165  -0.049
    1UNL     C4    4  -0.038  -0.243   0.023
    1UNL     N1    5   0.089  -0.171   0.009
    1UNL     C5    6   0.214  -0.247   0.043
    1UNL     C6    7   0.347  -0.181   0.024
    1UNL     C7    8   0.338  -0.032   0.059
    1UNL     C8    9   0.215   0.026   0.097
    1UNL     N2   10   0.233   0.153   0.142
    1UNL     C9   11   0.374   0.174   0.140
    1UNL    C10   12   0.446   0.282   0.190
    1UNL    C11   13   0.587   0.276   0.192
    1UNL    C12   14   0.652   0.169   0.132
    1UNL    C13   15   0.579   0.061   0.085
    1UNL    C14   16   0.439   0.060   0.090
    1UNL    C15   17   0.084  -0.049   0.090
    1UNL    C16   18  -0.030   0.033   0.034
    1UNL    C17   19  -0.169  -0.032   0.031
    1UNL    C18   20  -0.273   0.056  -0.039
    1UNL    C19   21  -0.375   0.107   0.030
    1UNL     O1   22  -0.389   0.106   0.165
    1UNL    C20   23  -0.524   0.120   0.210
    1UNL    C21   24  -0.268   0.077  -0.186
    1UNL     O2   25  -0.171   0.055  -0.259
    1UNL     O3   26  -0.390   0.129  -0.237
    1UNL    C22   27  -0.381   0.154  -0.373
    1UNL     H1   28  -0.382  -0.353  -0.231
    1UNL     H2   29  -0.260  -0.228  -0.276
    1UNL     H3   30  -0.335  -0.275   0.008
    1UNL     H4   31  -0.109  -0.135  -0.142
    1UNL     H5   32  -0.062  -0.274   0.123
    1UNL     H6   33  -0.034  -0.344  -0.028
    1UNL     H7   34   0.199  -0.294   0.148
    1UNL     H8   35   0.214  -0.341  -0.013
    1UNL     H9   36   0.380  -0.195  -0.076
    1UNL    H10   37   0.430  -0.227   0.078
    1UNL    H11   38   0.164   0.202   0.210
    1UNL    H12   39   0.388   0.368   0.224
    1UNL    H13   40   0.643   0.369   0.224
    1UNL    H14   41   0.762   0.176   0.112
    1UNL    H15   42   0.631  -0.017   0.033
    1UNL    H16   43   0.042  -0.066   0.189
    1UNL    H17   44  -0.030   0.137   0.070
    1UNL    H18   45  -0.011   0.046  -0.072
    1UNL    H19   46  -0.207  -0.043   0.128
    1UNL    H20   47  -0.447   0.177  -0.010
    1UNL    H21   48  -0.583   0.062   0.142
    1UNL    H22   49  -0.544   0.079   0.314
    1UNL    H23   50  -0.551   0.232   0.214
    1UNL    H24   51  -0.336   0.077  -0.428
    1UNL    H25   52  -0.320   0.236  -0.396
    1UNL    H26   53  -0.480   0.182  -0.417
   0.00000   0.00000   0.00000   0.00000   0.00000   0.00000   0.00000   0.00000   0.00000
Generated with MDTraj, t= 65.0
 53
    1UNL     C1    1  -0.318  -0.301  -0.177
    1UNL     C2    2  -0.274  -0.242  -0.068
    1UNL     C3    3  -0.154  -0.160  -0.059
    1UNL     C4    4  -0.034  -0.241  -0.007
    1UNL     N1    5   0.089  -0.166   0.024
    1UNL     C5    6   0.218  -0.240   0.062
    1UNL     C6    7   0.338  -0.161   0.020
    1UNL     C7    8   0.327  -0.028   0.072
    1UNL     C8    9   0.209   0.029   0.119
    1UNL     N2   10   0.244   0.146   0.183
    1UNL     C9   11   0.376   0.173   0.157
    1UNL    C10   12   0.457   0.284   0.190
    1UNL    C11   13   0.590   0.275   0.164
    1UNL    C12   14   0.647   0.155   0.115
    1UNL    C13   15   0.569   0.048   0.086
    1UNL    C14   16   0.431   0.059   0.106
    1UNL    C15   17   0.070  -0.032   0.097
    1UNL    C16   18  -0.032   0.052   0.019
    1UNL    C17   19  -0.164  -0.020   0.011
    1UNL    C18   20  -0.275   0.057  -0.058
    1UNL    C19   21  -0.380   0.084   0.022
    1UNL     O1   22  -0.390   0.062   0.161
    1UNL    C20   23  -0.489   0.139   0.225
    1UNL    C21   24  -0.274   0.088  -0.202
    1UNL     O2   25  -0.184   0.054  -0.273
    1UNL     O3   26  -0.389   0.145  -0.243
    1UNL    C22   27  -0.386   0.160  -0.379
    1UNL     H1   28  -0.415  -0.348  -0.182
    1UNL     H2   29  -0.265  -0.305  -0.272
    1UNL     H3   30  -0.334  -0.254   0.025
    1UNL     H4   31  -0.129  -0.132  -0.162
    1UNL     H5   32  -0.060  -0.300   0.079
    1UNL     H6   33  -0.015  -0.328  -0.078
    1UNL     H7   34   0.227  -0.283   0.167
    1UNL     H8   35   0.211  -0.332   0.001
    1UNL     H9   36   0.349  -0.158  -0.086
    1UNL    H10   37   0.432  -0.207   0.049
    1UNL    H11   38   0.179   0.206   0.242
    1UNL    H12   39   0.416   0.363   0.250
    1UNL    H13   40   0.650   0.349   0.199
    1UNL    H14   41   0.749   0.155   0.092
    1UNL    H15   42   0.612  -0.044   0.057
    1UNL    H16   43   0.028  -0.047   0.196
    1UNL    H17   44  -0.056   0.143   0.075
    1UNL    H18   45   0.011   0.082  -0.078
    1UNL    H19   46  -0.192  -0.036   0.112
    1UNL    H20   47  -0.477   0.109  -0.023
    1UNL    H21   48  -0.584   0.099   0.201
    1UNL    H22   49  -0.470   0.117   0.330
    1UNL    H23   50  -0.476   0.248   0.215
    1UNL    H24   51  -0.355   0.068  -0.428
    1UNL    H25   52  -0.309   0.230  -0.411
    1UNL    H26   53  -0.483   0.200  -0.423
   0.00000   0.00000   0.00000   0.00000   0.00000   0.00000   0.00000   0.00000   0.00000
Generated with MDTraj, t= 66.0
 53
    1UNL     C1    1  -0.310  -0.322  -0.172
    1UNL     C2    2  -0.286  -0.244  -0.067
    1UNL     C3    3  -0.153  -0.164  -0.052
    1UNL     C4    4  -0.042  -0.239   0.023
    1UNL     N1    5   0.086  -0.176   0.026
    1UNL     C5    6   0.214  -0.258   0.040
    1UNL     C6    7   0.343  -0.173   0.025
    1UNL     C7    8   0.327  -0.033   0.070
    1UNL     C8    9   0.210   0.023   0.103
    1UNL     N2   10   0.226   0.153   0.148
    1UNL     C9   11   0.360   0.175   0.163
    1UNL    C10   12   0.441   0.281   0.204
    1UNL    C11   13   0.572   0.281   0.178
    1UNL    C12   14   0.636   0.168   0.118
    1UNL    C13   15   0.567   0.058   0.079
    1UNL    C14   16   0.428   0.062   0.097
    1UNL    C15   17   0.075  -0.036   0.080
    1UNL    C16   18  -0.024   0.050   0.009
    1UNL    C17   19  -0.160  -0.020   0.011
    1UNL    C18   20  -0.270   0.061  -0.053
    1UNL    C19   21  -0.369   0.106   0.032
    1UNL     O1   22  -0.381   0.064   0.166
    1UNL    C20   23  -0.482   0.137   0.237
    1UNL    C21   24  -0.271   0.088  -0.200
    1UNL     O2   25  -0.182   0.049  -0.268
    1UNL     O3   26  -0.381   0.155  -0.244
    1UNL    C22   27  -0.368   0.174  -0.379
    1UNL     H1   28  -0.406  -0.365  -0.188
    1UNL     H2   29  -0.240  -0.351  -0.247
    1UNL     H3   30  -0.364  -0.232   0.000
    1UNL     H4   31  -0.125  -0.146  -0.157
    1UNL     H5   32  -0.075  -0.284   0.114
    1UNL     H6   33  -0.017  -0.336  -0.032
    1UNL     H7   34   0.196  -0.312   0.136
    1UNL     H8   35   0.222  -0.338  -0.039
    1UNL     H9   36   0.386  -0.180  -0.073
    1UNL    H10   37   0.422  -0.212   0.088
    1UNL    H11   38   0.158   0.229   0.152
    1UNL    H12   39   0.400   0.352   0.272
    1UNL    H13   40   0.639   0.367   0.211
    1UNL    H14   41   0.748   0.166   0.114
    1UNL    H15   42   0.611  -0.030   0.024
    1UNL    H16   43   0.044  -0.060   0.180
    1UNL    H17   44  -0.019   0.146   0.058
    1UNL    H18   45   0.010   0.056  -0.096
    1UNL    H19   46  -0.178  -0.050   0.111
    1UNL    H20   47  -0.451   0.164  -0.013
    1UNL    H21   48  -0.572   0.136   0.182
    1UNL    H22   49  -0.492   0.089   0.329
    1UNL    H23   50  -0.451   0.237   0.257
    1UNL    H24   51  -0.396   0.079  -0.430
    1UNL    H25   52  -0.261   0.190  -0.411
    1UNL    H26   53  -0.426   0.260  -0.426
   0.00000   0.00000   0.00000   0.00000   0.00000   0.00000   0.00000   0.00000   0.00000
Generated with MDTraj, t= 67.0
 53
    1UNL     C1    1  -0.315  -0.352  -0.155
    1UNL     C2    2  -0.289  -0.253  -0.071
    1UNL     C3    3  -0.154  -0.178  -0.062
    1UNL     C4    4  -0.033  -0.255  -0.003
    1UNL     N1    5   0.091  -0.174   0.009
    1UNL     C5    6   0.214  -0.249   0.043
    1UNL     C6    7   0.340  -0.171   0.002
    1UNL     C7    8   0.329  -0.035   0.052
    1UNL     C8    9   0.207   0.021   0.084
    1UNL     N2   10   0.222   0.155   0.121
    1UNL     C9   11   0.357   0.173   0.137
    1UNL    C10   12   0.424   0.291   0.179
    1UNL    C11   13   0.559   0.286   0.189
    1UNL    C12   14   0.633   0.174   0.147
    1UNL    C13   15   0.573   0.059   0.101
    1UNL    C14   16   0.431   0.060   0.096
    1UNL    C15   17   0.079  -0.053   0.090
    1UNL    C16   18  -0.043   0.024   0.034
    1UNL    C17   19  -0.172  -0.045   0.017
    1UNL    C18   20  -0.262   0.060  -0.038
    1UNL    C19   21  -0.359   0.118   0.037
    1UNL     O1   22  -0.373   0.099   0.173
    1UNL    C20   23  -0.499   0.146   0.224
    1UNL    C21   24  -0.262   0.090  -0.182
    1UNL     O2   25  -0.178   0.046  -0.257
    1UNL     O3   26  -0.367   0.170  -0.234
    1UNL    C22   27  -0.342   0.192  -0.369
    1UNL     H1   28  -0.396  -0.420  -0.130
    1UNL     H2   29  -0.251  -0.375  -0.238
    1UNL     H3   30  -0.358  -0.240   0.016
    1UNL     H4   31  -0.136  -0.144  -0.165
    1UNL     H5   32  -0.049  -0.296   0.094
    1UNL     H6   33  -0.013  -0.355  -0.054
    1UNL     H7   34   0.223  -0.250   0.153
    1UNL     H8   35   0.198  -0.348  -0.011
    1UNL     H9   36   0.348  -0.167  -0.103
    1UNL    H10   37   0.425  -0.226   0.036
    1UNL    H11   38   0.152   0.218   0.150
    1UNL    H12   39   0.366   0.385   0.190
    1UNL    H13   40   0.615   0.365   0.235
    1UNL    H14   41   0.738   0.183   0.138
    1UNL    H15   42   0.620  -0.021   0.056
    1UNL    H16   43   0.063  -0.071   0.196
    1UNL    H17   44  -0.069   0.101   0.105
    1UNL    H18   45  -0.010   0.070  -0.062
    1UNL    H19   46  -0.216  -0.072   0.109
    1UNL    H20   47  -0.426   0.194   0.006
    1UNL    H21   48  -0.572   0.078   0.188
    1UNL    H22   49  -0.501   0.156   0.327
    1UNL    H23   50  -0.524   0.235   0.174
    1UNL    H24   51  -0.326   0.091  -0.414
    1UNL    H25   52  -0.252   0.261  -0.386
    1UNL    H26   53  -0.425   0.235  -0.431
   0.00000   0.00000   0.00000   0.00000   0.00000   0.00000   0.00000   0.00000   0.00000
Generated with MDTraj, t= 68.0
 53
    1UNL     C1    1  -0.294  -0.362  -0.139
    1UNL     C2    2  -0.267  -0.264  -0.054
    1UNL     C3    3  -0.154  -0.168  -0.061
    1UNL     C4    4  -0.038  -0.244  -0.002
    1UNL     N1    5   0.092  -0.170  -0.012
    1UNL     C5    6   0.217  -0.253   0.005
    1UNL     C6    7   0.348  -0.171   0.026
    1UNL     C7    8   0.320  -0.034   0.078
    1UNL     C8    9   0.197   0.022   0.100
    1UNL     N2   10   0.219   0.153   0.143
    1UNL     C9   11   0.353   0.176   0.138
    1UNL    C10   12   0.427   0.291   0.167
    1UNL    C11   13   0.563   0.281   0.171
    1UNL    C12   14   0.633   0.165   0.138
    1UNL    C13   15   0.561   0.057   0.096
    1UNL    C14   16   0.421   0.063   0.096
    1UNL    C15   17   0.076  -0.054   0.074
    1UNL    C16   18  -0.038   0.042   0.017
    1UNL    C17   19  -0.171  -0.032   0.012
    1UNL    C18   20  -0.286   0.041  -0.036
    1UNL    C19   21  -0.386   0.092   0.037
    1UNL     O1   22  -0.391   0.088   0.173
    1UNL    C20   23  -0.496   0.170   0.218
    1UNL    C21   24  -0.268   0.079  -0.179
    1UNL     O2   25  -0.177   0.037  -0.248
    1UNL     O3   26  -0.353   0.175  -0.231
    1UNL    C22   27  -0.313   0.210  -0.355
    1UNL     H1   28  -0.394  -0.401  -0.148
    1UNL     H2   29  -0.216  -0.389  -0.207
    1UNL     H3   30  -0.341  -0.227   0.013
    1UNL     H4   31  -0.131  -0.141  -0.166
    1UNL     H5   32  -0.052  -0.280   0.098
    1UNL     H6   33  -0.026  -0.345  -0.054
    1UNL     H7   34   0.191  -0.315   0.092
    1UNL     H8   35   0.233  -0.295  -0.101
    1UNL     H9   36   0.389  -0.156  -0.071
    1UNL    H10   37   0.420  -0.220   0.087
    1UNL    H11   38   0.155   0.203   0.194
    1UNL    H12   39   0.381   0.384   0.182
    1UNL    H13   40   0.628   0.361   0.198
    1UNL    H14   41   0.740   0.151   0.124
    1UNL    H15   42   0.614  -0.033   0.060
    1UNL    H16   43   0.035  -0.090   0.169
    1UNL    H17   44  -0.034   0.143   0.049
    1UNL    H18   45  -0.010   0.050  -0.091
    1UNL    H19   46  -0.192  -0.054   0.112
    1UNL    H20   47  -0.467   0.142  -0.012
    1UNL    H21   48  -0.596   0.138   0.187
    1UNL    H22   49  -0.479   0.177   0.321
    1UNL    H23   50  -0.487   0.265   0.171
    1UNL    H24   51  -0.318   0.124  -0.422
    1UNL    H25   52  -0.215   0.269  -0.349
    1UNL    H26   53  -0.386   0.280  -0.395
   0.00000   0.00000   0.00000   0.00000   0.00000   0.00000   0.00000   0.00000   0.00000
Generated with MDTraj, t= 69.0
 53
    1UNL     C1    1  -0.305  -0.371  -0.126
    1UNL     C2    2  -0.297  -0.254  -0.063
    1UNL     C3    3  -0.165  -0.183  -0.058
    1UNL     C4    4  -0.035  -0.258  -0.004
    1UNL     N1    5   0.090  -0.175   0.002
    1UNL     C5    6   0.211  -0.257   0.041
    1UNL     C6    7   0.350  -0.183   0.019
    1UNL     C7    8   0.329  -0.041   0.080
    1UNL     C8    9   0.210   0.016   0.107
    1UNL     N2   10   0.230   0.139   0.158
    1UNL     C9   11   0.363   0.177   0.145
    1UNL    C10   12   0.436   0.295   0.177
    1UNL    C11   13   0.571   0.302   0.164
    1UNL    C12   14   0.632   0.187   0.116
    1UNL    C13   15   0.564   0.068   0.085
    1UNL    C14   16   0.427   0.066   0.089
    1UNL    C15   17   0.074  -0.054   0.083
    1UNL    C16   18  -0.044   0.037   0.035
    1UNL    C17   19  -0.177  -0.044   0.016
    1UNL    C18   20  -0.280   0.044  -0.052
    1UNL    C19   21  -0.375   0.107   0.025
    1UNL     O1   22  -0.399   0.066   0.150
    1UNL    C20   23  -0.487   0.150   0.220
    1UNL    C21   24  -0.261   0.092  -0.191
    1UNL     O2   25  -0.177   0.042  -0.259
    1UNL     O3   26  -0.347   0.196  -0.234
    1UNL    C22   27  -0.336   0.229  -0.367
    1UNL     H1   28  -0.388  -0.435  -0.104
    1UNL     H2   29  -0.236  -0.406  -0.203
    1UNL     H3   30  -0.371  -0.220   0.008
    1UNL     H4   31  -0.136  -0.156  -0.163
    1UNL     H5   32  -0.059  -0.282   0.097
    1UNL     H6   33  -0.020  -0.361  -0.048
    1UNL     H7   34   0.206  -0.278   0.149
    1UNL     H8   35   0.197  -0.349  -0.025
    1UNL     H9   36   0.370  -0.167  -0.084
    1UNL    H10   37   0.434  -0.236   0.059
    1UNL    H11   38   0.155   0.198   0.163
    1UNL    H12   39   0.394   0.376   0.240
    1UNL    H13   40   0.633   0.392   0.195
    1UNL    H14   41   0.742   0.190   0.108
    1UNL    H15   42   0.618  -0.021   0.055
    1UNL    H16   43   0.034  -0.102   0.175
    1UNL    H17   44  -0.064   0.118   0.102
    1UNL    H18   45  -0.011   0.099  -0.053
    1UNL    H19   46  -0.210  -0.066   0.113
    1UNL    H20   47  -0.428   0.188  -0.027
    1UNL    H21   48  -0.558   0.212   0.155
    1UNL    H22   49  -0.534   0.092   0.299
    1UNL    H23   50  -0.426   0.227   0.265
    1UNL    H24   51  -0.372   0.147  -0.427
    1UNL    H25   52  -0.229   0.257  -0.377
    1UNL    H26   53  -0.394   0.312  -0.391
   0.00000   0.00000   0.00000   0.00000   0.00000   0.00000   0.00000   0.00000   0.00000
Generated with MDTraj, t= 70.0
 53
    1UNL     C1    1  -0.294  -0.351  -0.129
    1UNL     C2    2  -0.281  -0.239  -0.060
    1UNL     C3    3  -0.148  -0.172  -0.059
    1UNL     C4    4  -0.043  -0.258   0.018
    1UNL     N1    5   0.085  -0.190   0.037
    1UNL     C5    6   0.213  -0.262   0.050
    1UNL     C6    7   0.324  -0.169   0.015
    1UNL     C7    8   0.314  -0.032   0.072
    1UNL     C8    9   0.194   0.022   0.112
    1UNL     N2   10   0.212   0.148   0.156
    1UNL     C9   11   0.350   0.172   0.152
    1UNL    C10   12   0.428   0.288   0.181
    1UNL    C11   13   0.563   0.284   0.158
    1UNL    C12   14   0.626   0.177   0.095
    1UNL    C13   15   0.556   0.064   0.061
    1UNL    C14   16   0.418   0.063   0.092
    1UNL    C15   17   0.069  -0.054   0.097
    1UNL    C16   18  -0.024   0.028   0.005
    1UNL    C17   19  -0.164  -0.033   0.008
    1UNL    C18   20  -0.270   0.064  -0.051
    1UNL    C19   21  -0.370   0.110   0.029
    1UNL     O1   22  -0.379   0.060   0.157
    1UNL    C20   23  -0.493   0.114   0.215
    1UNL    C21   24  -0.251   0.099  -0.188
    1UNL     O2   25  -0.156   0.058  -0.249
    1UNL     O3   26  -0.345   0.190  -0.233
    1UNL    C22   27  -0.335   0.222  -0.371
    1UNL     H1   28  -0.395  -0.381  -0.148
    1UNL     H2   29  -0.218  -0.405  -0.182
    1UNL     H3   30  -0.372  -0.185  -0.034
    1UNL     H4   31  -0.118  -0.159  -0.166
    1UNL     H5   32  -0.092  -0.282   0.110
    1UNL     H6   33  -0.038  -0.357  -0.035
    1UNL     H7   34   0.226  -0.296   0.152
    1UNL     H8   35   0.218  -0.356  -0.016
    1UNL     H9   36   0.330  -0.160  -0.092
    1UNL    H10   37   0.419  -0.202   0.049
    1UNL    H11   38   0.140   0.195   0.202
    1UNL    H12   39   0.376   0.362   0.237
    1UNL    H13   40   0.616   0.358   0.203
    1UNL    H14   41   0.721   0.196   0.056
    1UNL    H15   42   0.605  -0.013   0.008
    1UNL    H16   43   0.028  -0.066   0.199
    1UNL    H17   44  -0.015   0.135   0.008
    1UNL    H18   45   0.008   0.012  -0.102
    1UNL    H19   46  -0.198  -0.056   0.104
    1UNL    H20   47  -0.434   0.196   0.010
    1UNL    H21   48  -0.589   0.075   0.161
    1UNL    H22   49  -0.502   0.101   0.327
    1UNL    H23   50  -0.497   0.222   0.188
    1UNL    H24   51  -0.345   0.131  -0.423
    1UNL    H25   52  -0.231   0.259  -0.372
    1UNL    H26   53  -0.399   0.293  -0.407
   0.00000   0.00000   0.00000   0.00000   0.00000   0.00000   0.00000   0.00000   0.00000
Generated with MDTraj, t= 71.0
 53
    1UNL     C1    1  -0.303  -0.335  -0.141
    1UNL     C2    2  -0.280  -0.235  -0.057
    1UNL     C3    3  -0.151  -0.163  -0.048
    1UNL     C4    4  -0.041  -0.254   0.018
    1UNL     N1    5   0.077  -0.177   0.029
    1UNL     C5    6   0.205  -0.251   0.053
    1UNL     C6    7   0.331  -0.177   0.008
    1UNL     C7    8   0.327  -0.035   0.065
    1UNL     C8    9   0.205   0.016   0.117
    1UNL     N2   10   0.232   0.144   0.164
    1UNL     C9   11   0.373   0.166   0.161
    1UNL    C10   12   0.440   0.286   0.179
    1UNL    C11   13   0.569   0.288   0.144
    1UNL    C12   14   0.635   0.176   0.088
    1UNL    C13   15   0.564   0.066   0.059
    1UNL    C14   16   0.430   0.058   0.091
    1UNL    C15   17   0.065  -0.050   0.109
    1UNL    C16   18  -0.041   0.039   0.042
    1UNL    C17   19  -0.174  -0.034   0.025
    1UNL    C18   20  -0.280   0.054  -0.051
    1UNL    C19   21  -0.386   0.098   0.013
    1UNL     O1   22  -0.392   0.072   0.149
    1UNL    C20   23  -0.514   0.090   0.209
    1UNL    C21   24  -0.258   0.099  -0.188
    1UNL     O2   25  -0.154   0.064  -0.237
    1UNL     O3   26  -0.355   0.170  -0.254
    1UNL    C22   27  -0.322   0.226  -0.379
    1UNL     H1   28  -0.387  -0.405  -0.138
    1UNL     H2   29  -0.234  -0.350  -0.220
    1UNL     H3   30  -0.358  -0.208   0.007
    1UNL     H4   31  -0.108  -0.129  -0.147
    1UNL     H5   32  -0.077  -0.286   0.114
    1UNL     H6   33  -0.030  -0.346  -0.045
    1UNL     H7   34   0.215  -0.295   0.150
    1UNL     H8   35   0.208  -0.349  -0.009
    1UNL     H9   36   0.328  -0.158  -0.097
    1UNL    H10   37   0.422  -0.226   0.030
    1UNL    H11   38   0.180   0.216   0.209
    1UNL    H12   39   0.386   0.365   0.230
    1UNL    H13   40   0.630   0.381   0.170
    1UNL    H14   41   0.740   0.192   0.050
    1UNL    H15   42   0.610  -0.004  -0.015
    1UNL    H16   43   0.048  -0.070   0.218
    1UNL    H17   44  -0.060   0.134   0.090
    1UNL    H18   45   0.002   0.073  -0.055
    1UNL    H19   46  -0.206  -0.061   0.121
    1UNL    H20   47  -0.467   0.152  -0.029
    1UNL    H21   48  -0.589   0.006   0.179
    1UNL    H22   49  -0.497   0.081   0.322
    1UNL    H23   50  -0.561   0.188   0.185
    1UNL    H24   51  -0.283   0.143  -0.436
    1UNL    H25   52  -0.239   0.298  -0.354
    1UNL    H26   53  -0.403   0.274  -0.424
   0.00000   0.00000   0.00000   0.00000   0.00000   0.00000   0.00000   0.00000   0.00000
Generated with MDTraj, t= 72.0
 53
    1UNL     C1    1  -0.316  -0.324  -0.157
    1UNL     C2    2  -0.290  -0.236  -0.061
    1UNL     C3    3  -0.158  -0.164  -0.047
    1UNL     C4    4  -0.038  -0.245   0.014
    1UNL     N1    5   0.086  -0.174   0.020
    1UNL     C5    6   0.209  -0.261   0.034
    1UNL     C6    7   0.342  -0.179   0.019
    1UNL     C7    8   0.323  -0.036   0.071
    1UNL     C8    9   0.209   0.028   0.109
    1UNL     N2   10   0.240   0.152   0.170
    1UNL     C9   11   0.374   0.178   0.146
    1UNL    C10   12   0.456   0.294   0.169
    1UNL    C11   13   0.595   0.286   0.146
    1UNL    C12   14   0.649   0.165   0.090
    1UNL    C13   15   0.568   0.059   0.061
    1UNL    C14   16   0.423   0.065   0.079
    1UNL    C15   17   0.076  -0.036   0.096
    1UNL    C16   18  -0.032   0.046   0.039
    1UNL    C17   19  -0.173  -0.031   0.025
    1UNL    C18   20  -0.275   0.052  -0.033
    1UNL    C19   21  -0.388   0.093   0.029
    1UNL     O1   22  -0.438   0.048   0.146
    1UNL    C20   23  -0.562   0.104   0.171
    1UNL    C21   24  -0.247   0.102  -0.165
    1UNL     O2   25  -0.143   0.065  -0.212
    1UNL     O3   26  -0.348   0.175  -0.228
    1UNL    C22   27  -0.328   0.182  -0.365
    1UNL     H1   28  -0.412  -0.361  -0.185
    1UNL     H2   29  -0.235  -0.342  -0.226
    1UNL     H3   30  -0.370  -0.200   0.008
    1UNL     H4   31  -0.118  -0.132  -0.148
    1UNL     H5   32  -0.062  -0.274   0.115
    1UNL     H6   33  -0.025  -0.339  -0.043
    1UNL     H7   34   0.218  -0.320   0.122
    1UNL     H8   35   0.215  -0.352  -0.039
    1UNL     H9   36   0.373  -0.179  -0.083
    1UNL    H10   37   0.425  -0.214   0.075
    1UNL    H11   38   0.175   0.231   0.179
    1UNL    H12   39   0.412   0.377   0.225
    1UNL    H13   40   0.652   0.366   0.182
    1UNL    H14   41   0.752   0.174   0.075
    1UNL    H15   42   0.611  -0.012  -0.001
    1UNL    H16   43   0.038  -0.069   0.196
    1UNL    H17   44  -0.046   0.135   0.099
    1UNL    H18   45  -0.005   0.087  -0.060
    1UNL    H19   46  -0.204  -0.057   0.122
    1UNL    H20   47  -0.445   0.163  -0.031
    1UNL    H21   48  -0.632   0.092   0.084
    1UNL    H22   49  -0.605   0.042   0.256
    1UNL    H23   50  -0.556   0.211   0.201
    1UNL    H24   51  -0.312   0.076  -0.397
    1UNL    H25   52  -0.230   0.242  -0.379
    1UNL    H26   53  -0.416   0.232  -0.406
   0.00000   0.00000   0.00000   0.00000   0.00000   0.00000   0.00000   0.00000   0.00000
Generated with MDTraj, t= 73.0
 53
    1UNL     C1    1  -0.303  -0.304  -0.154
    1UNL     C2    2  -0.265  -0.236  -0.048
    1UNL     C3    3  -0.143  -0.150  -0.031
    1UNL     C4    4  -0.041  -0.244   0.029
    1UNL     N1    5   0.088  -0.175   0.020
    1UNL     C5    6   0.206  -0.258   0.042
    1UNL     C6    7   0.337  -0.180   0.004
    1UNL     C7    8   0.335  -0.042   0.066
    1UNL     C8    9   0.212   0.022   0.094
    1UNL     N2   10   0.236   0.148   0.140
    1UNL     C9   11   0.375   0.174   0.127
    1UNL    C10   12   0.444   0.291   0.149
    1UNL    C11   13   0.580   0.282   0.150
    1UNL    C12   14   0.647   0.162   0.111
    1UNL    C13   15   0.576   0.046   0.068
    1UNL    C14   16   0.435   0.055   0.076
    1UNL    C15   17   0.082  -0.045   0.101
    1UNL    C16   18  -0.033   0.051   0.055
    1UNL    C17   19  -0.178  -0.016   0.046
    1UNL    C18   20  -0.276   0.064  -0.027
    1UNL    C19   21  -0.399   0.087   0.026
    1UNL     O1   22  -0.444   0.033   0.140
    1UNL    C20   23  -0.574   0.088   0.159
    1UNL    C21   24  -0.249   0.106  -0.165
    1UNL     O2   25  -0.140   0.088  -0.216
    1UNL     O3   26  -0.361   0.166  -0.234
    1UNL    C22   27  -0.325   0.198  -0.367
    1UNL     H1   28  -0.398  -0.352  -0.147
    1UNL     H2   29  -0.232  -0.315  -0.236
    1UNL     H3   30  -0.322  -0.237   0.038
    1UNL     H4   31  -0.099  -0.120  -0.130
    1UNL     H5   32  -0.063  -0.277   0.132
    1UNL     H6   33  -0.041  -0.336  -0.032
    1UNL     H7   34   0.213  -0.280   0.146
    1UNL     H8   35   0.208  -0.363  -0.009
    1UNL     H9   36   0.355  -0.173  -0.102
    1UNL    H10   37   0.417  -0.235   0.046
    1UNL    H11   38   0.178   0.193   0.217
    1UNL    H12   39   0.395   0.377   0.183
    1UNL    H13   40   0.633   0.364   0.198
    1UNL    H14   41   0.753   0.175   0.084
    1UNL    H15   42   0.628  -0.043   0.027
    1UNL    H16   43   0.048  -0.073   0.204
    1UNL    H17   44  -0.036   0.139   0.119
    1UNL    H18   45  -0.009   0.091  -0.044
    1UNL    H19   46  -0.226  -0.039   0.137
    1UNL    H20   47  -0.462   0.163  -0.021
    1UNL    H21   48  -0.632   0.045   0.079
    1UNL    H22   49  -0.627   0.063   0.253
    1UNL    H23   50  -0.570   0.196   0.145
    1UNL    H24   51  -0.367   0.105  -0.418
    1UNL    H25   52  -0.209   0.192  -0.372
    1UNL    H26   53  -0.376   0.292  -0.394
   0.00000   0.00000   0.00000   0.00000   0.00000   0.00000   0.00000   0.00000   0.00000
Generated with MDTraj, t= 74.0
 53
    1UNL     C1    1  -0.333  -0.309  -0.154
    1UNL     C2    2  -0.299  -0.235  -0.050
    1UNL     C3    3  -0.156  -0.175  -0.048
    1UNL     C4    4  -0.051  -0.249   0.034
    1UNL     N1    5   0.082  -0.167   0.038
    1UNL     C5    6   0.203  -0.246   0.065
    1UNL     C6    7   0.332  -0.176   0.025
    1UNL     C7    8   0.325  -0.031   0.073
    1UNL     C8    9   0.207   0.038   0.101
    1UNL     N2   10   0.239   0.171   0.129
    1UNL     C9   11   0.380   0.176   0.140
    1UNL    C10   12   0.460   0.284   0.154
    1UNL    C11   13   0.599   0.273   0.144
    1UNL    C12   14   0.656   0.159   0.091
    1UNL    C13   15   0.576   0.051   0.068
    1UNL    C14   16   0.435   0.061   0.089
    1UNL    C15   17   0.069  -0.037   0.107
    1UNL    C16   18  -0.041   0.047   0.031
    1UNL    C17   19  -0.173  -0.033   0.020
    1UNL    C18   20  -0.277   0.051  -0.042
    1UNL    C19   21  -0.385   0.083   0.024
    1UNL     O1   22  -0.418   0.035   0.149
    1UNL    C20   23  -0.558   0.034   0.177
    1UNL    C21   24  -0.253   0.113  -0.175
    1UNL     O2   25  -0.145   0.088  -0.224
    1UNL     O3   26  -0.355   0.179  -0.244
    1UNL    C22   27  -0.301   0.227  -0.362
    1UNL     H1   28  -0.418  -0.376  -0.144
    1UNL     H2   29  -0.253  -0.329  -0.222
    1UNL     H3   30  -0.362  -0.221   0.042
    1UNL     H4   31  -0.116  -0.164  -0.153
    1UNL     H5   32  -0.102  -0.264   0.132
    1UNL     H6   33  -0.034  -0.350  -0.002
    1UNL     H7   34   0.203  -0.267   0.168
    1UNL     H8   35   0.189  -0.342   0.001
    1UNL     H9   36   0.328  -0.179  -0.082
    1UNL    H10   37   0.421  -0.230   0.054
    1UNL    H11   38   0.165   0.241   0.166
    1UNL    H12   39   0.405   0.370   0.201
    1UNL    H13   40   0.659   0.365   0.171
    1UNL    H14   41   0.754   0.153   0.051
    1UNL    H15   42   0.617  -0.035   0.021
    1UNL    H16   43   0.034  -0.040   0.212
    1UNL    H17   44  -0.059   0.141   0.088
    1UNL    H18   45   0.003   0.073  -0.063
    1UNL    H19   46  -0.210  -0.055   0.116
    1UNL    H20   47  -0.460   0.142  -0.028
    1UNL    H21   48  -0.603  -0.040   0.121
    1UNL    H22   49  -0.577   0.006   0.278
    1UNL    H23   50  -0.598   0.132   0.160
    1UNL    H24   51  -0.234   0.139  -0.383
    1UNL    H25   52  -0.238   0.317  -0.338
    1UNL    H26   53  -0.386   0.233  -0.434
   0.00000   0.00000   0.00000   0.00000   0.00000   0.00000   0.00000   0.00000   0.00000
Generated with MDTraj, t= 75.0
 53
    1UNL     C1    1  -0.322  -0.305  -0.134
    1UNL     C2    2  -0.284  -0.224  -0.035
    1UNL     C3    3  -0.150  -0.161  -0.034
    1UNL     C4    4  -0.051  -0.239   0.040
    1UNL     N1    5   0.082  -0.169   0.036
    1UNL     C5    6   0.204  -0.255   0.080
    1UNL     C6    7   0.336  -0.188   0.050
    1UNL     C7    8   0.323  -0.039   0.080
    1UNL     C8    9   0.208   0.026   0.118
    1UNL     N2   10   0.235   0.159   0.145
    1UNL     C9   11   0.372   0.175   0.137
    1UNL    C10   12   0.448   0.291   0.156
    1UNL    C11   13   0.585   0.276   0.129
    1UNL    C12   14   0.641   0.154   0.084
    1UNL    C13   15   0.563   0.043   0.066
    1UNL    C14   16   0.429   0.057   0.082
    1UNL    C15   17   0.072  -0.029   0.099
    1UNL    C16   18  -0.026   0.056   0.010
    1UNL    C17   19  -0.167  -0.011   0.022
    1UNL    C18   20  -0.274   0.055  -0.056
    1UNL    C19   21  -0.393   0.062   0.010
    1UNL     O1   22  -0.410  -0.002   0.130
    1UNL    C20   23  -0.536   0.029   0.180
    1UNL    C21   24  -0.254   0.116  -0.190
    1UNL     O2   25  -0.158   0.089  -0.255
    1UNL     O3   26  -0.349   0.203  -0.230
    1UNL    C22   27  -0.316   0.247  -0.357
    1UNL     H1   28  -0.427  -0.326  -0.150
    1UNL     H2   29  -0.253  -0.357  -0.198
    1UNL     H3   30  -0.344  -0.191   0.044
    1UNL     H4   31  -0.118  -0.151  -0.142
    1UNL     H5   32  -0.084  -0.256   0.146
    1UNL     H6   33  -0.054  -0.338  -0.004
    1UNL     H7   34   0.192  -0.263   0.184
    1UNL     H8   35   0.187  -0.354   0.020
    1UNL     H9   36   0.361  -0.195  -0.054
    1UNL    H10   37   0.414  -0.241   0.101
    1UNL    H11   38   0.169   0.241   0.117
    1UNL    H12   39   0.423   0.375   0.213
    1UNL    H13   40   0.652   0.348   0.158
    1UNL    H14   41   0.746   0.153   0.058
    1UNL    H15   42   0.593  -0.052   0.026
    1UNL    H16   43   0.034  -0.056   0.198
    1UNL    H17   44  -0.004   0.161   0.042
    1UNL    H18   45   0.009   0.040  -0.090
    1UNL    H19   46  -0.191  -0.007   0.125
    1UNL    H20   47  -0.470   0.123  -0.031
    1UNL    H21   48  -0.611  -0.005   0.120
    1UNL    H22   49  -0.543  -0.030   0.268
    1UNL    H23   50  -0.532   0.133   0.209
    1UNL    H24   51  -0.270   0.154  -0.387
    1UNL    H25   52  -0.242   0.326  -0.350
    1UNL    H26   53  -0.414   0.263  -0.406
   0.00000   0.00000   0.00000   0.00000   0.00000   0.00000   0.00000   0.00000   0.00000
Generated with MDTraj, t= 76.0
 53
    1UNL     C1    1  -0.318  -0.342  -0.124
    1UNL     C2    2  -0.293  -0.242  -0.043
    1UNL     C3    3  -0.160  -0.175  -0.037
    1UNL     C4    4  -0.037  -0.251   0.026
    1UNL     N1    5   0.084  -0.178   0.041
    1UNL     C5    6   0.207  -0.260   0.092
    1UNL     C6    7   0.332  -0.185   0.047
    1UNL     C7    8   0.330  -0.045   0.091
    1UNL     C8    9   0.210   0.025   0.105
    1UNL     N2   10   0.239   0.155   0.137
    1UNL     C9   11   0.375   0.173   0.123
    1UNL    C10   12   0.453   0.291   0.130
    1UNL    C11   13   0.587   0.292   0.113
    1UNL    C12   14   0.650   0.165   0.104
    1UNL    C13   15   0.586   0.046   0.094
    1UNL    C14   16   0.439   0.052   0.089
    1UNL    C15   17   0.075  -0.038   0.097
    1UNL    C16   18  -0.029   0.040   0.005
    1UNL    C17   19  -0.169  -0.026   0.013
    1UNL    C18   20  -0.271   0.059  -0.052
    1UNL    C19   21  -0.392   0.072   0.009
    1UNL     O1   22  -0.424   0.019   0.131
    1UNL    C20   23  -0.562   0.043   0.163
    1UNL    C21   24  -0.250   0.128  -0.181
    1UNL     O2   25  -0.150   0.116  -0.247
    1UNL     O3   26  -0.359   0.205  -0.218
    1UNL    C22   27  -0.332   0.262  -0.349
    1UNL     H1   28  -0.409  -0.394  -0.129
    1UNL     H2   29  -0.243  -0.375  -0.195
    1UNL     H3   30  -0.376  -0.214   0.021
    1UNL     H4   31  -0.126  -0.176  -0.145
    1UNL     H5   32  -0.070  -0.280   0.130
    1UNL     H6   33  -0.009  -0.346  -0.016
    1UNL     H7   34   0.190  -0.258   0.196
    1UNL     H8   35   0.191  -0.362   0.039
    1UNL     H9   36   0.352  -0.191  -0.058
    1UNL    H10   37   0.424  -0.222   0.092
    1UNL    H11   38   0.182   0.229   0.196
    1UNL    H12   39   0.401   0.382   0.159
    1UNL    H13   40   0.662   0.371   0.145
    1UNL    H14   41   0.756   0.157   0.083
    1UNL    H15   42   0.641  -0.047   0.070
    1UNL    H16   43   0.029  -0.041   0.195
    1UNL    H17   44  -0.041   0.146   0.040
    1UNL    H18   45   0.010   0.039  -0.093
    1UNL    H19   46  -0.201  -0.026   0.114
    1UNL    H20   47  -0.468   0.140  -0.029
    1UNL    H21   48  -0.623   0.018   0.083
    1UNL    H22   49  -0.593  -0.021   0.243
    1UNL    H23   50  -0.561   0.148   0.196
    1UNL    H24   51  -0.421   0.227  -0.393
    1UNL    H25   52  -0.256   0.205  -0.390
    1UNL    H26   53  -0.314   0.369  -0.342
   0.00000   0.00000   0.00000   0.00000   0.00000   0.00000   0.00000   0.00000   0.00000
Generated with MDTraj, t= 77.0
 53
    1UNL     C1    1  -0.292  -0.366  -0.105
    1UNL     C2    2  -0.289  -0.247  -0.056
    1UNL     C3    3  -0.159  -0.168  -0.042
    1UNL     C4    4  -0.044  -0.243   0.027
    1UNL     N1    5   0.079  -0.168   0.025
    1UNL     C5    6   0.203  -0.254   0.058
    1UNL     C6    7   0.335  -0.187   0.078
    1UNL     C7    8   0.326  -0.042   0.079
    1UNL     C8    9   0.209   0.027   0.082
    1UNL     N2   10   0.237   0.166   0.093
    1UNL     C9   11   0.372   0.180   0.101
    1UNL    C10   12   0.453   0.298   0.120
    1UNL    C11   13   0.584   0.276   0.135
    1UNL    C12   14   0.649   0.154   0.110
    1UNL    C13   15   0.575   0.041   0.098
    1UNL    C14   16   0.432   0.054   0.086
    1UNL    C15   17   0.077  -0.040   0.097
    1UNL    C16   18  -0.033   0.046   0.026
    1UNL    C17   19  -0.170  -0.029   0.024
    1UNL    C18   20  -0.275   0.055  -0.037
    1UNL    C19   21  -0.397   0.078   0.014
    1UNL     O1   22  -0.440   0.016   0.128
    1UNL    C20   23  -0.575   0.050   0.168
    1UNL    C21   24  -0.244   0.126  -0.168
    1UNL     O2   25  -0.133   0.124  -0.219
    1UNL     O3   26  -0.354   0.188  -0.222
    1UNL    C22   27  -0.308   0.266  -0.341
    1UNL     H1   28  -0.373  -0.437  -0.121
    1UNL     H2   29  -0.198  -0.410  -0.128
    1UNL     H3   30  -0.390  -0.205  -0.045
    1UNL     H4   31  -0.118  -0.155  -0.146
    1UNL     H5   32  -0.059  -0.294   0.128
    1UNL     H6   33  -0.022  -0.327  -0.036
    1UNL     H7   34   0.166  -0.311   0.138
    1UNL     H8   35   0.213  -0.325  -0.034
    1UNL     H9   36   0.409  -0.205   0.002
    1UNL    H10   37   0.381  -0.227   0.169
    1UNL    H11   38   0.160   0.234   0.134
    1UNL    H12   39   0.409   0.397   0.142
    1UNL    H13   40   0.638   0.361   0.163
    1UNL    H14   41   0.756   0.157   0.089
    1UNL    H15   42   0.608  -0.050   0.059
    1UNL    H16   43   0.042  -0.044   0.199
    1UNL    H17   44  -0.050   0.145   0.075
    1UNL    H18   45  -0.011   0.062  -0.076
    1UNL    H19   46  -0.199  -0.046   0.125
    1UNL    H20   47  -0.473   0.133  -0.043
    1UNL    H21   48  -0.645  -0.012   0.114
    1UNL    H22   49  -0.590   0.033   0.275
    1UNL    H23   50  -0.584   0.161   0.147
    1UNL    H24   51  -0.340   0.366  -0.323
    1UNL    H25   52  -0.365   0.224  -0.416
    1UNL    H26   53  -0.202   0.246  -0.361
   0.00000   0.00000   0.00000   0.00000   0.00000   0.00000   0.00000   0.00000   0.00000
Generated with MDTraj, t= 78.0
 53
    1UNL     C1    1  -0.300  -0.358  -0.099
    1UNL     C2    2  -0.281  -0.240  -0.042
    1UNL     C3    3  -0.153  -0.158  -0.045
    1UNL     C4    4  -0.039  -0.237   0.013
    1UNL     N1    5   0.087  -0.169   0.023
    1UNL     C5    6   0.211  -0.252   0.024
    1UNL     C6    7   0.333  -0.187   0.091
    1UNL     C7    8   0.322  -0.043   0.091
    1UNL     C8    9   0.209   0.031   0.092
    1UNL     N2   10   0.236   0.165   0.090
    1UNL     C9   11   0.371   0.184   0.110
    1UNL    C10   12   0.447   0.297   0.106
    1UNL    C11   13   0.581   0.278   0.107
    1UNL    C12   14   0.646   0.152   0.118
    1UNL    C13   15   0.569   0.036   0.108
    1UNL    C14   16   0.432   0.053   0.097
    1UNL    C15   17   0.073  -0.037   0.102
    1UNL    C16   18  -0.038   0.051   0.040
    1UNL    C17   19  -0.175  -0.020   0.036
    1UNL    C18   20  -0.280   0.063  -0.037
    1UNL    C19   21  -0.405   0.071   0.016
    1UNL     O1   22  -0.445  -0.001   0.125
    1UNL    C20   23  -0.571   0.042   0.172
    1UNL    C21   24  -0.247   0.122  -0.171
    1UNL     O2   25  -0.140   0.110  -0.224
    1UNL     O3   26  -0.341   0.201  -0.223
    1UNL    C22   27  -0.289   0.253  -0.347
    1UNL     H1   28  -0.396  -0.404  -0.119
    1UNL     H2   29  -0.232  -0.423  -0.149
    1UNL     H3   30  -0.366  -0.182  -0.011
    1UNL     H4   31  -0.137  -0.114  -0.146
    1UNL     H5   32  -0.068  -0.279   0.115
    1UNL     H6   33  -0.027  -0.327  -0.045
    1UNL     H7   34   0.203  -0.357   0.042
    1UNL     H8   35   0.237  -0.261  -0.090
    1UNL     H9   36   0.418  -0.224   0.035
    1UNL    H10   37   0.347  -0.213   0.197
    1UNL    H11   38   0.157   0.235   0.059
    1UNL    H12   39   0.402   0.389   0.120
    1UNL    H13   40   0.651   0.364   0.105
    1UNL    H14   41   0.754   0.149   0.109
    1UNL    H15   42   0.625  -0.058   0.104
    1UNL    H16   43   0.043  -0.067   0.202
    1UNL    H17   44  -0.056   0.132   0.115
    1UNL    H18   45  -0.014   0.096  -0.054
    1UNL    H19   46  -0.207  -0.033   0.137
    1UNL    H20   47  -0.471   0.141  -0.032
    1UNL    H21   48  -0.650   0.038   0.091
    1UNL    H22   49  -0.600  -0.035   0.249
    1UNL    H23   50  -0.556   0.143   0.224
    1UNL    H24   51  -0.179   0.277  -0.335
    1UNL    H25   52  -0.349   0.338  -0.353
    1UNL    H26   53  -0.316   0.185  -0.434
   0.00000   0.00000   0.00000   0.00000   0.00000   0.00000   0.00000   0.00000   0.00000
Generated with MDTraj, t= 79.0
 53
    1UNL     C1    1  -0.328  -0.340  -0.112
    1UNL     C2    2  -0.297  -0.237  -0.037
    1UNL     C3    3  -0.154  -0.175  -0.049
    1UNL     C4    4  -0.027  -0.246   0.019
    1UNL     N1    5   0.097  -0.166   0.023
    1UNL     C5    6   0.223  -0.238   0.004
    1UNL     C6    7   0.326  -0.197   0.112
    1UNL     C7    8   0.324  -0.042   0.114
    1UNL     C8    9   0.205   0.027   0.112
    1UNL     N2   10   0.228   0.163   0.118
    1UNL     C9   11   0.367   0.177   0.123
    1UNL    C10   12   0.445   0.297   0.088
    1UNL    C11   13   0.582   0.278   0.079
    1UNL    C12   14   0.645   0.159   0.103
    1UNL    C13   15   0.572   0.040   0.115
    1UNL    C14   16   0.433   0.053   0.116
    1UNL    C15   17   0.077  -0.035   0.095
    1UNL    C16   18  -0.032   0.050   0.032
    1UNL    C17   19  -0.166  -0.028   0.028
    1UNL    C18   20  -0.271   0.060  -0.043
    1UNL    C19   21  -0.393   0.069   0.015
    1UNL     O1   22  -0.434   0.014   0.133
    1UNL    C20   23  -0.570   0.026   0.158
    1UNL    C21   24  -0.245   0.125  -0.171
    1UNL     O2   25  -0.152   0.093  -0.239
    1UNL     O3   26  -0.333   0.223  -0.211
    1UNL    C22   27  -0.309   0.255  -0.351
    1UNL     H1   28  -0.419  -0.395  -0.099
    1UNL     H2   29  -0.268  -0.391  -0.187
    1UNL     H3   30  -0.354  -0.196   0.049
    1UNL     H4   31  -0.140  -0.161  -0.157
    1UNL     H5   32  -0.051  -0.288   0.122
    1UNL     H6   33   0.001  -0.335  -0.035
    1UNL     H7   34   0.221  -0.341  -0.025
    1UNL     H8   35   0.269  -0.197  -0.095
    1UNL     H9   36   0.427  -0.225   0.085
    1UNL    H10   37   0.292  -0.249   0.204
    1UNL    H11   38   0.170   0.251   0.088
    1UNL    H12   39   0.400   0.400   0.090
    1UNL    H13   40   0.644   0.366   0.079
    1UNL    H14   41   0.752   0.142   0.099
    1UNL    H15   42   0.620  -0.054   0.132
    1UNL    H16   43   0.046  -0.070   0.194
    1UNL    H17   44  -0.037   0.137   0.100
    1UNL    H18   45  -0.001   0.088  -0.063
    1UNL    H19   46  -0.194  -0.057   0.127
    1UNL    H20   47  -0.465   0.127  -0.038
    1UNL    H21   48  -0.629  -0.025   0.072
    1UNL    H22   49  -0.594  -0.036   0.249
    1UNL    H23   50  -0.596   0.134   0.175
    1UNL    H24   51  -0.200   0.230  -0.385
    1UNL    H25   52  -0.321   0.362  -0.356
    1UNL    H26   53  -0.387   0.209  -0.423
   0.00000   0.00000   0.00000   0.00000   0.00000   0.00000   0.00000   0.00000   0.00000
Generated with MDTraj, t= 80.0
 53
    1UNL     C1    1  -0.316  -0.330  -0.131
    1UNL     C2    2  -0.278  -0.247  -0.042
    1UNL     C3    3  -0.153  -0.166  -0.042
    1UNL     C4    4  -0.048  -0.248   0.029
    1UNL     N1    5   0.083  -0.172   0.058
    1UNL     C5    6   0.208  -0.231   0.013
    1UNL     C6    7   0.326  -0.187   0.102
    1UNL     C7    8   0.323  -0.039   0.110
    1UNL     C8    9   0.206   0.032   0.108
    1UNL     N2   10   0.238   0.166   0.126
    1UNL     C9   11   0.375   0.183   0.114
    1UNL    C10   12   0.448   0.296   0.094
    1UNL    C11   13   0.581   0.276   0.096
    1UNL    C12   14   0.643   0.148   0.090
    1UNL    C13   15   0.571   0.034   0.110
    1UNL    C14   16   0.435   0.057   0.111
    1UNL    C15   17   0.072  -0.035   0.106
    1UNL    C16   18  -0.027   0.049   0.013
    1UNL    C17   19  -0.159  -0.021   0.018
    1UNL    C18   20  -0.276   0.059  -0.047
    1UNL    C19   21  -0.392   0.071   0.016
    1UNL     O1   22  -0.423   0.012   0.135
    1UNL    C20   23  -0.560   0.025   0.161
    1UNL    C21   24  -0.252   0.113  -0.179
    1UNL     O2   25  -0.155   0.085  -0.247
    1UNL     O3   26  -0.351   0.206  -0.215
    1UNL    C22   27  -0.304   0.267  -0.334
    1UNL     H1   28  -0.417  -0.365  -0.125
    1UNL     H2   29  -0.246  -0.364  -0.205
    1UNL     H3   30  -0.345  -0.206   0.027
    1UNL     H4   31  -0.115  -0.153  -0.144
    1UNL     H5   32  -0.087  -0.290   0.127
    1UNL     H6   33  -0.021  -0.337  -0.025
    1UNL     H7   34   0.193  -0.337   0.004
    1UNL     H8   35   0.232  -0.198  -0.096
    1UNL     H9   36   0.414  -0.224   0.052
    1UNL    H10   37   0.319  -0.224   0.207
    1UNL    H11   38   0.175   0.245   0.162
    1UNL    H12   39   0.392   0.385   0.095
    1UNL    H13   40   0.648   0.360   0.101
    1UNL    H14   41   0.751   0.139   0.079
    1UNL    H15   42   0.621  -0.062   0.095
    1UNL    H16   43   0.038  -0.028   0.211
    1UNL    H17   44  -0.031   0.148   0.056
    1UNL    H18   45   0.013   0.066  -0.088
    1UNL    H19   46  -0.187  -0.037   0.120
    1UNL    H20   47  -0.481   0.112  -0.032
    1UNL    H21   48  -0.615  -0.049   0.091
    1UNL    H22   49  -0.595   0.004   0.264
    1UNL    H23   50  -0.591   0.127   0.135
    1UNL    H24   51  -0.217   0.339  -0.312
    1UNL    H25   52  -0.383   0.330  -0.375
    1UNL    H26   53  -0.273   0.194  -0.421
   0.00000   0.00000   0.00000   0.00000   0.00000   0.00000   0.00000   0.00000   0.00000
Generated with MDTraj, t= 81.0
 53
    1UNL     C1    1  -0.282  -0.337  -0.149
    1UNL     C2    2  -0.280  -0.240  -0.063
    1UNL     C3    3  -0.151  -0.168  -0.025
    1UNL     C4    4  -0.064  -0.239   0.081
    1UNL     N1    5   0.073  -0.172   0.097
    1UNL     C5    6   0.181  -0.228   0.011
    1UNL     C6    7   0.321  -0.187   0.055
    1UNL     C7    8   0.319  -0.039   0.091
    1UNL     C8    9   0.204   0.034   0.100
    1UNL     N2   10   0.236   0.166   0.110
    1UNL     C9   11   0.373   0.179   0.112
    1UNL    C10   12   0.461   0.288   0.131
    1UNL    C11   13   0.593   0.279   0.117
    1UNL    C12   14   0.654   0.152   0.100
    1UNL    C13   15   0.573   0.040   0.083
    1UNL    C14   16   0.429   0.051   0.083
    1UNL    C15   17   0.066  -0.027   0.114
    1UNL    C16   18  -0.039   0.045   0.023
    1UNL    C17   19  -0.170  -0.023   0.024
    1UNL    C18   20  -0.275   0.058  -0.049
    1UNL    C19   21  -0.396   0.067   0.007
    1UNL     O1   22  -0.426  -0.009   0.118
    1UNL    C20   23  -0.542   0.039   0.184
    1UNL    C21   24  -0.247   0.117  -0.179
    1UNL     O2   25  -0.138   0.104  -0.225
    1UNL     O3   26  -0.348   0.195  -0.231
    1UNL    C22   27  -0.307   0.252  -0.349
    1UNL     H1   28  -0.366  -0.404  -0.164
    1UNL     H2   29  -0.195  -0.342  -0.211
    1UNL     H3   30  -0.368  -0.200  -0.006
    1UNL     H4   31  -0.089  -0.156  -0.115
    1UNL     H5   32  -0.112  -0.243   0.182
    1UNL     H6   33  -0.047  -0.343   0.052
    1UNL     H7   34   0.173  -0.334   0.020
    1UNL     H8   35   0.146  -0.193  -0.094
    1UNL     H9   36   0.401  -0.199  -0.019
    1UNL    H10   37   0.338  -0.246   0.147
    1UNL    H11   38   0.161   0.235   0.129
    1UNL    H12   39   0.414   0.386   0.143
    1UNL    H13   40   0.649   0.374   0.126
    1UNL    H14   41   0.758   0.156   0.081
    1UNL    H15   42   0.607  -0.055   0.049
    1UNL    H16   43   0.034  -0.030   0.222
    1UNL    H17   44  -0.052   0.151   0.035
    1UNL    H18   45   0.001   0.040  -0.080
    1UNL    H19   46  -0.210  -0.029   0.124
    1UNL    H20   47  -0.470   0.137  -0.033
    1UNL    H21   48  -0.633   0.051   0.119
    1UNL    H22   49  -0.570  -0.034   0.259
    1UNL    H23   50  -0.527   0.131   0.233
    1UNL    H24   51  -0.292   0.359  -0.330
    1UNL    H25   52  -0.396   0.253  -0.413
    1UNL    H26   53  -0.220   0.213  -0.410
   0.00000   0.00000   0.00000   0.00000   0.00000   0.00000   0.00000   0.00000   0.00000
Generated with MDTraj, t= 82.0
 53
    1UNL     C1    1  -0.272  -0.344  -0.131
    1UNL     C2    2  -0.279  -0.244  -0.045
    1UNL     C3    3  -0.151  -0.168  -0.014
    1UNL     C4    4  -0.057  -0.239   0.090
    1UNL     N1    5   0.074  -0.176   0.096
    1UNL     C5    6   0.172  -0.215  -0.019
    1UNL     C6    7   0.314  -0.163   0.012
    1UNL     C7    8   0.316  -0.029   0.075
    1UNL     C8    9   0.208   0.037   0.127
    1UNL     N2   10   0.241   0.165   0.148
    1UNL     C9   11   0.377   0.179   0.125
    1UNL    C10   12   0.471   0.285   0.154
    1UNL    C11   13   0.605   0.266   0.134
    1UNL    C12   14   0.646   0.139   0.081
    1UNL    C13   15   0.562   0.037   0.052
    1UNL    C14   16   0.423   0.058   0.078
    1UNL    C15   17   0.068  -0.026   0.128
    1UNL    C16   18  -0.034   0.048   0.036
    1UNL    C17   19  -0.173  -0.024   0.030
    1UNL    C18   20  -0.275   0.049  -0.051
    1UNL    C19   21  -0.401   0.063  -0.001
    1UNL     O1   22  -0.429   0.003   0.115
    1UNL    C20   23  -0.550   0.051   0.162
    1UNL    C21   24  -0.244   0.119  -0.181
    1UNL     O2   25  -0.127   0.128  -0.206
    1UNL     O3   26  -0.356   0.170  -0.246
    1UNL    C22   27  -0.312   0.227  -0.367
    1UNL     H1   28  -0.361  -0.381  -0.180
    1UNL     H2   29  -0.184  -0.363  -0.190
    1UNL     H3   30  -0.367  -0.215   0.003
    1UNL     H4   31  -0.098  -0.152  -0.108
    1UNL     H5   32  -0.104  -0.224   0.189
    1UNL     H6   33  -0.051  -0.348   0.069
    1UNL     H7   34   0.156  -0.322  -0.019
    1UNL     H8   35   0.139  -0.164  -0.117
    1UNL     H9   36   0.373  -0.163  -0.081
    1UNL    H10   37   0.362  -0.218   0.094
    1UNL    H11   38   0.166   0.234   0.144
    1UNL    H12   39   0.432   0.378   0.200
    1UNL    H13   40   0.679   0.337   0.158
    1UNL    H14   41   0.750   0.135   0.041
    1UNL    H15   42   0.600  -0.055   0.007
    1UNL    H16   43   0.035  -0.026   0.236
    1UNL    H17   44  -0.052   0.148   0.067
    1UNL    H18   45   0.000   0.063  -0.069
    1UNL    H19   46  -0.216  -0.031   0.129
    1UNL    H20   47  -0.474   0.119  -0.060
    1UNL    H21   48  -0.637   0.024   0.102
    1UNL    H22   49  -0.562   0.005   0.257
    1UNL    H23   50  -0.554   0.153   0.169
    1UNL    H24   51  -0.223   0.280  -0.350
    1UNL    H25   52  -0.381   0.305  -0.402
    1UNL    H26   53  -0.296   0.162  -0.449
   0.00000   0.00000   0.00000   0.00000   0.00000   0.00000   0.00000   0.00000   0.00000
Generated with MDTraj, t= 83.0
 53
    1UNL     C1    1  -0.304  -0.341  -0.086
    1UNL     C2    2  -0.286  -0.230  -0.020
    1UNL     C3    3  -0.154  -0.158  -0.013
    1UNL     C4    4  -0.052  -0.240   0.073
    1UNL     N1    5   0.075  -0.168   0.063
    1UNL     C5    6   0.169  -0.185  -0.057
    1UNL     C6    7   0.312  -0.158  -0.015
    1UNL     C7    8   0.326  -0.027   0.065
    1UNL     C8    9   0.215   0.026   0.133
    1UNL     N2   10   0.257   0.142   0.201
    1UNL     C9   11   0.392   0.165   0.165
    1UNL    C10   12   0.473   0.277   0.190
    1UNL    C11   13   0.605   0.265   0.138
    1UNL    C12   14   0.645   0.161   0.052
    1UNL    C13   15   0.556   0.063   0.024
    1UNL    C14   16   0.434   0.060   0.082
    1UNL    C15   17   0.076  -0.031   0.118
    1UNL    C16   18  -0.022   0.055   0.042
    1UNL    C17   19  -0.169  -0.015   0.043
    1UNL    C18   20  -0.276   0.055  -0.040
    1UNL    C19   21  -0.403   0.076  -0.003
    1UNL     O1   22  -0.443   0.030   0.117
    1UNL    C20   23  -0.583   0.035   0.126
    1UNL    C21   24  -0.244   0.105  -0.179
    1UNL     O2   25  -0.126   0.103  -0.203
    1UNL     O3   26  -0.348   0.148  -0.255
    1UNL    C22   27  -0.302   0.202  -0.377
    1UNL     H1   28  -0.400  -0.385  -0.087
    1UNL     H2   29  -0.221  -0.398  -0.126
    1UNL     H3   30  -0.372  -0.178   0.025
    1UNL     H4   31  -0.114  -0.151  -0.114
    1UNL     H5   32  -0.087  -0.235   0.178
    1UNL     H6   33  -0.044  -0.345   0.036
    1UNL     H7   34   0.163  -0.291  -0.074
    1UNL     H8   35   0.117  -0.116  -0.133
    1UNL     H9   36   0.371  -0.136  -0.107
    1UNL    H10   37   0.347  -0.245   0.042
    1UNL    H11   38   0.213   0.189   0.274
    1UNL    H12   39   0.456   0.342   0.268
    1UNL    H13   40   0.686   0.337   0.165
    1UNL    H14   41   0.744   0.146   0.023
    1UNL    H15   42   0.590  -0.020  -0.039
    1UNL    H16   43   0.054  -0.033   0.228
    1UNL    H17   44  -0.025   0.158   0.065
    1UNL    H18   45   0.007   0.061  -0.065
    1UNL    H19   46  -0.216  -0.025   0.141
    1UNL    H20   47  -0.485   0.110  -0.063
    1UNL    H21   48  -0.631  -0.022   0.048
    1UNL    H22   49  -0.618   0.004   0.221
    1UNL    H23   50  -0.614   0.130   0.103
    1UNL    H24   51  -0.202   0.180  -0.388
    1UNL    H25   52  -0.313   0.308  -0.393
    1UNL    H26   53  -0.360   0.159  -0.453
   0.00000   0.00000   0.00000   0.00000   0.00000   0.00000   0.00000   0.00000   0.00000
Generated with MDTraj, t= 84.0
 53
    1UNL     C1    1  -0.341  -0.335  -0.035
    1UNL     C2    2  -0.297  -0.220   0.011
    1UNL     C3    3  -0.164  -0.161  -0.004
    1UNL     C4    4  -0.042  -0.241   0.064
    1UNL     N1    5   0.084  -0.174   0.049
    1UNL     C5    6   0.158  -0.181  -0.080
    1UNL     C6    7   0.297  -0.128  -0.070
    1UNL     C7    8   0.308  -0.013   0.031
    1UNL     C8    9   0.214   0.023   0.122
    1UNL     N2   10   0.259   0.116   0.214
    1UNL     C9   11   0.386   0.151   0.174
    1UNL    C10   12   0.474   0.250   0.216
    1UNL    C11   13   0.602   0.271   0.165
    1UNL    C12   14   0.638   0.186   0.064
    1UNL    C13   15   0.551   0.095   0.011
    1UNL    C14   16   0.420   0.070   0.068
    1UNL    C15   17   0.071  -0.038   0.118
    1UNL    C16   18  -0.029   0.052   0.056
    1UNL    C17   19  -0.170  -0.013   0.046
    1UNL    C18   20  -0.257   0.078  -0.035
    1UNL    C19   21  -0.389   0.090  -0.004
    1UNL     O1   22  -0.438   0.030   0.112
    1UNL    C20   23  -0.575   0.034   0.099
    1UNL    C21   24  -0.223   0.103  -0.175
    1UNL     O2   25  -0.114   0.067  -0.208
    1UNL     O3   26  -0.320   0.164  -0.247
    1UNL    C22   27  -0.288   0.156  -0.382
    1UNL     H1   28  -0.435  -0.377   0.000
    1UNL     H2   29  -0.273  -0.409  -0.070
    1UNL     H3   30  -0.368  -0.164   0.071
    1UNL     H4   31  -0.136  -0.161  -0.108
    1UNL     H5   32  -0.062  -0.253   0.171
    1UNL     H6   33  -0.034  -0.345   0.021
    1UNL     H7   34   0.144  -0.286  -0.106
    1UNL     H8   35   0.099  -0.110  -0.148
    1UNL     H9   36   0.316  -0.091  -0.175
    1UNL    H10   37   0.369  -0.204  -0.040
    1UNL    H11   38   0.214   0.145   0.295
    1UNL    H12   39   0.442   0.321   0.299
    1UNL    H13   40   0.668   0.338   0.213
    1UNL    H14   41   0.743   0.190   0.028
    1UNL    H15   42   0.583   0.027  -0.062
    1UNL    H16   43   0.042  -0.062   0.223
    1UNL    H17   44  -0.037   0.140   0.114
    1UNL    H18   45   0.006   0.095  -0.040
    1UNL    H19   46  -0.214  -0.020   0.148
    1UNL    H20   47  -0.459   0.147  -0.063
    1UNL    H21   48  -0.603  -0.001   0.000
    1UNL    H22   49  -0.620  -0.025   0.179
    1UNL    H23   50  -0.604   0.135   0.100
    1UNL    H24   51  -0.311   0.057  -0.405
    1UNL    H25   52  -0.183   0.170  -0.416
    1UNL    H26   53  -0.354   0.227  -0.428
   0.00000   0.00000   0.00000   0.00000   0.00000   0.00000   0.00000   0.00000   0.00000
Generated with MDTraj, t= 85.0
 53
    1UNL     C1    1  -0.324  -0.357  -0.001
    1UNL     C2    2  -0.284  -0.237   0.035
    1UNL     C3    3  -0.162  -0.166  -0.005
    1UNL     C4    4  -0.046  -0.245   0.055
    1UNL     N1    5   0.077  -0.168   0.043
    1UNL     C5    6   0.145  -0.158  -0.097
    1UNL     C6    7   0.277  -0.083  -0.097
    1UNL     C7    8   0.297   0.008   0.017
    1UNL     C8    9   0.207   0.026   0.124
    1UNL     N2   10   0.257   0.106   0.222
    1UNL     C9   11   0.382   0.147   0.183
    1UNL    C10   12   0.477   0.228   0.243
    1UNL    C11   13   0.594   0.249   0.183
    1UNL    C12   14   0.622   0.187   0.059
    1UNL    C13   15   0.536   0.101  -0.010
    1UNL    C14   16   0.410   0.083   0.052
    1UNL    C15   17   0.072  -0.038   0.122
    1UNL    C16   18  -0.039   0.052   0.071
    1UNL    C17   19  -0.173  -0.023   0.052
    1UNL    C18   20  -0.260   0.055  -0.044
    1UNL    C19   21  -0.386   0.089  -0.010
    1UNL     O1   22  -0.436   0.050   0.114
    1UNL    C20   23  -0.571   0.068   0.121
    1UNL    C21   24  -0.219   0.081  -0.177
    1UNL     O2   25  -0.110   0.041  -0.208
    1UNL     O3   26  -0.302   0.156  -0.261
    1UNL    C22   27  -0.238   0.166  -0.395
    1UNL     H1   28  -0.425  -0.386   0.018
    1UNL     H2   29  -0.262  -0.422  -0.058
    1UNL     H3   30  -0.333  -0.185   0.112
    1UNL     H4   31  -0.145  -0.168  -0.113
    1UNL     H5   32  -0.061  -0.278   0.158
    1UNL     H6   33  -0.036  -0.335  -0.015
    1UNL     H7   34   0.158  -0.260  -0.135
    1UNL     H8   35   0.063  -0.109  -0.154
    1UNL     H9   36   0.292  -0.029  -0.194
    1UNL    H10   37   0.354  -0.160  -0.094
    1UNL    H11   38   0.199   0.162   0.273
    1UNL    H12   39   0.453   0.296   0.320
    1UNL    H13   40   0.663   0.326   0.227
    1UNL    H14   41   0.715   0.215   0.020
    1UNL    H15   42   0.550   0.065  -0.116
    1UNL    H16   43   0.037  -0.075   0.220
    1UNL    H17   44  -0.048   0.127   0.147
    1UNL    H18   45  -0.003   0.110  -0.014
    1UNL    H19   46  -0.214  -0.034   0.155
    1UNL    H20   47  -0.452   0.133  -0.088
    1UNL    H21   48  -0.620  -0.001   0.050
    1UNL    H22   49  -0.591   0.044   0.229
    1UNL    H23   50  -0.594   0.172   0.093
    1UNL    H24   51  -0.321   0.167  -0.463
    1UNL    H25   52  -0.179   0.072  -0.426
    1UNL    H26   53  -0.178   0.258  -0.408
   0.00000   0.00000   0.00000   0.00000   0.00000   0.00000   0.00000   0.00000   0.00000
Generated with MDTraj, t= 86.0
 53
    1UNL     C1    1  -0.301  -0.396   0.005
    1UNL     C2    2  -0.288  -0.266   0.027
    1UNL     C3    3  -0.161  -0.186  -0.007
    1UNL     C4    4  -0.036  -0.247   0.059
    1UNL     N1    5   0.087  -0.162   0.051
    1UNL     C5    6   0.124  -0.136  -0.094
    1UNL     C6    7   0.260  -0.060  -0.105
    1UNL     C7    8   0.289   0.015   0.021
    1UNL     C8    9   0.200   0.033   0.124
    1UNL     N2   10   0.257   0.109   0.228
    1UNL     C9   11   0.387   0.146   0.182
    1UNL    C10   12   0.491   0.214   0.250
    1UNL    C11   13   0.607   0.234   0.182
    1UNL    C12   14   0.626   0.192   0.049
    1UNL    C13   15   0.528   0.127  -0.014
    1UNL    C14   16   0.404   0.096   0.054
    1UNL    C15   17   0.071  -0.038   0.127
    1UNL    C16   18  -0.052   0.040   0.069
    1UNL    C17   19  -0.183  -0.038   0.039
    1UNL    C18   20  -0.277   0.032  -0.059
    1UNL    C19   21  -0.395   0.078  -0.015
    1UNL     O1   22  -0.443   0.066   0.112
    1UNL    C20   23  -0.563   0.138   0.132
    1UNL    C21   24  -0.222   0.063  -0.187
    1UNL     O2   25  -0.110   0.022  -0.212
    1UNL     O3   26  -0.296   0.147  -0.264
    1UNL    C22   27  -0.212   0.183  -0.376
    1UNL     H1   28  -0.386  -0.455   0.031
    1UNL     H2   29  -0.224  -0.446  -0.056
    1UNL     H3   30  -0.364  -0.214   0.092
    1UNL     H4   31  -0.147  -0.179  -0.115
    1UNL     H5   32  -0.058  -0.278   0.160
    1UNL     H6   33  -0.001  -0.340   0.003
    1UNL     H7   34   0.133  -0.242  -0.126
    1UNL     H8   35   0.040  -0.094  -0.142
    1UNL     H9   36   0.255   0.010  -0.193
    1UNL    H10   37   0.342  -0.129  -0.125
    1UNL    H11   38   0.227   0.124   0.320
    1UNL    H12   39   0.464   0.252   0.346
    1UNL    H13   40   0.677   0.298   0.224
    1UNL    H14   41   0.725   0.208  -0.001
    1UNL    H15   42   0.538   0.106  -0.115
    1UNL    H16   43   0.043  -0.054   0.230
    1UNL    H17   44  -0.074   0.121   0.136
    1UNL    H18   45  -0.018   0.093  -0.017
    1UNL    H19   46  -0.238  -0.039   0.136
    1UNL    H20   47  -0.475   0.107  -0.084
    1UNL    H21   48  -0.637   0.102   0.058
    1UNL    H22   49  -0.590   0.120   0.242
    1UNL    H23   50  -0.541   0.248   0.107
    1UNL    H24   51  -0.227   0.292  -0.380
    1UNL    H25   52  -0.261   0.137  -0.473
    1UNL    H26   53  -0.099   0.164  -0.364
   0.00000   0.00000   0.00000   0.00000   0.00000   0.00000   0.00000   0.00000   0.00000
Generated with MDTraj, t= 87.0
 53
    1UNL     C1    1  -0.269  -0.411  -0.017
    1UNL     C2    2  -0.272  -0.283   0.013
    1UNL     C3    3  -0.150  -0.195  -0.004
    1UNL     C4    4  -0.033  -0.254   0.064
    1UNL     N1    5   0.087  -0.171   0.055
    1UNL     C5    6   0.133  -0.146  -0.083
    1UNL     C6    7   0.256  -0.053  -0.103
    1UNL     C7    8   0.282   0.025   0.021
    1UNL     C8    9   0.193   0.029   0.123
    1UNL     N2   10   0.248   0.112   0.220
    1UNL     C9   11   0.373   0.159   0.173
    1UNL    C10   12   0.477   0.219   0.247
    1UNL    C11   13   0.599   0.225   0.185
    1UNL    C12   14   0.617   0.186   0.053
    1UNL    C13   15   0.513   0.133  -0.013
    1UNL    C14   16   0.398   0.099   0.049
    1UNL    C15   17   0.067  -0.042   0.132
    1UNL    C16   18  -0.050   0.032   0.062
    1UNL    C17   19  -0.181  -0.047   0.047
    1UNL    C18   20  -0.265   0.036  -0.048
    1UNL    C19   21  -0.382   0.096  -0.011
    1UNL     O1   22  -0.444   0.081   0.108
    1UNL    C20   23  -0.551   0.181   0.124
    1UNL    C21   24  -0.215   0.060  -0.187
    1UNL     O2   25  -0.123  -0.005  -0.234
    1UNL     O3   26  -0.273   0.173  -0.231
    1UNL    C22   27  -0.247   0.170  -0.371
    1UNL     H1   28  -0.344  -0.475   0.026
    1UNL     H2   29  -0.189  -0.454  -0.071
    1UNL     H3   30  -0.359  -0.252   0.059
    1UNL     H4   31  -0.141  -0.182  -0.111
    1UNL     H5   32  -0.046  -0.260   0.171
    1UNL     H6   33  -0.015  -0.363   0.036
    1UNL     H7   34   0.146  -0.250  -0.119
    1UNL     H8   35   0.050  -0.117  -0.137
    1UNL     H9   36   0.238   0.017  -0.188
    1UNL    H10   37   0.346  -0.111  -0.129
    1UNL    H11   38   0.228   0.111   0.319
    1UNL    H12   39   0.453   0.240   0.356
    1UNL    H13   40   0.691   0.249   0.247
    1UNL    H14   41   0.708   0.202   0.005
    1UNL    H15   42   0.535   0.081  -0.109
    1UNL    H16   43   0.037  -0.065   0.234
    1UNL    H17   44  -0.073   0.125   0.111
    1UNL    H18   45  -0.024   0.060  -0.037
    1UNL    H19   46  -0.228  -0.042   0.148
    1UNL    H20   47  -0.423   0.167  -0.078
    1UNL    H21   48  -0.618   0.178   0.038
    1UNL    H22   49  -0.598   0.154   0.225
    1UNL    H23   50  -0.507   0.289   0.128
    1UNL    H24   51  -0.249   0.278  -0.398
    1UNL    H25   52  -0.335   0.109  -0.414
    1UNL    H26   53  -0.146   0.127  -0.402
   0.00000   0.00000   0.00000   0.00000   0.00000   0.00000   0.00000   0.00000   0.00000
Generated with MDTraj, t= 88.0
 53
    1UNL     C1    1  -0.295  -0.391  -0.053
    1UNL     C2    2  -0.280  -0.274   0.012
    1UNL     C3    3  -0.161  -0.189  -0.015
    1UNL     C4    4  -0.042  -0.247   0.052
    1UNL     N1    5   0.084  -0.169   0.040
    1UNL     C5    6   0.146  -0.147  -0.090
    1UNL     C6    7   0.282  -0.073  -0.088
    1UNL     C7    8   0.295   0.012   0.026
    1UNL     C8    9   0.203   0.024   0.128
    1UNL     N2   10   0.249   0.104   0.226
    1UNL     C9   11   0.376   0.152   0.183
    1UNL    C10   12   0.464   0.240   0.245
    1UNL    C11   13   0.584   0.262   0.183
    1UNL    C12   14   0.617   0.201   0.059
    1UNL    C13   15   0.531   0.112  -0.007
    1UNL    C14   16   0.409   0.089   0.058
    1UNL    C15   17   0.071  -0.042   0.124
    1UNL    C16   18  -0.052   0.043   0.073
    1UNL    C17   19  -0.183  -0.045   0.049
    1UNL    C18   20  -0.273   0.031  -0.049
    1UNL    C19   21  -0.375   0.113  -0.003
    1UNL     O1   22  -0.418   0.104   0.128
    1UNL    C20   23  -0.540   0.171   0.160
    1UNL    C21   24  -0.234   0.039  -0.195
    1UNL     O2   25  -0.141  -0.026  -0.240
    1UNL     O3   26  -0.303   0.145  -0.254
    1UNL    C22   27  -0.224   0.168  -0.373
    1UNL     H1   28  -0.383  -0.454  -0.035
    1UNL     H2   29  -0.221  -0.428  -0.122
    1UNL     H3   30  -0.370  -0.230   0.064
    1UNL     H4   31  -0.168  -0.184  -0.124
    1UNL     H5   32  -0.066  -0.268   0.155
    1UNL     H6   33  -0.011  -0.352   0.018
    1UNL     H7   34   0.151  -0.243  -0.144
    1UNL     H8   35   0.078  -0.088  -0.138
    1UNL     H9   36   0.292  -0.012  -0.183
    1UNL    H10   37   0.358  -0.154  -0.082
    1UNL    H11   38   0.186   0.148   0.297
    1UNL    H12   39   0.440   0.272   0.339
    1UNL    H13   40   0.642   0.336   0.225
    1UNL    H14   41   0.724   0.212   0.025
    1UNL    H15   42   0.570   0.061  -0.092
    1UNL    H16   43   0.047  -0.092   0.216
    1UNL    H17   44  -0.072   0.121   0.145
    1UNL    H18   45  -0.034   0.084  -0.022
    1UNL    H19   46  -0.230  -0.053   0.150
    1UNL    H20   47  -0.422   0.181  -0.072
    1UNL    H21   48  -0.624   0.117   0.123
    1UNL    H22   49  -0.533   0.169   0.271
    1UNL    H23   50  -0.541   0.281   0.122
    1UNL    H24   51  -0.282   0.221  -0.451
    1UNL    H25   52  -0.187   0.068  -0.404
    1UNL    H26   53  -0.140   0.238  -0.355
   0.00000   0.00000   0.00000   0.00000   0.00000   0.00000   0.00000   0.00000   0.00000
Generated with MDTraj, t= 89.0
 53
    1UNL     C1    1  -0.341  -0.347  -0.085
    1UNL     C2    2  -0.289  -0.256   0.003
    1UNL     C3    3  -0.158  -0.190  -0.017
    1UNL     C4    4  -0.035  -0.262   0.055
    1UNL     N1    5   0.090  -0.179   0.047
    1UNL     C5    6   0.164  -0.176  -0.089
    1UNL     C6    7   0.305  -0.112  -0.075
    1UNL     C7    8   0.306  -0.006   0.035
    1UNL     C8    9   0.201   0.015   0.121
    1UNL     N2   10   0.233   0.118   0.213
    1UNL     C9   11   0.362   0.162   0.178
    1UNL    C10   12   0.448   0.259   0.234
    1UNL    C11   13   0.567   0.284   0.178
    1UNL    C12   14   0.615   0.206   0.077
    1UNL    C13   15   0.532   0.108   0.018
    1UNL    C14   16   0.403   0.090   0.068
    1UNL    C15   17   0.067  -0.055   0.119
    1UNL    C16   18  -0.047   0.032   0.044
    1UNL    C17   19  -0.178  -0.039   0.038
    1UNL    C18   20  -0.265   0.040  -0.052
    1UNL    C19   21  -0.367   0.106   0.005
    1UNL     O1   22  -0.396   0.097   0.143
    1UNL    C20   23  -0.510   0.166   0.192
    1UNL    C21   24  -0.225   0.058  -0.190
    1UNL     O2   25  -0.118   0.020  -0.236
    1UNL     O3   26  -0.317   0.128  -0.261
    1UNL    C22   27  -0.262   0.140  -0.386
    1UNL     H1   28  -0.428  -0.404  -0.069
    1UNL     H2   29  -0.293  -0.364  -0.180
    1UNL     H3   30  -0.340  -0.232   0.090
    1UNL     H4   31  -0.139  -0.186  -0.123
    1UNL     H5   32  -0.046  -0.274   0.161
    1UNL     H6   33  -0.006  -0.369   0.027
    1UNL     H7   34   0.174  -0.281  -0.122
    1UNL     H8   35   0.107  -0.124  -0.158
    1UNL     H9   36   0.326  -0.065  -0.175
    1UNL    H10   37   0.378  -0.192  -0.046
    1UNL    H11   38   0.160   0.160   0.280
    1UNL    H12   39   0.396   0.325   0.308
    1UNL    H13   40   0.614   0.380   0.214
    1UNL    H14   41   0.714   0.220   0.044
    1UNL    H15   42   0.569   0.054  -0.068
    1UNL    H16   43   0.039  -0.081   0.220
    1UNL    H17   44  -0.056   0.123   0.100
    1UNL    H18   45  -0.008   0.053  -0.052
    1UNL    H19   46  -0.213  -0.042   0.145
    1UNL    H20   47  -0.453   0.147  -0.051
    1UNL    H21   48  -0.598   0.117   0.160
    1UNL    H22   49  -0.505   0.174   0.299
    1UNL    H23   50  -0.507   0.270   0.151
    1UNL    H24   51  -0.342   0.194  -0.437
    1UNL    H25   52  -0.239   0.045  -0.428
    1UNL    H26   53  -0.184   0.212  -0.386
   0.00000   0.00000   0.00000   0.00000   0.00000   0.00000   0.00000   0.00000   0.00000
Generated with MDTraj, t= 90.0
 53
    1UNL     C1    1  -0.358  -0.285  -0.123
    1UNL     C2    2  -0.278  -0.255  -0.019
    1UNL     C3    3  -0.149  -0.189  -0.030
    1UNL     C4    4  -0.042  -0.273   0.054
    1UNL     N1    5   0.093  -0.203   0.061
    1UNL     C5    6   0.189  -0.203  -0.062
    1UNL     C6    7   0.325  -0.144  -0.032
    1UNL     C7    8   0.317  -0.017   0.055
    1UNL     C8    9   0.207   0.019   0.126
    1UNL     N2   10   0.229   0.132   0.200
    1UNL     C9   11   0.353   0.177   0.166
    1UNL    C10   12   0.427   0.285   0.216
    1UNL    C11   13   0.555   0.294   0.172
    1UNL    C12   14   0.616   0.207   0.073
    1UNL    C13   15   0.543   0.100   0.032
    1UNL    C14   16   0.417   0.079   0.085
    1UNL    C15   17   0.082  -0.066   0.119
    1UNL    C16   18  -0.023   0.021   0.032
    1UNL    C17   19  -0.158  -0.041   0.027
    1UNL    C18   20  -0.256   0.043  -0.046
    1UNL    C19   21  -0.366   0.101   0.009
    1UNL     O1   22  -0.398   0.084   0.142
    1UNL    C20   23  -0.498   0.164   0.199
    1UNL    C21   24  -0.234   0.070  -0.189
    1UNL     O2   25  -0.127   0.056  -0.248
    1UNL     O3   26  -0.341   0.136  -0.253
    1UNL    C22   27  -0.324   0.111  -0.387
    1UNL     H1   28  -0.465  -0.287  -0.108
    1UNL     H2   29  -0.326  -0.272  -0.226
    1UNL     H3   30  -0.328  -0.264   0.079
    1UNL     H4   31  -0.105  -0.185  -0.130
    1UNL     H5   32  -0.075  -0.306   0.151
    1UNL     H6   33  -0.012  -0.369   0.004
    1UNL     H7   34   0.205  -0.305  -0.095
    1UNL     H8   35   0.138  -0.154  -0.142
    1UNL     H9   36   0.371  -0.105  -0.128
    1UNL    H10   37   0.384  -0.227   0.017
    1UNL    H11   38   0.173   0.171   0.286
    1UNL    H12   39   0.367   0.369   0.251
    1UNL    H13   40   0.619   0.364   0.219
    1UNL    H14   41   0.714   0.239   0.037
    1UNL    H15   42   0.594   0.038  -0.041
    1UNL    H16   43   0.043  -0.078   0.219
    1UNL    H17   44  -0.026   0.118   0.077
    1UNL    H18   45   0.013   0.035  -0.066
    1UNL    H19   46  -0.191  -0.050   0.135
    1UNL    H20   47  -0.430   0.170  -0.045
    1UNL    H21   48  -0.569   0.188   0.125
    1UNL    H22   49  -0.548   0.125   0.282
    1UNL    H23   50  -0.449   0.255   0.231
    1UNL    H24   51  -0.384   0.187  -0.434
    1UNL    H25   52  -0.354   0.014  -0.407
    1UNL    H26   53  -0.228   0.133  -0.422
   0.00000   0.00000   0.00000   0.00000   0.00000   0.00000   0.00000   0.00000   0.00000
Generated with MDTraj, t= 91.0
 53
    1UNL     C1    1  -0.354  -0.213  -0.157
    1UNL     C2    2  -0.264  -0.251  -0.067
    1UNL     C3    3  -0.136  -0.183  -0.048
    1UNL     C4    4  -0.032  -0.257   0.043
    1UNL     N1    5   0.094  -0.189   0.067
    1UNL     C5    6   0.201  -0.206  -0.044
    1UNL     C6    7   0.341  -0.168   0.002
    1UNL     C7    8   0.328  -0.034   0.088
    1UNL     C8    9   0.208   0.017   0.134
    1UNL     N2   10   0.234   0.137   0.189
    1UNL     C9   11   0.365   0.171   0.175
    1UNL    C10   12   0.436   0.301   0.189
    1UNL    C11   13   0.566   0.314   0.139
    1UNL    C12   14   0.627   0.203   0.073
    1UNL    C13   15   0.560   0.083   0.057
    1UNL    C14   16   0.429   0.063   0.111
    1UNL    C15   17   0.077  -0.054   0.126
    1UNL    C16   18  -0.025   0.032   0.046
    1UNL    C17   19  -0.156  -0.039   0.016
    1UNL    C18   20  -0.263   0.045  -0.047
    1UNL    C19   21  -0.377   0.099   0.016
    1UNL     O1   22  -0.390   0.090   0.152
    1UNL    C20   23  -0.504   0.139   0.212
    1UNL    C21   24  -0.264   0.052  -0.194
    1UNL     O2   25  -0.167   0.013  -0.255
    1UNL     O3   26  -0.377   0.106  -0.252
    1UNL    C22   27  -0.337   0.138  -0.385
    1UNL     H1   28  -0.447  -0.268  -0.165
    1UNL     H2   29  -0.335  -0.140  -0.232
    1UNL     H3   30  -0.293  -0.328   0.006
    1UNL     H4   31  -0.094  -0.163  -0.148
    1UNL     H5   32  -0.075  -0.274   0.140
    1UNL     H6   33  -0.007  -0.358   0.002
    1UNL     H7   34   0.192  -0.302  -0.088
    1UNL     H8   35   0.170  -0.138  -0.124
    1UNL     H9   36   0.417  -0.159  -0.081
    1UNL    H10   37   0.378  -0.239   0.082
    1UNL    H11   38   0.166   0.219   0.218
    1UNL    H12   39   0.384   0.379   0.238
    1UNL    H13   40   0.613   0.414   0.136
    1UNL    H14   41   0.734   0.203   0.063
    1UNL    H15   42   0.610   0.008   0.002
    1UNL    H16   43   0.039  -0.068   0.227
    1UNL    H17   44  -0.052   0.120   0.100
    1UNL    H18   45   0.021   0.069  -0.043
    1UNL    H19   46  -0.211  -0.061   0.114
    1UNL    H20   47  -0.453   0.140  -0.046
    1UNL    H21   48  -0.588   0.076   0.195
    1UNL    H22   49  -0.490   0.147   0.315
    1UNL    H23   50  -0.524   0.240   0.184
    1UNL    H24   51  -0.421   0.169  -0.448
    1UNL    H25   52  -0.294   0.056  -0.429
    1UNL    H26   53  -0.269   0.221  -0.392
   0.00000   0.00000   0.00000   0.00000   0.00000   0.00000   0.00000   0.00000   0.00000
Generated with MDTraj, t= 92.0
 53
    1UNL     C1    1  -0.329  -0.267  -0.183
    1UNL     C2    2  -0.247  -0.270  -0.075
    1UNL     C3    3  -0.131  -0.181  -0.050
    1UNL     C4    4  -0.036  -0.257   0.038
    1UNL     N1    5   0.086  -0.187   0.060
    1UNL     C5    6   0.197  -0.197  -0.034
    1UNL     C6    7   0.327  -0.167   0.041
    1UNL     C7    8   0.320  -0.025   0.089
    1UNL     C8    9   0.201   0.029   0.134
    1UNL     N2   10   0.224   0.159   0.162
    1UNL     C9   11   0.363   0.192   0.145
    1UNL    C10   12   0.437   0.305   0.170
    1UNL    C11   13   0.570   0.295   0.137
    1UNL    C12   14   0.634   0.175   0.096
    1UNL    C13   15   0.560   0.060   0.067
    1UNL    C14   16   0.425   0.071   0.104
    1UNL    C15   17   0.066  -0.047   0.115
    1UNL    C16   18  -0.037   0.034   0.039
    1UNL    C17   19  -0.166  -0.043   0.019
    1UNL    C18   20  -0.267   0.045  -0.044
    1UNL    C19   21  -0.362   0.112   0.024
    1UNL     O1   22  -0.376   0.082   0.155
    1UNL    C20   23  -0.498   0.116   0.219
    1UNL    C21   24  -0.257   0.072  -0.191
    1UNL     O2   25  -0.170   0.020  -0.256
    1UNL     O3   26  -0.352   0.146  -0.235
    1UNL    C22   27  -0.366   0.139  -0.373
    1UNL     H1   28  -0.420  -0.326  -0.189
    1UNL     H2   29  -0.296  -0.212  -0.267
    1UNL     H3   30  -0.281  -0.317   0.013
    1UNL     H4   31  -0.089  -0.146  -0.146
    1UNL     H5   32  -0.088  -0.263   0.133
    1UNL     H6   33  -0.023  -0.358  -0.003
    1UNL     H7   34   0.193  -0.291  -0.079
    1UNL     H8   35   0.175  -0.122  -0.115
    1UNL     H9   36   0.424  -0.168  -0.017
    1UNL    H10   37   0.334  -0.230   0.137
    1UNL    H11   38   0.153   0.242   0.158
    1UNL    H12   39   0.390   0.397   0.216
    1UNL    H13   40   0.623   0.388   0.138
    1UNL    H14   41   0.741   0.173   0.083
    1UNL    H15   42   0.605  -0.041   0.051
    1UNL    H16   43   0.037  -0.054   0.220
    1UNL    H17   44  -0.044   0.132   0.079
    1UNL    H18   45   0.000   0.049  -0.061
    1UNL    H19   46  -0.210  -0.075   0.120
    1UNL    H20   47  -0.437   0.171  -0.027
    1UNL    H21   48  -0.548   0.024   0.250
    1UNL    H22   49  -0.481   0.174   0.306
    1UNL    H23   50  -0.567   0.179   0.167
    1UNL    H24   51  -0.477   0.123  -0.397
    1UNL    H25   52  -0.313   0.056  -0.415
    1UNL    H26   53  -0.334   0.232  -0.426
   0.00000   0.00000   0.00000   0.00000   0.00000   0.00000   0.00000   0.00000   0.00000
Generated with MDTraj, t= 93.0
 53
    1UNL     C1    1  -0.294  -0.300  -0.184
    1UNL     C2    2  -0.274  -0.238  -0.071
    1UNL     C3    3  -0.139  -0.171  -0.044
    1UNL     C4    4  -0.045  -0.247   0.054
    1UNL     N1    5   0.092  -0.192   0.076
    1UNL     C5    6   0.202  -0.238  -0.017
    1UNL     C6    7   0.335  -0.178   0.024
    1UNL     C7    8   0.326  -0.030   0.070
    1UNL     C8    9   0.206   0.029   0.105
    1UNL     N2   10   0.227   0.157   0.144
    1UNL     C9   11   0.361   0.193   0.120
    1UNL    C10   12   0.434   0.302   0.152
    1UNL    C11   13   0.576   0.303   0.153
    1UNL    C12   14   0.645   0.185   0.125
    1UNL    C13   15   0.572   0.071   0.100
    1UNL    C14   16   0.429   0.072   0.101
    1UNL    C15   17   0.072  -0.039   0.105
    1UNL    C16   18  -0.026   0.034   0.013
    1UNL    C17   19  -0.159  -0.033   0.018
    1UNL    C18   20  -0.281   0.043  -0.045
    1UNL    C19   21  -0.390   0.090   0.026
    1UNL     O1   22  -0.390   0.060   0.159
    1UNL    C20   23  -0.487   0.130   0.234
    1UNL    C21   24  -0.279   0.064  -0.193
    1UNL     O2   25  -0.177   0.032  -0.252
    1UNL     O3   26  -0.382   0.139  -0.242
    1UNL    C22   27  -0.345   0.176  -0.369
    1UNL     H1   28  -0.379  -0.364  -0.194
    1UNL     H2   29  -0.214  -0.292  -0.259
    1UNL     H3   30  -0.346  -0.249   0.015
    1UNL     H4   31  -0.077  -0.162  -0.136
    1UNL     H5   32  -0.094  -0.236   0.150
    1UNL     H6   33  -0.047  -0.352   0.023
    1UNL     H7   34   0.216  -0.340  -0.018
    1UNL     H8   35   0.175  -0.210  -0.122
    1UNL     H9   36   0.402  -0.163  -0.067
    1UNL    H10   37   0.390  -0.232   0.109
    1UNL    H11   38   0.149   0.211   0.194
    1UNL    H12   39   0.384   0.391   0.166
    1UNL    H13   40   0.622   0.399   0.169
    1UNL    H14   41   0.752   0.192   0.111
    1UNL    H15   42   0.617  -0.025   0.098
    1UNL    H16   43   0.033  -0.036   0.209
    1UNL    H17   44  -0.040   0.136   0.036
    1UNL    H18   45   0.024   0.035  -0.082
    1UNL    H19   46  -0.190  -0.062   0.125
    1UNL    H20   47  -0.473   0.156  -0.006
    1UNL    H21   48  -0.591   0.098   0.197
    1UNL    H22   49  -0.483   0.100   0.339
    1UNL    H23   50  -0.472   0.237   0.238
    1UNL    H24   51  -0.413   0.255  -0.422
    1UNL    H25   52  -0.350   0.086  -0.435
    1UNL    H26   53  -0.238   0.215  -0.369
   0.00000   0.00000   0.00000   0.00000   0.00000   0.00000   0.00000   0.00000   0.00000
Generated with MDTraj, t= 94.0
 53
    1UNL     C1    1  -0.291  -0.349  -0.158
    1UNL     C2    2  -0.264  -0.271  -0.053
    1UNL     C3    3  -0.143  -0.184  -0.042
    1UNL     C4    4  -0.037  -0.260   0.045
    1UNL     N1    5   0.081  -0.180   0.054
    1UNL     C5    6   0.205  -0.209  -0.026
    1UNL     C6    7   0.334  -0.170   0.043
    1UNL     C7    8   0.323  -0.020   0.076
    1UNL     C8    9   0.201   0.045   0.094
    1UNL     N2   10   0.231   0.174   0.128
    1UNL     C9   11   0.370   0.199   0.131
    1UNL    C10   12   0.451   0.304   0.179
    1UNL    C11   13   0.584   0.287   0.162
    1UNL    C12   14   0.638   0.165   0.110
    1UNL    C13   15   0.561   0.058   0.083
    1UNL    C14   16   0.422   0.079   0.088
    1UNL    C15   17   0.068  -0.031   0.101
    1UNL    C16   18  -0.041   0.038   0.026
    1UNL    C17   19  -0.174  -0.043   0.016
    1UNL    C18   20  -0.285   0.029  -0.053
    1UNL    C19   21  -0.394   0.081   0.016
    1UNL     O1   22  -0.390   0.065   0.152
    1UNL    C20   23  -0.495   0.131   0.219
    1UNL    C21   24  -0.268   0.073  -0.185
    1UNL     O2   25  -0.169   0.046  -0.248
    1UNL     O3   26  -0.365   0.164  -0.228
    1UNL    C22   27  -0.347   0.184  -0.364
    1UNL     H1   28  -0.388  -0.393  -0.168
    1UNL     H2   29  -0.215  -0.365  -0.232
    1UNL     H3   30  -0.323  -0.265   0.030
    1UNL     H4   31  -0.093  -0.168  -0.141
    1UNL     H5   32  -0.085  -0.266   0.144
    1UNL     H6   33  -0.018  -0.358   0.006
    1UNL     H7   34   0.215  -0.308  -0.048
    1UNL     H8   35   0.210  -0.154  -0.123
    1UNL     H9   36   0.430  -0.197  -0.012
    1UNL    H10   37   0.331  -0.221   0.146
    1UNL    H11   38   0.159   0.240   0.165
    1UNL    H12   39   0.416   0.407   0.209
    1UNL    H13   40   0.654   0.372   0.169
    1UNL    H14   41   0.742   0.144   0.131
    1UNL    H15   42   0.587  -0.044   0.051
    1UNL    H16   43   0.027  -0.034   0.206
    1UNL    H17   44  -0.049   0.141   0.047
    1UNL    H18   45  -0.001   0.037  -0.074
    1UNL    H19   46  -0.208  -0.065   0.123
    1UNL    H20   47  -0.480   0.134  -0.029
    1UNL    H21   48  -0.564   0.185   0.142
    1UNL    H22   49  -0.556   0.054   0.276
    1UNL    H23   50  -0.450   0.194   0.296
    1UNL    H24   51  -0.405   0.273  -0.409
    1UNL    H25   52  -0.405   0.101  -0.412
    1UNL    H26   53  -0.238   0.190  -0.400
   0.00000   0.00000   0.00000   0.00000   0.00000   0.00000   0.00000   0.00000   0.00000
Generated with MDTraj, t= 95.0
 53
    1UNL     C1    1  -0.287  -0.366  -0.111
    1UNL     C2    2  -0.276  -0.250  -0.048
    1UNL     C3    3  -0.150  -0.172  -0.035
    1UNL     C4    4  -0.036  -0.252   0.043
    1UNL     N1    5   0.091  -0.183   0.056
    1UNL     C5    6   0.194  -0.206  -0.056
    1UNL     C6    7   0.334  -0.155  -0.006
    1UNL     C7    8   0.323  -0.023   0.068
    1UNL     C8    9   0.203   0.031   0.117
    1UNL     N2   10   0.225   0.160   0.159
    1UNL     C9   11   0.363   0.181   0.148
    1UNL    C10   12   0.439   0.294   0.176
    1UNL    C11   13   0.574   0.296   0.141
    1UNL    C12   14   0.644   0.177   0.105
    1UNL    C13   15   0.576   0.065   0.088
    1UNL    C14   16   0.432   0.062   0.104
    1UNL    C15   17   0.078  -0.039   0.107
    1UNL    C16   18  -0.030   0.039   0.025
    1UNL    C17   19  -0.170  -0.029   0.018
    1UNL    C18   20  -0.273   0.054  -0.045
    1UNL    C19   21  -0.381   0.101   0.017
    1UNL     O1   22  -0.409   0.061   0.145
    1UNL    C20   23  -0.523   0.113   0.207
    1UNL    C21   24  -0.266   0.077  -0.185
    1UNL     O2   25  -0.180   0.020  -0.250
    1UNL     O3   26  -0.359   0.161  -0.239
    1UNL    C22   27  -0.323   0.195  -0.368
    1UNL     H1   28  -0.376  -0.426  -0.095
    1UNL     H2   29  -0.203  -0.412  -0.155
    1UNL     H3   30  -0.363  -0.205   0.008
    1UNL     H4   31  -0.117  -0.153  -0.141
    1UNL     H5   32  -0.073  -0.274   0.145
    1UNL     H6   33  -0.033  -0.343  -0.011
    1UNL     H7   34   0.216  -0.302  -0.090
    1UNL     H8   35   0.167  -0.145  -0.144
    1UNL     H9   36   0.407  -0.137  -0.091
    1UNL    H10   37   0.376  -0.235   0.063
    1UNL    H11   38   0.157   0.232   0.142
    1UNL    H12   39   0.384   0.383   0.189
    1UNL    H13   40   0.637   0.379   0.159
    1UNL    H14   41   0.754   0.172   0.108
    1UNL    H15   42   0.626  -0.030   0.073
    1UNL    H16   43   0.027  -0.024   0.207
    1UNL    H17   44  -0.038   0.142   0.049
    1UNL    H18   45   0.012   0.048  -0.073
    1UNL    H19   46  -0.193  -0.039   0.130
    1UNL    H20   47  -0.461   0.137  -0.040
    1UNL    H21   48  -0.521   0.225   0.178
    1UNL    H22   49  -0.619   0.056   0.177
    1UNL    H23   50  -0.504   0.089   0.312
    1UNL    H24   51  -0.411   0.234  -0.421
    1UNL    H25   52  -0.300   0.103  -0.425
    1UNL    H26   53  -0.242   0.269  -0.368
   0.00000   0.00000   0.00000   0.00000   0.00000   0.00000   0.00000   0.00000   0.00000
Generated with MDTraj, t= 96.0
 53
    1UNL     C1    1  -0.309  -0.372  -0.060
    1UNL     C2    2  -0.289  -0.246  -0.033
    1UNL     C3    3  -0.152  -0.173  -0.039
    1UNL     C4    4  -0.040  -0.251   0.039
    1UNL     N1    5   0.086  -0.185   0.061
    1UNL     C5    6   0.176  -0.185  -0.060
    1UNL     C6    7   0.330  -0.152  -0.021
    1UNL     C7    8   0.316  -0.018   0.051
    1UNL     C8    9   0.206   0.025   0.123
    1UNL     N2   10   0.237   0.142   0.187
    1UNL     C9   11   0.367   0.178   0.160
    1UNL    C10   12   0.444   0.286   0.209
    1UNL    C11   13   0.574   0.289   0.165
    1UNL    C12   14   0.631   0.194   0.076
    1UNL    C13   15   0.558   0.086   0.029
    1UNL    C14   16   0.426   0.073   0.084
    1UNL    C15   17   0.074  -0.046   0.117
    1UNL    C16   18  -0.027   0.031   0.026
    1UNL    C17   19  -0.162  -0.030   0.023
    1UNL    C18   20  -0.264   0.058  -0.045
    1UNL    C19   21  -0.381   0.093   0.008
    1UNL     O1   22  -0.410   0.065   0.139
    1UNL    C20   23  -0.537   0.097   0.193
    1UNL    C21   24  -0.248   0.081  -0.188
    1UNL     O2   25  -0.147   0.036  -0.243
    1UNL     O3   26  -0.341   0.165  -0.247
    1UNL    C22   27  -0.309   0.177  -0.379
    1UNL     H1   28  -0.407  -0.416  -0.053
    1UNL     H2   29  -0.225  -0.434  -0.083
    1UNL     H3   30  -0.374  -0.188  -0.009
    1UNL     H4   31  -0.134  -0.169  -0.149
    1UNL     H5   32  -0.090  -0.284   0.131
    1UNL     H6   33  -0.025  -0.340  -0.016
    1UNL     H7   34   0.174  -0.281  -0.103
    1UNL     H8   35   0.150  -0.119  -0.143
    1UNL     H9   36   0.397  -0.155  -0.111
    1UNL    H10   37   0.372  -0.235   0.047
    1UNL    H11   38   0.182   0.188   0.254
    1UNL    H12   39   0.409   0.365   0.272
    1UNL    H13   40   0.634   0.376   0.200
    1UNL    H14   41   0.733   0.208   0.056
    1UNL    H15   42   0.599   0.005  -0.030
    1UNL    H16   43   0.027  -0.045   0.219
    1UNL    H17   44  -0.043   0.133   0.053
    1UNL    H18   45   0.013   0.038  -0.072
    1UNL    H19   46  -0.182  -0.055   0.133
    1UNL    H20   47  -0.451   0.156  -0.046
    1UNL    H21   48  -0.517   0.183   0.262
    1UNL    H22   49  -0.609   0.130   0.111
    1UNL    H23   50  -0.582   0.008   0.234
    1UNL    H24   51  -0.380   0.231  -0.435
    1UNL    H25   52  -0.301   0.078  -0.423
    1UNL    H26   53  -0.216   0.228  -0.380
   0.00000   0.00000   0.00000   0.00000   0.00000   0.00000   0.00000   0.00000   0.00000
Generated with MDTraj, t= 97.0
 53
    1UNL     C1    1  -0.311  -0.373  -0.040
    1UNL     C2    2  -0.281  -0.254   0.005
    1UNL     C3    3  -0.156  -0.175  -0.016
    1UNL     C4    4  -0.038  -0.255   0.055
    1UNL     N1    5   0.090  -0.186   0.058
    1UNL     C5    6   0.172  -0.188  -0.064
    1UNL     C6    7   0.312  -0.123  -0.068
    1UNL     C7    8   0.308  -0.007   0.032
    1UNL     C8    9   0.204   0.023   0.117
    1UNL     N2   10   0.241   0.124   0.207
    1UNL     C9   11   0.367   0.168   0.175
    1UNL    C10   12   0.451   0.259   0.229
    1UNL    C11   13   0.573   0.270   0.171
    1UNL    C12   14   0.619   0.200   0.061
    1UNL    C13   15   0.532   0.106  -0.003
    1UNL    C14   16   0.410   0.086   0.066
    1UNL    C15   17   0.073  -0.045   0.121
    1UNL    C16   18  -0.038   0.043   0.049
    1UNL    C17   19  -0.172  -0.023   0.038
    1UNL    C18   20  -0.261   0.053  -0.052
    1UNL    C19   21  -0.385   0.090  -0.004
    1UNL     O1   22  -0.419   0.049   0.124
    1UNL    C20   23  -0.548   0.103   0.168
    1UNL    C21   24  -0.224   0.090  -0.184
    1UNL     O2   25  -0.114   0.069  -0.225
    1UNL     O3   26  -0.322   0.156  -0.255
    1UNL    C22   27  -0.285   0.163  -0.388
    1UNL     H1   28  -0.407  -0.414  -0.019
    1UNL     H2   29  -0.256  -0.426  -0.117
    1UNL     H3   30  -0.354  -0.216   0.076
    1UNL     H4   31  -0.143  -0.171  -0.126
    1UNL     H5   32  -0.070  -0.271   0.159
    1UNL     H6   33  -0.031  -0.351   0.011
    1UNL     H7   34   0.171  -0.284  -0.114
    1UNL     H8   35   0.107  -0.129  -0.131
    1UNL     H9   36   0.345  -0.087  -0.169
    1UNL    H10   37   0.395  -0.199  -0.046
    1UNL    H11   38   0.209   0.121   0.298
    1UNL    H12   39   0.424   0.315   0.323
    1UNL    H13   40   0.625   0.360   0.190
    1UNL    H14   41   0.724   0.201   0.026
    1UNL    H15   42   0.573   0.046  -0.083
    1UNL    H16   43   0.046  -0.071   0.226
    1UNL    H17   44  -0.046   0.139   0.095
    1UNL    H18   45  -0.007   0.062  -0.052
    1UNL    H19   46  -0.213  -0.029   0.144
    1UNL    H20   47  -0.458   0.148  -0.064
    1UNL    H21   48  -0.543   0.211   0.170
    1UNL    H22   49  -0.626   0.065   0.100
    1UNL    H23   50  -0.582   0.064   0.260
    1UNL    H24   51  -0.324   0.248  -0.432
    1UNL    H25   52  -0.310   0.073  -0.440
    1UNL    H26   53  -0.181   0.175  -0.387
   0.00000   0.00000   0.00000   0.00000   0.00000   0.00000   0.00000   0.00000   0.00000
Generated with MDTraj, t= 98.0
 53
    1UNL     C1    1  -0.325  -0.360  -0.044
    1UNL     C2    2  -0.293  -0.248   0.013
    1UNL     C3    3  -0.162  -0.181  -0.008
    1UNL     C4    4  -0.041  -0.251   0.066
    1UNL     N1    5   0.091  -0.168   0.055
    1UNL     C5    6   0.149  -0.155  -0.090
    1UNL     C6    7   0.279  -0.075  -0.098
    1UNL     C7    8   0.306   0.002   0.029
    1UNL     C8    9   0.211   0.016   0.129
    1UNL     N2   10   0.255   0.102   0.228
    1UNL     C9   11   0.378   0.150   0.172
    1UNL    C10   12   0.470   0.244   0.228
    1UNL    C11   13   0.586   0.272   0.162
    1UNL    C12   14   0.622   0.210   0.043
    1UNL    C13   15   0.540   0.112  -0.008
    1UNL    C14   16   0.424   0.081   0.063
    1UNL    C15   17   0.074  -0.041   0.136
    1UNL    C16   18  -0.039   0.045   0.066
    1UNL    C17   19  -0.173  -0.030   0.051
    1UNL    C18   20  -0.264   0.043  -0.040
    1UNL    C19   21  -0.392   0.081  -0.006
    1UNL     O1   22  -0.446   0.047   0.114
    1UNL    C20   23  -0.574   0.101   0.134
    1UNL    C21   24  -0.216   0.071  -0.178
    1UNL     O2   25  -0.100   0.039  -0.206
    1UNL     O3   26  -0.311   0.131  -0.258
    1UNL    C22   27  -0.246   0.172  -0.368
    1UNL     H1   28  -0.421  -0.408  -0.026
    1UNL     H2   29  -0.266  -0.408  -0.120
    1UNL     H3   30  -0.370  -0.194   0.072
    1UNL     H4   31  -0.138  -0.172  -0.117
    1UNL     H5   32  -0.065  -0.262   0.173
    1UNL     H6   33  -0.020  -0.350   0.039
    1UNL     H7   34   0.144  -0.250  -0.144
    1UNL     H8   35   0.073  -0.096  -0.142
    1UNL     H9   36   0.278  -0.012  -0.190
    1UNL    H10   37   0.370  -0.138  -0.125
    1UNL    H11   38   0.196   0.161   0.276
    1UNL    H12   39   0.435   0.301   0.304
    1UNL    H13   40   0.649   0.353   0.204
    1UNL    H14   41   0.710   0.243  -0.006
    1UNL    H15   42   0.576   0.049  -0.089
    1UNL    H16   43   0.061  -0.063   0.243
    1UNL    H17   44  -0.054   0.141   0.109
    1UNL    H18   45  -0.004   0.061  -0.033
    1UNL    H19   46  -0.216  -0.034   0.157
    1UNL    H20   47  -0.464   0.109  -0.080
    1UNL    H21   48  -0.594   0.184   0.071
    1UNL    H22   49  -0.644   0.020   0.134
    1UNL    H23   50  -0.578   0.134   0.234
    1UNL    H24   51  -0.312   0.197  -0.446
    1UNL    H25   52  -0.162   0.103  -0.391
    1UNL    H26   53  -0.200   0.264  -0.334
   0.00000   0.00000   0.00000   0.00000   0.00000   0.00000   0.00000   0.00000   0.00000
Generated with MDTraj, t= 99.0
 53
    1UNL     C1    1  -0.313  -0.371  -0.053
    1UNL     C2    2  -0.277  -0.272   0.028
    1UNL     C3    3  -0.161  -0.178   0.001
    1UNL     C4    4  -0.040  -0.249   0.064
    1UNL     N1    5   0.088  -0.167   0.053
    1UNL     C5    6   0.132  -0.129  -0.090
    1UNL     C6    7   0.272  -0.079  -0.091
    1UNL     C7    8   0.292   0.014   0.027
    1UNL     C8    9   0.208   0.023   0.138
    1UNL     N2   10   0.263   0.119   0.222
    1UNL     C9   11   0.382   0.162   0.168
    1UNL    C10   12   0.486   0.222   0.239
    1UNL    C11   13   0.598   0.241   0.169
    1UNL    C12   14   0.611   0.196   0.032
    1UNL    C13   15   0.516   0.133  -0.040
    1UNL    C14   16   0.402   0.104   0.036
    1UNL    C15   17   0.075  -0.048   0.142
    1UNL    C16   18  -0.047   0.045   0.090
    1UNL    C17   19  -0.177  -0.032   0.063
    1UNL    C18   20  -0.266   0.046  -0.030
    1UNL    C19   21  -0.388   0.091  -0.007
    1UNL     O1   22  -0.449   0.061   0.110
    1UNL    C20   23  -0.587   0.077   0.109
    1UNL    C21   24  -0.214   0.074  -0.171
    1UNL     O2   25  -0.102   0.026  -0.199
    1UNL     O3   26  -0.285   0.159  -0.252
    1UNL    C22   27  -0.226   0.155  -0.378
    1UNL     H1   28  -0.398  -0.435  -0.033
    1UNL     H2   29  -0.262  -0.392  -0.142
    1UNL     H3   30  -0.336  -0.239   0.108
    1UNL     H4   31  -0.143  -0.167  -0.107
    1UNL     H5   32  -0.053  -0.263   0.172
    1UNL     H6   33  -0.015  -0.349   0.041
    1UNL     H7   34   0.117  -0.221  -0.146
    1UNL     H8   35   0.061  -0.057  -0.126
    1UNL     H9   36   0.302  -0.029  -0.187
    1UNL    H10   37   0.345  -0.165  -0.090
    1UNL    H11   38   0.238   0.145   0.312
    1UNL    H12   39   0.450   0.276   0.332
    1UNL    H13   40   0.679   0.292   0.208
    1UNL    H14   41   0.713   0.195  -0.007
    1UNL    H15   42   0.535   0.100  -0.139
    1UNL    H16   43   0.043  -0.092   0.237
    1UNL    H17   44  -0.057   0.131   0.153
    1UNL    H18   45  -0.016   0.083  -0.005
    1UNL    H19   46  -0.233  -0.042   0.163
    1UNL    H20   47  -0.439   0.154  -0.075
    1UNL    H21   48  -0.612   0.176   0.129
    1UNL    H22   49  -0.628   0.042   0.016
    1UNL    H23   50  -0.632   0.011   0.180
    1UNL    H24   51  -0.302   0.154  -0.456
    1UNL    H25   52  -0.144   0.073  -0.380
    1UNL    H26   53  -0.167   0.249  -0.389
   0.00000   0.00000   0.00000   0.00000   0.00000   0.00000   0.00000   0.00000   0.00000
