1TPCN04515
16
    1res  C1    1    0.553   0.402  -0.011
    1res  C2    2    0.429   0.211   0.192
    1res  C3    3    0.419  -0.097   0.011
    1res  C4    4    0.433  -0.357  -0.056
    1res  C5    5    0.192  -0.223  -0.010
    1res  C6    6   -0.031  -0.249   0.167
    1res  C7    7   -0.153  -0.246  -0.200
    1res  C8    8   -0.300  -0.286   0.053
    1res  C9    9   -0.316   0.067  -0.006
    1res  C10   10   -0.201   0.151  -0.215
    1res  C11   11   -0.413   0.344  -0.199
    1res  C12   12   -0.473   0.011  -0.224
    1res  C13   13   -0.481   0.283   0.036
    1res  C14   14   -0.403  -0.053   0.187
    1res  C15   15    0.036   0.013   0.175
    1res  C16   16    0.150   0.152  -0.106
  10.00000  10.00000  10.00000
