1TPCN04866
33
    1res  C1    1    0.615  -0.515  -0.188
    1res  C2    2    0.782  -0.289  -0.266
    1res  C3    3    0.515  -0.264  -0.165
    1res  C4    4    0.723  -0.152   0.065
    1res  C5    5    1.005  -0.134   0.216
    1res  C6    6    1.128  -0.077  -0.039
    1res  C7    7    1.130   0.121   0.274
    1res  C8    8    0.926   0.179   0.162
    1res  C9    9    0.784   0.040   0.312
    1res  C10   10    0.681   0.077  -0.135
    1res  C11   11    0.438   0.086  -0.254
    1res  C12   12    0.214  -0.099  -0.177
    1res  C13   13    0.371   0.125   0.082
    1res  C14   14    0.101   0.145   0.145
    1res  C15   15   -0.116   0.016   0.068
    1res  C16   16   -0.379   0.126   0.109
    1res  C17   17   -0.546   0.258   0.258
    1res  C18   18   -0.516   0.250   0.515
    1res  C19   19   -0.687   0.070   0.341
    1res  C20   20   -0.697   0.035   0.106
    1res  C21   21   -0.868  -0.187   0.228
    1res  C22   22   -1.028  -0.083   0.397
    1res  C23   23   -1.105  -0.293   0.193
    1res  C24   24   -0.979  -0.357   0.005
    1res  C25   25   -0.789  -0.259  -0.050
    1res  C26   26   -0.548   0.128  -0.008
    1res  C27   27   -0.711   0.076  -0.232
    1res  C28   28   -0.898   0.251  -0.211
    1res  C29   29   -0.709   0.148  -0.480
    1res  C30   30   -0.592  -0.067  -0.491
    1res  C31   31   -0.433   0.009  -0.301
    1res  C32   32   -0.118   0.371   0.029
    1res  C33   33    0.231   0.329  -0.060
  10.00000  10.00000  10.00000
