1TPCN03181
21
    1res  C1    1   -0.352   0.600   0.312
    1res  C2    2   -0.262   0.248   0.192
    1res  C3    3   -0.167   0.039   0.139
    1res  C4    4    0.137   0.074   0.174
    1res  C5    5    0.326  -0.143   0.172
    1res  C6    6    0.422  -0.075  -0.074
    1res  C7    7    0.574  -0.015  -0.231
    1res  C8    8    0.737  -0.070  -0.050
    1res  C9    9    0.938  -0.040   0.044
    1res  C10   10    0.836   0.146  -0.151
    1res  C11   11    0.436  -0.201  -0.331
    1res  C12   12    0.128  -0.159  -0.152
    1res  C13   13    0.021  -0.244   0.242
    1res  C14   14   -0.311   0.040  -0.014
    1res  C15   15   -0.397  -0.118  -0.087
    1res  C16   16   -0.676  -0.111  -0.191
    1res  C17   17   -0.581  -0.359  -0.151
    1res  C18   18   -0.408  -0.356  -0.336
    1res  C19   19   -0.223  -0.255  -0.222
    1res  C20   20   -0.246   0.230  -0.139
    1res  C21   21   -0.344   0.407   0.014
  10.00000  10.00000  10.00000
