[ moleculetype ]
; name        nrexcl
res           1

[ atoms ]
;    nr  type resnr resid  atom  cgnr     charge       mass
      1 SC4       1 res   C1        1      0.000     54.000
      2 TC3       1 res   C2        2      0.000     36.000
      3 SC3       1 res   C3        3      0.000     54.000
      4 SN4a      1 res   C4        4      0.000     54.000
      5 SN4a      1 res   C5        5      0.000     54.000
      6 TN3r      1 res   C6        6      0.000     36.000
      7 SN4a      1 res   C7        7      0.000     54.000
      8 TP1       1 res   C8        8      0.000     36.000
      9 TN6       1 res   C9        9      0.000     36.000
     10 TN6       1 res   C10      10      0.000     36.000
     11 TN6       1 res   C11      11      0.000     36.000
     12 TN6       1 res   C12      12      0.000     36.000
     13 TN6       1 res   C13      13      0.000     36.000
     14 TN6       1 res   C14      14      0.000     36.000
     15 TC3       1 res   C15      15      0.000     36.000
     16 SC4       1 res   C16      16      0.000     54.000
     17 TC3       1 res   C17      17      0.000     36.000
     18 SN4a      1 res   C18      18      0.000     54.000
     19 SP1       1 res   C19      19      0.000     54.000
     20 TC4       1 res   C20      20      0.000     36.000
     21 SC3       1 res   C21      21      0.000     54.000
     22 SC4       1 res   C22      22      0.000     54.000
     23 SC4       1 res   C23      23      0.000     54.000

[ bonds ]
;  ai    aj   funct      b0(nm)        k
    1     2     1      0.27448    20000
    2     3     1      0.18012    20000
    3     4     1      0.23941    20000
    3    15     1      0.27239    20000
    3    16     1      0.40081    20000
    4     5     1      0.32046    20000
    5     6     1      0.26434    20000
    5    12     1      0.28544    20000
    5    14     1      0.27105    20000
    6     7     1      0.30083    20000
    7     8     1      0.29035    20000
    7     9     1      0.26094    20000
    7    11     1      0.30807    20000
    9    10     1      0.21994    20000
   10    11     1      0.22131    20000
   12    13     1      0.22757    20000
   13    14     1      0.27169    20000
   15    16     1      0.31712    20000
   16    17     1      0.36346    20000
   16    23     1      0.32579    20000
   17    18     1      0.32299    20000
   17    23     1      0.39335    20000
   18    19     1      0.28678    20000
   19    20     1      0.27819    20000
   20    21     1      0.33837    20000
   20    23     1      0.27007    20000
   21    22     1      0.36304    20000
   21    23     1      0.28981    20000
