[ moleculetype ]
; name        nrexcl
res           1

[ atoms ]
;    nr  type  resnr resid  atom  cgnr     charge       mass
      1 C4        1 res   C1        1      0.000     72.000
      2 C1        1 res   C2        2      0.000     72.000
      3 SC2       1 res   C3        3      0.000     54.000
      4 C1        1 res   C4        4      0.000     72.000
      5 C4        1 res   C5        5      0.000     72.000
      6 SN4a      1 res   C6        6      0.000     54.000
      7 C1        1 res   C7        7      0.000     72.000

[ constraints ]
;  ai    aj   funct      b0(nm)
    3     6     1      0.33544

[ bonds ]
;  ai    aj   funct      b0(nm)          k(kJ/mol/nm^2)
    1     2     1      0.41135           6204.6
    2     3     1      0.37513           9776.3
    4     5     1      0.50599           6367.3
    3     4     1      0.42999          11082.5
    6     7     1      0.31846           9248.6

[ angles ]
;  ai    aj    ak  funct     th0(deg)        k(kJ/mol/rad^2)
    1     2     3     1    102.96683            22.00
    2     3     4     1    119.99924            32.63
    2     3     6     1     92.54962            85.19
    3     4     5     1    155.33332            92.65
    3     6     7     1    111.68047           113.48
    4     3     6     1    135.94184            20.38

[ dihedrals ]
;  ai    aj    ak    al  funct   phi0(deg)        k(kJ/mol)   mult
    1     2     3     4     1    -36.97603       27.890      1
    1     2     3     6     1    176.50054       29.171      1
    2     3     4     5     1    154.71220       25.684      1
    2     3     6     7     1    -22.76435       19.747      1
    4     3     6     7     1   -165.35733       21.812      1
    5     4     3     6     1    -71.41343       27.853      1
