Generated with MDTraj, t= 0.0
 112
    1UNL     C1    1   0.009  -0.127  -0.456
    1UNL     C2    2   0.056  -0.066  -0.328
    1UNL     C3    3   0.083   0.065  -0.325
    1UNL     C4    4   0.125   0.142  -0.204
    1UNL     O1    5   0.190   0.064  -0.104
    1UNL     C5    6   0.317   0.118  -0.071
    1UNL     O2    7   0.397   0.146  -0.185
    1UNL     C6    8   0.429   0.027  -0.258
    1UNL     C7    9   0.494   0.059  -0.391
    1UNL     C8   10   0.519  -0.064  -0.171
    1UNL     O3   11   0.555  -0.183  -0.239
    1UNL     C9   12   0.447  -0.100  -0.039
    1UNL     O4   13   0.347  -0.197  -0.066
    1UNL    C10   14   0.391   0.027   0.031
    1UNL     O5   15   0.491   0.101   0.099
    1UNL    C11   16   0.545   0.031   0.210
    1UNL     O6   17   0.633  -0.075   0.171
    1UNL    C12   18   0.748  -0.027   0.102
    1UNL    C13   19   0.827  -0.145   0.046
    1UNL     O7   20   0.869  -0.231   0.149
    1UNL    C14   21   0.832   0.065   0.194
    1UNL     O8   22   0.884  -0.006   0.306
    1UNL    C15   23   0.744   0.184   0.240
    1UNL     O9   24   0.709   0.268   0.131
    1UNL    C16   25   0.617   0.128   0.308
    1UNL    O10   26   0.530   0.232   0.347
    1UNL    C17   27   0.069  -0.153  -0.207
    1UNL    C18   28  -0.050  -0.139  -0.112
    1UNL    C19   29  -0.033  -0.215   0.015
    1UNL    C20   30  -0.121  -0.214   0.115
    1UNL    C21   31  -0.094  -0.290   0.239
    1UNL    C22   32  -0.249  -0.136   0.104
    1UNL    O11   33  -0.231  -0.011   0.039
    1UNL    C23   34  -0.354   0.049  -0.000
    1UNL    O12   35  -0.339   0.142  -0.108
    1UNL    C24   36  -0.259   0.254  -0.071
    1UNL    C25   37  -0.228   0.341  -0.192
    1UNL    C26   38  -0.333   0.334   0.040
    1UNL    O13   39  -0.457   0.377  -0.009
    1UNL    C27   40  -0.353   0.244   0.164
    1UNL    O14   41  -0.433   0.311   0.259
    1UNL    C28   42  -0.426   0.115   0.121
    1UNL    O15   43  -0.560   0.143   0.090
    1UNL    C29   44  -0.641   0.028   0.108
    1UNL    O16   45  -0.582  -0.094   0.062
    1UNL    C30   46  -0.665  -0.211   0.075
    1UNL    C31   47  -0.682  -0.252   0.221
    1UNL    O17   48  -0.742  -0.153   0.300
    1UNL    C32   49  -0.804  -0.194   0.003
    1UNL    O18   50  -0.910  -0.219   0.092
    1UNL    C33   51  -0.820  -0.053  -0.060
    1UNL    O19   52  -0.955  -0.034  -0.098
    1UNL    C34   53  -0.783   0.053   0.046
    1UNL    O20   54  -0.883   0.055   0.146
    1UNL     H1   55  -0.007  -0.234  -0.445
    1UNL     H2   56  -0.085  -0.082  -0.487
    1UNL     H3   57   0.082  -0.111  -0.535
    1UNL     H4   58   0.068   0.121  -0.416
    1UNL     H5   59   0.038   0.188  -0.157
    1UNL     H6   60   0.192   0.223  -0.233
    1UNL     H7   61   0.298   0.215  -0.023
    1UNL     H8   62   0.334  -0.026  -0.274
    1UNL     H9   63   0.428   0.121  -0.453
    1UNL    H10   64   0.518  -0.031  -0.446
    1UNL    H11   65   0.586   0.115  -0.375
    1UNL    H12   66   0.613  -0.010  -0.151
    1UNL    H13   67   0.480  -0.246  -0.230
    1UNL    H14   68   0.519  -0.149   0.028
    1UNL    H15   69   0.302  -0.223   0.018
    1UNL    H16   70   0.317  -0.005   0.105
    1UNL    H17   71   0.461  -0.016   0.263
    1UNL    H18   72   0.710   0.034   0.019
    1UNL    H19   73   0.766  -0.205  -0.022
    1UNL    H20   74   0.916  -0.111  -0.009
    1UNL    H21   75   0.880  -0.175   0.229
    1UNL    H22   76   0.919   0.103   0.137
    1UNL    H23   77   0.930   0.055   0.367
    1UNL    H24   78   0.799   0.248   0.311
    1UNL    H25   79   0.632   0.227   0.086
    1UNL    H26   80   0.645   0.073   0.399
    1UNL    H27   81   0.505   0.284   0.268
    1UNL    H28   82   0.080  -0.258  -0.238
    1UNL    H29   83   0.161  -0.128  -0.155
    1UNL    H30   84  -0.064  -0.033  -0.087
    1UNL    H31   85  -0.142  -0.171  -0.161
    1UNL    H32   86   0.058  -0.272   0.028
    1UNL    H33   87  -0.055  -0.390   0.217
    1UNL    H34   88  -0.022  -0.238   0.302
    1UNL    H35   89  -0.185  -0.303   0.298
    1UNL    H36   90  -0.322  -0.195   0.048
    1UNL    H37   91  -0.290  -0.117   0.203
    1UNL    H38   92  -0.418  -0.029  -0.042
    1UNL    H39   93  -0.166   0.212  -0.029
    1UNL    H40   94  -0.320   0.382  -0.232
    1UNL    H41   95  -0.181   0.282  -0.271
    1UNL    H42   96  -0.162   0.424  -0.166
    1UNL    H43   97  -0.277   0.425   0.067
    1UNL    H44   98  -0.513   0.298  -0.021
    1UNL    H45   99  -0.257   0.221   0.212
    1UNL    H46  100  -0.523   0.320   0.221
    1UNL    H47  101  -0.427   0.045   0.206
    1UNL    H48  102  -0.651   0.017   0.217
    1UNL    H49  103  -0.608  -0.290   0.023
    1UNL    H50  104  -0.584  -0.274   0.267
    1UNL    H51  105  -0.743  -0.342   0.229
    1UNL    H52  106  -0.808  -0.102   0.246
    1UNL    H53  107  -0.813  -0.270  -0.077
    1UNL    H54  108  -0.992  -0.179   0.056
    1UNL    H55  109  -0.755  -0.042  -0.148
    1UNL    H56  110  -0.979  -0.096  -0.171
    1UNL    H57  111  -0.782   0.153   0.000
    1UNL    H58  112  -0.971   0.057   0.101
   0.00000   0.00000   0.00000   0.00000   0.00000   0.00000   0.00000   0.00000   0.00000
Generated with MDTraj, t= 1.0
 112
    1UNL     C1    1   0.026  -0.089  -0.473
    1UNL     C2    2   0.042  -0.062  -0.323
    1UNL     C3    3   0.075   0.063  -0.290
    1UNL     C4    4   0.095   0.133  -0.157
    1UNL     O1    5   0.172   0.063  -0.061
    1UNL     C5    6   0.304   0.107  -0.047
    1UNL     O2    7   0.367   0.137  -0.172
    1UNL     C6    8   0.397   0.020  -0.242
    1UNL     C7    9   0.448   0.045  -0.381
    1UNL     C8   10   0.505  -0.056  -0.150
    1UNL     O3   11   0.561  -0.164  -0.220
    1UNL     C9   12   0.440  -0.104  -0.024
    1UNL     O4   13   0.337  -0.196  -0.044
    1UNL    C10   14   0.393   0.029   0.053
    1UNL     O5   15   0.507   0.098   0.115
    1UNL    C11   16   0.577   0.034   0.217
    1UNL     O6   17   0.656  -0.072   0.165
    1UNL    C12   18   0.772  -0.023   0.097
    1UNL    C13   19   0.852  -0.150   0.058
    1UNL     O7   20   0.901  -0.229   0.169
    1UNL    C14   21   0.856   0.079   0.181
    1UNL     O8   22   0.915   0.028   0.299
    1UNL    C15   23   0.766   0.194   0.219
    1UNL     O9   24   0.717   0.277   0.114
    1UNL    C16   25   0.650   0.134   0.305
    1UNL    O10   26   0.556   0.236   0.345
    1UNL    C17   27   0.032  -0.182  -0.230
    1UNL    C18   28  -0.098  -0.190  -0.152
    1UNL    C19   29  -0.088  -0.271  -0.030
    1UNL    C20   30  -0.139  -0.234   0.087
    1UNL    C21   31  -0.107  -0.321   0.205
    1UNL    C22   32  -0.229  -0.113   0.108
    1UNL    O11   33  -0.215  -0.003   0.021
    1UNL    C23   34  -0.347   0.047  -0.011
    1UNL    O12   35  -0.357   0.143  -0.114
    1UNL    C24   36  -0.277   0.261  -0.096
    1UNL    C25   37  -0.278   0.334  -0.221
    1UNL    C26   38  -0.331   0.331   0.033
    1UNL    O13   39  -0.465   0.380   0.010
    1UNL    C27   40  -0.336   0.232   0.160
    1UNL    O14   41  -0.399   0.308   0.261
    1UNL    C28   42  -0.412   0.105   0.125
    1UNL    O15   43  -0.548   0.136   0.095
    1UNL    C29   44  -0.638   0.024   0.110
    1UNL    O16   45  -0.574  -0.100   0.073
    1UNL    C30   46  -0.666  -0.208   0.090
    1UNL    C31   47  -0.692  -0.245   0.233
    1UNL    O17   48  -0.764  -0.145   0.308
    1UNL    C32   49  -0.801  -0.189   0.003
    1UNL    O18   50  -0.926  -0.214   0.070
    1UNL    C33   51  -0.807  -0.048  -0.069
    1UNL    O19   52  -0.931  -0.018  -0.117
    1UNL    C34   53  -0.775   0.061   0.031
    1UNL    O20   54  -0.875   0.068   0.127
    1UNL     H1   55   0.107  -0.149  -0.523
    1UNL     H2   56  -0.062  -0.138  -0.487
    1UNL     H3   57   0.032   0.012  -0.529
    1UNL     H4   58   0.063   0.130  -0.379
    1UNL     H5   59   0.007   0.157  -0.098
    1UNL     H6   60   0.145   0.228  -0.163
    1UNL     H7   61   0.276   0.207  -0.005
    1UNL     H8   62   0.312  -0.049  -0.250
    1UNL     H9   63   0.386   0.115  -0.433
    1UNL    H10   64   0.455  -0.042  -0.432
    1UNL    H11   65   0.553   0.091  -0.369
    1UNL    H12   66   0.596  -0.000  -0.133
    1UNL    H13   67   0.494  -0.244  -0.205
    1UNL    H14   68   0.508  -0.161   0.038
    1UNL    H15   69   0.313  -0.236   0.046
    1UNL    H16   70   0.317   0.000   0.128
    1UNL    H17   71   0.494  -0.022   0.266
    1UNL    H18   72   0.733   0.028   0.014
    1UNL    H19   73   0.791  -0.225   0.012
    1UNL    H20   74   0.936  -0.141  -0.014
    1UNL    H21   75   0.932  -0.182   0.251
    1UNL    H22   76   0.943   0.108   0.114
    1UNL    H23   77   0.912   0.099   0.373
    1UNL    H24   78   0.833   0.259   0.280
    1UNL    H25   79   0.637   0.244   0.070
    1UNL    H26   80   0.671   0.080   0.401
    1UNL    H27   81   0.491   0.265   0.277
    1UNL    H28   82   0.055  -0.279  -0.283
    1UNL    H29   83   0.104  -0.163  -0.152
    1UNL    H30   84  -0.108  -0.086  -0.126
    1UNL    H31   85  -0.178  -0.216  -0.219
    1UNL    H32   86  -0.049  -0.368  -0.038
    1UNL    H33   87  -0.005  -0.322   0.236
    1UNL    H34   88  -0.169  -0.293   0.279
    1UNL    H35   89  -0.133  -0.430   0.172
    1UNL    H36   90  -0.332  -0.140   0.119
    1UNL    H37   91  -0.201  -0.071   0.206
    1UNL    H38   92  -0.415  -0.030  -0.046
    1UNL    H39   93  -0.181   0.225  -0.067
    1UNL    H40   94  -0.381   0.343  -0.263
    1UNL    H41   95  -0.222   0.296  -0.301
    1UNL    H42   96  -0.248   0.438  -0.204
    1UNL    H43   97  -0.279   0.426   0.062
    1UNL    H44   98  -0.519   0.296   0.015
    1UNL    H45   99  -0.234   0.204   0.188
    1UNL    H46  100  -0.471   0.370   0.222
    1UNL    H47  101  -0.420   0.038   0.211
    1UNL    H48  102  -0.650   0.011   0.219
    1UNL    H49  103  -0.610  -0.289   0.044
    1UNL    H50  104  -0.595  -0.259   0.287
    1UNL    H51  105  -0.754  -0.338   0.249
    1UNL    H52  106  -0.802  -0.081   0.249
    1UNL    H53  107  -0.786  -0.253  -0.084
    1UNL    H54  108  -0.957  -0.128   0.112
    1UNL    H55  109  -0.740  -0.041  -0.153
    1UNL    H56  110  -0.951  -0.085  -0.177
    1UNL    H57  111  -0.761   0.162  -0.020
    1UNL    H58  112  -0.965   0.072   0.082
   0.00000   0.00000   0.00000   0.00000   0.00000   0.00000   0.00000   0.00000   0.00000
Generated with MDTraj, t= 2.0
 112
    1UNL     C1    1   0.051  -0.053  -0.446
    1UNL     C2    2   0.044  -0.041  -0.301
    1UNL     C3    3   0.061   0.072  -0.235
    1UNL     C4    4   0.073   0.084  -0.087
    1UNL     O1    5   0.185   0.003  -0.043
    1UNL     C5    6   0.292   0.077  -0.022
    1UNL     O2    7   0.350   0.122  -0.146
    1UNL     C6    8   0.393   0.009  -0.232
    1UNL     C7    9   0.432   0.054  -0.366
    1UNL     C8   10   0.504  -0.073  -0.153
    1UNL     O3   11   0.534  -0.193  -0.220
    1UNL     C9   12   0.459  -0.111  -0.016
    1UNL     O4   13   0.356  -0.206  -0.025
    1UNL    C10   14   0.397   0.013   0.075
    1UNL     O5   15   0.496   0.108   0.112
    1UNL    C11   16   0.583   0.052   0.214
    1UNL     O6   17   0.678  -0.061   0.175
    1UNL    C12   18   0.782  -0.018   0.094
    1UNL    C13   19   0.859  -0.143   0.061
    1UNL     O7   20   0.916  -0.212   0.164
    1UNL    C14   21   0.864   0.090   0.172
    1UNL     O8   22   0.941   0.035   0.279
    1UNL    C15   23   0.776   0.210   0.211
    1UNL     O9   24   0.726   0.281   0.106
    1UNL    C16   25   0.656   0.160   0.297
    1UNL    O10   26   0.571   0.271   0.326
    1UNL    C17   27   0.024  -0.170  -0.218
    1UNL    C18   28  -0.126  -0.185  -0.181
    1UNL    C19   29  -0.135  -0.279  -0.068
    1UNL    C20   30  -0.161  -0.247   0.058
    1UNL    C21   31  -0.145  -0.360   0.160
    1UNL    C22   32  -0.190  -0.105   0.100
    1UNL    O11   33  -0.223  -0.005  -0.002
    1UNL    C23   34  -0.362   0.047  -0.016
    1UNL    O12   35  -0.375   0.137  -0.120
    1UNL    C24   36  -0.291   0.255  -0.110
    1UNL    C25   37  -0.306   0.339  -0.234
    1UNL    C26   38  -0.333   0.328   0.021
    1UNL    O13   39  -0.464   0.377   0.004
    1UNL    C27   40  -0.322   0.232   0.144
    1UNL    O14   41  -0.363   0.292   0.262
    1UNL    C28   42  -0.413   0.114   0.114
    1UNL    O15   43  -0.551   0.148   0.101
    1UNL    C29   44  -0.635   0.034   0.133
    1UNL    O16   45  -0.582  -0.093   0.098
    1UNL    C30   46  -0.670  -0.205   0.096
    1UNL    C31   47  -0.716  -0.242   0.237
    1UNL    O17   48  -0.775  -0.129   0.309
    1UNL    C32   49  -0.787  -0.188  -0.015
    1UNL    O18   50  -0.915  -0.208   0.045
    1UNL    C33   51  -0.786  -0.042  -0.069
    1UNL    O19   52  -0.905  -0.023  -0.149
    1UNL    C34   53  -0.762   0.062   0.047
    1UNL    O20   54  -0.881   0.067   0.131
    1UNL     H1   55   0.128   0.014  -0.497
    1UNL     H2   56   0.061  -0.153  -0.475
    1UNL     H3   57  -0.040  -0.001  -0.494
    1UNL     H4   58   0.047   0.157  -0.292
    1UNL     H5   59  -0.016   0.049  -0.038
    1UNL     H6   60   0.086   0.185  -0.049
    1UNL     H7   61   0.266   0.175   0.029
    1UNL     H8   62   0.307  -0.057  -0.249
    1UNL     H9   63   0.344   0.083  -0.414
    1UNL    H10   64   0.480  -0.021  -0.423
    1UNL    H11   65   0.495   0.147  -0.356
    1UNL    H12   66   0.589  -0.007  -0.153
    1UNL    H13   67   0.466  -0.248  -0.187
    1UNL    H14   68   0.533  -0.151   0.049
    1UNL    H15   69   0.271  -0.168   0.000
    1UNL    H16   70   0.353  -0.017   0.173
    1UNL    H17   71   0.508  -0.001   0.280
    1UNL    H18   72   0.737   0.027   0.011
    1UNL    H19   73   0.807  -0.214   0.006
    1UNL    H20   74   0.945  -0.116  -0.002
    1UNL    H21   75   0.993  -0.162   0.197
    1UNL    H22   76   0.946   0.134   0.105
    1UNL    H23   77   0.881  -0.034   0.321
    1UNL    H24   78   0.844   0.276   0.272
    1UNL    H25   79   0.641   0.236   0.072
    1UNL    H26   80   0.683   0.123   0.401
    1UNL    H27   81   0.579   0.330   0.247
    1UNL    H28   82   0.048  -0.253  -0.294
    1UNL    H29   83   0.096  -0.177  -0.138
    1UNL    H30   84  -0.165  -0.088  -0.169
    1UNL    H31   85  -0.178  -0.215  -0.273
    1UNL    H32   86  -0.114  -0.390  -0.092
    1UNL    H33   87  -0.158  -0.338   0.260
    1UNL    H34   88  -0.227  -0.425   0.140
    1UNL    H35   89  -0.044  -0.416   0.159
    1UNL    H36   90  -0.270  -0.106   0.168
    1UNL    H37   91  -0.108  -0.073   0.167
    1UNL    H38   92  -0.426  -0.033  -0.052
    1UNL    H39   93  -0.190   0.225  -0.094
    1UNL    H40   94  -0.397   0.403  -0.225
    1UNL    H41   95  -0.325   0.285  -0.322
    1UNL    H42   96  -0.223   0.409  -0.250
    1UNL    H43   97  -0.284   0.430   0.036
    1UNL    H44   98  -0.515   0.296   0.017
    1UNL    H45   99  -0.222   0.191   0.144
    1UNL    H46  100  -0.448   0.338   0.256
    1UNL    H47  101  -0.399   0.043   0.191
    1UNL    H48  102  -0.661   0.019   0.240
    1UNL    H49  103  -0.609  -0.287   0.063
    1UNL    H50  104  -0.629  -0.276   0.301
    1UNL    H51  105  -0.790  -0.328   0.238
    1UNL    H52  106  -0.830  -0.070   0.246
    1UNL    H53  107  -0.774  -0.268  -0.088
    1UNL    H54  108  -0.933  -0.132   0.103
    1UNL    H55  109  -0.710  -0.027  -0.139
    1UNL    H56  110  -0.981  -0.030  -0.092
    1UNL    H57  111  -0.742   0.165  -0.002
    1UNL    H58  112  -0.939   0.141   0.109
   0.00000   0.00000   0.00000   0.00000   0.00000   0.00000   0.00000   0.00000   0.00000
Generated with MDTraj, t= 3.0
 112
    1UNL     C1    1   0.053   0.001  -0.421
    1UNL     C2    2   0.038  -0.018  -0.279
    1UNL     C3    3   0.095   0.066  -0.193
    1UNL     C4    4   0.082   0.057  -0.039
    1UNL     O1    5   0.189  -0.010   0.016
    1UNL     C5    6   0.305   0.071   0.005
    1UNL     O2    7   0.346   0.114  -0.120
    1UNL     C6    8   0.384   0.002  -0.212
    1UNL     C7    9   0.424   0.053  -0.344
    1UNL     C8   10   0.504  -0.075  -0.140
    1UNL     O3   11   0.530  -0.204  -0.219
    1UNL     C9   12   0.469  -0.118   0.000
    1UNL     O4   13   0.366  -0.213  -0.003
    1UNL    C10   14   0.420  -0.003   0.083
    1UNL     O5   15   0.520   0.094   0.110
    1UNL    C11   16   0.594   0.060   0.229
    1UNL     O6   17   0.687  -0.049   0.206
    1UNL    C12   18   0.774  -0.012   0.101
    1UNL    C13   19   0.848  -0.126   0.036
    1UNL     O7   20   0.938  -0.194   0.117
    1UNL    C14   21   0.867   0.092   0.165
    1UNL     O8   22   0.927   0.050   0.284
    1UNL    C15   23   0.774   0.220   0.183
    1UNL     O9   24   0.729   0.274   0.058
    1UNL    C16   25   0.659   0.183   0.283
    1UNL    O10   26   0.570   0.289   0.307
    1UNL    C17   27   0.001  -0.153  -0.221
    1UNL    C18   28  -0.157  -0.177  -0.209
    1UNL    C19   29  -0.191  -0.280  -0.106
    1UNL    C20   30  -0.204  -0.252   0.024
    1UNL    C21   31  -0.236  -0.361   0.117
    1UNL    C22   32  -0.203  -0.119   0.082
    1UNL    O11   33  -0.237  -0.012  -0.011
    1UNL    C23   34  -0.371   0.032  -0.013
    1UNL    O12   35  -0.391   0.117  -0.121
    1UNL    C24   36  -0.298   0.230  -0.122
    1UNL    C25   37  -0.324   0.309  -0.255
    1UNL    C26   38  -0.320   0.312   0.009
    1UNL    O13   39  -0.442   0.376   0.004
    1UNL    C27   40  -0.307   0.228   0.142
    1UNL    O14   41  -0.354   0.302   0.256
    1UNL    C28   42  -0.407   0.105   0.123
    1UNL    O15   43  -0.541   0.149   0.113
    1UNL    C29   44  -0.628   0.040   0.127
    1UNL    O16   45  -0.570  -0.095   0.118
    1UNL    C30   46  -0.663  -0.204   0.103
    1UNL    C31   47  -0.726  -0.237   0.240
    1UNL    O17   48  -0.789  -0.133   0.314
    1UNL    C32   49  -0.774  -0.179  -0.011
    1UNL    O18   50  -0.908  -0.191   0.028
    1UNL    C33   51  -0.755  -0.042  -0.072
    1UNL    O19   52  -0.863  -0.013  -0.164
    1UNL    C34   53  -0.754   0.061   0.040
    1UNL    O20   54  -0.869   0.056   0.134
    1UNL     H1   55  -0.000   0.087  -0.469
    1UNL     H2   56   0.168  -0.010  -0.447
    1UNL     H3   57  -0.001  -0.080  -0.475
    1UNL     H4   58   0.131   0.165  -0.235
    1UNL     H5   59  -0.014   0.007  -0.019
    1UNL     H6   60   0.077   0.161  -0.006
    1UNL     H7   61   0.293   0.169   0.061
    1UNL     H8   62   0.299  -0.067  -0.222
    1UNL     H9   63   0.347   0.110  -0.385
    1UNL    H10   64   0.444  -0.035  -0.412
    1UNL    H11   65   0.510   0.109  -0.335
    1UNL    H12   66   0.594  -0.018  -0.159
    1UNL    H13   67   0.456  -0.266  -0.185
    1UNL    H14   68   0.553  -0.162   0.048
    1UNL    H15   69   0.273  -0.177  -0.020
    1UNL    H16   70   0.378  -0.039   0.180
    1UNL    H17   71   0.515   0.027   0.304
    1UNL    H18   72   0.717   0.042   0.034
    1UNL    H19   73   0.779  -0.194   0.012
    1UNL    H20   74   0.892  -0.098  -0.061
    1UNL    H21   75   1.011  -0.130   0.140
    1UNL    H22   76   0.952   0.126   0.096
    1UNL    H23   77   0.862   0.009   0.339
    1UNL    H24   78   0.838   0.300   0.232
    1UNL    H25   79   0.650   0.230   0.026
    1UNL    H26   80   0.705   0.172   0.390
    1UNL    H27   81   0.568   0.329   0.217
    1UNL    H28   82   0.055  -0.230  -0.288
    1UNL    H29   83   0.064  -0.159  -0.131
    1UNL    H30   84  -0.212  -0.088  -0.205
    1UNL    H31   85  -0.190  -0.217  -0.306
    1UNL    H32   86  -0.184  -0.376  -0.138
    1UNL    H33   87  -0.330  -0.404   0.089
    1UNL    H34   88  -0.174  -0.450   0.096
    1UNL    H35   89  -0.242  -0.339   0.218
    1UNL    H36   90  -0.263  -0.115   0.166
    1UNL    H37   91  -0.107  -0.105   0.134
    1UNL    H38   92  -0.437  -0.050  -0.039
    1UNL    H39   93  -0.195   0.195  -0.117
    1UNL    H40   94  -0.431   0.317  -0.261
    1UNL    H41   95  -0.297   0.246  -0.344
    1UNL    H42   96  -0.276   0.406  -0.252
    1UNL    H43   97  -0.256   0.405   0.018
    1UNL    H44   98  -0.497   0.293  -0.010
    1UNL    H45   99  -0.205   0.201   0.160
    1UNL    H46  100  -0.433   0.349   0.241
    1UNL    H47  101  -0.392   0.044   0.209
    1UNL    H48  102  -0.661   0.047   0.234
    1UNL    H49  103  -0.604  -0.288   0.072
    1UNL    H50  104  -0.644  -0.270   0.309
    1UNL    H51  105  -0.802  -0.317   0.224
    1UNL    H52  106  -0.822  -0.060   0.262
    1UNL    H53  107  -0.760  -0.254  -0.089
    1UNL    H54  108  -0.922  -0.108   0.079
    1UNL    H55  109  -0.662  -0.034  -0.117
    1UNL    H56  110  -0.956  -0.019  -0.119
    1UNL    H57  111  -0.742   0.167  -0.008
    1UNL    H58  112  -0.908   0.138   0.167
   0.00000   0.00000   0.00000   0.00000   0.00000   0.00000   0.00000   0.00000   0.00000
Generated with MDTraj, t= 4.0
 112
    1UNL     C1    1   0.020   0.008  -0.403
    1UNL     C2    2   0.033  -0.013  -0.258
    1UNL     C3    3   0.058   0.095  -0.180
    1UNL     C4    4   0.066   0.078  -0.020
    1UNL     O1    5   0.165  -0.004   0.024
    1UNL     C5    6   0.294   0.071   0.026
    1UNL     O2    7   0.346   0.108  -0.098
    1UNL     C6    8   0.390  -0.002  -0.183
    1UNL     C7    9   0.429   0.042  -0.320
    1UNL     C8   10   0.505  -0.073  -0.111
    1UNL     O3   11   0.545  -0.189  -0.203
    1UNL     C9   12   0.469  -0.125   0.027
    1UNL     O4   13   0.384  -0.238   0.024
    1UNL    C10   14   0.412  -0.010   0.111
    1UNL     O5   15   0.512   0.087   0.135
    1UNL    C11   16   0.614   0.060   0.230
    1UNL     O6   17   0.693  -0.049   0.193
    1UNL    C12   18   0.774  -0.011   0.087
    1UNL    C13   19   0.864  -0.124   0.032
    1UNL     O7   20   0.961  -0.170   0.124
    1UNL    C14   21   0.872   0.101   0.133
    1UNL     O8   22   0.949   0.067   0.244
    1UNL    C15   23   0.789   0.228   0.162
    1UNL     O9   24   0.734   0.283   0.040
    1UNL    C16   25   0.686   0.188   0.271
    1UNL    O10   26   0.592   0.290   0.292
    1UNL    C17   27  -0.016  -0.145  -0.206
    1UNL    C18   28  -0.168  -0.153  -0.221
    1UNL    C19   29  -0.229  -0.269  -0.154
    1UNL    C20   30  -0.260  -0.276  -0.023
    1UNL    C21   31  -0.341  -0.390   0.032
    1UNL    C22   32  -0.229  -0.163   0.074
    1UNL    O11   33  -0.229  -0.029   0.024
    1UNL    C23   34  -0.360   0.025   0.006
    1UNL    O12   35  -0.379   0.094  -0.114
    1UNL    C24   36  -0.293   0.215  -0.128
    1UNL    C25   37  -0.326   0.278  -0.266
    1UNL    C26   38  -0.320   0.309  -0.004
    1UNL    O13   39  -0.459   0.358  -0.011
    1UNL    C27   40  -0.306   0.237   0.133
    1UNL    O14   41  -0.323   0.324   0.241
    1UNL    C28   42  -0.402   0.112   0.136
    1UNL    O15   43  -0.538   0.150   0.141
    1UNL    C29   44  -0.629   0.044   0.145
    1UNL    O16   45  -0.567  -0.089   0.134
    1UNL    C30   46  -0.653  -0.203   0.112
    1UNL    C31   47  -0.726  -0.246   0.235
    1UNL    O17   48  -0.791  -0.145   0.297
    1UNL    C32   49  -0.755  -0.172  -0.006
    1UNL    O18   50  -0.893  -0.183   0.035
    1UNL    C33   51  -0.730  -0.036  -0.071
    1UNL    O19   52  -0.842  -0.018  -0.170
    1UNL    C34   53  -0.738   0.065   0.036
    1UNL    O20   54  -0.863   0.076   0.101
    1UNL     H1   55  -0.085  -0.006  -0.433
    1UNL     H2   56   0.070   0.113  -0.428
    1UNL     H3   57   0.079  -0.074  -0.453
    1UNL     H4   58   0.066   0.188  -0.220
    1UNL     H5   59  -0.036   0.035   0.005
    1UNL     H6   60   0.078   0.179   0.022
    1UNL     H7   61   0.267   0.164   0.077
    1UNL     H8   62   0.302  -0.068  -0.178
    1UNL     H9   63   0.354   0.104  -0.363
    1UNL    H10   64   0.432  -0.055  -0.377
    1UNL    H11   65   0.523   0.081  -0.321
    1UNL    H12   66   0.584  -0.002  -0.104
    1UNL    H13   67   0.482  -0.263  -0.174
    1UNL    H14   68   0.553  -0.148   0.089
    1UNL    H15   69   0.293  -0.209   0.003
    1UNL    H16   70   0.370  -0.057   0.203
    1UNL    H17   71   0.554   0.015   0.317
    1UNL    H18   72   0.713   0.035   0.018
    1UNL    H19   73   0.801  -0.195   0.002
    1UNL    H20   74   0.909  -0.088  -0.060
    1UNL    H21   75   0.968  -0.099   0.190
    1UNL    H22   76   0.946   0.120   0.046
    1UNL    H23   77   0.886   0.030   0.313
    1UNL    H24   78   0.863   0.306   0.198
    1UNL    H25   79   0.649   0.237   0.012
    1UNL    H26   80   0.735   0.182   0.376
    1UNL    H27   81   0.565   0.323   0.204
    1UNL    H28   82   0.050  -0.229  -0.251
    1UNL    H29   83   0.015  -0.158  -0.099
    1UNL    H30   84  -0.216  -0.060  -0.192
    1UNL    H31   85  -0.191  -0.151  -0.327
    1UNL    H32   86  -0.241  -0.359  -0.223
    1UNL    H33   87  -0.325  -0.478  -0.033
    1UNL    H34   88  -0.310  -0.419   0.131
    1UNL    H35   89  -0.440  -0.360   0.025
    1UNL    H36   90  -0.289  -0.169   0.158
    1UNL    H37   91  -0.132  -0.176   0.124
    1UNL    H38   92  -0.435  -0.052   0.008
    1UNL    H39   93  -0.189   0.178  -0.134
    1UNL    H40   94  -0.428   0.305  -0.265
    1UNL    H41   95  -0.314   0.198  -0.347
    1UNL    H42   96  -0.254   0.358  -0.278
    1UNL    H43   97  -0.253   0.398  -0.009
    1UNL    H44   98  -0.511   0.283   0.019
    1UNL    H45   99  -0.208   0.193   0.131
    1UNL    H46  100  -0.409   0.374   0.221
    1UNL    H47  101  -0.381   0.060   0.225
    1UNL    H48  102  -0.677   0.057   0.245
    1UNL    H49  103  -0.588  -0.279   0.081
    1UNL    H50  104  -0.658  -0.285   0.313
    1UNL    H51  105  -0.806  -0.315   0.208
    1UNL    H52  106  -0.813  -0.071   0.226
    1UNL    H53  107  -0.741  -0.245  -0.088
    1UNL    H54  108  -0.941  -0.095   0.044
    1UNL    H55  109  -0.638  -0.036  -0.117
    1UNL    H56  110  -0.902   0.051  -0.138
    1UNL    H57  111  -0.711   0.167  -0.017
    1UNL    H58  112  -0.886   0.167   0.134
   0.00000   0.00000   0.00000   0.00000   0.00000   0.00000   0.00000   0.00000   0.00000
Generated with MDTraj, t= 5.0
 112
    1UNL     C1    1   0.028   0.033  -0.383
    1UNL     C2    2   0.015  -0.003  -0.237
    1UNL     C3    3   0.054   0.087  -0.149
    1UNL     C4    4   0.065   0.066   0.003
    1UNL     O1    5   0.180   0.002   0.044
    1UNL     C5    6   0.303   0.079   0.034
    1UNL     O2    7   0.341   0.106  -0.099
    1UNL     C6    8   0.380  -0.012  -0.179
    1UNL     C7    9   0.414   0.024  -0.321
    1UNL     C8   10   0.495  -0.073  -0.100
    1UNL     O3   11   0.544  -0.197  -0.174
    1UNL     C9   12   0.461  -0.115   0.045
    1UNL     O4   13   0.349  -0.204   0.041
    1UNL    C10   14   0.420   0.021   0.118
    1UNL     O5   15   0.523   0.111   0.136
    1UNL    C11   16   0.627   0.065   0.228
    1UNL     O6   17   0.718  -0.044   0.185
    1UNL    C12   18   0.796  -0.005   0.075
    1UNL    C13   19   0.883  -0.126   0.030
    1UNL     O7   20   0.957  -0.180   0.130
    1UNL    C14   21   0.883   0.120   0.108
    1UNL     O8   22   0.978   0.087   0.211
    1UNL    C15   23   0.792   0.231   0.155
    1UNL     O9   24   0.720   0.279   0.046
    1UNL    C16   25   0.707   0.192   0.273
    1UNL    O10   26   0.612   0.287   0.310
    1UNL    C17   27  -0.064  -0.130  -0.202
    1UNL    C18   28  -0.209  -0.126  -0.243
    1UNL    C19   29  -0.294  -0.247  -0.194
    1UNL    C20   30  -0.299  -0.288  -0.064
    1UNL    C21   31  -0.353  -0.428  -0.028
    1UNL    C22   32  -0.258  -0.200   0.057
    1UNL    O11   33  -0.241  -0.067   0.031
    1UNL    C23   34  -0.362   0.005   0.011
    1UNL    O12   35  -0.374   0.080  -0.114
    1UNL    C24   36  -0.287   0.194  -0.128
    1UNL    C25   37  -0.310   0.246  -0.266
    1UNL    C26   38  -0.314   0.291  -0.014
    1UNL    O13   39  -0.449   0.351  -0.017
    1UNL    C27   40  -0.298   0.234   0.121
    1UNL    O14   41  -0.346   0.323   0.225
    1UNL    C28   42  -0.385   0.102   0.136
    1UNL    O15   43  -0.516   0.141   0.164
    1UNL    C29   44  -0.615   0.035   0.161
    1UNL    O16   45  -0.560  -0.097   0.139
    1UNL    C30   46  -0.659  -0.203   0.125
    1UNL    C31   47  -0.736  -0.217   0.254
    1UNL    O17   48  -0.828  -0.107   0.280
    1UNL    C32   49  -0.747  -0.179  -0.000
    1UNL    O18   50  -0.886  -0.185   0.031
    1UNL    C33   51  -0.711  -0.044  -0.068
    1UNL    O19   52  -0.818  -0.012  -0.168
    1UNL    C34   53  -0.711   0.070   0.039
    1UNL    O20   54  -0.845   0.099   0.088
    1UNL     H1   55  -0.042  -0.031  -0.447
    1UNL     H2   56   0.007   0.138  -0.396
    1UNL     H3   57   0.134   0.010  -0.424
    1UNL     H4   58   0.118   0.171  -0.191
    1UNL     H5   59  -0.022   0.006   0.045
    1UNL     H6   60   0.055   0.169   0.048
    1UNL     H7   61   0.272   0.170   0.083
    1UNL     H8   62   0.303  -0.090  -0.170
    1UNL     H9   63   0.323   0.038  -0.376
    1UNL    H10   64   0.470  -0.055  -0.361
    1UNL    H11   65   0.476   0.118  -0.320
    1UNL    H12   66   0.578  -0.004  -0.119
    1UNL    H13   67   0.487  -0.265  -0.155
    1UNL    H14   68   0.537  -0.164   0.105
    1UNL    H15   69   0.273  -0.143   0.049
    1UNL    H16   70   0.400  -0.020   0.218
    1UNL    H17   71   0.569   0.015   0.311
    1UNL    H18   72   0.727   0.019  -0.002
    1UNL    H19   73   0.833  -0.197  -0.022
    1UNL    H20   74   0.950  -0.081  -0.042
    1UNL    H21   75   1.006  -0.110   0.181
    1UNL    H22   76   0.943   0.144   0.014
    1UNL    H23   77   0.940   0.083   0.306
    1UNL    H24   78   0.861   0.317   0.181
    1UNL    H25   79   0.640   0.224   0.045
    1UNL    H26   80   0.768   0.174   0.371
    1UNL    H27   81   0.571   0.325   0.229
    1UNL    H28   82  -0.017  -0.222  -0.251
    1UNL    H29   83  -0.038  -0.157  -0.091
    1UNL    H30   84  -0.245  -0.041  -0.181
    1UNL    H31   85  -0.227  -0.098  -0.346
    1UNL    H32   86  -0.330  -0.315  -0.269
    1UNL    H33   87  -0.328  -0.453   0.071
    1UNL    H34   88  -0.458  -0.440  -0.043
    1UNL    H35   89  -0.297  -0.501  -0.110
    1UNL    H36   90  -0.328  -0.210   0.133
    1UNL    H37   91  -0.170  -0.249   0.103
    1UNL    H38   92  -0.446  -0.062   0.015
    1UNL    H39   93  -0.188   0.142  -0.112
    1UNL    H40   94  -0.402   0.298  -0.282
    1UNL    H41   95  -0.314   0.158  -0.332
    1UNL    H42   96  -0.217   0.298  -0.294
    1UNL    H43   97  -0.245   0.376  -0.016
    1UNL    H44   98  -0.501   0.286   0.036
    1UNL    H45   99  -0.198   0.215   0.150
    1UNL    H46  100  -0.434   0.366   0.188
    1UNL    H47  101  -0.350   0.056   0.225
    1UNL    H48  102  -0.675   0.040   0.254
    1UNL    H49  103  -0.605  -0.290   0.105
    1UNL    H50  104  -0.667  -0.217   0.339
    1UNL    H51  105  -0.796  -0.304   0.252
    1UNL    H52  106  -0.860  -0.079   0.192
    1UNL    H53  107  -0.730  -0.264  -0.070
    1UNL    H54  108  -0.945  -0.171  -0.044
    1UNL    H55  109  -0.622  -0.057  -0.119
    1UNL    H56  110  -0.881   0.047  -0.117
    1UNL    H57  111  -0.664   0.163  -0.015
    1UNL    H58  112  -0.857   0.192   0.122
   0.00000   0.00000   0.00000   0.00000   0.00000   0.00000   0.00000   0.00000   0.00000
Generated with MDTraj, t= 6.0
 112
    1UNL     C1    1   0.020   0.060  -0.379
    1UNL     C2    2   0.004   0.018  -0.239
    1UNL     C3    3   0.073   0.083  -0.149
    1UNL     C4    4   0.073   0.058  -0.000
    1UNL     O1    5   0.189  -0.009   0.045
    1UNL     C5    6   0.298   0.075   0.044
    1UNL     O2    7   0.334   0.101  -0.087
    1UNL     C6    8   0.369  -0.021  -0.167
    1UNL     C7    9   0.386   0.028  -0.309
    1UNL     C8   10   0.488  -0.096  -0.102
    1UNL     O3   11   0.510  -0.226  -0.161
    1UNL     C9   12   0.471  -0.109   0.051
    1UNL     O4   13   0.373  -0.201   0.077
    1UNL    C10   14   0.423   0.026   0.119
    1UNL     O5   15   0.530   0.120   0.127
    1UNL    C11   16   0.622   0.081   0.220
    1UNL     O6   17   0.709  -0.025   0.177
    1UNL    C12   18   0.801   0.008   0.069
    1UNL    C13   19   0.871  -0.128   0.020
    1UNL     O7   20   0.965  -0.176   0.110
    1UNL    C14   21   0.896   0.122   0.106
    1UNL     O8   22   0.997   0.086   0.201
    1UNL    C15   23   0.811   0.244   0.163
    1UNL     O9   24   0.732   0.304   0.052
    1UNL    C16   25   0.709   0.203   0.276
    1UNL    O10   26   0.626   0.309   0.322
    1UNL    C17   27  -0.065  -0.119  -0.205
    1UNL    C18   28  -0.204  -0.136  -0.265
    1UNL    C19   29  -0.284  -0.257  -0.220
    1UNL    C20   30  -0.310  -0.293  -0.094
    1UNL    C21   31  -0.383  -0.416  -0.064
    1UNL    C22   32  -0.274  -0.216   0.031
    1UNL    O11   33  -0.256  -0.081   0.002
    1UNL    C23   34  -0.373   0.004   0.007
    1UNL    O12   35  -0.385   0.081  -0.112
    1UNL    C24   36  -0.280   0.180  -0.119
    1UNL    C25   37  -0.277   0.247  -0.254
    1UNL    C26   38  -0.309   0.287  -0.001
    1UNL    O13   39  -0.442   0.345  -0.007
    1UNL    C27   40  -0.286   0.213   0.127
    1UNL    O14   41  -0.303   0.301   0.234
    1UNL    C28   42  -0.387   0.088   0.137
    1UNL    O15   43  -0.513   0.136   0.174
    1UNL    C29   44  -0.614   0.037   0.156
    1UNL    O16   45  -0.570  -0.095   0.175
    1UNL    C30   46  -0.676  -0.192   0.161
    1UNL    C31   47  -0.782  -0.188   0.272
    1UNL    O17   48  -0.859  -0.059   0.270
    1UNL    C32   49  -0.743  -0.193   0.014
    1UNL    O18   50  -0.888  -0.210   0.021
    1UNL    C33   51  -0.705  -0.060  -0.067
    1UNL    O19   52  -0.813  -0.037  -0.160
    1UNL    C34   53  -0.701   0.061   0.025
    1UNL    O20   54  -0.832   0.105   0.055
    1UNL     H1   55  -0.001  -0.035  -0.447
    1UNL     H2   56  -0.047   0.132  -0.411
    1UNL     H3   57   0.126   0.089  -0.410
    1UNL     H4   58   0.152   0.146  -0.179
    1UNL     H5   59  -0.015   0.006   0.045
    1UNL     H6   60   0.069   0.151   0.064
    1UNL     H7   61   0.265   0.160   0.101
    1UNL     H8   62   0.279  -0.083  -0.157
    1UNL     H9   63   0.314   0.104  -0.333
    1UNL    H10   64   0.388  -0.050  -0.375
    1UNL    H11   65   0.492   0.077  -0.308
    1UNL    H12   66   0.574  -0.033  -0.133
    1UNL    H13   67   0.432  -0.273  -0.108
    1UNL    H14   68   0.563  -0.141   0.101
    1UNL    H15   69   0.279  -0.173   0.073
    1UNL    H16   70   0.404   0.010   0.225
    1UNL    H17   71   0.566   0.032   0.303
    1UNL    H18   72   0.731   0.042  -0.009
    1UNL    H19   73   0.795  -0.198   0.024
    1UNL    H20   74   0.909  -0.132  -0.082
    1UNL    H21   75   1.010  -0.105   0.165
    1UNL    H22   76   0.942   0.155   0.009
    1UNL    H23   77   0.955   0.059   0.289
    1UNL    H24   78   0.882   0.328   0.184
    1UNL    H25   79   0.653   0.245   0.049
    1UNL    H26   80   0.754   0.158   0.374
    1UNL    H27   81   0.597   0.359   0.243
    1UNL    H28   82   0.004  -0.205  -0.233
    1UNL    H29   83  -0.078  -0.139  -0.091
    1UNL    H30   84  -0.261  -0.047  -0.229
    1UNL    H31   85  -0.192  -0.132  -0.374
    1UNL    H32   86  -0.324  -0.320  -0.294
    1UNL    H33   87  -0.491  -0.400  -0.053
    1UNL    H34   88  -0.369  -0.499  -0.140
    1UNL    H35   89  -0.344  -0.460   0.028
    1UNL    H36   90  -0.343  -0.249   0.101
    1UNL    H37   91  -0.179  -0.262   0.068
    1UNL    H38   92  -0.457  -0.065   0.013
    1UNL    H39   93  -0.185   0.121  -0.104
    1UNL    H40   94  -0.377   0.280  -0.292
    1UNL    H41   95  -0.248   0.182  -0.332
    1UNL    H42   96  -0.203   0.329  -0.263
    1UNL    H43   97  -0.236   0.364  -0.019
    1UNL    H44   98  -0.490   0.281   0.052
    1UNL    H45   99  -0.186   0.180   0.136
    1UNL    H46  100  -0.396   0.307   0.242
    1UNL    H47  101  -0.350   0.023   0.211
    1UNL    H48  102  -0.685   0.060   0.238
    1UNL    H49  103  -0.628  -0.288   0.169
    1UNL    H50  104  -0.738  -0.201   0.370
    1UNL    H51  105  -0.852  -0.264   0.253
    1UNL    H52  106  -0.870  -0.027   0.183
    1UNL    H53  107  -0.705  -0.276  -0.048
    1UNL    H54  108  -0.934  -0.177  -0.064
    1UNL    H55  109  -0.621  -0.074  -0.127
    1UNL    H56  110  -0.855   0.040  -0.116
    1UNL    H57  111  -0.646   0.149  -0.033
    1UNL    H58  112  -0.835   0.201   0.073
   0.00000   0.00000   0.00000   0.00000   0.00000   0.00000   0.00000   0.00000   0.00000
Generated with MDTraj, t= 7.0
 112
    1UNL     C1    1   0.006   0.050  -0.372
    1UNL     C2    2   0.036  -0.002  -0.236
    1UNL     C3    3   0.063   0.088  -0.143
    1UNL     C4    4   0.073   0.063   0.010
    1UNL     O1    5   0.196   0.002   0.049
    1UNL     C5    6   0.310   0.086   0.038
    1UNL     O2    7   0.352   0.104  -0.096
    1UNL     C6    8   0.369  -0.021  -0.162
    1UNL     C7    9   0.394  -0.003  -0.307
    1UNL     C8   10   0.486  -0.102  -0.093
    1UNL     O3   11   0.490  -0.230  -0.154
    1UNL     C9   12   0.476  -0.118   0.057
    1UNL     O4   13   0.381  -0.209   0.094
    1UNL    C10   14   0.427   0.023   0.119
    1UNL     O5   15   0.534   0.120   0.138
    1UNL    C11   16   0.636   0.086   0.233
    1UNL     O6   17   0.723  -0.020   0.183
    1UNL    C12   18   0.797   0.019   0.066
    1UNL    C13   19   0.844  -0.116  -0.006
    1UNL     O7   20   0.953  -0.164   0.066
    1UNL    C14   21   0.896   0.138   0.112
    1UNL     O8   22   0.968   0.076   0.218
    1UNL    C15   23   0.804   0.254   0.158
    1UNL     O9   24   0.730   0.303   0.047
    1UNL    C16   25   0.713   0.214   0.272
    1UNL    O10   26   0.628   0.320   0.307
    1UNL    C17   27  -0.022  -0.142  -0.221
    1UNL    C18   28  -0.178  -0.137  -0.256
    1UNL    C19   29  -0.265  -0.257  -0.226
    1UNL    C20   30  -0.319  -0.287  -0.109
    1UNL    C21   31  -0.422  -0.393  -0.094
    1UNL    C22   32  -0.267  -0.210   0.009
    1UNL    O11   33  -0.258  -0.069  -0.008
    1UNL    C23   34  -0.382   0.002   0.003
    1UNL    O12   35  -0.402   0.094  -0.104
    1UNL    C24   36  -0.292   0.184  -0.108
    1UNL    C25   37  -0.316   0.287  -0.222
    1UNL    C26   38  -0.286   0.267   0.025
    1UNL    O13   39  -0.391   0.355   0.023
    1UNL    C27   40  -0.273   0.174   0.147
    1UNL    O14   41  -0.287   0.256   0.261
    1UNL    C28   42  -0.394   0.070   0.138
    1UNL    O15   43  -0.520   0.141   0.151
    1UNL    C29   44  -0.628   0.044   0.148
    1UNL    O16   45  -0.581  -0.085   0.184
    1UNL    C30   46  -0.691  -0.179   0.180
    1UNL    C31   47  -0.798  -0.150   0.287
    1UNL    O17   48  -0.867  -0.036   0.242
    1UNL    C32   49  -0.755  -0.204   0.035
    1UNL    O18   50  -0.899  -0.207   0.048
    1UNL    C33   51  -0.705  -0.093  -0.069
    1UNL    O19   52  -0.808  -0.081  -0.163
    1UNL    C34   53  -0.687   0.046  -0.001
    1UNL    O20   54  -0.810   0.111   0.000
    1UNL     H1   55   0.057  -0.008  -0.455
    1UNL     H2   56  -0.101   0.045  -0.397
    1UNL     H3   57   0.041   0.153  -0.386
    1UNL     H4   58   0.079   0.191  -0.176
    1UNL     H5   59   0.001  -0.007   0.055
    1UNL     H6   60   0.053   0.153   0.072
    1UNL     H7   61   0.263   0.176   0.076
    1UNL     H8   62   0.277  -0.077  -0.137
    1UNL     H9   63   0.317   0.051  -0.359
    1UNL    H10   64   0.413  -0.101  -0.353
    1UNL    H11   65   0.487   0.056  -0.311
    1UNL    H12   66   0.583  -0.069  -0.135
    1UNL    H13   67   0.428  -0.281  -0.100
    1UNL    H14   68   0.575  -0.136   0.105
    1UNL    H15   69   0.288  -0.185   0.070
    1UNL    H16   70   0.389   0.024   0.222
    1UNL    H17   71   0.586   0.059   0.327
    1UNL    H18   72   0.722   0.062  -0.001
    1UNL    H19   73   0.772  -0.195  -0.015
    1UNL    H20   74   0.880  -0.093  -0.106
    1UNL    H21   75   0.986  -0.094   0.122
    1UNL    H22   76   0.971   0.164   0.036
    1UNL    H23   77   0.906   0.044   0.282
    1UNL    H24   78   0.874   0.333   0.187
    1UNL    H25   79   0.656   0.238   0.035
    1UNL    H26   80   0.772   0.200   0.372
    1UNL    H27   81   0.584   0.347   0.225
    1UNL    H28   82   0.022  -0.219  -0.294
    1UNL    H29   83  -0.006  -0.176  -0.117
    1UNL    H30   84  -0.219  -0.049  -0.209
    1UNL    H31   85  -0.182  -0.128  -0.366
    1UNL    H32   86  -0.288  -0.320  -0.318
    1UNL    H33   87  -0.440  -0.449  -0.197
    1UNL    H34   88  -0.391  -0.469  -0.017
    1UNL    H35   89  -0.508  -0.352  -0.068
    1UNL    H36   90  -0.325  -0.235   0.093
    1UNL    H37   91  -0.170  -0.263   0.040
    1UNL    H38   92  -0.460  -0.070  -0.017
    1UNL    H39   93  -0.199   0.121  -0.120
    1UNL    H40   94  -0.412   0.346  -0.207
    1UNL    H41   95  -0.339   0.233  -0.310
    1UNL    H42   96  -0.229   0.350  -0.248
    1UNL    H43   97  -0.201   0.332   0.023
    1UNL    H44   98  -0.470   0.301   0.034
    1UNL    H45   99  -0.175   0.134   0.166
    1UNL    H46  100  -0.375   0.299   0.263
    1UNL    H47  101  -0.395  -0.006   0.209
    1UNL    H48  102  -0.702   0.085   0.219
    1UNL    H49  103  -0.652  -0.274   0.223
    1UNL    H50  104  -0.746  -0.125   0.383
    1UNL    H51  105  -0.866  -0.231   0.301
    1UNL    H52  106  -0.870  -0.033   0.137
    1UNL    H53  107  -0.727  -0.301  -0.009
    1UNL    H54  108  -0.939  -0.195  -0.037
    1UNL    H55  109  -0.629  -0.131  -0.132
    1UNL    H56  110  -0.840   0.012  -0.154
    1UNL    H57  111  -0.620   0.108  -0.075
    1UNL    H58  112  -0.805   0.193   0.053
   0.00000   0.00000   0.00000   0.00000   0.00000   0.00000   0.00000   0.00000   0.00000
Generated with MDTraj, t= 8.0
 112
    1UNL     C1    1   0.065   0.047  -0.380
    1UNL     C2    2   0.024   0.010  -0.241
    1UNL     C3    3   0.063   0.091  -0.141
    1UNL     C4    4   0.064   0.061   0.011
    1UNL     O1    5   0.188   0.004   0.063
    1UNL     C5    6   0.308   0.083   0.038
    1UNL     O2    7   0.338   0.088  -0.102
    1UNL     C6    8   0.379  -0.041  -0.160
    1UNL     C7    9   0.427  -0.038  -0.306
    1UNL     C8   10   0.494  -0.098  -0.078
    1UNL     O3   11   0.533  -0.219  -0.138
    1UNL     C9   12   0.464  -0.116   0.064
    1UNL     O4   13   0.367  -0.218   0.091
    1UNL    C10   14   0.418   0.023   0.126
    1UNL     O5   15   0.526   0.119   0.135
    1UNL    C11   16   0.628   0.081   0.229
    1UNL     O6   17   0.715  -0.018   0.170
    1UNL    C12   18   0.784   0.021   0.053
    1UNL    C13   19   0.843  -0.097  -0.017
    1UNL     O7   20   0.945  -0.150   0.061
    1UNL    C14   21   0.886   0.131   0.092
    1UNL     O8   22   0.962   0.077   0.193
    1UNL    C15   23   0.806   0.252   0.148
    1UNL     O9   24   0.727   0.311   0.046
    1UNL    C16   25   0.705   0.210   0.267
    1UNL    O10   26   0.616   0.310   0.302
    1UNL    C17   27  -0.045  -0.121  -0.204
    1UNL    C18   28  -0.188  -0.127  -0.275
    1UNL    C19   29  -0.265  -0.253  -0.234
    1UNL    C20   30  -0.300  -0.281  -0.107
    1UNL    C21   31  -0.391  -0.397  -0.086
    1UNL    C22   32  -0.254  -0.199   0.006
    1UNL    O11   33  -0.240  -0.063  -0.017
    1UNL    C23   34  -0.368   0.003  -0.005
    1UNL    O12   35  -0.386   0.103  -0.101
    1UNL    C24   36  -0.288   0.212  -0.090
    1UNL    C25   37  -0.325   0.321  -0.196
    1UNL    C26   38  -0.282   0.278   0.050
    1UNL    O13   39  -0.397   0.358   0.066
    1UNL    C27   40  -0.269   0.163   0.156
    1UNL    O14   41  -0.269   0.209   0.290
    1UNL    C28   42  -0.385   0.067   0.134
    1UNL    O15   43  -0.519   0.128   0.130
    1UNL    C29   44  -0.624   0.033   0.122
    1UNL    O16   45  -0.600  -0.090   0.182
    1UNL    C30   46  -0.720  -0.169   0.194
    1UNL    C31   47  -0.816  -0.109   0.297
    1UNL    O17   48  -0.870   0.009   0.247
    1UNL    C32   49  -0.788  -0.208   0.055
    1UNL    O18   50  -0.927  -0.188   0.049
    1UNL    C33   51  -0.716  -0.131  -0.066
    1UNL    O19   52  -0.796  -0.124  -0.176
    1UNL    C34   53  -0.680   0.017  -0.022
    1UNL    O20   54  -0.798   0.100  -0.039
    1UNL     H1   55   0.045  -0.030  -0.449
    1UNL     H2   56  -0.001   0.136  -0.418
    1UNL     H3   57   0.169   0.075  -0.374
    1UNL     H4   58   0.088   0.196  -0.163
    1UNL     H5   59  -0.024   0.002   0.029
    1UNL     H6   60   0.056   0.154   0.068
    1UNL     H7   61   0.287   0.188   0.067
    1UNL     H8   62   0.290  -0.102  -0.135
    1UNL     H9   63   0.347  -0.005  -0.373
    1UNL    H10   64   0.464  -0.144  -0.338
    1UNL    H11   65   0.503   0.030  -0.312
    1UNL    H12   66   0.582  -0.030  -0.096
    1UNL    H13   67   0.476  -0.289  -0.095
    1UNL    H14   68   0.550  -0.137   0.135
    1UNL    H15   69   0.276  -0.179   0.097
    1UNL    H16   70   0.386   0.010   0.231
    1UNL    H17   71   0.583   0.040   0.318
    1UNL    H18   72   0.715   0.071  -0.017
    1UNL    H19   73   0.770  -0.176  -0.027
    1UNL    H20   74   0.888  -0.074  -0.113
    1UNL    H21   75   0.972  -0.069   0.113
    1UNL    H22   76   0.945   0.167   0.010
    1UNL    H23   77   0.899   0.035   0.256
    1UNL    H24   78   0.876   0.328   0.183
    1UNL    H25   79   0.650   0.254   0.035
    1UNL    H26   80   0.757   0.190   0.369
    1UNL    H27   81   0.581   0.345   0.218
    1UNL    H28   82   0.018  -0.206  -0.250
    1UNL    H29   83  -0.051  -0.133  -0.100
    1UNL    H30   84  -0.246  -0.045  -0.243
    1UNL    H31   85  -0.174  -0.131  -0.384
    1UNL    H32   86  -0.290  -0.312  -0.313
    1UNL    H33   87  -0.341  -0.477  -0.024
    1UNL    H34   88  -0.485  -0.366  -0.039
    1UNL    H35   89  -0.405  -0.450  -0.190
    1UNL    H36   90  -0.310  -0.220   0.096
    1UNL    H37   91  -0.154  -0.235   0.052
    1UNL    H38   92  -0.452  -0.064  -0.022
    1UNL    H39   93  -0.189   0.167  -0.123
    1UNL    H40   94  -0.421   0.365  -0.166
    1UNL    H41   95  -0.340   0.275  -0.296
    1UNL    H42   96  -0.240   0.390  -0.202
    1UNL    H43   97  -0.201   0.348   0.054
    1UNL    H44   98  -0.480   0.310   0.094
    1UNL    H45   99  -0.175   0.113   0.144
    1UNL    H46  100  -0.363   0.245   0.313
    1UNL    H47  101  -0.399  -0.010   0.202
    1UNL    H48  102  -0.692   0.098   0.186
    1UNL    H49  103  -0.687  -0.261   0.255
    1UNL    H50  104  -0.758  -0.082   0.392
    1UNL    H51  105  -0.897  -0.180   0.317
    1UNL    H52  106  -0.898  -0.003   0.154
    1UNL    H53  107  -0.771  -0.314   0.038
    1UNL    H54  108  -0.954  -0.177  -0.049
    1UNL    H55  109  -0.634  -0.193  -0.093
    1UNL    H56  110  -0.844  -0.037  -0.163
    1UNL    H57  111  -0.593   0.052  -0.091
    1UNL    H58  112  -0.779   0.192  -0.009
   0.00000   0.00000   0.00000   0.00000   0.00000   0.00000   0.00000   0.00000   0.00000
Generated with MDTraj, t= 9.0
 112
    1UNL     C1    1   0.041   0.063  -0.407
    1UNL     C2    2   0.022   0.022  -0.263
    1UNL     C3    3   0.086   0.080  -0.164
    1UNL     C4    4   0.068   0.048  -0.017
    1UNL     O1    5   0.174  -0.009   0.044
    1UNL     C5    6   0.298   0.068   0.019
    1UNL     O2    7   0.338   0.067  -0.111
    1UNL     C6    8   0.381  -0.061  -0.160
    1UNL     C7    9   0.421  -0.057  -0.311
    1UNL     C8   10   0.496  -0.107  -0.065
    1UNL     O3   11   0.567  -0.230  -0.099
    1UNL     C9   12   0.462  -0.113   0.078
    1UNL     O4   13   0.358  -0.219   0.088
    1UNL    C10   14   0.412   0.026   0.123
    1UNL     O5   15   0.523   0.122   0.122
    1UNL    C11   16   0.626   0.082   0.219
    1UNL     O6   17   0.703  -0.024   0.162
    1UNL    C12   18   0.778   0.029   0.049
    1UNL    C13   19   0.853  -0.083  -0.024
    1UNL     O7   20   0.949  -0.155   0.061
    1UNL    C14   21   0.879   0.143   0.085
    1UNL     O8   22   0.979   0.096   0.176
    1UNL    C15   23   0.794   0.260   0.145
    1UNL     O9   24   0.713   0.305   0.036
    1UNL    C16   25   0.704   0.206   0.268
    1UNL    O10   26   0.616   0.299   0.329
    1UNL    C17   27  -0.035  -0.111  -0.234
    1UNL    C18   28  -0.180  -0.114  -0.263
    1UNL    C19   29  -0.251  -0.238  -0.228
    1UNL    C20   30  -0.276  -0.273  -0.103
    1UNL    C21   31  -0.339  -0.408  -0.084
    1UNL    C22   32  -0.247  -0.185   0.016
    1UNL    O11   33  -0.228  -0.050  -0.013
    1UNL    C23   34  -0.359   0.011  -0.022
    1UNL    O12   35  -0.371   0.127  -0.109
    1UNL    C24   36  -0.271   0.225  -0.073
    1UNL    C25   37  -0.279   0.337  -0.170
    1UNL    C26   38  -0.288   0.275   0.075
    1UNL    O13   39  -0.409   0.347   0.086
    1UNL    C27   40  -0.288   0.154   0.176
    1UNL    O14   41  -0.326   0.198   0.306
    1UNL    C28   42  -0.392   0.056   0.123
    1UNL    O15   43  -0.519   0.118   0.125
    1UNL    C29   44  -0.622   0.020   0.125
    1UNL    O16   45  -0.620  -0.097   0.201
    1UNL    C30   46  -0.749  -0.169   0.207
    1UNL    C31   47  -0.844  -0.094   0.297
    1UNL    O17   48  -0.884   0.029   0.242
    1UNL    C32   49  -0.809  -0.189   0.060
    1UNL    O18   50  -0.940  -0.142   0.039
    1UNL    C33   51  -0.714  -0.142  -0.046
    1UNL    O19   52  -0.768  -0.154  -0.171
    1UNL    C34   53  -0.676   0.002  -0.014
    1UNL    O20   54  -0.790   0.085  -0.040
    1UNL     H1   55   0.062  -0.022  -0.464
    1UNL     H2   56  -0.062   0.092  -0.451
    1UNL     H3   57   0.118   0.139  -0.418
    1UNL     H4   58   0.141   0.168  -0.187
    1UNL     H5   59  -0.010  -0.027   0.001
    1UNL     H6   60   0.045   0.142   0.031
    1UNL     H7   61   0.285   0.175   0.049
    1UNL     H8   62   0.287  -0.116  -0.144
    1UNL     H9   63   0.340  -0.013  -0.372
    1UNL    H10   64   0.443  -0.162  -0.349
    1UNL    H11   65   0.506   0.003  -0.322
    1UNL    H12   66   0.581  -0.032  -0.096
    1UNL    H13   67   0.509  -0.302  -0.048
    1UNL    H14   68   0.543  -0.164   0.139
    1UNL    H15   69   0.273  -0.178   0.064
    1UNL    H16   70   0.379   0.014   0.228
    1UNL    H17   71   0.574   0.036   0.299
    1UNL    H18   72   0.704   0.067  -0.026
    1UNL    H19   73   0.784  -0.165  -0.042
    1UNL    H20   74   0.900  -0.053  -0.115
    1UNL    H21   75   0.991  -0.085   0.114
    1UNL    H22   76   0.926   0.186  -0.000
    1UNL    H23   77   0.949   0.114   0.271
    1UNL    H24   78   0.864   0.331   0.187
    1UNL    H25   79   0.626   0.254   0.040
    1UNL    H26   80   0.766   0.165   0.355
    1UNL    H27   81   0.571   0.353   0.260
    1UNL    H28   82   0.014  -0.194  -0.298
    1UNL    H29   83  -0.014  -0.136  -0.134
    1UNL    H30   84  -0.227  -0.028  -0.226
    1UNL    H31   85  -0.188  -0.102  -0.373
    1UNL    H32   86  -0.270  -0.313  -0.311
    1UNL    H33   87  -0.406  -0.408  -0.003
    1UNL    H34   88  -0.400  -0.455  -0.170
    1UNL    H35   89  -0.253  -0.479  -0.039
    1UNL    H36   90  -0.315  -0.196   0.100
    1UNL    H37   91  -0.154  -0.224   0.073
    1UNL    H38   92  -0.431  -0.055  -0.066
    1UNL    H39   93  -0.166   0.179  -0.077
    1UNL    H40   94  -0.381   0.369  -0.180
    1UNL    H41   95  -0.239   0.306  -0.273
    1UNL    H42   96  -0.209   0.412  -0.131
    1UNL    H43   97  -0.204   0.338   0.103
    1UNL    H44   98  -0.488   0.294   0.067
    1UNL    H45   99  -0.186   0.116   0.185
    1UNL    H46  100  -0.418   0.226   0.289
    1UNL    H47  101  -0.402  -0.022   0.190
    1UNL    H48  102  -0.693   0.093   0.178
    1UNL    H49  103  -0.719  -0.271   0.255
    1UNL    H50  104  -0.791  -0.066   0.395
    1UNL    H51  105  -0.936  -0.156   0.311
    1UNL    H52  106  -0.916   0.014   0.153
    1UNL    H53  107  -0.815  -0.296   0.037
    1UNL    H54  108  -0.975  -0.159  -0.048
    1UNL    H55  109  -0.628  -0.208  -0.055
    1UNL    H56  110  -0.799  -0.063  -0.193
    1UNL    H57  111  -0.595   0.024  -0.092
    1UNL    H58  112  -0.772   0.183  -0.032
   0.00000   0.00000   0.00000   0.00000   0.00000   0.00000   0.00000   0.00000   0.00000
Generated with MDTraj, t= 10.0
 112
    1UNL     C1    1   0.052   0.082  -0.428
    1UNL     C2    2   0.040   0.030  -0.293
    1UNL     C3    3   0.070   0.100  -0.184
    1UNL     C4    4   0.073   0.040  -0.048
    1UNL     O1    5   0.191  -0.012   0.003
    1UNL     C5    6   0.316   0.073  -0.002
    1UNL     O2    7   0.371   0.063  -0.131
    1UNL     C6    8   0.387  -0.074  -0.167
    1UNL     C7    9   0.410  -0.080  -0.323
    1UNL     C8   10   0.498  -0.136  -0.081
    1UNL     O3   11   0.529  -0.279  -0.108
    1UNL     C9   12   0.467  -0.119   0.068
    1UNL     O4   13   0.368  -0.222   0.108
    1UNL    C10   14   0.415   0.020   0.108
    1UNL     O5   15   0.515   0.118   0.127
    1UNL    C11   16   0.622   0.077   0.219
    1UNL     O6   17   0.718  -0.016   0.168
    1UNL    C12   18   0.784   0.024   0.054
    1UNL    C13   19   0.867  -0.085  -0.019
    1UNL     O7   20   0.971  -0.141   0.061
    1UNL    C14   21   0.865   0.148   0.088
    1UNL     O8   22   0.969   0.103   0.170
    1UNL    C15   23   0.777   0.267   0.150
    1UNL     O9   24   0.694   0.324   0.053
    1UNL    C16   25   0.693   0.206   0.269
    1UNL    O10   26   0.601   0.304   0.320
    1UNL    C17   27  -0.018  -0.108  -0.289
    1UNL    C18   28  -0.170  -0.117  -0.272
    1UNL    C19   29  -0.221  -0.246  -0.217
    1UNL    C20   30  -0.258  -0.276  -0.093
    1UNL    C21   31  -0.321  -0.405  -0.069
    1UNL    C22   32  -0.221  -0.185   0.023
    1UNL    O11   33  -0.229  -0.043   0.003
    1UNL    C23   34  -0.362   0.013   0.004
    1UNL    O12   35  -0.363   0.132  -0.080
    1UNL    C24   36  -0.252   0.215  -0.040
    1UNL    C25   37  -0.213   0.328  -0.133
    1UNL    C26   38  -0.289   0.273   0.103
    1UNL    O13   39  -0.407   0.347   0.099
    1UNL    C27   40  -0.311   0.160   0.205
    1UNL    O14   41  -0.362   0.220   0.325
    1UNL    C28   42  -0.410   0.054   0.143
    1UNL    O15   43  -0.531   0.128   0.124
    1UNL    C29   44  -0.650   0.044   0.127
    1UNL    O16   45  -0.638  -0.074   0.203
    1UNL    C30   46  -0.762  -0.159   0.213
    1UNL    C31   47  -0.865  -0.099   0.291
    1UNL    O17   48  -0.910   0.018   0.237
    1UNL    C32   49  -0.812  -0.192   0.070
    1UNL    O18   50  -0.939  -0.141   0.034
    1UNL    C33   51  -0.714  -0.147  -0.038
    1UNL    O19   52  -0.761  -0.171  -0.166
    1UNL    C34   53  -0.688   0.007  -0.024
    1UNL    O20   54  -0.804   0.077  -0.067
    1UNL     H1   55   0.123   0.030  -0.493
    1UNL     H2   56  -0.037   0.067  -0.478
    1UNL     H3   57   0.077   0.189  -0.433
    1UNL     H4   58   0.096   0.209  -0.193
    1UNL     H5   59   0.003  -0.045  -0.039
    1UNL     H6   60   0.044   0.105   0.034
    1UNL     H7   61   0.288   0.180   0.019
    1UNL     H8   62   0.294  -0.123  -0.136
    1UNL     H9   63   0.317  -0.051  -0.374
    1UNL    H10   64   0.442  -0.176  -0.360
    1UNL    H11   65   0.486   0.003  -0.350
    1UNL    H12   66   0.602  -0.097  -0.107
    1UNL    H13   67   0.462  -0.321  -0.045
    1UNL    H14   68   0.558  -0.137   0.133
    1UNL    H15   69   0.289  -0.172   0.071
    1UNL    H16   70   0.369   0.012   0.209
    1UNL    H17   71   0.577   0.025   0.302
    1UNL    H18   72   0.702   0.043  -0.015
    1UNL    H19   73   0.809  -0.168  -0.060
    1UNL    H20   74   0.925  -0.035  -0.091
    1UNL    H21   75   1.018  -0.071   0.110
    1UNL    H22   76   0.904   0.190   0.000
    1UNL    H23   77   0.929   0.046   0.244
    1UNL    H24   78   0.849   0.336   0.191
    1UNL    H25   79   0.613   0.276   0.030
    1UNL    H26   80   0.757   0.194   0.361
    1UNL    H27   81   0.555   0.355   0.250
    1UNL    H28   82   0.016  -0.156  -0.386
    1UNL    H29   83   0.018  -0.163  -0.204
    1UNL    H30   84  -0.194  -0.046  -0.198
    1UNL    H31   85  -0.226  -0.069  -0.354
    1UNL    H32   86  -0.239  -0.322  -0.288
    1UNL    H33   87  -0.422  -0.412  -0.109
    1UNL    H34   88  -0.266  -0.492  -0.127
    1UNL    H35   89  -0.328  -0.424   0.033
    1UNL    H36   90  -0.284  -0.214   0.107
    1UNL    H37   91  -0.120  -0.214   0.069
    1UNL    H38   92  -0.427  -0.056  -0.046
    1UNL    H39   93  -0.161   0.151  -0.021
    1UNL    H40   94  -0.290   0.403  -0.143
    1UNL    H41   95  -0.187   0.299  -0.237
    1UNL    H42   96  -0.118   0.374  -0.096
    1UNL    H43   97  -0.209   0.338   0.143
    1UNL    H44   98  -0.478   0.302   0.047
    1UNL    H45   99  -0.214   0.118   0.233
    1UNL    H46  100  -0.439   0.266   0.286
    1UNL    H47  101  -0.416  -0.023   0.211
    1UNL    H48  102  -0.722   0.122   0.171
    1UNL    H49  103  -0.729  -0.257   0.264
    1UNL    H50  104  -0.822  -0.067   0.394
    1UNL    H51  105  -0.956  -0.166   0.298
    1UNL    H52  106  -0.924   0.006   0.139
    1UNL    H53  107  -0.818  -0.302   0.059
    1UNL    H54  108  -0.965  -0.146  -0.061
    1UNL    H55  109  -0.622  -0.208  -0.032
    1UNL    H56  110  -0.790  -0.083  -0.202
    1UNL    H57  111  -0.604   0.034  -0.095
    1UNL    H58  112  -0.791   0.175  -0.063
   0.00000   0.00000   0.00000   0.00000   0.00000   0.00000   0.00000   0.00000   0.00000
Generated with MDTraj, t= 11.0
 112
    1UNL     C1    1   0.071   0.078  -0.434
    1UNL     C2    2   0.055   0.027  -0.296
    1UNL     C3    3   0.101   0.099  -0.192
    1UNL     C4    4   0.095   0.069  -0.045
    1UNL     O1    5   0.203  -0.002   0.007
    1UNL     C5    6   0.330   0.062  -0.021
    1UNL     O2    7   0.382   0.042  -0.156
    1UNL     C6    8   0.392  -0.095  -0.190
    1UNL     C7    9   0.439  -0.099  -0.334
    1UNL     C8   10   0.491  -0.168  -0.097
    1UNL     O3   11   0.500  -0.305  -0.134
    1UNL     C9   12   0.456  -0.142   0.046
    1UNL     O4   13   0.359  -0.238   0.098
    1UNL    C10   14   0.418   0.004   0.083
    1UNL     O5   15   0.515   0.102   0.103
    1UNL    C11   16   0.609   0.079   0.208
    1UNL     O6   17   0.715  -0.010   0.166
    1UNL    C12   18   0.785   0.038   0.052
    1UNL    C13   19   0.871  -0.074  -0.020
    1UNL     O7   20   0.981  -0.120   0.059
    1UNL    C14   21   0.865   0.157   0.097
    1UNL     O8   22   0.960   0.123   0.200
    1UNL    C15   23   0.760   0.267   0.150
    1UNL     O9   24   0.692   0.329   0.046
    1UNL    C16   25   0.673   0.209   0.261
    1UNL    O10   26   0.576   0.299   0.303
    1UNL    C17   27  -0.014  -0.101  -0.271
    1UNL    C18   28  -0.157  -0.076  -0.218
    1UNL    C19   29  -0.225  -0.206  -0.192
    1UNL    C20   30  -0.271  -0.261  -0.077
    1UNL    C21   31  -0.309  -0.405  -0.064
    1UNL    C22   32  -0.254  -0.192   0.061
    1UNL    O11   33  -0.234  -0.050   0.051
    1UNL    C23   34  -0.353   0.021   0.010
    1UNL    O12   35  -0.333   0.135  -0.068
    1UNL    C24   36  -0.229   0.223  -0.020
    1UNL    C25   37  -0.195   0.343  -0.108
    1UNL    C26   38  -0.284   0.281   0.116
    1UNL    O13   39  -0.394   0.362   0.093
    1UNL    C27   40  -0.326   0.162   0.208
    1UNL    O14   41  -0.381   0.196   0.336
    1UNL    C28   42  -0.426   0.065   0.141
    1UNL    O15   43  -0.550   0.136   0.121
    1UNL    C29   44  -0.660   0.047   0.121
    1UNL    O16   45  -0.647  -0.068   0.200
    1UNL    C30   46  -0.761  -0.158   0.213
    1UNL    C31   47  -0.865  -0.095   0.291
    1UNL    O17   48  -0.930   0.019   0.218
    1UNL    C32   49  -0.805  -0.210   0.068
    1UNL    O18   50  -0.941  -0.178   0.033
    1UNL    C33   51  -0.709  -0.146  -0.042
    1UNL    O19   52  -0.762  -0.172  -0.169
    1UNL    C34   53  -0.692   0.007  -0.030
    1UNL    O20   54  -0.800   0.074  -0.088
    1UNL     H1   55   0.166   0.053  -0.487
    1UNL     H2   56  -0.003   0.044  -0.495
    1UNL     H3   57   0.068   0.184  -0.433
    1UNL     H4   58   0.160   0.182  -0.215
    1UNL     H5   59   0.019  -0.005  -0.010
    1UNL     H6   60   0.079   0.157   0.016
    1UNL     H7   61   0.307   0.171  -0.017
    1UNL     H8   62   0.290  -0.133  -0.176
    1UNL     H9   63   0.372  -0.044  -0.405
    1UNL    H10   64   0.454  -0.200  -0.362
    1UNL    H11   65   0.540  -0.038  -0.336
    1UNL    H12   66   0.595  -0.124  -0.121
    1UNL    H13   67   0.431  -0.347  -0.088
    1UNL    H14   68   0.542  -0.158   0.115
    1UNL    H15   69   0.275  -0.187   0.102
    1UNL    H16   70   0.358   0.009   0.176
    1UNL    H17   71   0.560   0.020   0.287
    1UNL    H18   72   0.711   0.068  -0.019
    1UNL    H19   73   0.810  -0.165  -0.012
    1UNL    H20   74   0.902  -0.053  -0.117
    1UNL    H21   75   1.012  -0.048   0.121
    1UNL    H22   76   0.911   0.211   0.019
    1UNL    H23   77   0.916   0.110   0.286
    1UNL    H24   78   0.824   0.339   0.201
    1UNL    H25   79   0.622   0.276  -0.005
    1UNL    H26   80   0.742   0.190   0.345
    1UNL    H27   81   0.545   0.348   0.225
    1UNL    H28   82  -0.024  -0.158  -0.366
    1UNL    H29   83   0.050  -0.163  -0.206
    1UNL    H30   84  -0.153  -0.019  -0.126
    1UNL    H31   85  -0.223  -0.004  -0.269
    1UNL    H32   86  -0.247  -0.258  -0.284
    1UNL    H33   87  -0.287  -0.466  -0.159
    1UNL    H34   88  -0.247  -0.448   0.013
    1UNL    H35   89  -0.406  -0.415  -0.034
    1UNL    H36   90  -0.324  -0.220   0.142
    1UNL    H37   91  -0.161  -0.237   0.111
    1UNL    H38   92  -0.416  -0.052  -0.035
    1UNL    H39   93  -0.140   0.160  -0.004
    1UNL    H40   94  -0.286   0.404  -0.134
    1UNL    H41   95  -0.154   0.315  -0.203
    1UNL    H42   96  -0.113   0.411  -0.071
    1UNL    H43   97  -0.208   0.350   0.162
    1UNL    H44   98  -0.479   0.309   0.092
    1UNL    H45   99  -0.237   0.102   0.227
    1UNL    H46  100  -0.471   0.242   0.320
    1UNL    H47  101  -0.440  -0.016   0.203
    1UNL    H48  102  -0.740   0.119   0.163
    1UNL    H49  103  -0.728  -0.247   0.272
    1UNL    H50  104  -0.827  -0.055   0.390
    1UNL    H51  105  -0.947  -0.166   0.314
    1UNL    H52  106  -0.935  -0.010   0.121
    1UNL    H53  107  -0.793  -0.321   0.064
    1UNL    H54  108  -0.952  -0.190  -0.067
    1UNL    H55  109  -0.614  -0.206  -0.031
    1UNL    H56  110  -0.806  -0.089  -0.201
    1UNL    H57  111  -0.604   0.032  -0.094
    1UNL    H58  112  -0.801   0.164  -0.054
   0.00000   0.00000   0.00000   0.00000   0.00000   0.00000   0.00000   0.00000   0.00000
Generated with MDTraj, t= 12.0
 112
    1UNL     C1    1   0.071   0.070  -0.429
    1UNL     C2    2   0.047   0.032  -0.287
    1UNL     C3    3   0.094   0.123  -0.196
    1UNL     C4    4   0.090   0.091  -0.053
    1UNL     O1    5   0.201   0.003  -0.015
    1UNL     C5    6   0.330   0.058  -0.036
    1UNL     O2    7   0.384   0.041  -0.171
    1UNL     C6    8   0.410  -0.098  -0.200
    1UNL     C7    9   0.452  -0.124  -0.341
    1UNL     C8   10   0.505  -0.164  -0.091
    1UNL     O3   11   0.546  -0.293  -0.129
    1UNL     C9   12   0.453  -0.151   0.051
    1UNL     O4   13   0.344  -0.236   0.080
    1UNL    C10   14   0.421   0.001   0.076
    1UNL     O5   15   0.533   0.085   0.084
    1UNL    C11   16   0.619   0.060   0.188
    1UNL     O6   17   0.724  -0.024   0.147
    1UNL    C12   18   0.800   0.034   0.047
    1UNL    C13   19   0.895  -0.073  -0.004
    1UNL     O7   20   1.005  -0.104   0.081
    1UNL    C14   21   0.870   0.164   0.101
    1UNL     O8   22   0.959   0.142   0.210
    1UNL    C15   23   0.758   0.268   0.145
    1UNL     O9   24   0.681   0.302   0.031
    1UNL    C16   25   0.668   0.194   0.254
    1UNL    O10   26   0.546   0.268   0.279
    1UNL    C17   27  -0.016  -0.103  -0.244
    1UNL    C18   28  -0.170  -0.092  -0.224
    1UNL    C19   29  -0.243  -0.215  -0.188
    1UNL    C20   30  -0.286  -0.251  -0.069
    1UNL    C21   31  -0.346  -0.388  -0.051
    1UNL    C22   32  -0.259  -0.184   0.060
    1UNL    O11   33  -0.232  -0.044   0.065
    1UNL    C23   34  -0.350   0.026   0.034
    1UNL    O12   35  -0.325   0.146  -0.043
    1UNL    C24   36  -0.236   0.237   0.018
    1UNL    C25   37  -0.191   0.347  -0.080
    1UNL    C26   38  -0.305   0.302   0.142
    1UNL    O13   39  -0.415   0.380   0.109
    1UNL    C27   40  -0.337   0.182   0.236
    1UNL    O14   41  -0.419   0.229   0.346
    1UNL    C28   42  -0.421   0.074   0.165
    1UNL    O15   43  -0.544   0.130   0.124
    1UNL    C29   44  -0.644   0.036   0.113
    1UNL    O16   45  -0.632  -0.076   0.196
    1UNL    C30   46  -0.754  -0.158   0.203
    1UNL    C31   47  -0.871  -0.081   0.265
    1UNL    O17   48  -0.919   0.037   0.181
    1UNL    C32   49  -0.790  -0.220   0.060
    1UNL    O18   50  -0.927  -0.206   0.026
    1UNL    C33   51  -0.701  -0.151  -0.053
    1UNL    O19   52  -0.767  -0.179  -0.178
    1UNL    C34   53  -0.687   0.001  -0.038
    1UNL    O20   54  -0.815   0.049  -0.079
    1UNL     H1   55   0.172   0.074  -0.459
    1UNL     H2   56   0.014  -0.009  -0.480
    1UNL     H3   57   0.031   0.162  -0.448
    1UNL     H4   58   0.163   0.210  -0.222
    1UNL     H5   59  -0.009   0.042  -0.037
    1UNL     H6   60   0.096   0.185   0.005
    1UNL     H7   61   0.319   0.167  -0.024
    1UNL     H8   62   0.309  -0.139  -0.186
    1UNL     H9   63   0.380  -0.088  -0.420
    1UNL    H10   64   0.458  -0.235  -0.346
    1UNL    H11   65   0.547  -0.074  -0.365
    1UNL    H12   66   0.602  -0.110  -0.116
    1UNL    H13   67   0.465  -0.359  -0.126
    1UNL    H14   68   0.527  -0.186   0.124
    1UNL    H15   69   0.269  -0.209   0.024
    1UNL    H16   70   0.368   0.030   0.170
    1UNL    H17   71   0.564   0.006   0.269
    1UNL    H18   72   0.737   0.052  -0.037
    1UNL    H19   73   0.843  -0.172  -0.015
    1UNL    H20   74   0.935  -0.047  -0.094
    1UNL    H21   75   1.016  -0.033   0.145
    1UNL    H22   76   0.927   0.206   0.022
    1UNL    H23   77   0.917   0.083   0.275
    1UNL    H24   78   0.801   0.351   0.203
    1UNL    H25   79   0.615   0.234   0.016
    1UNL    H26   80   0.719   0.193   0.351
    1UNL    H27   81   0.522   0.324   0.201
    1UNL    H28   82   0.005  -0.175  -0.320
    1UNL    H29   83   0.035  -0.139  -0.150
    1UNL    H30   84  -0.208  -0.011  -0.154
    1UNL    H31   85  -0.215  -0.052  -0.315
    1UNL    H32   86  -0.268  -0.284  -0.274
    1UNL    H33   87  -0.261  -0.459  -0.043
    1UNL    H34   88  -0.405  -0.385   0.027
    1UNL    H35   89  -0.410  -0.422  -0.135
    1UNL    H36   90  -0.337  -0.212   0.131
    1UNL    H37   91  -0.175  -0.239   0.114
    1UNL    H38   92  -0.413  -0.041  -0.020
    1UNL    H39   93  -0.151   0.177   0.050
    1UNL    H40   94  -0.282   0.400  -0.124
    1UNL    H41   95  -0.139   0.297  -0.158
    1UNL    H42   96  -0.118   0.417  -0.037
    1UNL    H43   97  -0.233   0.370   0.196
    1UNL    H44   98  -0.473   0.327   0.051
    1UNL    H45   99  -0.252   0.138   0.285
    1UNL    H46  100  -0.502   0.265   0.318
    1UNL    H47  101  -0.441  -0.003   0.231
    1UNL    H48  102  -0.734   0.098   0.152
    1UNL    H49  103  -0.744  -0.245   0.267
    1UNL    H50  104  -0.849  -0.037   0.365
    1UNL    H51  105  -0.957  -0.142   0.283
    1UNL    H52  106  -0.944   0.004   0.090
    1UNL    H53  107  -0.768  -0.331   0.058
    1UNL    H54  108  -0.938  -0.239  -0.063
    1UNL    H55  109  -0.599  -0.203  -0.051
    1UNL    H56  110  -0.836  -0.108  -0.186
    1UNL    H57  111  -0.616   0.029  -0.116
    1UNL    H58  112  -0.821   0.146  -0.070
   0.00000   0.00000   0.00000   0.00000   0.00000   0.00000   0.00000   0.00000   0.00000
Generated with MDTraj, t= 13.0
 112
    1UNL     C1    1   0.017   0.047  -0.442
    1UNL     C2    2   0.035   0.014  -0.294
    1UNL     C3    3   0.076   0.110  -0.207
    1UNL     C4    4   0.077   0.088  -0.057
    1UNL     O1    5   0.181  -0.009  -0.006
    1UNL     C5    6   0.311   0.037  -0.036
    1UNL     O2    7   0.357   0.016  -0.171
    1UNL     C6    8   0.406  -0.122  -0.207
    1UNL     C7    9   0.458  -0.128  -0.347
    1UNL     C8   10   0.519  -0.156  -0.104
    1UNL     O3   11   0.577  -0.284  -0.119
    1UNL     C9   12   0.460  -0.151   0.039
    1UNL     O4   13   0.345  -0.237   0.041
    1UNL    C10   14   0.416  -0.007   0.078
    1UNL     O5   15   0.535   0.083   0.080
    1UNL    C11   16   0.631   0.051   0.180
    1UNL     O6   17   0.751  -0.030   0.150
    1UNL    C12   18   0.822   0.032   0.044
    1UNL    C13   19   0.932  -0.068   0.009
    1UNL     O7   20   1.024  -0.092   0.117
    1UNL    C14   21   0.887   0.166   0.098
    1UNL     O8   22   0.968   0.140   0.207
    1UNL    C15   23   0.768   0.259   0.145
    1UNL     O9   24   0.686   0.297   0.034
    1UNL    C16   25   0.675   0.189   0.245
    1UNL    O10   26   0.557   0.261   0.269
    1UNL    C17   27  -0.028  -0.104  -0.237
    1UNL    C18   28  -0.174  -0.080  -0.205
    1UNL    C19   29  -0.256  -0.198  -0.174
    1UNL    C20   30  -0.291  -0.239  -0.054
    1UNL    C21   31  -0.370  -0.362  -0.031
    1UNL    C22   32  -0.246  -0.160   0.066
    1UNL    O11   33  -0.228  -0.021   0.066
    1UNL    C23   34  -0.344   0.046   0.032
    1UNL    O12   35  -0.320   0.172  -0.047
    1UNL    C24   36  -0.238   0.256   0.034
    1UNL    C25   37  -0.186   0.377  -0.046
    1UNL    C26   38  -0.320   0.309   0.156
    1UNL    O13   39  -0.438   0.365   0.101
    1UNL    C27   40  -0.351   0.186   0.243
    1UNL    O14   41  -0.442   0.236   0.335
    1UNL    C28   42  -0.425   0.080   0.158
    1UNL    O15   43  -0.552   0.133   0.131
    1UNL    C29   44  -0.660   0.042   0.123
    1UNL    O16   45  -0.641  -0.074   0.203
    1UNL    C30   46  -0.758  -0.167   0.203
    1UNL    C31   47  -0.886  -0.103   0.252
    1UNL    O17   48  -0.941  -0.007   0.170
    1UNL    C32   49  -0.776  -0.226   0.055
    1UNL    O18   50  -0.909  -0.213   0.015
    1UNL    C33   51  -0.689  -0.146  -0.053
    1UNL    O19   52  -0.741  -0.172  -0.189
    1UNL    C34   53  -0.679   0.008  -0.034
    1UNL    O20   54  -0.799   0.059  -0.089
    1UNL     H1   55   0.079   0.113  -0.486
    1UNL     H2   56   0.014  -0.052  -0.494
    1UNL     H3   57  -0.079   0.086  -0.453
    1UNL     H4   58   0.112   0.203  -0.238
    1UNL     H5   59  -0.017   0.037  -0.025
    1UNL     H6   60   0.077   0.189  -0.011
    1UNL     H7   61   0.318   0.144  -0.025
    1UNL     H8   62   0.330  -0.197  -0.180
    1UNL     H9   63   0.371  -0.123  -0.418
    1UNL    H10   64   0.513  -0.229  -0.369
    1UNL    H11   65   0.510  -0.042  -0.369
    1UNL    H12   66   0.608  -0.086  -0.106
    1UNL    H13   67   0.492  -0.343  -0.104
    1UNL    H14   68   0.531  -0.193   0.108
    1UNL    H15   69   0.263  -0.180   0.044
    1UNL    H16   70   0.372   0.006   0.179
    1UNL    H17   71   0.587  -0.005   0.268
    1UNL    H18   72   0.761   0.041  -0.042
    1UNL    H19   73   0.891  -0.170  -0.019
    1UNL    H20   74   0.986  -0.036  -0.072
    1UNL    H21   75   1.084  -0.012   0.120
    1UNL    H22   76   0.941   0.222   0.023
    1UNL    H23   77   0.920   0.064   0.255
    1UNL    H24   78   0.806   0.355   0.187
    1UNL    H25   79   0.643   0.222  -0.015
    1UNL    H26   80   0.732   0.168   0.333
    1UNL    H27   81   0.514   0.280   0.181
    1UNL    H28   82  -0.026  -0.182  -0.307
    1UNL    H29   83   0.027  -0.144  -0.144
    1UNL    H30   84  -0.188   0.002  -0.128
    1UNL    H31   85  -0.224  -0.035  -0.290
    1UNL    H32   86  -0.273  -0.264  -0.249
    1UNL    H33   87  -0.349  -0.404   0.061
    1UNL    H34   88  -0.479  -0.341  -0.057
    1UNL    H35   89  -0.336  -0.445  -0.099
    1UNL    H36   90  -0.317  -0.188   0.142
    1UNL    H37   91  -0.155  -0.206   0.112
    1UNL    H38   92  -0.394  -0.018  -0.036
    1UNL    H39   93  -0.153   0.192   0.064
    1UNL    H40   94  -0.272   0.444  -0.069
    1UNL    H41   95  -0.125   0.343  -0.134
    1UNL    H42   96  -0.118   0.424   0.023
    1UNL    H43   97  -0.254   0.385   0.209
    1UNL    H44   98  -0.486   0.293   0.051
    1UNL    H45   99  -0.263   0.145   0.288
    1UNL    H46  100  -0.524   0.271   0.287
    1UNL    H47  101  -0.441  -0.006   0.211
    1UNL    H48  102  -0.747   0.108   0.160
    1UNL    H49  103  -0.733  -0.242   0.273
    1UNL    H50  104  -0.871  -0.066   0.353
    1UNL    H51  105  -0.967  -0.172   0.254
    1UNL    H52  106  -0.914  -0.019   0.081
    1UNL    H53  107  -0.744  -0.333   0.047
    1UNL    H54  108  -0.920  -0.259  -0.074
    1UNL    H55  109  -0.580  -0.184  -0.050
    1UNL    H56  110  -0.811  -0.106  -0.206
    1UNL    H57  111  -0.594   0.046  -0.087
    1UNL    H58  112  -0.807   0.153  -0.057
   0.00000   0.00000   0.00000   0.00000   0.00000   0.00000   0.00000   0.00000   0.00000
Generated with MDTraj, t= 14.0
 112
    1UNL     C1    1   0.032   0.028  -0.439
    1UNL     C2    2   0.005   0.019  -0.289
    1UNL     C3    3   0.086   0.084  -0.204
    1UNL     C4    4   0.091   0.057  -0.060
    1UNL     O1    5   0.202  -0.025  -0.016
    1UNL     C5    6   0.329   0.036  -0.039
    1UNL     O2    7   0.385   0.030  -0.167
    1UNL     C6    8   0.409  -0.108  -0.209
    1UNL     C7    9   0.439  -0.121  -0.358
    1UNL     C8   10   0.527  -0.161  -0.120
    1UNL     O3   11   0.543  -0.304  -0.150
    1UNL     C9   12   0.484  -0.149   0.025
    1UNL     O4   13   0.391  -0.252   0.062
    1UNL    C10   14   0.433  -0.011   0.067
    1UNL     O5   15   0.548   0.076   0.067
    1UNL    C11   16   0.622   0.047   0.181
    1UNL     O6   17   0.746  -0.029   0.155
    1UNL    C12   18   0.829   0.030   0.053
    1UNL    C13   19   0.938  -0.068   0.008
    1UNL     O7   20   1.024  -0.100   0.113
    1UNL    C14   21   0.886   0.157   0.109
    1UNL     O8   22   0.963   0.145   0.223
    1UNL    C15   23   0.770   0.252   0.136
    1UNL     O9   24   0.706   0.302   0.018
    1UNL    C16   25   0.670   0.186   0.238
    1UNL    O10   26   0.561   0.271   0.266
    1UNL    C17   27  -0.073  -0.101  -0.240
    1UNL    C18   28  -0.215  -0.077  -0.207
    1UNL    C19   29  -0.283  -0.198  -0.152
    1UNL    C20   30  -0.300  -0.232  -0.024
    1UNL    C21   31  -0.347  -0.363   0.022
    1UNL    C22   32  -0.251  -0.142   0.093
    1UNL    O11   33  -0.243  -0.007   0.060
    1UNL    C23   34  -0.362   0.061   0.037
    1UNL    O12   35  -0.334   0.188  -0.043
    1UNL    C24   36  -0.251   0.281   0.037
    1UNL    C25   37  -0.187   0.394  -0.044
    1UNL    C26   38  -0.318   0.320   0.161
    1UNL    O13   39  -0.434   0.399   0.136
    1UNL    C27   40  -0.360   0.195   0.242
    1UNL    O14   41  -0.436   0.228   0.357
    1UNL    C28   42  -0.449   0.096   0.157
    1UNL    O15   43  -0.578   0.144   0.123
    1UNL    C29   44  -0.676   0.045   0.106
    1UNL    O16   45  -0.649  -0.068   0.189
    1UNL    C30   46  -0.746  -0.182   0.183
    1UNL    C31   47  -0.877  -0.134   0.240
    1UNL    O17   48  -0.940  -0.029   0.175
    1UNL    C32   49  -0.763  -0.224   0.033
    1UNL    O18   50  -0.898  -0.223  -0.006
    1UNL    C33   51  -0.676  -0.139  -0.060
    1UNL    O19   52  -0.696  -0.178  -0.196
    1UNL    C34   53  -0.695   0.014  -0.048
    1UNL    O20   54  -0.824   0.048  -0.097
    1UNL     H1   55   0.074   0.117  -0.477
    1UNL     H2   56   0.087  -0.059  -0.474
    1UNL     H3   57  -0.057   0.019  -0.497
    1UNL     H4   58   0.164   0.153  -0.241
    1UNL     H5   59   0.001   0.007  -0.019
    1UNL     H6   60   0.096   0.144   0.010
    1UNL     H7   61   0.321   0.144  -0.029
    1UNL     H8   62   0.320  -0.165  -0.179
    1UNL     H9   63   0.381  -0.047  -0.416
    1UNL    H10   64   0.404  -0.229  -0.387
    1UNL    H11   65   0.540  -0.102  -0.379
    1UNL    H12   66   0.620  -0.103  -0.151
    1UNL    H13   67   0.469  -0.344  -0.104
    1UNL    H14   68   0.563  -0.183   0.092
    1UNL    H15   69   0.342  -0.225   0.146
    1UNL    H16   70   0.373  -0.019   0.159
    1UNL    H17   71   0.567  -0.002   0.268
    1UNL    H18   72   0.765   0.043  -0.032
    1UNL    H19   73   0.892  -0.171  -0.017
    1UNL    H20   74   0.992  -0.041  -0.075
    1UNL    H21   75   1.010  -0.026   0.175
    1UNL    H22   76   0.959   0.208   0.044
    1UNL    H23   77   0.910   0.107   0.299
    1UNL    H24   78   0.814   0.344   0.184
    1UNL    H25   79   0.628   0.244   0.008
    1UNL    H26   80   0.720   0.166   0.329
    1UNL    H27   81   0.522   0.323   0.194
    1UNL    H28   82  -0.072  -0.173  -0.316
    1UNL    H29   83  -0.023  -0.150  -0.148
    1UNL    H30   84  -0.227   0.002  -0.129
    1UNL    H31   85  -0.268  -0.036  -0.292
    1UNL    H32   86  -0.299  -0.283  -0.227
    1UNL    H33   87  -0.434  -0.362   0.080
    1UNL    H34   88  -0.356  -0.442  -0.068
    1UNL    H35   89  -0.277  -0.397   0.100
    1UNL    H36   90  -0.301  -0.156   0.187
    1UNL    H37   91  -0.150  -0.174   0.122
    1UNL    H38   92  -0.418   0.002  -0.029
    1UNL    H39   93  -0.175   0.205   0.074
    1UNL    H40   94  -0.264   0.457  -0.085
    1UNL    H41   95  -0.120   0.348  -0.126
    1UNL    H42   96  -0.124   0.455   0.020
    1UNL    H43   97  -0.253   0.388   0.223
    1UNL    H44   98  -0.506   0.345   0.099
    1UNL    H45   99  -0.275   0.143   0.282
    1UNL    H46  100  -0.515   0.280   0.327
    1UNL    H47  101  -0.468   0.016   0.221
    1UNL    H48  102  -0.773   0.090   0.145
    1UNL    H49  103  -0.705  -0.261   0.241
    1UNL    H50  104  -0.869  -0.099   0.342
    1UNL    H51  105  -0.936  -0.222   0.236
    1UNL    H52  106  -0.914  -0.020   0.080
    1UNL    H53  107  -0.728  -0.327   0.024
    1UNL    H54  108  -0.904  -0.226  -0.100
    1UNL    H55  109  -0.565  -0.161  -0.039
    1UNL    H56  110  -0.778  -0.137  -0.234
    1UNL    H57  111  -0.620   0.059  -0.108
    1UNL    H58  112  -0.849   0.140  -0.065
   0.00000   0.00000   0.00000   0.00000   0.00000   0.00000   0.00000   0.00000   0.00000
Generated with MDTraj, t= 15.0
 112
    1UNL     C1    1   0.003   0.015  -0.428
    1UNL     C2    2   0.031  -0.024  -0.292
    1UNL     C3    3   0.112   0.043  -0.209
    1UNL     C4    4   0.104   0.028  -0.063
    1UNL     O1    5   0.213  -0.032   0.001
    1UNL     C5    6   0.338   0.034  -0.034
    1UNL     O2    7   0.377   0.033  -0.174
    1UNL     C6    8   0.404  -0.099  -0.216
    1UNL     C7    9   0.407  -0.113  -0.368
    1UNL     C8   10   0.519  -0.167  -0.140
    1UNL     O3   11   0.511  -0.311  -0.186
    1UNL     C9   12   0.506  -0.161   0.011
    1UNL     O4   13   0.432  -0.270   0.063
    1UNL    C10   14   0.453  -0.027   0.060
    1UNL     O5   15   0.544   0.080   0.080
    1UNL    C11   16   0.624   0.065   0.189
    1UNL     O6   17   0.730  -0.028   0.165
    1UNL    C12   18   0.814   0.021   0.059
    1UNL    C13   19   0.920  -0.081   0.008
    1UNL     O7   20   1.010  -0.114   0.107
    1UNL    C14   21   0.882   0.155   0.114
    1UNL     O8   22   0.971   0.131   0.221
    1UNL    C15   23   0.776   0.264   0.141
    1UNL     O9   24   0.726   0.314   0.020
    1UNL    C16   25   0.674   0.204   0.241
    1UNL    O10   26   0.566   0.293   0.261
    1UNL    C17   27  -0.057  -0.135  -0.244
    1UNL    C18   28  -0.201  -0.093  -0.195
    1UNL    C19   29  -0.284  -0.204  -0.131
    1UNL    C20   30  -0.312  -0.212  -0.002
    1UNL    C21   31  -0.377  -0.337   0.054
    1UNL    C22   32  -0.253  -0.123   0.101
    1UNL    O11   33  -0.242   0.020   0.069
    1UNL    C23   34  -0.367   0.083   0.037
    1UNL    O12   35  -0.354   0.205  -0.038
    1UNL    C24   36  -0.274   0.296   0.036
    1UNL    C25   37  -0.239   0.416  -0.055
    1UNL    C26   38  -0.339   0.329   0.173
    1UNL    O13   39  -0.451   0.409   0.147
    1UNL    C27   40  -0.375   0.198   0.260
    1UNL    O14   41  -0.450   0.234   0.368
    1UNL    C28   42  -0.450   0.099   0.167
    1UNL    O15   43  -0.579   0.147   0.140
    1UNL    C29   44  -0.669   0.044   0.113
    1UNL    O16   45  -0.639  -0.078   0.179
    1UNL    C30   46  -0.732  -0.187   0.169
    1UNL    C31   47  -0.869  -0.148   0.227
    1UNL    O17   48  -0.931  -0.034   0.163
    1UNL    C32   49  -0.735  -0.225   0.014
    1UNL    O18   50  -0.864  -0.230  -0.035
    1UNL    C33   51  -0.658  -0.134  -0.078
    1UNL    O19   52  -0.684  -0.160  -0.214
    1UNL    C34   53  -0.685   0.016  -0.045
    1UNL    O20   54  -0.813   0.049  -0.093
    1UNL     H1   55  -0.052   0.113  -0.418
    1UNL     H2   56   0.085   0.023  -0.487
    1UNL     H3   57  -0.064  -0.052  -0.478
    1UNL     H4   58   0.179   0.119  -0.248
    1UNL     H5   59   0.023  -0.034  -0.024
    1UNL     H6   60   0.085   0.121  -0.002
    1UNL     H7   61   0.335   0.141  -0.013
    1UNL     H8   62   0.316  -0.155  -0.178
    1UNL     H9   63   0.304  -0.115  -0.404
    1UNL    H10   64   0.445  -0.216  -0.385
    1UNL    H11   65   0.458  -0.028  -0.422
    1UNL    H12   66   0.610  -0.115  -0.188
    1UNL    H13   67   0.469  -0.358  -0.109
    1UNL    H14   68   0.603  -0.167   0.061
    1UNL    H15   69   0.450  -0.268   0.161
    1UNL    H16   70   0.392  -0.041   0.150
    1UNL    H17   71   0.566   0.019   0.274
    1UNL    H18   72   0.744   0.041  -0.021
    1UNL    H19   73   0.881  -0.182  -0.037
    1UNL    H20   74   0.975  -0.039  -0.069
    1UNL    H21   75   1.011  -0.040   0.173
    1UNL    H22   76   0.951   0.199   0.037
    1UNL    H23   77   0.919   0.118   0.298
    1UNL    H24   78   0.818   0.356   0.190
    1UNL    H25   79   0.655   0.256  -0.014
    1UNL    H26   80   0.720   0.186   0.333
    1UNL    H27   81   0.520   0.327   0.181
    1UNL    H28   82  -0.071  -0.206  -0.321
    1UNL    H29   83  -0.006  -0.182  -0.152
    1UNL    H30   84  -0.185  -0.022  -0.116
    1UNL    H31   85  -0.261  -0.044  -0.274
    1UNL    H32   86  -0.308  -0.288  -0.188
    1UNL    H33   87  -0.453  -0.394  -0.015
    1UNL    H34   88  -0.300  -0.409   0.078
    1UNL    H35   89  -0.437  -0.301   0.137
    1UNL    H36   90  -0.298  -0.131   0.197
    1UNL    H37   91  -0.152  -0.153   0.129
    1UNL    H38   92  -0.421   0.013  -0.021
    1UNL    H39   93  -0.185   0.228   0.064
    1UNL    H40   94  -0.327   0.476  -0.061
    1UNL    H41   95  -0.206   0.393  -0.159
    1UNL    H42   96  -0.163   0.490  -0.018
    1UNL    H43   97  -0.264   0.390   0.224
    1UNL    H44   98  -0.521   0.346   0.114
    1UNL    H45   99  -0.283   0.152   0.291
    1UNL    H46  100  -0.529   0.271   0.330
    1UNL    H47  101  -0.457   0.006   0.215
    1UNL    H48  102  -0.768   0.075   0.160
    1UNL    H49  103  -0.680  -0.260   0.231
    1UNL    H50  104  -0.847  -0.135   0.332
    1UNL    H51  105  -0.936  -0.231   0.218
    1UNL    H52  106  -0.957  -0.058   0.064
    1UNL    H53  107  -0.696  -0.325   0.011
    1UNL    H54  108  -0.859  -0.260  -0.129
    1UNL    H55  109  -0.547  -0.142  -0.056
    1UNL    H56  110  -0.755  -0.104  -0.251
    1UNL    H57  111  -0.608   0.072  -0.088
    1UNL    H58  112  -0.831   0.144  -0.078
   0.00000   0.00000   0.00000   0.00000   0.00000   0.00000   0.00000   0.00000   0.00000
Generated with MDTraj, t= 16.0
 112
    1UNL     C1    1   0.033  -0.031  -0.429
    1UNL     C2    2   0.015  -0.047  -0.281
    1UNL     C3    3   0.074   0.039  -0.195
    1UNL     C4    4   0.081   0.012  -0.046
    1UNL     O1    5   0.206  -0.045  -0.003
    1UNL     C5    6   0.328   0.028  -0.033
    1UNL     O2    7   0.356   0.032  -0.182
    1UNL     C6    8   0.389  -0.101  -0.224
    1UNL     C7    9   0.378  -0.116  -0.377
    1UNL     C8   10   0.523  -0.147  -0.154
    1UNL     O3   11   0.563  -0.280  -0.206
    1UNL     C9   12   0.512  -0.148   0.006
    1UNL     O4   13   0.449  -0.268   0.054
    1UNL    C10   14   0.447  -0.018   0.060
    1UNL     O5   15   0.537   0.087   0.084
    1UNL    C11   16   0.625   0.067   0.194
    1UNL     O6   17   0.737  -0.023   0.173
    1UNL    C12   18   0.817   0.013   0.059
    1UNL    C13   19   0.923  -0.096   0.010
    1UNL     O7   20   1.000  -0.150   0.114
    1UNL    C14   21   0.887   0.147   0.100
    1UNL     O8   22   0.975   0.117   0.208
    1UNL    C15   23   0.786   0.264   0.130
    1UNL     O9   24   0.711   0.298   0.022
    1UNL    C16   25   0.684   0.209   0.245
    1UNL    O10   26   0.584   0.306   0.265
    1UNL    C17   27  -0.055  -0.160  -0.230
    1UNL    C18   28  -0.199  -0.110  -0.183
    1UNL    C19   29  -0.284  -0.212  -0.108
    1UNL    C20   30  -0.305  -0.201   0.021
    1UNL    C21   31  -0.383  -0.306   0.098
    1UNL    C22   32  -0.231  -0.102   0.111
    1UNL    O11   33  -0.223   0.037   0.079
    1UNL    C23   34  -0.355   0.089   0.051
    1UNL    O12   35  -0.357   0.208  -0.028
    1UNL    C24   36  -0.296   0.310   0.034
    1UNL    C25   37  -0.291   0.434  -0.055
    1UNL    C26   38  -0.370   0.348   0.167
    1UNL    O13   39  -0.500   0.380   0.133
    1UNL    C27   40  -0.373   0.224   0.265
    1UNL    O14   41  -0.454   0.244   0.378
    1UNL    C28   42  -0.439   0.108   0.183
    1UNL    O15   43  -0.577   0.139   0.160
    1UNL    C29   44  -0.654   0.030   0.120
    1UNL    O16   45  -0.627  -0.099   0.181
    1UNL    C30   46  -0.723  -0.194   0.148
    1UNL    C31   47  -0.861  -0.165   0.199
    1UNL    O17   48  -0.935  -0.066   0.129
    1UNL    C32   49  -0.721  -0.221  -0.006
    1UNL    O18   50  -0.852  -0.239  -0.059
    1UNL    C33   51  -0.651  -0.116  -0.097
    1UNL    O19   52  -0.710  -0.125  -0.224
    1UNL    C34   53  -0.660   0.031  -0.044
    1UNL    O20   54  -0.779   0.088  -0.084
    1UNL     H1   55  -0.074  -0.024  -0.467
    1UNL     H2   56   0.077   0.061  -0.452
    1UNL     H3   57   0.082  -0.113  -0.474
    1UNL     H4   58   0.136   0.116  -0.232
    1UNL     H5   59  -0.003  -0.049  -0.014
    1UNL     H6   60   0.070   0.107   0.008
    1UNL     H7   61   0.328   0.135  -0.004
    1UNL     H8   62   0.313  -0.161  -0.168
    1UNL     H9   63   0.288  -0.066  -0.411
    1UNL    H10   64   0.369  -0.219  -0.398
    1UNL    H11   65   0.467  -0.057  -0.430
    1UNL    H12   66   0.609  -0.070  -0.174
    1UNL    H13   67   0.570  -0.332  -0.119
    1UNL    H14   68   0.613  -0.153   0.050
    1UNL    H15   69   0.450  -0.295   0.147
    1UNL    H16   70   0.392  -0.031   0.154
    1UNL    H17   71   0.569   0.025   0.279
    1UNL    H18   72   0.742   0.034  -0.019
    1UNL    H19   73   0.866  -0.186  -0.038
    1UNL    H20   74   0.983  -0.059  -0.068
    1UNL    H21   75   1.054  -0.083   0.163
    1UNL    H22   76   0.960   0.178   0.019
    1UNL    H23   77   0.915   0.062   0.265
    1UNL    H24   78   0.838   0.356   0.165
    1UNL    H25   79   0.640   0.229   0.008
    1UNL    H26   80   0.743   0.195   0.330
    1UNL    H27   81   0.564   0.345   0.177
    1UNL    H28   82  -0.079  -0.223  -0.314
    1UNL    H29   83   0.000  -0.211  -0.146
    1UNL    H30   84  -0.187  -0.024  -0.124
    1UNL    H31   85  -0.252  -0.081  -0.276
    1UNL    H32   86  -0.330  -0.294  -0.162
    1UNL    H33   87  -0.367  -0.417   0.064
    1UNL    H34   88  -0.355  -0.312   0.195
    1UNL    H35   89  -0.495  -0.281   0.089
    1UNL    H36   90  -0.272  -0.103   0.208
    1UNL    H37   91  -0.133  -0.139   0.133
    1UNL    H38   92  -0.410   0.019  -0.003
    1UNL    H39   93  -0.191   0.266   0.062
    1UNL    H40   94  -0.399   0.460  -0.065
    1UNL    H41   95  -0.248   0.421  -0.152
    1UNL    H42   96  -0.253   0.531  -0.010
    1UNL    H43   97  -0.328   0.435   0.215
    1UNL    H44   98  -0.523   0.308   0.072
    1UNL    H45   99  -0.275   0.201   0.306
    1UNL    H46  100  -0.520   0.315   0.361
    1UNL    H47  101  -0.432   0.023   0.245
    1UNL    H48  102  -0.761   0.040   0.157
    1UNL    H49  103  -0.685  -0.286   0.199
    1UNL    H50  104  -0.856  -0.124   0.301
    1UNL    H51  105  -0.909  -0.265   0.209
    1UNL    H52  106  -0.933  -0.087   0.035
    1UNL    H53  107  -0.665  -0.311  -0.029
    1UNL    H54  108  -0.837  -0.246  -0.157
    1UNL    H55  109  -0.543  -0.133  -0.122
    1UNL    H56  110  -0.797  -0.075  -0.230
    1UNL    H57  111  -0.581   0.084  -0.085
    1UNL    H58  112  -0.790   0.178  -0.050
   0.00000   0.00000   0.00000   0.00000   0.00000   0.00000   0.00000   0.00000   0.00000
Generated with MDTraj, t= 17.0
 112
    1UNL     C1    1   0.013  -0.080  -0.416
    1UNL     C2    2   0.002  -0.065  -0.268
    1UNL     C3    3   0.086   0.017  -0.200
    1UNL     C4    4   0.090   0.034  -0.050
    1UNL     O1    5   0.199  -0.025   0.014
    1UNL     C5    6   0.324   0.030  -0.019
    1UNL     O2    7   0.364   0.028  -0.161
    1UNL     C6    8   0.407  -0.099  -0.216
    1UNL     C7    9   0.411  -0.096  -0.365
    1UNL     C8   10   0.545  -0.126  -0.148
    1UNL     O3   11   0.630  -0.229  -0.194
    1UNL     C9   12   0.508  -0.148   0.001
    1UNL     O4   13   0.429  -0.261   0.015
    1UNL    C10   14   0.442  -0.019   0.068
    1UNL     O5   15   0.531   0.090   0.082
    1UNL    C11   16   0.621   0.064   0.183
    1UNL     O6   17   0.720  -0.027   0.147
    1UNL    C12   18   0.813   0.010   0.040
    1UNL    C13   19   0.898  -0.117   0.013
    1UNL     O7   20   0.977  -0.159   0.120
    1UNL    C14   21   0.896   0.134   0.082
    1UNL     O8   22   0.975   0.103   0.195
    1UNL    C15   23   0.791   0.247   0.116
    1UNL     O9   24   0.723   0.280   0.004
    1UNL    C16   25   0.683   0.196   0.228
    1UNL    O10   26   0.580   0.290   0.261
    1UNL    C17   27  -0.079  -0.165  -0.184
    1UNL    C18   28  -0.211  -0.104  -0.146
    1UNL    C19   29  -0.281  -0.203  -0.056
    1UNL    C20   30  -0.287  -0.192   0.073
    1UNL    C21   31  -0.332  -0.298   0.157
    1UNL    C22   32  -0.217  -0.075   0.135
    1UNL    O11   33  -0.237   0.050   0.085
    1UNL    C23   34  -0.372   0.077   0.065
    1UNL    O12   35  -0.389   0.193  -0.023
    1UNL    C24   36  -0.325   0.307   0.024
    1UNL    C25   37  -0.314   0.419  -0.083
    1UNL    C26   38  -0.386   0.349   0.165
    1UNL    O13   39  -0.522   0.406   0.152
    1UNL    C27   40  -0.379   0.231   0.265
    1UNL    O14   41  -0.450   0.255   0.385
    1UNL    C28   42  -0.440   0.109   0.199
    1UNL    O15   43  -0.575   0.128   0.171
    1UNL    C29   44  -0.644   0.017   0.118
    1UNL    O16   45  -0.610  -0.119   0.148
    1UNL    C30   46  -0.704  -0.215   0.108
    1UNL    C31   47  -0.846  -0.190   0.165
    1UNL    O17   48  -0.899  -0.066   0.128
    1UNL    C32   49  -0.717  -0.220  -0.053
    1UNL    O18   50  -0.858  -0.212  -0.088
    1UNL    C33   51  -0.652  -0.104  -0.124
    1UNL    O19   52  -0.704  -0.088  -0.251
    1UNL    C34   53  -0.668   0.033  -0.043
    1UNL    O20   54  -0.796   0.091  -0.069
    1UNL     H1   55  -0.088  -0.096  -0.450
    1UNL     H2   56   0.040   0.018  -0.469
    1UNL     H3   57   0.071  -0.166  -0.446
    1UNL     H4   58   0.163   0.075  -0.258
    1UNL     H5   59   0.002  -0.019  -0.009
    1UNL     H6   60   0.076   0.140  -0.028
    1UNL     H7   61   0.324   0.141  -0.007
    1UNL     H8   62   0.337  -0.174  -0.175
    1UNL     H9   63   0.310  -0.086  -0.413
    1UNL    H10   64   0.454  -0.187  -0.399
    1UNL    H11   65   0.465  -0.001  -0.398
    1UNL    H12   66   0.605  -0.032  -0.179
    1UNL    H13   67   0.610  -0.308  -0.148
    1UNL    H14   68   0.597  -0.176   0.064
    1UNL    H15   69   0.378  -0.261   0.100
    1UNL    H16   70   0.391  -0.032   0.165
    1UNL    H17   71   0.568   0.028   0.270
    1UNL    H18   72   0.747   0.038  -0.043
    1UNL    H19   73   0.823  -0.202  -0.016
    1UNL    H20   74   0.955  -0.099  -0.076
    1UNL    H21   75   1.010  -0.084   0.171
    1UNL    H22   76   0.970   0.170   0.002
    1UNL    H23   77   0.910   0.068   0.265
    1UNL    H24   78   0.826   0.342   0.156
    1UNL    H25   79   0.651   0.219  -0.015
    1UNL    H26   80   0.741   0.184   0.314
    1UNL    H27   81   0.512   0.285   0.190
    1UNL    H28   82  -0.090  -0.258  -0.242
    1UNL    H29   83  -0.021  -0.186  -0.092
    1UNL    H30   84  -0.205  -0.013  -0.095
    1UNL    H31   85  -0.274  -0.083  -0.235
    1UNL    H32   86  -0.334  -0.289  -0.104
    1UNL    H33   87  -0.330  -0.391   0.100
    1UNL    H34   88  -0.266  -0.319   0.243
    1UNL    H35   89  -0.436  -0.275   0.193
    1UNL    H36   90  -0.236  -0.074   0.238
    1UNL    H37   91  -0.111  -0.095   0.127
    1UNL    H38   92  -0.427  -0.001   0.023
    1UNL    H39   93  -0.211   0.279   0.041
    1UNL    H40   94  -0.424   0.433  -0.104
    1UNL    H41   95  -0.265   0.382  -0.169
    1UNL    H42   96  -0.275   0.520  -0.054
    1UNL    H43   97  -0.335   0.436   0.201
    1UNL    H44   98  -0.577   0.326   0.134
    1UNL    H45   99  -0.276   0.206   0.292
    1UNL    H46  100  -0.540   0.299   0.373
    1UNL    H47  101  -0.427   0.026   0.264
    1UNL    H48  102  -0.748   0.021   0.164
    1UNL    H49  103  -0.668  -0.312   0.153
    1UNL    H50  104  -0.838  -0.199   0.276
    1UNL    H51  105  -0.929  -0.264   0.143
    1UNL    H52  106  -0.883  -0.053   0.029
    1UNL    H53  107  -0.680  -0.319  -0.087
    1UNL    H54  108  -0.861  -0.226  -0.184
    1UNL    H55  109  -0.541  -0.126  -0.131
    1UNL    H56  110  -0.781  -0.026  -0.256
    1UNL    H57  111  -0.593   0.096  -0.076
    1UNL    H58  112  -0.805   0.172  -0.015
   0.00000   0.00000   0.00000   0.00000   0.00000   0.00000   0.00000   0.00000   0.00000
Generated with MDTraj, t= 18.0
 112
    1UNL     C1    1  -0.024  -0.125  -0.399
    1UNL     C2    2  -0.000  -0.085  -0.258
    1UNL     C3    3   0.073   0.022  -0.220
    1UNL     C4    4   0.089   0.051  -0.075
    1UNL     O1    5   0.199  -0.023  -0.018
    1UNL     C5    6   0.323   0.041  -0.033
    1UNL     O2    7   0.372   0.056  -0.164
    1UNL     C6    8   0.423  -0.070  -0.220
    1UNL     C7    9   0.475  -0.060  -0.359
    1UNL     C8   10   0.547  -0.120  -0.141
    1UNL     O3   11   0.630  -0.223  -0.190
    1UNL     C9   12   0.494  -0.146   0.001
    1UNL     O4   13   0.406  -0.257   0.000
    1UNL    C10   14   0.439  -0.013   0.059
    1UNL     O5   15   0.538   0.094   0.083
    1UNL    C11   16   0.630   0.064   0.188
    1UNL     O6   17   0.727  -0.038   0.158
    1UNL    C12   18   0.809  -0.002   0.047
    1UNL    C13   19   0.876  -0.133   0.003
    1UNL     O7   20   0.972  -0.173   0.091
    1UNL    C14   21   0.895   0.118   0.089
    1UNL     O8   22   0.980   0.091   0.197
    1UNL    C15   23   0.798   0.240   0.115
    1UNL     O9   24   0.727   0.267  -0.004
    1UNL    C16   25   0.692   0.202   0.224
    1UNL    O10   26   0.594   0.301   0.245
    1UNL    C17   27  -0.070  -0.175  -0.154
    1UNL    C18   28  -0.208  -0.140  -0.110
    1UNL    C19   29  -0.261  -0.239  -0.001
    1UNL    C20   30  -0.276  -0.198   0.122
    1UNL    C21   31  -0.338  -0.285   0.226
    1UNL    C22   32  -0.205  -0.073   0.169
    1UNL    O11   33  -0.234   0.050   0.096
    1UNL    C23   34  -0.373   0.067   0.071
    1UNL    O12   35  -0.404   0.176  -0.021
    1UNL    C24   36  -0.344   0.296   0.019
    1UNL    C25   37  -0.362   0.403  -0.080
    1UNL    C26   38  -0.389   0.340   0.156
    1UNL    O13   39  -0.524   0.392   0.135
    1UNL    C27   40  -0.387   0.227   0.261
    1UNL    O14   41  -0.456   0.263   0.380
    1UNL    C28   42  -0.456   0.103   0.197
    1UNL    O15   43  -0.598   0.127   0.182
    1UNL    C29   44  -0.664   0.031   0.112
    1UNL    O16   45  -0.609  -0.097   0.131
    1UNL    C30   46  -0.685  -0.207   0.077
    1UNL    C31   47  -0.813  -0.235   0.159
    1UNL    O17   48  -0.914  -0.141   0.142
    1UNL    C32   49  -0.709  -0.182  -0.081
    1UNL    O18   50  -0.851  -0.187  -0.113
    1UNL    C33   51  -0.636  -0.060  -0.127
    1UNL    O19   52  -0.658  -0.036  -0.265
    1UNL    C34   53  -0.677   0.070  -0.041
    1UNL    O20   54  -0.811   0.113  -0.082
    1UNL     H1   55  -0.128  -0.118  -0.410
    1UNL     H2   56   0.015  -0.056  -0.485
    1UNL     H3   57  -0.006  -0.234  -0.419
    1UNL     H4   58   0.114   0.089  -0.287
    1UNL     H5   59  -0.005   0.027  -0.022
    1UNL     H6   60   0.095   0.157  -0.053
    1UNL     H7   61   0.308   0.151  -0.016
    1UNL     H8   62   0.348  -0.149  -0.205
    1UNL     H9   63   0.401  -0.032  -0.439
    1UNL    H10   64   0.526  -0.155  -0.388
    1UNL    H11   65   0.540   0.022  -0.356
    1UNL    H12   66   0.614  -0.031  -0.157
    1UNL    H13   67   0.586  -0.308  -0.174
    1UNL    H14   68   0.572  -0.181   0.075
    1UNL    H15   69   0.357  -0.258   0.088
    1UNL    H16   70   0.379  -0.025   0.151
    1UNL    H17   71   0.573   0.025   0.268
    1UNL    H18   72   0.747   0.039  -0.024
    1UNL    H19   73   0.797  -0.216  -0.009
    1UNL    H20   74   0.911  -0.122  -0.100
    1UNL    H21   75   0.966  -0.120   0.176
    1UNL    H22   76   0.970   0.142   0.006
    1UNL    H23   77   0.921   0.082   0.277
    1UNL    H24   78   0.845   0.333   0.146
    1UNL    H25   79   0.646   0.208  -0.009
    1UNL    H26   80   0.751   0.186   0.310
    1UNL    H27   81   0.553   0.331   0.160
    1UNL    H28   82  -0.069  -0.279  -0.194
    1UNL    H29   83  -0.001  -0.180  -0.069
    1UNL    H30   84  -0.219  -0.036  -0.089
    1UNL    H31   85  -0.280  -0.141  -0.195
    1UNL    H32   86  -0.298  -0.331  -0.029
    1UNL    H33   87  -0.390  -0.360   0.180
    1UNL    H34   88  -0.253  -0.341   0.290
    1UNL    H35   89  -0.389  -0.225   0.304
    1UNL    H36   90  -0.223  -0.051   0.270
    1UNL    H37   91  -0.098  -0.092   0.161
    1UNL    H38   92  -0.411  -0.018   0.023
    1UNL    H39   93  -0.226   0.275   0.023
    1UNL    H40   94  -0.470   0.431  -0.068
    1UNL    H41   95  -0.339   0.364  -0.180
    1UNL    H42   96  -0.306   0.492  -0.054
    1UNL    H43   97  -0.327   0.423   0.189
    1UNL    H44   98  -0.572   0.306   0.126
    1UNL    H45   99  -0.283   0.201   0.287
    1UNL    H46  100  -0.548   0.285   0.370
    1UNL    H47  101  -0.452   0.014   0.258
    1UNL    H48  102  -0.773   0.015   0.145
    1UNL    H49  103  -0.621  -0.300   0.089
    1UNL    H50  104  -0.810  -0.236   0.272
    1UNL    H51  105  -0.851  -0.341   0.133
    1UNL    H52  106  -0.952  -0.150   0.046
    1UNL    H53  107  -0.666  -0.269  -0.140
    1UNL    H54  108  -0.856  -0.146  -0.205
    1UNL    H55  109  -0.525  -0.080  -0.113
    1UNL    H56  110  -0.727   0.031  -0.289
    1UNL    H57  111  -0.608   0.143  -0.063
    1UNL    H58  112  -0.843   0.188  -0.026
   0.00000   0.00000   0.00000   0.00000   0.00000   0.00000   0.00000   0.00000   0.00000
Generated with MDTraj, t= 19.0
 112
    1UNL     C1    1  -0.053  -0.183  -0.366
    1UNL     C2    2  -0.010  -0.117  -0.239
    1UNL     C3    3   0.063  -0.007  -0.229
    1UNL     C4    4   0.090   0.045  -0.095
    1UNL     O1    5   0.214  -0.011  -0.040
    1UNL     C5    6   0.333   0.069  -0.047
    1UNL     O2    7   0.374   0.081  -0.189
    1UNL     C6    8   0.421  -0.046  -0.237
    1UNL     C7    9   0.481  -0.030  -0.376
    1UNL     C8   10   0.527  -0.124  -0.152
    1UNL     O3   11   0.564  -0.246  -0.213
    1UNL     C9   12   0.489  -0.129   0.002
    1UNL     O4   13   0.392  -0.225   0.017
    1UNL    C10   14   0.441   0.006   0.055
    1UNL     O5   15   0.544   0.107   0.078
    1UNL    C11   16   0.630   0.072   0.189
    1UNL     O6   17   0.719  -0.036   0.157
    1UNL    C12   18   0.799  -0.013   0.040
    1UNL    C13   19   0.882  -0.139  -0.002
    1UNL     O7   20   0.979  -0.182   0.088
    1UNL    C14   21   0.892   0.102   0.092
    1UNL     O8   22   0.952   0.055   0.213
    1UNL    C15   23   0.815   0.232   0.124
    1UNL     O9   24   0.739   0.281   0.012
    1UNL    C16   25   0.713   0.199   0.232
    1UNL    O10   26   0.620   0.305   0.242
    1UNL    C17   27  -0.038  -0.197  -0.118
    1UNL    C18   28  -0.184  -0.174  -0.079
    1UNL    C19   29  -0.242  -0.254   0.041
    1UNL    C20   30  -0.274  -0.198   0.155
    1UNL    C21   31  -0.333  -0.281   0.263
    1UNL    C22   32  -0.222  -0.063   0.193
    1UNL    O11   33  -0.258   0.050   0.100
    1UNL    C23   34  -0.393   0.063   0.087
    1UNL    O12   35  -0.419   0.163  -0.014
    1UNL    C24   36  -0.354   0.294   0.020
    1UNL    C25   37  -0.363   0.393  -0.091
    1UNL    C26   38  -0.415   0.345   0.151
    1UNL    O13   39  -0.549   0.386   0.124
    1UNL    C27   40  -0.406   0.240   0.262
    1UNL    O14   41  -0.457   0.295   0.380
    1UNL    C28   42  -0.466   0.098   0.221
    1UNL    O15   43  -0.604   0.116   0.199
    1UNL    C29   44  -0.660   0.024   0.108
    1UNL    O16   45  -0.599  -0.110   0.115
    1UNL    C30   46  -0.660  -0.213   0.037
    1UNL    C31   47  -0.781  -0.271   0.107
    1UNL    O17   48  -0.880  -0.181   0.142
    1UNL    C32   49  -0.693  -0.163  -0.112
    1UNL    O18   50  -0.838  -0.152  -0.119
    1UNL    C33   51  -0.622  -0.034  -0.149
    1UNL    O19   52  -0.678   0.009  -0.272
    1UNL    C34   53  -0.660   0.078  -0.041
    1UNL    O20   54  -0.793   0.124  -0.076
    1UNL     H1   55  -0.155  -0.151  -0.389
    1UNL     H2   56   0.007  -0.143  -0.453
    1UNL     H3   57  -0.065  -0.297  -0.357
    1UNL     H4   58   0.111   0.048  -0.314
    1UNL     H5   59   0.010   0.032  -0.022
    1UNL     H6   60   0.098   0.153  -0.088
    1UNL     H7   61   0.314   0.176  -0.025
    1UNL     H8   62   0.335  -0.114  -0.239
    1UNL     H9   63   0.417   0.024  -0.447
    1UNL    H10   64   0.504  -0.133  -0.423
    1UNL    H11   65   0.563   0.032  -0.367
    1UNL    H12   66   0.622  -0.066  -0.164
    1UNL    H13   67   0.494  -0.315  -0.179
    1UNL    H14   68   0.579  -0.179   0.052
    1UNL    H15   69   0.320  -0.218  -0.051
    1UNL    H16   70   0.382  -0.004   0.149
    1UNL    H17   71   0.564   0.049   0.269
    1UNL    H18   72   0.745   0.033  -0.034
    1UNL    H19   73   0.803  -0.221  -0.012
    1UNL    H20   74   0.928  -0.141  -0.104
    1UNL    H21   75   1.002  -0.111   0.150
    1UNL    H22   76   0.979   0.126   0.023
    1UNL    H23   77   0.879   0.038   0.271
    1UNL    H24   78   0.878   0.310   0.164
    1UNL    H25   79   0.657   0.230   0.006
    1UNL    H26   80   0.763   0.190   0.326
    1UNL    H27   81   0.622   0.369   0.168
    1UNL    H28   82  -0.011  -0.306  -0.138
    1UNL    H29   83   0.035  -0.181  -0.040
    1UNL    H30   84  -0.207  -0.068  -0.076
    1UNL    H31   85  -0.242  -0.188  -0.175
    1UNL    H32   86  -0.261  -0.366   0.023
    1UNL    H33   87  -0.384  -0.362   0.216
    1UNL    H34   88  -0.252  -0.328   0.329
    1UNL    H35   89  -0.383  -0.221   0.338
    1UNL    H36   90  -0.250  -0.036   0.291
    1UNL    H37   91  -0.112  -0.058   0.196
    1UNL    H38   92  -0.426  -0.029   0.043
    1UNL    H39   93  -0.245   0.252   0.044
    1UNL    H40   94  -0.470   0.419  -0.097
    1UNL    H41   95  -0.325   0.364  -0.193
    1UNL    H42   96  -0.319   0.487  -0.065
    1UNL    H43   97  -0.359   0.432   0.191
    1UNL    H44   98  -0.605   0.309   0.140
    1UNL    H45   99  -0.296   0.235   0.281
    1UNL    H46  100  -0.553   0.309   0.369
    1UNL    H47  101  -0.450   0.020   0.297
    1UNL    H48  102  -0.764  -0.000   0.145
    1UNL    H49  103  -0.574  -0.286   0.033
    1UNL    H50  104  -0.743  -0.318   0.200
    1UNL    H51  105  -0.844  -0.348   0.051
    1UNL    H52  106  -0.884  -0.118   0.066
    1UNL    H53  107  -0.664  -0.237  -0.195
    1UNL    H54  108  -0.854  -0.077  -0.176
    1UNL    H55  109  -0.506  -0.037  -0.150
    1UNL    H56  110  -0.725   0.095  -0.270
    1UNL    H57  111  -0.594   0.155  -0.041
    1UNL    H58  112  -0.823   0.188  -0.007
   0.00000   0.00000   0.00000   0.00000   0.00000   0.00000   0.00000   0.00000   0.00000
Generated with MDTraj, t= 20.0
 112
    1UNL     C1    1  -0.032  -0.253  -0.334
    1UNL     C2    2   0.004  -0.159  -0.223
    1UNL     C3    3   0.069  -0.046  -0.248
    1UNL     C4    4   0.105   0.056  -0.147
    1UNL     O1    5   0.204   0.024  -0.043
    1UNL     C5    6   0.331   0.091  -0.052
    1UNL     O2    7   0.383   0.090  -0.187
    1UNL     C6    8   0.399  -0.036  -0.236
    1UNL     C7    9   0.425  -0.008  -0.387
    1UNL     C8   10   0.510  -0.114  -0.161
    1UNL     O3   11   0.507  -0.245  -0.214
    1UNL     C9   12   0.469  -0.116  -0.010
    1UNL     O4   13   0.362  -0.219  -0.006
    1UNL    C10   14   0.429   0.024   0.044
    1UNL     O5   15   0.547   0.109   0.067
    1UNL    C11   16   0.626   0.069   0.177
    1UNL     O6   17   0.713  -0.035   0.148
    1UNL    C12   18   0.807  -0.010   0.050
    1UNL    C13   19   0.878  -0.134  -0.006
    1UNL     O7   20   0.951  -0.203   0.089
    1UNL    C14   21   0.909   0.096   0.107
    1UNL     O8   22   0.985   0.044   0.218
    1UNL    C15   23   0.831   0.226   0.143
    1UNL     O9   24   0.789   0.285   0.015
    1UNL    C16   25   0.715   0.191   0.233
    1UNL    O10   26   0.618   0.293   0.252
    1UNL    C17   27  -0.035  -0.198  -0.085
    1UNL    C18   28  -0.185  -0.164  -0.053
    1UNL    C19   29  -0.256  -0.238   0.069
    1UNL    C20   30  -0.277  -0.188   0.189
    1UNL    C21   31  -0.317  -0.269   0.301
    1UNL    C22   32  -0.214  -0.056   0.228
    1UNL    O11   33  -0.230   0.057   0.137
    1UNL    C23   34  -0.362   0.067   0.095
    1UNL    O12   35  -0.387   0.151  -0.015
    1UNL    C24   36  -0.355   0.288   0.022
    1UNL    C25   37  -0.364   0.382  -0.093
    1UNL    C26   38  -0.431   0.348   0.145
    1UNL    O13   39  -0.570   0.375   0.118
    1UNL    C27   40  -0.420   0.246   0.262
    1UNL    O14   41  -0.507   0.275   0.368
    1UNL    C28   42  -0.455   0.104   0.216
    1UNL    O15   43  -0.593   0.106   0.190
    1UNL    C29   44  -0.640   0.016   0.097
    1UNL    O16   45  -0.567  -0.109   0.075
    1UNL    C30   46  -0.643  -0.209   0.005
    1UNL    C31   47  -0.738  -0.291   0.091
    1UNL    O17   48  -0.860  -0.219   0.129
    1UNL    C32   49  -0.701  -0.143  -0.128
    1UNL    O18   50  -0.843  -0.131  -0.125
    1UNL    C33   51  -0.635  -0.010  -0.165
    1UNL    O19   52  -0.683   0.054  -0.281
    1UNL    C34   53  -0.672   0.082  -0.044
    1UNL    O20   54  -0.807   0.119  -0.045
    1UNL     H1   55  -0.078  -0.190  -0.422
    1UNL     H2   56   0.058  -0.292  -0.382
    1UNL     H3   57  -0.118  -0.324  -0.306
    1UNL     H4   58   0.107  -0.022  -0.342
    1UNL     H5   59   0.014   0.088  -0.096
    1UNL     H6   60   0.138   0.152  -0.187
    1UNL     H7   61   0.329   0.199  -0.033
    1UNL     H8   62   0.308  -0.094  -0.224
    1UNL     H9   63   0.350   0.048  -0.436
    1UNL    H10   64   0.432  -0.106  -0.439
    1UNL    H11   65   0.513   0.054  -0.396
    1UNL    H12   66   0.608  -0.065  -0.185
    1UNL    H13   67   0.441  -0.289  -0.160
    1UNL    H14   68   0.556  -0.163   0.047
    1UNL    H15   69   0.288  -0.174   0.034
    1UNL    H16   70   0.379   0.021   0.143
    1UNL    H17   71   0.559   0.046   0.255
    1UNL    H18   72   0.762   0.041  -0.029
    1UNL    H19   73   0.811  -0.204  -0.064
    1UNL    H20   74   0.952  -0.096  -0.082
    1UNL    H21   75   0.971  -0.139   0.161
    1UNL    H22   76   0.991   0.121   0.034
    1UNL    H23   77   0.925   0.014   0.288
    1UNL    H24   78   0.898   0.293   0.195
    1UNL    H25   79   0.699   0.248  -0.011
    1UNL    H26   80   0.749   0.160   0.334
    1UNL    H27   81   0.566   0.308   0.170
    1UNL    H28   82   0.000  -0.306  -0.069
    1UNL    H29   83   0.034  -0.147  -0.023
    1UNL    H30   84  -0.198  -0.056  -0.033
    1UNL    H31   85  -0.249  -0.172  -0.142
    1UNL    H32   86  -0.269  -0.339   0.051
    1UNL    H33   87  -0.345  -0.372   0.265
    1UNL    H34   88  -0.249  -0.285   0.371
    1UNL    H35   89  -0.390  -0.224   0.364
    1UNL    H36   90  -0.257  -0.022   0.319
    1UNL    H37   91  -0.105  -0.073   0.249
    1UNL    H38   92  -0.383  -0.033   0.051
    1UNL    H39   93  -0.239   0.273   0.050
    1UNL    H40   94  -0.463   0.380  -0.135
    1UNL    H41   95  -0.289   0.362  -0.174
    1UNL    H42   96  -0.351   0.486  -0.063
    1UNL    H43   97  -0.382   0.446   0.170
    1UNL    H44   98  -0.616   0.290   0.094
    1UNL    H45   99  -0.314   0.254   0.298
    1UNL    H46  100  -0.595   0.268   0.318
    1UNL    H47  101  -0.437   0.035   0.301
    1UNL    H48  102  -0.736  -0.033   0.138
    1UNL    H49  103  -0.557  -0.271  -0.029
    1UNL    H50  104  -0.702  -0.316   0.191
    1UNL    H51  105  -0.756  -0.382   0.029
    1UNL    H52  106  -0.908  -0.200   0.047
    1UNL    H53  107  -0.680  -0.223  -0.206
    1UNL    H54  108  -0.859  -0.041  -0.083
    1UNL    H55  109  -0.518  -0.013  -0.161
    1UNL    H56  110  -0.785   0.052  -0.289
    1UNL    H57  111  -0.620   0.170  -0.059
    1UNL    H58  112  -0.827   0.183   0.025
   0.00000   0.00000   0.00000   0.00000   0.00000   0.00000   0.00000   0.00000   0.00000
Generated with MDTraj, t= 21.0
 112
    1UNL     C1    1   0.018  -0.297  -0.270
    1UNL     C2    2   0.036  -0.170  -0.185
    1UNL     C3    3   0.060  -0.049  -0.237
    1UNL     C4    4   0.096   0.067  -0.151
    1UNL     O1    5   0.192   0.032  -0.048
    1UNL     C5    6   0.320   0.105  -0.056
    1UNL     O2    7   0.369   0.107  -0.193
    1UNL     C6    8   0.384  -0.025  -0.241
    1UNL     C7    9   0.403  -0.017  -0.392
    1UNL     C8   10   0.497  -0.094  -0.163
    1UNL     O3   11   0.541  -0.221  -0.203
    1UNL     C9   12   0.455  -0.104  -0.017
    1UNL     O4   13   0.344  -0.202  -0.013
    1UNL    C10   14   0.419   0.037   0.031
    1UNL     O5   15   0.540   0.117   0.041
    1UNL    C11   16   0.614   0.060   0.150
    1UNL     O6   17   0.692  -0.058   0.119
    1UNL    C12   18   0.801  -0.024   0.037
    1UNL    C13   19   0.882  -0.147  -0.006
    1UNL     O7   20   0.937  -0.224   0.101
    1UNL    C14   21   0.897   0.080   0.101
    1UNL     O8   22   0.967   0.024   0.213
    1UNL    C15   23   0.816   0.209   0.132
    1UNL     O9   24   0.773   0.275   0.009
    1UNL    C16   25   0.700   0.175   0.221
    1UNL    O10   26   0.616   0.275   0.276
    1UNL    C17   27  -0.014  -0.179  -0.043
    1UNL    C18   28  -0.166  -0.148  -0.039
    1UNL    C19   29  -0.247  -0.215   0.076
    1UNL    C20   30  -0.258  -0.161   0.196
    1UNL    C21   31  -0.304  -0.234   0.320
    1UNL    C22   32  -0.186  -0.028   0.230
    1UNL    O11   33  -0.236   0.079   0.160
    1UNL    C23   34  -0.367   0.067   0.108
    1UNL    O12   35  -0.393   0.157  -0.003
    1UNL    C24   36  -0.351   0.282   0.036
    1UNL    C25   37  -0.347   0.389  -0.075
    1UNL    C26   38  -0.438   0.337   0.150
    1UNL    O13   39  -0.571   0.360   0.113
    1UNL    C27   40  -0.431   0.244   0.273
    1UNL    O14   41  -0.519   0.288   0.379
    1UNL    C28   42  -0.463   0.105   0.229
    1UNL    O15   43  -0.600   0.095   0.186
    1UNL    C29   44  -0.640   0.006   0.086
    1UNL    O16   45  -0.565  -0.121   0.066
    1UNL    C30   46  -0.625  -0.208  -0.030
    1UNL    C31   47  -0.700  -0.311   0.047
    1UNL    O17   48  -0.809  -0.252   0.121
    1UNL    C32   49  -0.705  -0.142  -0.149
    1UNL    O18   50  -0.845  -0.142  -0.127
    1UNL    C33   51  -0.644  -0.004  -0.180
    1UNL    O19   52  -0.722   0.052  -0.285
    1UNL    C34   53  -0.660   0.082  -0.051
    1UNL    O20   54  -0.782   0.147  -0.062
    1UNL     H1   55   0.025  -0.281  -0.388
    1UNL     H2   56   0.095  -0.371  -0.254
    1UNL     H3   57  -0.089  -0.334  -0.255
    1UNL     H4   58   0.084  -0.024  -0.341
    1UNL     H5   59   0.009   0.099  -0.098
    1UNL     H6   60   0.130   0.154  -0.210
    1UNL     H7   61   0.290   0.205  -0.023
    1UNL     H8   62   0.296  -0.085  -0.218
    1UNL     H9   63   0.316   0.021  -0.441
    1UNL    H10   64   0.419  -0.110  -0.434
    1UNL    H11   65   0.481   0.063  -0.418
    1UNL    H12   66   0.583  -0.024  -0.169
    1UNL    H13   67   0.482  -0.283  -0.165
    1UNL    H14   68   0.536  -0.154   0.048
    1UNL    H15   69   0.311  -0.204   0.083
    1UNL    H16   70   0.370   0.031   0.130
    1UNL    H17   71   0.545   0.029   0.223
    1UNL    H18   72   0.758   0.022  -0.049
    1UNL    H19   73   0.804  -0.212  -0.055
    1UNL    H20   74   0.959  -0.121  -0.085
    1UNL    H21   75   0.982  -0.159   0.161
    1UNL    H22   76   0.972   0.109   0.026
    1UNL    H23   77   0.909   0.019   0.297
    1UNL    H24   78   0.883   0.279   0.185
    1UNL    H25   79   0.684   0.240  -0.009
    1UNL    H26   80   0.739   0.121   0.311
    1UNL    H27   81   0.588   0.339   0.205
    1UNL    H28   82   0.017  -0.279   0.007
    1UNL    H29   83   0.031  -0.103   0.015
    1UNL    H30   84  -0.175  -0.035  -0.040
    1UNL    H31   85  -0.210  -0.179  -0.135
    1UNL    H32   86  -0.285  -0.316   0.056
    1UNL    H33   87  -0.293  -0.346   0.316
    1UNL    H34   88  -0.252  -0.205   0.409
    1UNL    H35   89  -0.400  -0.204   0.339
    1UNL    H36   90  -0.193  -0.006   0.336
    1UNL    H37   91  -0.077  -0.034   0.201
    1UNL    H38   92  -0.383  -0.037   0.065
    1UNL    H39   93  -0.236   0.271   0.068
    1UNL    H40   94  -0.446   0.425  -0.095
    1UNL    H41   95  -0.315   0.330  -0.161
    1UNL    H42   96  -0.276   0.476  -0.064
    1UNL    H43   97  -0.401   0.438   0.189
    1UNL    H44   98  -0.606   0.268   0.111
    1UNL    H45   99  -0.331   0.244   0.326
    1UNL    H46  100  -0.607   0.302   0.340
    1UNL    H47  101  -0.456   0.031   0.315
    1UNL    H48  102  -0.735  -0.043   0.123
    1UNL    H49  103  -0.531  -0.245  -0.074
    1UNL    H50  104  -0.625  -0.352   0.111
    1UNL    H51  105  -0.743  -0.388  -0.016
    1UNL    H52  106  -0.883  -0.217   0.056
    1UNL    H53  107  -0.690  -0.210  -0.238
    1UNL    H54  108  -0.869  -0.050  -0.111
    1UNL    H55  109  -0.533  -0.019  -0.214
    1UNL    H56  110  -0.809   0.079  -0.264
    1UNL    H57  111  -0.590   0.158  -0.063
    1UNL    H58  112  -0.782   0.222  -0.001
   0.00000   0.00000   0.00000   0.00000   0.00000   0.00000   0.00000   0.00000   0.00000
Generated with MDTraj, t= 22.0
 112
    1UNL     C1    1   0.077  -0.293  -0.247
    1UNL     C2    2   0.053  -0.164  -0.170
    1UNL     C3    3   0.081  -0.046  -0.220
    1UNL     C4    4   0.083   0.075  -0.143
    1UNL     O1    5   0.174   0.079  -0.032
    1UNL     C5    6   0.311   0.102  -0.069
    1UNL     O2    7   0.334   0.093  -0.211
    1UNL     C6    8   0.383  -0.037  -0.264
    1UNL     C7    9   0.442  -0.034  -0.408
    1UNL     C8   10   0.499  -0.092  -0.175
    1UNL     O3   11   0.570  -0.206  -0.223
    1UNL     C9   12   0.456  -0.111  -0.030
    1UNL     O4   13   0.346  -0.207  -0.020
    1UNL    C10   14   0.405   0.021   0.029
    1UNL     O5   15   0.516   0.109   0.078
    1UNL    C11   16   0.599   0.051   0.175
    1UNL     O6   17   0.678  -0.061   0.129
    1UNL    C12   18   0.775  -0.034   0.033
    1UNL    C13   19   0.849  -0.152  -0.019
    1UNL     O7   20   0.913  -0.230   0.080
    1UNL    C14   21   0.880   0.066   0.087
    1UNL     O8   22   0.941   0.000   0.199
    1UNL    C15   23   0.801   0.196   0.124
    1UNL     O9   24   0.736   0.258   0.012
    1UNL    C16   25   0.690   0.170   0.230
    1UNL    O10   26   0.619   0.292   0.257
    1UNL    C17   27   0.010  -0.183  -0.026
    1UNL    C18   28  -0.140  -0.158  -0.007
    1UNL    C19   29  -0.214  -0.217   0.117
    1UNL    C20   30  -0.255  -0.149   0.224
    1UNL    C21   31  -0.321  -0.222   0.347
    1UNL    C22   32  -0.218  -0.011   0.247
    1UNL    O11   33  -0.233   0.074   0.140
    1UNL    C23   34  -0.365   0.085   0.092
    1UNL    O12   35  -0.385   0.184  -0.006
    1UNL    C24   36  -0.350   0.308   0.045
    1UNL    C25   37  -0.364   0.431  -0.059
    1UNL    C26   38  -0.443   0.346   0.168
    1UNL    O13   39  -0.578   0.375   0.119
    1UNL    C27   40  -0.438   0.234   0.277
    1UNL    O14   41  -0.532   0.263   0.378
    1UNL    C28   42  -0.462   0.103   0.212
    1UNL    O15   43  -0.599   0.098   0.177
    1UNL    C29   44  -0.636   0.013   0.073
    1UNL    O16   45  -0.556  -0.108   0.058
    1UNL    C30   46  -0.601  -0.209  -0.040
    1UNL    C31   47  -0.654  -0.330   0.033
    1UNL    O17   48  -0.758  -0.286   0.108
    1UNL    C32   49  -0.713  -0.149  -0.144
    1UNL    O18   50  -0.839  -0.123  -0.080
    1UNL    C33   51  -0.642  -0.020  -0.187
    1UNL    O19   52  -0.694   0.049  -0.300
    1UNL    C34   53  -0.653   0.086  -0.065
    1UNL    O20   54  -0.783   0.144  -0.077
    1UNL     H1   55   0.124  -0.284  -0.348
    1UNL     H2   56   0.151  -0.362  -0.195
    1UNL     H3   57  -0.022  -0.346  -0.266
    1UNL     H4   58   0.114  -0.025  -0.322
    1UNL     H5   59  -0.016   0.090  -0.103
    1UNL     H6   60   0.102   0.162  -0.212
    1UNL     H7   61   0.330   0.206  -0.041
    1UNL     H8   62   0.301  -0.107  -0.264
    1UNL     H9   63   0.369  -0.002  -0.480
    1UNL    H10   64   0.469  -0.127  -0.441
    1UNL    H11   65   0.524   0.045  -0.417
    1UNL    H12   66   0.573  -0.010  -0.167
    1UNL    H13   67   0.505  -0.286  -0.237
    1UNL    H14   68   0.542  -0.158   0.031
    1UNL    H15   69   0.266  -0.154  -0.046
    1UNL    H16   70   0.349   0.008   0.122
    1UNL    H17   71   0.535   0.018   0.255
    1UNL    H18   72   0.714   0.010  -0.044
    1UNL    H19   73   0.776  -0.221  -0.067
    1UNL    H20   74   0.928  -0.114  -0.092
    1UNL    H21   75   0.980  -0.180   0.130
    1UNL    H22   76   0.948   0.081   0.005
    1UNL    H23   77   0.868  -0.053   0.248
    1UNL    H24   78   0.873   0.273   0.161
    1UNL    H25   79   0.673   0.196  -0.032
    1UNL    H26   80   0.738   0.146   0.331
    1UNL    H27   81   0.568   0.322   0.180
    1UNL    H28   82   0.023  -0.295  -0.002
    1UNL    H29   83   0.071  -0.120   0.034
    1UNL    H30   84  -0.161  -0.046  -0.015
    1UNL    H31   85  -0.176  -0.211  -0.097
    1UNL    H32   86  -0.233  -0.325   0.111
    1UNL    H33   87  -0.261  -0.297   0.396
    1UNL    H34   88  -0.348  -0.139   0.429
    1UNL    H35   89  -0.409  -0.255   0.307
    1UNL    H36   90  -0.280   0.031   0.327
    1UNL    H37   91  -0.111   0.001   0.286
    1UNL    H38   92  -0.384  -0.018   0.042
    1UNL    H39   93  -0.233   0.305   0.063
    1UNL    H40   94  -0.461   0.423  -0.109
    1UNL    H41   95  -0.288   0.431  -0.132
    1UNL    H42   96  -0.363   0.532  -0.010
    1UNL    H43   97  -0.411   0.450   0.204
    1UNL    H44   98  -0.623   0.292   0.105
    1UNL    H45   99  -0.339   0.227   0.330
    1UNL    H46  100  -0.620   0.259   0.338
    1UNL    H47  101  -0.454   0.016   0.287
    1UNL    H48  102  -0.735  -0.032   0.102
    1UNL    H49  103  -0.526  -0.247  -0.108
    1UNL    H50  104  -0.586  -0.367   0.105
    1UNL    H51  105  -0.680  -0.403  -0.041
    1UNL    H52  106  -0.807  -0.223   0.060
    1UNL    H53  107  -0.731  -0.208  -0.236
    1UNL    H54  108  -0.879  -0.042  -0.124
    1UNL    H55  109  -0.529  -0.044  -0.198
    1UNL    H56  110  -0.765   0.117  -0.267
    1UNL    H57  111  -0.585   0.164  -0.076
    1UNL    H58  112  -0.796   0.206  -0.002
   0.00000   0.00000   0.00000   0.00000   0.00000   0.00000   0.00000   0.00000   0.00000
Generated with MDTraj, t= 23.0
 112
    1UNL     C1    1   0.065  -0.303  -0.234
    1UNL     C2    2   0.057  -0.169  -0.162
    1UNL     C3    3   0.075  -0.047  -0.209
    1UNL     C4    4   0.083   0.071  -0.119
    1UNL     O1    5   0.177   0.045  -0.013
    1UNL     C5    6   0.305   0.088  -0.060
    1UNL     O2    7   0.341   0.085  -0.197
    1UNL     C6    8   0.394  -0.037  -0.253
    1UNL     C7    9   0.430  -0.027  -0.401
    1UNL     C8   10   0.513  -0.093  -0.175
    1UNL     O3   11   0.555  -0.213  -0.241
    1UNL     C9   12   0.459  -0.118  -0.033
    1UNL     O4   13   0.355  -0.215  -0.040
    1UNL    C10   14   0.411   0.012   0.031
    1UNL     O5   15   0.520   0.103   0.059
    1UNL    C11   16   0.588   0.059   0.178
    1UNL     O6   17   0.663  -0.062   0.149
    1UNL    C12   18   0.748  -0.037   0.037
    1UNL    C13   19   0.795  -0.167  -0.030
    1UNL     O7   20   0.884  -0.242   0.049
    1UNL    C14   21   0.859   0.064   0.082
    1UNL     O8   22   0.927   0.007   0.193
    1UNL    C15   23   0.791   0.198   0.130
    1UNL     O9   24   0.746   0.266   0.016
    1UNL    C16   25   0.677   0.174   0.234
    1UNL    O10   26   0.599   0.288   0.244
    1UNL    C17   27   0.016  -0.184  -0.017
    1UNL    C18   28  -0.137  -0.164  -0.010
    1UNL    C19   29  -0.194  -0.211   0.123
    1UNL    C20   30  -0.239  -0.136   0.222
    1UNL    C21   31  -0.302  -0.199   0.337
    1UNL    C22   32  -0.203   0.007   0.233
    1UNL    O11   33  -0.220   0.085   0.118
    1UNL    C23   34  -0.359   0.097   0.086
    1UNL    O12   35  -0.394   0.208   0.003
    1UNL    C24   36  -0.363   0.336   0.064
    1UNL    C25   37  -0.371   0.455  -0.032
    1UNL    C26   38  -0.450   0.367   0.185
    1UNL    O13   39  -0.583   0.392   0.153
    1UNL    C27   40  -0.442   0.248   0.287
    1UNL    O14   41  -0.539   0.249   0.390
    1UNL    C28   42  -0.466   0.116   0.206
    1UNL    O15   43  -0.603   0.118   0.152
    1UNL    C29   44  -0.632   0.016   0.058
    1UNL    O16   45  -0.548  -0.098   0.063
    1UNL    C30   46  -0.575  -0.203  -0.032
    1UNL    C31   47  -0.617  -0.336   0.036
    1UNL    O17   48  -0.734  -0.311   0.104
    1UNL    C32   49  -0.680  -0.156  -0.147
    1UNL    O18   50  -0.813  -0.158  -0.096
    1UNL    C33   51  -0.632  -0.022  -0.200
    1UNL    O19   52  -0.716   0.019  -0.304
    1UNL    C34   53  -0.642   0.083  -0.083
    1UNL    O20   54  -0.767   0.145  -0.102
    1UNL     H1   55   0.111  -0.292  -0.331
    1UNL     H2   56   0.136  -0.379  -0.174
    1UNL     H3   57  -0.039  -0.346  -0.247
    1UNL     H4   58   0.082  -0.025  -0.311
    1UNL     H5   59  -0.015   0.090  -0.075
    1UNL     H6   60   0.110   0.172  -0.162
    1UNL     H7   61   0.314   0.195  -0.029
    1UNL     H8   62   0.307  -0.102  -0.244
    1UNL     H9   63   0.350   0.014  -0.460
    1UNL    H10   64   0.439  -0.127  -0.443
    1UNL    H11   65   0.515   0.034  -0.417
    1UNL    H12   66   0.598  -0.023  -0.172
    1UNL    H13   67   0.484  -0.288  -0.228
    1UNL    H14   68   0.538  -0.180   0.025
    1UNL    H15   69   0.272  -0.177  -0.074
    1UNL    H16   70   0.355  -0.006   0.123
    1UNL    H17   71   0.514   0.027   0.254
    1UNL    H18   72   0.674   0.014  -0.024
    1UNL    H19   73   0.715  -0.239  -0.053
    1UNL    H20   74   0.853  -0.133  -0.121
    1UNL    H21   75   0.919  -0.183   0.122
    1UNL    H22   76   0.924   0.081   0.001
    1UNL    H23   77   0.867  -0.010   0.268
    1UNL    H24   78   0.872   0.261   0.179
    1UNL    H25   79   0.649   0.246   0.006
    1UNL    H26   80   0.730   0.152   0.333
    1UNL    H27   81   0.548   0.294   0.161
    1UNL    H28   82   0.047  -0.289   0.018
    1UNL    H29   83   0.061  -0.103   0.038
    1UNL    H30   84  -0.162  -0.053  -0.028
    1UNL    H31   85  -0.185  -0.226  -0.086
    1UNL    H32   86  -0.216  -0.313   0.121
    1UNL    H33   87  -0.239  -0.242   0.409
    1UNL    H34   88  -0.368  -0.121   0.389
    1UNL    H35   89  -0.371  -0.276   0.292
    1UNL    H36   90  -0.246   0.055   0.323
    1UNL    H37   91  -0.089   0.008   0.253
    1UNL    H38   92  -0.374   0.002   0.020
    1UNL    H39   93  -0.256   0.312   0.111
    1UNL    H40   94  -0.478   0.475  -0.060
    1UNL    H41   95  -0.320   0.430  -0.122
    1UNL    H42   96  -0.326   0.544   0.011
    1UNL    H43   97  -0.414   0.460   0.239
    1UNL    H44   98  -0.626   0.309   0.118
    1UNL    H45   99  -0.343   0.253   0.343
    1UNL    H46  100  -0.622   0.268   0.339
    1UNL    H47  101  -0.462   0.030   0.281
    1UNL    H48  102  -0.735  -0.024   0.071
    1UNL    H49  103  -0.483  -0.221  -0.088
    1UNL    H50  104  -0.530  -0.358   0.093
    1UNL    H51  105  -0.642  -0.418  -0.030
    1UNL    H52  106  -0.793  -0.259   0.043
    1UNL    H53  107  -0.683  -0.224  -0.232
    1UNL    H54  108  -0.841  -0.065  -0.093
    1UNL    H55  109  -0.523  -0.040  -0.231
    1UNL    H56  110  -0.786   0.075  -0.268
    1UNL    H57  111  -0.571   0.160  -0.093
    1UNL    H58  112  -0.777   0.214  -0.031
   0.00000   0.00000   0.00000   0.00000   0.00000   0.00000   0.00000   0.00000   0.00000
Generated with MDTraj, t= 24.0
 112
    1UNL     C1    1   0.015  -0.315  -0.266
    1UNL     C2    2   0.007  -0.186  -0.185
    1UNL     C3    3   0.051  -0.069  -0.230
    1UNL     C4    4   0.070   0.054  -0.146
    1UNL     O1    5   0.166   0.024  -0.038
    1UNL     C5    6   0.300   0.087  -0.049
    1UNL     O2    7   0.357   0.104  -0.177
    1UNL     C6    8   0.376  -0.023  -0.241
    1UNL     C7    9   0.400   0.005  -0.392
    1UNL     C8   10   0.489  -0.096  -0.176
    1UNL     O3   11   0.504  -0.226  -0.231
    1UNL     C9   12   0.451  -0.117  -0.024
    1UNL     O4   13   0.360  -0.220  -0.013
    1UNL    C10   14   0.405   0.021   0.041
    1UNL     O5   15   0.519   0.105   0.058
    1UNL    C11   16   0.598   0.060   0.169
    1UNL     O6   17   0.675  -0.057   0.131
    1UNL    C12   18   0.772  -0.034   0.029
    1UNL    C13   19   0.822  -0.166  -0.035
    1UNL     O7   20   0.877  -0.240   0.072
    1UNL    C14   21   0.872   0.065   0.093
    1UNL     O8   22   0.937   0.021   0.207
    1UNL    C15   23   0.800   0.192   0.133
    1UNL     O9   24   0.742   0.260   0.017
    1UNL    C16   25   0.693   0.159   0.238
    1UNL    O10   26   0.620   0.274   0.268
    1UNL    C17   27  -0.042  -0.215  -0.045
    1UNL    C18   28  -0.181  -0.152  -0.017
    1UNL    C19   29  -0.227  -0.196   0.118
    1UNL    C20   30  -0.238  -0.113   0.220
    1UNL    C21   31  -0.287  -0.171   0.344
    1UNL    C22   32  -0.184   0.032   0.223
    1UNL    O11   33  -0.229   0.117   0.115
    1UNL    C23   34  -0.366   0.121   0.074
    1UNL    O12   35  -0.386   0.239   0.001
    1UNL    C24   36  -0.353   0.359   0.080
    1UNL    C25   37  -0.366   0.482  -0.009
    1UNL    C26   38  -0.452   0.367   0.201
    1UNL    O13   39  -0.586   0.390   0.152
    1UNL    C27   40  -0.440   0.233   0.286
    1UNL    O14   41  -0.527   0.244   0.393
    1UNL    C28   42  -0.460   0.114   0.190
    1UNL    O15   43  -0.591   0.107   0.152
    1UNL    C29   44  -0.616   0.005   0.055
    1UNL    O16   45  -0.520  -0.098   0.045
    1UNL    C30   46  -0.555  -0.211  -0.035
    1UNL    C31   47  -0.596  -0.332   0.049
    1UNL    O17   48  -0.720  -0.322   0.122
    1UNL    C32   49  -0.647  -0.173  -0.151
    1UNL    O18   50  -0.780  -0.178  -0.101
    1UNL    C33   51  -0.613  -0.032  -0.201
    1UNL    O19   52  -0.696   0.007  -0.311
    1UNL    C34   53  -0.649   0.070  -0.084
    1UNL    O20   54  -0.777   0.119  -0.106
    1UNL     H1   55   0.080  -0.291  -0.352
    1UNL     H2   56   0.068  -0.399  -0.208
    1UNL     H3   57  -0.087  -0.346  -0.305
    1UNL     H4   58   0.061  -0.059  -0.343
    1UNL     H5   59  -0.018   0.087  -0.091
    1UNL     H6   60   0.103   0.147  -0.201
    1UNL     H7   61   0.280   0.192  -0.015
    1UNL     H8   62   0.283  -0.076  -0.228
    1UNL     H9   63   0.316   0.038  -0.450
    1UNL    H10   64   0.427  -0.092  -0.443
    1UNL    H11   65   0.475   0.071  -0.402
    1UNL    H12   66   0.584  -0.037  -0.180
    1UNL    H13   67   0.454  -0.286  -0.180
    1UNL    H14   68   0.541  -0.153   0.036
    1UNL    H15   69   0.276  -0.181  -0.038
    1UNL    H16   70   0.360  -0.007   0.138
    1UNL    H17   71   0.523   0.024   0.244
    1UNL    H18   72   0.712   0.018  -0.048
    1UNL    H19   73   0.734  -0.230  -0.058
    1UNL    H20   74   0.903  -0.158  -0.113
    1UNL    H21   75   0.906  -0.175   0.139
    1UNL    H22   76   0.937   0.089   0.015
    1UNL    H23   77   0.877   0.001   0.277
    1UNL    H24   78   0.868   0.267   0.182
    1UNL    H25   79   0.654   0.218   0.006
    1UNL    H26   80   0.732   0.125   0.340
    1UNL    H27   81   0.594   0.316   0.183
    1UNL    H28   82  -0.048  -0.326  -0.032
    1UNL    H29   83   0.027  -0.165   0.022
    1UNL    H30   84  -0.179  -0.037  -0.021
    1UNL    H31   85  -0.250  -0.186  -0.094
    1UNL    H32   86  -0.279  -0.297   0.120
    1UNL    H33   87  -0.230  -0.252   0.387
    1UNL    H34   88  -0.295  -0.103   0.418
    1UNL    H35   89  -0.396  -0.219   0.328
    1UNL    H36   90  -0.212   0.077   0.321
    1UNL    H37   91  -0.069   0.029   0.226
    1UNL    H38   92  -0.375   0.036  -0.005
    1UNL    H39   93  -0.247   0.338   0.126
    1UNL    H40   94  -0.473   0.508  -0.029
    1UNL    H41   95  -0.318   0.474  -0.108
    1UNL    H42   96  -0.318   0.560   0.043
    1UNL    H43   97  -0.414   0.449   0.266
    1UNL    H44   98  -0.626   0.309   0.114
    1UNL    H45   99  -0.332   0.238   0.326
    1UNL    H46  100  -0.605   0.296   0.356
    1UNL    H47  101  -0.438   0.015   0.244
    1UNL    H48  102  -0.704  -0.048   0.100
    1UNL    H49  103  -0.463  -0.230  -0.095
    1UNL    H50  104  -0.526  -0.343   0.130
    1UNL    H51  105  -0.579  -0.418  -0.020
    1UNL    H52  106  -0.791  -0.280   0.059
    1UNL    H53  107  -0.641  -0.250  -0.226
    1UNL    H54  108  -0.824  -0.092  -0.131
    1UNL    H55  109  -0.507  -0.026  -0.241
    1UNL    H56  110  -0.768   0.070  -0.281
    1UNL    H57  111  -0.584   0.152  -0.090
    1UNL    H58  112  -0.801   0.180  -0.033
   0.00000   0.00000   0.00000   0.00000   0.00000   0.00000   0.00000   0.00000   0.00000
Generated with MDTraj, t= 25.0
 112
    1UNL     C1    1  -0.083  -0.279  -0.307
    1UNL     C2    2  -0.024  -0.191  -0.201
    1UNL     C3    3   0.040  -0.083  -0.243
    1UNL     C4    4   0.068   0.034  -0.155
    1UNL     O1    5   0.159   0.011  -0.047
    1UNL     C5    6   0.281   0.085  -0.040
    1UNL     O2    7   0.335   0.110  -0.170
    1UNL     C6    8   0.368  -0.017  -0.239
    1UNL     C7    9   0.411   0.020  -0.386
    1UNL     C8   10   0.473  -0.099  -0.166
    1UNL     O3   11   0.498  -0.234  -0.211
    1UNL     C9   12   0.430  -0.128  -0.013
    1UNL     O4   13   0.329  -0.214  -0.005
    1UNL    C10   14   0.386   0.011   0.052
    1UNL     O5   15   0.502   0.096   0.083
    1UNL    C11   16   0.603   0.046   0.170
    1UNL     O6   17   0.672  -0.070   0.114
    1UNL    C12   18   0.780  -0.034   0.026
    1UNL    C13   19   0.844  -0.165  -0.016
    1UNL     O7   20   0.918  -0.217   0.096
    1UNL    C14   21   0.884   0.070   0.089
    1UNL     O8   22   0.956   0.009   0.192
    1UNL    C15   23   0.803   0.195   0.138
    1UNL     O9   24   0.749   0.266   0.025
    1UNL    C16   25   0.695   0.153   0.235
    1UNL    O10   26   0.619   0.271   0.266
    1UNL    C17   27  -0.065  -0.217  -0.063
    1UNL    C18   28  -0.197  -0.140  -0.033
    1UNL    C19   29  -0.242  -0.179   0.104
    1UNL    C20   30  -0.236  -0.096   0.205
    1UNL    C21   31  -0.293  -0.144   0.338
    1UNL    C22   32  -0.167   0.037   0.196
    1UNL    O11   33  -0.203   0.139   0.098
    1UNL    C23   34  -0.346   0.142   0.066
    1UNL    O12   35  -0.382   0.266  -0.001
    1UNL    C24   36  -0.357   0.377   0.090
    1UNL    C25   37  -0.373   0.496   0.003
    1UNL    C26   38  -0.459   0.371   0.205
    1UNL    O13   39  -0.586   0.378   0.148
    1UNL    C27   40  -0.436   0.240   0.279
    1UNL    O14   41  -0.539   0.227   0.380
    1UNL    C28   42  -0.445   0.120   0.185
    1UNL    O15   43  -0.590   0.095   0.160
    1UNL    C29   44  -0.605  -0.010   0.060
    1UNL    O16   45  -0.495  -0.107   0.045
    1UNL    C30   46  -0.537  -0.226  -0.022
    1UNL    C31   47  -0.599  -0.337   0.061
    1UNL    O17   48  -0.702  -0.293   0.140
    1UNL    C32   49  -0.630  -0.183  -0.149
    1UNL    O18   50  -0.767  -0.198  -0.112
    1UNL    C33   51  -0.596  -0.039  -0.192
    1UNL    O19   52  -0.647  -0.004  -0.316
    1UNL    C34   53  -0.648   0.058  -0.078
    1UNL    O20   54  -0.785   0.088  -0.079
    1UNL     H1   55  -0.023  -0.269  -0.405
    1UNL     H2   56  -0.079  -0.382  -0.283
    1UNL     H3   57  -0.189  -0.248  -0.335
    1UNL     H4   58   0.049  -0.065  -0.343
    1UNL     H5   59  -0.025   0.075  -0.119
    1UNL     H6   60   0.115   0.114  -0.220
    1UNL     H7   61   0.254   0.184   0.004
    1UNL     H8   62   0.278  -0.076  -0.249
    1UNL     H9   63   0.335   0.064  -0.443
    1UNL    H10   64   0.440  -0.065  -0.451
    1UNL    H11   65   0.495   0.087  -0.382
    1UNL    H12   66   0.577  -0.056  -0.177
    1UNL    H13   67   0.441  -0.303  -0.161
    1UNL    H14   68   0.522  -0.163   0.044
    1UNL    H15   69   0.244  -0.160  -0.013
    1UNL    H16   70   0.345  -0.008   0.153
    1UNL    H17   71   0.549  -0.001   0.259
    1UNL    H18   72   0.730   0.014  -0.062
    1UNL    H19   73   0.771  -0.247  -0.035
    1UNL    H20   74   0.923  -0.150  -0.093
    1UNL    H21   75   0.986  -0.148   0.116
    1UNL    H22   76   0.960   0.093   0.018
    1UNL    H23   77   0.895  -0.044   0.250
    1UNL    H24   78   0.883   0.252   0.188
    1UNL    H25   79   0.655   0.233   0.016
    1UNL    H26   80   0.738   0.112   0.331
    1UNL    H27   81   0.561   0.291   0.189
    1UNL    H28   82  -0.088  -0.324  -0.052
    1UNL    H29   83   0.009  -0.184   0.009
    1UNL    H30   84  -0.177  -0.031  -0.042
    1UNL    H31   85  -0.266  -0.148  -0.117
    1UNL    H32   86  -0.274  -0.276   0.117
    1UNL    H33   87  -0.255  -0.244   0.372
    1UNL    H34   88  -0.273  -0.072   0.412
    1UNL    H35   89  -0.401  -0.160   0.324
    1UNL    H36   90  -0.179   0.090   0.294
    1UNL    H37   91  -0.053   0.027   0.190
    1UNL    H38   92  -0.359   0.058  -0.013
    1UNL    H39   93  -0.246   0.377   0.133
    1UNL    H40   94  -0.454   0.477  -0.068
    1UNL    H41   95  -0.285   0.508  -0.064
    1UNL    H42   96  -0.382   0.584   0.061
    1UNL    H43   97  -0.448   0.459   0.269
    1UNL    H44   98  -0.593   0.321   0.071
    1UNL    H45   99  -0.343   0.252   0.348
    1UNL    H46  100  -0.628   0.220   0.349
    1UNL    H47  101  -0.426   0.026   0.246
    1UNL    H48  102  -0.693  -0.064   0.099
    1UNL    H49  103  -0.436  -0.254  -0.061
    1UNL    H50  104  -0.517  -0.381   0.120
    1UNL    H51  105  -0.640  -0.424   0.000
    1UNL    H52  106  -0.773  -0.264   0.083
    1UNL    H53  107  -0.621  -0.255  -0.227
    1UNL    H54  108  -0.804  -0.107  -0.099
    1UNL    H55  109  -0.487  -0.018  -0.202
    1UNL    H56  110  -0.748  -0.015  -0.302
    1UNL    H57  111  -0.597   0.148  -0.095
    1UNL    H58  112  -0.805   0.167  -0.027
   0.00000   0.00000   0.00000   0.00000   0.00000   0.00000   0.00000   0.00000   0.00000
Generated with MDTraj, t= 26.0
 112
    1UNL     C1    1  -0.088  -0.216  -0.343
    1UNL     C2    2  -0.041  -0.143  -0.226
    1UNL     C3    3   0.023  -0.032  -0.251
    1UNL     C4    4   0.084   0.047  -0.142
    1UNL     O1    5   0.180  -0.026  -0.071
    1UNL     C5    6   0.286   0.060  -0.044
    1UNL     O2    7   0.342   0.098  -0.171
    1UNL     C6    8   0.382  -0.024  -0.239
    1UNL     C7    9   0.441   0.010  -0.380
    1UNL     C8   10   0.477  -0.114  -0.155
    1UNL     O3   11   0.526  -0.230  -0.214
    1UNL     C9   12   0.422  -0.150  -0.009
    1UNL     O4   13   0.311  -0.231  -0.007
    1UNL    C10   14   0.388  -0.007   0.052
    1UNL     O5   15   0.504   0.069   0.070
    1UNL    C11   16   0.589   0.026   0.182
    1UNL     O6   17   0.686  -0.082   0.146
    1UNL    C12   18   0.776  -0.042   0.045
    1UNL    C13   19   0.848  -0.154  -0.023
    1UNL     O7   20   0.935  -0.222   0.061
    1UNL    C14   21   0.869   0.070   0.093
    1UNL     O8   22   0.941   0.025   0.205
    1UNL    C15   23   0.770   0.195   0.124
    1UNL     O9   24   0.705   0.254   0.008
    1UNL    C16   25   0.667   0.153   0.235
    1UNL    O10   26   0.582   0.272   0.265
    1UNL    C17   27  -0.057  -0.192  -0.084
    1UNL    C18   28  -0.181  -0.130  -0.029
    1UNL    C19   29  -0.218  -0.167   0.114
    1UNL    C20   30  -0.223  -0.086   0.217
    1UNL    C21   31  -0.251  -0.145   0.350
    1UNL    C22   32  -0.178   0.059   0.202
    1UNL    O11   33  -0.220   0.126   0.087
    1UNL    C23   34  -0.357   0.143   0.074
    1UNL    O12   35  -0.390   0.264   0.006
    1UNL    C24   36  -0.367   0.380   0.080
    1UNL    C25   37  -0.374   0.503  -0.009
    1UNL    C26   38  -0.469   0.375   0.204
    1UNL    O13   39  -0.603   0.375   0.159
    1UNL    C27   40  -0.438   0.246   0.289
    1UNL    O14   41  -0.531   0.237   0.394
    1UNL    C28   42  -0.441   0.120   0.199
    1UNL    O15   43  -0.576   0.104   0.148
    1UNL    C29   44  -0.594  -0.006   0.065
    1UNL    O16   45  -0.490  -0.103   0.064
    1UNL    C30   46  -0.533  -0.225  -0.004
    1UNL    C31   47  -0.612  -0.320   0.091
    1UNL    O17   48  -0.734  -0.266   0.123
    1UNL    C32   49  -0.613  -0.193  -0.137
    1UNL    O18   50  -0.751  -0.213  -0.124
    1UNL    C33   51  -0.581  -0.055  -0.191
    1UNL    O19   52  -0.658  -0.049  -0.308
    1UNL    C34   53  -0.626   0.048  -0.080
    1UNL    O20   54  -0.767   0.081  -0.093
    1UNL     H1   55   0.001  -0.244  -0.412
    1UNL     H2   56  -0.138  -0.307  -0.320
    1UNL     H3   57  -0.154  -0.154  -0.409
    1UNL     H4   58   0.053  -0.003  -0.356
    1UNL     H5   59   0.007   0.076  -0.073
    1UNL     H6   60   0.132   0.137  -0.189
    1UNL     H7   61   0.245   0.150   0.007
    1UNL     H8   62   0.285  -0.068  -0.258
    1UNL     H9   63   0.382   0.067  -0.445
    1UNL    H10   64   0.460  -0.076  -0.438
    1UNL    H11   65   0.544   0.059  -0.365
    1UNL    H12   66   0.567  -0.045  -0.143
    1UNL    H13   67   0.473  -0.308  -0.181
    1UNL    H14   68   0.496  -0.201   0.063
    1UNL    H15   69   0.242  -0.214  -0.072
    1UNL    H16   70   0.347  -0.020   0.155
    1UNL    H17   71   0.524  -0.018   0.267
    1UNL    H18   72   0.713   0.009  -0.036
    1UNL    H19   73   0.781  -0.235  -0.054
    1UNL    H20   74   0.920  -0.118  -0.101
    1UNL    H21   75   0.976  -0.154   0.119
    1UNL    H22   76   0.935   0.103   0.014
    1UNL    H23   77   0.881   0.032   0.287
    1UNL    H24   78   0.830   0.280   0.158
    1UNL    H25   79   0.624   0.203  -0.009
    1UNL    H26   80   0.704   0.129   0.338
    1UNL    H27   81   0.516   0.285   0.195
    1UNL    H28   82  -0.069  -0.298  -0.077
    1UNL    H29   83   0.032  -0.164  -0.024
    1UNL    H30   84  -0.176  -0.024  -0.041
    1UNL    H31   85  -0.273  -0.145  -0.088
    1UNL    H32   86  -0.221  -0.277   0.135
    1UNL    H33   87  -0.163  -0.188   0.404
    1UNL    H34   88  -0.292  -0.058   0.414
    1UNL    H35   89  -0.317  -0.218   0.337
    1UNL    H36   90  -0.194   0.120   0.293
    1UNL    H37   91  -0.066   0.056   0.197
    1UNL    H38   92  -0.376   0.056  -0.001
    1UNL    H39   93  -0.253   0.381   0.115
    1UNL    H40   94  -0.477   0.526  -0.029
    1UNL    H41   95  -0.334   0.484  -0.112
    1UNL    H42   96  -0.321   0.585   0.040
    1UNL    H43   97  -0.461   0.461   0.267
    1UNL    H44   98  -0.624   0.287   0.114
    1UNL    H45   99  -0.333   0.244   0.336
    1UNL    H46  100  -0.626   0.250   0.363
    1UNL    H47  101  -0.411   0.020   0.240
    1UNL    H48  102  -0.688  -0.047   0.108
    1UNL    H49  103  -0.433  -0.269  -0.030
    1UNL    H50  104  -0.576  -0.334   0.197
    1UNL    H51  105  -0.615  -0.427   0.047
    1UNL    H52  106  -0.787  -0.245   0.041
    1UNL    H53  107  -0.580  -0.262  -0.213
    1UNL    H54  108  -0.796  -0.130  -0.159
    1UNL    H55  109  -0.477  -0.042  -0.226
    1UNL    H56  110  -0.718   0.024  -0.300
    1UNL    H57  111  -0.570   0.137  -0.087
    1UNL    H58  112  -0.787   0.140  -0.019
   0.00000   0.00000   0.00000   0.00000   0.00000   0.00000   0.00000   0.00000   0.00000
Generated with MDTraj, t= 27.0
 112
    1UNL     C1    1  -0.084  -0.165  -0.373
    1UNL     C2    2  -0.030  -0.100  -0.245
    1UNL     C3    3   0.034   0.017  -0.254
    1UNL     C4    4   0.104   0.090  -0.143
    1UNL     O1    5   0.163   0.003  -0.051
    1UNL     C5    6   0.301   0.040  -0.050
    1UNL     O2    7   0.372   0.063  -0.177
    1UNL     C6    8   0.405  -0.054  -0.247
    1UNL     C7    9   0.464  -0.027  -0.385
    1UNL     C8   10   0.509  -0.130  -0.165
    1UNL     O3   11   0.521  -0.251  -0.237
    1UNL     C9   12   0.457  -0.162  -0.023
    1UNL     O4   13   0.368  -0.265  -0.041
    1UNL    C10   14   0.395  -0.035   0.039
    1UNL     O5   15   0.488   0.057   0.081
    1UNL    C11   16   0.576   0.023   0.188
    1UNL     O6   17   0.667  -0.081   0.152
    1UNL    C12   18   0.752  -0.040   0.046
    1UNL    C13   19   0.842  -0.144  -0.026
    1UNL     O7   20   0.934  -0.209   0.065
    1UNL    C14   21   0.842   0.082   0.086
    1UNL     O8   22   0.914   0.032   0.198
    1UNL    C15   23   0.744   0.200   0.134
    1UNL     O9   24   0.677   0.258   0.029
    1UNL    C16   25   0.645   0.150   0.245
    1UNL    O10   26   0.543   0.251   0.268
    1UNL    C17   27  -0.060  -0.168  -0.110
    1UNL    C18   28  -0.169  -0.103  -0.028
    1UNL    C19   29  -0.193  -0.159   0.110
    1UNL    C20   30  -0.194  -0.084   0.221
    1UNL    C21   31  -0.187  -0.156   0.348
    1UNL    C22   32  -0.157   0.066   0.221
    1UNL    O11   33  -0.218   0.150   0.116
    1UNL    C23   34  -0.360   0.137   0.077
    1UNL    O12   35  -0.401   0.244  -0.004
    1UNL    C24   36  -0.382   0.367   0.063
    1UNL    C25   37  -0.410   0.485  -0.024
    1UNL    C26   38  -0.464   0.377   0.196
    1UNL    O13   39  -0.592   0.382   0.165
    1UNL    C27   40  -0.441   0.254   0.287
    1UNL    O14   41  -0.536   0.238   0.392
    1UNL    C28   42  -0.455   0.132   0.194
    1UNL    O15   43  -0.591   0.115   0.147
    1UNL    C29   44  -0.608  -0.000   0.068
    1UNL    O16   45  -0.522  -0.105   0.084
    1UNL    C30   46  -0.556  -0.230   0.022
    1UNL    C31   47  -0.635  -0.313   0.120
    1UNL    O17   48  -0.755  -0.249   0.152
    1UNL    C32   49  -0.610  -0.208  -0.124
    1UNL    O18   50  -0.753  -0.214  -0.134
    1UNL    C33   51  -0.563  -0.067  -0.171
    1UNL    O19   52  -0.604  -0.049  -0.305
    1UNL    C34   53  -0.632   0.039  -0.077
    1UNL    O20   54  -0.771   0.065  -0.111
    1UNL     H1   55  -0.013  -0.234  -0.421
    1UNL     H2   56  -0.178  -0.221  -0.346
    1UNL     H3   57  -0.108  -0.089  -0.446
    1UNL     H4   58   0.056   0.047  -0.351
    1UNL     H5   59   0.037   0.146  -0.083
    1UNL     H6   60   0.183   0.158  -0.183
    1UNL     H7   61   0.295   0.142  -0.008
    1UNL     H8   62   0.310  -0.108  -0.262
    1UNL     H9   63   0.391   0.021  -0.448
    1UNL    H10   64   0.482  -0.113  -0.437
    1UNL    H11   65   0.563   0.030  -0.378
    1UNL    H12   66   0.610  -0.081  -0.170
    1UNL    H13   67   0.477  -0.322  -0.195
    1UNL    H14   68   0.536  -0.201   0.049
    1UNL    H15   69   0.286  -0.244  -0.094
    1UNL    H16   70   0.338  -0.074   0.128
    1UNL    H17   71   0.511  -0.023   0.274
    1UNL    H18   72   0.682  -0.000  -0.033
    1UNL    H19   73   0.778  -0.228  -0.052
    1UNL    H20   74   0.907  -0.106  -0.107
    1UNL    H21   75   0.949  -0.148   0.139
    1UNL    H22   76   0.920   0.111   0.013
    1UNL    H23   77   0.860  -0.028   0.255
    1UNL    H24   78   0.810   0.268   0.183
    1UNL    H25   79   0.607   0.197  -0.010
    1UNL    H26   80   0.694   0.127   0.340
    1UNL    H27   81   0.486   0.249   0.187
    1UNL    H28   82  -0.078  -0.271  -0.125
    1UNL    H29   83   0.031  -0.171  -0.045
    1UNL    H30   84  -0.162  -0.001  -0.009
    1UNL    H31   85  -0.261  -0.108  -0.089
    1UNL    H32   86  -0.193  -0.267   0.118
    1UNL    H33   87  -0.088  -0.176   0.386
    1UNL    H34   88  -0.233  -0.084   0.426
    1UNL    H35   89  -0.241  -0.254   0.347
    1UNL    H36   90  -0.173   0.109   0.322
    1UNL    H37   91  -0.046   0.070   0.214
    1UNL    H38   92  -0.368   0.038   0.018
    1UNL    H39   93  -0.264   0.363   0.089
    1UNL    H40   94  -0.510   0.484  -0.061
    1UNL    H41   95  -0.354   0.475  -0.118
    1UNL    H42   96  -0.384   0.581   0.026
    1UNL    H43   97  -0.441   0.467   0.251
    1UNL    H44   98  -0.619   0.298   0.127
    1UNL    H45   99  -0.336   0.252   0.335
    1UNL    H46  100  -0.616   0.287   0.361
    1UNL    H47  101  -0.429   0.043   0.263
    1UNL    H48  102  -0.708  -0.031   0.105
    1UNL    H49  103  -0.453  -0.274   0.026
    1UNL    H50  104  -0.580  -0.337   0.213
    1UNL    H51  105  -0.671  -0.416   0.083
    1UNL    H52  106  -0.813  -0.243   0.067
    1UNL    H53  107  -0.566  -0.288  -0.185
    1UNL    H54  108  -0.791  -0.128  -0.121
    1UNL    H55  109  -0.453  -0.058  -0.174
    1UNL    H56  110  -0.705  -0.057  -0.313
    1UNL    H57  111  -0.582   0.132  -0.093
    1UNL    H58  112  -0.804   0.138  -0.052
   0.00000   0.00000   0.00000   0.00000   0.00000   0.00000   0.00000   0.00000   0.00000
Generated with MDTraj, t= 28.0
 112
    1UNL     C1    1  -0.105  -0.126  -0.392
    1UNL     C2    2  -0.035  -0.072  -0.268
    1UNL     C3    3   0.028   0.043  -0.274
    1UNL     C4    4   0.106   0.104  -0.162
    1UNL     O1    5   0.178   0.009  -0.077
    1UNL     C5    6   0.319   0.047  -0.073
    1UNL     O2    7   0.380   0.056  -0.201
    1UNL     C6    8   0.404  -0.074  -0.267
    1UNL     C7    9   0.437  -0.071  -0.417
    1UNL     C8   10   0.514  -0.146  -0.183
    1UNL     O3   11   0.536  -0.273  -0.245
    1UNL     C9   12   0.466  -0.167  -0.034
    1UNL     O4   13   0.363  -0.264  -0.039
    1UNL    C10   14   0.413  -0.034   0.024
    1UNL     O5   15   0.506   0.058   0.071
    1UNL    C11   16   0.572   0.011   0.189
    1UNL     O6   17   0.669  -0.084   0.149
    1UNL    C12   18   0.755  -0.029   0.059
    1UNL    C13   19   0.838  -0.132  -0.017
    1UNL     O7   20   0.926  -0.198   0.076
    1UNL    C14   21   0.836   0.093   0.114
    1UNL     O8   22   0.926   0.047   0.206
    1UNL    C15   23   0.737   0.200   0.170
    1UNL     O9   24   0.673   0.264   0.066
    1UNL    C16   25   0.640   0.127   0.268
    1UNL    O10   26   0.535   0.210   0.310
    1UNL    C17   27  -0.054  -0.151  -0.147
    1UNL    C18   28  -0.155  -0.083  -0.050
    1UNL    C19   29  -0.159  -0.142   0.087
    1UNL    C20   30  -0.173  -0.083   0.204
    1UNL    C21   31  -0.182  -0.177   0.322
    1UNL    C22   32  -0.171   0.061   0.221
    1UNL    O11   33  -0.228   0.158   0.124
    1UNL    C23   34  -0.365   0.137   0.089
    1UNL    O12   35  -0.412   0.233  -0.007
    1UNL    C24   36  -0.394   0.367   0.046
    1UNL    C25   37  -0.432   0.469  -0.056
    1UNL    C26   38  -0.477   0.383   0.178
    1UNL    O13   39  -0.609   0.378   0.141
    1UNL    C27   40  -0.448   0.266   0.285
    1UNL    O14   41  -0.530   0.273   0.398
    1UNL    C28   42  -0.454   0.127   0.212
    1UNL    O15   43  -0.591   0.114   0.176
    1UNL    C29   44  -0.609  -0.010   0.096
    1UNL    O16   45  -0.520  -0.122   0.110
    1UNL    C30   46  -0.568  -0.243   0.043
    1UNL    C31   47  -0.666  -0.309   0.142
    1UNL    O17   48  -0.786  -0.241   0.144
    1UNL    C32   49  -0.609  -0.216  -0.099
    1UNL    O18   50  -0.749  -0.210  -0.122
    1UNL    C33   51  -0.550  -0.085  -0.148
    1UNL    O19   52  -0.582  -0.051  -0.278
    1UNL    C34   53  -0.611   0.032  -0.058
    1UNL    O20   54  -0.737   0.066  -0.108
    1UNL     H1   55  -0.057  -0.209  -0.434
    1UNL     H2   56  -0.212  -0.158  -0.356
    1UNL     H3   57  -0.115  -0.052  -0.467
    1UNL     H4   58   0.031   0.084  -0.375
    1UNL     H5   59   0.044   0.158  -0.096
    1UNL     H6   60   0.186   0.168  -0.200
    1UNL     H7   61   0.316   0.152  -0.044
    1UNL     H8   62   0.309  -0.131  -0.259
    1UNL     H9   63   0.345  -0.028  -0.461
    1UNL    H10   64   0.433  -0.167  -0.465
    1UNL    H11   65   0.528  -0.019  -0.442
    1UNL    H12   66   0.613  -0.094  -0.191
    1UNL    H13   67   0.457  -0.334  -0.235
    1UNL    H14   68   0.550  -0.190   0.034
    1UNL    H15   69   0.284  -0.219  -0.084
    1UNL    H16   70   0.358  -0.063   0.118
    1UNL    H17   71   0.492  -0.039   0.260
    1UNL    H18   72   0.692   0.018  -0.024
    1UNL    H19   73   0.780  -0.214  -0.058
    1UNL    H20   74   0.900  -0.081  -0.091
    1UNL    H21   75   0.952  -0.135   0.149
    1UNL    H22   76   0.885   0.145   0.026
    1UNL    H23   77   0.898   0.063   0.294
    1UNL    H24   78   0.788   0.281   0.219
    1UNL    H25   79   0.608   0.206   0.024
    1UNL    H26   80   0.698   0.093   0.352
    1UNL    H27   81   0.488   0.232   0.227
    1UNL    H28   82  -0.087  -0.249  -0.163
    1UNL    H29   83   0.041  -0.173  -0.091
    1UNL    H30   84  -0.119   0.016  -0.043
    1UNL    H31   85  -0.259  -0.078  -0.088
    1UNL    H32   86  -0.156  -0.246   0.089
    1UNL    H33   87  -0.092  -0.229   0.348
    1UNL    H34   88  -0.216  -0.123   0.414
    1UNL    H35   89  -0.265  -0.263   0.293
    1UNL    H36   90  -0.212   0.087   0.320
    1UNL    H37   91  -0.068   0.099   0.232
    1UNL    H38   92  -0.371   0.035   0.037
    1UNL    H39   93  -0.275   0.366   0.071
    1UNL    H40   94  -0.524   0.446  -0.107
    1UNL    H41   95  -0.367   0.469  -0.142
    1UNL    H42   96  -0.438   0.571  -0.012
    1UNL    H43   97  -0.453   0.481   0.220
    1UNL    H44   98  -0.631   0.284   0.121
    1UNL    H45   99  -0.343   0.288   0.331
    1UNL    H46  100  -0.617   0.273   0.358
    1UNL    H47  101  -0.432   0.047   0.294
    1UNL    H48  102  -0.704  -0.043   0.143
    1UNL    H49  103  -0.487  -0.317   0.036
    1UNL    H50  104  -0.633  -0.299   0.245
    1UNL    H51  105  -0.683  -0.421   0.133
    1UNL    H52  106  -0.825  -0.249   0.058
    1UNL    H53  107  -0.568  -0.293  -0.171
    1UNL    H54  108  -0.776  -0.115  -0.121
    1UNL    H55  109  -0.438  -0.082  -0.150
    1UNL    H56  110  -0.673  -0.004  -0.276
    1UNL    H57  111  -0.551   0.119  -0.077
    1UNL    H58  112  -0.784   0.140  -0.060
   0.00000   0.00000   0.00000   0.00000   0.00000   0.00000   0.00000   0.00000   0.00000
Generated with MDTraj, t= 29.0
 112
    1UNL     C1    1  -0.123  -0.096  -0.404
    1UNL     C2    2  -0.050  -0.048  -0.293
    1UNL     C3    3   0.037   0.048  -0.313
    1UNL     C4    4   0.121   0.111  -0.213
    1UNL     O1    5   0.191   0.022  -0.125
    1UNL     C5    6   0.326   0.070  -0.109
    1UNL     O2    7   0.386   0.059  -0.235
    1UNL     C6    8   0.392  -0.083  -0.281
    1UNL     C7    9   0.429  -0.082  -0.429
    1UNL     C8   10   0.499  -0.155  -0.179
    1UNL     O3   11   0.562  -0.276  -0.223
    1UNL     C9   12   0.436  -0.157  -0.035
    1UNL     O4   13   0.329  -0.247  -0.007
    1UNL    C10   14   0.399  -0.011   0.007
    1UNL     O5   15   0.506   0.068   0.058
    1UNL    C11   16   0.573   0.000   0.167
    1UNL     O6   17   0.674  -0.088   0.116
    1UNL    C12   18   0.774  -0.018   0.046
    1UNL    C13   19   0.876  -0.118  -0.009
    1UNL     O7   20   0.944  -0.185   0.098
    1UNL    C14   21   0.848   0.091   0.141
    1UNL     O8   22   0.945   0.037   0.230
    1UNL    C15   23   0.743   0.183   0.211
    1UNL     O9   24   0.676   0.273   0.120
    1UNL    C16   25   0.634   0.093   0.275
    1UNL    O10   26   0.538   0.175   0.334
    1UNL    C17   27  -0.058  -0.122  -0.162
    1UNL    C18   28  -0.123  -0.044  -0.048
    1UNL    C19   29  -0.163  -0.134   0.060
    1UNL    C20   30  -0.179  -0.093   0.187
    1UNL    C21   31  -0.233  -0.189   0.291
    1UNL    C22   32  -0.164   0.054   0.225
    1UNL    O11   33  -0.213   0.139   0.124
    1UNL    C23   34  -0.353   0.126   0.104
    1UNL    O12   35  -0.407   0.210  -0.003
    1UNL    C24   36  -0.399   0.353   0.036
    1UNL    C25   37  -0.431   0.444  -0.083
    1UNL    C26   38  -0.488   0.382   0.160
    1UNL    O13   39  -0.624   0.358   0.121
    1UNL    C27   40  -0.452   0.284   0.278
    1UNL    O14   41  -0.533   0.301   0.388
    1UNL    C28   42  -0.444   0.139   0.229
    1UNL    O15   43  -0.580   0.112   0.187
    1UNL    C29   44  -0.605  -0.006   0.112
    1UNL    O16   45  -0.527  -0.115   0.145
    1UNL    C30   46  -0.570  -0.237   0.076
    1UNL    C31   47  -0.685  -0.311   0.153
    1UNL    O17   48  -0.801  -0.232   0.147
    1UNL    C32   49  -0.599  -0.220  -0.073
    1UNL    O18   50  -0.740  -0.223  -0.105
    1UNL    C33   51  -0.549  -0.086  -0.125
    1UNL    O19   52  -0.583  -0.064  -0.254
    1UNL    C34   53  -0.617   0.025  -0.046
    1UNL    O20   54  -0.750   0.051  -0.094
    1UNL     H1   55  -0.081  -0.181  -0.451
    1UNL     H2   56  -0.227  -0.120  -0.370
    1UNL     H3   57  -0.131  -0.021  -0.480
    1UNL     H4   58   0.041   0.083  -0.417
    1UNL     H5   59   0.058   0.170  -0.151
    1UNL     H6   60   0.194   0.173  -0.268
    1UNL     H7   61   0.318   0.176  -0.087
    1UNL     H8   62   0.288  -0.122  -0.270
    1UNL     H9   63   0.341  -0.043  -0.483
    1UNL    H10   64   0.431  -0.184  -0.474
    1UNL    H11   65   0.515  -0.031  -0.444
    1UNL    H12   66   0.584  -0.084  -0.167
    1UNL    H13   67   0.499  -0.357  -0.217
    1UNL    H14   68   0.514  -0.194   0.032
    1UNL    H15   69   0.249  -0.254  -0.069
    1UNL    H16   70   0.322  -0.027   0.087
    1UNL    H17   71   0.483  -0.055   0.220
    1UNL    H18   72   0.721   0.026  -0.047
    1UNL    H19   73   0.819  -0.195  -0.060
    1UNL    H20   74   0.951  -0.073  -0.073
    1UNL    H21   75   1.017  -0.130   0.130
    1UNL    H22   76   0.908   0.153   0.066
    1UNL    H23   77   0.909  -0.015   0.303
    1UNL    H24   78   0.787   0.247   0.286
    1UNL    H25   79   0.620   0.223   0.055
    1UNL    H26   80   0.681   0.035   0.352
    1UNL    H27   81   0.519   0.247   0.272
    1UNL    H28   82  -0.115  -0.209  -0.179
    1UNL    H29   83   0.039  -0.166  -0.126
    1UNL    H30   84  -0.049   0.024  -0.008
    1UNL    H31   85  -0.214   0.007  -0.084
    1UNL    H32   86  -0.192  -0.241   0.033
    1UNL    H33   87  -0.166  -0.282   0.306
    1UNL    H34   88  -0.245  -0.144   0.393
    1UNL    H35   89  -0.326  -0.224   0.259
    1UNL    H36   90  -0.217   0.084   0.315
    1UNL    H37   91  -0.062   0.079   0.245
    1UNL    H38   92  -0.363   0.020   0.060
    1UNL    H39   93  -0.283   0.366   0.070
    1UNL    H40   94  -0.540   0.453  -0.100
    1UNL    H41   95  -0.398   0.405  -0.177
    1UNL    H42   96  -0.391   0.544  -0.061
    1UNL    H43   97  -0.475   0.487   0.195
    1UNL    H44   98  -0.632   0.261   0.097
    1UNL    H45   99  -0.344   0.303   0.313
    1UNL    H46  100  -0.618   0.254   0.381
    1UNL    H47  101  -0.410   0.056   0.303
    1UNL    H48  102  -0.706  -0.028   0.147
    1UNL    H49  103  -0.486  -0.306   0.088
    1UNL    H50  104  -0.658  -0.339   0.252
    1UNL    H51  105  -0.713  -0.408   0.107
    1UNL    H52  106  -0.855  -0.262   0.063
    1UNL    H53  107  -0.550  -0.304  -0.131
    1UNL    H54  108  -0.774  -0.129  -0.104
    1UNL    H55  109  -0.437  -0.080  -0.116
    1UNL    H56  110  -0.670  -0.027  -0.254
    1UNL    H57  111  -0.561   0.112  -0.066
    1UNL    H58  112  -0.774   0.141  -0.066
   0.00000   0.00000   0.00000   0.00000   0.00000   0.00000   0.00000   0.00000   0.00000
Generated with MDTraj, t= 30.0
 112
    1UNL     C1    1  -0.153  -0.074  -0.403
    1UNL     C2    2  -0.045  -0.041  -0.308
    1UNL     C3    3   0.033   0.063  -0.335
    1UNL     C4    4   0.133   0.128  -0.238
    1UNL     O1    5   0.202   0.043  -0.151
    1UNL     C5    6   0.337   0.084  -0.128
    1UNL     O2    7   0.425   0.065  -0.237
    1UNL     C6    8   0.421  -0.071  -0.283
    1UNL     C7    9   0.491  -0.077  -0.414
    1UNL     C8   10   0.501  -0.159  -0.173
    1UNL     O3   11   0.510  -0.296  -0.203
    1UNL     C9   12   0.422  -0.151  -0.040
    1UNL     O4   13   0.303  -0.223  -0.047
    1UNL    C10   14   0.384  -0.001  -0.002
    1UNL     O5   15   0.497   0.063   0.066
    1UNL    C11   16   0.572  -0.015   0.159
    1UNL     O6   17   0.689  -0.088   0.107
    1UNL    C12   18   0.792  -0.004   0.051
    1UNL    C13   19   0.899  -0.090  -0.020
    1UNL     O7   20   0.966  -0.179   0.061
    1UNL    C14   21   0.853   0.077   0.170
    1UNL     O8   22   0.909  -0.003   0.277
    1UNL    C15   23   0.739   0.172   0.224
    1UNL     O9   24   0.683   0.270   0.129
    1UNL    C16   25   0.622   0.082   0.274
    1UNL    O10   26   0.520   0.164   0.320
    1UNL    C17   27  -0.039  -0.116  -0.177
    1UNL    C18   28  -0.093  -0.035  -0.055
    1UNL    C19   29  -0.165  -0.121   0.041
    1UNL    C20   30  -0.195  -0.091   0.168
    1UNL    C21   31  -0.266  -0.185   0.255
    1UNL    C22   32  -0.164   0.048   0.228
    1UNL    O11   33  -0.225   0.143   0.148
    1UNL    C23   34  -0.363   0.116   0.116
    1UNL    O12   35  -0.408   0.196   0.002
    1UNL    C24   36  -0.387   0.332   0.032
    1UNL    C25   37  -0.419   0.413  -0.094
    1UNL    C26   38  -0.467   0.380   0.147
    1UNL    O13   39  -0.602   0.389   0.116
    1UNL    C27   40  -0.451   0.293   0.269
    1UNL    O14   41  -0.544   0.327   0.369
    1UNL    C28   42  -0.466   0.146   0.229
    1UNL    O15   43  -0.599   0.117   0.183
    1UNL    C29   44  -0.612  -0.009   0.127
    1UNL    O16   45  -0.523  -0.118   0.146
    1UNL    C30   46  -0.572  -0.247   0.090
    1UNL    C31   47  -0.684  -0.307   0.180
    1UNL    O17   48  -0.792  -0.221   0.178
    1UNL    C32   49  -0.600  -0.239  -0.060
    1UNL    O18   50  -0.739  -0.253  -0.088
    1UNL    C33   51  -0.551  -0.091  -0.105
    1UNL    O19   52  -0.558  -0.077  -0.247
    1UNL    C34   53  -0.635   0.015  -0.026
    1UNL    O20   54  -0.776   0.018  -0.068
    1UNL     H1   55  -0.130  -0.153  -0.476
    1UNL     H2   56  -0.233  -0.107  -0.350
    1UNL     H3   57  -0.186   0.011  -0.463
    1UNL     H4   58   0.009   0.109  -0.426
    1UNL     H5   59   0.083   0.212  -0.193
    1UNL     H6   60   0.207   0.171  -0.305
    1UNL     H7   61   0.342   0.188  -0.094
    1UNL     H8   62   0.312  -0.094  -0.288
    1UNL     H9   63   0.423  -0.047  -0.492
    1UNL    H10   64   0.506  -0.184  -0.440
    1UNL    H11   65   0.584  -0.025  -0.409
    1UNL    H12   66   0.602  -0.121  -0.149
    1UNL    H13   67   0.437  -0.341  -0.165
    1UNL    H14   68   0.483  -0.194   0.037
    1UNL    H15   69   0.250  -0.157  -0.093
    1UNL    H16   70   0.306  -0.003   0.075
    1UNL    H17   71   0.491  -0.090   0.199
    1UNL    H18   72   0.733   0.064  -0.024
    1UNL    H19   73   0.858  -0.157  -0.096
    1UNL    H20   74   0.971  -0.018  -0.059
    1UNL    H21   75   0.965  -0.135   0.150
    1UNL    H22   76   0.941   0.145   0.135
    1UNL    H23   77   0.845  -0.075   0.308
    1UNL    H24   78   0.783   0.229   0.307
    1UNL    H25   79   0.613   0.216   0.086
    1UNL    H26   80   0.658   0.015   0.351
    1UNL    H27   81   0.465   0.200   0.248
    1UNL    H28   82  -0.085  -0.210  -0.185
    1UNL    H29   83   0.068  -0.140  -0.171
    1UNL    H30   84  -0.013   0.017   0.003
    1UNL    H31   85  -0.170   0.033  -0.093
    1UNL    H32   86  -0.201  -0.212   0.011
    1UNL    H33   87  -0.295  -0.279   0.195
    1UNL    H34   88  -0.209  -0.222   0.344
    1UNL    H35   89  -0.357  -0.142   0.286
    1UNL    H36   90  -0.208   0.050   0.326
    1UNL    H37   91  -0.060   0.068   0.233
    1UNL    H38   92  -0.374   0.012   0.074
    1UNL    H39   93  -0.271   0.351   0.064
    1UNL    H40   94  -0.507   0.370  -0.147
    1UNL    H41   95  -0.338   0.401  -0.164
    1UNL    H42   96  -0.433   0.515  -0.062
    1UNL    H43   97  -0.437   0.486   0.175
    1UNL    H44   98  -0.625   0.298   0.096
    1UNL    H45   99  -0.353   0.314   0.325
    1UNL    H46  100  -0.640   0.329   0.346
    1UNL    H47  101  -0.449   0.082   0.323
    1UNL    H48  102  -0.712  -0.042   0.159
    1UNL    H49  103  -0.483  -0.310   0.101
    1UNL    H50  104  -0.652  -0.313   0.279
    1UNL    H51  105  -0.711  -0.407   0.145
    1UNL    H52  106  -0.840  -0.237   0.096
    1UNL    H53  107  -0.551  -0.321  -0.123
    1UNL    H54  108  -0.766  -0.162  -0.089
    1UNL    H55  109  -0.443  -0.083  -0.090
    1UNL    H56  110  -0.649  -0.043  -0.267
    1UNL    H57  111  -0.592   0.109  -0.049
    1UNL    H58  112  -0.815   0.098  -0.030
   0.00000   0.00000   0.00000   0.00000   0.00000   0.00000   0.00000   0.00000   0.00000
Generated with MDTraj, t= 31.0
 112
    1UNL     C1    1  -0.165  -0.021  -0.408
    1UNL     C2    2  -0.048  -0.011  -0.307
    1UNL     C3    3   0.040   0.087  -0.332
    1UNL     C4    4   0.166   0.137  -0.258
    1UNL     O1    5   0.209   0.041  -0.165
    1UNL     C5    6   0.341   0.074  -0.121
    1UNL     O2    7   0.445   0.073  -0.224
    1UNL     C6    8   0.468  -0.062  -0.281
    1UNL     C7    9   0.577  -0.067  -0.389
    1UNL     C8   10   0.501  -0.166  -0.171
    1UNL     O3   11   0.479  -0.293  -0.227
    1UNL     C9   12   0.414  -0.152  -0.045
    1UNL     O4   13   0.296  -0.227  -0.079
    1UNL    C10   14   0.396  -0.005  -0.005
    1UNL     O5   15   0.515   0.054   0.048
    1UNL    C11   16   0.570  -0.021   0.158
    1UNL     O6   17   0.679  -0.098   0.111
    1UNL    C12   18   0.776  -0.006   0.060
    1UNL    C13   19   0.878  -0.079  -0.028
    1UNL     O7   20   0.969  -0.165   0.035
    1UNL    C14   21   0.828   0.066   0.183
    1UNL     O8   22   0.862  -0.028   0.281
    1UNL    C15   23   0.725   0.165   0.234
    1UNL     O9   24   0.695   0.275   0.155
    1UNL    C16   25   0.605   0.081   0.269
    1UNL    O10   26   0.492   0.163   0.299
    1UNL    C17   27  -0.047  -0.100  -0.185
    1UNL    C18   28  -0.108  -0.032  -0.052
    1UNL    C19   29  -0.137  -0.129   0.060
    1UNL    C20   30  -0.181  -0.107   0.184
    1UNL    C21   31  -0.203  -0.222   0.279
    1UNL    C22   32  -0.202   0.027   0.236
    1UNL    O11   33  -0.244   0.125   0.137
    1UNL    C23   34  -0.378   0.120   0.097
    1UNL    O12   35  -0.407   0.199  -0.013
    1UNL    C24   36  -0.379   0.335   0.014
    1UNL    C25   37  -0.394   0.429  -0.105
    1UNL    C26   38  -0.472   0.385   0.130
    1UNL    O13   39  -0.610   0.374   0.088
    1UNL    C27   40  -0.451   0.293   0.254
    1UNL    O14   41  -0.536   0.330   0.354
    1UNL    C28   42  -0.473   0.148   0.213
    1UNL    O15   43  -0.606   0.126   0.180
    1UNL    C29   44  -0.631  -0.003   0.131
    1UNL    O16   45  -0.538  -0.103   0.174
    1UNL    C30   46  -0.569  -0.237   0.120
    1UNL    C31   47  -0.682  -0.299   0.210
    1UNL    O17   48  -0.805  -0.241   0.194
    1UNL    C32   49  -0.585  -0.240  -0.034
    1UNL    O18   50  -0.716  -0.264  -0.067
    1UNL    C33   51  -0.551  -0.100  -0.095
    1UNL    O19   52  -0.593  -0.111  -0.228
    1UNL    C34   53  -0.630   0.012  -0.026
    1UNL    O20   54  -0.767   0.039  -0.066
    1UNL     H1   55  -0.141  -0.083  -0.494
    1UNL     H2   56  -0.250  -0.054  -0.358
    1UNL     H3   57  -0.182   0.078  -0.444
    1UNL     H4   58   0.018   0.136  -0.431
    1UNL     H5   59   0.145   0.233  -0.207
    1UNL     H6   60   0.245   0.169  -0.330
    1UNL     H7   61   0.329   0.176  -0.079
    1UNL     H8   62   0.371  -0.081  -0.332
    1UNL     H9   63   0.545   0.004  -0.459
    1UNL    H10   64   0.574  -0.158  -0.448
    1UNL    H11   65   0.684  -0.052  -0.343
    1UNL    H12   66   0.607  -0.162  -0.145
    1UNL    H13   67   0.406  -0.344  -0.186
    1UNL    H14   68   0.456  -0.212   0.033
    1UNL    H15   69   0.268  -0.183  -0.163
    1UNL    H16   70   0.315  -0.000   0.067
    1UNL    H17   71   0.482  -0.090   0.195
    1UNL    H18   72   0.708   0.065  -0.004
    1UNL    H19   73   0.824  -0.134  -0.104
    1UNL    H20   74   0.945  -0.006  -0.071
    1UNL    H21   75   0.963  -0.152   0.133
    1UNL    H22   76   0.923   0.126   0.157
    1UNL    H23   77   0.777  -0.083   0.281
    1UNL    H24   78   0.767   0.210   0.327
    1UNL    H25   79   0.643   0.246   0.078
    1UNL    H26   80   0.617   0.018   0.358
    1UNL    H27   81   0.462   0.219   0.223
    1UNL    H28   82  -0.100  -0.189  -0.207
    1UNL    H29   83   0.048  -0.137  -0.156
    1UNL    H30   84  -0.025   0.037  -0.019
    1UNL    H31   85  -0.196   0.025  -0.075
    1UNL    H32   86  -0.133  -0.238   0.038
    1UNL    H33   87  -0.206  -0.310   0.217
    1UNL    H34   88  -0.130  -0.240   0.357
    1UNL    H35   89  -0.317  -0.212   0.324
    1UNL    H36   90  -0.263   0.032   0.324
    1UNL    H37   91  -0.105   0.061   0.265
    1UNL    H38   92  -0.403   0.014   0.069
    1UNL    H39   93  -0.261   0.339   0.046
    1UNL    H40   94  -0.502   0.456  -0.117
    1UNL    H41   95  -0.372   0.382  -0.200
    1UNL    H42   96  -0.339   0.518  -0.087
    1UNL    H43   97  -0.453   0.497   0.146
    1UNL    H44   98  -0.631   0.278   0.105
    1UNL    H45   99  -0.344   0.309   0.280
    1UNL    H46  100  -0.622   0.309   0.320
    1UNL    H47  101  -0.447   0.089   0.308
    1UNL    H48  102  -0.727  -0.026   0.181
    1UNL    H49  103  -0.473  -0.286   0.140
    1UNL    H50  104  -0.656  -0.285   0.310
    1UNL    H51  105  -0.692  -0.404   0.184
    1UNL    H52  106  -0.847  -0.261   0.105
    1UNL    H53  107  -0.534  -0.330  -0.079
    1UNL    H54  108  -0.765  -0.173  -0.067
    1UNL    H55  109  -0.446  -0.072  -0.096
    1UNL    H56  110  -0.666  -0.042  -0.236
    1UNL    H57  111  -0.569   0.098  -0.044
    1UNL    H58  112  -0.808   0.118  -0.023
   0.00000   0.00000   0.00000   0.00000   0.00000   0.00000   0.00000   0.00000   0.00000
Generated with MDTraj, t= 32.0
 112
    1UNL     C1    1  -0.194   0.030  -0.371
    1UNL     C2    2  -0.063   0.037  -0.299
    1UNL     C3    3   0.034   0.119  -0.337
    1UNL     C4    4   0.163   0.130  -0.274
    1UNL     O1    5   0.202   0.022  -0.195
    1UNL     C5    6   0.328   0.067  -0.133
    1UNL     O2    7   0.436   0.077  -0.230
    1UNL     C6    8   0.481  -0.046  -0.277
    1UNL     C7    9   0.608  -0.025  -0.367
    1UNL     C8   10   0.516  -0.154  -0.173
    1UNL     O3   11   0.525  -0.279  -0.241
    1UNL     C9   12   0.411  -0.155  -0.055
    1UNL     O4   13   0.296  -0.236  -0.088
    1UNL    C10   14   0.382  -0.012  -0.013
    1UNL     O5   15   0.490   0.055   0.057
    1UNL    C11   16   0.552  -0.028   0.156
    1UNL     O6   17   0.655  -0.106   0.110
    1UNL    C12   18   0.762  -0.022   0.059
    1UNL    C13   19   0.875  -0.096  -0.017
    1UNL     O7   20   0.947  -0.181   0.071
    1UNL    C14   21   0.820   0.062   0.173
    1UNL     O8   22   0.899  -0.006   0.272
    1UNL    C15   23   0.714   0.151   0.240
    1UNL     O9   24   0.666   0.234   0.143
    1UNL    C16   25   0.593   0.060   0.279
    1UNL    O10   26   0.480   0.134   0.327
    1UNL    C17   27  -0.043  -0.060  -0.183
    1UNL    C18   28  -0.128  -0.014  -0.064
    1UNL    C19   29  -0.119  -0.115   0.046
    1UNL    C20   30  -0.146  -0.107   0.178
    1UNL    C21   31  -0.127  -0.224   0.264
    1UNL    C22   32  -0.186   0.023   0.243
    1UNL    O11   33  -0.232   0.122   0.140
    1UNL    C23   34  -0.371   0.115   0.103
    1UNL    O12   35  -0.403   0.198  -0.012
    1UNL    C24   36  -0.380   0.338   0.007
    1UNL    C25   37  -0.380   0.410  -0.123
    1UNL    C26   38  -0.470   0.392   0.114
    1UNL    O13   39  -0.606   0.384   0.079
    1UNL    C27   40  -0.453   0.312   0.246
    1UNL    O14   41  -0.551   0.351   0.342
    1UNL    C28   42  -0.471   0.158   0.218
    1UNL    O15   43  -0.605   0.132   0.171
    1UNL    C29   44  -0.626  -0.002   0.119
    1UNL    O16   45  -0.531  -0.099   0.160
    1UNL    C30   46  -0.574  -0.237   0.137
    1UNL    C31   47  -0.674  -0.292   0.241
    1UNL    O17   48  -0.797  -0.234   0.234
    1UNL    C32   49  -0.612  -0.245  -0.016
    1UNL    O18   50  -0.747  -0.259  -0.041
    1UNL    C33   51  -0.561  -0.121  -0.096
    1UNL    O19   52  -0.581  -0.146  -0.234
    1UNL    C34   53  -0.637  -0.004  -0.043
    1UNL    O20   54  -0.773   0.003  -0.077
    1UNL     H1   55  -0.188  -0.015  -0.463
    1UNL     H2   56  -0.270  -0.026  -0.313
    1UNL     H3   57  -0.232   0.125  -0.387
    1UNL     H4   58   0.010   0.180  -0.416
    1UNL     H5   59   0.181   0.227  -0.221
    1UNL     H6   60   0.247   0.140  -0.347
    1UNL     H7   61   0.313   0.172  -0.100
    1UNL     H8   62   0.399  -0.082  -0.342
    1UNL     H9   63   0.584   0.039  -0.449
    1UNL    H10   64   0.632  -0.116  -0.418
    1UNL    H11   65   0.703   0.005  -0.305
    1UNL    H12   66   0.614  -0.129  -0.133
    1UNL    H13   67   0.513  -0.357  -0.174
    1UNL    H14   68   0.451  -0.202   0.031
    1UNL    H15   69   0.260  -0.189  -0.170
    1UNL    H16   70   0.295  -0.018   0.050
    1UNL    H17   71   0.471  -0.101   0.196
    1UNL    H18   72   0.706   0.049  -0.014
    1UNL    H19   73   0.838  -0.166  -0.089
    1UNL    H20   74   0.940  -0.021  -0.060
    1UNL    H21   75   1.010  -0.136   0.130
    1UNL    H22   76   0.906   0.123   0.127
    1UNL    H23   77   0.856  -0.087   0.290
    1UNL    H24   78   0.755   0.207   0.329
    1UNL    H25   79   0.607   0.188   0.079
    1UNL    H26   80   0.618  -0.011   0.362
    1UNL    H27   81   0.462   0.203   0.261
    1UNL    H28   82  -0.084  -0.157  -0.205
    1UNL    H29   83   0.059  -0.080  -0.160
    1UNL    H30   84  -0.087   0.084  -0.023
    1UNL    H31   85  -0.227   0.001  -0.099
    1UNL    H32   86  -0.094  -0.214   0.007
    1UNL    H33   87  -0.037  -0.275   0.228
    1UNL    H34   88  -0.113  -0.208   0.374
    1UNL    H35   89  -0.209  -0.289   0.244
    1UNL    H36   90  -0.270   0.011   0.308
    1UNL    H37   91  -0.112   0.064   0.306
    1UNL    H38   92  -0.390   0.010   0.079
    1UNL    H39   93  -0.270   0.335   0.059
    1UNL    H40   94  -0.468   0.380  -0.182
    1UNL    H41   95  -0.301   0.371  -0.189
    1UNL    H42   96  -0.379   0.516  -0.118
    1UNL    H43   97  -0.467   0.502   0.147
    1UNL    H44   98  -0.621   0.288   0.071
    1UNL    H45   99  -0.353   0.333   0.289
    1UNL    H46  100  -0.626   0.288   0.324
    1UNL    H47  101  -0.450   0.102   0.314
    1UNL    H48  102  -0.723  -0.040   0.158
    1UNL    H49  103  -0.478  -0.287   0.156
    1UNL    H50  104  -0.638  -0.277   0.339
    1UNL    H51  105  -0.690  -0.399   0.216
    1UNL    H52  106  -0.833  -0.228   0.141
    1UNL    H53  107  -0.568  -0.339  -0.052
    1UNL    H54  108  -0.779  -0.174  -0.063
    1UNL    H55  109  -0.455  -0.106  -0.089
    1UNL    H56  110  -0.674  -0.139  -0.252
    1UNL    H57  111  -0.591   0.083  -0.085
    1UNL    H58  112  -0.817   0.089  -0.053
   0.00000   0.00000   0.00000   0.00000   0.00000   0.00000   0.00000   0.00000   0.00000
Generated with MDTraj, t= 33.0
 112
    1UNL     C1    1  -0.199   0.098  -0.352
    1UNL     C2    2  -0.067   0.059  -0.305
    1UNL     C3    3   0.040   0.128  -0.345
    1UNL     C4    4   0.182   0.125  -0.290
    1UNL     O1    5   0.212   0.033  -0.188
    1UNL     C5    6   0.334   0.067  -0.120
    1UNL     O2    7   0.444   0.085  -0.216
    1UNL     C6    8   0.482  -0.033  -0.281
    1UNL     C7    9   0.587   0.005  -0.391
    1UNL     C8   10   0.534  -0.138  -0.176
    1UNL     O3   11   0.589  -0.248  -0.244
    1UNL     C9   12   0.417  -0.167  -0.074
    1UNL     O4   13   0.305  -0.207  -0.151
    1UNL    C10   14   0.374  -0.034  -0.006
    1UNL     O5   15   0.460   0.038   0.080
    1UNL    C11   16   0.528  -0.054   0.170
    1UNL     O6   17   0.640  -0.119   0.115
    1UNL    C12   18   0.744  -0.033   0.051
    1UNL    C13   19   0.857  -0.128   0.001
    1UNL     O7   20   0.913  -0.201   0.107
    1UNL    C14   21   0.805   0.065   0.155
    1UNL     O8   22   0.892   0.001   0.254
    1UNL    C15   23   0.687   0.145   0.228
    1UNL     O9   24   0.626   0.226   0.135
    1UNL    C16   25   0.580   0.041   0.282
    1UNL    O10   26   0.480   0.111   0.350
    1UNL    C17   27  -0.060  -0.038  -0.193
    1UNL    C18   28  -0.124   0.006  -0.056
    1UNL    C19   29  -0.116  -0.103   0.048
    1UNL    C20   30  -0.130  -0.085   0.180
    1UNL    C21   31  -0.102  -0.199   0.271
    1UNL    C22   32  -0.176   0.042   0.249
    1UNL    O11   33  -0.236   0.139   0.156
    1UNL    C23   34  -0.367   0.110   0.106
    1UNL    O12   35  -0.385   0.182  -0.016
    1UNL    C24   36  -0.359   0.320  -0.002
    1UNL    C25   37  -0.376   0.385  -0.139
    1UNL    C26   38  -0.451   0.382   0.108
    1UNL    O13   39  -0.582   0.381   0.050
    1UNL    C27   40  -0.454   0.298   0.240
    1UNL    O14   41  -0.564   0.351   0.309
    1UNL    C28   42  -0.477   0.149   0.209
    1UNL    O15   43  -0.604   0.124   0.162
    1UNL    C29   44  -0.614  -0.013   0.115
    1UNL    O16   45  -0.527  -0.104   0.176
    1UNL    C30   46  -0.565  -0.243   0.151
    1UNL    C31   47  -0.664  -0.285   0.263
    1UNL    O17   48  -0.786  -0.210   0.255
    1UNL    C32   49  -0.617  -0.262   0.009
    1UNL    O18   50  -0.756  -0.254   0.002
    1UNL    C33   51  -0.562  -0.153  -0.089
    1UNL    O19   52  -0.617  -0.176  -0.223
    1UNL    C34   53  -0.618  -0.014  -0.046
    1UNL    O20   54  -0.750   0.001  -0.108
    1UNL     H1   55  -0.212   0.101  -0.452
    1UNL     H2   56  -0.273   0.021  -0.317
    1UNL     H3   57  -0.231   0.189  -0.316
    1UNL     H4   58   0.015   0.203  -0.427
    1UNL     H5   59   0.214   0.228  -0.254
    1UNL     H6   60   0.254   0.113  -0.373
    1UNL     H7   61   0.337   0.171  -0.082
    1UNL     H8   62   0.394  -0.082  -0.325
    1UNL     H9   63   0.547   0.067  -0.476
    1UNL    H10   64   0.625  -0.080  -0.448
    1UNL    H11   65   0.680   0.046  -0.348
    1UNL    H12   66   0.621  -0.096  -0.126
    1UNL    H13   67   0.523  -0.287  -0.310
    1UNL    H14   68   0.446  -0.248  -0.012
    1UNL    H15   69   0.251  -0.133  -0.173
    1UNL    H16   70   0.289  -0.055   0.059
    1UNL    H17   71   0.457  -0.133   0.213
    1UNL    H18   72   0.700   0.028  -0.036
    1UNL    H19   73   0.810  -0.196  -0.066
    1UNL    H20   74   0.944  -0.078  -0.047
    1UNL    H21   75   0.984  -0.148   0.154
    1UNL    H22   76   0.869   0.144   0.105
    1UNL    H23   77   0.857  -0.085   0.282
    1UNL    H24   78   0.710   0.216   0.314
    1UNL    H25   79   0.568   0.172   0.081
    1UNL    H26   80   0.636  -0.013   0.366
    1UNL    H27   81   0.426   0.147   0.278
    1UNL    H28   82  -0.096  -0.132  -0.227
    1UNL    H29   83   0.045  -0.057  -0.171
    1UNL    H30   84  -0.090   0.107  -0.012
    1UNL    H31   85  -0.227   0.020  -0.073
    1UNL    H32   86  -0.092  -0.199   0.014
    1UNL    H33   87  -0.005  -0.190   0.326
    1UNL    H34   88  -0.176  -0.215   0.352
    1UNL    H35   89  -0.098  -0.284   0.217
    1UNL    H36   90  -0.243   0.013   0.330
    1UNL    H37   91  -0.095   0.091   0.300
    1UNL    H38   92  -0.378   0.001   0.087
    1UNL    H39   93  -0.241   0.327   0.017
    1UNL    H40   94  -0.477   0.371  -0.169
    1UNL    H41   95  -0.322   0.337  -0.221
    1UNL    H42   96  -0.362   0.492  -0.136
    1UNL    H43   97  -0.426   0.490   0.123
    1UNL    H44   98  -0.597   0.285   0.053
    1UNL    H45   99  -0.362   0.309   0.295
    1UNL    H46  100  -0.647   0.314   0.267
    1UNL    H47  101  -0.468   0.082   0.298
    1UNL    H48  102  -0.709  -0.055   0.150
    1UNL    H49  103  -0.471  -0.301   0.163
    1UNL    H50  104  -0.620  -0.263   0.360
    1UNL    H51  105  -0.687  -0.397   0.259
    1UNL    H52  106  -0.833  -0.221   0.171
    1UNL    H53  107  -0.589  -0.359  -0.025
    1UNL    H54  108  -0.776  -0.182  -0.070
    1UNL    H55  109  -0.458  -0.165  -0.099
    1UNL    H56  110  -0.693  -0.114  -0.244
    1UNL    H57  111  -0.558   0.076  -0.067
    1UNL    H58  112  -0.785   0.082  -0.066
   0.00000   0.00000   0.00000   0.00000   0.00000   0.00000   0.00000   0.00000   0.00000
Generated with MDTraj, t= 34.0
 112
    1UNL     C1    1  -0.203   0.116  -0.360
    1UNL     C2    2  -0.074   0.093  -0.290
    1UNL     C3    3   0.028   0.173  -0.329
    1UNL     C4    4   0.174   0.143  -0.294
    1UNL     O1    5   0.200   0.068  -0.177
    1UNL     C5    6   0.332   0.071  -0.122
    1UNL     O2    7   0.441   0.100  -0.212
    1UNL     C6    8   0.479  -0.015  -0.297
    1UNL     C7    9   0.573   0.040  -0.406
    1UNL     C8   10   0.547  -0.125  -0.214
    1UNL     O3   11   0.583  -0.236  -0.285
    1UNL     C9   12   0.450  -0.165  -0.095
    1UNL     O4   13   0.356  -0.257  -0.136
    1UNL    C10   14   0.381  -0.043  -0.028
    1UNL     O5   15   0.471   0.017   0.063
    1UNL    C11   16   0.512  -0.067   0.175
    1UNL     O6   17   0.626  -0.139   0.136
    1UNL    C12   18   0.725  -0.057   0.076
    1UNL    C13   19   0.832  -0.147  -0.006
    1UNL     O7   20   0.914  -0.224   0.077
    1UNL    C14   21   0.776   0.046   0.183
    1UNL     O8   22   0.856  -0.017   0.282
    1UNL    C15   23   0.660   0.137   0.252
    1UNL     O9   24   0.617   0.244   0.168
    1UNL    C16   25   0.547   0.037   0.284
    1UNL    O10   26   0.442   0.113   0.328
    1UNL    C17   27  -0.060  -0.026  -0.199
    1UNL    C18   28  -0.072   0.016  -0.050
    1UNL    C19   29  -0.081  -0.092   0.055
    1UNL    C20   30  -0.115  -0.076   0.183
    1UNL    C21   31  -0.126  -0.191   0.280
    1UNL    C22   32  -0.168   0.051   0.244
    1UNL    O11   33  -0.221   0.150   0.157
    1UNL    C23   34  -0.346   0.115   0.101
    1UNL    O12   35  -0.370   0.184  -0.026
    1UNL    C24   36  -0.362   0.324  -0.014
    1UNL    C25   37  -0.354   0.386  -0.155
    1UNL    C26   38  -0.469   0.379   0.080
    1UNL    O13   39  -0.597   0.354   0.027
    1UNL    C27   40  -0.452   0.309   0.212
    1UNL    O14   41  -0.548   0.354   0.308
    1UNL    C28   42  -0.467   0.156   0.191
    1UNL    O15   43  -0.595   0.127   0.141
    1UNL    C29   44  -0.613  -0.019   0.114
    1UNL    O16   45  -0.529  -0.107   0.185
    1UNL    C30   46  -0.563  -0.247   0.170
    1UNL    C31   47  -0.652  -0.282   0.291
    1UNL    O17   48  -0.775  -0.213   0.287
    1UNL    C32   49  -0.629  -0.281   0.028
    1UNL    O18   50  -0.776  -0.272   0.030
    1UNL    C33   51  -0.570  -0.181  -0.077
    1UNL    O19   52  -0.618  -0.202  -0.209
    1UNL    C34   53  -0.601  -0.034  -0.043
    1UNL    O20   54  -0.713   0.019  -0.114
    1UNL     H1   55  -0.196   0.085  -0.461
    1UNL     H2   56  -0.274   0.055  -0.312
    1UNL     H3   57  -0.229   0.220  -0.363
    1UNL     H4   58   0.009   0.247  -0.401
    1UNL     H5   59   0.225   0.243  -0.298
    1UNL     H6   60   0.217   0.095  -0.382
    1UNL     H7   61   0.335   0.165  -0.065
    1UNL     H8   62   0.388  -0.063  -0.335
    1UNL     H9   63   0.519   0.111  -0.480
    1UNL    H10   64   0.614  -0.034  -0.479
    1UNL    H11   65   0.657   0.083  -0.366
    1UNL    H12   66   0.637  -0.079  -0.167
    1UNL    H13   67   0.504  -0.277  -0.312
    1UNL    H14   68   0.514  -0.219  -0.027
    1UNL    H15   69   0.296  -0.220  -0.202
    1UNL    H16   70   0.290  -0.068   0.028
    1UNL    H17   71   0.436  -0.145   0.207
    1UNL    H18   72   0.686   0.011  -0.006
    1UNL    H19   73   0.785  -0.209  -0.079
    1UNL    H20   74   0.903  -0.078  -0.062
    1UNL    H21   75   0.906  -0.175   0.161
    1UNL    H22   76   0.849   0.115   0.133
    1UNL    H23   77   0.801  -0.028   0.368
    1UNL    H24   78   0.693   0.190   0.346
    1UNL    H25   79   0.583   0.202   0.085
    1UNL    H26   80   0.593  -0.014   0.375
    1UNL    H27   81   0.412   0.181   0.262
    1UNL    H28   82  -0.130  -0.103  -0.225
    1UNL    H29   83   0.041  -0.073  -0.210
    1UNL    H30   84   0.020   0.083  -0.029
    1UNL    H31   85  -0.150   0.090  -0.031
    1UNL    H32   86  -0.061  -0.198   0.020
    1UNL    H33   87  -0.127  -0.156   0.380
    1UNL    H34   88  -0.215  -0.244   0.264
    1UNL    H35   89  -0.036  -0.269   0.267
    1UNL    H36   90  -0.235   0.031   0.329
    1UNL    H37   91  -0.077   0.094   0.291
    1UNL    H38   92  -0.344   0.007   0.069
    1UNL    H39   93  -0.255   0.338   0.033
    1UNL    H40   94  -0.442   0.357  -0.202
    1UNL    H41   95  -0.274   0.338  -0.212
    1UNL    H42   96  -0.355   0.496  -0.151
    1UNL    H43   97  -0.464   0.488   0.090
    1UNL    H44   98  -0.603   0.254   0.032
    1UNL    H45   99  -0.357   0.332   0.256
    1UNL    H46  100  -0.636   0.328   0.287
    1UNL    H47  101  -0.470   0.103   0.286
    1UNL    H48  102  -0.712  -0.058   0.143
    1UNL    H49  103  -0.471  -0.306   0.188
    1UNL    H50  104  -0.601  -0.257   0.385
    1UNL    H51  105  -0.682  -0.394   0.293
    1UNL    H52  106  -0.811  -0.239   0.194
    1UNL    H53  107  -0.613  -0.380  -0.007
    1UNL    H54  108  -0.796  -0.187  -0.015
    1UNL    H55  109  -0.466  -0.188  -0.077
    1UNL    H56  110  -0.694  -0.143  -0.221
    1UNL    H57  111  -0.514   0.027  -0.078
    1UNL    H58  112  -0.731   0.114  -0.102
   0.00000   0.00000   0.00000   0.00000   0.00000   0.00000   0.00000   0.00000   0.00000
Generated with MDTraj, t= 35.0
 112
    1UNL     C1    1  -0.209   0.113  -0.338
    1UNL     C2    2  -0.071   0.083  -0.285
    1UNL     C3    3   0.040   0.146  -0.330
    1UNL     C4    4   0.153   0.164  -0.245
    1UNL     O1    5   0.217   0.045  -0.204
    1UNL     C5    6   0.334   0.078  -0.141
    1UNL     O2    7   0.434   0.119  -0.235
    1UNL     C6    8   0.468   0.009  -0.324
    1UNL     C7    9   0.542   0.054  -0.453
    1UNL     C8   10   0.541  -0.106  -0.248
    1UNL     O3   11   0.564  -0.219  -0.321
    1UNL     C9   12   0.456  -0.147  -0.121
    1UNL     O4   13   0.362  -0.249  -0.150
    1UNL    C10   14   0.386  -0.028  -0.046
    1UNL     O5   15   0.446   0.035   0.071
    1UNL    C11   16   0.495  -0.054   0.170
    1UNL     O6   17   0.602  -0.133   0.123
    1UNL    C12   18   0.717  -0.053   0.088
    1UNL    C13   19   0.836  -0.127   0.015
    1UNL     O7   20   0.905  -0.214   0.104
    1UNL    C14   21   0.768   0.014   0.220
    1UNL     O8   22   0.797  -0.082   0.321
    1UNL    C15   23   0.658   0.109   0.280
    1UNL     O9   24   0.628   0.220   0.187
    1UNL    C16   25   0.533   0.028   0.296
    1UNL    O10   26   0.426   0.111   0.340
    1UNL    C17   27  -0.063  -0.016  -0.169
    1UNL    C18   28  -0.021   0.025  -0.035
    1UNL    C19   29  -0.039  -0.083   0.066
    1UNL    C20   30  -0.120  -0.073   0.173
    1UNL    C21   31  -0.166  -0.195   0.242
    1UNL    C22   32  -0.161   0.065   0.222
    1UNL    O11   33  -0.209   0.155   0.127
    1UNL    C23   34  -0.340   0.123   0.083
    1UNL    O12   35  -0.370   0.193  -0.040
    1UNL    C24   36  -0.353   0.334  -0.030
    1UNL    C25   37  -0.355   0.403  -0.171
    1UNL    C26   38  -0.460   0.387   0.068
    1UNL    O13   39  -0.590   0.360   0.021
    1UNL    C27   40  -0.448   0.315   0.205
    1UNL    O14   41  -0.566   0.342   0.281
    1UNL    C28   42  -0.448   0.161   0.182
    1UNL    O15   43  -0.565   0.122   0.128
    1UNL    C29   44  -0.596  -0.020   0.118
    1UNL    O16   45  -0.509  -0.110   0.187
    1UNL    C30   46  -0.555  -0.251   0.184
    1UNL    C31   47  -0.639  -0.289   0.308
    1UNL    O17   48  -0.758  -0.214   0.307
    1UNL    C32   49  -0.636  -0.281   0.050
    1UNL    O18   50  -0.775  -0.237   0.053
    1UNL    C33   51  -0.555  -0.200  -0.060
    1UNL    O19   52  -0.589  -0.241  -0.188
    1UNL    C34   53  -0.588  -0.051  -0.037
    1UNL    O20   54  -0.717  -0.011  -0.085
    1UNL     H1   55  -0.268   0.024  -0.352
    1UNL     H2   56  -0.259   0.170  -0.273
    1UNL     H3   57  -0.201   0.158  -0.438
    1UNL     H4   58   0.040   0.201  -0.426
    1UNL     H5   59   0.132   0.219  -0.150
    1UNL     H6   60   0.227   0.230  -0.289
    1UNL     H7   61   0.313   0.169  -0.083
    1UNL     H8   62   0.374  -0.039  -0.356
    1UNL     H9   63   0.475   0.115  -0.520
    1UNL    H10   64   0.567  -0.034  -0.520
    1UNL    H11   65   0.632   0.103  -0.431
    1UNL    H12   66   0.641  -0.066  -0.216
    1UNL    H13   67   0.540  -0.304  -0.265
    1UNL    H14   68   0.530  -0.193  -0.057
    1UNL    H15   69   0.304  -0.215  -0.226
    1UNL    H16   70   0.286  -0.063  -0.009
    1UNL    H17   71   0.422  -0.134   0.199
    1UNL    H18   72   0.688   0.031   0.021
    1UNL    H19   73   0.800  -0.187  -0.066
    1UNL    H20   74   0.912  -0.057  -0.040
    1UNL    H21   75   0.887  -0.178   0.195
    1UNL    H22   76   0.870   0.054   0.204
    1UNL    H23   77   0.736  -0.163   0.312
    1UNL    H24   78   0.687   0.155   0.377
    1UNL    H25   79   0.580   0.180   0.111
    1UNL    H26   80   0.552  -0.041   0.385
    1UNL    H27   81   0.403   0.195   0.292
    1UNL    H28   82  -0.166  -0.045  -0.152
    1UNL    H29   83  -0.009  -0.105  -0.208
    1UNL    H30   84   0.087   0.056  -0.024
    1UNL    H31   85  -0.073   0.122  -0.009
    1UNL    H32   86  -0.010  -0.175   0.032
    1UNL    H33   87  -0.255  -0.177   0.292
    1UNL    H34   88  -0.182  -0.270   0.167
    1UNL    H35   89  -0.083  -0.235   0.313
    1UNL    H36   90  -0.248   0.050   0.291
    1UNL    H37   91  -0.085   0.118   0.287
    1UNL    H38   92  -0.339   0.015   0.043
    1UNL    H39   93  -0.252   0.344   0.019
    1UNL    H40   94  -0.435   0.362  -0.225
    1UNL    H41   95  -0.265   0.387  -0.229
    1UNL    H42   96  -0.383   0.510  -0.162
    1UNL    H43   97  -0.446   0.492   0.084
    1UNL    H44   98  -0.591   0.265   0.016
    1UNL    H45   99  -0.361   0.340   0.258
    1UNL    H46  100  -0.642   0.325   0.221
    1UNL    H47  101  -0.439   0.104   0.272
    1UNL    H48  102  -0.698  -0.035   0.159
    1UNL    H49  103  -0.467  -0.317   0.189
    1UNL    H50  104  -0.597  -0.248   0.402
    1UNL    H51  105  -0.662  -0.403   0.324
    1UNL    H52  106  -0.816  -0.241   0.238
    1UNL    H53  107  -0.637  -0.382   0.015
    1UNL    H54  108  -0.776  -0.167  -0.010
    1UNL    H55  109  -0.455  -0.219  -0.042
    1UNL    H56  110  -0.680  -0.210  -0.205
    1UNL    H57  111  -0.502   0.008  -0.079
    1UNL    H58  112  -0.742   0.079  -0.055
   0.00000   0.00000   0.00000   0.00000   0.00000   0.00000   0.00000   0.00000   0.00000
Generated with MDTraj, t= 36.0
 112
    1UNL     C1    1  -0.212   0.065  -0.334
    1UNL     C2    2  -0.075   0.076  -0.269
    1UNL     C3    3   0.004   0.184  -0.293
    1UNL     C4    4   0.150   0.171  -0.277
    1UNL     O1    5   0.201   0.071  -0.193
    1UNL     C5    6   0.330   0.110  -0.151
    1UNL     O2    7   0.423   0.140  -0.262
    1UNL     C6    8   0.454   0.023  -0.337
    1UNL     C7    9   0.535   0.058  -0.464
    1UNL     C8   10   0.530  -0.081  -0.245
    1UNL     O3   11   0.574  -0.188  -0.323
    1UNL     C9   12   0.437  -0.124  -0.130
    1UNL     O4   13   0.338  -0.213  -0.185
    1UNL    C10   14   0.381   0.000  -0.052
    1UNL     O5   15   0.468   0.048   0.050
    1UNL    C11   16   0.492  -0.063   0.141
    1UNL     O6   17   0.611  -0.140   0.118
    1UNL    C12   18   0.727  -0.055   0.111
    1UNL    C13   19   0.839  -0.131   0.054
    1UNL     O7   20   0.880  -0.240   0.130
    1UNL    C14   21   0.763  -0.007   0.252
    1UNL     O8   22   0.772  -0.122   0.339
    1UNL    C15   23   0.645   0.074   0.301
    1UNL     O9   24   0.638   0.192   0.216
    1UNL    C16   25   0.508   0.002   0.283
    1UNL    O10   26   0.394   0.087   0.305
    1UNL    C17   27  -0.029  -0.032  -0.180
    1UNL    C18   28  -0.020   0.010  -0.032
    1UNL    C19   29  -0.075  -0.093   0.059
    1UNL    C20   30  -0.137  -0.064   0.175
    1UNL    C21   31  -0.176  -0.175   0.270
    1UNL    C22   32  -0.152   0.080   0.220
    1UNL    O11   33  -0.204   0.164   0.118
    1UNL    C23   34  -0.333   0.131   0.058
    1UNL    O12   35  -0.374   0.199  -0.061
    1UNL    C24   36  -0.343   0.339  -0.037
    1UNL    C25   37  -0.355   0.416  -0.170
    1UNL    C26   38  -0.451   0.389   0.064
    1UNL    O13   39  -0.577   0.357   0.007
    1UNL    C27   40  -0.439   0.310   0.201
    1UNL    O14   41  -0.543   0.348   0.287
    1UNL    C28   42  -0.453   0.158   0.165
    1UNL    O15   43  -0.576   0.127   0.117
    1UNL    C29   44  -0.591  -0.012   0.109
    1UNL    O16   45  -0.512  -0.095   0.199
    1UNL    C30   46  -0.536  -0.234   0.200
    1UNL    C31   47  -0.611  -0.261   0.328
    1UNL    O17   48  -0.736  -0.191   0.331
    1UNL    C32   49  -0.598  -0.295   0.067
    1UNL    O18   50  -0.735  -0.281   0.062
    1UNL    C33   51  -0.538  -0.211  -0.056
    1UNL    O19   52  -0.596  -0.270  -0.170
    1UNL    C34   53  -0.582  -0.064  -0.040
    1UNL    O20   54  -0.712  -0.042  -0.103
    1UNL     H1   55  -0.234  -0.036  -0.362
    1UNL     H2   56  -0.293   0.097  -0.264
    1UNL     H3   57  -0.222   0.115  -0.426
    1UNL     H4   58  -0.031   0.264  -0.357
    1UNL     H5   59   0.200   0.266  -0.252
    1UNL     H6   60   0.201   0.145  -0.368
    1UNL     H7   61   0.331   0.203  -0.091
    1UNL     H8   62   0.363  -0.023  -0.375
    1UNL     H9   63   0.482   0.130  -0.523
    1UNL    H10   64   0.545  -0.031  -0.532
    1UNL    H11   65   0.638   0.094  -0.430
    1UNL    H12   66   0.621  -0.030  -0.204
    1UNL    H13   67   0.538  -0.271  -0.291
    1UNL    H14   68   0.491  -0.191  -0.061
    1UNL    H15   69   0.265  -0.149  -0.216
    1UNL    H16   70   0.286  -0.036  -0.003
    1UNL    H17   71   0.416  -0.143   0.149
    1UNL    H18   72   0.704   0.030   0.048
    1UNL    H19   73   0.814  -0.171  -0.044
    1UNL    H20   74   0.933  -0.064   0.032
    1UNL    H21   75   0.942  -0.216   0.200
    1UNL    H22   76   0.855   0.050   0.252
    1UNL    H23   77   0.743  -0.200   0.289
    1UNL    H24   78   0.653   0.109   0.405
    1UNL    H25   79   0.578   0.167   0.143
    1UNL    H26   80   0.505  -0.081   0.360
    1UNL    H27   81   0.396   0.165   0.250
    1UNL    H28   82  -0.100  -0.116  -0.192
    1UNL    H29   83   0.071  -0.070  -0.205
    1UNL    H30   84   0.072   0.064   0.002
    1UNL    H31   85  -0.096   0.098  -0.021
    1UNL    H32   86  -0.062  -0.200   0.026
    1UNL    H33   87  -0.284  -0.181   0.274
    1UNL    H34   88  -0.141  -0.275   0.244
    1UNL    H35   89  -0.151  -0.158   0.362
    1UNL    H36   90  -0.210   0.095   0.314
    1UNL    H37   91  -0.047   0.117   0.244
    1UNL    H38   92  -0.332   0.019   0.030
    1UNL    H39   93  -0.245   0.334   0.009
    1UNL    H40   94  -0.460   0.434  -0.184
    1UNL    H41   95  -0.324   0.362  -0.256
    1UNL    H42   96  -0.317   0.518  -0.173
    1UNL    H43   97  -0.443   0.495   0.074
    1UNL    H44   98  -0.573   0.258  -0.016
    1UNL    H45   99  -0.344   0.325   0.241
    1UNL    H46  100  -0.625   0.315   0.241
    1UNL    H47  101  -0.448   0.104   0.255
    1UNL    H48  102  -0.697  -0.025   0.131
    1UNL    H49  103  -0.433  -0.272   0.210
    1UNL    H50  104  -0.553  -0.224   0.413
    1UNL    H51  105  -0.641  -0.372   0.340
    1UNL    H52  106  -0.793  -0.215   0.251
    1UNL    H53  107  -0.582  -0.401   0.061
    1UNL    H54  108  -0.757  -0.192   0.014
    1UNL    H55  109  -0.436  -0.225  -0.061
    1UNL    H56  110  -0.688  -0.228  -0.189
    1UNL    H57  111  -0.499  -0.007  -0.090
    1UNL    H58  112  -0.738   0.051  -0.081
   0.00000   0.00000   0.00000   0.00000   0.00000   0.00000   0.00000   0.00000   0.00000
Generated with MDTraj, t= 37.0
 112
    1UNL     C1    1  -0.236   0.076  -0.319
    1UNL     C2    2  -0.088   0.043  -0.278
    1UNL     C3    3   0.002   0.130  -0.338
    1UNL     C4    4   0.137   0.176  -0.286
    1UNL     O1    5   0.201   0.086  -0.201
    1UNL     C5    6   0.329   0.135  -0.153
    1UNL     O2    7   0.429   0.167  -0.254
    1UNL     C6    8   0.455   0.057  -0.336
    1UNL     C7    9   0.548   0.088  -0.451
    1UNL     C8   10   0.519  -0.058  -0.247
    1UNL     O3   11   0.573  -0.162  -0.324
    1UNL     C9   12   0.419  -0.106  -0.145
    1UNL     O4   13   0.308  -0.158  -0.214
    1UNL    C10   14   0.380   0.018  -0.059
    1UNL     O5   15   0.491   0.045   0.023
    1UNL    C11   16   0.501  -0.065   0.117
    1UNL     O6   17   0.616  -0.142   0.095
    1UNL    C12   18   0.735  -0.072   0.121
    1UNL    C13   19   0.843  -0.163   0.080
    1UNL     O7   20   0.863  -0.281   0.150
    1UNL    C14   21   0.744  -0.024   0.270
    1UNL     O8   22   0.755  -0.141   0.356
    1UNL    C15   23   0.620   0.058   0.304
    1UNL     O9   24   0.618   0.187   0.243
    1UNL    C16   25   0.493  -0.020   0.266
    1UNL    O10   26   0.375   0.048   0.300
    1UNL    C17   27  -0.050  -0.057  -0.178
    1UNL    C18   28  -0.050  -0.003  -0.029
    1UNL    C19   29  -0.095  -0.098   0.073
    1UNL    C20   30  -0.141  -0.056   0.190
    1UNL    C21   31  -0.162  -0.158   0.298
    1UNL    C22   32  -0.142   0.089   0.212
    1UNL    O11   33  -0.206   0.171   0.114
    1UNL    C23   34  -0.332   0.133   0.061
    1UNL    O12   35  -0.362   0.199  -0.058
    1UNL    C24   36  -0.349   0.342  -0.053
    1UNL    C25   37  -0.357   0.412  -0.193
    1UNL    C26   38  -0.450   0.394   0.049
    1UNL    O13   39  -0.579   0.394  -0.001
    1UNL    C27   40  -0.437   0.317   0.186
    1UNL    O14   41  -0.537   0.357   0.281
    1UNL    C28   42  -0.447   0.161   0.167
    1UNL    O15   43  -0.567   0.118   0.116
    1UNL    C29   44  -0.574  -0.025   0.109
    1UNL    O16   45  -0.472  -0.099   0.182
    1UNL    C30   46  -0.517  -0.232   0.210
    1UNL    C31   47  -0.594  -0.227   0.342
    1UNL    O17   48  -0.727  -0.178   0.330
    1UNL    C32   49  -0.575  -0.299   0.082
    1UNL    O18   50  -0.716  -0.292   0.077
    1UNL    C33   51  -0.523  -0.224  -0.048
    1UNL    O19   52  -0.562  -0.282  -0.174
    1UNL    C34   53  -0.581  -0.083  -0.038
    1UNL    O20   54  -0.716  -0.076  -0.082
    1UNL     H1   55  -0.278   0.010  -0.390
    1UNL     H2   56  -0.303   0.084  -0.224
    1UNL     H3   57  -0.240   0.170  -0.367
    1UNL     H4   58  -0.023   0.186  -0.428
    1UNL     H5   59   0.128   0.270  -0.231
    1UNL     H6   60   0.202   0.195  -0.368
    1UNL     H7   61   0.325   0.224  -0.086
    1UNL     H8   62   0.360   0.021  -0.378
    1UNL     H9   63   0.502   0.152  -0.521
    1UNL    H10   64   0.566  -0.006  -0.509
    1UNL    H11   65   0.650   0.134  -0.413
    1UNL    H12   66   0.602  -0.012  -0.189
    1UNL    H13   67   0.506  -0.225  -0.338
    1UNL    H14   68   0.452  -0.191  -0.080
    1UNL    H15   69   0.256  -0.087  -0.246
    1UNL    H16   70   0.285  -0.010  -0.004
    1UNL    H17   71   0.422  -0.137   0.118
    1UNL    H18   72   0.726   0.009   0.053
    1UNL    H19   73   0.831  -0.191  -0.025
    1UNL    H20   74   0.945  -0.102   0.083
    1UNL    H21   75   0.830  -0.272   0.243
    1UNL    H22   76   0.829   0.038   0.284
    1UNL    H23   77   0.784  -0.108   0.450
    1UNL    H24   78   0.611   0.067   0.412
    1UNL    H25   79   0.628   0.171   0.146
    1UNL    H26   80   0.497  -0.110   0.333
    1UNL    H27   81   0.396   0.145   0.278
    1UNL    H28   82  -0.122  -0.142  -0.177
    1UNL    H29   83   0.051  -0.093  -0.194
    1UNL    H30   84   0.045   0.046  -0.001
    1UNL    H31   85  -0.119   0.090  -0.030
    1UNL    H32   86  -0.097  -0.203   0.048
    1UNL    H33   87  -0.226  -0.116   0.374
    1UNL    H34   88  -0.207  -0.246   0.267
    1UNL    H35   89  -0.065  -0.183   0.353
    1UNL    H36   90  -0.194   0.101   0.310
    1UNL    H37   91  -0.036   0.128   0.229
    1UNL    H38   92  -0.332   0.019   0.042
    1UNL    H39   93  -0.253   0.350  -0.006
    1UNL    H40   94  -0.432   0.363  -0.257
    1UNL    H41   95  -0.267   0.410  -0.248
    1UNL    H42   96  -0.396   0.511  -0.188
    1UNL    H43   97  -0.442   0.499   0.066
    1UNL    H44   98  -0.614   0.305  -0.016
    1UNL    H45   99  -0.345   0.339   0.229
    1UNL    H46  100  -0.621   0.336   0.244
    1UNL    H47  101  -0.430   0.123   0.262
    1UNL    H48  102  -0.673  -0.045   0.149
    1UNL    H49  103  -0.422  -0.284   0.230
    1UNL    H50  104  -0.554  -0.149   0.404
    1UNL    H51  105  -0.588  -0.329   0.392
    1UNL    H52  106  -0.771  -0.229   0.256
    1UNL    H53  107  -0.553  -0.406   0.073
    1UNL    H54  108  -0.746  -0.224   0.020
    1UNL    H55  109  -0.420  -0.212  -0.056
    1UNL    H56  110  -0.653  -0.266  -0.194
    1UNL    H57  111  -0.519  -0.011  -0.096
    1UNL    H58  112  -0.751   0.014  -0.068
   0.00000   0.00000   0.00000   0.00000   0.00000   0.00000   0.00000   0.00000   0.00000
Generated with MDTraj, t= 38.0
 112
    1UNL     C1    1  -0.225   0.030  -0.374
    1UNL     C2    2  -0.101   0.055  -0.292
    1UNL     C3    3  -0.019   0.151  -0.338
    1UNL     C4    4   0.120   0.181  -0.291
    1UNL     O1    5   0.175   0.073  -0.215
    1UNL     C5    6   0.296   0.103  -0.147
    1UNL     O2    7   0.397   0.165  -0.221
    1UNL     C6    8   0.454   0.082  -0.326
    1UNL     C7    9   0.560   0.160  -0.399
    1UNL     C8   10   0.523  -0.049  -0.270
    1UNL     O3   11   0.549  -0.147  -0.376
    1UNL     C9   12   0.430  -0.122  -0.170
    1UNL     O4   13   0.331  -0.197  -0.236
    1UNL    C10   14   0.362  -0.025  -0.071
    1UNL     O5   15   0.443   0.024   0.040
    1UNL    C11   16   0.492  -0.079   0.130
    1UNL     O6   17   0.617  -0.142   0.088
    1UNL    C12   18   0.738  -0.080   0.127
    1UNL    C13   19   0.853  -0.174   0.103
    1UNL     O7   20   0.825  -0.304   0.163
    1UNL    C14   21   0.730  -0.035   0.276
    1UNL     O8   22   0.739  -0.151   0.364
    1UNL    C15   23   0.610   0.054   0.306
    1UNL     O9   24   0.602   0.178   0.220
    1UNL    C16   25   0.485  -0.031   0.280
    1UNL    O10   26   0.368   0.041   0.309
    1UNL    C17   27  -0.050  -0.036  -0.178
    1UNL    C18   28  -0.035   0.035  -0.044
    1UNL    C19   29  -0.044  -0.060   0.070
    1UNL    C20   30  -0.114  -0.043   0.188
    1UNL    C21   31  -0.134  -0.156   0.281
    1UNL    C22   32  -0.148   0.098   0.233
    1UNL    O11   33  -0.195   0.187   0.134
    1UNL    C23   34  -0.314   0.146   0.070
    1UNL    O12   35  -0.344   0.196  -0.055
    1UNL    C24   36  -0.348   0.339  -0.059
    1UNL    C25   37  -0.366   0.399  -0.202
    1UNL    C26   38  -0.465   0.395   0.039
    1UNL    O13   39  -0.584   0.350  -0.015
    1UNL    C27   40  -0.446   0.328   0.179
    1UNL    O14   41  -0.561   0.360   0.256
    1UNL    C28   42  -0.434   0.175   0.163
    1UNL    O15   43  -0.556   0.124   0.114
    1UNL    C29   44  -0.576  -0.021   0.122
    1UNL    O16   45  -0.472  -0.070   0.208
    1UNL    C30   46  -0.494  -0.214   0.224
    1UNL    C31   47  -0.592  -0.237   0.343
    1UNL    O17   48  -0.716  -0.175   0.320
    1UNL    C32   49  -0.534  -0.281   0.089
    1UNL    O18   50  -0.673  -0.305   0.095
    1UNL    C33   51  -0.500  -0.209  -0.042
    1UNL    O19   52  -0.553  -0.281  -0.153
    1UNL    C34   53  -0.571  -0.073  -0.029
    1UNL    O20   54  -0.705  -0.079  -0.071
    1UNL     H1   55  -0.203  -0.034  -0.461
    1UNL     H2   56  -0.309  -0.010  -0.318
    1UNL     H3   57  -0.255   0.125  -0.422
    1UNL     H4   58  -0.039   0.209  -0.429
    1UNL     H5   59   0.128   0.275  -0.235
    1UNL     H6   60   0.177   0.195  -0.379
    1UNL     H7   61   0.262   0.173  -0.067
    1UNL     H8   62   0.370   0.053  -0.392
    1UNL     H9   63   0.510   0.236  -0.462
    1UNL    H10   64   0.619   0.105  -0.476
    1UNL    H11   65   0.627   0.219  -0.330
    1UNL    H12   66   0.618  -0.022  -0.223
    1UNL    H13   67   0.480  -0.219  -0.364
    1UNL    H14   68   0.496  -0.188  -0.105
    1UNL    H15   69   0.256  -0.139  -0.267
    1UNL    H16   70   0.264  -0.064  -0.039
    1UNL    H17   71   0.424  -0.159   0.130
    1UNL    H18   72   0.737   0.006   0.065
    1UNL    H19   73   0.868  -0.194  -0.004
    1UNL    H20   74   0.952  -0.117   0.138
    1UNL    H21   75   0.775  -0.294   0.246
    1UNL    H22   76   0.818   0.021   0.291
    1UNL    H23   77   0.773  -0.127   0.455
    1UNL    H24   78   0.614   0.087   0.408
    1UNL    H25   79   0.554   0.155   0.139
    1UNL    H26   80   0.484  -0.116   0.349
    1UNL    H27   81   0.377   0.126   0.258
    1UNL    H28   82  -0.128  -0.115  -0.168
    1UNL    H29   83   0.047  -0.072  -0.210
    1UNL    H30   84   0.066   0.079  -0.028
    1UNL    H31   85  -0.103   0.118  -0.021
    1UNL    H32   86  -0.019  -0.157   0.039
    1UNL    H33   87  -0.224  -0.135   0.331
    1UNL    H34   88  -0.138  -0.247   0.228
    1UNL    H35   89  -0.047  -0.156   0.362
    1UNL    H36   90  -0.213   0.100   0.322
    1UNL    H37   91  -0.053   0.143   0.273
    1UNL    H38   92  -0.302   0.030   0.059
    1UNL    H39   93  -0.259   0.376  -0.019
    1UNL    H40   94  -0.472   0.407  -0.233
    1UNL    H41   95  -0.315   0.331  -0.267
    1UNL    H42   96  -0.326   0.495  -0.206
    1UNL    H43   97  -0.461   0.501   0.051
    1UNL    H44   98  -0.580   0.251  -0.022
    1UNL    H45   99  -0.355   0.361   0.218
    1UNL    H46  100  -0.643   0.338   0.206
    1UNL    H47  101  -0.415   0.135   0.257
    1UNL    H48  102  -0.673  -0.040   0.166
    1UNL    H49  103  -0.398  -0.252   0.262
    1UNL    H50  104  -0.542  -0.199   0.427
    1UNL    H51  105  -0.618  -0.344   0.353
    1UNL    H52  106  -0.745  -0.214   0.238
    1UNL    H53  107  -0.482  -0.380   0.088
    1UNL    H54  108  -0.726  -0.241   0.035
    1UNL    H55  109  -0.397  -0.204  -0.056
    1UNL    H56  110  -0.651  -0.293  -0.153
    1UNL    H57  111  -0.522   0.003  -0.091
    1UNL    H58  112  -0.753   0.006  -0.074
   0.00000   0.00000   0.00000   0.00000   0.00000   0.00000   0.00000   0.00000   0.00000
Generated with MDTraj, t= 39.0
 112
    1UNL     C1    1  -0.211   0.047  -0.396
    1UNL     C2    2  -0.083   0.050  -0.321
    1UNL     C3    3   0.007   0.143  -0.350
    1UNL     C4    4   0.139   0.162  -0.288
    1UNL     O1    5   0.191   0.051  -0.213
    1UNL     C5    6   0.294   0.086  -0.125
    1UNL     O2    7   0.400   0.163  -0.181
    1UNL     C6    8   0.457   0.103  -0.300
    1UNL     C7    9   0.543   0.204  -0.374
    1UNL     C8   10   0.533  -0.029  -0.262
    1UNL     O3   11   0.566  -0.103  -0.387
    1UNL     C9   12   0.434  -0.119  -0.177
    1UNL     O4   13   0.345  -0.182  -0.262
    1UNL    C10   14   0.359  -0.041  -0.064
    1UNL     O5   15   0.445  -0.008   0.046
    1UNL    C11   16   0.452  -0.111   0.147
    1UNL     O6   17   0.577  -0.188   0.125
    1UNL    C12   18   0.689  -0.112   0.111
    1UNL    C13   19   0.815  -0.186   0.073
    1UNL     O7   20   0.833  -0.295   0.161
    1UNL    C14   21   0.705  -0.039   0.252
    1UNL     O8   22   0.720  -0.141   0.354
    1UNL    C15   23   0.586   0.044   0.285
    1UNL     O9   24   0.580   0.160   0.194
    1UNL    C16   25   0.452  -0.040   0.285
    1UNL    O10   26   0.336   0.038   0.278
    1UNL    C17   27  -0.072  -0.042  -0.205
    1UNL    C18   28  -0.071   0.026  -0.065
    1UNL    C19   29  -0.065  -0.058   0.064
    1UNL    C20   30  -0.096  -0.019   0.193
    1UNL    C21   31  -0.047  -0.113   0.303
    1UNL    C22   32  -0.144   0.117   0.233
    1UNL    O11   33  -0.201   0.200   0.133
    1UNL    C23   34  -0.326   0.149   0.090
    1UNL    O12   35  -0.353   0.187  -0.048
    1UNL    C24   36  -0.347   0.327  -0.062
    1UNL    C25   37  -0.331   0.371  -0.207
    1UNL    C26   38  -0.469   0.387   0.019
    1UNL    O13   39  -0.590   0.338  -0.036
    1UNL    C27   40  -0.455   0.349   0.170
    1UNL    O14   41  -0.580   0.394   0.225
    1UNL    C28   42  -0.447   0.193   0.188
    1UNL    O15   43  -0.566   0.132   0.148
    1UNL    C29   44  -0.555  -0.014   0.137
    1UNL    O16   45  -0.458  -0.073   0.222
    1UNL    C30   46  -0.481  -0.222   0.236
    1UNL    C31   47  -0.576  -0.234   0.357
    1UNL    O17   48  -0.707  -0.198   0.317
    1UNL    C32   49  -0.521  -0.291   0.101
    1UNL    O18   50  -0.665  -0.309   0.096
    1UNL    C33   51  -0.479  -0.200  -0.021
    1UNL    O19   52  -0.482  -0.264  -0.149
    1UNL    C34   53  -0.564  -0.066  -0.015
    1UNL    O20   54  -0.696  -0.080  -0.062
    1UNL     H1   55  -0.220  -0.045  -0.463
    1UNL     H2   56  -0.291   0.043  -0.331
    1UNL     H3   57  -0.228   0.134  -0.470
    1UNL     H4   58  -0.015   0.214  -0.423
    1UNL     H5   59   0.133   0.248  -0.218
    1UNL     H6   60   0.218   0.187  -0.356
    1UNL     H7   61   0.250   0.142  -0.040
    1UNL     H8   62   0.371   0.079  -0.366
    1UNL     H9   63   0.486   0.305  -0.371
    1UNL    H10   64   0.561   0.187  -0.484
    1UNL    H11   65   0.633   0.226  -0.323
    1UNL    H12   66   0.625   0.002  -0.214
    1UNL    H13   67   0.513  -0.186  -0.387
    1UNL    H14   68   0.496  -0.199  -0.125
    1UNL    H15   69   0.280  -0.111  -0.294
    1UNL    H16   70   0.274  -0.102  -0.036
    1UNL    H17   71   0.377  -0.182   0.137
    1UNL    H18   72   0.664  -0.039   0.038
    1UNL    H19   73   0.806  -0.216  -0.031
    1UNL    H20   74   0.906  -0.111   0.078
    1UNL    H21   75   0.813  -0.273   0.254
    1UNL    H22   76   0.795   0.018   0.250
    1UNL    H23   77   0.764  -0.107   0.431
    1UNL    H24   78   0.606   0.094   0.378
    1UNL    H25   79   0.527   0.140   0.112
    1UNL    H26   80   0.440  -0.112   0.364
    1UNL    H27   81   0.327   0.087   0.196
    1UNL    H28   82  -0.160  -0.113  -0.207
    1UNL    H29   83   0.024  -0.091  -0.215
    1UNL    H30   84   0.004   0.106  -0.051
    1UNL    H31   85  -0.163   0.077  -0.055
    1UNL    H32   86  -0.017  -0.161   0.052
    1UNL    H33   87  -0.129  -0.147   0.366
    1UNL    H34   88  -0.002  -0.207   0.255
    1UNL    H35   89   0.024  -0.068   0.367
    1UNL    H36   90  -0.218   0.102   0.313
    1UNL    H37   91  -0.063   0.170   0.287
    1UNL    H38   92  -0.319   0.033   0.087
    1UNL    H39   93  -0.264   0.363  -0.010
    1UNL    H40   94  -0.396   0.315  -0.274
    1UNL    H41   95  -0.229   0.344  -0.227
    1UNL    H42   96  -0.347   0.474  -0.216
    1UNL    H43   97  -0.464   0.495   0.013
    1UNL    H44   98  -0.602   0.241  -0.019
    1UNL    H45   99  -0.377   0.398   0.220
    1UNL    H46  100  -0.667   0.381   0.173
    1UNL    H47  101  -0.441   0.165   0.288
    1UNL    H48  102  -0.646  -0.047   0.184
    1UNL    H49  103  -0.390  -0.269   0.271
    1UNL    H50  104  -0.550  -0.168   0.433
    1UNL    H51  105  -0.577  -0.340   0.382
    1UNL    H52  106  -0.737  -0.257   0.238
    1UNL    H53  107  -0.462  -0.388   0.092
    1UNL    H54  108  -0.699  -0.285   0.008
    1UNL    H55  109  -0.378  -0.177  -0.006
    1UNL    H56  110  -0.580  -0.268  -0.179
    1UNL    H57  111  -0.530   0.015  -0.077
    1UNL    H58  112  -0.748   0.002  -0.048
   0.00000   0.00000   0.00000   0.00000   0.00000   0.00000   0.00000   0.00000   0.00000
Generated with MDTraj, t= 40.0
 112
    1UNL     C1    1  -0.213   0.029  -0.389
    1UNL     C2    2  -0.084   0.052  -0.315
    1UNL     C3    3   0.006   0.139  -0.353
    1UNL     C4    4   0.122   0.166  -0.265
    1UNL     O1    5   0.191   0.049  -0.225
    1UNL     C5    6   0.286   0.074  -0.133
    1UNL     O2    7   0.385   0.164  -0.186
    1UNL     C6    8   0.461   0.111  -0.294
    1UNL     C7    9   0.564   0.211  -0.341
    1UNL     C8   10   0.532  -0.016  -0.246
    1UNL     O3   11   0.634  -0.057  -0.338
    1UNL     C9   12   0.427  -0.124  -0.206
    1UNL     O4   13   0.342  -0.153  -0.310
    1UNL    C10   14   0.348  -0.058  -0.082
    1UNL     O5   15   0.430  -0.024   0.029
    1UNL    C11   16   0.426  -0.119   0.139
    1UNL     O6   17   0.537  -0.214   0.131
    1UNL    C12   18   0.653  -0.141   0.109
    1UNL    C13   19   0.768  -0.228   0.064
    1UNL     O7   20   0.835  -0.289   0.165
    1UNL    C14   21   0.685  -0.042   0.234
    1UNL     O8   22   0.738  -0.126   0.339
    1UNL    C15   23   0.562   0.030   0.278
    1UNL     O9   24   0.550   0.147   0.201
    1UNL    C16   25   0.432  -0.056   0.278
    1UNL    O10   26   0.317   0.021   0.305
    1UNL    C17   27  -0.077  -0.039  -0.200
    1UNL    C18   28  -0.111   0.034  -0.067
    1UNL    C19   29  -0.059  -0.035   0.051
    1UNL    C20   30  -0.074  -0.000   0.182
    1UNL    C21   31  -0.001  -0.091   0.277
    1UNL    C22   32  -0.136   0.120   0.239
    1UNL    O11   33  -0.207   0.196   0.138
    1UNL    C23   34  -0.333   0.145   0.094
    1UNL    O12   35  -0.363   0.165  -0.044
    1UNL    C24   36  -0.352   0.309  -0.075
    1UNL    C25   37  -0.345   0.332  -0.224
    1UNL    C26   38  -0.470   0.387  -0.003
    1UNL    O13   39  -0.592   0.338  -0.059
    1UNL    C27   40  -0.464   0.357   0.147
    1UNL    O14   41  -0.576   0.396   0.217
    1UNL    C28   42  -0.453   0.203   0.178
    1UNL    O15   43  -0.575   0.137   0.160
    1UNL    C29   44  -0.569  -0.004   0.153
    1UNL    O16   45  -0.482  -0.060   0.251
    1UNL    C30   46  -0.465  -0.201   0.254
    1UNL    C31   47  -0.561  -0.255   0.363
    1UNL    O17   48  -0.693  -0.216   0.327
    1UNL    C32   49  -0.477  -0.269   0.114
    1UNL    O18   50  -0.606  -0.320   0.095
    1UNL    C33   51  -0.443  -0.173  -0.003
    1UNL    O19   52  -0.455  -0.237  -0.131
    1UNL    C34   53  -0.539  -0.050   0.003
    1UNL    O20   54  -0.660  -0.068  -0.072
    1UNL     H1   55  -0.201  -0.074  -0.437
    1UNL     H2   56  -0.291   0.020  -0.318
    1UNL     H3   57  -0.238   0.098  -0.476
    1UNL     H4   58  -0.008   0.211  -0.438
    1UNL     H5   59   0.089   0.214  -0.169
    1UNL     H6   60   0.194   0.234  -0.309
    1UNL     H7   61   0.247   0.127  -0.045
    1UNL     H8   62   0.389   0.085  -0.375
    1UNL     H9   63   0.515   0.294  -0.406
    1UNL    H10   64   0.637   0.153  -0.406
    1UNL    H11   65   0.611   0.255  -0.260
    1UNL    H12   66   0.581   0.018  -0.156
    1UNL    H13   67   0.602  -0.124  -0.394
    1UNL    H14   68   0.474  -0.225  -0.180
    1UNL    H15   69   0.276  -0.085  -0.306
    1UNL    H16   70   0.281  -0.138  -0.055
    1UNL    H17   71   0.338  -0.177   0.131
    1UNL    H18   72   0.631  -0.071   0.030
    1UNL    H19   73   0.722  -0.307   0.009
    1UNL    H20   74   0.834  -0.167  -0.012
    1UNL    H21   75   0.857  -0.229   0.240
    1UNL    H22   76   0.759   0.035   0.214
    1UNL    H23   77   0.715  -0.094   0.424
    1UNL    H24   78   0.582   0.064   0.379
    1UNL    H25   79   0.544   0.110   0.113
    1UNL    H26   80   0.438  -0.126   0.357
    1UNL    H27   81   0.319   0.109   0.257
    1UNL    H28   82  -0.144  -0.128  -0.203
    1UNL    H29   83   0.021  -0.077  -0.175
    1UNL    H30   84  -0.087   0.140  -0.076
    1UNL    H31   85  -0.219   0.040  -0.067
    1UNL    H32   86  -0.005  -0.121   0.034
    1UNL    H33   87  -0.063  -0.120   0.367
    1UNL    H34   88   0.026  -0.192   0.228
    1UNL    H35   89   0.083  -0.054   0.317
    1UNL    H36   90  -0.198   0.090   0.322
    1UNL    H37   91  -0.061   0.182   0.286
    1UNL    H38   92  -0.334   0.030   0.107
    1UNL    H39   93  -0.260   0.332  -0.033
    1UNL    H40   94  -0.431   0.295  -0.274
    1UNL    H41   95  -0.256   0.288  -0.265
    1UNL    H42   96  -0.349   0.438  -0.242
    1UNL    H43   97  -0.460   0.494  -0.027
    1UNL    H44   98  -0.618   0.249  -0.033
    1UNL    H45   99  -0.379   0.398   0.194
    1UNL    H46  100  -0.656   0.354   0.190
    1UNL    H47  101  -0.431   0.191   0.281
    1UNL    H48  102  -0.667  -0.041   0.179
    1UNL    H49  103  -0.366  -0.223   0.291
    1UNL    H50  104  -0.529  -0.198   0.446
    1UNL    H51  105  -0.566  -0.363   0.374
    1UNL    H52  106  -0.722  -0.241   0.241
    1UNL    H53  107  -0.416  -0.364   0.109
    1UNL    H54  108  -0.660  -0.255   0.048
    1UNL    H55  109  -0.341  -0.146   0.001
    1UNL    H56  110  -0.538  -0.207  -0.162
    1UNL    H57  111  -0.494   0.036  -0.042
    1UNL    H58  112  -0.715   0.014  -0.063
   0.00000   0.00000   0.00000   0.00000   0.00000   0.00000   0.00000   0.00000   0.00000
Generated with MDTraj, t= 41.0
 112
    1UNL     C1    1  -0.227   0.005  -0.398
    1UNL     C2    2  -0.102   0.039  -0.321
    1UNL     C3    3  -0.025   0.138  -0.361
    1UNL     C4    4   0.100   0.182  -0.292
    1UNL     O1    5   0.183   0.069  -0.256
    1UNL     C5    6   0.270   0.084  -0.147
    1UNL     O2    7   0.371   0.181  -0.182
    1UNL     C6    8   0.472   0.129  -0.275
    1UNL     C7    9   0.581   0.230  -0.303
    1UNL     C8   10   0.550   0.009  -0.209
    1UNL     O3   11   0.642  -0.044  -0.305
    1UNL     C9   12   0.448  -0.108  -0.179
    1UNL     O4   13   0.407  -0.172  -0.292
    1UNL    C10   14   0.339  -0.055  -0.092
    1UNL     O5   15   0.374  -0.029   0.037
    1UNL    C11   16   0.412  -0.136   0.119
    1UNL     O6   17   0.532  -0.205   0.081
    1UNL    C12   18   0.654  -0.140   0.100
    1UNL    C13   19   0.770  -0.230   0.068
    1UNL     O7   20   0.778  -0.330   0.165
    1UNL    C14   21   0.678  -0.054   0.231
    1UNL     O8   22   0.725  -0.146   0.329
    1UNL    C15   23   0.549   0.015   0.273
    1UNL     O9   24   0.525   0.127   0.184
    1UNL    C16   25   0.420  -0.077   0.263
    1UNL    O10   26   0.306   0.002   0.300
    1UNL    C17   27  -0.075  -0.046  -0.196
    1UNL    C18   28  -0.104   0.027  -0.064
    1UNL    C19   29  -0.048  -0.043   0.052
    1UNL    C20   30  -0.050  -0.005   0.184
    1UNL    C21   31   0.014  -0.078   0.293
    1UNL    C22   32  -0.130   0.112   0.229
    1UNL    O11   33  -0.198   0.196   0.133
    1UNL    C23   34  -0.328   0.159   0.103
    1UNL    O12   35  -0.364   0.173  -0.033
    1UNL    C24   36  -0.368   0.310  -0.087
    1UNL    C25   37  -0.398   0.316  -0.232
    1UNL    C26   38  -0.487   0.376  -0.014
    1UNL    O13   39  -0.607   0.324  -0.055
    1UNL    C27   40  -0.468   0.371   0.141
    1UNL    O14   41  -0.574   0.431   0.207
    1UNL    C28   42  -0.443   0.223   0.186
    1UNL    O15   43  -0.563   0.155   0.154
    1UNL    C29   44  -0.561   0.009   0.151
    1UNL    O16   45  -0.463  -0.046   0.242
    1UNL    C30   46  -0.456  -0.181   0.260
    1UNL    C31   47  -0.551  -0.226   0.373
    1UNL    O17   48  -0.679  -0.253   0.332
    1UNL    C32   49  -0.457  -0.258   0.117
    1UNL    O18   50  -0.577  -0.319   0.096
    1UNL    C33   51  -0.421  -0.160   0.002
    1UNL    O19   52  -0.407  -0.231  -0.123
    1UNL    C34   53  -0.528  -0.052   0.008
    1UNL    O20   54  -0.651  -0.097  -0.048
    1UNL     H1   55  -0.194  -0.061  -0.481
    1UNL     H2   56  -0.306  -0.056  -0.336
    1UNL     H3   57  -0.270   0.090  -0.452
    1UNL     H4   58  -0.061   0.203  -0.433
    1UNL     H5   59   0.067   0.228  -0.195
    1UNL     H6   60   0.162   0.256  -0.344
    1UNL     H7   61   0.212   0.129  -0.066
    1UNL     H8   62   0.422   0.090  -0.366
    1UNL     H9   63   0.536   0.326  -0.336
    1UNL    H10   64   0.657   0.185  -0.376
    1UNL    H11   65   0.629   0.248  -0.207
    1UNL    H12   66   0.603   0.036  -0.122
    1UNL    H13   67   0.605  -0.128  -0.347
    1UNL    H14   68   0.501  -0.187  -0.119
    1UNL    H15   69   0.327  -0.128  -0.338
    1UNL    H16   70   0.253  -0.118  -0.097
    1UNL    H17   71   0.338  -0.211   0.121
    1UNL    H18   72   0.654  -0.062   0.028
    1UNL    H19   73   0.756  -0.270  -0.028
    1UNL    H20   74   0.869  -0.174   0.070
    1UNL    H21   75   0.749  -0.290   0.247
    1UNL    H22   76   0.764   0.016   0.218
    1UNL    H23   77   0.713  -0.098   0.415
    1UNL    H24   78   0.563   0.060   0.372
    1UNL    H25   79   0.476   0.108   0.099
    1UNL    H26   80   0.423  -0.150   0.337
    1UNL    H27   81   0.309   0.086   0.249
    1UNL    H28   82  -0.138  -0.138  -0.193
    1UNL    H29   83   0.029  -0.075  -0.200
    1UNL    H30   84  -0.051   0.119  -0.062
    1UNL    H31   85  -0.211   0.059  -0.043
    1UNL    H32   86   0.002  -0.142   0.029
    1UNL    H33   87   0.002  -0.028   0.393
    1UNL    H34   88  -0.025  -0.179   0.299
    1UNL    H35   89   0.134  -0.087   0.277
    1UNL    H36   90  -0.196   0.089   0.308
    1UNL    H37   91  -0.057   0.175   0.274
    1UNL    H38   92  -0.338   0.045   0.115
    1UNL    H39   93  -0.276   0.346  -0.058
    1UNL    H40   94  -0.498   0.298  -0.250
    1UNL    H41   95  -0.339   0.247  -0.288
    1UNL    H42   96  -0.387   0.415  -0.276
    1UNL    H43   97  -0.476   0.486  -0.035
    1UNL    H44   98  -0.616   0.233  -0.014
    1UNL    H45   99  -0.384   0.434   0.163
    1UNL    H46  100  -0.659   0.380   0.185
    1UNL    H47  101  -0.428   0.216   0.293
    1UNL    H48  102  -0.657  -0.029   0.179
    1UNL    H49  103  -0.355  -0.201   0.299
    1UNL    H50  104  -0.572  -0.147   0.442
    1UNL    H51  105  -0.504  -0.320   0.412
    1UNL    H52  106  -0.680  -0.328   0.266
    1UNL    H53  107  -0.387  -0.345   0.112
    1UNL    H54  108  -0.637  -0.248   0.052
    1UNL    H55  109  -0.322  -0.129   0.011
    1UNL    H56  110  -0.484  -0.296  -0.120
    1UNL    H57  111  -0.490   0.025  -0.056
    1UNL    H58  112  -0.716  -0.023  -0.061
   0.00000   0.00000   0.00000   0.00000   0.00000   0.00000   0.00000   0.00000   0.00000
Generated with MDTraj, t= 42.0
 112
    1UNL     C1    1  -0.224  -0.009  -0.375
    1UNL     C2    2  -0.087   0.015  -0.328
    1UNL     C3    3  -0.009   0.098  -0.394
    1UNL     C4    4   0.130   0.141  -0.354
    1UNL     O1    5   0.198   0.035  -0.288
    1UNL     C5    6   0.258   0.073  -0.168
    1UNL     O2    7   0.352   0.176  -0.184
    1UNL     C6    8   0.466   0.144  -0.271
    1UNL     C7    9   0.546   0.264  -0.293
    1UNL     C8   10   0.550   0.032  -0.207
    1UNL     O3   11   0.654  -0.019  -0.288
    1UNL     C9   12   0.453  -0.088  -0.181
    1UNL     O4   13   0.413  -0.130  -0.308
    1UNL    C10   14   0.337  -0.043  -0.088
    1UNL     O5   15   0.385  -0.000   0.041
    1UNL    C11   16   0.403  -0.115   0.124
    1UNL     O6   17   0.521  -0.196   0.075
    1UNL    C12   18   0.651  -0.131   0.106
    1UNL    C13   19   0.756  -0.233   0.067
    1UNL     O7   20   0.708  -0.362   0.110
    1UNL    C14   21   0.665  -0.078   0.254
    1UNL     O8   22   0.661  -0.199   0.337
    1UNL    C15   23   0.542   0.008   0.290
    1UNL     O9   24   0.529   0.138   0.222
    1UNL    C16   25   0.415  -0.078   0.274
    1UNL    O10   26   0.294  -0.023   0.321
    1UNL    C17   27  -0.049  -0.049  -0.195
    1UNL    C18   28  -0.080   0.044  -0.077
    1UNL    C19   29  -0.051  -0.023   0.050
    1UNL    C20   30  -0.077   0.017   0.181
    1UNL    C21   31  -0.050  -0.061   0.307
    1UNL    C22   32  -0.134   0.150   0.215
    1UNL    O11   33  -0.194   0.218   0.108
    1UNL    C23   34  -0.323   0.160   0.082
    1UNL    O12   35  -0.365   0.174  -0.053
    1UNL    C24   36  -0.371   0.310  -0.094
    1UNL    C25   37  -0.408   0.327  -0.238
    1UNL    C26   38  -0.483   0.377  -0.010
    1UNL    O13   39  -0.610   0.330  -0.043
    1UNL    C27   40  -0.459   0.356   0.140
    1UNL    O14   41  -0.558   0.415   0.214
    1UNL    C28   42  -0.438   0.206   0.173
    1UNL    O15   43  -0.557   0.138   0.158
    1UNL    C29   44  -0.533  -0.002   0.165
    1UNL    O16   45  -0.439  -0.044   0.264
    1UNL    C30   46  -0.426  -0.184   0.275
    1UNL    C31   47  -0.533  -0.242   0.368
    1UNL    O17   48  -0.663  -0.201   0.327
    1UNL    C32   49  -0.425  -0.265   0.130
    1UNL    O18   50  -0.550  -0.328   0.111
    1UNL    C33   51  -0.401  -0.163   0.006
    1UNL    O19   52  -0.421  -0.232  -0.117
    1UNL    C34   53  -0.510  -0.057   0.020
    1UNL    O20   54  -0.635  -0.117  -0.021
    1UNL     H1   55  -0.224  -0.105  -0.431
    1UNL     H2   56  -0.309  -0.018  -0.291
    1UNL     H3   57  -0.249   0.063  -0.454
    1UNL     H4   58  -0.058   0.157  -0.476
    1UNL     H5   59   0.120   0.231  -0.286
    1UNL     H6   60   0.190   0.172  -0.442
    1UNL     H7   61   0.187   0.116  -0.097
    1UNL     H8   62   0.427   0.108  -0.368
    1UNL     H9   63   0.481   0.339  -0.328
    1UNL    H10   64   0.629   0.241  -0.367
    1UNL    H11   65   0.599   0.306  -0.199
    1UNL    H12   66   0.591   0.072  -0.117
    1UNL    H13   67   0.614  -0.103  -0.336
    1UNL    H14   68   0.506  -0.171  -0.129
    1UNL    H15   69   0.336  -0.071  -0.331
    1UNL    H16   70   0.266  -0.121  -0.058
    1UNL    H17   71   0.313  -0.174   0.118
    1UNL    H18   72   0.663  -0.042   0.048
    1UNL    H19   73   0.766  -0.239  -0.038
    1UNL    H20   74   0.855  -0.209   0.111
    1UNL    H21   75   0.610  -0.347   0.108
    1UNL    H22   76   0.767  -0.028   0.272
    1UNL    H23   77   0.705  -0.174   0.427
    1UNL    H24   78   0.538   0.029   0.399
    1UNL    H25   79   0.501   0.129   0.130
    1UNL    H26   80   0.427  -0.164   0.331
    1UNL    H27   81   0.285   0.058   0.272
    1UNL    H28   82  -0.115  -0.137  -0.191
    1UNL    H29   83   0.054  -0.086  -0.195
    1UNL    H30   84  -0.018   0.130  -0.071
    1UNL    H31   85  -0.183   0.079  -0.069
    1UNL    H32   86  -0.007  -0.119   0.047
    1UNL    H33   87   0.035  -0.009   0.368
    1UNL    H34   88  -0.141  -0.060   0.364
    1UNL    H35   89  -0.015  -0.168   0.278
    1UNL    H36   90  -0.208   0.133   0.289
    1UNL    H37   91  -0.067   0.214   0.266
    1UNL    H38   92  -0.313   0.047   0.093
    1UNL    H39   93  -0.276   0.349  -0.081
    1UNL    H40   94  -0.469   0.247  -0.262
    1UNL    H41   95  -0.323   0.321  -0.303
    1UNL    H42   96  -0.471   0.413  -0.263
    1UNL    H43   97  -0.479   0.488  -0.034
    1UNL    H44   98  -0.615   0.236  -0.019
    1UNL    H45   99  -0.369   0.413   0.163
    1UNL    H46  100  -0.645   0.375   0.183
    1UNL    H47  101  -0.405   0.201   0.277
    1UNL    H48  102  -0.628  -0.033   0.202
    1UNL    H49  103  -0.328  -0.187   0.327
    1UNL    H50  104  -0.526  -0.183   0.460
    1UNL    H51  105  -0.532  -0.354   0.386
    1UNL    H52  106  -0.695  -0.276   0.267
    1UNL    H53  107  -0.354  -0.346   0.142
    1UNL    H54  108  -0.604  -0.266   0.065
    1UNL    H55  109  -0.303  -0.134   0.011
    1UNL    H56  110  -0.517  -0.263  -0.112
    1UNL    H57  111  -0.492   0.031  -0.038
    1UNL    H58  112  -0.709  -0.055  -0.013
   0.00000   0.00000   0.00000   0.00000   0.00000   0.00000   0.00000   0.00000   0.00000
Generated with MDTraj, t= 43.0
 112
    1UNL     C1    1  -0.233  -0.017  -0.352
    1UNL     C2    2  -0.083  -0.002  -0.321
    1UNL     C3    3   0.000   0.068  -0.397
    1UNL     C4    4   0.146   0.111  -0.366
    1UNL     O1    5   0.210   0.013  -0.295
    1UNL     C5    6   0.272   0.073  -0.179
    1UNL     O2    7   0.343   0.192  -0.204
    1UNL     C6    8   0.458   0.166  -0.288
    1UNL     C7    9   0.529   0.295  -0.308
    1UNL     C8   10   0.553   0.061  -0.214
    1UNL     O3   11   0.676   0.042  -0.286
    1UNL     C9   12   0.475  -0.066  -0.172
    1UNL     O4   13   0.442  -0.139  -0.286
    1UNL    C10   14   0.350  -0.028  -0.095
    1UNL     O5   15   0.373   0.006   0.038
    1UNL    C11   16   0.381  -0.112   0.124
    1UNL     O6   17   0.484  -0.205   0.093
    1UNL    C12   18   0.613  -0.150   0.120
    1UNL    C13   19   0.722  -0.225   0.044
    1UNL     O7   20   0.708  -0.358   0.072
    1UNL    C14   21   0.634  -0.129   0.273
    1UNL     O8   22   0.627  -0.251   0.344
    1UNL    C15   23   0.520  -0.035   0.328
    1UNL     O9   24   0.541   0.097   0.266
    1UNL    C16   25   0.375  -0.084   0.278
    1UNL    O10   26   0.285   0.023   0.291
    1UNL    C17   27  -0.045  -0.058  -0.196
    1UNL    C18   28  -0.069   0.041  -0.076
    1UNL    C19   29  -0.071  -0.018   0.054
    1UNL    C20   30  -0.080   0.053   0.168
    1UNL    C21   31  -0.084  -0.030   0.292
    1UNL    C22   32  -0.096   0.200   0.178
    1UNL    O11   33  -0.185   0.245   0.078
    1UNL    C23   34  -0.304   0.170   0.066
    1UNL    O12   35  -0.362   0.188  -0.066
    1UNL    C24   36  -0.388   0.323  -0.091
    1UNL    C25   37  -0.408   0.345  -0.240
    1UNL    C26   38  -0.501   0.380  -0.003
    1UNL    O13   39  -0.624   0.312  -0.026
    1UNL    C27   40  -0.456   0.359   0.144
    1UNL    O14   41  -0.556   0.393   0.231
    1UNL    C28   42  -0.412   0.208   0.171
    1UNL    O15   43  -0.532   0.142   0.149
    1UNL    C29   44  -0.513  -0.002   0.164
    1UNL    O16   45  -0.408  -0.048   0.248
    1UNL    C30   46  -0.404  -0.192   0.271
    1UNL    C31   47  -0.510  -0.210   0.383
    1UNL    O17   48  -0.645  -0.194   0.327
    1UNL    C32   49  -0.423  -0.284   0.135
    1UNL    O18   50  -0.547  -0.351   0.134
    1UNL    C33   51  -0.406  -0.186   0.015
    1UNL    O19   52  -0.409  -0.249  -0.111
    1UNL    C34   53  -0.516  -0.072   0.022
    1UNL    O20   54  -0.641  -0.135  -0.000
    1UNL     H1   55  -0.257  -0.128  -0.346
    1UNL     H2   56  -0.299   0.028  -0.274
    1UNL     H3   57  -0.258   0.008  -0.460
    1UNL     H4   58  -0.042   0.115  -0.481
    1UNL     H5   59   0.142   0.207  -0.308
    1UNL     H6   60   0.200   0.131  -0.459
    1UNL     H7   61   0.190   0.111  -0.117
    1UNL     H8   62   0.427   0.125  -0.385
    1UNL     H9   63   0.483   0.363  -0.375
    1UNL    H10   64   0.636   0.276  -0.334
    1UNL    H11   65   0.535   0.358  -0.208
    1UNL    H12   66   0.583   0.118  -0.129
    1UNL    H13   67   0.666  -0.035  -0.347
    1UNL    H14   68   0.541  -0.139  -0.121
    1UNL    H15   69   0.357  -0.107  -0.312
    1UNL    H16   70   0.291  -0.123  -0.097
    1UNL    H17   71   0.285  -0.163   0.101
    1UNL    H18   72   0.601  -0.053   0.075
    1UNL    H19   73   0.711  -0.206  -0.060
    1UNL    H20   74   0.821  -0.196   0.081
    1UNL    H21   75   0.649  -0.361   0.150
    1UNL    H22   76   0.738  -0.084   0.289
    1UNL    H23   77   0.667  -0.239   0.436
    1UNL    H24   78   0.515  -0.026   0.440
    1UNL    H25   79   0.519   0.086   0.170
    1UNL    H26   80   0.342  -0.166   0.332
    1UNL    H27   81   0.327   0.106   0.260
    1UNL    H28   82  -0.089  -0.151  -0.162
    1UNL    H29   83   0.063  -0.083  -0.196
    1UNL    H30   84   0.001   0.123  -0.079
    1UNL    H31   85  -0.165   0.086  -0.095
    1UNL    H32   86  -0.063  -0.125   0.074
    1UNL    H33   87   0.022  -0.058   0.331
    1UNL    H34   88  -0.135   0.024   0.381
    1UNL    H35   89  -0.134  -0.115   0.271
    1UNL    H36   90  -0.125   0.231   0.276
    1UNL    H37   91  -0.002   0.249   0.164
    1UNL    H38   92  -0.287   0.059   0.081
    1UNL    H39   93  -0.299   0.372  -0.074
    1UNL    H40   94  -0.513   0.354  -0.253
    1UNL    H41   95  -0.377   0.254  -0.285
    1UNL    H42   96  -0.363   0.431  -0.285
    1UNL    H43   97  -0.538   0.486  -0.014
    1UNL    H44   98  -0.616   0.216  -0.003
    1UNL    H45   99  -0.376   0.431   0.170
    1UNL    H46  100  -0.627   0.330   0.219
    1UNL    H47  101  -0.379   0.183   0.274
    1UNL    H48  102  -0.607  -0.033   0.210
    1UNL    H49  103  -0.302  -0.210   0.309
    1UNL    H50  104  -0.512  -0.130   0.461
    1UNL    H51  105  -0.502  -0.313   0.432
    1UNL    H52  106  -0.655  -0.262   0.262
    1UNL    H53  107  -0.346  -0.358   0.125
    1UNL    H54  108  -0.610  -0.322   0.061
    1UNL    H55  109  -0.312  -0.146   0.011
    1UNL    H56  110  -0.492  -0.296  -0.125
    1UNL    H57  111  -0.512  -0.000  -0.057
    1UNL    H58  112  -0.720  -0.085   0.028
   0.00000   0.00000   0.00000   0.00000   0.00000   0.00000   0.00000   0.00000   0.00000
Generated with MDTraj, t= 44.0
 112
    1UNL     C1    1  -0.222  -0.045  -0.386
    1UNL     C2    2  -0.090  -0.016  -0.326
    1UNL     C3    3  -0.001   0.056  -0.392
    1UNL     C4    4   0.131   0.109  -0.347
    1UNL     O1    5   0.210   0.017  -0.286
    1UNL     C5    6   0.282   0.078  -0.172
    1UNL     O2    7   0.348   0.201  -0.206
    1UNL     C6    8   0.464   0.176  -0.287
    1UNL     C7    9   0.520   0.305  -0.341
    1UNL     C8   10   0.569   0.090  -0.209
    1UNL     O3   11   0.692   0.090  -0.283
    1UNL     C9   12   0.505  -0.047  -0.176
    1UNL     O4   13   0.494  -0.124  -0.298
    1UNL    C10   14   0.368  -0.026  -0.102
    1UNL     O5   15   0.362   0.003   0.036
    1UNL    C11   16   0.361  -0.119   0.112
    1UNL     O6   17   0.473  -0.198   0.068
    1UNL    C12   18   0.597  -0.154   0.125
    1UNL    C13   19   0.709  -0.249   0.067
    1UNL     O7   20   0.707  -0.377   0.114
    1UNL    C14   21   0.596  -0.157   0.278
    1UNL     O8   22   0.548  -0.283   0.321
    1UNL    C15   23   0.492  -0.054   0.313
    1UNL     O9   24   0.531   0.081   0.276
    1UNL    C16   25   0.354  -0.097   0.262
    1UNL    O10   26   0.268   0.014   0.289
    1UNL    C17   27  -0.059  -0.069  -0.182
    1UNL    C18   28  -0.061   0.035  -0.077
    1UNL    C19   29  -0.048  -0.008   0.062
    1UNL    C20   30  -0.057   0.066   0.176
    1UNL    C21   31  -0.024   0.007   0.309
    1UNL    C22   32  -0.109   0.208   0.160
    1UNL    O11   33  -0.185   0.239   0.043
    1UNL    C23   34  -0.310   0.175   0.043
    1UNL    O12   35  -0.379   0.200  -0.081
    1UNL    C24   36  -0.406   0.337  -0.101
    1UNL    C25   37  -0.454   0.365  -0.245
    1UNL    C26   38  -0.504   0.392   0.004
    1UNL    O13   39  -0.623   0.324  -0.013
    1UNL    C27   40  -0.454   0.363   0.147
    1UNL    O14   41  -0.556   0.392   0.235
    1UNL    C28   42  -0.412   0.214   0.156
    1UNL    O15   43  -0.531   0.133   0.161
    1UNL    C29   44  -0.509  -0.012   0.170
    1UNL    O16   45  -0.397  -0.046   0.252
    1UNL    C30   46  -0.388  -0.187   0.281
    1UNL    C31   47  -0.484  -0.226   0.389
    1UNL    O17   48  -0.616  -0.208   0.346
    1UNL    C32   49  -0.410  -0.280   0.154
    1UNL    O18   50  -0.534  -0.356   0.145
    1UNL    C33   51  -0.404  -0.199   0.022
    1UNL    O19   52  -0.429  -0.278  -0.091
    1UNL    C34   53  -0.500  -0.072   0.026
    1UNL    O20   54  -0.623  -0.105  -0.017
    1UNL     H1   55  -0.278  -0.128  -0.328
    1UNL     H2   56  -0.293   0.034  -0.376
    1UNL     H3   57  -0.208  -0.090  -0.494
    1UNL     H4   58  -0.029   0.091  -0.493
    1UNL     H5   59   0.119   0.194  -0.277
    1UNL     H6   60   0.189   0.153  -0.428
    1UNL     H7   61   0.202   0.116  -0.108
    1UNL     H8   62   0.431   0.112  -0.370
    1UNL     H9   63   0.442   0.383  -0.364
    1UNL    H10   64   0.588   0.281  -0.424
    1UNL    H11   65   0.592   0.353  -0.267
    1UNL    H12   66   0.586   0.133  -0.113
    1UNL    H13   67   0.693   0.013  -0.338
    1UNL    H14   68   0.579  -0.102  -0.107
    1UNL    H15   69   0.406  -0.092  -0.333
    1UNL    H16   70   0.314  -0.125  -0.112
    1UNL    H17   71   0.268  -0.173   0.077
    1UNL    H18   72   0.613  -0.053   0.091
    1UNL    H19   73   0.685  -0.263  -0.037
    1UNL    H20   74   0.802  -0.199   0.089
    1UNL    H21   75   0.668  -0.378   0.204
    1UNL    H22   76   0.699  -0.124   0.317
    1UNL    H23   77   0.530  -0.296   0.415
    1UNL    H24   78   0.487  -0.040   0.425
    1UNL    H25   79   0.513   0.090   0.182
    1UNL    H26   80   0.330  -0.187   0.311
    1UNL    H27   81   0.313   0.102   0.290
    1UNL    H28   82  -0.125  -0.150  -0.152
    1UNL    H29   83   0.044  -0.114  -0.172
    1UNL    H30   84   0.023   0.103  -0.092
    1UNL    H31   85  -0.148   0.093  -0.086
    1UNL    H32   86  -0.022  -0.114   0.081
    1UNL    H33   87   0.044   0.064   0.370
    1UNL    H34   88  -0.113  -0.007   0.384
    1UNL    H35   89   0.015  -0.092   0.297
    1UNL    H36   90  -0.167   0.239   0.245
    1UNL    H37   91  -0.026   0.280   0.166
    1UNL    H38   92  -0.288   0.066   0.062
    1UNL    H39   93  -0.315   0.386  -0.100
    1UNL    H40   94  -0.494   0.273  -0.285
    1UNL    H41   95  -0.372   0.394  -0.306
    1UNL    H42   96  -0.533   0.433  -0.251
    1UNL    H43   97  -0.525   0.500  -0.002
    1UNL    H44   98  -0.592   0.230  -0.021
    1UNL    H45   99  -0.369   0.433   0.163
    1UNL    H46  100  -0.637   0.343   0.202
    1UNL    H47  101  -0.364   0.187   0.253
    1UNL    H48  102  -0.600  -0.041   0.222
    1UNL    H49  103  -0.288  -0.205   0.324
    1UNL    H50  104  -0.467  -0.153   0.472
    1UNL    H51  105  -0.482  -0.331   0.435
    1UNL    H52  106  -0.656  -0.284   0.289
    1UNL    H53  107  -0.329  -0.349   0.158
    1UNL    H54  108  -0.607  -0.304   0.106
    1UNL    H55  109  -0.309  -0.165   0.010
    1UNL    H56  110  -0.476  -0.362  -0.063
    1UNL    H57  111  -0.468   0.008  -0.036
    1UNL    H58  112  -0.683  -0.028  -0.000
   0.00000   0.00000   0.00000   0.00000   0.00000   0.00000   0.00000   0.00000   0.00000
Generated with MDTraj, t= 45.0
 112
    1UNL     C1    1  -0.190  -0.100  -0.382
    1UNL     C2    2  -0.067  -0.034  -0.333
    1UNL     C3    3  -0.002   0.053  -0.409
    1UNL     C4    4   0.123   0.115  -0.362
    1UNL     O1    5   0.203   0.034  -0.282
    1UNL     C5    6   0.284   0.093  -0.178
    1UNL     O2    7   0.351   0.214  -0.213
    1UNL     C6    8   0.467   0.199  -0.298
    1UNL     C7    9   0.518   0.334  -0.348
    1UNL     C8   10   0.569   0.121  -0.216
    1UNL     O3   11   0.695   0.115  -0.282
    1UNL     C9   12   0.509  -0.021  -0.199
    1UNL     O4   13   0.481  -0.078  -0.330
    1UNL    C10   14   0.374  -0.020  -0.122
    1UNL     O5   15   0.382  -0.004   0.021
    1UNL    C11   16   0.375  -0.128   0.098
    1UNL     O6   17   0.478  -0.226   0.074
    1UNL    C12   18   0.594  -0.198   0.143
    1UNL    C13   19   0.708  -0.303   0.110
    1UNL     O7   20   0.677  -0.427   0.167
    1UNL    C14   21   0.579  -0.181   0.290
    1UNL     O8   22   0.542  -0.297   0.361
    1UNL    C15   23   0.481  -0.061   0.320
    1UNL     O9   24   0.524   0.067   0.280
    1UNL    C16   25   0.344  -0.100   0.250
    1UNL    O10   26   0.236  -0.004   0.262
    1UNL    C17   27  -0.020  -0.062  -0.194
    1UNL    C18   28  -0.072   0.042  -0.095
    1UNL    C19   29  -0.037   0.016   0.044
    1UNL    C20   30  -0.056   0.084   0.158
    1UNL    C21   31  -0.049   0.013   0.287
    1UNL    C22   32  -0.111   0.220   0.157
    1UNL    O11   33  -0.204   0.248   0.047
    1UNL    C23   34  -0.323   0.176   0.050
    1UNL    O12   35  -0.396   0.191  -0.073
    1UNL    C24   36  -0.425   0.331  -0.101
    1UNL    C25   37  -0.477   0.347  -0.247
    1UNL    C26   38  -0.514   0.384   0.013
    1UNL    O13   39  -0.636   0.311  -0.004
    1UNL    C27   40  -0.453   0.361   0.158
    1UNL    O14   41  -0.537   0.404   0.263
    1UNL    C28   42  -0.419   0.210   0.163
    1UNL    O15   43  -0.535   0.130   0.155
    1UNL    C29   44  -0.510  -0.010   0.162
    1UNL    O16   45  -0.388  -0.038   0.237
    1UNL    C30   46  -0.370  -0.174   0.268
    1UNL    C31   47  -0.442  -0.202   0.399
    1UNL    O17   48  -0.584  -0.202   0.392
    1UNL    C32   49  -0.411  -0.267   0.156
    1UNL    O18   50  -0.542  -0.324   0.163
    1UNL    C33   51  -0.393  -0.190   0.024
    1UNL    O19   52  -0.396  -0.267  -0.096
    1UNL    C34   53  -0.502  -0.075   0.021
    1UNL    O20   54  -0.618  -0.135  -0.024
    1UNL     H1   55  -0.285  -0.094  -0.316
    1UNL     H2   56  -0.227  -0.047  -0.468
    1UNL     H3   57  -0.162  -0.210  -0.403
    1UNL     H4   58  -0.045   0.069  -0.505
    1UNL     H5   59   0.107   0.207  -0.304
    1UNL     H6   60   0.187   0.156  -0.439
    1UNL     H7   61   0.214   0.129  -0.102
    1UNL     H8   62   0.443   0.136  -0.384
    1UNL     H9   63   0.455   0.374  -0.439
    1UNL    H10   64   0.627   0.324  -0.359
    1UNL    H11   65   0.501   0.405  -0.271
    1UNL    H12   66   0.579   0.169  -0.120
    1UNL    H13   67   0.699   0.037  -0.344
    1UNL    H14   68   0.596  -0.075  -0.146
    1UNL    H15   69   0.392  -0.049  -0.354
    1UNL    H16   70   0.317  -0.116  -0.141
    1UNL    H17   71   0.282  -0.177   0.053
    1UNL    H18   72   0.619  -0.105   0.092
    1UNL    H19   73   0.708  -0.313   0.005
    1UNL    H20   74   0.803  -0.269   0.153
    1UNL    H21   75   0.655  -0.417   0.264
    1UNL    H22   76   0.683  -0.154   0.325
    1UNL    H23   77   0.516  -0.277   0.449
    1UNL    H24   78   0.467  -0.049   0.430
    1UNL    H25   79   0.504   0.069   0.183
    1UNL    H26   80   0.312  -0.193   0.290
    1UNL    H27   81   0.260   0.086   0.239
    1UNL    H28   82  -0.069  -0.154  -0.160
    1UNL    H29   83   0.090  -0.081  -0.198
    1UNL    H30   84  -0.039   0.144  -0.119
    1UNL    H31   85  -0.178   0.049  -0.101
    1UNL    H32   86   0.000  -0.079   0.063
    1UNL    H33   87  -0.004   0.071   0.359
    1UNL    H34   88  -0.148  -0.005   0.329
    1UNL    H35   89   0.002  -0.092   0.269
    1UNL    H36   90  -0.155   0.242   0.253
    1UNL    H37   91  -0.034   0.301   0.150
    1UNL    H38   92  -0.291   0.069   0.066
    1UNL    H39   93  -0.331   0.375  -0.099
    1UNL    H40   94  -0.586   0.362  -0.256
    1UNL    H41   95  -0.448   0.266  -0.310
    1UNL    H42   96  -0.440   0.431  -0.295
    1UNL    H43   97  -0.541   0.489   0.006
    1UNL    H44   98  -0.619   0.222   0.033
    1UNL    H45   99  -0.361   0.427   0.172
    1UNL    H46  100  -0.620   0.345   0.256
    1UNL    H47  101  -0.374   0.189   0.265
    1UNL    H48  102  -0.597  -0.048   0.213
    1UNL    H49  103  -0.264  -0.198   0.284
    1UNL    H50  104  -0.412  -0.129   0.477
    1UNL    H51  105  -0.401  -0.301   0.432
    1UNL    H52  106  -0.605  -0.278   0.339
    1UNL    H53  107  -0.341  -0.350   0.155
    1UNL    H54  108  -0.597  -0.291   0.094
    1UNL    H55  109  -0.297  -0.155   0.023
    1UNL    H56  110  -0.484  -0.255  -0.139
    1UNL    H57  111  -0.478  -0.008  -0.057
    1UNL    H58  112  -0.686  -0.064  -0.040
   0.00000   0.00000   0.00000   0.00000   0.00000   0.00000   0.00000   0.00000   0.00000
Generated with MDTraj, t= 46.0
 112
    1UNL     C1    1  -0.156  -0.113  -0.403
    1UNL     C2    2  -0.044  -0.043  -0.334
    1UNL     C3    3   0.022   0.042  -0.416
    1UNL     C4    4   0.138   0.126  -0.363
    1UNL     O1    5   0.247   0.048  -0.311
    1UNL     C5    6   0.292   0.080  -0.185
    1UNL     O2    7   0.349   0.208  -0.180
    1UNL     C6    8   0.464   0.229  -0.271
    1UNL     C7    9   0.503   0.377  -0.282
    1UNL     C8   10   0.576   0.130  -0.232
    1UNL     O3   11   0.684   0.125  -0.322
    1UNL     C9   12   0.523  -0.016  -0.215
    1UNL     O4   13   0.507  -0.087  -0.339
    1UNL    C10   14   0.391  -0.029  -0.133
    1UNL     O5   15   0.415  -0.015   0.009
    1UNL    C11   16   0.382  -0.134   0.079
    1UNL     O6   17   0.477  -0.242   0.081
    1UNL    C12   18   0.595  -0.214   0.147
    1UNL    C13   19   0.684  -0.337   0.146
    1UNL     O7   20   0.612  -0.454   0.184
    1UNL    C14   21   0.569  -0.175   0.292
    1UNL     O8   22   0.543  -0.292   0.374
    1UNL    C15   23   0.459  -0.058   0.298
    1UNL     O9   24   0.512   0.063   0.266
    1UNL    C16   25   0.334  -0.094   0.222
    1UNL    O10   26   0.230   0.004   0.227
    1UNL    C17   27  -0.025  -0.070  -0.188
    1UNL    C18   28  -0.070   0.042  -0.084
    1UNL    C19   29  -0.064  -0.002   0.055
    1UNL    C20   30  -0.085   0.080   0.158
    1UNL    C21   31  -0.071   0.030   0.304
    1UNL    C22   32  -0.112   0.226   0.145
    1UNL    O11   33  -0.210   0.256   0.039
    1UNL    C23   34  -0.330   0.177   0.042
    1UNL    O12   35  -0.406   0.186  -0.083
    1UNL    C24   36  -0.441   0.326  -0.112
    1UNL    C25   37  -0.513   0.322  -0.247
    1UNL    C26   38  -0.524   0.385   0.006
    1UNL    O13   39  -0.656   0.331   0.008
    1UNL    C27   40  -0.463   0.367   0.152
    1UNL    O14   41  -0.554   0.388   0.258
    1UNL    C28   42  -0.424   0.215   0.161
    1UNL    O15   43  -0.540   0.128   0.164
    1UNL    C29   44  -0.493  -0.004   0.167
    1UNL    O16   45  -0.371  -0.029   0.251
    1UNL    C30   46  -0.345  -0.173   0.270
    1UNL    C31   47  -0.411  -0.225   0.403
    1UNL    O17   48  -0.547  -0.190   0.423
    1UNL    C32   49  -0.389  -0.263   0.149
    1UNL    O18   50  -0.520  -0.311   0.162
    1UNL    C33   51  -0.387  -0.184   0.016
    1UNL    O19   52  -0.419  -0.267  -0.094
    1UNL    C34   53  -0.492  -0.066   0.027
    1UNL    O20   54  -0.621  -0.126   0.007
    1UNL     H1   55  -0.254  -0.051  -0.402
    1UNL     H2   56  -0.135  -0.116  -0.513
    1UNL     H3   57  -0.166  -0.213  -0.359
    1UNL     H4   58  -0.012   0.051  -0.517
    1UNL     H5   59   0.103   0.206  -0.298
    1UNL     H6   60   0.184   0.190  -0.439
    1UNL     H7   61   0.214   0.086  -0.109
    1UNL     H8   62   0.424   0.197  -0.368
    1UNL     H9   63   0.407   0.443  -0.274
    1UNL    H10   64   0.574   0.400  -0.366
    1UNL    H11   65   0.556   0.406  -0.196
    1UNL    H12   66   0.609   0.172  -0.138
    1UNL    H13   67   0.680   0.044  -0.388
    1UNL    H14   68   0.609  -0.069  -0.160
    1UNL    H15   69   0.420  -0.055  -0.375
    1UNL    H16   70   0.347  -0.131  -0.154
    1UNL    H17   71   0.287  -0.174   0.032
    1UNL    H18   72   0.640  -0.138   0.080
    1UNL    H19   73   0.719  -0.370   0.051
    1UNL    H20   74   0.767  -0.324   0.216
    1UNL    H21   75   0.548  -0.439   0.257
    1UNL    H22   76   0.661  -0.131   0.328
    1UNL    H23   77   0.543  -0.259   0.466
    1UNL    H24   78   0.426  -0.055   0.403
    1UNL    H25   79   0.502   0.074   0.169
    1UNL    H26   80   0.296  -0.188   0.259
    1UNL    H27   81   0.272   0.094   0.225
    1UNL    H28   82  -0.084  -0.158  -0.162
    1UNL    H29   83   0.077  -0.097  -0.154
    1UNL    H30   84  -0.010   0.134  -0.099
    1UNL    H31   85  -0.165   0.083  -0.116
    1UNL    H32   86  -0.041  -0.108   0.087
    1UNL    H33   87   0.021   0.064   0.345
    1UNL    H34   88  -0.136   0.082   0.363
    1UNL    H35   89  -0.087  -0.084   0.309
    1UNL    H36   90  -0.138   0.279   0.237
    1UNL    H37   91  -0.015   0.280   0.120
    1UNL    H38   92  -0.292   0.071   0.047
    1UNL    H39   93  -0.351   0.375  -0.117
    1UNL    H40   94  -0.563   0.228  -0.269
    1UNL    H41   95  -0.450   0.348  -0.327
    1UNL    H42   96  -0.593   0.391  -0.249
    1UNL    H43   97  -0.542   0.489  -0.012
    1UNL    H44   98  -0.650   0.237   0.043
    1UNL    H45   99  -0.371   0.432   0.182
    1UNL    H46  100  -0.635   0.344   0.223
    1UNL    H47  101  -0.371   0.206   0.263
    1UNL    H48  102  -0.583  -0.042   0.214
    1UNL    H49  103  -0.238  -0.186   0.276
    1UNL    H50  104  -0.349  -0.183   0.483
    1UNL    H51  105  -0.401  -0.333   0.416
    1UNL    H52  106  -0.592  -0.215   0.335
    1UNL    H53  107  -0.326  -0.352   0.137
    1UNL    H54  108  -0.587  -0.257   0.107
    1UNL    H55  109  -0.292  -0.148   0.006
    1UNL    H56  110  -0.511  -0.291  -0.087
    1UNL    H57  111  -0.479   0.003  -0.052
    1UNL    H58  112  -0.683  -0.056  -0.024
   0.00000   0.00000   0.00000   0.00000   0.00000   0.00000   0.00000   0.00000   0.00000
Generated with MDTraj, t= 47.0
 112
    1UNL     C1    1  -0.147  -0.097  -0.388
    1UNL     C2    2  -0.032  -0.041  -0.329
    1UNL     C3    3   0.041   0.055  -0.391
    1UNL     C4    4   0.159   0.118  -0.321
    1UNL     O1    5   0.257   0.019  -0.292
    1UNL     C5    6   0.315   0.047  -0.168
    1UNL     O2    7   0.355   0.185  -0.147
    1UNL     C6    8   0.463   0.226  -0.233
    1UNL     C7    9   0.495   0.369  -0.212
    1UNL     C8   10   0.594   0.134  -0.227
    1UNL     O3   11   0.681   0.164  -0.339
    1UNL     C9   12   0.555  -0.017  -0.233
    1UNL     O4   13   0.519  -0.059  -0.364
    1UNL    C10   14   0.434  -0.056  -0.142
    1UNL     O5   15   0.464  -0.049  -0.008
    1UNL    C11   16   0.368  -0.133   0.065
    1UNL     O6   17   0.441  -0.251   0.095
    1UNL    C12   18   0.568  -0.221   0.139
    1UNL    C13   19   0.647  -0.349   0.134
    1UNL     O7   20   0.587  -0.463   0.190
    1UNL    C14   21   0.548  -0.168   0.286
    1UNL     O8   22   0.492  -0.270   0.363
    1UNL    C15   23   0.450  -0.037   0.288
    1UNL     O9   24   0.522   0.066   0.232
    1UNL    C16   25   0.322  -0.076   0.207
    1UNL    O10   26   0.227   0.026   0.203
    1UNL    C17   27  -0.011  -0.074  -0.186
    1UNL    C18   28  -0.076   0.024  -0.094
    1UNL    C19   29  -0.051  -0.001   0.050
    1UNL    C20   30  -0.064   0.088   0.149
    1UNL    C21   31  -0.033   0.051   0.292
    1UNL    C22   32  -0.104   0.229   0.112
    1UNL    O11   33  -0.215   0.259   0.025
    1UNL    C23   34  -0.340   0.185   0.030
    1UNL    O12   35  -0.418   0.195  -0.090
    1UNL    C24   36  -0.459   0.329  -0.118
    1UNL    C25   37  -0.535   0.341  -0.254
    1UNL    C26   38  -0.556   0.366   0.005
    1UNL    O13   39  -0.666   0.276   0.022
    1UNL    C27   40  -0.477   0.370   0.138
    1UNL    O14   41  -0.558   0.406   0.244
    1UNL    C28   42  -0.419   0.229   0.150
    1UNL    O15   43  -0.521   0.125   0.186
    1UNL    C29   44  -0.484  -0.005   0.181
    1UNL    O16   45  -0.346  -0.028   0.223
    1UNL    C30   46  -0.331  -0.168   0.265
    1UNL    C31   47  -0.386  -0.194   0.407
    1UNL    O17   48  -0.521  -0.221   0.422
    1UNL    C32   49  -0.390  -0.267   0.145
    1UNL    O18   50  -0.518  -0.329   0.168
    1UNL    C33   51  -0.410  -0.181   0.014
    1UNL    O19   52  -0.449  -0.266  -0.091
    1UNL    C34   53  -0.510  -0.065   0.043
    1UNL    O20   54  -0.641  -0.119   0.048
    1UNL     H1   55  -0.212  -0.027  -0.450
    1UNL     H2   56  -0.114  -0.176  -0.468
    1UNL     H3   57  -0.207  -0.148  -0.316
    1UNL     H4   58   0.019   0.085  -0.495
    1UNL     H5   59   0.125   0.173  -0.233
    1UNL     H6   60   0.195   0.202  -0.380
    1UNL     H7   61   0.245   0.031  -0.085
    1UNL     H8   62   0.419   0.206  -0.332
    1UNL     H9   63   0.412   0.441  -0.218
    1UNL    H10   64   0.589   0.400  -0.268
    1UNL    H11   65   0.527   0.381  -0.109
    1UNL    H12   66   0.653   0.154  -0.136
    1UNL    H13   67   0.665   0.109  -0.411
    1UNL    H14   68   0.643  -0.083  -0.202
    1UNL    H15   69   0.423  -0.045  -0.373
    1UNL    H16   70   0.393  -0.158  -0.166
    1UNL    H17   71   0.271  -0.151   0.011
    1UNL    H18   72   0.618  -0.146   0.071
    1UNL    H19   73   0.667  -0.380   0.032
    1UNL    H20   74   0.741  -0.341   0.190
    1UNL    H21   75   0.534  -0.446   0.271
    1UNL    H22   76   0.641  -0.141   0.330
    1UNL    H23   77   0.498  -0.248   0.464
    1UNL    H24   78   0.414  -0.014   0.387
    1UNL    H25   79   0.518   0.061   0.135
    1UNL    H26   80   0.272  -0.164   0.251
    1UNL    H27   81   0.276   0.107   0.171
    1UNL    H28   82  -0.057  -0.172  -0.164
    1UNL    H29   83   0.096  -0.085  -0.173
    1UNL    H30   84  -0.036   0.124  -0.115
    1UNL    H31   85  -0.184   0.038  -0.105
    1UNL    H32   86  -0.020  -0.094   0.080
    1UNL    H33   87  -0.033   0.134   0.365
    1UNL    H34   88  -0.107  -0.008   0.335
    1UNL    H35   89   0.047  -0.007   0.289
    1UNL    H36   90  -0.123   0.278   0.209
    1UNL    H37   91  -0.015   0.291   0.072
    1UNL    H38   92  -0.317   0.076   0.035
    1UNL    H39   93  -0.376   0.391  -0.117
    1UNL    H40   94  -0.639   0.332  -0.238
    1UNL    H41   95  -0.500   0.270  -0.325
    1UNL    H42   96  -0.520   0.440  -0.296
    1UNL    H43   97  -0.592   0.462  -0.025
    1UNL    H44   98  -0.625   0.194   0.051
    1UNL    H45   99  -0.385   0.443   0.141
    1UNL    H46  100  -0.642   0.362   0.235
    1UNL    H47  101  -0.359   0.229   0.249
    1UNL    H48  102  -0.559  -0.044   0.248
    1UNL    H49  103  -0.224  -0.187   0.264
    1UNL    H50  104  -0.371  -0.115   0.479
    1UNL    H51  105  -0.335  -0.279   0.443
    1UNL    H52  106  -0.559  -0.270   0.348
    1UNL    H53  107  -0.318  -0.348   0.120
    1UNL    H54  108  -0.589  -0.279   0.129
    1UNL    H55  109  -0.322  -0.134  -0.010
    1UNL    H56  110  -0.540  -0.310  -0.069
    1UNL    H57  111  -0.513   0.001  -0.040
    1UNL    H58  112  -0.705  -0.049   0.025
   0.00000   0.00000   0.00000   0.00000   0.00000   0.00000   0.00000   0.00000   0.00000
Generated with MDTraj, t= 48.0
 112
    1UNL     C1    1  -0.166  -0.088  -0.417
    1UNL     C2    2  -0.056  -0.031  -0.340
    1UNL     C3    3   0.034   0.048  -0.401
    1UNL     C4    4   0.153   0.117  -0.337
    1UNL     O1    5   0.261   0.026  -0.321
    1UNL     C5    6   0.315   0.039  -0.189
    1UNL     O2    7   0.352   0.174  -0.148
    1UNL     C6    8   0.463   0.222  -0.216
    1UNL     C7    9   0.493   0.366  -0.184
    1UNL     C8   10   0.586   0.136  -0.196
    1UNL     O3   11   0.688   0.192  -0.279
    1UNL     C9   12   0.556  -0.008  -0.237
    1UNL     O4   13   0.531  -0.005  -0.374
    1UNL    C10   14   0.433  -0.060  -0.160
    1UNL     O5   15   0.474  -0.061  -0.023
    1UNL    C11   16   0.384  -0.137   0.059
    1UNL     O6   17   0.434  -0.263   0.103
    1UNL    C12   18   0.562  -0.250   0.156
    1UNL    C13   19   0.631  -0.389   0.155
    1UNL     O7   20   0.575  -0.479   0.254
    1UNL    C14   21   0.531  -0.192   0.300
    1UNL     O8   22   0.455  -0.275   0.377
    1UNL    C15   23   0.467  -0.047   0.279
    1UNL     O9   24   0.564   0.042   0.232
    1UNL    C16   25   0.345  -0.050   0.179
    1UNL    O10   26   0.309   0.084   0.137
    1UNL    C17   27  -0.037  -0.061  -0.193
    1UNL    C18   28  -0.081   0.046  -0.100
    1UNL    C19   29  -0.057   0.020   0.043
    1UNL    C20   30  -0.073   0.113   0.137
    1UNL    C21   31  -0.064   0.091   0.283
    1UNL    C22   32  -0.122   0.250   0.096
    1UNL    O11   33  -0.229   0.258   0.008
    1UNL    C23   34  -0.340   0.170   0.034
    1UNL    O12   35  -0.430   0.171  -0.080
    1UNL    C24   36  -0.460   0.302  -0.119
    1UNL    C25   37  -0.534   0.295  -0.257
    1UNL    C26   38  -0.540   0.360   0.004
    1UNL    O13   39  -0.666   0.296   0.021
    1UNL    C27   40  -0.464   0.356   0.140
    1UNL    O14   41  -0.553   0.391   0.242
    1UNL    C28   42  -0.413   0.213   0.158
    1UNL    O15   43  -0.525   0.128   0.196
    1UNL    C29   44  -0.489  -0.009   0.205
    1UNL    O16   45  -0.343  -0.031   0.224
    1UNL    C30   46  -0.313  -0.170   0.246
    1UNL    C31   47  -0.351  -0.213   0.384
    1UNL    O17   48  -0.491  -0.192   0.410
    1UNL    C32   49  -0.382  -0.263   0.136
    1UNL    O18   50  -0.487  -0.343   0.181
    1UNL    C33   51  -0.430  -0.178   0.020
    1UNL    O19   52  -0.491  -0.260  -0.077
    1UNL    C34   53  -0.530  -0.065   0.067
    1UNL    O20   54  -0.657  -0.123   0.072
    1UNL     H1   55  -0.204  -0.038  -0.509
    1UNL     H2   56  -0.137  -0.197  -0.448
    1UNL     H3   57  -0.248  -0.105  -0.348
    1UNL     H4   58   0.035   0.052  -0.506
    1UNL     H5   59   0.125   0.169  -0.247
    1UNL     H6   60   0.176   0.201  -0.405
    1UNL     H7   61   0.236   0.013  -0.117
    1UNL     H8   62   0.440   0.211  -0.323
    1UNL     H9   63   0.413   0.429  -0.208
    1UNL    H10   64   0.585   0.407  -0.234
    1UNL    H11   65   0.511   0.379  -0.073
    1UNL    H12   66   0.624   0.139  -0.090
    1UNL    H13   67   0.673   0.161  -0.378
    1UNL    H14   68   0.640  -0.080  -0.222
    1UNL    H15   69   0.436   0.006  -0.386
    1UNL    H16   70   0.404  -0.161  -0.190
    1UNL    H17   71   0.293  -0.155  -0.001
    1UNL    H18   72   0.621  -0.170   0.105
    1UNL    H19   73   0.621  -0.440   0.060
    1UNL    H20   74   0.738  -0.385   0.181
    1UNL    H21   75   0.487  -0.441   0.268
    1UNL    H22   76   0.622  -0.177   0.353
    1UNL    H23   77   0.445  -0.238   0.472
    1UNL    H24   78   0.423  -0.011   0.371
    1UNL    H25   79   0.568   0.034   0.133
    1UNL    H26   80   0.260  -0.099   0.232
    1UNL    H27   81   0.354   0.104   0.053
    1UNL    H28   82  -0.100  -0.153  -0.173
    1UNL    H29   83   0.066  -0.087  -0.178
    1UNL    H30   84  -0.032   0.142  -0.120
    1UNL    H31   85  -0.191   0.058  -0.122
    1UNL    H32   86  -0.019  -0.078   0.076
    1UNL    H33   87  -0.104   0.171   0.342
    1UNL    H34   88  -0.126   0.015   0.319
    1UNL    H35   89   0.038   0.062   0.309
    1UNL    H36   90  -0.130   0.327   0.175
    1UNL    H37   91  -0.032   0.294   0.038
    1UNL    H38   92  -0.298   0.066   0.035
    1UNL    H39   93  -0.373   0.357  -0.122
    1UNL    H40   94  -0.603   0.219  -0.244
    1UNL    H41   95  -0.464   0.274  -0.335
    1UNL    H42   96  -0.584   0.390  -0.278
    1UNL    H43   97  -0.567   0.462  -0.023
    1UNL    H44   98  -0.652   0.212   0.071
    1UNL    H45   99  -0.376   0.432   0.160
    1UNL    H46  100  -0.621   0.316   0.254
    1UNL    H47  101  -0.341   0.213   0.250
    1UNL    H48  102  -0.545  -0.036   0.291
    1UNL    H49  103  -0.205  -0.175   0.222
    1UNL    H50  104  -0.287  -0.165   0.457
    1UNL    H51  105  -0.335  -0.316   0.395
    1UNL    H52  106  -0.550  -0.246   0.353
    1UNL    H53  107  -0.304  -0.335   0.097
    1UNL    H54  108  -0.575  -0.316   0.139
    1UNL    H55  109  -0.345  -0.134  -0.016
    1UNL    H56  110  -0.578  -0.230  -0.093
    1UNL    H57  111  -0.538   0.008  -0.010
    1UNL    H58  112  -0.724  -0.052   0.086
   0.00000   0.00000   0.00000   0.00000   0.00000   0.00000   0.00000   0.00000   0.00000
Generated with MDTraj, t= 49.0
 112
    1UNL     C1    1  -0.167  -0.074  -0.424
    1UNL     C2    2  -0.046  -0.019  -0.346
    1UNL     C3    3   0.044   0.049  -0.419
    1UNL     C4    4   0.170   0.113  -0.367
    1UNL     O1    5   0.272   0.022  -0.334
    1UNL     C5    6   0.323   0.027  -0.199
    1UNL     O2    7   0.338   0.160  -0.152
    1UNL     C6    8   0.452   0.221  -0.209
    1UNL     C7    9   0.465   0.364  -0.155
    1UNL     C8   10   0.577   0.144  -0.183
    1UNL     O3   11   0.690   0.216  -0.234
    1UNL     C9   12   0.567   0.001  -0.244
    1UNL     O4   13   0.542   0.019  -0.387
    1UNL    C10   14   0.449  -0.061  -0.170
    1UNL     O5   15   0.487  -0.066  -0.030
    1UNL    C11   16   0.400  -0.138   0.055
    1UNL     O6   17   0.453  -0.269   0.084
    1UNL    C12   18   0.561  -0.273   0.177
    1UNL    C13   19   0.598  -0.422   0.206
    1UNL     O7   20   0.512  -0.487   0.298
    1UNL    C14   21   0.523  -0.192   0.307
    1UNL     O8   22   0.414  -0.246   0.378
    1UNL    C15   23   0.502  -0.044   0.262
    1UNL     O9   24   0.611   0.001   0.183
    1UNL    C16   25   0.375  -0.045   0.173
    1UNL    O10   26   0.319   0.086   0.141
    1UNL    C17   27  -0.031  -0.043  -0.202
    1UNL    C18   28  -0.069   0.075  -0.105
    1UNL    C19   29  -0.042   0.045   0.033
    1UNL    C20   30  -0.071   0.129   0.126
    1UNL    C21   31  -0.037   0.094   0.269
    1UNL    C22   32  -0.125   0.264   0.098
    1UNL    O11   33  -0.229   0.268   0.002
    1UNL    C23   34  -0.340   0.175   0.039
    1UNL    O12   35  -0.428   0.164  -0.075
    1UNL    C24   36  -0.488   0.290  -0.115
    1UNL    C25   37  -0.575   0.253  -0.232
    1UNL    C26   38  -0.562   0.362   0.002
    1UNL    O13   39  -0.678   0.289   0.039
    1UNL    C27   40  -0.468   0.368   0.126
    1UNL    O14   41  -0.537   0.423   0.234
    1UNL    C28   42  -0.420   0.224   0.160
    1UNL    O15   43  -0.528   0.134   0.192
    1UNL    C29   44  -0.485  -0.007   0.192
    1UNL    O16   45  -0.345  -0.037   0.209
    1UNL    C30   46  -0.308  -0.177   0.226
    1UNL    C31   47  -0.325  -0.225   0.364
    1UNL    O17   48  -0.458  -0.214   0.423
    1UNL    C32   49  -0.388  -0.268   0.134
    1UNL    O18   50  -0.503  -0.340   0.193
    1UNL    C33   51  -0.443  -0.181   0.023
    1UNL    O19   52  -0.502  -0.255  -0.083
    1UNL    C34   53  -0.550  -0.081   0.076
    1UNL    O20   54  -0.667  -0.145   0.113
    1UNL     H1   55  -0.194  -0.017  -0.517
    1UNL     H2   56  -0.146  -0.179  -0.447
    1UNL     H3   57  -0.255  -0.074  -0.352
    1UNL     H4   58   0.029   0.045  -0.531
    1UNL     H5   59   0.147   0.175  -0.279
    1UNL     H6   60   0.212   0.195  -0.431
    1UNL     H7   61   0.248  -0.020  -0.135
    1UNL     H8   62   0.427   0.230  -0.316
    1UNL     H9   63   0.372   0.411  -0.153
    1UNL    H10   64   0.529   0.431  -0.213
    1UNL    H11   65   0.514   0.359  -0.049
    1UNL    H12   66   0.587   0.142  -0.069
    1UNL    H13   67   0.686   0.196  -0.333
    1UNL    H14   68   0.661  -0.053  -0.232
    1UNL    H15   69   0.442   0.033  -0.399
    1UNL    H16   70   0.435  -0.159  -0.214
    1UNL    H17   71   0.312  -0.149  -0.006
    1UNL    H18   72   0.646  -0.220   0.129
    1UNL    H19   73   0.583  -0.479   0.111
    1UNL    H20   74   0.700  -0.443   0.240
    1UNL    H21   75   0.450  -0.412   0.307
    1UNL    H22   76   0.607  -0.192   0.374
    1UNL    H23   77   0.377  -0.177   0.434
    1UNL    H24   78   0.484   0.021   0.346
    1UNL    H25   79   0.593  -0.001   0.088
    1UNL    H26   80   0.302  -0.092   0.246
    1UNL    H27   81   0.334   0.107   0.048
    1UNL    H28   82  -0.095  -0.134  -0.178
    1UNL    H29   83   0.070  -0.072  -0.183
    1UNL    H30   84  -0.009   0.158  -0.145
    1UNL    H31   85  -0.178   0.102  -0.119
    1UNL    H32   86   0.013  -0.044   0.062
    1UNL    H33   87  -0.020   0.181   0.319
    1UNL    H34   88  -0.123   0.051   0.320
    1UNL    H35   89   0.058   0.024   0.266
    1UNL    H36   90  -0.157   0.307   0.194
    1UNL    H37   91  -0.045   0.342   0.068
    1UNL    H38   92  -0.287   0.078   0.065
    1UNL    H39   93  -0.405   0.347  -0.138
    1UNL    H40   94  -0.647   0.187  -0.192
    1UNL    H41   95  -0.515   0.206  -0.307
    1UNL    H42   96  -0.621   0.342  -0.275
    1UNL    H43   97  -0.596   0.458  -0.041
    1UNL    H44   98  -0.649   0.209   0.088
    1UNL    H45   99  -0.378   0.438   0.107
    1UNL    H46  100  -0.615   0.361   0.250
    1UNL    H47  101  -0.351   0.225   0.253
    1UNL    H48  102  -0.526  -0.049   0.282
    1UNL    H49  103  -0.202  -0.179   0.189
    1UNL    H50  104  -0.263  -0.159   0.426
    1UNL    H51  105  -0.273  -0.318   0.375
    1UNL    H52  106  -0.510  -0.279   0.367
    1UNL    H53  107  -0.320  -0.347   0.092
    1UNL    H54  108  -0.587  -0.300   0.169
    1UNL    H55  109  -0.360  -0.131  -0.014
    1UNL    H56  110  -0.571  -0.325  -0.052
    1UNL    H57  111  -0.584  -0.019  -0.005
    1UNL    H58  112  -0.738  -0.075   0.119
   0.00000   0.00000   0.00000   0.00000   0.00000   0.00000   0.00000   0.00000   0.00000
Generated with MDTraj, t= 50.0
 112
    1UNL     C1    1  -0.153  -0.036  -0.432
    1UNL     C2    2  -0.030  -0.001  -0.361
    1UNL     C3    3   0.071   0.062  -0.423
    1UNL     C4    4   0.201   0.097  -0.360
    1UNL     O1    5   0.288  -0.008  -0.319
    1UNL     C5    6   0.337   0.005  -0.185
    1UNL     O2    7   0.345   0.141  -0.143
    1UNL     C6    8   0.441   0.224  -0.207
    1UNL     C7    9   0.428   0.357  -0.131
    1UNL     C8   10   0.583   0.172  -0.193
    1UNL     O3   11   0.682   0.245  -0.271
    1UNL     C9   12   0.589   0.022  -0.243
    1UNL     O4   13   0.566   0.020  -0.385
    1UNL    C10   14   0.480  -0.068  -0.176
    1UNL     O5   15   0.517  -0.110  -0.042
    1UNL    C11   16   0.401  -0.148   0.037
    1UNL     O6   17   0.422  -0.273   0.096
    1UNL    C12   18   0.537  -0.281   0.181
    1UNL    C13   19   0.546  -0.429   0.227
    1UNL     O7   20   0.431  -0.478   0.281
    1UNL    C14   21   0.532  -0.187   0.305
    1UNL     O8   22   0.430  -0.232   0.396
    1UNL    C15   23   0.500  -0.045   0.261
    1UNL     O9   24   0.602   0.017   0.188
    1UNL    C16   25   0.381  -0.048   0.161
    1UNL    O10   26   0.325   0.080   0.141
    1UNL    C17   27  -0.016  -0.039  -0.212
    1UNL    C18   28  -0.040   0.081  -0.125
    1UNL    C19   29  -0.016   0.061   0.017
    1UNL    C20   30  -0.059   0.134   0.117
    1UNL    C21   31  -0.009   0.100   0.260
    1UNL    C22   32  -0.138   0.262   0.087
    1UNL    O11   33  -0.245   0.252  -0.008
    1UNL    C23   34  -0.349   0.165   0.037
    1UNL    O12   35  -0.442   0.150  -0.069
    1UNL    C24   36  -0.511   0.270  -0.106
    1UNL    C25   37  -0.607   0.235  -0.215
    1UNL    C26   38  -0.584   0.347   0.013
    1UNL    O13   39  -0.691   0.260   0.052
    1UNL    C27   40  -0.480   0.362   0.128
    1UNL    O14   41  -0.549   0.414   0.240
    1UNL    C28   42  -0.418   0.227   0.163
    1UNL    O15   43  -0.520   0.141   0.205
    1UNL    C29   44  -0.482  -0.001   0.200
    1UNL    O16   45  -0.337  -0.033   0.206
    1UNL    C30   46  -0.297  -0.169   0.224
    1UNL    C31   47  -0.300  -0.211   0.371
    1UNL    O17   48  -0.424  -0.226   0.432
    1UNL    C32   49  -0.388  -0.259   0.126
    1UNL    O18   50  -0.492  -0.332   0.194
    1UNL    C33   51  -0.453  -0.177   0.012
    1UNL    O19   52  -0.546  -0.253  -0.068
    1UNL    C34   53  -0.545  -0.061   0.069
    1UNL    O20   54  -0.666  -0.123   0.097
    1UNL     H1   55  -0.176   0.044  -0.506
    1UNL     H2   56  -0.138  -0.131  -0.474
    1UNL     H3   57  -0.244  -0.042  -0.356
    1UNL     H4   58   0.052   0.086  -0.521
    1UNL     H5   59   0.191   0.160  -0.271
    1UNL     H6   60   0.260   0.175  -0.416
    1UNL     H7   61   0.257  -0.041  -0.123
    1UNL     H8   62   0.412   0.239  -0.313
    1UNL     H9   63   0.347   0.414  -0.171
    1UNL    H10   64   0.513   0.419  -0.151
    1UNL    H11   65   0.425   0.329  -0.019
    1UNL    H12   66   0.617   0.183  -0.083
    1UNL    H13   67   0.662   0.231  -0.360
    1UNL    H14   68   0.683  -0.018  -0.215
    1UNL    H15   69   0.472   0.030  -0.393
    1UNL    H16   70   0.479  -0.163  -0.228
    1UNL    H17   71   0.313  -0.163  -0.024
    1UNL    H18   72   0.621  -0.266   0.112
    1UNL    H19   73   0.573  -0.503   0.145
    1UNL    H20   74   0.619  -0.438   0.310
    1UNL    H21   75   0.395  -0.399   0.327
    1UNL    H22   76   0.630  -0.191   0.351
    1UNL    H23   77   0.413  -0.166   0.460
    1UNL    H24   78   0.478   0.016   0.348
    1UNL    H25   79   0.610  -0.020   0.098
    1UNL    H26   80   0.297  -0.100   0.221
    1UNL    H27   81   0.335   0.107   0.044
    1UNL    H28   82  -0.088  -0.124  -0.197
    1UNL    H29   83   0.083  -0.087  -0.202
    1UNL    H30   84   0.028   0.163  -0.154
    1UNL    H31   85  -0.146   0.122  -0.145
    1UNL    H32   86   0.051  -0.016   0.039
    1UNL    H33   87   0.086   0.140   0.272
    1UNL    H34   88  -0.076   0.142   0.339
    1UNL    H35   89   0.004  -0.015   0.268
    1UNL    H36   90  -0.170   0.320   0.174
    1UNL    H37   91  -0.061   0.336   0.043
    1UNL    H38   92  -0.295   0.073   0.073
    1UNL    H39   93  -0.431   0.331  -0.131
    1UNL    H40   94  -0.687   0.176  -0.175
    1UNL    H41   95  -0.563   0.179  -0.296
    1UNL    H42   96  -0.648   0.322  -0.260
    1UNL    H43   97  -0.622   0.447  -0.022
    1UNL    H44   98  -0.647   0.198   0.110
    1UNL    H45   99  -0.407   0.444   0.104
    1UNL    H46  100  -0.605   0.341   0.275
    1UNL    H47  101  -0.346   0.223   0.255
    1UNL    H48  102  -0.523  -0.052   0.282
    1UNL    H49  103  -0.194  -0.171   0.181
    1UNL    H50  104  -0.237  -0.141   0.431
    1UNL    H51  105  -0.244  -0.303   0.392
    1UNL    H52  106  -0.474  -0.287   0.379
    1UNL    H53  107  -0.327  -0.335   0.072
    1UNL    H54  108  -0.579  -0.286   0.182
    1UNL    H55  109  -0.378  -0.135  -0.044
    1UNL    H56  110  -0.627  -0.281  -0.011
    1UNL    H57  111  -0.570   0.017  -0.002
    1UNL    H58  112  -0.726  -0.049   0.122
   0.00000   0.00000   0.00000   0.00000   0.00000   0.00000   0.00000   0.00000   0.00000
Generated with MDTraj, t= 51.0
 112
    1UNL     C1    1  -0.136  -0.013  -0.456
    1UNL     C2    2  -0.012   0.005  -0.382
    1UNL     C3    3   0.095   0.050  -0.450
    1UNL     C4    4   0.218   0.114  -0.390
    1UNL     O1    5   0.321   0.020  -0.351
    1UNL     C5    6   0.338   0.010  -0.207
    1UNL     O2    7   0.338   0.138  -0.152
    1UNL     C6    8   0.442   0.225  -0.209
    1UNL     C7    9   0.430   0.360  -0.139
    1UNL     C8   10   0.587   0.164  -0.199
    1UNL     O3   11   0.685   0.227  -0.277
    1UNL     C9   12   0.583   0.013  -0.235
    1UNL     O4   13   0.596  -0.011  -0.374
    1UNL    C10   14   0.470  -0.064  -0.169
    1UNL     O5   15   0.494  -0.071  -0.030
    1UNL    C11   16   0.389  -0.142   0.046
    1UNL     O6   17   0.420  -0.276   0.082
    1UNL    C12   18   0.533  -0.287   0.177
    1UNL    C13   19   0.532  -0.431   0.239
    1UNL     O7   20   0.398  -0.462   0.287
    1UNL    C14   21   0.527  -0.194   0.304
    1UNL     O8   22   0.440  -0.249   0.406
    1UNL    C15   23   0.484  -0.050   0.272
    1UNL     O9   24   0.592   0.021   0.213
    1UNL    C16   25   0.365  -0.059   0.174
    1UNL    O10   26   0.316   0.070   0.164
    1UNL    C17   27  -0.019  -0.025  -0.232
    1UNL    C18   28  -0.044   0.090  -0.141
    1UNL    C19   29  -0.031   0.065   0.002
    1UNL    C20   30  -0.057   0.148   0.100
    1UNL    C21   31  -0.036   0.124   0.243
    1UNL    C22   32  -0.136   0.276   0.074
    1UNL    O11   33  -0.249   0.268  -0.016
    1UNL    C23   34  -0.342   0.170   0.031
    1UNL    O12   35  -0.446   0.145  -0.065
    1UNL    C24   36  -0.511   0.262  -0.102
    1UNL    C25   37  -0.611   0.250  -0.214
    1UNL    C26   38  -0.583   0.331   0.020
    1UNL    O13   39  -0.695   0.250   0.051
    1UNL    C27   40  -0.493   0.348   0.138
    1UNL    O14   41  -0.567   0.391   0.257
    1UNL    C28   42  -0.411   0.218   0.164
    1UNL    O15   43  -0.500   0.123   0.217
    1UNL    C29   44  -0.469  -0.015   0.212
    1UNL    O16   45  -0.321  -0.041   0.210
    1UNL    C30   46  -0.289  -0.179   0.216
    1UNL    C31   47  -0.277  -0.230   0.362
    1UNL    O17   48  -0.388  -0.206   0.445
    1UNL    C32   49  -0.402  -0.268   0.135
    1UNL    O18   50  -0.509  -0.313   0.220
    1UNL    C33   51  -0.456  -0.176   0.020
    1UNL    O19   52  -0.538  -0.243  -0.076
    1UNL    C34   53  -0.543  -0.067   0.083
    1UNL    O20   54  -0.670  -0.129   0.127
    1UNL     H1   55  -0.168   0.084  -0.502
    1UNL     H2   56  -0.127  -0.088  -0.531
    1UNL     H3   57  -0.227  -0.038  -0.391
    1UNL     H4   58   0.084   0.057  -0.562
    1UNL     H5   59   0.185   0.184  -0.311
    1UNL     H6   60   0.255   0.186  -0.468
    1UNL     H7   61   0.243  -0.042  -0.176
    1UNL     H8   62   0.416   0.229  -0.316
    1UNL     H9   63   0.328   0.403  -0.145
    1UNL    H10   64   0.488   0.433  -0.191
    1UNL    H11   65   0.471   0.341  -0.039
    1UNL    H12   66   0.626   0.181  -0.092
    1UNL    H13   67   0.684   0.197  -0.378
    1UNL    H14   68   0.672  -0.031  -0.200
    1UNL    H15   69   0.505   0.002  -0.419
    1UNL    H16   70   0.476  -0.162  -0.213
    1UNL    H17   71   0.295  -0.155  -0.007
    1UNL    H18   72   0.616  -0.274   0.108
    1UNL    H19   73   0.554  -0.519   0.167
    1UNL    H20   74   0.603  -0.435   0.323
    1UNL    H21   75   0.361  -0.405   0.358
    1UNL    H22   76   0.633  -0.189   0.340
    1UNL    H23   77   0.434  -0.196   0.486
    1UNL    H24   78   0.444   0.002   0.360
    1UNL    H25   79   0.588  -0.003   0.117
    1UNL    H26   80   0.276  -0.116   0.225
    1UNL    H27   81   0.327   0.106   0.075
    1UNL    H28   82  -0.096  -0.105  -0.209
    1UNL    H29   83   0.074  -0.087  -0.216
    1UNL    H30   84   0.021   0.175  -0.170
    1UNL    H31   85  -0.152   0.121  -0.168
    1UNL    H32   86   0.028  -0.027   0.029
    1UNL    H33   87   0.059   0.061   0.261
    1UNL    H34   88  -0.034   0.213   0.316
    1UNL    H35   89  -0.111   0.056   0.279
    1UNL    H36   90  -0.163   0.327   0.165
    1UNL    H37   91  -0.067   0.352   0.025
    1UNL    H38   92  -0.284   0.076   0.056
    1UNL    H39   93  -0.439   0.329  -0.130
    1UNL    H40   94  -0.686   0.177  -0.180
    1UNL    H41   95  -0.565   0.210  -0.301
    1UNL    H42   96  -0.662   0.338  -0.241
    1UNL    H43   97  -0.633   0.426  -0.020
    1UNL    H44   98  -0.662   0.167   0.094
    1UNL    H45   99  -0.422   0.432   0.119
    1UNL    H46  100  -0.597   0.311   0.296
    1UNL    H47  101  -0.328   0.233   0.244
    1UNL    H48  102  -0.506  -0.062   0.299
    1UNL    H49  103  -0.193  -0.192   0.162
    1UNL    H50  104  -0.194  -0.181   0.426
    1UNL    H51  105  -0.243  -0.336   0.370
    1UNL    H52  106  -0.473  -0.256   0.421
    1UNL    H53  107  -0.355  -0.355   0.087
    1UNL    H54  108  -0.585  -0.249   0.213
    1UNL    H55  109  -0.374  -0.129  -0.021
    1UNL    H56  110  -0.610  -0.278  -0.028
    1UNL    H57  111  -0.572   0.008   0.012
    1UNL    H58  112  -0.729  -0.069   0.175
   0.00000   0.00000   0.00000   0.00000   0.00000   0.00000   0.00000   0.00000   0.00000
Generated with MDTraj, t= 52.0
 112
    1UNL     C1    1  -0.120  -0.040  -0.486
    1UNL     C2    2  -0.013   0.017  -0.401
    1UNL     C3    3   0.095   0.071  -0.458
    1UNL     C4    4   0.217   0.109  -0.374
    1UNL     O1    5   0.290  -0.001  -0.329
    1UNL     C5    6   0.337   0.023  -0.196
    1UNL     O2    7   0.355   0.153  -0.151
    1UNL     C6    8   0.470   0.215  -0.209
    1UNL     C7    9   0.481   0.358  -0.169
    1UNL     C8   10   0.603   0.142  -0.180
    1UNL     O3   11   0.708   0.198  -0.247
    1UNL     C9   12   0.587  -0.006  -0.215
    1UNL     O4   13   0.579  -0.015  -0.356
    1UNL    C10   14   0.458  -0.067  -0.152
    1UNL     O5   15   0.469  -0.066  -0.009
    1UNL    C11   16   0.354  -0.125   0.058
    1UNL     O6   17   0.386  -0.259   0.087
    1UNL    C12   18   0.507  -0.272   0.163
    1UNL    C13   19   0.545  -0.422   0.196
    1UNL     O7   20   0.427  -0.485   0.247
    1UNL    C14   21   0.502  -0.197   0.302
    1UNL     O8   22   0.428  -0.246   0.416
    1UNL    C15   23   0.461  -0.041   0.278
    1UNL     O9   24   0.574   0.023   0.216
    1UNL    C16   25   0.336  -0.038   0.183
    1UNL    O10   26   0.296   0.088   0.146
    1UNL    C17   27  -0.020  -0.004  -0.254
    1UNL    C18   28  -0.046   0.119  -0.163
    1UNL    C19   29  -0.031   0.081  -0.024
    1UNL    C20   30  -0.074   0.156   0.073
    1UNL    C21   31  -0.057   0.113   0.217
    1UNL    C22   32  -0.132   0.290   0.063
    1UNL    O11   33  -0.248   0.280  -0.019
    1UNL    C23   34  -0.344   0.180   0.034
    1UNL    O12   35  -0.449   0.152  -0.064
    1UNL    C24   36  -0.513   0.270  -0.098
    1UNL    C25   37  -0.615   0.273  -0.216
    1UNL    C26   38  -0.588   0.321   0.029
    1UNL    O13   39  -0.699   0.240   0.070
    1UNL    C27   40  -0.489   0.348   0.141
    1UNL    O14   41  -0.552   0.399   0.263
    1UNL    C28   42  -0.411   0.217   0.170
    1UNL    O15   43  -0.492   0.121   0.222
    1UNL    C29   44  -0.456  -0.012   0.211
    1UNL    O16   45  -0.310  -0.045   0.203
    1UNL    C30   46  -0.273  -0.181   0.207
    1UNL    C31   47  -0.257  -0.225   0.356
    1UNL    O17   48  -0.376  -0.218   0.435
    1UNL    C32   49  -0.380  -0.282   0.139
    1UNL    O18   50  -0.487  -0.319   0.230
    1UNL    C33   51  -0.457  -0.202   0.028
    1UNL    O19   52  -0.545  -0.299  -0.033
    1UNL    C34   53  -0.528  -0.083   0.094
    1UNL    O20   54  -0.667  -0.114   0.126
    1UNL     H1   55  -0.175   0.040  -0.541
    1UNL     H2   56  -0.085  -0.121  -0.555
    1UNL     H3   57  -0.203  -0.078  -0.430
    1UNL     H4   58   0.107   0.070  -0.562
    1UNL     H5   59   0.183   0.184  -0.303
    1UNL     H6   60   0.285   0.164  -0.441
    1UNL     H7   61   0.244   0.000  -0.133
    1UNL     H8   62   0.449   0.197  -0.317
    1UNL     H9   63   0.386   0.414  -0.199
    1UNL    H10   64   0.552   0.414  -0.228
    1UNL    H11   65   0.502   0.365  -0.070
    1UNL    H12   66   0.629   0.155  -0.069
    1UNL    H13   67   0.713   0.173  -0.339
    1UNL    H14   68   0.670  -0.062  -0.181
    1UNL    H15   69   0.484  -0.018  -0.384
    1UNL    H16   70   0.447  -0.172  -0.173
    1UNL    H17   71   0.260  -0.131   0.006
    1UNL    H18   72   0.580  -0.230   0.093
    1UNL    H19   73   0.587  -0.473   0.103
    1UNL    H20   74   0.622  -0.421   0.277
    1UNL    H21   75   0.386  -0.428   0.315
    1UNL    H22   76   0.611  -0.188   0.336
    1UNL    H23   77   0.429  -0.186   0.499
    1UNL    H24   78   0.433   0.004   0.377
    1UNL    H25   79   0.547   0.022   0.121
    1UNL    H26   80   0.244  -0.077   0.246
    1UNL    H27   81   0.327   0.110   0.056
    1UNL    H28   82  -0.092  -0.088  -0.236
    1UNL    H29   83   0.069  -0.055  -0.211
    1UNL    H30   84   0.029   0.196  -0.197
    1UNL    H31   85  -0.149   0.164  -0.182
    1UNL    H32   86   0.028   0.001  -0.000
    1UNL    H33   87  -0.059  -0.006   0.220
    1UNL    H34   88   0.040   0.149   0.274
    1UNL    H35   89  -0.137   0.141   0.279
    1UNL    H36   90  -0.156   0.338   0.156
    1UNL    H37   91  -0.054   0.358   0.016
    1UNL    H38   92  -0.290   0.080   0.039
    1UNL    H39   93  -0.437   0.338  -0.119
    1UNL    H40   94  -0.706   0.234  -0.167
    1UNL    H41   95  -0.580   0.203  -0.288
    1UNL    H42   96  -0.632   0.369  -0.256
    1UNL    H43   97  -0.643   0.415  -0.002
    1UNL    H44   98  -0.657   0.171   0.128
    1UNL    H45   99  -0.419   0.428   0.118
    1UNL    H46  100  -0.611   0.323   0.295
    1UNL    H47  101  -0.326   0.233   0.247
    1UNL    H48  102  -0.481  -0.054   0.304
    1UNL    H49  103  -0.178  -0.181   0.152
    1UNL    H50  104  -0.181  -0.154   0.406
    1UNL    H51  105  -0.205  -0.324   0.367
    1UNL    H52  106  -0.444  -0.273   0.398
    1UNL    H53  107  -0.333  -0.370   0.098
    1UNL    H54  108  -0.560  -0.260   0.218
    1UNL    H55  109  -0.390  -0.172  -0.043
    1UNL    H56  110  -0.613  -0.332   0.037
    1UNL    H57  111  -0.541  -0.012   0.013
    1UNL    H58  112  -0.704  -0.042   0.180
   0.00000   0.00000   0.00000   0.00000   0.00000   0.00000   0.00000   0.00000   0.00000
Generated with MDTraj, t= 53.0
 112
    1UNL     C1    1  -0.120  -0.023  -0.504
    1UNL     C2    2  -0.005   0.017  -0.414
    1UNL     C3    3   0.097   0.090  -0.454
    1UNL     C4    4   0.214   0.137  -0.376
    1UNL     O1    5   0.291   0.033  -0.326
    1UNL     C5    6   0.323   0.051  -0.189
    1UNL     O2    7   0.370   0.181  -0.150
    1UNL     C6    8   0.495   0.207  -0.212
    1UNL     C7    9   0.544   0.352  -0.190
    1UNL     C8   10   0.604   0.105  -0.165
    1UNL     O3   11   0.725   0.153  -0.218
    1UNL     C9   12   0.559  -0.041  -0.207
    1UNL     O4   13   0.549  -0.041  -0.348
    1UNL    C10   14   0.420  -0.059  -0.135
    1UNL     O5   15   0.444  -0.041   0.003
    1UNL    C11   16   0.341  -0.119   0.063
    1UNL     O6   17   0.382  -0.256   0.086
    1UNL    C12   18   0.497  -0.258   0.167
    1UNL    C13   19   0.557  -0.405   0.170
    1UNL     O7   20   0.486  -0.495   0.243
    1UNL    C14   21   0.472  -0.191   0.305
    1UNL     O8   22   0.364  -0.247   0.381
    1UNL    C15   23   0.431  -0.039   0.286
    1UNL     O9   24   0.544   0.040   0.245
    1UNL    C16   25   0.315  -0.042   0.190
    1UNL    O10   26   0.279   0.088   0.150
    1UNL    C17   27  -0.015  -0.018  -0.270
    1UNL    C18   28  -0.060   0.095  -0.173
    1UNL    C19   29  -0.036   0.065  -0.029
    1UNL    C20   30  -0.066   0.144   0.074
    1UNL    C21   31  -0.009   0.120   0.217
    1UNL    C22   32  -0.134   0.277   0.050
    1UNL    O11   33  -0.248   0.268  -0.038
    1UNL    C23   34  -0.348   0.179   0.013
    1UNL    O12   35  -0.456   0.158  -0.077
    1UNL    C24   36  -0.525   0.286  -0.096
    1UNL    C25   37  -0.641   0.267  -0.197
    1UNL    C26   38  -0.590   0.338   0.040
    1UNL    O13   39  -0.700   0.266   0.093
    1UNL    C27   40  -0.480   0.351   0.144
    1UNL    O14   41  -0.534   0.377   0.272
    1UNL    C28   42  -0.406   0.216   0.155
    1UNL    O15   43  -0.491   0.117   0.209
    1UNL    C29   44  -0.458  -0.020   0.209
    1UNL    O16   45  -0.310  -0.050   0.186
    1UNL    C30   46  -0.267  -0.180   0.209
    1UNL    C31   47  -0.229  -0.193   0.355
    1UNL    O17   48  -0.338  -0.191   0.440
    1UNL    C32   49  -0.369  -0.283   0.155
    1UNL    O18   50  -0.464  -0.331   0.245
    1UNL    C33   51  -0.451  -0.219   0.042
    1UNL    O19   52  -0.532  -0.311  -0.038
    1UNL    C34   53  -0.534  -0.096   0.093
    1UNL    O20   54  -0.663  -0.139   0.134
    1UNL     H1   55  -0.126   0.055  -0.581
    1UNL     H2   56  -0.103  -0.127  -0.550
    1UNL     H3   57  -0.213  -0.011  -0.461
    1UNL     H4   58   0.097   0.104  -0.562
    1UNL     H5   59   0.189   0.191  -0.285
    1UNL     H6   60   0.276   0.213  -0.426
    1UNL     H7   61   0.220   0.045  -0.142
    1UNL     H8   62   0.474   0.184  -0.319
    1UNL     H9   63   0.490   0.427  -0.255
    1UNL    H10   64   0.645   0.375  -0.220
    1UNL    H11   65   0.534   0.374  -0.089
    1UNL    H12   66   0.620   0.118  -0.053
    1UNL    H13   67   0.733   0.127  -0.307
    1UNL    H14   68   0.631  -0.112  -0.176
    1UNL    H15   69   0.461  -0.011  -0.378
    1UNL    H16   70   0.380  -0.161  -0.142
    1UNL    H17   71   0.245  -0.122   0.014
    1UNL    H18   72   0.574  -0.192   0.117
    1UNL    H19   73   0.560  -0.443   0.062
    1UNL    H20   74   0.661  -0.392   0.203
    1UNL    H21   75   0.425  -0.440   0.301
    1UNL    H22   76   0.570  -0.186   0.361
    1UNL    H23   77   0.336  -0.193   0.465
    1UNL    H24   78   0.396   0.007   0.385
    1UNL    H25   79   0.526   0.070   0.155
    1UNL    H26   80   0.221  -0.082   0.247
    1UNL    H27   81   0.327   0.108   0.065
    1UNL    H28   82  -0.074  -0.114  -0.260
    1UNL    H29   83   0.086  -0.059  -0.251
    1UNL    H30   84   0.003   0.190  -0.190
    1UNL    H31   85  -0.167   0.127  -0.194
    1UNL    H32   86   0.031  -0.024  -0.016
    1UNL    H33   87  -0.039   0.016   0.238
    1UNL    H34   88   0.105   0.128   0.221
    1UNL    H35   89  -0.054   0.193   0.294
    1UNL    H36   90  -0.160   0.325   0.141
    1UNL    H37   91  -0.067   0.348  -0.006
    1UNL    H38   92  -0.305   0.074   0.019
    1UNL    H39   93  -0.445   0.339  -0.136
    1UNL    H40   94  -0.684   0.171  -0.173
    1UNL    H41   95  -0.610   0.279  -0.298
    1UNL    H42   96  -0.717   0.341  -0.173
    1UNL    H43   97  -0.635   0.438   0.015
    1UNL    H44   98  -0.660   0.179   0.109
    1UNL    H45   99  -0.423   0.437   0.117
    1UNL    H46  100  -0.600   0.300   0.287
    1UNL    H47  101  -0.319   0.213   0.232
    1UNL    H48  102  -0.480  -0.065   0.299
    1UNL    H49  103  -0.178  -0.190   0.146
    1UNL    H50  104  -0.162  -0.104   0.380
    1UNL    H51  105  -0.162  -0.282   0.370
    1UNL    H52  106  -0.405  -0.253   0.396
    1UNL    H53  107  -0.316  -0.369   0.119
    1UNL    H54  108  -0.522  -0.402   0.198
    1UNL    H55  109  -0.382  -0.181  -0.024
    1UNL    H56  110  -0.621  -0.280  -0.029
    1UNL    H57  111  -0.551  -0.023   0.013
    1UNL    H58  112  -0.697  -0.068   0.194
   0.00000   0.00000   0.00000   0.00000   0.00000   0.00000   0.00000   0.00000   0.00000
Generated with MDTraj, t= 54.0
 112
    1UNL     C1    1  -0.127   0.005  -0.497
    1UNL     C2    2  -0.007   0.042  -0.412
    1UNL     C3    3   0.079   0.136  -0.448
    1UNL     C4    4   0.198   0.171  -0.371
    1UNL     O1    5   0.283   0.063  -0.335
    1UNL     C5    6   0.331   0.079  -0.204
    1UNL     O2    7   0.397   0.205  -0.180
    1UNL     C6    8   0.530   0.209  -0.230
    1UNL     C7    9   0.596   0.347  -0.184
    1UNL     C8   10   0.622   0.094  -0.182
    1UNL     O3   11   0.746   0.093  -0.249
    1UNL     C9   12   0.556  -0.042  -0.205
    1UNL     O4   13   0.547  -0.071  -0.340
    1UNL    C10   14   0.410  -0.041  -0.143
    1UNL     O5   15   0.403  -0.031   0.002
    1UNL    C11   16   0.326  -0.120   0.076
    1UNL     O6   17   0.384  -0.249   0.095
    1UNL    C12   18   0.495  -0.242   0.181
    1UNL    C13   19   0.564  -0.385   0.186
    1UNL     O7   20   0.491  -0.481   0.248
    1UNL    C14   21   0.456  -0.194   0.322
    1UNL     O8   22   0.349  -0.277   0.371
    1UNL    C15   23   0.402  -0.053   0.311
    1UNL     O9   24   0.503   0.038   0.264
    1UNL    C16   25   0.288  -0.053   0.213
    1UNL    O10   26   0.248   0.086   0.187
    1UNL    C17   27   0.002  -0.023  -0.272
    1UNL    C18   28  -0.088   0.053  -0.174
    1UNL    C19   29  -0.053   0.050  -0.031
    1UNL    C20   30  -0.084   0.142   0.058
    1UNL    C21   31  -0.049   0.121   0.201
    1UNL    C22   32  -0.162   0.268   0.021
    1UNL    O11   33  -0.276   0.246  -0.059
    1UNL    C23   34  -0.362   0.155  -0.001
    1UNL    O12   35  -0.484   0.153  -0.073
    1UNL    C24   36  -0.536   0.291  -0.088
    1UNL    C25   37  -0.647   0.283  -0.193
    1UNL    C26   38  -0.575   0.344   0.053
    1UNL    O13   39  -0.684   0.266   0.101
    1UNL    C27   40  -0.456   0.344   0.145
    1UNL    O14   41  -0.500   0.377   0.277
    1UNL    C28   42  -0.397   0.199   0.146
    1UNL    O15   43  -0.485   0.109   0.203
    1UNL    C29   44  -0.449  -0.026   0.199
    1UNL    O16   45  -0.300  -0.036   0.190
    1UNL    C30   46  -0.248  -0.169   0.208
    1UNL    C31   47  -0.209  -0.189   0.353
    1UNL    O17   48  -0.314  -0.160   0.436
    1UNL    C32   49  -0.345  -0.272   0.148
    1UNL    O18   50  -0.441  -0.317   0.244
    1UNL    C33   51  -0.434  -0.224   0.035
    1UNL    O19   52  -0.512  -0.334  -0.019
    1UNL    C34   53  -0.525  -0.108   0.086
    1UNL    O20   54  -0.640  -0.159   0.137
    1UNL     H1   55  -0.125   0.065  -0.587
    1UNL     H2   56  -0.121  -0.105  -0.521
    1UNL     H3   57  -0.217   0.040  -0.452
    1UNL     H4   58   0.062   0.178  -0.547
    1UNL     H5   59   0.169   0.230  -0.283
    1UNL     H6   60   0.273   0.235  -0.416
    1UNL     H7   61   0.233   0.093  -0.150
    1UNL     H8   62   0.521   0.206  -0.340
    1UNL     H9   63   0.527   0.426  -0.192
    1UNL    H10   64   0.678   0.378  -0.246
    1UNL    H11   65   0.631   0.330  -0.079
    1UNL    H12   66   0.643   0.110  -0.073
    1UNL    H13   67   0.721   0.036  -0.334
    1UNL    H14   68   0.614  -0.119  -0.156
    1UNL    H15   69   0.460  -0.029  -0.371
    1UNL    H16   70   0.367  -0.139  -0.172
    1UNL    H17   71   0.233  -0.142   0.024
    1UNL    H18   72   0.570  -0.170   0.132
    1UNL    H19   73   0.587  -0.415   0.077
    1UNL    H20   74   0.664  -0.391   0.230
    1UNL    H21   75   0.401  -0.445   0.257
    1UNL    H22   76   0.549  -0.207   0.384
    1UNL    H23   77   0.344  -0.268   0.470
    1UNL    H24   78   0.361  -0.020   0.413
    1UNL    H25   79   0.495   0.034   0.165
    1UNL    H26   80   0.197  -0.111   0.257
    1UNL    H27   81   0.319   0.124   0.132
    1UNL    H28   82  -0.022  -0.135  -0.276
    1UNL    H29   83   0.104  -0.022  -0.242
    1UNL    H30   84  -0.087   0.162  -0.209
    1UNL    H31   85  -0.195   0.016  -0.183
    1UNL    H32   86   0.017  -0.028  -0.006
    1UNL    H33   87   0.052   0.089   0.198
    1UNL    H34   88  -0.057   0.206   0.269
    1UNL    H35   89  -0.119   0.034   0.247
    1UNL    H36   90  -0.199   0.319   0.107
    1UNL    H37   91  -0.090   0.333  -0.030
    1UNL    H38   92  -0.317   0.051  -0.011
    1UNL    H39   93  -0.451   0.338  -0.126
    1UNL    H40   94  -0.741   0.270  -0.150
    1UNL    H41   95  -0.629   0.203  -0.263
    1UNL    H42   96  -0.654   0.371  -0.259
    1UNL    H43   97  -0.619   0.445   0.049
    1UNL    H44   98  -0.648   0.174   0.105
    1UNL    H45   99  -0.387   0.419   0.115
    1UNL    H46  100  -0.537   0.298   0.314
    1UNL    H47  101  -0.298   0.190   0.205
    1UNL    H48  102  -0.470  -0.072   0.290
    1UNL    H49  103  -0.157  -0.174   0.145
    1UNL    H50  104  -0.121  -0.124   0.379
    1UNL    H51  105  -0.179  -0.293   0.369
    1UNL    H52  106  -0.394  -0.210   0.410
    1UNL    H53  107  -0.290  -0.359   0.115
    1UNL    H54  108  -0.526  -0.270   0.242
    1UNL    H55  109  -0.371  -0.180  -0.032
    1UNL    H56  110  -0.605  -0.295  -0.037
    1UNL    H57  111  -0.553  -0.038   0.006
    1UNL    H58  112  -0.705  -0.090   0.166
   0.00000   0.00000   0.00000   0.00000   0.00000   0.00000   0.00000   0.00000   0.00000
Generated with MDTraj, t= 55.0
 112
    1UNL     C1    1  -0.105   0.026  -0.504
    1UNL     C2    2   0.010   0.050  -0.414
    1UNL     C3    3   0.102   0.136  -0.451
    1UNL     C4    4   0.204   0.190  -0.356
    1UNL     O1    5   0.278   0.084  -0.291
    1UNL     C5    6   0.332   0.113  -0.161
    1UNL     O2    7   0.430   0.218  -0.157
    1UNL     C6    8   0.549   0.205  -0.239
    1UNL     C7    9   0.638   0.337  -0.243
    1UNL     C8   10   0.627   0.080  -0.192
    1UNL     O3   11   0.741   0.040  -0.272
    1UNL     C9   12   0.527  -0.038  -0.199
    1UNL     O4   13   0.506  -0.077  -0.333
    1UNL    C10   14   0.399  -0.016  -0.118
    1UNL     O5   15   0.417  -0.024   0.020
    1UNL    C11   16   0.320  -0.116   0.078
    1UNL     O6   17   0.383  -0.245   0.097
    1UNL    C12   18   0.493  -0.237   0.182
    1UNL    C13   19   0.555  -0.378   0.181
    1UNL     O7   20   0.459  -0.472   0.215
    1UNL    C14   21   0.453  -0.194   0.322
    1UNL     O8   22   0.368  -0.296   0.387
    1UNL    C15   23   0.380  -0.059   0.313
    1UNL     O9   24   0.468   0.048   0.276
    1UNL    C16   25   0.262  -0.062   0.214
    1UNL    O10   26   0.214   0.074   0.192
    1UNL    C17   27   0.002  -0.019  -0.278
    1UNL    C18   28  -0.105   0.045  -0.186
    1UNL    C19   29  -0.072   0.039  -0.040
    1UNL    C20   30  -0.099   0.135   0.041
    1UNL    C21   31  -0.042   0.127   0.177
    1UNL    C22   32  -0.166   0.266   0.009
    1UNL    O11   33  -0.275   0.252  -0.081
    1UNL    C23   34  -0.372   0.169  -0.021
    1UNL    O12   35  -0.501   0.173  -0.083
    1UNL    C24   36  -0.560   0.302  -0.092
    1UNL    C25   37  -0.679   0.292  -0.184
    1UNL    C26   38  -0.588   0.350   0.054
    1UNL    O13   39  -0.689   0.255   0.102
    1UNL    C27   40  -0.459   0.344   0.137
    1UNL    O14   41  -0.489   0.386   0.270
    1UNL    C28   42  -0.399   0.197   0.133
    1UNL    O15   43  -0.479   0.100   0.196
    1UNL    C29   44  -0.430  -0.028   0.192
    1UNL    O16   45  -0.284  -0.038   0.197
    1UNL    C30   46  -0.232  -0.177   0.213
    1UNL    C31   47  -0.189  -0.195   0.362
    1UNL    O17   48  -0.297  -0.178   0.454
    1UNL    C32   49  -0.330  -0.286   0.160
    1UNL    O18   50  -0.415  -0.337   0.265
    1UNL    C33   51  -0.419  -0.231   0.044
    1UNL    O19   52  -0.502  -0.341  -0.008
    1UNL    C34   53  -0.507  -0.109   0.085
    1UNL    O20   54  -0.626  -0.153   0.130
    1UNL     H1   55  -0.079   0.040  -0.606
    1UNL     H2   56  -0.142  -0.073  -0.498
    1UNL     H3   57  -0.178   0.110  -0.496
    1UNL     H4   58   0.096   0.182  -0.545
    1UNL     H5   59   0.153   0.243  -0.275
    1UNL     H6   60   0.268   0.261  -0.407
    1UNL     H7   61   0.248   0.139  -0.089
    1UNL     H8   62   0.520   0.192  -0.345
    1UNL     H9   63   0.598   0.403  -0.308
    1UNL    H10   64   0.732   0.311  -0.285
    1UNL    H11   65   0.651   0.375  -0.135
    1UNL    H12   66   0.672   0.096  -0.093
    1UNL    H13   67   0.703  -0.013  -0.347
    1UNL    H14   68   0.581  -0.128  -0.160
    1UNL    H15   69   0.442  -0.023  -0.380
    1UNL    H16   70   0.342  -0.107  -0.152
    1UNL    H17   71   0.233  -0.136   0.012
    1UNL    H18   72   0.566  -0.157   0.143
    1UNL    H19   73   0.605  -0.414   0.085
    1UNL    H20   74   0.643  -0.381   0.245
    1UNL    H21   75   0.422  -0.426   0.294
    1UNL    H22   76   0.541  -0.188   0.386
    1UNL    H23   77   0.354  -0.253   0.469
    1UNL    H24   78   0.344  -0.031   0.419
    1UNL    H25   79   0.500   0.037   0.184
    1UNL    H26   80   0.177  -0.132   0.248
    1UNL    H27   81   0.295   0.129   0.176
    1UNL    H28   82  -0.017  -0.131  -0.286
    1UNL    H29   83   0.093  -0.010  -0.223
    1UNL    H30   84  -0.114   0.153  -0.223
    1UNL    H31   85  -0.201  -0.012  -0.208
    1UNL    H32   86  -0.002  -0.032  -0.008
    1UNL    H33   87  -0.011   0.228   0.211
    1UNL    H34   88  -0.104   0.081   0.253
    1UNL    H35   89   0.034   0.067   0.178
    1UNL    H36   90  -0.196   0.308   0.103
    1UNL    H37   91  -0.098   0.330  -0.047
    1UNL    H38   92  -0.339   0.061  -0.033
    1UNL    H39   93  -0.493   0.377  -0.126
    1UNL    H40   94  -0.738   0.206  -0.168
    1UNL    H41   95  -0.643   0.293  -0.286
    1UNL    H42   96  -0.745   0.380  -0.182
    1UNL    H43   97  -0.629   0.450   0.059
    1UNL    H44   98  -0.630   0.191   0.146
    1UNL    H45   99  -0.384   0.410   0.103
    1UNL    H46  100  -0.540   0.319   0.311
    1UNL    H47  101  -0.300   0.199   0.191
    1UNL    H48  102  -0.451  -0.076   0.284
    1UNL    H49  103  -0.148  -0.180   0.141
    1UNL    H50  104  -0.109  -0.124   0.389
    1UNL    H51  105  -0.152  -0.295   0.378
    1UNL    H52  106  -0.369  -0.238   0.435
    1UNL    H53  107  -0.281  -0.374   0.115
    1UNL    H54  108  -0.498  -0.364   0.229
    1UNL    H55  109  -0.348  -0.206  -0.024
    1UNL    H56  110  -0.597  -0.325  -0.003
    1UNL    H57  111  -0.532  -0.041   0.001
    1UNL    H58  112  -0.691  -0.084   0.155
   0.00000   0.00000   0.00000   0.00000   0.00000   0.00000   0.00000   0.00000   0.00000
Generated with MDTraj, t= 56.0
 112
    1UNL     C1    1  -0.042   0.023  -0.549
    1UNL     C2    2   0.020   0.081  -0.424
    1UNL     C3    3   0.099   0.186  -0.431
    1UNL     C4    4   0.191   0.222  -0.322
    1UNL     O1    5   0.269   0.104  -0.283
    1UNL     C5    6   0.339   0.118  -0.158
    1UNL     O2    7   0.438   0.218  -0.161
    1UNL     C6    8   0.543   0.188  -0.259
    1UNL     C7    9   0.633   0.307  -0.286
    1UNL     C8   10   0.620   0.066  -0.204
    1UNL     O3   11   0.735   0.025  -0.274
    1UNL     C9   12   0.528  -0.066  -0.194
    1UNL     O4   13   0.502  -0.123  -0.320
    1UNL    C10   14   0.395  -0.027  -0.123
    1UNL     O5   15   0.418  -0.021   0.018
    1UNL    C11   16   0.324  -0.097   0.097
    1UNL     O6   17   0.365  -0.239   0.115
    1UNL    C12   18   0.483  -0.244   0.184
    1UNL    C13   19   0.542  -0.379   0.169
    1UNL     O7   20   0.449  -0.482   0.182
    1UNL    C14   21   0.462  -0.197   0.335
    1UNL     O8   22   0.380  -0.297   0.402
    1UNL    C15   23   0.395  -0.050   0.333
    1UNL     O9   24   0.497   0.038   0.299
    1UNL    C16   25   0.279  -0.044   0.234
    1UNL    O10   26   0.209   0.081   0.227
    1UNL    C17   27   0.006   0.002  -0.298
    1UNL    C18   28  -0.111   0.054  -0.210
    1UNL    C19   29  -0.082   0.044  -0.058
    1UNL    C20   30  -0.097   0.142   0.027
    1UNL    C21   31  -0.055   0.135   0.176
    1UNL    C22   32  -0.149   0.270  -0.024
    1UNL    O11   33  -0.286   0.272  -0.081
    1UNL    C23   34  -0.375   0.182  -0.023
    1UNL    O12   35  -0.496   0.172  -0.091
    1UNL    C24   36  -0.564   0.296  -0.088
    1UNL    C25   37  -0.691   0.280  -0.173
    1UNL    C26   38  -0.604   0.338   0.059
    1UNL    O13   39  -0.699   0.249   0.117
    1UNL    C27   40  -0.477   0.340   0.146
    1UNL    O14   41  -0.513   0.352   0.280
    1UNL    C28   42  -0.404   0.205   0.132
    1UNL    O15   43  -0.486   0.096   0.180
    1UNL    C29   44  -0.428  -0.030   0.194
    1UNL    O16   45  -0.283  -0.036   0.187
    1UNL    C30   46  -0.227  -0.168   0.214
    1UNL    C31   47  -0.187  -0.175   0.363
    1UNL    O17   48  -0.294  -0.187   0.455
    1UNL    C32   49  -0.319  -0.289   0.172
    1UNL    O18   50  -0.418  -0.317   0.272
    1UNL    C33   51  -0.404  -0.245   0.046
    1UNL    O19   52  -0.486  -0.341  -0.013
    1UNL    C34   53  -0.501  -0.121   0.084
    1UNL    O20   54  -0.620  -0.165   0.138
    1UNL     H1   55   0.018  -0.043  -0.605
    1UNL     H2   56  -0.125  -0.035  -0.535
    1UNL     H3   57  -0.061   0.102  -0.628
    1UNL     H4   58   0.102   0.246  -0.527
    1UNL     H5   59   0.126   0.264  -0.243
    1UNL     H6   60   0.263   0.295  -0.359
    1UNL     H7   61   0.263   0.141  -0.079
    1UNL     H8   62   0.491   0.165  -0.353
    1UNL     H9   63   0.575   0.378  -0.337
    1UNL    H10   64   0.706   0.279  -0.355
    1UNL    H11   65   0.687   0.343  -0.193
    1UNL    H12   66   0.652   0.086  -0.103
    1UNL    H13   67   0.698  -0.032  -0.342
    1UNL    H14   68   0.575  -0.149  -0.132
    1UNL    H15   69   0.426  -0.071  -0.364
    1UNL    H16   70   0.319  -0.105  -0.149
    1UNL    H17   71   0.228  -0.101   0.039
    1UNL    H18   72   0.547  -0.162   0.138
    1UNL    H19   73   0.599  -0.381   0.072
    1UNL    H20   74   0.621  -0.403   0.238
    1UNL    H21   75   0.364  -0.449   0.146
    1UNL    H22   76   0.553  -0.205   0.392
    1UNL    H23   77   0.324  -0.261   0.473
    1UNL    H24   78   0.364  -0.012   0.438
    1UNL    H25   79   0.499   0.044   0.200
    1UNL    H26   80   0.195  -0.110   0.273
    1UNL    H27   81   0.265   0.143   0.181
    1UNL    H28   82  -0.013  -0.107  -0.319
    1UNL    H29   83   0.101   0.009  -0.247
    1UNL    H30   84  -0.122   0.166  -0.229
    1UNL    H31   85  -0.208  -0.001  -0.241
    1UNL    H32   86  -0.042  -0.054  -0.018
    1UNL    H33   87   0.007   0.222   0.187
    1UNL    H34   88  -0.130   0.131   0.242
    1UNL    H35   89   0.014   0.043   0.196
    1UNL    H36   90  -0.154   0.348   0.049
    1UNL    H37   91  -0.090   0.298  -0.109
    1UNL    H38   92  -0.333   0.076  -0.022
    1UNL    H39   93  -0.503   0.374  -0.130
    1UNL    H40   94  -0.755   0.209  -0.121
    1UNL    H41   95  -0.662   0.244  -0.271
    1UNL    H42   96  -0.735   0.376  -0.186
    1UNL    H43   97  -0.655   0.432   0.058
    1UNL    H44   98  -0.645   0.169   0.132
    1UNL    H45   99  -0.414   0.424   0.122
    1UNL    H46  100  -0.585   0.284   0.307
    1UNL    H47  101  -0.311   0.214   0.198
    1UNL    H48  102  -0.452  -0.065   0.290
    1UNL    H49  103  -0.132  -0.169   0.156
    1UNL    H50  104  -0.130  -0.088   0.395
    1UNL    H51  105  -0.123  -0.257   0.378
    1UNL    H52  106  -0.348  -0.265   0.420
    1UNL    H53  107  -0.266  -0.386   0.160
    1UNL    H54  108  -0.508  -0.285   0.236
    1UNL    H55  109  -0.330  -0.209  -0.015
    1UNL    H56  110  -0.565  -0.365   0.045
    1UNL    H57  111  -0.529  -0.047   0.005
    1UNL    H58  112  -0.684  -0.097   0.165
   0.00000   0.00000   0.00000   0.00000   0.00000   0.00000   0.00000   0.00000   0.00000
Generated with MDTraj, t= 57.0
 112
    1UNL     C1    1  -0.047   0.066  -0.580
    1UNL     C2    2   0.024   0.091  -0.451
    1UNL     C3    3   0.121   0.177  -0.434
    1UNL     C4    4   0.198   0.196  -0.311
    1UNL     O1    5   0.264   0.078  -0.265
    1UNL     C5    6   0.341   0.120  -0.147
    1UNL     O2    7   0.436   0.221  -0.176
    1UNL     C6    8   0.546   0.175  -0.262
    1UNL     C7    9   0.640   0.286  -0.300
    1UNL     C8   10   0.615   0.051  -0.188
    1UNL     O3   11   0.706   0.006  -0.289
    1UNL     C9   12   0.517  -0.064  -0.158
    1UNL     O4   13   0.476  -0.120  -0.279
    1UNL    C10   14   0.394  -0.011  -0.082
    1UNL     O5   15   0.403   0.005   0.062
    1UNL    C11   16   0.320  -0.079   0.126
    1UNL     O6   17   0.363  -0.222   0.110
    1UNL    C12   18   0.484  -0.246   0.167
    1UNL    C13   19   0.520  -0.390   0.152
    1UNL     O7   20   0.423  -0.488   0.191
    1UNL    C14   21   0.475  -0.210   0.313
    1UNL     O8   22   0.380  -0.302   0.366
    1UNL    C15   23   0.434  -0.055   0.332
    1UNL     O9   24   0.540   0.027   0.289
    1UNL    C16   25   0.296  -0.033   0.265
    1UNL    O10   26   0.253   0.099   0.264
    1UNL    C17   27  -0.023   0.007  -0.334
    1UNL    C18   28  -0.104   0.090  -0.231
    1UNL    C19   29  -0.060   0.065  -0.089
    1UNL    C20   30  -0.084   0.147   0.008
    1UNL    C21   31  -0.023   0.130   0.137
    1UNL    C22   32  -0.162   0.276  -0.014
    1UNL    O11   33  -0.300   0.256  -0.059
    1UNL    C23   34  -0.390   0.160  -0.005
    1UNL    O12   35  -0.507   0.147  -0.083
    1UNL    C24   36  -0.570   0.277  -0.088
    1UNL    C25   37  -0.689   0.277  -0.183
    1UNL    C26   38  -0.612   0.321   0.053
    1UNL    O13   39  -0.704   0.236   0.115
    1UNL    C27   40  -0.491   0.330   0.150
    1UNL    O14   41  -0.528   0.364   0.279
    1UNL    C28   42  -0.422   0.194   0.147
    1UNL    O15   43  -0.503   0.090   0.201
    1UNL    C29   44  -0.434  -0.034   0.209
    1UNL    O16   45  -0.289  -0.037   0.193
    1UNL    C30   46  -0.220  -0.159   0.208
    1UNL    C31   47  -0.188  -0.167   0.358
    1UNL    O17   48  -0.297  -0.137   0.435
    1UNL    C32   49  -0.313  -0.275   0.166
    1UNL    O18   50  -0.406  -0.306   0.267
    1UNL    C33   51  -0.395  -0.236   0.042
    1UNL    O19   52  -0.468  -0.342  -0.018
    1UNL    C34   53  -0.494  -0.122   0.093
    1UNL    O20   54  -0.612  -0.179   0.119
    1UNL     H1   55  -0.029  -0.032  -0.614
    1UNL     H2   56  -0.150   0.077  -0.566
    1UNL     H3   57  -0.004   0.137  -0.654
    1UNL     H4   58   0.144   0.239  -0.513
    1UNL     H5   59   0.126   0.218  -0.228
    1UNL     H6   60   0.266   0.281  -0.326
    1UNL     H7   61   0.263   0.158  -0.081
    1UNL     H8   62   0.494   0.140  -0.350
    1UNL     H9   63   0.585   0.373  -0.339
    1UNL    H10   64   0.701   0.263  -0.382
    1UNL    H11   65   0.711   0.313  -0.226
    1UNL    H12   66   0.673   0.081  -0.104
    1UNL    H13   67   0.668  -0.071  -0.345
    1UNL    H14   68   0.561  -0.157  -0.106
    1UNL    H15   69   0.392  -0.074  -0.303
    1UNL    H16   70   0.310  -0.084  -0.098
    1UNL    H17   71   0.219  -0.072   0.074
    1UNL    H18   72   0.555  -0.172   0.121
    1UNL    H19   73   0.531  -0.410   0.045
    1UNL    H20   74   0.619  -0.408   0.189
    1UNL    H21   75   0.368  -0.466   0.270
    1UNL    H22   76   0.568  -0.229   0.365
    1UNL    H23   77   0.314  -0.258   0.431
    1UNL    H24   78   0.427  -0.020   0.440
    1UNL    H25   79   0.519   0.047   0.195
    1UNL    H26   80   0.217  -0.090   0.318
    1UNL    H27   81   0.294   0.140   0.182
    1UNL    H28   82  -0.071  -0.081  -0.383
    1UNL    H29   83   0.066  -0.031  -0.280
    1UNL    H30   84  -0.093   0.201  -0.251
    1UNL    H31   85  -0.215   0.056  -0.228
    1UNL    H32   86  -0.010  -0.023  -0.072
    1UNL    H33   87  -0.001   0.226   0.169
    1UNL    H34   88  -0.077   0.064   0.205
    1UNL    H35   89   0.080   0.079   0.123
    1UNL    H36   90  -0.184   0.332   0.076
    1UNL    H37   91  -0.123   0.339  -0.092
    1UNL    H38   92  -0.340   0.058  -0.009
    1UNL    H39   93  -0.486   0.337  -0.122
    1UNL    H40   94  -0.767   0.216  -0.133
    1UNL    H41   95  -0.657   0.238  -0.279
    1UNL    H42   96  -0.717   0.377  -0.199
    1UNL    H43   97  -0.667   0.411   0.048
    1UNL    H44   98  -0.668   0.143   0.107
    1UNL    H45   99  -0.421   0.404   0.112
    1UNL    H46  100  -0.591   0.305   0.319
    1UNL    H47  101  -0.319   0.206   0.199
    1UNL    H48  102  -0.462  -0.079   0.300
    1UNL    H49  103  -0.123  -0.149   0.156
    1UNL    H50  104  -0.120  -0.086   0.386
    1UNL    H51  105  -0.140  -0.253   0.394
    1UNL    H52  106  -0.350  -0.219   0.439
    1UNL    H53  107  -0.268  -0.376   0.142
    1UNL    H54  108  -0.485  -0.339   0.229
    1UNL    H55  109  -0.330  -0.200  -0.029
    1UNL    H56  110  -0.570  -0.329  -0.011
    1UNL    H57  111  -0.520  -0.058   0.006
    1UNL    H58  112  -0.677  -0.124   0.170
   0.00000   0.00000   0.00000   0.00000   0.00000   0.00000   0.00000   0.00000   0.00000
Generated with MDTraj, t= 58.0
 112
    1UNL     C1    1  -0.072   0.097  -0.597
    1UNL     C2    2   0.011   0.118  -0.465
    1UNL     C3    3   0.132   0.174  -0.461
    1UNL     C4    4   0.218   0.193  -0.345
    1UNL     O1    5   0.251   0.072  -0.282
    1UNL     C5    6   0.323   0.107  -0.161
    1UNL     O2    7   0.419   0.208  -0.181
    1UNL     C6    8   0.531   0.163  -0.260
    1UNL     C7    9   0.632   0.271  -0.288
    1UNL     C8   10   0.599   0.044  -0.186
    1UNL     O3   11   0.703  -0.006  -0.277
    1UNL     C9   12   0.496  -0.071  -0.168
    1UNL     O4   13   0.458  -0.126  -0.293
    1UNL    C10   14   0.374  -0.017  -0.084
    1UNL     O5   15   0.407   0.014   0.058
    1UNL    C11   16   0.321  -0.047   0.156
    1UNL     O6   17   0.325  -0.196   0.145
    1UNL    C12   18   0.453  -0.243   0.167
    1UNL    C13   19   0.485  -0.390   0.118
    1UNL     O7   20   0.426  -0.491   0.198
    1UNL    C14   21   0.483  -0.230   0.319
    1UNL     O8   22   0.404  -0.323   0.390
    1UNL    C15   23   0.467  -0.083   0.361
    1UNL     O9   24   0.565   0.001   0.310
    1UNL    C16   25   0.330  -0.016   0.315
    1UNL    O10   26   0.328   0.125   0.330
    1UNL    C17   27  -0.037   0.041  -0.348
    1UNL    C18   28  -0.103   0.131  -0.240
    1UNL    C19   29  -0.041   0.101  -0.106
    1UNL    C20   30  -0.076   0.167  -0.001
    1UNL    C21   31  -0.028   0.128   0.135
    1UNL    C22   32  -0.175   0.281  -0.005
    1UNL    O11   33  -0.293   0.257  -0.075
    1UNL    C23   34  -0.383   0.164  -0.008
    1UNL    O12   35  -0.506   0.132  -0.077
    1UNL    C24   36  -0.582   0.254  -0.100
    1UNL    C25   37  -0.698   0.230  -0.192
    1UNL    C26   38  -0.622   0.312   0.039
    1UNL    O13   39  -0.708   0.226   0.105
    1UNL    C27   40  -0.499   0.330   0.140
    1UNL    O14   41  -0.543   0.359   0.272
    1UNL    C28   42  -0.417   0.199   0.140
    1UNL    O15   43  -0.494   0.097   0.198
    1UNL    C29   44  -0.432  -0.029   0.192
    1UNL    O16   45  -0.289  -0.032   0.189
    1UNL    C30   46  -0.221  -0.151   0.209
    1UNL    C31   47  -0.180  -0.151   0.358
    1UNL    O17   48  -0.290  -0.152   0.448
    1UNL    C32   49  -0.310  -0.273   0.166
    1UNL    O18   50  -0.395  -0.331   0.258
    1UNL    C33   51  -0.389  -0.228   0.043
    1UNL    O19   52  -0.453  -0.332  -0.022
    1UNL    C34   53  -0.494  -0.120   0.086
    1UNL    O20   54  -0.609  -0.179   0.132
    1UNL     H1   55  -0.087  -0.008  -0.610
    1UNL     H2   56  -0.167   0.146  -0.586
    1UNL     H3   57  -0.018   0.136  -0.675
    1UNL     H4   58   0.168   0.214  -0.559
    1UNL     H5   59   0.167   0.264  -0.275
    1UNL     H6   60   0.318   0.231  -0.370
    1UNL     H7   61   0.247   0.152  -0.099
    1UNL     H8   62   0.487   0.126  -0.352
    1UNL     H9   63   0.591   0.335  -0.372
    1UNL    H10   64   0.716   0.226  -0.332
    1UNL    H11   65   0.671   0.326  -0.213
    1UNL    H12   66   0.639   0.079  -0.095
    1UNL    H13   67   0.667  -0.067  -0.338
    1UNL    H14   68   0.538  -0.162  -0.108
    1UNL    H15   69   0.381  -0.066  -0.316
    1UNL    H16   70   0.298  -0.097  -0.071
    1UNL    H17   71   0.218  -0.015   0.126
    1UNL    H18   72   0.513  -0.171   0.111
    1UNL    H19   73   0.461  -0.398   0.012
    1UNL    H20   74   0.592  -0.399   0.116
    1UNL    H21   75   0.446  -0.493   0.294
    1UNL    H22   76   0.585  -0.267   0.333
    1UNL    H23   77   0.303  -0.302   0.384
    1UNL    H24   78   0.484  -0.074   0.471
    1UNL    H25   79   0.557   0.006   0.213
    1UNL    H26   80   0.254  -0.058   0.381
    1UNL    H27   81   0.418   0.155   0.303
    1UNL    H28   82  -0.109  -0.040  -0.370
    1UNL    H29   83   0.057  -0.007  -0.313
    1UNL    H30   84  -0.101   0.241  -0.260
    1UNL    H31   85  -0.216   0.103  -0.235
    1UNL    H32   86   0.030   0.016  -0.092
    1UNL    H33   87   0.016   0.210   0.183
    1UNL    H34   88  -0.111   0.082   0.204
    1UNL    H35   89   0.038   0.056   0.136
    1UNL    H36   90  -0.205   0.303   0.097
    1UNL    H37   91  -0.127   0.361  -0.062
    1UNL    H38   92  -0.327   0.065  -0.009
    1UNL    H39   93  -0.500   0.318  -0.138
    1UNL    H40   94  -0.751   0.138  -0.157
    1UNL    H41   95  -0.666   0.220  -0.293
    1UNL    H42   96  -0.764   0.313  -0.195
    1UNL    H43   97  -0.666   0.407   0.028
    1UNL    H44   98  -0.653   0.148   0.123
    1UNL    H45   99  -0.437   0.414   0.103
    1UNL    H46  100  -0.580   0.283   0.314
    1UNL    H47  101  -0.321   0.216   0.198
    1UNL    H48  102  -0.449  -0.066   0.292
    1UNL    H49  103  -0.128  -0.139   0.153
    1UNL    H50  104  -0.129  -0.059   0.394
    1UNL    H51  105  -0.112  -0.229   0.382
    1UNL    H52  106  -0.331  -0.241   0.455
    1UNL    H53  107  -0.242  -0.358   0.139
    1UNL    H54  108  -0.492  -0.296   0.249
    1UNL    H55  109  -0.320  -0.195  -0.026
    1UNL    H56  110  -0.491  -0.392   0.037
    1UNL    H57  111  -0.513  -0.056  -0.001
    1UNL    H58  112  -0.667  -0.105   0.165
   0.00000   0.00000   0.00000   0.00000   0.00000   0.00000   0.00000   0.00000   0.00000
Generated with MDTraj, t= 59.0
 112
    1UNL     C1    1  -0.071   0.119  -0.582
    1UNL     C2    2   0.021   0.119  -0.462
    1UNL     C3    3   0.145   0.162  -0.469
    1UNL     C4    4   0.228   0.188  -0.350
    1UNL     O1    5   0.236   0.077  -0.262
    1UNL     C5    6   0.302   0.113  -0.140
    1UNL     O2    7   0.408   0.206  -0.141
    1UNL     C6    8   0.511   0.152  -0.236
    1UNL     C7    9   0.614   0.263  -0.262
    1UNL     C8   10   0.574   0.028  -0.168
    1UNL     O3   11   0.685  -0.035  -0.235
    1UNL     C9   12   0.466  -0.082  -0.149
    1UNL     O4   13   0.437  -0.154  -0.265
    1UNL    C10   14   0.353  -0.015  -0.072
    1UNL     O5   15   0.399   0.016   0.063
    1UNL    C11   16   0.324  -0.055   0.152
    1UNL     O6   17   0.323  -0.197   0.138
    1UNL    C12   18   0.456  -0.244   0.157
    1UNL    C13   19   0.461  -0.395   0.103
    1UNL     O7   20   0.379  -0.477   0.174
    1UNL    C14   21   0.500  -0.230   0.310
    1UNL     O8   22   0.408  -0.296   0.393
    1UNL    C15   23   0.510  -0.080   0.332
    1UNL     O9   24   0.622  -0.020   0.261
    1UNL    C16   25   0.368  -0.012   0.298
    1UNL    O10   26   0.378   0.132   0.301
    1UNL    C17   27  -0.035   0.055  -0.340
    1UNL    C18   28  -0.081   0.158  -0.231
    1UNL    C19   29  -0.053   0.124  -0.088
    1UNL    C20   30  -0.090   0.200   0.011
    1UNL    C21   31  -0.047   0.172   0.153
    1UNL    C22   32  -0.184   0.318  -0.017
    1UNL    O11   33  -0.307   0.284  -0.079
    1UNL    C23   34  -0.373   0.177  -0.013
    1UNL    O12   35  -0.491   0.130  -0.085
    1UNL    C24   36  -0.584   0.236  -0.113
    1UNL    C25   37  -0.700   0.182  -0.199
    1UNL    C26   38  -0.633   0.298   0.026
    1UNL    O13   39  -0.708   0.199   0.088
    1UNL    C27   40  -0.512   0.332   0.117
    1UNL    O14   41  -0.556   0.373   0.245
    1UNL    C28   42  -0.413   0.208   0.129
    1UNL    O15   43  -0.484   0.104   0.192
    1UNL    C29   44  -0.422  -0.023   0.193
    1UNL    O16   45  -0.278  -0.026   0.198
    1UNL    C30   46  -0.210  -0.153   0.217
    1UNL    C31   47  -0.177  -0.180   0.367
    1UNL    O17   48  -0.286  -0.180   0.451
    1UNL    C32   49  -0.291  -0.279   0.159
    1UNL    O18   50  -0.369  -0.348   0.253
    1UNL    C33   51  -0.386  -0.228   0.036
    1UNL    O19   52  -0.460  -0.333  -0.023
    1UNL    C34   53  -0.495  -0.116   0.088
    1UNL    O20   54  -0.594  -0.190   0.149
    1UNL     H1   55  -0.115   0.025  -0.605
    1UNL     H2   56  -0.146   0.198  -0.571
    1UNL     H3   57  -0.020   0.148  -0.664
    1UNL     H4   58   0.176   0.208  -0.560
    1UNL     H5   59   0.183   0.272  -0.291
    1UNL     H6   60   0.328   0.222  -0.380
    1UNL     H7   61   0.224   0.158  -0.081
    1UNL     H8   62   0.459   0.122  -0.325
    1UNL     H9   63   0.552   0.342  -0.306
    1UNL    H10   64   0.686   0.226  -0.330
    1UNL    H11   65   0.663   0.294  -0.175
    1UNL    H12   66   0.601   0.058  -0.071
    1UNL    H13   67   0.649  -0.081  -0.321
    1UNL    H14   68   0.522  -0.164  -0.087
    1UNL    H15   69   0.383  -0.111  -0.336
    1UNL    H16   70   0.269  -0.085  -0.064
    1UNL    H17   71   0.217  -0.025   0.128
    1UNL    H18   72   0.516  -0.179   0.098
    1UNL    H19   73   0.427  -0.388  -0.000
    1UNL    H20   74   0.566  -0.423   0.095
    1UNL    H21   75   0.353  -0.424   0.254
    1UNL    H22   76   0.599  -0.279   0.320
    1UNL    H23   77   0.323  -0.249   0.378
    1UNL    H24   78   0.533  -0.064   0.438
    1UNL    H25   79   0.584   0.015   0.176
    1UNL    H26   80   0.298  -0.051   0.368
    1UNL    H27   81   0.445   0.158   0.237
    1UNL    H28   82  -0.116  -0.012  -0.370
    1UNL    H29   83   0.037  -0.008  -0.283
    1UNL    H30   84  -0.036   0.256  -0.258
    1UNL    H31   85  -0.193   0.182  -0.245
    1UNL    H32   86   0.002   0.035  -0.067
    1UNL    H33   87   0.048   0.121   0.152
    1UNL    H34   88  -0.039   0.265   0.212
    1UNL    H35   89  -0.127   0.110   0.206
    1UNL    H36   90  -0.212   0.364   0.080
    1UNL    H37   91  -0.138   0.382  -0.094
    1UNL    H38   92  -0.309   0.083  -0.009
    1UNL    H39   93  -0.528   0.315  -0.170
    1UNL    H40   94  -0.777   0.135  -0.139
    1UNL    H41   95  -0.674   0.108  -0.272
    1UNL    H42   96  -0.746   0.257  -0.262
    1UNL    H43   97  -0.693   0.384   0.008
    1UNL    H44   98  -0.646   0.129   0.120
    1UNL    H45   99  -0.461   0.418   0.066
    1UNL    H46  100  -0.555   0.302   0.318
    1UNL    H47  101  -0.331   0.237   0.199
    1UNL    H48  102  -0.446  -0.073   0.285
    1UNL    H49  103  -0.118  -0.126   0.164
    1UNL    H50  104  -0.107  -0.100   0.408
    1UNL    H51  105  -0.127  -0.275   0.381
    1UNL    H52  106  -0.368  -0.216   0.402
    1UNL    H53  107  -0.220  -0.352   0.116
    1UNL    H54  108  -0.461  -0.328   0.240
    1UNL    H55  109  -0.334  -0.191  -0.044
    1UNL    H56  110  -0.546  -0.338   0.035
    1UNL    H57  111  -0.537  -0.057   0.006
    1UNL    H58  112  -0.666  -0.131   0.181
   0.00000   0.00000   0.00000   0.00000   0.00000   0.00000   0.00000   0.00000   0.00000
Generated with MDTraj, t= 60.0
 112
    1UNL     C1    1  -0.080   0.093  -0.564
    1UNL     C2    2   0.010   0.112  -0.445
    1UNL     C3    3   0.119   0.187  -0.451
    1UNL     C4    4   0.204   0.217  -0.330
    1UNL     O1    5   0.242   0.094  -0.264
    1UNL     C5    6   0.304   0.115  -0.141
    1UNL     O2    7   0.419   0.196  -0.153
    1UNL     C6    8   0.534   0.140  -0.225
    1UNL     C7    9   0.646   0.250  -0.214
    1UNL     C8   10   0.576  -0.000  -0.161
    1UNL     O3   11   0.676  -0.073  -0.236
    1UNL     C9   12   0.454  -0.094  -0.155
    1UNL     O4   13   0.422  -0.125  -0.288
    1UNL    C10   14   0.337  -0.022  -0.074
    1UNL     O5   15   0.380   0.017   0.061
    1UNL    C11   16   0.317  -0.054   0.171
    1UNL     O6   17   0.316  -0.192   0.145
    1UNL    C12   18   0.448  -0.256   0.156
    1UNL    C13   19   0.428  -0.404   0.111
    1UNL     O7   20   0.338  -0.466   0.180
    1UNL    C14   21   0.512  -0.235   0.296
    1UNL     O8   22   0.421  -0.268   0.399
    1UNL    C15   23   0.542  -0.085   0.309
    1UNL     O9   24   0.624  -0.031   0.209
    1UNL    C16   25   0.403  -0.016   0.303
    1UNL    O10   26   0.412   0.128   0.315
    1UNL    C17   27  -0.030   0.056  -0.312
    1UNL    C18   28  -0.089   0.160  -0.217
    1UNL    C19   29  -0.045   0.156  -0.074
    1UNL    C20   30  -0.094   0.231   0.021
    1UNL    C21   31  -0.036   0.218   0.156
    1UNL    C22   32  -0.201   0.331  -0.011
    1UNL    O11   33  -0.326   0.273  -0.066
    1UNL    C23   34  -0.376   0.155  -0.004
    1UNL    O12   35  -0.484   0.103  -0.083
    1UNL    C24   36  -0.571   0.205  -0.113
    1UNL    C25   37  -0.683   0.155  -0.205
    1UNL    C26   38  -0.634   0.273   0.012
    1UNL    O13   39  -0.710   0.179   0.079
    1UNL    C27   40  -0.524   0.322   0.105
    1UNL    O14   41  -0.585   0.363   0.224
    1UNL    C28   42  -0.423   0.203   0.132
    1UNL    O15   43  -0.481   0.100   0.210
    1UNL    C29   44  -0.405  -0.023   0.195
    1UNL    O16   45  -0.259  -0.012   0.170
    1UNL    C30   46  -0.199  -0.144   0.199
    1UNL    C31   47  -0.184  -0.158   0.363
    1UNL    O17   48  -0.302  -0.185   0.429
    1UNL    C32   49  -0.284  -0.265   0.138
    1UNL    O18   50  -0.364  -0.322   0.237
    1UNL    C33   51  -0.384  -0.215   0.027
    1UNL    O19   52  -0.454  -0.318  -0.036
    1UNL    C34   53  -0.481  -0.113   0.095
    1UNL    O20   54  -0.578  -0.183   0.161
    1UNL     H1   55  -0.150   0.016  -0.564
    1UNL     H2   56  -0.124   0.184  -0.595
    1UNL     H3   57  -0.026   0.074  -0.657
    1UNL     H4   58   0.134   0.242  -0.541
    1UNL     H5   59   0.147   0.284  -0.263
    1UNL     H6   60   0.297   0.269  -0.357
    1UNL     H7   61   0.235   0.176  -0.085
    1UNL     H8   62   0.507   0.126  -0.330
    1UNL     H9   63   0.609   0.334  -0.260
    1UNL    H10   64   0.732   0.207  -0.260
    1UNL    H11   65   0.671   0.271  -0.107
    1UNL    H12   66   0.609   0.014  -0.062
    1UNL    H13   67   0.629  -0.101  -0.319
    1UNL    H14   68   0.481  -0.196  -0.106
    1UNL    H15   69   0.349  -0.071  -0.320
    1UNL    H16   70   0.250  -0.088  -0.068
    1UNL    H17   71   0.212  -0.017   0.173
    1UNL    H18   72   0.508  -0.201   0.088
    1UNL    H19   73   0.388  -0.398   0.009
    1UNL    H20   74   0.527  -0.453   0.105
    1UNL    H21   75   0.317  -0.417   0.264
    1UNL    H22   76   0.605  -0.295   0.318
    1UNL    H23   77   0.343  -0.216   0.381
    1UNL    H24   78   0.589  -0.067   0.405
    1UNL    H25   79   0.570  -0.015   0.129
    1UNL    H26   80   0.346  -0.041   0.389
    1UNL    H27   81   0.478   0.167   0.253
    1UNL    H28   82  -0.090  -0.033  -0.319
    1UNL    H29   83   0.064   0.013  -0.264
    1UNL    H30   84  -0.071   0.265  -0.251
    1UNL    H31   85  -0.205   0.168  -0.220
    1UNL    H32   86   0.022   0.077  -0.050
    1UNL    H33   87  -0.065   0.118   0.213
    1UNL    H34   88   0.064   0.223   0.149
    1UNL    H35   89  -0.074   0.315   0.211
    1UNL    H36   90  -0.243   0.391   0.072
    1UNL    H37   91  -0.164   0.398  -0.091
    1UNL    H38   92  -0.298   0.074  -0.007
    1UNL    H39   93  -0.516   0.287  -0.171
    1UNL    H40   94  -0.716   0.059  -0.174
    1UNL    H41   95  -0.649   0.146  -0.306
    1UNL    H42   96  -0.767   0.227  -0.216
    1UNL    H43   97  -0.699   0.357  -0.011
    1UNL    H44   98  -0.664   0.094   0.104
    1UNL    H45   99  -0.462   0.402   0.055
    1UNL    H46  100  -0.620   0.291   0.280
    1UNL    H47  101  -0.330   0.236   0.185
    1UNL    H48  102  -0.408  -0.068   0.293
    1UNL    H49  103  -0.099  -0.136   0.154
    1UNL    H50  104  -0.142  -0.062   0.410
    1UNL    H51  105  -0.110  -0.238   0.381
    1UNL    H52  106  -0.347  -0.262   0.392
    1UNL    H53  107  -0.214  -0.339   0.099
    1UNL    H54  108  -0.464  -0.310   0.218
    1UNL    H55  109  -0.331  -0.167  -0.048
    1UNL    H56  110  -0.528  -0.335   0.028
    1UNL    H57  111  -0.524  -0.046   0.022
    1UNL    H58  112  -0.622  -0.135   0.233
   0.00000   0.00000   0.00000   0.00000   0.00000   0.00000   0.00000   0.00000   0.00000
Generated with MDTraj, t= 61.0
 112
    1UNL     C1    1  -0.078   0.084  -0.542
    1UNL     C2    2   0.005   0.112  -0.421
    1UNL     C3    3   0.112   0.188  -0.439
    1UNL     C4    4   0.195   0.226  -0.326
    1UNL     O1    5   0.252   0.111  -0.259
    1UNL     C5    6   0.326   0.138  -0.140
    1UNL     O2    7   0.455   0.200  -0.154
    1UNL     C6    8   0.554   0.130  -0.230
    1UNL     C7    9   0.685   0.214  -0.213
    1UNL     C8   10   0.573  -0.014  -0.185
    1UNL     O3   11   0.668  -0.075  -0.272
    1UNL     C9   12   0.437  -0.091  -0.174
    1UNL     O4   13   0.378  -0.118  -0.300
    1UNL    C10   14   0.350  -0.001  -0.074
    1UNL     O5   15   0.412   0.024   0.058
    1UNL    C11   16   0.329  -0.039   0.163
    1UNL     O6   17   0.298  -0.175   0.149
    1UNL    C12   18   0.410  -0.265   0.149
    1UNL    C13   19   0.367  -0.415   0.120
    1UNL     O7   20   0.328  -0.470   0.241
    1UNL    C14   21   0.500  -0.241   0.277
    1UNL     O8   22   0.451  -0.303   0.390
    1UNL    C15   23   0.523  -0.090   0.315
    1UNL     O9   24   0.625  -0.035   0.234
    1UNL    C16   25   0.396  -0.005   0.300
    1UNL    O10   26   0.432   0.130   0.307
    1UNL    C17   27  -0.025   0.045  -0.289
    1UNL    C18   28  -0.106   0.133  -0.197
    1UNL    C19   29  -0.049   0.149  -0.061
    1UNL    C20   30  -0.086   0.240   0.025
    1UNL    C21   31  -0.025   0.245   0.158
    1UNL    C22   32  -0.189   0.342  -0.005
    1UNL    O11   33  -0.315   0.299  -0.067
    1UNL    C23   34  -0.370   0.182   0.001
    1UNL    O12   35  -0.466   0.112  -0.081
    1UNL    C24   36  -0.578   0.194  -0.118
    1UNL    C25   37  -0.684   0.126  -0.211
    1UNL    C26   38  -0.653   0.244   0.010
    1UNL    O13   39  -0.720   0.142   0.081
    1UNL    C27   40  -0.551   0.314   0.102
    1UNL    O14   41  -0.617   0.341   0.223
    1UNL    C28   42  -0.438   0.212   0.135
    1UNL    O15   43  -0.496   0.097   0.198
    1UNL    C29   44  -0.421  -0.021   0.204
    1UNL    O16   45  -0.280  -0.003   0.187
    1UNL    C30   46  -0.207  -0.123   0.189
    1UNL    C31   47  -0.173  -0.158   0.335
    1UNL    O17   48  -0.280  -0.154   0.428
    1UNL    C32   49  -0.268  -0.244   0.124
    1UNL    O18   50  -0.330  -0.328   0.215
    1UNL    C33   51  -0.378  -0.194   0.023
    1UNL    O19   52  -0.427  -0.300  -0.051
    1UNL    C34   53  -0.483  -0.118   0.100
    1UNL    O20   54  -0.582  -0.203   0.152
    1UNL     H1   55  -0.172   0.053  -0.516
    1UNL     H2   56  -0.068   0.168  -0.603
    1UNL     H3   57  -0.034   0.005  -0.608
    1UNL     H4   58   0.132   0.231  -0.540
    1UNL     H5   59   0.135   0.278  -0.250
    1UNL     H6   60   0.274   0.295  -0.355
    1UNL     H7   61   0.265   0.204  -0.079
    1UNL     H8   62   0.537   0.132  -0.339
    1UNL     H9   63   0.676   0.310  -0.249
    1UNL    H10   64   0.767   0.164  -0.257
    1UNL    H11   65   0.712   0.227  -0.105
    1UNL    H12   66   0.627  -0.016  -0.094
    1UNL    H13   67   0.628  -0.087  -0.354
    1UNL    H14   68   0.451  -0.201  -0.134
    1UNL    H15   69   0.348  -0.025  -0.330
    1UNL    H16   70   0.256  -0.052  -0.058
    1UNL    H17   71   0.232   0.014   0.159
    1UNL    H18   72   0.465  -0.232   0.065
    1UNL    H19   73   0.286  -0.414   0.045
    1UNL    H20   74   0.445  -0.478   0.071
    1UNL    H21   75   0.391  -0.487   0.316
    1UNL    H22   76   0.602  -0.290   0.271
    1UNL    H23   77   0.362  -0.261   0.401
    1UNL    H24   78   0.549  -0.078   0.417
    1UNL    H25   79   0.591  -0.027   0.142
    1UNL    H26   80   0.327  -0.021   0.378
    1UNL    H27   81   0.502   0.151   0.239
    1UNL    H28   82  -0.079  -0.047  -0.300
    1UNL    H29   83   0.070   0.010  -0.238
    1UNL    H30   84  -0.134   0.232  -0.242
    1UNL    H31   85  -0.214   0.096  -0.183
    1UNL    H32   86   0.025   0.070  -0.030
    1UNL    H33   87  -0.083   0.310   0.236
    1UNL    H34   88  -0.010   0.148   0.212
    1UNL    H35   89   0.072   0.299   0.145
    1UNL    H36   90  -0.216   0.401   0.085
    1UNL    H37   91  -0.152   0.409  -0.087
    1UNL    H38   92  -0.283   0.112   0.015
    1UNL    H39   93  -0.526   0.281  -0.176
    1UNL    H40   94  -0.749   0.069  -0.151
    1UNL    H41   95  -0.632   0.060  -0.280
    1UNL    H42   96  -0.734   0.202  -0.275
    1UNL    H43   97  -0.728   0.324  -0.007
    1UNL    H44   98  -0.660   0.100   0.143
    1UNL    H45   99  -0.517   0.411   0.050
    1UNL    H46  100  -0.640   0.263   0.269
    1UNL    H47  101  -0.369   0.256   0.209
    1UNL    H48  102  -0.441  -0.068   0.301
    1UNL    H49  103  -0.113  -0.100   0.135
    1UNL    H50  104  -0.094  -0.082   0.370
    1UNL    H51  105  -0.127  -0.259   0.341
    1UNL    H52  106  -0.330  -0.240   0.418
    1UNL    H53  107  -0.195  -0.306   0.075
    1UNL    H54  108  -0.414  -0.282   0.236
    1UNL    H55  109  -0.326  -0.140  -0.051
    1UNL    H56  110  -0.477  -0.355   0.009
    1UNL    H57  111  -0.530  -0.055   0.026
    1UNL    H58  112  -0.649  -0.161   0.211
   0.00000   0.00000   0.00000   0.00000   0.00000   0.00000   0.00000   0.00000   0.00000
Generated with MDTraj, t= 62.0
 112
    1UNL     C1    1  -0.063   0.090  -0.523
    1UNL     C2    2   0.016   0.129  -0.401
    1UNL     C3    3   0.117   0.218  -0.401
    1UNL     C4    4   0.213   0.239  -0.291
    1UNL     O1    5   0.261   0.117  -0.242
    1UNL     C5    6   0.343   0.123  -0.125
    1UNL     O2    7   0.465   0.188  -0.147
    1UNL     C6    8   0.543   0.120  -0.252
    1UNL     C7    9   0.664   0.202  -0.292
    1UNL     C8   10   0.586  -0.024  -0.217
    1UNL     O3   11   0.667  -0.071  -0.319
    1UNL     C9   12   0.449  -0.101  -0.181
    1UNL     O4   13   0.362  -0.131  -0.291
    1UNL    C10   14   0.366  -0.022  -0.080
    1UNL     O5   15   0.419  -0.009   0.055
    1UNL    C11   16   0.323  -0.034   0.165
    1UNL     O6   17   0.290  -0.169   0.167
    1UNL    C12   18   0.402  -0.260   0.163
    1UNL    C13   19   0.358  -0.405   0.132
    1UNL     O7   20   0.278  -0.462   0.238
    1UNL    C14   21   0.487  -0.246   0.294
    1UNL     O8   22   0.429  -0.292   0.412
    1UNL    C15   23   0.523  -0.089   0.314
    1UNL     O9   24   0.622  -0.057   0.213
    1UNL    C16   25   0.394   0.007   0.301
    1UNL    O10   26   0.423   0.140   0.309
    1UNL    C17   27  -0.017   0.051  -0.281
    1UNL    C18   28  -0.112   0.122  -0.183
    1UNL    C19   29  -0.061   0.141  -0.044
    1UNL    C20   30  -0.105   0.227   0.044
    1UNL    C21   31  -0.032   0.245   0.178
    1UNL    C22   32  -0.204   0.335   0.010
    1UNL    O11   33  -0.316   0.289  -0.063
    1UNL    C23   34  -0.389   0.181   0.005
    1UNL    O12   35  -0.478   0.107  -0.076
    1UNL    C24   36  -0.585   0.189  -0.120
    1UNL    C25   37  -0.664   0.120  -0.232
    1UNL    C26   38  -0.666   0.240   0.001
    1UNL    O13   39  -0.743   0.143   0.067
    1UNL    C27   40  -0.573   0.313   0.102
    1UNL    O14   41  -0.653   0.338   0.218
    1UNL    C28   42  -0.457   0.215   0.138
    1UNL    O15   43  -0.498   0.102   0.211
    1UNL    C29   44  -0.414  -0.011   0.204
    1UNL    O16   45  -0.273   0.005   0.179
    1UNL    C30   46  -0.187  -0.108   0.190
    1UNL    C31   47  -0.145  -0.122   0.336
    1UNL    O17   48  -0.248  -0.184   0.411
    1UNL    C32   49  -0.241  -0.232   0.127
    1UNL    O18   50  -0.307  -0.331   0.208
    1UNL    C33   51  -0.347  -0.187   0.020
    1UNL    O19   52  -0.392  -0.290  -0.061
    1UNL    C34   53  -0.461  -0.111   0.088
    1UNL    O20   54  -0.566  -0.192   0.135
    1UNL     H1   55  -0.163   0.108  -0.495
    1UNL     H2   56  -0.022   0.136  -0.606
    1UNL     H3   57  -0.058  -0.018  -0.545
    1UNL     H4   58   0.135   0.273  -0.487
    1UNL     H5   59   0.165   0.292  -0.208
    1UNL     H6   60   0.305   0.292  -0.312
    1UNL     H7   61   0.285   0.168  -0.043
    1UNL     H8   62   0.467   0.117  -0.334
    1UNL     H9   63   0.643   0.307  -0.317
    1UNL    H10   64   0.721   0.155  -0.366
    1UNL    H11   65   0.734   0.212  -0.210
    1UNL    H12   66   0.648  -0.019  -0.130
    1UNL    H13   67   0.605  -0.076  -0.397
    1UNL    H14   68   0.475  -0.207  -0.142
    1UNL    H15   69   0.299  -0.057  -0.301
    1UNL    H16   70   0.266  -0.065  -0.075
    1UNL    H17   71   0.230   0.022   0.153
    1UNL    H18   72   0.463  -0.228   0.082
    1UNL    H19   73   0.311  -0.416   0.033
    1UNL    H20   74   0.456  -0.462   0.114
    1UNL    H21   75   0.305  -0.421   0.323
    1UNL    H22   76   0.583  -0.302   0.293
    1UNL    H23   77   0.348  -0.230   0.427
    1UNL    H24   78   0.565  -0.061   0.406
    1UNL    H25   79   0.572  -0.039   0.130
    1UNL    H26   80   0.326  -0.014   0.380
    1UNL    H27   81   0.448   0.169   0.219
    1UNL    H28   82  -0.059  -0.042  -0.312
    1UNL    H29   83   0.072   0.020  -0.221
    1UNL    H30   84  -0.145   0.220  -0.226
    1UNL    H31   85  -0.207   0.065  -0.180
    1UNL    H32   86   0.008   0.074  -0.009
    1UNL    H33   87   0.041   0.320   0.171
    1UNL    H34   88  -0.096   0.272   0.280
    1UNL    H35   89   0.033   0.154   0.194
    1UNL    H36   90  -0.246   0.374   0.107
    1UNL    H37   91  -0.153   0.412  -0.055
    1UNL    H38   92  -0.298   0.116   0.030
    1UNL    H39   93  -0.522   0.271  -0.176
    1UNL    H40   94  -0.685   0.016  -0.209
    1UNL    H41   95  -0.610   0.121  -0.328
    1UNL    H42   96  -0.751   0.178  -0.254
    1UNL    H43   97  -0.739   0.318  -0.037
    1UNL    H44   98  -0.687   0.065   0.096
    1UNL    H45   99  -0.544   0.409   0.049
    1UNL    H46  100  -0.656   0.255   0.267
    1UNL    H47  101  -0.392   0.269   0.206
    1UNL    H48  102  -0.432  -0.064   0.299
    1UNL    H49  103  -0.091  -0.090   0.137
    1UNL    H50  104  -0.125  -0.022   0.388
    1UNL    H51  105  -0.058  -0.188   0.349
    1UNL    H52  106  -0.255  -0.279   0.378
    1UNL    H53  107  -0.165  -0.295   0.084
    1UNL    H54  108  -0.395  -0.292   0.221
    1UNL    H55  109  -0.299  -0.116  -0.041
    1UNL    H56  110  -0.473  -0.331  -0.010
    1UNL    H57  111  -0.505  -0.041   0.018
    1UNL    H58  112  -0.625  -0.141   0.197
   0.00000   0.00000   0.00000   0.00000   0.00000   0.00000   0.00000   0.00000   0.00000
Generated with MDTraj, t= 63.0
 112
    1UNL     C1    1  -0.070   0.143  -0.515
    1UNL     C2    2   0.021   0.143  -0.397
    1UNL     C3    3   0.117   0.236  -0.380
    1UNL     C4    4   0.198   0.234  -0.258
    1UNL     O1    5   0.230   0.107  -0.218
    1UNL     C5    6   0.333   0.106  -0.121
    1UNL     O2    7   0.449   0.173  -0.173
    1UNL     C6    8   0.517   0.112  -0.282
    1UNL     C7    9   0.617   0.209  -0.344
    1UNL     C8   10   0.579  -0.019  -0.239
    1UNL     O3   11   0.645  -0.089  -0.339
    1UNL     C9   12   0.466  -0.110  -0.175
    1UNL     O4   13   0.370  -0.145  -0.271
    1UNL    C10   14   0.385  -0.033  -0.069
    1UNL     O5   15   0.450  -0.014   0.056
    1UNL    C11   16   0.347  -0.039   0.157
    1UNL     O6   17   0.306  -0.177   0.155
    1UNL    C12   18   0.409  -0.273   0.173
    1UNL    C13   19   0.346  -0.413   0.168
    1UNL     O7   20   0.232  -0.442   0.239
    1UNL    C14   21   0.461  -0.239   0.316
    1UNL     O8   22   0.351  -0.258   0.405
    1UNL    C15   23   0.516  -0.093   0.332
    1UNL     O9   24   0.640  -0.082   0.258
    1UNL    C16   25   0.407   0.013   0.291
    1UNL    O10   26   0.460   0.138   0.283
    1UNL    C17   27  -0.029   0.064  -0.286
    1UNL    C18   28  -0.104   0.158  -0.182
    1UNL    C19   29  -0.059   0.155  -0.042
    1UNL    C20   30  -0.111   0.233   0.052
    1UNL    C21   31  -0.070   0.229   0.195
    1UNL    C22   32  -0.217   0.336   0.021
    1UNL    O11   33  -0.323   0.284  -0.057
    1UNL    C23   34  -0.389   0.169  -0.007
    1UNL    O12   35  -0.478   0.114  -0.109
    1UNL    C24   36  -0.584   0.211  -0.138
    1UNL    C25   37  -0.678   0.147  -0.237
    1UNL    C26   38  -0.662   0.237  -0.008
    1UNL    O13   39  -0.718   0.118   0.039
    1UNL    C27   40  -0.573   0.303   0.098
    1UNL    O14   41  -0.647   0.321   0.223
    1UNL    C28   42  -0.454   0.206   0.127
    1UNL    O15   43  -0.501   0.090   0.195
    1UNL    C29   44  -0.421  -0.022   0.204
    1UNL    O16   45  -0.278   0.012   0.217
    1UNL    C30   46  -0.174  -0.095   0.201
    1UNL    C31   47  -0.118  -0.129   0.343
    1UNL    O17   48  -0.226  -0.164   0.424
    1UNL    C32   49  -0.220  -0.221   0.128
    1UNL    O18   50  -0.276  -0.327   0.210
    1UNL    C33   51  -0.322  -0.176   0.020
    1UNL    O19   52  -0.358  -0.281  -0.065
    1UNL    C34   53  -0.452  -0.119   0.081
    1UNL    O20   54  -0.533  -0.225   0.127
    1UNL     H1   55  -0.149   0.214  -0.494
    1UNL     H2   56  -0.024   0.160  -0.609
    1UNL     H3   57  -0.124   0.054  -0.535
    1UNL     H4   58   0.132   0.313  -0.462
    1UNL     H5   59   0.155   0.274  -0.166
    1UNL     H6   60   0.291   0.285  -0.281
    1UNL     H7   61   0.299   0.155  -0.027
    1UNL     H8   62   0.428   0.087  -0.347
    1UNL     H9   63   0.562   0.300  -0.385
    1UNL    H10   64   0.670   0.159  -0.423
    1UNL    H11   65   0.687   0.252  -0.282
    1UNL    H12   66   0.663   0.002  -0.172
    1UNL    H13   67   0.579  -0.120  -0.411
    1UNL    H14   68   0.512  -0.208  -0.133
    1UNL    H15   69   0.314  -0.063  -0.280
    1UNL    H16   70   0.299  -0.097  -0.042
    1UNL    H17   71   0.262   0.022   0.138
    1UNL    H18   72   0.482  -0.267   0.095
    1UNL    H19   73   0.328  -0.428   0.062
    1UNL    H20   74   0.422  -0.498   0.180
    1UNL    H21   75   0.254  -0.406   0.327
    1UNL    H22   76   0.536  -0.309   0.355
    1UNL    H23   77   0.274  -0.203   0.372
    1UNL    H24   78   0.541  -0.068   0.430
    1UNL    H25   79   0.625  -0.032   0.175
    1UNL    H26   80   0.336   0.011   0.371
    1UNL    H27   81   0.500   0.147   0.195
    1UNL    H28   82  -0.090  -0.017  -0.321
    1UNL    H29   83   0.059   0.019  -0.242
    1UNL    H30   84  -0.106   0.265  -0.216
    1UNL    H31   85  -0.211   0.132  -0.181
    1UNL    H32   86   0.004   0.067  -0.011
    1UNL    H33   87  -0.014   0.139   0.211
    1UNL    H34   88  -0.015   0.320   0.217
    1UNL    H35   89  -0.165   0.216   0.263
    1UNL    H36   90  -0.261   0.385   0.113
    1UNL    H37   91  -0.171   0.409  -0.050
    1UNL    H38   92  -0.302   0.095   0.008
    1UNL    H39   93  -0.529   0.306  -0.176
    1UNL    H40   94  -0.724   0.053  -0.199
    1UNL    H41   95  -0.631   0.116  -0.331
    1UNL    H42   96  -0.753   0.213  -0.274
    1UNL    H43   97  -0.748   0.311  -0.019
    1UNL    H44   98  -0.649   0.052   0.068
    1UNL    H45   99  -0.532   0.399   0.062
    1UNL    H46  100  -0.636   0.230   0.271
    1UNL    H47  101  -0.380   0.247   0.193
    1UNL    H48  102  -0.450  -0.082   0.292
    1UNL    H49  103  -0.086  -0.056   0.145
    1UNL    H50  104  -0.072  -0.038   0.391
    1UNL    H51  105  -0.051  -0.213   0.353
    1UNL    H52  106  -0.277  -0.232   0.382
    1UNL    H53  107  -0.141  -0.274   0.074
    1UNL    H54  108  -0.376  -0.330   0.186
    1UNL    H55  109  -0.278  -0.106  -0.046
    1UNL    H56  110  -0.437  -0.325  -0.031
    1UNL    H57  111  -0.504  -0.061   0.007
    1UNL    H58  112  -0.613  -0.189   0.171
   0.00000   0.00000   0.00000   0.00000   0.00000   0.00000   0.00000   0.00000   0.00000
Generated with MDTraj, t= 64.0
 112
    1UNL     C1    1  -0.075   0.185  -0.530
    1UNL     C2    2  -0.003   0.163  -0.409
    1UNL     C3    3   0.124   0.208  -0.399
    1UNL     C4    4   0.199   0.216  -0.272
    1UNL     O1    5   0.236   0.093  -0.224
    1UNL     C5    6   0.341   0.107  -0.130
    1UNL     O2    7   0.457   0.178  -0.187
    1UNL     C6    8   0.503   0.115  -0.304
    1UNL     C7    9   0.604   0.209  -0.389
    1UNL     C8   10   0.572  -0.018  -0.252
    1UNL     O3   11   0.625  -0.094  -0.358
    1UNL     C9   12   0.464  -0.108  -0.183
    1UNL     O4   13   0.379  -0.138  -0.290
    1UNL    C10   14   0.385  -0.034  -0.075
    1UNL     O5   15   0.458  -0.035   0.049
    1UNL    C11   16   0.372  -0.036   0.166
    1UNL     O6   17   0.293  -0.151   0.167
    1UNL    C12   18   0.375  -0.258   0.204
    1UNL    C13   19   0.327  -0.399   0.173
    1UNL     O7   20   0.221  -0.436   0.254
    1UNL    C14   21   0.413  -0.234   0.351
    1UNL     O8   22   0.302  -0.222   0.438
    1UNL    C15   23   0.502  -0.115   0.363
    1UNL     O9   24   0.626  -0.129   0.290
    1UNL    C16   25   0.439   0.009   0.301
    1UNL    O10   26   0.524   0.124   0.288
    1UNL    C17   27  -0.065   0.087  -0.289
    1UNL    C18   28  -0.128   0.194  -0.191
    1UNL    C19   29  -0.079   0.174  -0.049
    1UNL    C20   30  -0.120   0.246   0.056
    1UNL    C21   31  -0.046   0.256   0.188
    1UNL    C22   32  -0.231   0.341   0.043
    1UNL    O11   33  -0.339   0.294  -0.042
    1UNL    C23   34  -0.390   0.169   0.004
    1UNL    O12   35  -0.477   0.111  -0.095
    1UNL    C24   36  -0.575   0.209  -0.123
    1UNL    C25   37  -0.661   0.166  -0.241
    1UNL    C26   38  -0.667   0.243  -0.000
    1UNL    O13   39  -0.741   0.132   0.036
    1UNL    C27   40  -0.575   0.287   0.116
    1UNL    O14   41  -0.648   0.306   0.238
    1UNL    C28   42  -0.459   0.184   0.138
    1UNL    O15   43  -0.500   0.054   0.186
    1UNL    C29   44  -0.395  -0.037   0.173
    1UNL    O16   45  -0.253   0.015   0.181
    1UNL    C30   46  -0.155  -0.093   0.205
    1UNL    C31   47  -0.131  -0.102   0.361
    1UNL    O17   48  -0.235  -0.170   0.428
    1UNL    C32   49  -0.203  -0.232   0.134
    1UNL    O18   50  -0.283  -0.313   0.222
    1UNL    C33   51  -0.285  -0.200   0.005
    1UNL    O19   52  -0.311  -0.326  -0.061
    1UNL    C34   53  -0.419  -0.134   0.055
    1UNL    O20   54  -0.502  -0.243   0.099
    1UNL     H1   55  -0.104   0.290  -0.525
    1UNL     H2   56  -0.012   0.167  -0.616
    1UNL     H3   57  -0.158   0.131  -0.546
    1UNL     H4   58   0.173   0.249  -0.482
    1UNL     H5   59   0.138   0.276  -0.205
    1UNL     H6   60   0.293   0.270  -0.292
    1UNL     H7   61   0.299   0.165  -0.045
    1UNL     H8   62   0.409   0.087  -0.356
    1UNL     H9   63   0.556   0.310  -0.395
    1UNL    H10   64   0.633   0.164  -0.485
    1UNL    H11   65   0.687   0.231  -0.330
    1UNL    H12   66   0.658   0.003  -0.182
    1UNL    H13   67   0.556  -0.137  -0.407
    1UNL    H14   68   0.508  -0.206  -0.139
    1UNL    H15   69   0.320  -0.060  -0.296
    1UNL    H16   70   0.292  -0.097  -0.061
    1UNL    H17   71   0.304   0.042   0.145
    1UNL    H18   72   0.469  -0.248   0.148
    1UNL    H19   73   0.293  -0.418   0.074
    1UNL    H20   74   0.414  -0.474   0.177
    1UNL    H21   75   0.236  -0.384   0.337
    1UNL    H22   76   0.472  -0.316   0.387
    1UNL    H23   77   0.243  -0.155   0.408
    1UNL    H24   78   0.528  -0.098   0.464
    1UNL    H25   79   0.603  -0.100   0.198
    1UNL    H26   80   0.363   0.037   0.374
    1UNL    H27   81   0.619   0.109   0.261
    1UNL    H28   82  -0.141   0.026  -0.334
    1UNL    H29   83   0.006   0.026  -0.238
    1UNL    H30   84  -0.106   0.300  -0.222
    1UNL    H31   85  -0.234   0.186  -0.184
    1UNL    H32   86  -0.009   0.096  -0.036
    1UNL    H33   87  -0.028   0.153   0.233
    1UNL    H34   88   0.039   0.307   0.172
    1UNL    H35   89  -0.107   0.309   0.262
    1UNL    H36   90  -0.282   0.357   0.141
    1UNL    H37   91  -0.200   0.439   0.002
    1UNL    H38   92  -0.303   0.095   0.004
    1UNL    H39   93  -0.518   0.304  -0.153
    1UNL    H40   94  -0.736   0.087  -0.218
    1UNL    H41   95  -0.607   0.127  -0.327
    1UNL    H42   96  -0.707   0.253  -0.285
    1UNL    H43   97  -0.739   0.328  -0.031
    1UNL    H44   98  -0.677   0.081   0.089
    1UNL    H45   99  -0.528   0.381   0.091
    1UNL    H46  100  -0.713   0.235   0.249
    1UNL    H47  101  -0.393   0.207   0.220
    1UNL    H48  102  -0.393  -0.101   0.262
    1UNL    H49  103  -0.063  -0.056   0.154
    1UNL    H50  104  -0.118  -0.001   0.408
    1UNL    H51  105  -0.045  -0.160   0.376
    1UNL    H52  106  -0.267  -0.246   0.371
    1UNL    H53  107  -0.106  -0.284   0.111
    1UNL    H54  108  -0.375  -0.321   0.189
    1UNL    H55  109  -0.229  -0.139  -0.062
    1UNL    H56  110  -0.383  -0.375  -0.021
    1UNL    H57  111  -0.467  -0.082  -0.025
    1UNL    H58  112  -0.587  -0.213   0.133
   0.00000   0.00000   0.00000   0.00000   0.00000   0.00000   0.00000   0.00000   0.00000
Generated with MDTraj, t= 65.0
 112
    1UNL     C1    1  -0.072   0.168  -0.537
    1UNL     C2    2   0.003   0.161  -0.405
    1UNL     C3    3   0.126   0.217  -0.403
    1UNL     C4    4   0.208   0.225  -0.280
    1UNL     O1    5   0.232   0.099  -0.219
    1UNL     C5    6   0.334   0.111  -0.130
    1UNL     O2    7   0.444   0.185  -0.189
    1UNL     C6    8   0.509   0.112  -0.295
    1UNL     C7    9   0.623   0.197  -0.360
    1UNL     C8   10   0.570  -0.025  -0.249
    1UNL     O3   11   0.612  -0.095  -0.363
    1UNL     C9   12   0.463  -0.115  -0.181
    1UNL     O4   13   0.382  -0.191  -0.273
    1UNL    C10   14   0.382  -0.037  -0.074
    1UNL     O5   15   0.459  -0.047   0.049
    1UNL    C11   16   0.370  -0.025   0.153
    1UNL     O6   17   0.281  -0.134   0.162
    1UNL    C12   18   0.349  -0.248   0.196
    1UNL    C13   19   0.252  -0.362   0.180
    1UNL     O7   20   0.158  -0.378   0.288
    1UNL    C14   21   0.404  -0.234   0.340
    1UNL     O8   22   0.296  -0.205   0.438
    1UNL    C15   23   0.504  -0.120   0.342
    1UNL     O9   24   0.635  -0.155   0.280
    1UNL    C16   25   0.443   0.008   0.287
    1UNL    O10   26   0.538   0.113   0.271
    1UNL    C17   27  -0.071   0.107  -0.288
    1UNL    C18   28  -0.128   0.220  -0.196
    1UNL    C19   29  -0.051   0.234  -0.068
    1UNL    C20   30  -0.096   0.287   0.044
    1UNL    C21   31  -0.006   0.286   0.161
    1UNL    C22   32  -0.222   0.366   0.055
    1UNL    O11   33  -0.328   0.320  -0.030
    1UNL    C23   34  -0.377   0.189   0.005
    1UNL    O12   35  -0.464   0.147  -0.106
    1UNL    C24   36  -0.586   0.222  -0.108
    1UNL    C25   37  -0.676   0.173  -0.231
    1UNL    C26   38  -0.669   0.219   0.026
    1UNL    O13   39  -0.737   0.096   0.039
    1UNL    C27   40  -0.578   0.255   0.142
    1UNL    O14   41  -0.645   0.241   0.267
    1UNL    C28   42  -0.451   0.170   0.139
    1UNL    O15   43  -0.497   0.035   0.152
    1UNL    C29   44  -0.398  -0.062   0.162
    1UNL    O16   45  -0.266  -0.004   0.187
    1UNL    C30   46  -0.164  -0.098   0.217
    1UNL    C31   47  -0.137  -0.112   0.366
    1UNL    O17   48  -0.251  -0.130   0.448
    1UNL    C32   49  -0.193  -0.237   0.149
    1UNL    O18   50  -0.270  -0.322   0.227
    1UNL    C33   51  -0.259  -0.220   0.010
    1UNL    O19   52  -0.281  -0.342  -0.062
    1UNL    C34   53  -0.397  -0.159   0.036
    1UNL    O20   54  -0.497  -0.265   0.052
    1UNL     H1   55  -0.040   0.261  -0.580
    1UNL     H2   56  -0.052   0.087  -0.604
    1UNL     H3   57  -0.178   0.169  -0.523
    1UNL     H4   58   0.160   0.260  -0.498
    1UNL     H5   59   0.156   0.292  -0.209
    1UNL     H6   60   0.303   0.277  -0.304
    1UNL     H7   61   0.296   0.183  -0.052
    1UNL     H8   62   0.422   0.092  -0.359
    1UNL     H9   63   0.574   0.287  -0.390
    1UNL    H10   64   0.671   0.134  -0.437
    1UNL    H11   65   0.698   0.235  -0.283
    1UNL    H12   66   0.657  -0.005  -0.179
    1UNL    H13   67   0.537  -0.151  -0.391
    1UNL    H14   68   0.521  -0.194  -0.123
    1UNL    H15   69   0.305  -0.141  -0.295
    1UNL    H16   70   0.286  -0.095  -0.069
    1UNL    H17   71   0.303   0.050   0.119
    1UNL    H18   72   0.433  -0.250   0.120
    1UNL    H19   73   0.210  -0.359   0.084
    1UNL    H20   74   0.308  -0.461   0.180
    1UNL    H21   75   0.190  -0.331   0.366
    1UNL    H22   76   0.450  -0.325   0.369
    1UNL    H23   77   0.245  -0.121   0.411
    1UNL    H24   78   0.526  -0.111   0.446
    1UNL    H25   79   0.630  -0.142   0.183
    1UNL    H26   80   0.364   0.037   0.361
    1UNL    H27   81   0.585   0.114   0.184
    1UNL    H28   82  -0.159   0.054  -0.320
    1UNL    H29   83  -0.001   0.046  -0.236
    1UNL    H30   84  -0.132   0.317  -0.252
    1UNL    H31   85  -0.228   0.193  -0.172
    1UNL    H32   86   0.031   0.167  -0.054
    1UNL    H33   87   0.037   0.185   0.179
    1UNL    H34   88   0.071   0.356   0.141
    1UNL    H35   89  -0.048   0.312   0.247
    1UNL    H36   90  -0.264   0.366   0.158
    1UNL    H37   91  -0.202   0.468   0.022
    1UNL    H38   92  -0.288   0.121  -0.009
    1UNL    H39   93  -0.558   0.327  -0.131
    1UNL    H40   94  -0.678   0.064  -0.230
    1UNL    H41   95  -0.635   0.207  -0.324
    1UNL    H42   96  -0.777   0.220  -0.227
    1UNL    H43   97  -0.760   0.292   0.011
    1UNL    H44   98  -0.668   0.032   0.068
    1UNL    H45   99  -0.546   0.357   0.136
    1UNL    H46  100  -0.678   0.154   0.279
    1UNL    H47  101  -0.387   0.192   0.223
    1UNL    H48  102  -0.414  -0.117   0.255
    1UNL    H49  103  -0.084  -0.046   0.161
    1UNL    H50  104  -0.095  -0.014   0.396
    1UNL    H51  105  -0.064  -0.186   0.378
    1UNL    H52  106  -0.298  -0.210   0.415
    1UNL    H53  107  -0.089  -0.275   0.123
    1UNL    H54  108  -0.342  -0.361   0.175
    1UNL    H55  109  -0.210  -0.153  -0.058
    1UNL    H56  110  -0.370  -0.391  -0.040
    1UNL    H57  111  -0.436  -0.101  -0.045
    1UNL    H58  112  -0.591  -0.235   0.053
   0.00000   0.00000   0.00000   0.00000   0.00000   0.00000   0.00000   0.00000   0.00000
Generated with MDTraj, t= 66.0
 112
    1UNL     C1    1  -0.056   0.143  -0.548
    1UNL     C2    2   0.004   0.171  -0.412
    1UNL     C3    3   0.132   0.208  -0.411
    1UNL     C4    4   0.217   0.214  -0.292
    1UNL     O1    5   0.243   0.085  -0.233
    1UNL     C5    6   0.332   0.097  -0.136
    1UNL     O2    7   0.448   0.168  -0.172
    1UNL     C6    8   0.514   0.098  -0.278
    1UNL     C7    9   0.632   0.173  -0.340
    1UNL     C8   10   0.566  -0.042  -0.228
    1UNL     O3   11   0.615  -0.115  -0.338
    1UNL     C9   12   0.448  -0.121  -0.183
    1UNL     O4   13   0.359  -0.152  -0.282
    1UNL    C10   14   0.370  -0.047  -0.080
    1UNL     O5   15   0.437  -0.037   0.040
    1UNL    C11   16   0.354   0.000   0.156
    1UNL     O6   17   0.248  -0.094   0.196
    1UNL    C12   18   0.302  -0.224   0.200
    1UNL    C13   19   0.192  -0.324   0.201
    1UNL     O7   20   0.084  -0.282   0.278
    1UNL    C14   21   0.392  -0.230   0.325
    1UNL     O8   22   0.305  -0.208   0.445
    1UNL    C15   23   0.507  -0.129   0.311
    1UNL     O9   24   0.590  -0.160   0.200
    1UNL    C16   25   0.450   0.010   0.281
    1UNL    O10   26   0.551   0.108   0.257
    1UNL    C17   27  -0.076   0.136  -0.289
    1UNL    C18   28  -0.116   0.253  -0.198
    1UNL    C19   29  -0.049   0.249  -0.063
    1UNL    C20   30  -0.095   0.285   0.058
    1UNL    C21   31   0.002   0.296   0.172
    1UNL    C22   32  -0.236   0.345   0.076
    1UNL    O11   33  -0.330   0.307  -0.023
    1UNL    C23   34  -0.381   0.173   0.002
    1UNL    O12   35  -0.472   0.136  -0.101
    1UNL    C24   36  -0.582   0.228  -0.098
    1UNL    C25   37  -0.675   0.203  -0.218
    1UNL    C26   38  -0.660   0.210   0.029
    1UNL    O13   39  -0.708   0.076   0.038
    1UNL    C27   40  -0.575   0.235   0.158
    1UNL    O14   41  -0.660   0.202   0.270
    1UNL    C28   42  -0.446   0.155   0.144
    1UNL    O15   43  -0.476   0.019   0.173
    1UNL    C29   44  -0.365  -0.068   0.163
    1UNL    O16   45  -0.231  -0.015   0.167
    1UNL    C30   46  -0.145  -0.112   0.220
    1UNL    C31   47  -0.142  -0.102   0.370
    1UNL    O17   48  -0.263  -0.139   0.432
    1UNL    C32   49  -0.180  -0.252   0.156
    1UNL    O18   50  -0.276  -0.318   0.236
    1UNL    C33   51  -0.231  -0.227   0.014
    1UNL    O19   52  -0.232  -0.351  -0.059
    1UNL    C34   53  -0.365  -0.154   0.025
    1UNL    O20   54  -0.471  -0.248   0.030
    1UNL     H1   55   0.008   0.184  -0.619
    1UNL     H2   56  -0.078   0.042  -0.567
    1UNL     H3   57  -0.158   0.193  -0.550
    1UNL     H4   58   0.173   0.222  -0.513
    1UNL     H5   59   0.185   0.282  -0.210
    1UNL     H6   60   0.314   0.262  -0.320
    1UNL     H7   61   0.295   0.166  -0.056
    1UNL     H8   62   0.439   0.075  -0.353
    1UNL     H9   63   0.601   0.269  -0.369
    1UNL    H10   64   0.676   0.112  -0.421
    1UNL    H11   65   0.717   0.205  -0.266
    1UNL    H12   66   0.659  -0.034  -0.161
    1UNL    H13   67   0.537  -0.151  -0.393
    1UNL    H14   68   0.493  -0.214  -0.142
    1UNL    H15   69   0.303  -0.070  -0.304
    1UNL    H16   70   0.275  -0.105  -0.066
    1UNL    H17   71   0.309   0.093   0.130
    1UNL    H18   72   0.364  -0.232   0.103
    1UNL    H19   73   0.149  -0.335   0.107
    1UNL    H20   74   0.241  -0.422   0.225
    1UNL    H21   75   0.117  -0.239   0.361
    1UNL    H22   76   0.431  -0.327   0.323
    1UNL    H23   77   0.270  -0.112   0.438
    1UNL    H24   78   0.572  -0.122   0.400
    1UNL    H25   79   0.551  -0.134   0.115
    1UNL    H26   80   0.399   0.054   0.372
    1UNL    H27   81   0.564   0.124   0.163
    1UNL    H28   82  -0.162   0.082  -0.327
    1UNL    H29   83  -0.020   0.077  -0.224
    1UNL    H30   84  -0.089   0.349  -0.246
    1UNL    H31   85  -0.222   0.245  -0.182
    1UNL    H32   86   0.050   0.196  -0.061
    1UNL    H33   87   0.058   0.216   0.183
    1UNL    H34   88   0.062   0.383   0.149
    1UNL    H35   89  -0.043   0.319   0.265
    1UNL    H36   90  -0.273   0.332   0.179
    1UNL    H37   91  -0.224   0.451   0.056
    1UNL    H38   92  -0.288   0.111  -0.014
    1UNL    H39   93  -0.529   0.321  -0.101
    1UNL    H40   94  -0.742   0.124  -0.188
    1UNL    H41   95  -0.611   0.173  -0.301
    1UNL    H42   96  -0.726   0.301  -0.245
    1UNL    H43   97  -0.756   0.278   0.036
    1UNL    H44   98  -0.626   0.023   0.027
    1UNL    H45   99  -0.555   0.340   0.168
    1UNL    H46  100  -0.697   0.107   0.252
    1UNL    H47  101  -0.369   0.186   0.215
    1UNL    H48  102  -0.366  -0.141   0.247
    1UNL    H49  103  -0.050  -0.073   0.182
    1UNL    H50  104  -0.125   0.004   0.397
    1UNL    H51  105  -0.060  -0.156   0.403
    1UNL    H52  106  -0.279  -0.229   0.400
    1UNL    H53  107  -0.084  -0.309   0.154
    1UNL    H54  108  -0.328  -0.396   0.189
    1UNL    H55  109  -0.164  -0.162  -0.040
    1UNL    H56  110  -0.301  -0.410  -0.039
    1UNL    H57  111  -0.390  -0.094  -0.062
    1UNL    H58  112  -0.557  -0.200   0.034
   0.00000   0.00000   0.00000   0.00000   0.00000   0.00000   0.00000   0.00000   0.00000
Generated with MDTraj, t= 67.0
 112
    1UNL     C1    1  -0.100   0.152  -0.529
    1UNL     C2    2  -0.014   0.171  -0.417
    1UNL     C3    3   0.107   0.226  -0.437
    1UNL     C4    4   0.204   0.236  -0.328
    1UNL     O1    5   0.215   0.116  -0.246
    1UNL     C5    6   0.314   0.114  -0.145
    1UNL     O2    7   0.441   0.168  -0.186
    1UNL     C6    8   0.525   0.086  -0.281
    1UNL     C7    9   0.662   0.151  -0.299
    1UNL     C8   10   0.538  -0.063  -0.221
    1UNL     O3   11   0.621  -0.148  -0.294
    1UNL     C9   12   0.402  -0.122  -0.186
    1UNL     O4   13   0.322  -0.137  -0.300
    1UNL    C10   14   0.339  -0.035  -0.074
    1UNL     O5   15   0.434  -0.034   0.033
    1UNL    C11   16   0.380   0.022   0.146
    1UNL     O6   17   0.257  -0.047   0.171
    1UNL    C12   18   0.276  -0.189   0.190
    1UNL    C13   19   0.156  -0.273   0.197
    1UNL     O7   20   0.079  -0.258   0.319
    1UNL    C14   21   0.365  -0.220   0.307
    1UNL     O8   22   0.300  -0.211   0.437
    1UNL    C15   23   0.497  -0.133   0.304
    1UNL     O9   24   0.592  -0.176   0.205
    1UNL    C16   25   0.462   0.014   0.275
    1UNL    O10   26   0.582   0.084   0.263
    1UNL    C17   27  -0.052   0.134  -0.280
    1UNL    C18   28  -0.086   0.261  -0.195
    1UNL    C19   29  -0.046   0.233  -0.054
    1UNL    C20   30  -0.107   0.272   0.058
    1UNL    C21   31  -0.035   0.234   0.185
    1UNL    C22   32  -0.224   0.359   0.063
    1UNL    O11   33  -0.334   0.319  -0.017
    1UNL    C23   34  -0.367   0.178  -0.004
    1UNL    O12   35  -0.448   0.146  -0.110
    1UNL    C24   36  -0.569   0.224  -0.103
    1UNL    C25   37  -0.645   0.203  -0.230
    1UNL    C26   38  -0.650   0.195   0.026
    1UNL    O13   39  -0.713   0.065   0.032
    1UNL    C27   40  -0.562   0.227   0.156
    1UNL    O14   41  -0.619   0.190   0.278
    1UNL    C28   42  -0.435   0.150   0.136
    1UNL    O15   43  -0.475   0.010   0.144
    1UNL    C29   44  -0.369  -0.079   0.152
    1UNL    O16   45  -0.251  -0.018   0.196
    1UNL    C30   46  -0.145  -0.107   0.237
    1UNL    C31   47  -0.140  -0.118   0.388
    1UNL    O17   48  -0.269  -0.151   0.438
    1UNL    C32   49  -0.158  -0.253   0.169
    1UNL    O18   50  -0.260  -0.327   0.235
    1UNL    C33   51  -0.202  -0.228   0.024
    1UNL    O19   52  -0.213  -0.363  -0.028
    1UNL    C34   53  -0.344  -0.154   0.014
    1UNL    O20   54  -0.455  -0.245  -0.001
    1UNL     H1   55  -0.058   0.182  -0.619
    1UNL     H2   56  -0.143   0.054  -0.538
    1UNL     H3   57  -0.196   0.210  -0.503
    1UNL     H4   58   0.134   0.257  -0.533
    1UNL     H5   59   0.173   0.322  -0.267
    1UNL     H6   60   0.308   0.262  -0.361
    1UNL     H7   61   0.287   0.189  -0.069
    1UNL     H8   62   0.469   0.081  -0.373
    1UNL     H9   63   0.658   0.257  -0.319
    1UNL    H10   64   0.719   0.099  -0.380
    1UNL    H11   65   0.733   0.157  -0.211
    1UNL    H12   66   0.594  -0.042  -0.121
    1UNL    H13   67   0.572  -0.172  -0.371
    1UNL    H14   68   0.415  -0.220  -0.140
    1UNL    H15   69   0.281  -0.048  -0.315
    1UNL    H16   70   0.241  -0.076  -0.043
    1UNL    H17   71   0.353   0.124   0.124
    1UNL    H18   72   0.337  -0.202   0.093
    1UNL    H19   73   0.096  -0.260   0.114
    1UNL    H20   74   0.191  -0.379   0.190
    1UNL    H21   75   0.113  -0.297   0.403
    1UNL    H22   76   0.393  -0.323   0.303
    1UNL    H23   77   0.275  -0.116   0.446
    1UNL    H24   78   0.539  -0.135   0.408
    1UNL    H25   79   0.562  -0.128   0.125
    1UNL    H26   80   0.405   0.062   0.360
    1UNL    H27   81   0.641   0.029   0.206
    1UNL    H28   82  -0.141   0.073  -0.286
    1UNL    H29   83   0.023   0.075  -0.238
    1UNL    H30   84  -0.039   0.353  -0.232
    1UNL    H31   85  -0.193   0.280  -0.193
    1UNL    H32   86   0.047   0.190  -0.045
    1UNL    H33   87   0.028   0.144   0.179
    1UNL    H34   88   0.025   0.316   0.205
    1UNL    H35   89  -0.100   0.227   0.269
    1UNL    H36   90  -0.262   0.354   0.166
    1UNL    H37   91  -0.196   0.459   0.037
    1UNL    H38   92  -0.271   0.124  -0.002
    1UNL    H39   93  -0.526   0.320  -0.094
    1UNL    H40   94  -0.655   0.097  -0.245
    1UNL    H41   95  -0.597   0.252  -0.319
    1UNL    H42   96  -0.746   0.249  -0.223
    1UNL    H43   97  -0.740   0.271   0.026
    1UNL    H44   98  -0.636   0.008   0.049
    1UNL    H45   99  -0.550   0.334   0.153
    1UNL    H46  100  -0.651   0.101   0.267
    1UNL    H47  101  -0.362   0.162   0.219
    1UNL    H48  102  -0.379  -0.157   0.237
    1UNL    H49  103  -0.056  -0.054   0.201
    1UNL    H50  104  -0.116  -0.017   0.430
    1UNL    H51  105  -0.070  -0.184   0.429
    1UNL    H52  106  -0.290  -0.247   0.413
    1UNL    H53  107  -0.062  -0.311   0.165
    1UNL    H54  108  -0.285  -0.400   0.179
    1UNL    H55  109  -0.121  -0.173  -0.024
    1UNL    H56  110  -0.307  -0.386  -0.069
    1UNL    H57  111  -0.343  -0.081  -0.068
    1UNL    H58  112  -0.536  -0.191   0.019
   0.00000   0.00000   0.00000   0.00000   0.00000   0.00000   0.00000   0.00000   0.00000
Generated with MDTraj, t= 68.0
 112
    1UNL     C1    1  -0.136   0.208  -0.508
    1UNL     C2    2  -0.029   0.183  -0.407
    1UNL     C3    3   0.100   0.208  -0.443
    1UNL     C4    4   0.213   0.227  -0.343
    1UNL     O1    5   0.221   0.122  -0.249
    1UNL     C5    6   0.326   0.133  -0.153
    1UNL     O2    7   0.457   0.177  -0.199
    1UNL     C6    8   0.532   0.077  -0.281
    1UNL     C7    9   0.670   0.126  -0.303
    1UNL     C8   10   0.535  -0.065  -0.210
    1UNL     O3   11   0.570  -0.159  -0.306
    1UNL     C9   12   0.394  -0.108  -0.157
    1UNL     O4   13   0.311  -0.135  -0.274
    1UNL    C10   14   0.338  -0.000  -0.066
    1UNL     O5   15   0.425   0.014   0.040
    1UNL    C11   16   0.368   0.036   0.167
    1UNL     O6   17   0.248  -0.043   0.179
    1UNL    C12   18   0.293  -0.179   0.185
    1UNL    C13   19   0.180  -0.279   0.169
    1UNL     O7   20   0.103  -0.291   0.289
    1UNL    C14   21   0.387  -0.203   0.308
    1UNL     O8   22   0.321  -0.163   0.428
    1UNL    C15   23   0.525  -0.132   0.292
    1UNL     O9   24   0.592  -0.181   0.177
    1UNL    C16   25   0.485   0.016   0.272
    1UNL    O10   26   0.590   0.093   0.215
    1UNL    C17   27  -0.060   0.132  -0.269
    1UNL    C18   28  -0.058   0.241  -0.156
    1UNL    C19   29  -0.041   0.184  -0.015
    1UNL    C20   30  -0.103   0.229   0.095
    1UNL    C21   31  -0.062   0.190   0.228
    1UNL    C22   32  -0.214   0.333   0.079
    1UNL    O11   33  -0.302   0.312  -0.030
    1UNL    C23   34  -0.361   0.179  -0.020
    1UNL    O12   35  -0.449   0.148  -0.128
    1UNL    C24   36  -0.569   0.226  -0.132
    1UNL    C25   37  -0.656   0.178  -0.243
    1UNL    C26   38  -0.647   0.219   0.004
    1UNL    O13   39  -0.710   0.090   0.020
    1UNL    C27   40  -0.559   0.241   0.129
    1UNL    O14   41  -0.627   0.218   0.246
    1UNL    C28   42  -0.430   0.152   0.118
    1UNL    O15   43  -0.467   0.012   0.126
    1UNL    C29   44  -0.357  -0.073   0.144
    1UNL    O16   45  -0.241  -0.026   0.213
    1UNL    C30   46  -0.162  -0.133   0.270
    1UNL    C31   47  -0.169  -0.132   0.423
    1UNL    O17   48  -0.302  -0.165   0.469
    1UNL    C32   49  -0.195  -0.274   0.200
    1UNL    O18   50  -0.320  -0.330   0.243
    1UNL    C33   51  -0.195  -0.251   0.049
    1UNL    O19   52  -0.200  -0.379  -0.020
    1UNL    C34   53  -0.321  -0.154   0.015
    1UNL    O20   54  -0.435  -0.230  -0.025
    1UNL     H1   55  -0.103   0.272  -0.590
    1UNL     H2   56  -0.180   0.121  -0.556
    1UNL     H3   57  -0.223   0.252  -0.455
    1UNL     H4   58   0.125   0.243  -0.547
    1UNL     H5   59   0.210   0.321  -0.288
    1UNL     H6   60   0.304   0.229  -0.407
    1UNL     H7   61   0.296   0.205  -0.077
    1UNL     H8   62   0.479   0.059  -0.375
    1UNL     H9   63   0.673   0.213  -0.379
    1UNL    H10   64   0.725   0.039  -0.347
    1UNL    H11   65   0.725   0.171  -0.220
    1UNL    H12   66   0.622  -0.070  -0.132
    1UNL    H13   67   0.488  -0.189  -0.347
    1UNL    H14   68   0.404  -0.203  -0.111
    1UNL    H15   69   0.250  -0.065  -0.288
    1UNL    H16   70   0.236  -0.027  -0.036
    1UNL    H17   71   0.332   0.138   0.185
    1UNL    H18   72   0.361  -0.172   0.093
    1UNL    H19   73   0.121  -0.250   0.089
    1UNL    H20   74   0.220  -0.380   0.141
    1UNL    H21   75   0.128  -0.227   0.361
    1UNL    H22   76   0.413  -0.308   0.319
    1UNL    H23   77   0.285  -0.079   0.408
    1UNL    H24   78   0.595  -0.144   0.382
    1UNL    H25   79   0.570  -0.116   0.106
    1UNL    H26   80   0.463   0.058   0.374
    1UNL    H27   81   0.559   0.110   0.122
    1UNL    H28   82  -0.154   0.081  -0.261
    1UNL    H29   83   0.008   0.054  -0.246
    1UNL    H30   84   0.022   0.312  -0.168
    1UNL    H31   85  -0.146   0.305  -0.164
    1UNL    H32   86   0.057   0.129  -0.007
    1UNL    H33   87   0.050   0.159   0.240
    1UNL    H34   88  -0.080   0.274   0.283
    1UNL    H35   89  -0.126   0.114   0.270
    1UNL    H36   90  -0.273   0.347   0.170
    1UNL    H37   91  -0.174   0.429   0.058
    1UNL    H38   92  -0.273   0.116  -0.029
    1UNL    H39   93  -0.540   0.327  -0.143
    1UNL    H40   94  -0.697   0.080  -0.211
    1UNL    H41   95  -0.609   0.163  -0.343
    1UNL    H42   96  -0.740   0.242  -0.266
    1UNL    H43   97  -0.741   0.289   0.008
    1UNL    H44   98  -0.638   0.031   0.055
    1UNL    H45   99  -0.529   0.347   0.137
    1UNL    H46  100  -0.702   0.154   0.226
    1UNL    H47  101  -0.367   0.177   0.208
    1UNL    H48  102  -0.382  -0.155   0.222
    1UNL    H49  103  -0.057  -0.115   0.244
    1UNL    H50  104  -0.140  -0.035   0.469
    1UNL    H51  105  -0.103  -0.202   0.466
    1UNL    H52  106  -0.342  -0.213   0.397
    1UNL    H53  107  -0.112  -0.349   0.218
    1UNL    H54  108  -0.346  -0.386   0.175
    1UNL    H55  109  -0.115  -0.182   0.020
    1UNL    H56  110  -0.282  -0.379  -0.065
    1UNL    H57  111  -0.285  -0.094  -0.072
    1UNL    H58  112  -0.516  -0.177  -0.020
   0.00000   0.00000   0.00000   0.00000   0.00000   0.00000   0.00000   0.00000   0.00000
Generated with MDTraj, t= 69.0
 112
    1UNL     C1    1  -0.145   0.219  -0.441
    1UNL     C2    2  -0.014   0.196  -0.371
    1UNL     C3    3   0.098   0.258  -0.419
    1UNL     C4    4   0.235   0.239  -0.350
    1UNL     O1    5   0.238   0.119  -0.280
    1UNL     C5    6   0.328   0.133  -0.169
    1UNL     O2    7   0.456   0.171  -0.220
    1UNL     C6    8   0.499   0.066  -0.306
    1UNL     C7    9   0.631   0.111  -0.363
    1UNL     C8   10   0.514  -0.068  -0.234
    1UNL     O3   11   0.551  -0.169  -0.326
    1UNL     C9   12   0.382  -0.104  -0.166
    1UNL     O4   13   0.284  -0.153  -0.258
    1UNL    C10   14   0.339   0.012  -0.076
    1UNL     O5   15   0.433   0.034   0.024
    1UNL    C11   16   0.366   0.046   0.154
    1UNL     O6   17   0.265  -0.055   0.186
    1UNL    C12   18   0.310  -0.194   0.186
    1UNL    C13   19   0.193  -0.295   0.181
    1UNL     O7   20   0.115  -0.260   0.289
    1UNL    C14   21   0.410  -0.200   0.311
    1UNL     O8   22   0.332  -0.156   0.421
    1UNL    C15   23   0.527  -0.108   0.280
    1UNL     O9   24   0.606  -0.144   0.162
    1UNL    C16   25   0.469   0.039   0.265
    1UNL    O10   26   0.578   0.130   0.251
    1UNL    C17   27  -0.016   0.124  -0.241
    1UNL    C18   28  -0.033   0.226  -0.130
    1UNL    C19   29  -0.018   0.177   0.015
    1UNL    C20   30  -0.093   0.228   0.114
    1UNL    C21   31  -0.080   0.186   0.255
    1UNL    C22   32  -0.197   0.324   0.072
    1UNL    O11   33  -0.292   0.291  -0.028
    1UNL    C23   34  -0.348   0.159  -0.026
    1UNL    O12   35  -0.436   0.136  -0.136
    1UNL    C24   36  -0.543   0.225  -0.144
    1UNL    C25   37  -0.625   0.199  -0.266
    1UNL    C26   38  -0.628   0.222  -0.014
    1UNL    O13   39  -0.696   0.098  -0.017
    1UNL    C27   40  -0.539   0.243   0.114
    1UNL    O14   41  -0.612   0.252   0.230
    1UNL    C28   42  -0.422   0.139   0.103
    1UNL    O15   43  -0.478   0.008   0.120
    1UNL    C29   44  -0.384  -0.086   0.147
    1UNL    O16   45  -0.280  -0.041   0.243
    1UNL    C30   46  -0.201  -0.144   0.300
    1UNL    C31   47  -0.217  -0.158   0.450
    1UNL    O17   48  -0.347  -0.189   0.490
    1UNL    C32   49  -0.209  -0.276   0.218
    1UNL    O18   50  -0.317  -0.363   0.251
    1UNL    C33   51  -0.208  -0.260   0.063
    1UNL    O19   52  -0.228  -0.392  -0.000
    1UNL    C34   53  -0.321  -0.163   0.020
    1UNL    O20   54  -0.424  -0.217  -0.063
    1UNL     H1   55  -0.149   0.328  -0.473
    1UNL     H2   56  -0.157   0.166  -0.539
    1UNL     H3   57  -0.223   0.192  -0.377
    1UNL     H4   58   0.097   0.318  -0.503
    1UNL     H5   59   0.240   0.323  -0.282
    1UNL     H6   60   0.326   0.240  -0.412
    1UNL     H7   61   0.295   0.210  -0.100
    1UNL     H8   62   0.430   0.049  -0.390
    1UNL     H9   63   0.619   0.219  -0.411
    1UNL    H10   64   0.646   0.036  -0.445
    1UNL    H11   65   0.710   0.116  -0.292
    1UNL    H12   66   0.598  -0.059  -0.153
    1UNL    H13   67   0.462  -0.201  -0.368
    1UNL    H14   68   0.398  -0.184  -0.096
    1UNL    H15   69   0.270  -0.077  -0.324
    1UNL    H16   70   0.242  -0.005  -0.029
    1UNL    H17   71   0.315   0.146   0.149
    1UNL    H18   72   0.371  -0.212   0.091
    1UNL    H19   73   0.135  -0.284   0.096
    1UNL    H20   74   0.226  -0.403   0.180
    1UNL    H21   75   0.167  -0.260   0.373
    1UNL    H22   76   0.438  -0.305   0.333
    1UNL    H23   77   0.293  -0.063   0.397
    1UNL    H24   78   0.599  -0.106   0.369
    1UNL    H25   79   0.596  -0.080   0.089
    1UNL    H26   80   0.425   0.069   0.362
    1UNL    H27   81   0.617   0.117   0.163
    1UNL    H28   82  -0.089   0.049  -0.237
    1UNL    H29   83   0.075   0.072  -0.218
    1UNL    H30   84   0.042   0.299  -0.145
    1UNL    H31   85  -0.124   0.285  -0.143
    1UNL    H32   86   0.071   0.126   0.036
    1UNL    H33   87  -0.007   0.103   0.269
    1UNL    H34   88  -0.046   0.281   0.320
    1UNL    H35   89  -0.179   0.156   0.298
    1UNL    H36   90  -0.263   0.346   0.158
    1UNL    H37   91  -0.147   0.415   0.048
    1UNL    H38   92  -0.258   0.099  -0.037
    1UNL    H39   93  -0.513   0.328  -0.152
    1UNL    H40   94  -0.677   0.100  -0.250
    1UNL    H41   95  -0.564   0.195  -0.359
    1UNL    H42   96  -0.697   0.277  -0.286
    1UNL    H43   97  -0.715   0.300  -0.019
    1UNL    H44   98  -0.628   0.035   0.012
    1UNL    H45   99  -0.486   0.342   0.107
    1UNL    H46  100  -0.658   0.160   0.242
    1UNL    H47  101  -0.357   0.162   0.193
    1UNL    H48  102  -0.433  -0.172   0.210
    1UNL    H49  103  -0.096  -0.112   0.282
    1UNL    H50  104  -0.187  -0.059   0.496
    1UNL    H51  105  -0.149  -0.230   0.488
    1UNL    H52  106  -0.380  -0.262   0.430
    1UNL    H53  107  -0.118  -0.332   0.247
    1UNL    H54  108  -0.311  -0.441   0.188
    1UNL    H55  109  -0.107  -0.220   0.035
    1UNL    H56  110  -0.309  -0.397  -0.064
    1UNL    H57  111  -0.266  -0.095  -0.052
    1UNL    H58  112  -0.485  -0.141  -0.068
   0.00000   0.00000   0.00000   0.00000   0.00000   0.00000   0.00000   0.00000   0.00000
Generated with MDTraj, t= 70.0
 112
    1UNL     C1    1  -0.163   0.211  -0.417
    1UNL     C2    2  -0.030   0.210  -0.340
    1UNL     C3    3   0.086   0.241  -0.399
    1UNL     C4    4   0.225   0.242  -0.335
    1UNL     O1    5   0.241   0.141  -0.246
    1UNL     C5    6   0.369   0.138  -0.183
    1UNL     O2    7   0.485   0.163  -0.264
    1UNL     C6    8   0.502   0.052  -0.353
    1UNL     C7    9   0.627   0.077  -0.439
    1UNL     C8   10   0.522  -0.081  -0.281
    1UNL     O3   11   0.557  -0.193  -0.372
    1UNL     C9   12   0.400  -0.111  -0.198
    1UNL     O4   13   0.287  -0.129  -0.279
    1UNL    C10   14   0.364   0.006  -0.095
    1UNL     O5   15   0.440   0.014   0.022
    1UNL    C11   16   0.359   0.052   0.135
    1UNL     O6   17   0.256  -0.039   0.163
    1UNL    C12   18   0.302  -0.178   0.190
    1UNL    C13   19   0.178  -0.274   0.207
    1UNL     O7   20   0.100  -0.241   0.318
    1UNL    C14   21   0.413  -0.192   0.305
    1UNL     O8   22   0.345  -0.209   0.431
    1UNL    C15   23   0.508  -0.064   0.302
    1UNL     O9   24   0.609  -0.092   0.205
    1UNL    C16   25   0.443   0.076   0.255
    1UNL    O10   26   0.546   0.175   0.229
    1UNL    C17   27  -0.038   0.148  -0.202
    1UNL    C18   28  -0.001   0.248  -0.100
    1UNL    C19   29   0.001   0.191   0.043
    1UNL    C20   30  -0.089   0.227   0.133
    1UNL    C21   31  -0.082   0.171   0.266
    1UNL    C22   32  -0.200   0.323   0.104
    1UNL    O11   33  -0.281   0.295  -0.008
    1UNL    C23   34  -0.328   0.159  -0.009
    1UNL    O12   35  -0.401   0.131  -0.130
    1UNL    C24   36  -0.505   0.232  -0.154
    1UNL    C25   37  -0.569   0.217  -0.292
    1UNL    C26   38  -0.607   0.234  -0.038
    1UNL    O13   39  -0.691   0.126  -0.045
    1UNL    C27   40  -0.539   0.236   0.103
    1UNL    O14   41  -0.626   0.210   0.205
    1UNL    C28   42  -0.425   0.134   0.106
    1UNL    O15   43  -0.474  -0.002   0.106
    1UNL    C29   44  -0.382  -0.097   0.153
    1UNL    O16   45  -0.287  -0.049   0.254
    1UNL    C30   46  -0.215  -0.161   0.315
    1UNL    C31   47  -0.258  -0.183   0.463
    1UNL    O17   48  -0.391  -0.221   0.479
    1UNL    C32   49  -0.221  -0.295   0.231
    1UNL    O18   50  -0.335  -0.375   0.262
    1UNL    C33   51  -0.219  -0.284   0.079
    1UNL    O19   52  -0.276  -0.406   0.034
    1UNL    C34   53  -0.304  -0.164   0.034
    1UNL    O20   54  -0.405  -0.205  -0.066
    1UNL     H1   55  -0.224   0.303  -0.393
    1UNL     H2   56  -0.149   0.227  -0.528
    1UNL     H3   57  -0.215   0.123  -0.400
    1UNL     H4   58   0.083   0.281  -0.503
    1UNL     H5   59   0.260   0.328  -0.280
    1UNL     H6   60   0.299   0.222  -0.413
    1UNL     H7   61   0.365   0.220  -0.112
    1UNL     H8   62   0.417   0.041  -0.425
    1UNL     H9   63   0.614   0.177  -0.492
    1UNL    H10   64   0.629  -0.006  -0.515
    1UNL    H11   65   0.713   0.080  -0.373
    1UNL    H12   66   0.613  -0.064  -0.209
    1UNL    H13   67   0.476  -0.214  -0.424
    1UNL    H14   68   0.411  -0.210  -0.156
    1UNL    H15   69   0.236  -0.048  -0.280
    1UNL    H16   70   0.263  -0.005  -0.061
    1UNL    H17   71   0.313   0.150   0.098
    1UNL    H18   72   0.356  -0.213   0.096
    1UNL    H19   73   0.121  -0.274   0.120
    1UNL    H20   74   0.215  -0.381   0.223
    1UNL    H21   75   0.168  -0.206   0.380
    1UNL    H22   76   0.478  -0.286   0.292
    1UNL    H23   77   0.338  -0.123   0.482
    1UNL    H24   78   0.564  -0.053   0.402
    1UNL    H25   79   0.568  -0.083   0.116
    1UNL    H26   80   0.371   0.106   0.333
    1UNL    H27   81   0.579   0.158   0.136
    1UNL    H28   82  -0.135   0.118  -0.184
    1UNL    H29   83   0.029   0.060  -0.197
    1UNL    H30   84   0.090   0.294  -0.126
    1UNL    H31   85  -0.063   0.339  -0.109
    1UNL    H32   86   0.081   0.122   0.071
    1UNL    H33   87  -0.038   0.069   0.262
    1UNL    H34   88  -0.020   0.239   0.341
    1UNL    H35   89  -0.189   0.164   0.312
    1UNL    H36   90  -0.256   0.331   0.199
    1UNL    H37   91  -0.161   0.419   0.081
    1UNL    H38   92  -0.235   0.103   0.004
    1UNL    H39   93  -0.450   0.329  -0.155
    1UNL    H40   94  -0.595   0.107  -0.296
    1UNL    H41   95  -0.495   0.244  -0.367
    1UNL    H42   96  -0.656   0.283  -0.306
    1UNL    H43   97  -0.674   0.327  -0.038
    1UNL    H44   98  -0.630   0.051  -0.029
    1UNL    H45   99  -0.494   0.339   0.125
    1UNL    H46  100  -0.669   0.120   0.189
    1UNL    H47  101  -0.374   0.142   0.208
    1UNL    H48  102  -0.451  -0.170   0.214
    1UNL    H49  103  -0.107  -0.136   0.306
    1UNL    H50  104  -0.235  -0.085   0.518
    1UNL    H51  105  -0.191  -0.258   0.503
    1UNL    H52  106  -0.415  -0.308   0.434
    1UNL    H53  107  -0.135  -0.356   0.253
    1UNL    H54  108  -0.342  -0.453   0.202
    1UNL    H55  109  -0.113  -0.280   0.038
    1UNL    H56  110  -0.325  -0.406  -0.046
    1UNL    H57  111  -0.245  -0.095  -0.033
    1UNL    H58  112  -0.451  -0.120  -0.082
   0.00000   0.00000   0.00000   0.00000   0.00000   0.00000   0.00000   0.00000   0.00000
Generated with MDTraj, t= 71.0
 112
    1UNL     C1    1  -0.154   0.213  -0.380
    1UNL     C2    2  -0.027   0.226  -0.315
    1UNL     C3    3   0.079   0.267  -0.381
    1UNL     C4    4   0.218   0.259  -0.331
    1UNL     O1    5   0.240   0.131  -0.273
    1UNL     C5    6   0.361   0.122  -0.198
    1UNL     O2    7   0.477   0.142  -0.273
    1UNL     C6    8   0.488   0.040  -0.375
    1UNL     C7    9   0.598   0.078  -0.484
    1UNL     C8   10   0.522  -0.093  -0.303
    1UNL     O3   11   0.553  -0.203  -0.396
    1UNL     C9   12   0.400  -0.130  -0.207
    1UNL     O4   13   0.297  -0.184  -0.287
    1UNL    C10   14   0.367  -0.011  -0.106
    1UNL     O5   15   0.453   0.003   0.011
    1UNL    C11   16   0.362   0.055   0.112
    1UNL     O6   17   0.250  -0.032   0.136
    1UNL    C12   18   0.295  -0.162   0.180
    1UNL    C13   19   0.165  -0.246   0.205
    1UNL     O7   20   0.092  -0.209   0.318
    1UNL    C14   21   0.395  -0.150   0.296
    1UNL     O8   22   0.318  -0.150   0.415
    1UNL    C15   23   0.506  -0.038   0.300
    1UNL     O9   24   0.619  -0.069   0.221
    1UNL    C16   25   0.435   0.090   0.246
    1UNL    O10   26   0.532   0.197   0.238
    1UNL    C17   27  -0.020   0.172  -0.179
    1UNL    C18   28   0.008   0.280  -0.069
    1UNL    C19   29   0.020   0.201   0.064
    1UNL    C20   30  -0.072   0.211   0.162
    1UNL    C21   31  -0.050   0.142   0.293
    1UNL    C22   32  -0.189   0.310   0.159
    1UNL    O11   33  -0.268   0.295   0.037
    1UNL    C23   34  -0.320   0.163   0.012
    1UNL    O12   35  -0.371   0.142  -0.120
    1UNL    C24   36  -0.477   0.235  -0.153
    1UNL    C25   37  -0.521   0.233  -0.297
    1UNL    C26   38  -0.592   0.211  -0.058
    1UNL    O13   39  -0.644   0.077  -0.069
    1UNL    C27   40  -0.545   0.226   0.093
    1UNL    O14   41  -0.648   0.185   0.175
    1UNL    C28   42  -0.424   0.132   0.117
    1UNL    O15   43  -0.473  -0.002   0.102
    1UNL    C29   44  -0.384  -0.102   0.145
    1UNL    O16   45  -0.300  -0.074   0.256
    1UNL    C30   46  -0.232  -0.191   0.317
    1UNL    C31   47  -0.271  -0.191   0.468
    1UNL    O17   48  -0.407  -0.188   0.485
    1UNL    C32   49  -0.259  -0.330   0.246
    1UNL    O18   50  -0.398  -0.383   0.263
    1UNL    C33   51  -0.235  -0.313   0.095
    1UNL    O19   52  -0.303  -0.414   0.027
    1UNL    C34   53  -0.286  -0.169   0.047
    1UNL    O20   54  -0.349  -0.172  -0.082
    1UNL     H1   55  -0.235   0.249  -0.314
    1UNL     H2   56  -0.163   0.280  -0.467
    1UNL     H3   57  -0.164   0.104  -0.409
    1UNL     H4   58   0.070   0.304  -0.479
    1UNL     H5   59   0.235   0.330  -0.253
    1UNL     H6   60   0.303   0.272  -0.400
    1UNL     H7   61   0.354   0.211  -0.138
    1UNL     H8   62   0.388   0.030  -0.426
    1UNL     H9   63   0.563   0.143  -0.562
    1UNL    H10   64   0.640  -0.011  -0.541
    1UNL    H11   65   0.681   0.135  -0.428
    1UNL    H12   66   0.614  -0.071  -0.235
    1UNL    H13   67   0.469  -0.242  -0.417
    1UNL    H14   68   0.421  -0.217  -0.144
    1UNL    H15   69   0.256  -0.118  -0.350
    1UNL    H16   70   0.273  -0.021  -0.058
    1UNL    H17   71   0.330   0.158   0.072
    1UNL    H18   72   0.357  -0.208   0.100
    1UNL    H19   73   0.099  -0.233   0.124
    1UNL    H20   74   0.184  -0.359   0.214
    1UNL    H21   75   0.156  -0.222   0.390
    1UNL    H22   76   0.460  -0.247   0.304
    1UNL    H23   77   0.275  -0.066   0.420
    1UNL    H24   78   0.558  -0.017   0.400
    1UNL    H25   79   0.582  -0.067   0.130
    1UNL    H26   80   0.358   0.119   0.318
    1UNL    H27   81   0.613   0.167   0.190
    1UNL    H28   82  -0.116   0.133  -0.160
    1UNL    H29   83   0.057   0.093  -0.174
    1UNL    H30   84   0.089   0.346  -0.085
    1UNL    H31   85  -0.072   0.356  -0.072
    1UNL    H32   86   0.088   0.113   0.067
    1UNL    H33   87   0.053   0.085   0.292
    1UNL    H34   88  -0.052   0.211   0.374
    1UNL    H35   89  -0.136   0.064   0.315
    1UNL    H36   90  -0.258   0.296   0.246
    1UNL    H37   91  -0.150   0.408   0.171
    1UNL    H38   92  -0.231   0.101   0.027
    1UNL    H39   93  -0.412   0.328  -0.135
    1UNL    H40   94  -0.598   0.155  -0.306
    1UNL    H41   95  -0.443   0.224  -0.373
    1UNL    H42   96  -0.566   0.334  -0.320
    1UNL    H43   97  -0.681   0.276  -0.082
    1UNL    H44   98  -0.577   0.008  -0.051
    1UNL    H45   99  -0.520   0.333   0.125
    1UNL    H46  100  -0.686   0.102   0.144
    1UNL    H47  101  -0.391   0.128   0.226
    1UNL    H48  102  -0.464  -0.175   0.190
    1UNL    H49  103  -0.122  -0.177   0.306
    1UNL    H50  104  -0.218  -0.101   0.515
    1UNL    H51  105  -0.226  -0.279   0.512
    1UNL    H52  106  -0.443  -0.242   0.415
    1UNL    H53  107  -0.196  -0.405   0.289
    1UNL    H54  108  -0.426  -0.424   0.184
    1UNL    H55  109  -0.120  -0.310   0.081
    1UNL    H56  110  -0.313  -0.391  -0.072
    1UNL    H57  111  -0.202  -0.097   0.018
    1UNL    H58  112  -0.368  -0.078  -0.109
   0.00000   0.00000   0.00000   0.00000   0.00000   0.00000   0.00000   0.00000   0.00000
Generated with MDTraj, t= 72.0
 112
    1UNL     C1    1  -0.153   0.293  -0.321
    1UNL     C2    2  -0.018   0.226  -0.299
    1UNL     C3    3   0.080   0.251  -0.384
    1UNL     C4    4   0.226   0.232  -0.354
    1UNL     O1    5   0.243   0.110  -0.273
    1UNL     C5    6   0.361   0.112  -0.209
    1UNL     O2    7   0.471   0.135  -0.290
    1UNL     C6    8   0.491   0.034  -0.386
    1UNL     C7    9   0.594   0.074  -0.487
    1UNL     C8   10   0.521  -0.092  -0.308
    1UNL     O3   11   0.537  -0.209  -0.388
    1UNL     C9   12   0.419  -0.134  -0.200
    1UNL     O4   13   0.313  -0.190  -0.263
    1UNL    C10   14   0.365  -0.012  -0.113
    1UNL     O5   15   0.439   0.027   0.003
    1UNL    C11   16   0.358   0.078   0.103
    1UNL     O6   17   0.252  -0.007   0.130
    1UNL    C12   18   0.291  -0.134   0.178
    1UNL    C13   19   0.178  -0.234   0.179
    1UNL     O7   20   0.073  -0.190   0.261
    1UNL    C14   21   0.361  -0.118   0.312
    1UNL     O8   22   0.285  -0.051   0.418
    1UNL    C15   23   0.488  -0.032   0.284
    1UNL     O9   24   0.570  -0.104   0.200
    1UNL    C16   25   0.453   0.108   0.226
    1UNL    O10   26   0.558   0.191   0.174
    1UNL    C17   27   0.004   0.160  -0.168
    1UNL    C18   28  -0.002   0.260  -0.045
    1UNL    C19   29   0.012   0.183   0.087
    1UNL    C20   30  -0.069   0.190   0.196
    1UNL    C21   31  -0.035   0.121   0.318
    1UNL    C22   32  -0.185   0.289   0.197
    1UNL    O11   33  -0.262   0.291   0.074
    1UNL    C23   34  -0.302   0.157   0.035
    1UNL    O12   35  -0.340   0.142  -0.108
    1UNL    C24   36  -0.448   0.232  -0.148
    1UNL    C25   37  -0.476   0.219  -0.297
    1UNL    C26   38  -0.577   0.193  -0.065
    1UNL    O13   39  -0.627   0.069  -0.098
    1UNL    C27   40  -0.549   0.199   0.085
    1UNL    O14   41  -0.650   0.147   0.160
    1UNL    C28   42  -0.423   0.116   0.116
    1UNL    O15   43  -0.456  -0.016   0.073
    1UNL    C29   44  -0.380  -0.110   0.142
    1UNL    O16   45  -0.326  -0.082   0.272
    1UNL    C30   46  -0.254  -0.197   0.322
    1UNL    C31   47  -0.275  -0.207   0.468
    1UNL    O17   48  -0.408  -0.219   0.505
    1UNL    C32   49  -0.291  -0.330   0.252
    1UNL    O18   50  -0.437  -0.358   0.266
    1UNL    C33   51  -0.258  -0.317   0.098
    1UNL    O19   52  -0.359  -0.376   0.027
    1UNL    C34   53  -0.261  -0.169   0.059
    1UNL    O20   54  -0.276  -0.146  -0.080
    1UNL     H1   55  -0.219   0.269  -0.236
    1UNL     H2   56  -0.156   0.400  -0.320
    1UNL     H3   57  -0.203   0.248  -0.419
    1UNL     H4   58   0.063   0.315  -0.470
    1UNL     H5   59   0.275   0.315  -0.305
    1UNL     H6   60   0.282   0.220  -0.449
    1UNL     H7   61   0.362   0.201  -0.144
    1UNL     H8   62   0.389   0.022  -0.431
    1UNL     H9   63   0.590   0.178  -0.507
    1UNL    H10   64   0.575   0.039  -0.594
    1UNL    H11   65   0.707   0.056  -0.455
    1UNL    H12   66   0.627  -0.074  -0.263
    1UNL    H13   67   0.445  -0.255  -0.393
    1UNL    H14   68   0.456  -0.216  -0.134
    1UNL    H15   69   0.253  -0.119  -0.298
    1UNL    H16   70   0.270  -0.044  -0.068
    1UNL    H17   71   0.315   0.182   0.078
    1UNL    H18   72   0.364  -0.177   0.110
    1UNL    H19   73   0.143  -0.259   0.082
    1UNL    H20   74   0.208  -0.335   0.229
    1UNL    H21   75   0.117  -0.158   0.344
    1UNL    H22   76   0.370  -0.226   0.359
    1UNL    H23   77   0.276   0.039   0.392
    1UNL    H24   78   0.542  -0.015   0.379
    1UNL    H25   79   0.543  -0.082   0.109
    1UNL    H26   80   0.388   0.161   0.297
    1UNL    H27   81   0.593   0.145   0.095
    1UNL    H28   82  -0.073   0.088  -0.148
    1UNL    H29   83   0.098   0.107  -0.169
    1UNL    H30   84   0.066   0.340  -0.062
    1UNL    H31   85  -0.095   0.319  -0.045
    1UNL    H32   86   0.096   0.124   0.086
    1UNL    H33   87   0.064   0.062   0.299
    1UNL    H34   88  -0.027   0.185   0.405
    1UNL    H35   89  -0.112   0.047   0.337
    1UNL    H36   90  -0.259   0.263   0.277
    1UNL    H37   91  -0.157   0.391   0.220
    1UNL    H38   92  -0.212   0.097   0.047
    1UNL    H39   93  -0.415   0.340  -0.117
    1UNL    H40   94  -0.453   0.119  -0.326
    1UNL    H41   95  -0.423   0.289  -0.364
    1UNL    H42   96  -0.583   0.242  -0.330
    1UNL    H43   97  -0.655   0.269  -0.087
    1UNL    H44   98  -0.559  -0.000  -0.095
    1UNL    H45   99  -0.526   0.308   0.112
    1UNL    H46  100  -0.654   0.057   0.134
    1UNL    H47  101  -0.411   0.103   0.227
    1UNL    H48  102  -0.454  -0.200   0.162
    1UNL    H49  103  -0.150  -0.179   0.292
    1UNL    H50  104  -0.227  -0.115   0.519
    1UNL    H51  105  -0.219  -0.291   0.508
    1UNL    H52  106  -0.468  -0.226   0.425
    1UNL    H53  107  -0.246  -0.422   0.289
    1UNL    H54  108  -0.463  -0.401   0.173
    1UNL    H55  109  -0.153  -0.367   0.087
    1UNL    H56  110  -0.349  -0.361  -0.066
    1UNL    H57  111  -0.165  -0.110   0.070
    1UNL    H58  112  -0.320  -0.062  -0.105
   0.00000   0.00000   0.00000   0.00000   0.00000   0.00000   0.00000   0.00000   0.00000
Generated with MDTraj, t= 73.0
 112
    1UNL     C1    1  -0.127   0.362  -0.278
    1UNL     C2    2  -0.012   0.268  -0.278
    1UNL     C3    3   0.078   0.282  -0.372
    1UNL     C4    4   0.198   0.196  -0.399
    1UNL     O1    5   0.223   0.081  -0.306
    1UNL     C5    6   0.348   0.107  -0.228
    1UNL     O2    7   0.462   0.135  -0.310
    1UNL     C6    8   0.499   0.018  -0.387
    1UNL     C7    9   0.619   0.049  -0.473
    1UNL     C8   10   0.532  -0.104  -0.292
    1UNL     O3   11   0.554  -0.222  -0.372
    1UNL     C9   12   0.403  -0.133  -0.211
    1UNL     O4   13   0.301  -0.185  -0.297
    1UNL    C10   14   0.365  -0.004  -0.129
    1UNL     O5   15   0.460   0.029  -0.024
    1UNL    C11   16   0.383   0.084   0.081
    1UNL     O6   17   0.261   0.022   0.115
    1UNL    C12   18   0.286  -0.108   0.163
    1UNL    C13   19   0.159  -0.193   0.165
    1UNL     O7   20   0.072  -0.165   0.274
    1UNL    C14   21   0.336  -0.083   0.304
    1UNL     O8   22   0.254   0.015   0.374
    1UNL    C15   23   0.482  -0.022   0.300
    1UNL     O9   24   0.572  -0.122   0.264
    1UNL    C16   25   0.475   0.102   0.212
    1UNL    O10   26   0.605   0.147   0.175
    1UNL    C17   27  -0.008   0.172  -0.160
    1UNL    C18   28   0.017   0.246  -0.030
    1UNL    C19   29   0.009   0.167   0.105
    1UNL    C20   30  -0.073   0.198   0.207
    1UNL    C21   31  -0.074   0.113   0.328
    1UNL    C22   32  -0.177   0.301   0.191
    1UNL    O11   33  -0.259   0.296   0.078
    1UNL    C23   34  -0.307   0.168   0.034
    1UNL    O12   35  -0.339   0.159  -0.105
    1UNL    C24   36  -0.440   0.242  -0.150
    1UNL    C25   37  -0.474   0.227  -0.299
    1UNL    C26   38  -0.574   0.202  -0.075
    1UNL    O13   39  -0.610   0.072  -0.121
    1UNL    C27   40  -0.548   0.204   0.079
    1UNL    O14   41  -0.665   0.156   0.143
    1UNL    C28   42  -0.420   0.117   0.108
    1UNL    O15   43  -0.460  -0.021   0.074
    1UNL    C29   44  -0.392  -0.119   0.145
    1UNL    O16   45  -0.355  -0.107   0.286
    1UNL    C30   46  -0.267  -0.212   0.338
    1UNL    C31   47  -0.276  -0.241   0.488
    1UNL    O17   48  -0.412  -0.273   0.524
    1UNL    C32   49  -0.284  -0.344   0.258
    1UNL    O18   50  -0.411  -0.409   0.280
    1UNL    C33   51  -0.258  -0.322   0.107
    1UNL    O19   52  -0.347  -0.395   0.034
    1UNL    C34   53  -0.265  -0.172   0.067
    1UNL    O20   54  -0.287  -0.151  -0.070
    1UNL     H1   55  -0.211   0.309  -0.221
    1UNL     H2   56  -0.118   0.455  -0.219
    1UNL     H3   57  -0.174   0.385  -0.379
    1UNL     H4   58   0.065   0.353  -0.455
    1UNL     H5   59   0.283   0.264  -0.397
    1UNL     H6   60   0.198   0.158  -0.504
    1UNL     H7   61   0.322   0.203  -0.178
    1UNL     H8   62   0.405  -0.002  -0.445
    1UNL     H9   63   0.596   0.085  -0.574
    1UNL    H10   64   0.687  -0.040  -0.494
    1UNL    H11   65   0.675   0.128  -0.414
    1UNL    H12   66   0.632  -0.093  -0.236
    1UNL    H13   67   0.470  -0.253  -0.400
    1UNL    H14   68   0.419  -0.210  -0.130
    1UNL    H15   69   0.257  -0.111  -0.346
    1UNL    H16   70   0.267  -0.022  -0.078
    1UNL    H17   71   0.363   0.191   0.054
    1UNL    H18   72   0.363  -0.158   0.108
    1UNL    H19   73   0.102  -0.172   0.077
    1UNL    H20   74   0.183  -0.308   0.166
    1UNL    H21   75   0.115  -0.114   0.346
    1UNL    H22   76   0.339  -0.189   0.353
    1UNL    H23   77   0.210   0.066   0.296
    1UNL    H24   78   0.527   0.012   0.393
    1UNL    H25   79   0.662  -0.086   0.246
    1UNL    H26   80   0.429   0.184   0.271
    1UNL    H27   81   0.608   0.164   0.077
    1UNL    H28   82  -0.105   0.117  -0.159
    1UNL    H29   83   0.068   0.097  -0.174
    1UNL    H30   84   0.118   0.281  -0.025
    1UNL    H31   85  -0.043   0.337  -0.022
    1UNL    H32   86   0.092   0.096   0.127
    1UNL    H33   87  -0.077   0.020   0.297
    1UNL    H34   88   0.011   0.123   0.402
    1UNL    H35   89  -0.161   0.126   0.386
    1UNL    H36   90  -0.246   0.302   0.280
    1UNL    H37   91  -0.130   0.401   0.191
    1UNL    H38   92  -0.216   0.107   0.034
    1UNL    H39   93  -0.419   0.353  -0.120
    1UNL    H40   94  -0.514   0.128  -0.317
    1UNL    H41   95  -0.379   0.240  -0.356
    1UNL    H42   96  -0.541   0.309  -0.333
    1UNL    H43   97  -0.654   0.272  -0.091
    1UNL    H44   98  -0.541   0.005  -0.096
    1UNL    H45   99  -0.534   0.309   0.119
    1UNL    H46  100  -0.667   0.053   0.130
    1UNL    H47  101  -0.404   0.112   0.217
    1UNL    H48  102  -0.469  -0.210   0.151
    1UNL    H49  103  -0.164  -0.178   0.315
    1UNL    H50  104  -0.241  -0.156   0.558
    1UNL    H51  105  -0.207  -0.318   0.521
    1UNL    H52  106  -0.438  -0.338   0.458
    1UNL    H53  107  -0.214  -0.422   0.300
    1UNL    H54  108  -0.428  -0.459   0.205
    1UNL    H55  109  -0.149  -0.366   0.100
    1UNL    H56  110  -0.325  -0.387  -0.062
    1UNL    H57  111  -0.175  -0.106   0.078
    1UNL    H58  112  -0.332  -0.065  -0.081
   0.00000   0.00000   0.00000   0.00000   0.00000   0.00000   0.00000   0.00000   0.00000
Generated with MDTraj, t= 74.0
 112
    1UNL     C1    1  -0.060   0.432  -0.248
    1UNL     C2    2   0.025   0.307  -0.254
    1UNL     C3    3   0.090   0.283  -0.366
    1UNL     C4    4   0.174   0.167  -0.408
    1UNL     O1    5   0.214   0.069  -0.311
    1UNL     C5    6   0.331   0.100  -0.234
    1UNL     O2    7   0.443   0.130  -0.325
    1UNL     C6    8   0.503   0.010  -0.385
    1UNL     C7    9   0.627   0.043  -0.463
    1UNL     C8   10   0.529  -0.106  -0.292
    1UNL     O3   11   0.588  -0.219  -0.357
    1UNL     C9   12   0.400  -0.144  -0.217
    1UNL     O4   13   0.298  -0.197  -0.294
    1UNL    C10   14   0.351  -0.019  -0.135
    1UNL     O5   15   0.451   0.005  -0.036
    1UNL    C11   16   0.396   0.086   0.065
    1UNL     O6   17   0.268   0.047   0.111
    1UNL    C12   18   0.278  -0.080   0.170
    1UNL    C13   19   0.142  -0.161   0.168
    1UNL     O7   20   0.033  -0.112   0.242
    1UNL    C14   21   0.329  -0.053   0.308
    1UNL     O8   22   0.244   0.022   0.398
    1UNL    C15   23   0.479   0.000   0.298
    1UNL     O9   24   0.560  -0.111   0.271
    1UNL    C16   25   0.496   0.100   0.187
    1UNL    O10   26   0.627   0.086   0.137
    1UNL    C17   27   0.016   0.212  -0.140
    1UNL    C18   28   0.035   0.272  -0.003
    1UNL    C19   29   0.011   0.186   0.119
    1UNL    C20   30  -0.090   0.208   0.204
    1UNL    C21   31  -0.121   0.115   0.313
    1UNL    C22   32  -0.201   0.290   0.159
    1UNL    O11   33  -0.252   0.252   0.036
    1UNL    C23   34  -0.308   0.122   0.017
    1UNL    O12   35  -0.360   0.110  -0.113
    1UNL    C24   36  -0.441   0.225  -0.144
    1UNL    C25   37  -0.454   0.248  -0.294
    1UNL    C26   38  -0.570   0.208  -0.061
    1UNL    O13   39  -0.623   0.082  -0.105
    1UNL    C27   40  -0.542   0.207   0.086
    1UNL    O14   41  -0.658   0.178   0.161
    1UNL    C28   42  -0.428   0.104   0.117
    1UNL    O15   43  -0.481  -0.033   0.102
    1UNL    C29   44  -0.397  -0.122   0.162
    1UNL    O16   45  -0.338  -0.102   0.298
    1UNL    C30   46  -0.269  -0.213   0.351
    1UNL    C31   47  -0.300  -0.247   0.494
    1UNL    O17   48  -0.416  -0.326   0.515
    1UNL    C32   49  -0.273  -0.341   0.258
    1UNL    O18   50  -0.400  -0.411   0.253
    1UNL    C33   51  -0.228  -0.306   0.111
    1UNL    O19   52  -0.273  -0.408   0.024
    1UNL    C34   53  -0.285  -0.169   0.066
    1UNL    O20   54  -0.335  -0.170  -0.066
    1UNL     H1   55  -0.133   0.413  -0.164
    1UNL     H2   56  -0.002   0.531  -0.220
    1UNL     H3   57  -0.119   0.449  -0.338
    1UNL     H4   58   0.082   0.347  -0.449
    1UNL     H5   59   0.259   0.193  -0.473
    1UNL     H6   60   0.108   0.106  -0.475
    1UNL     H7   61   0.299   0.196  -0.187
    1UNL     H8   62   0.417  -0.013  -0.451
    1UNL     H9   63   0.614   0.148  -0.513
    1UNL    H10   64   0.629  -0.029  -0.551
    1UNL    H11   65   0.711   0.038  -0.394
    1UNL    H12   66   0.612  -0.077  -0.221
    1UNL    H13   67   0.509  -0.264  -0.398
    1UNL    H14   68   0.435  -0.224  -0.145
    1UNL    H15   69   0.244  -0.120  -0.333
    1UNL    H16   70   0.254  -0.050  -0.085
    1UNL    H17   71   0.382   0.187   0.021
    1UNL    H18   72   0.351  -0.129   0.110
    1UNL    H19   73   0.112  -0.178   0.067
    1UNL    H20   74   0.163  -0.264   0.221
    1UNL    H21   75   0.061  -0.079   0.331
    1UNL    H22   76   0.328  -0.151   0.370
    1UNL    H23   77   0.235   0.114   0.363
    1UNL    H24   78   0.508   0.044   0.391
    1UNL    H25   79   0.639  -0.090   0.217
    1UNL    H26   80   0.479   0.199   0.236
    1UNL    H27   81   0.626   0.063   0.040
    1UNL    H28   82  -0.085   0.161  -0.144
    1UNL    H29   83   0.088   0.131  -0.154
    1UNL    H30   84   0.139   0.303  -0.001
    1UNL    H31   85  -0.022   0.363   0.012
    1UNL    H32   86   0.078   0.102   0.139
    1UNL    H33   87  -0.161   0.021   0.256
    1UNL    H34   88  -0.045   0.091   0.385
    1UNL    H35   89  -0.199   0.154   0.368
    1UNL    H36   90  -0.282   0.282   0.237
    1UNL    H37   91  -0.177   0.398   0.150
    1UNL    H38   92  -0.222   0.060   0.044
    1UNL    H39   93  -0.387   0.321  -0.102
    1UNL    H40   94  -0.475   0.148  -0.340
    1UNL    H41   95  -0.350   0.282  -0.323
    1UNL    H42   96  -0.520   0.328  -0.324
    1UNL    H43   97  -0.643   0.279  -0.091
    1UNL    H44   98  -0.573   0.002  -0.076
    1UNL    H45   99  -0.508   0.311   0.110
    1UNL    H46  100  -0.682   0.083   0.146
    1UNL    H47  101  -0.405   0.110   0.223
    1UNL    H48  102  -0.466  -0.217   0.183
    1UNL    H49  103  -0.162  -0.180   0.359
    1UNL    H50  104  -0.313  -0.150   0.555
    1UNL    H51  105  -0.220  -0.290   0.551
    1UNL    H52  106  -0.442  -0.364   0.432
    1UNL    H53  107  -0.199  -0.417   0.299
    1UNL    H54  108  -0.412  -0.460   0.160
    1UNL    H55  109  -0.110  -0.299   0.104
    1UNL    H56  110  -0.251  -0.389  -0.072
    1UNL    H57  111  -0.205  -0.095   0.049
    1UNL    H58  112  -0.362  -0.081  -0.096
   0.00000   0.00000   0.00000   0.00000   0.00000   0.00000   0.00000   0.00000   0.00000
Generated with MDTraj, t= 75.0
 112
    1UNL     C1    1   0.018   0.470  -0.210
    1UNL     C2    2   0.062   0.327  -0.231
    1UNL     C3    3   0.140   0.290  -0.330
    1UNL     C4    4   0.169   0.156  -0.390
    1UNL     O1    5   0.186   0.052  -0.292
    1UNL     C5    6   0.311   0.061  -0.224
    1UNL     O2    7   0.416   0.109  -0.300
    1UNL     C6    8   0.469   0.005  -0.384
    1UNL     C7    9   0.583   0.063  -0.473
    1UNL     C8   10   0.523  -0.106  -0.292
    1UNL     O3   11   0.574  -0.214  -0.372
    1UNL     C9   12   0.413  -0.164  -0.203
    1UNL     O4   13   0.316  -0.213  -0.292
    1UNL    C10   14   0.351  -0.047  -0.123
    1UNL     O5   15   0.447  -0.005  -0.024
    1UNL    C11   16   0.395   0.084   0.066
    1UNL     O6   17   0.264   0.041   0.097
    1UNL    C12   18   0.274  -0.084   0.162
    1UNL    C13   19   0.130  -0.147   0.168
    1UNL     O7   20   0.031  -0.077   0.243
    1UNL    C14   21   0.328  -0.058   0.300
    1UNL     O8   22   0.257   0.046   0.369
    1UNL    C15   23   0.481  -0.021   0.287
    1UNL     O9   24   0.570  -0.122   0.245
    1UNL    C16   25   0.490   0.095   0.190
    1UNL    O10   26   0.626   0.110   0.147
    1UNL    C17   27   0.021   0.234  -0.123
    1UNL    C18   28   0.062   0.291   0.016
    1UNL    C19   29   0.011   0.214   0.127
    1UNL    C20   30  -0.102   0.235   0.196
    1UNL    C21   31  -0.117   0.161   0.325
    1UNL    C22   32  -0.210   0.331   0.144
    1UNL    O11   33  -0.263   0.279   0.021
    1UNL    C23   34  -0.311   0.143   0.005
    1UNL    O12   35  -0.362   0.115  -0.121
    1UNL    C24   36  -0.468   0.203  -0.168
    1UNL    C25   37  -0.520   0.163  -0.307
    1UNL    C26   38  -0.585   0.207  -0.057
    1UNL    O13   39  -0.659   0.081  -0.077
    1UNL    C27   40  -0.531   0.208   0.088
    1UNL    O14   41  -0.632   0.175   0.181
    1UNL    C28   42  -0.414   0.105   0.111
    1UNL    O15   43  -0.462  -0.035   0.088
    1UNL    C29   44  -0.385  -0.131   0.149
    1UNL    O16   45  -0.352  -0.119   0.293
    1UNL    C30   46  -0.269  -0.226   0.342
    1UNL    C31   47  -0.309  -0.270   0.485
    1UNL    O17   48  -0.444  -0.304   0.490
    1UNL    C32   49  -0.276  -0.352   0.251
    1UNL    O18   50  -0.404  -0.402   0.224
    1UNL    C33   51  -0.203  -0.319   0.122
    1UNL    O19   52  -0.217  -0.417   0.025
    1UNL    C34   53  -0.261  -0.182   0.063
    1UNL    O20   54  -0.323  -0.190  -0.067
    1UNL     H1   55  -0.086   0.470  -0.164
    1UNL     H2   56   0.098   0.531  -0.147
    1UNL     H3   57   0.015   0.517  -0.308
    1UNL     H4   58   0.174   0.373  -0.398
    1UNL     H5   59   0.259   0.154  -0.453
    1UNL     H6   60   0.088   0.126  -0.460
    1UNL     H7   61   0.297   0.149  -0.154
    1UNL     H8   62   0.385  -0.033  -0.444
    1UNL     H9   63   0.543   0.128  -0.564
    1UNL    H10   64   0.629  -0.028  -0.522
    1UNL    H11   65   0.650   0.117  -0.408
    1UNL    H12   66   0.611  -0.072  -0.234
    1UNL    H13   67   0.496  -0.279  -0.390
    1UNL    H14   68   0.449  -0.244  -0.132
    1UNL    H15   69   0.252  -0.145  -0.313
    1UNL    H16   70   0.264  -0.095  -0.069
    1UNL    H17   71   0.386   0.177   0.011
    1UNL    H18   72   0.343  -0.143   0.103
    1UNL    H19   73   0.083  -0.156   0.074
    1UNL    H20   74   0.139  -0.252   0.214
    1UNL    H21   75   0.081  -0.022   0.309
    1UNL    H22   76   0.322  -0.156   0.361
    1UNL    H23   77   0.245   0.115   0.305
    1UNL    H24   78   0.524   0.022   0.378
    1UNL    H25   79   0.652  -0.078   0.213
    1UNL    H26   80   0.464   0.187   0.246
    1UNL    H27   81   0.644   0.042   0.079
    1UNL    H28   82  -0.092   0.220  -0.125
    1UNL    H29   83   0.066   0.134  -0.137
    1UNL    H30   84   0.169   0.308   0.022
    1UNL    H31   85   0.017   0.388   0.019
    1UNL    H32   86   0.060   0.126   0.148
    1UNL    H33   87  -0.137   0.051   0.292
    1UNL    H34   88  -0.044   0.177   0.394
    1UNL    H35   89  -0.205   0.198   0.370
    1UNL    H36   90  -0.293   0.345   0.218
    1UNL    H37   91  -0.164   0.432   0.129
    1UNL    H38   92  -0.216   0.087   0.021
    1UNL    H39   93  -0.417   0.307  -0.167
    1UNL    H40   94  -0.585   0.070  -0.300
    1UNL    H41   95  -0.436   0.144  -0.378
    1UNL    H42   96  -0.573   0.246  -0.351
    1UNL    H43   97  -0.653   0.288  -0.064
    1UNL    H44   98  -0.602   0.011  -0.038
    1UNL    H45   99  -0.496   0.309   0.112
    1UNL    H46  100  -0.673   0.097   0.153
    1UNL    H47  101  -0.378   0.095   0.212
    1UNL    H48  102  -0.458  -0.224   0.163
    1UNL    H49  103  -0.168  -0.181   0.345
    1UNL    H50  104  -0.290  -0.191   0.563
    1UNL    H51  105  -0.249  -0.350   0.518
    1UNL    H52  106  -0.473  -0.358   0.409
    1UNL    H53  107  -0.213  -0.441   0.287
    1UNL    H54  108  -0.414  -0.457   0.145
    1UNL    H55  109  -0.087  -0.309   0.147
    1UNL    H56  110  -0.249  -0.382  -0.060
    1UNL    H57  111  -0.183  -0.103   0.061
    1UNL    H58  112  -0.351  -0.096  -0.088
   0.00000   0.00000   0.00000   0.00000   0.00000   0.00000   0.00000   0.00000   0.00000
Generated with MDTraj, t= 76.0
 112
    1UNL     C1    1   0.133   0.479  -0.213
    1UNL     C2    2   0.098   0.329  -0.224
    1UNL     C3    3   0.149   0.267  -0.327
    1UNL     C4    4   0.134   0.118  -0.359
    1UNL     O1    5   0.185   0.031  -0.261
    1UNL     C5    6   0.311   0.075  -0.212
    1UNL     O2    7   0.416   0.119  -0.304
    1UNL     C6    8   0.456   0.010  -0.401
    1UNL     C7    9   0.555   0.064  -0.504
    1UNL     C8   10   0.516  -0.101  -0.320
    1UNL     O3   11   0.546  -0.210  -0.412
    1UNL     C9   12   0.417  -0.152  -0.214
    1UNL     O4   13   0.299  -0.205  -0.279
    1UNL    C10   14   0.366  -0.040  -0.111
    1UNL     O5   15   0.461  -0.009  -0.014
    1UNL    C11   16   0.392   0.079   0.073
    1UNL     O6   17   0.256   0.039   0.107
    1UNL    C12   18   0.262  -0.084   0.175
    1UNL    C13   19   0.126  -0.152   0.185
    1UNL     O7   20   0.047  -0.093   0.280
    1UNL    C14   21   0.331  -0.063   0.314
    1UNL     O8   22   0.274   0.038   0.395
    1UNL    C15   23   0.479  -0.038   0.288
    1UNL     O9   24   0.547  -0.136   0.214
    1UNL    C16   25   0.477   0.089   0.202
    1UNL    O10   26   0.608   0.134   0.166
    1UNL    C17   27   0.005   0.267  -0.114
    1UNL    C18   28   0.064   0.293   0.028
    1UNL    C19   29  -0.005   0.221   0.136
    1UNL    C20   30  -0.126   0.246   0.190
    1UNL    C21   31  -0.158   0.173   0.319
    1UNL    C22   32  -0.221   0.341   0.120
    1UNL    O11   33  -0.265   0.284  -0.009
    1UNL    C23   34  -0.305   0.143  -0.008
    1UNL    O12   35  -0.372   0.098  -0.131
    1UNL    C24   36  -0.493   0.166  -0.161
    1UNL    C25   37  -0.549   0.104  -0.290
    1UNL    C26   38  -0.589   0.159  -0.035
    1UNL    O13   39  -0.652   0.031  -0.027
    1UNL    C27   40  -0.525   0.198   0.093
    1UNL    O14   41  -0.604   0.170   0.207
    1UNL    C28   42  -0.398   0.106   0.107
    1UNL    O15   43  -0.439  -0.026   0.075
    1UNL    C29   44  -0.363  -0.119   0.139
    1UNL    O16   45  -0.338  -0.100   0.274
    1UNL    C30   46  -0.267  -0.212   0.336
    1UNL    C31   47  -0.351  -0.240   0.463
    1UNL    O17   48  -0.482  -0.281   0.433
    1UNL    C32   49  -0.259  -0.338   0.245
    1UNL    O18   50  -0.387  -0.403   0.222
    1UNL    C33   51  -0.193  -0.312   0.105
    1UNL    O19   52  -0.255  -0.397   0.011
    1UNL    C34   53  -0.226  -0.157   0.069
    1UNL    O20   54  -0.241  -0.150  -0.070
    1UNL     H1   55   0.057   0.548  -0.163
    1UNL     H2   56   0.238   0.499  -0.180
    1UNL     H3   57   0.143   0.518  -0.318
    1UNL     H4   58   0.211   0.324  -0.387
    1UNL     H5   59   0.188   0.099  -0.452
    1UNL     H6   60   0.028   0.094  -0.382
    1UNL     H7   61   0.290   0.166  -0.148
    1UNL     H8   62   0.368  -0.031  -0.449
    1UNL     H9   63   0.512   0.144  -0.565
    1UNL    H10   64   0.581  -0.015  -0.583
    1UNL    H11   65   0.648   0.105  -0.456
    1UNL    H12   66   0.612  -0.070  -0.278
    1UNL    H13   67   0.464  -0.263  -0.418
    1UNL    H14   68   0.458  -0.237  -0.156
    1UNL    H15   69   0.226  -0.138  -0.303
    1UNL    H16   70   0.280  -0.088  -0.055
    1UNL    H17   71   0.386   0.172   0.018
    1UNL    H18   72   0.323  -0.145   0.102
    1UNL    H19   73   0.072  -0.150   0.096
    1UNL    H20   74   0.125  -0.261   0.218
    1UNL    H21   75   0.108  -0.059   0.350
    1UNL    H22   76   0.316  -0.160   0.370
    1UNL    H23   77   0.278   0.123   0.344
    1UNL    H24   78   0.528  -0.023   0.388
    1UNL    H25   79   0.499  -0.163   0.132
    1UNL    H26   80   0.432   0.169   0.262
    1UNL    H27   81   0.655   0.068   0.109
    1UNL    H28   82  -0.100   0.309  -0.124
    1UNL    H29   83   0.001   0.157  -0.136
    1UNL    H30   84   0.172   0.274   0.041
    1UNL    H31   85   0.048   0.398   0.045
    1UNL    H32   86   0.046   0.128   0.176
    1UNL    H33   87  -0.184   0.081   0.294
    1UNL    H34   88  -0.092   0.183   0.400
    1UNL    H35   89  -0.249   0.221   0.361
    1UNL    H36   90  -0.311   0.361   0.183
    1UNL    H37   91  -0.176   0.442   0.105
    1UNL    H38   92  -0.203   0.097  -0.017
    1UNL    H39   93  -0.468   0.275  -0.178
    1UNL    H40   94  -0.555  -0.008  -0.278
    1UNL    H41   95  -0.481   0.121  -0.374
    1UNL    H42   96  -0.646   0.142  -0.330
    1UNL    H43   97  -0.671   0.225  -0.051
    1UNL    H44   98  -0.582  -0.032  -0.001
    1UNL    H45   99  -0.495   0.302   0.086
    1UNL    H46  100  -0.633   0.073   0.196
    1UNL    H47  101  -0.363   0.109   0.209
    1UNL    H48  102  -0.415  -0.226   0.134
    1UNL    H49  103  -0.175  -0.161   0.364
    1UNL    H50  104  -0.359  -0.145   0.522
    1UNL    H51  105  -0.298  -0.308   0.523
    1UNL    H52  106  -0.487  -0.323   0.346
    1UNL    H53  107  -0.194  -0.412   0.299
    1UNL    H54  108  -0.394  -0.472   0.147
    1UNL    H55  109  -0.076  -0.327   0.107
    1UNL    H56  110  -0.265  -0.355  -0.081
    1UNL    H57  111  -0.141  -0.093   0.101
    1UNL    H58  112  -0.286  -0.064  -0.090
   0.00000   0.00000   0.00000   0.00000   0.00000   0.00000   0.00000   0.00000   0.00000
Generated with MDTraj, t= 77.0
 112
    1UNL     C1    1   0.192   0.472  -0.193
    1UNL     C2    2   0.131   0.338  -0.218
    1UNL     C3    3   0.150   0.277  -0.333
    1UNL     C4    4   0.112   0.130  -0.356
    1UNL     O1    5   0.164   0.036  -0.264
    1UNL     C5    6   0.288   0.068  -0.213
    1UNL     O2    7   0.374   0.122  -0.306
    1UNL     C6    8   0.420   0.017  -0.398
    1UNL     C7    9   0.493   0.076  -0.516
    1UNL     C8   10   0.497  -0.097  -0.327
    1UNL     O3   11   0.541  -0.201  -0.424
    1UNL     C9   12   0.418  -0.155  -0.209
    1UNL     O4   13   0.313  -0.249  -0.228
    1UNL    C10   14   0.358  -0.041  -0.121
    1UNL     O5   15   0.446  -0.001  -0.019
    1UNL    C11   16   0.380   0.080   0.077
    1UNL     O6   17   0.254   0.033   0.119
    1UNL    C12   18   0.267  -0.095   0.189
    1UNL    C13   19   0.122  -0.143   0.209
    1UNL     O7   20   0.051  -0.058   0.291
    1UNL    C14   21   0.350  -0.093   0.323
    1UNL     O8   22   0.288  -0.024   0.431
    1UNL    C15   23   0.489  -0.041   0.286
    1UNL     O9   24   0.554  -0.140   0.211
    1UNL    C16   25   0.469   0.089   0.202
    1UNL    O10   26   0.596   0.137   0.174
    1UNL    C17   27   0.034   0.279  -0.116
    1UNL    C18   28   0.067   0.313   0.032
    1UNL    C19   29   0.005   0.222   0.126
    1UNL    C20   30  -0.120   0.238   0.174
    1UNL    C21   31  -0.149   0.166   0.302
    1UNL    C22   32  -0.215   0.331   0.110
    1UNL    O11   33  -0.279   0.296  -0.014
    1UNL    C23   34  -0.317   0.158  -0.033
    1UNL    O12   35  -0.385   0.116  -0.149
    1UNL    C24   36  -0.512   0.175  -0.173
    1UNL    C25   37  -0.571   0.106  -0.298
    1UNL    C26   38  -0.605   0.158  -0.046
    1UNL    O13   39  -0.650   0.024  -0.042
    1UNL    C27   40  -0.532   0.188   0.085
    1UNL    O14   41  -0.612   0.138   0.194
    1UNL    C28   42  -0.394   0.110   0.087
    1UNL    O15   43  -0.425  -0.029   0.068
    1UNL    C29   44  -0.348  -0.124   0.142
    1UNL    O16   45  -0.321  -0.101   0.277
    1UNL    C30   46  -0.267  -0.215   0.348
    1UNL    C31   47  -0.362  -0.247   0.461
    1UNL    O17   48  -0.496  -0.238   0.419
    1UNL    C32   49  -0.244  -0.337   0.253
    1UNL    O18   50  -0.363  -0.411   0.220
    1UNL    C33   51  -0.175  -0.306   0.116
    1UNL    O19   52  -0.221  -0.387   0.015
    1UNL    C34   53  -0.210  -0.159   0.073
    1UNL    O20   54  -0.210  -0.138  -0.064
    1UNL     H1   55   0.128   0.550  -0.139
    1UNL     H2   56   0.290   0.462  -0.151
    1UNL     H3   57   0.222   0.519  -0.295
    1UNL     H4   58   0.212   0.327  -0.413
    1UNL     H5   59   0.147   0.098  -0.454
    1UNL     H6   60   0.003   0.130  -0.361
    1UNL     H7   61   0.265   0.149  -0.137
    1UNL     H8   62   0.328  -0.025  -0.436
    1UNL     H9   63   0.448   0.155  -0.568
    1UNL    H10   64   0.495  -0.004  -0.598
    1UNL    H11   65   0.603   0.110  -0.498
    1UNL    H12   66   0.590  -0.055  -0.292
    1UNL    H13   67   0.481  -0.274  -0.414
    1UNL    H14   68   0.490  -0.197  -0.137
    1UNL    H15   69   0.237  -0.215  -0.275
    1UNL    H16   70   0.267  -0.083  -0.065
    1UNL    H17   71   0.369   0.174   0.025
    1UNL    H18   72   0.320  -0.154   0.107
    1UNL    H19   73   0.059  -0.154   0.127
    1UNL    H20   74   0.133  -0.245   0.253
    1UNL    H21   75   0.110  -0.044   0.369
    1UNL    H22   76   0.358  -0.196   0.366
    1UNL    H23   77   0.264   0.071   0.404
    1UNL    H24   78   0.551  -0.024   0.380
    1UNL    H25   79   0.537  -0.117   0.117
    1UNL    H26   80   0.415   0.163   0.261
    1UNL    H27   81   0.648   0.078   0.113
    1UNL    H28   82  -0.073   0.302  -0.142
    1UNL    H29   83   0.039   0.165  -0.125
    1UNL    H30   84   0.178   0.309   0.038
    1UNL    H31   85   0.040   0.413   0.056
    1UNL    H32   86   0.058   0.135   0.155
    1UNL    H33   87  -0.178   0.064   0.275
    1UNL    H34   88  -0.080   0.175   0.381
    1UNL    H35   89  -0.238   0.204   0.348
    1UNL    H36   90  -0.298   0.351   0.182
    1UNL    H37   91  -0.173   0.433   0.092
    1UNL    H38   92  -0.216   0.113  -0.041
    1UNL    H39   93  -0.485   0.277  -0.204
    1UNL    H40   94  -0.556  -0.002  -0.285
    1UNL    H41   95  -0.518   0.138  -0.389
    1UNL    H42   96  -0.682   0.124  -0.320
    1UNL    H43   97  -0.700   0.214  -0.055
    1UNL    H44   98  -0.567  -0.026  -0.053
    1UNL    H45   99  -0.519   0.293   0.091
    1UNL    H46  100  -0.608   0.035   0.186
    1UNL    H47  101  -0.352   0.118   0.188
    1UNL    H48  102  -0.416  -0.221   0.146
    1UNL    H49  103  -0.177  -0.169   0.390
    1UNL    H50  104  -0.346  -0.182   0.551
    1UNL    H51  105  -0.335  -0.343   0.493
    1UNL    H52  106  -0.501  -0.294   0.340
    1UNL    H53  107  -0.172  -0.404   0.302
    1UNL    H54  108  -0.350  -0.478   0.152
    1UNL    H55  109  -0.057  -0.315   0.110
    1UNL    H56  110  -0.202  -0.355  -0.075
    1UNL    H57  111  -0.141  -0.089   0.123
    1UNL    H58  112  -0.286  -0.083  -0.092
   0.00000   0.00000   0.00000   0.00000   0.00000   0.00000   0.00000   0.00000   0.00000
Generated with MDTraj, t= 78.0
 112
    1UNL     C1    1   0.175   0.480  -0.197
    1UNL     C2    2   0.121   0.343  -0.223
    1UNL     C3    3   0.149   0.269  -0.329
    1UNL     C4    4   0.109   0.126  -0.351
    1UNL     O1    5   0.149   0.043  -0.244
    1UNL     C5    6   0.285   0.068  -0.199
    1UNL     O2    7   0.381   0.108  -0.301
    1UNL     C6    8   0.402  -0.003  -0.385
    1UNL     C7    9   0.451   0.046  -0.517
    1UNL     C8   10   0.491  -0.103  -0.311
    1UNL     O3   11   0.536  -0.201  -0.404
    1UNL     C9   12   0.400  -0.159  -0.204
    1UNL     O4   13   0.292  -0.232  -0.255
    1UNL    C10   14   0.342  -0.048  -0.112
    1UNL     O5   15   0.431  -0.003  -0.014
    1UNL    C11   16   0.379   0.090   0.088
    1UNL     O6   17   0.257   0.037   0.135
    1UNL    C12   18   0.265  -0.100   0.191
    1UNL    C13   19   0.129  -0.162   0.229
    1UNL     O7   20   0.053  -0.072   0.310
    1UNL    C14   21   0.358  -0.096   0.312
    1UNL     O8   22   0.308  -0.016   0.417
    1UNL    C15   23   0.502  -0.046   0.272
    1UNL     O9   24   0.577  -0.121   0.176
    1UNL    C16   25   0.478   0.094   0.207
    1UNL    O10   26   0.598   0.149   0.167
    1UNL    C17   27   0.033   0.290  -0.113
    1UNL    C18   28   0.060   0.338   0.028
    1UNL    C19   29   0.014   0.247   0.132
    1UNL    C20   30  -0.112   0.239   0.179
    1UNL    C21   31  -0.139   0.159   0.299
    1UNL    C22   32  -0.218   0.323   0.118
    1UNL    O11   33  -0.270   0.280  -0.005
    1UNL    C23   34  -0.307   0.144  -0.020
    1UNL    O12   35  -0.372   0.114  -0.141
    1UNL    C24   36  -0.489   0.199  -0.167
    1UNL    C25   37  -0.529   0.198  -0.314
    1UNL    C26   38  -0.600   0.159  -0.069
    1UNL    O13   39  -0.637   0.024  -0.093
    1UNL    C27   40  -0.544   0.172   0.073
    1UNL    O14   41  -0.630   0.123   0.179
    1UNL    C28   42  -0.410   0.096   0.086
    1UNL    O15   43  -0.441  -0.045   0.057
    1UNL    C29   44  -0.363  -0.129   0.137
    1UNL    O16   45  -0.324  -0.087   0.268
    1UNL    C30   46  -0.268  -0.196   0.343
    1UNL    C31   47  -0.356  -0.228   0.468
    1UNL    O17   48  -0.487  -0.286   0.439
    1UNL    C32   49  -0.242  -0.321   0.253
    1UNL    O18   50  -0.356  -0.388   0.212
    1UNL    C33   51  -0.163  -0.292   0.130
    1UNL    O19   52  -0.160  -0.400   0.039
    1UNL    C34   53  -0.227  -0.164   0.058
    1UNL    O20   54  -0.253  -0.181  -0.079
    1UNL     H1   55   0.098   0.551  -0.154
    1UNL     H2   56   0.260   0.468  -0.132
    1UNL     H3   57   0.220   0.526  -0.295
    1UNL     H4   58   0.221   0.308  -0.391
    1UNL     H5   59   0.147   0.087  -0.445
    1UNL     H6   60   0.002   0.115  -0.362
    1UNL     H7   61   0.277   0.154  -0.126
    1UNL     H8   62   0.303  -0.044  -0.406
    1UNL     H9   63   0.373   0.087  -0.577
    1UNL    H10   64   0.493  -0.038  -0.581
    1UNL    H11   65   0.530   0.127  -0.503
    1UNL    H12   66   0.578  -0.060  -0.267
    1UNL    H13   67   0.470  -0.280  -0.400
    1UNL    H14   68   0.456  -0.224  -0.139
    1UNL    H15   69   0.218  -0.172  -0.257
    1UNL    H16   70   0.251  -0.092  -0.059
    1UNL    H17   71   0.371   0.188   0.044
    1UNL    H18   72   0.311  -0.158   0.102
    1UNL    H19   73   0.083  -0.175   0.138
    1UNL    H20   74   0.128  -0.263   0.275
    1UNL    H21   75   0.114  -0.016   0.362
    1UNL    H22   76   0.362  -0.198   0.347
    1UNL    H23   77   0.274  -0.058   0.498
    1UNL    H24   78   0.582  -0.042   0.353
    1UNL    H25   79   0.530  -0.120   0.090
    1UNL    H26   80   0.436   0.167   0.277
    1UNL    H27   81   0.645   0.085   0.111
    1UNL    H28   82  -0.075   0.300  -0.145
    1UNL    H29   83   0.048   0.176  -0.112
    1UNL    H30   84   0.172   0.340   0.038
    1UNL    H31   85   0.030   0.440   0.036
    1UNL    H32   86   0.087   0.176   0.174
    1UNL    H33   87  -0.130   0.046   0.258
    1UNL    H34   88  -0.075   0.179   0.381
    1UNL    H35   89  -0.235   0.169   0.338
    1UNL    H36   90  -0.299   0.340   0.192
    1UNL    H37   91  -0.175   0.423   0.095
    1UNL    H38   92  -0.210   0.092  -0.018
    1UNL    H39   93  -0.440   0.290  -0.141
    1UNL    H40   94  -0.584   0.107  -0.333
    1UNL    H41   95  -0.435   0.201  -0.375
    1UNL    H42   96  -0.587   0.290  -0.349
    1UNL    H43   97  -0.700   0.210  -0.067
    1UNL    H44   98  -0.557  -0.025  -0.067
    1UNL    H45   99  -0.523   0.274   0.088
    1UNL    H46  100  -0.633   0.024   0.162
    1UNL    H47  101  -0.371   0.092   0.190
    1UNL    H48  102  -0.439  -0.218   0.154
    1UNL    H49  103  -0.173  -0.161   0.384
    1UNL    H50  104  -0.376  -0.131   0.522
    1UNL    H51  105  -0.308  -0.281   0.545
    1UNL    H52  106  -0.477  -0.330   0.348
    1UNL    H53  107  -0.186  -0.391   0.312
    1UNL    H54  108  -0.345  -0.440   0.128
    1UNL    H55  109  -0.052  -0.277   0.153
    1UNL    H56  110  -0.163  -0.379  -0.059
    1UNL    H57  111  -0.151  -0.088   0.079
    1UNL    H58  112  -0.321  -0.115  -0.101
   0.00000   0.00000   0.00000   0.00000   0.00000   0.00000   0.00000   0.00000   0.00000
Generated with MDTraj, t= 79.0
 112
    1UNL     C1    1   0.108   0.493  -0.226
    1UNL     C2    2   0.080   0.345  -0.223
    1UNL     C3    3   0.114   0.275  -0.328
    1UNL     C4    4   0.085   0.136  -0.338
    1UNL     O1    5   0.142   0.050  -0.245
    1UNL     C5    6   0.276   0.082  -0.207
    1UNL     O2    7   0.365   0.101  -0.327
    1UNL     C6    8   0.410  -0.011  -0.402
    1UNL     C7    9   0.515   0.027  -0.506
    1UNL     C8   10   0.475  -0.117  -0.308
    1UNL     O3   11   0.504  -0.237  -0.380
    1UNL     C9   12   0.371  -0.158  -0.193
    1UNL     O4   13   0.255  -0.222  -0.252
    1UNL    C10   14   0.326  -0.028  -0.111
    1UNL     O5   15   0.442   0.017  -0.028
    1UNL    C11   16   0.393   0.093   0.084
    1UNL     O6   17   0.274   0.038   0.137
    1UNL    C12   18   0.288  -0.092   0.202
    1UNL    C13   19   0.151  -0.163   0.223
    1UNL     O7   20   0.079  -0.102   0.324
    1UNL    C14   21   0.387  -0.083   0.325
    1UNL     O8   22   0.330  -0.017   0.436
    1UNL    C15   23   0.529  -0.023   0.271
    1UNL     O9   24   0.595  -0.119   0.194
    1UNL    C16   25   0.501   0.108   0.193
    1UNL    O10   26   0.619   0.158   0.146
    1UNL    C17   27  -0.001   0.296  -0.102
    1UNL    C18   28   0.041   0.346   0.035
    1UNL    C19   29   0.019   0.248   0.149
    1UNL    C20   30  -0.105   0.230   0.206
    1UNL    C21   31  -0.131   0.121   0.308
    1UNL    C22   32  -0.225   0.303   0.157
    1UNL    O11   33  -0.260   0.274   0.020
    1UNL    C23   34  -0.301   0.143  -0.016
    1UNL    O12   35  -0.341   0.146  -0.152
    1UNL    C24   36  -0.451   0.240  -0.177
    1UNL    C25   37  -0.477   0.241  -0.327
    1UNL    C26   38  -0.573   0.193  -0.098
    1UNL    O13   39  -0.628   0.069  -0.151
    1UNL    C27   40  -0.542   0.180   0.051
    1UNL    O14   41  -0.659   0.133   0.114
    1UNL    C28   42  -0.420   0.088   0.071
    1UNL    O15   43  -0.454  -0.049   0.048
    1UNL    C29   44  -0.377  -0.137   0.130
    1UNL    O16   45  -0.354  -0.112   0.269
    1UNL    C30   46  -0.276  -0.205   0.348
    1UNL    C31   47  -0.337  -0.247   0.478
    1UNL    O17   48  -0.466  -0.298   0.477
    1UNL    C32   49  -0.240  -0.339   0.269
    1UNL    O18   50  -0.363  -0.406   0.238
    1UNL    C33   51  -0.168  -0.310   0.133
    1UNL    O19   52  -0.171  -0.424   0.048
    1UNL    C34   53  -0.247  -0.185   0.062
    1UNL    O20   54  -0.274  -0.209  -0.073
    1UNL     H1   55   0.052   0.544  -0.145
    1UNL     H2   56   0.218   0.504  -0.203
    1UNL     H3   57   0.087   0.547  -0.322
    1UNL     H4   58   0.169   0.328  -0.409
    1UNL     H5   59   0.114   0.094  -0.434
    1UNL     H6   60  -0.022   0.121  -0.334
    1UNL     H7   61   0.285   0.179  -0.150
    1UNL     H8   62   0.323  -0.046  -0.459
    1UNL     H9   63   0.477   0.116  -0.567
    1UNL    H10   64   0.534  -0.059  -0.574
    1UNL    H11   65   0.602   0.058  -0.452
    1UNL    H12   66   0.566  -0.086  -0.267
    1UNL    H13   67   0.430  -0.301  -0.358
    1UNL    H14   68   0.405  -0.235  -0.125
    1UNL    H15   69   0.195  -0.146  -0.283
    1UNL    H16   70   0.247  -0.063  -0.038
    1UNL    H17   71   0.375   0.192   0.045
    1UNL    H18   72   0.344  -0.156   0.123
    1UNL    H19   73   0.097  -0.168   0.137
    1UNL    H20   74   0.179  -0.268   0.248
    1UNL    H21   75   0.137  -0.070   0.398
    1UNL    H22   76   0.400  -0.182   0.359
    1UNL    H23   77   0.272   0.056   0.404
    1UNL    H24   78   0.597   0.003   0.356
    1UNL    H25   79   0.578  -0.092   0.100
    1UNL    H26   80   0.460   0.172   0.271
    1UNL    H27   81   0.623   0.123   0.056
    1UNL    H28   82  -0.108   0.329  -0.120
    1UNL    H29   83  -0.008   0.181  -0.111
    1UNL    H30   84   0.149   0.371   0.027
    1UNL    H31   85  -0.008   0.440   0.054
    1UNL    H32   86   0.103   0.187   0.183
    1UNL    H33   87  -0.100   0.035   0.259
    1UNL    H34   88  -0.075   0.137   0.404
    1UNL    H35   89  -0.234   0.103   0.331
    1UNL    H36   90  -0.308   0.272   0.221
    1UNL    H37   91  -0.209   0.412   0.175
    1UNL    H38   92  -0.210   0.082  -0.026
    1UNL    H39   93  -0.416   0.333  -0.145
    1UNL    H40   94  -0.495   0.138  -0.365
    1UNL    H41   95  -0.392   0.293  -0.383
    1UNL    H42   96  -0.564   0.304  -0.352
    1UNL    H43   97  -0.660   0.266  -0.111
    1UNL    H44   98  -0.557   0.002  -0.137
    1UNL    H45   99  -0.513   0.277   0.082
    1UNL    H46  100  -0.685   0.061   0.062
    1UNL    H47  101  -0.398   0.090   0.180
    1UNL    H48  102  -0.450  -0.231   0.129
    1UNL    H49  103  -0.181  -0.155   0.372
    1UNL    H50  104  -0.340  -0.166   0.557
    1UNL    H51  105  -0.278  -0.318   0.531
    1UNL    H52  106  -0.467  -0.357   0.399
    1UNL    H53  107  -0.176  -0.404   0.324
    1UNL    H54  108  -0.341  -0.473   0.167
    1UNL    H55  109  -0.063  -0.281   0.138
    1UNL    H56  110  -0.177  -0.401  -0.048
    1UNL    H57  111  -0.172  -0.107   0.072
    1UNL    H58  112  -0.298  -0.126  -0.119
   0.00000   0.00000   0.00000   0.00000   0.00000   0.00000   0.00000   0.00000   0.00000
Generated with MDTraj, t= 80.0
 112
    1UNL     C1    1   0.009   0.488  -0.210
    1UNL     C2    2   0.040   0.345  -0.221
    1UNL     C3    3   0.101   0.295  -0.327
    1UNL     C4    4   0.111   0.152  -0.363
    1UNL     O1    5   0.145   0.070  -0.253
    1UNL     C5    6   0.280   0.097  -0.202
    1UNL     O2    7   0.379   0.112  -0.301
    1UNL     C6    8   0.404  -0.007  -0.374
    1UNL     C7    9   0.514   0.007  -0.478
    1UNL     C8   10   0.441  -0.128  -0.287
    1UNL     O3   11   0.464  -0.253  -0.352
    1UNL     C9   12   0.337  -0.151  -0.168
    1UNL     O4   13   0.220  -0.212  -0.216
    1UNL    C10   14   0.317  -0.014  -0.110
    1UNL     O5   15   0.434   0.019  -0.033
    1UNL    C11   16   0.387   0.092   0.079
    1UNL     O6   17   0.276   0.031   0.141
    1UNL    C12   18   0.316  -0.093   0.202
    1UNL    C13   19   0.190  -0.177   0.230
    1UNL     O7   20   0.122  -0.127   0.336
    1UNL    C14   21   0.411  -0.066   0.319
    1UNL     O8   22   0.349   0.021   0.407
    1UNL    C15   23   0.541  -0.005   0.256
    1UNL     O9   24   0.599  -0.099   0.165
    1UNL    C16   25   0.508   0.125   0.181
    1UNL    O10   26   0.623   0.172   0.105
    1UNL    C17   27  -0.013   0.255  -0.120
    1UNL    C18   28   0.027   0.309   0.020
    1UNL    C19   29   0.020   0.209   0.136
    1UNL    C20   30  -0.097   0.188   0.209
    1UNL    C21   31  -0.103   0.086   0.319
    1UNL    C22   32  -0.219   0.274   0.196
    1UNL    O11   33  -0.267   0.274   0.061
    1UNL    C23   34  -0.294   0.144   0.012
    1UNL    O12   35  -0.301   0.147  -0.132
    1UNL    C24   36  -0.404   0.244  -0.169
    1UNL    C25   37  -0.405   0.249  -0.321
    1UNL    C26   38  -0.543   0.194  -0.119
    1UNL    O13   39  -0.579   0.066  -0.178
    1UNL    C27   40  -0.543   0.179   0.038
    1UNL    O14   41  -0.665   0.123   0.088
    1UNL    C28   42  -0.423   0.084   0.078
    1UNL    O15   43  -0.446  -0.052   0.033
    1UNL    C29   44  -0.387  -0.143   0.119
    1UNL    O16   45  -0.380  -0.106   0.254
    1UNL    C30   46  -0.289  -0.193   0.328
    1UNL    C31   47  -0.341  -0.210   0.468
    1UNL    O17   48  -0.458  -0.291   0.484
    1UNL    C32   49  -0.266  -0.337   0.257
    1UNL    O18   50  -0.388  -0.409   0.253
    1UNL    C33   51  -0.203  -0.329   0.116
    1UNL    O19   52  -0.244  -0.432   0.036
    1UNL    C34   53  -0.245  -0.184   0.057
    1UNL    O20   54  -0.245  -0.181  -0.083
    1UNL     H1   55  -0.026   0.520  -0.110
    1UNL     H2   56   0.112   0.544  -0.223
    1UNL     H3   57  -0.063   0.528  -0.279
    1UNL     H4   58   0.132   0.364  -0.403
    1UNL     H5   59   0.183   0.143  -0.446
    1UNL     H6   60   0.015   0.122  -0.403
    1UNL     H7   61   0.282   0.200  -0.156
    1UNL     H8   62   0.306  -0.027  -0.419
    1UNL     H9   63   0.478   0.098  -0.542
    1UNL    H10   64   0.532  -0.081  -0.541
    1UNL    H11   65   0.602   0.038  -0.428
    1UNL    H12   66   0.533  -0.112  -0.242
    1UNL    H13   67   0.381  -0.303  -0.344
    1UNL    H14   68   0.375  -0.221  -0.093
    1UNL    H15   69   0.157  -0.143  -0.234
    1UNL    H16   70   0.230  -0.024  -0.038
    1UNL    H17   71   0.355   0.187   0.037
    1UNL    H18   72   0.384  -0.138   0.120
    1UNL    H19   73   0.136  -0.177   0.143
    1UNL    H20   74   0.214  -0.284   0.251
    1UNL    H21   75   0.179  -0.062   0.384
    1UNL    H22   76   0.439  -0.155   0.366
    1UNL    H23   77   0.343   0.114   0.365
    1UNL    H24   78   0.620   0.017   0.328
    1UNL    H25   79   0.564  -0.070   0.077
    1UNL    H26   80   0.478   0.207   0.247
    1UNL    H27   81   0.710   0.134   0.137
    1UNL    H28   82  -0.125   0.237  -0.137
    1UNL    H29   83   0.031   0.150  -0.126
    1UNL    H30   84   0.126   0.356   0.003
    1UNL    H31   85  -0.042   0.390   0.037
    1UNL    H32   86   0.106   0.148   0.148
    1UNL    H33   87  -0.073  -0.003   0.275
    1UNL    H34   88  -0.035   0.111   0.403
    1UNL    H35   89  -0.202   0.064   0.357
    1UNL    H36   90  -0.292   0.242   0.269
    1UNL    H37   91  -0.197   0.381   0.216
    1UNL    H38   92  -0.197   0.091   0.015
    1UNL    H39   93  -0.388   0.338  -0.129
    1UNL    H40   94  -0.435   0.150  -0.366
    1UNL    H41   95  -0.305   0.282  -0.364
    1UNL    H42   96  -0.470   0.328  -0.358
    1UNL    H43   97  -0.628   0.263  -0.150
    1UNL    H44   98  -0.533   0.004  -0.120
    1UNL    H45   99  -0.539   0.277   0.081
    1UNL    H46  100  -0.669   0.024   0.068
    1UNL    H47  101  -0.425   0.088   0.188
    1UNL    H48  102  -0.456  -0.238   0.113
    1UNL    H49  103  -0.189  -0.146   0.325
    1UNL    H50  104  -0.367  -0.108   0.513
    1UNL    H51  105  -0.268  -0.247   0.537
    1UNL    H52  106  -0.481  -0.336   0.402
    1UNL    H53  107  -0.202  -0.396   0.319
    1UNL    H54  108  -0.382  -0.475   0.182
    1UNL    H55  109  -0.093  -0.324   0.126
    1UNL    H56  110  -0.234  -0.395  -0.058
    1UNL    H57  111  -0.173  -0.116   0.099
    1UNL    H58  112  -0.260  -0.093  -0.126
   0.00000   0.00000   0.00000   0.00000   0.00000   0.00000   0.00000   0.00000   0.00000
Generated with MDTraj, t= 81.0
 112
    1UNL     C1    1  -0.071   0.463  -0.209
    1UNL     C2    2  -0.001   0.329  -0.234
    1UNL     C3    3   0.075   0.315  -0.344
    1UNL     C4    4   0.147   0.191  -0.386
    1UNL     O1    5   0.157   0.096  -0.280
    1UNL     C5    6   0.287   0.110  -0.211
    1UNL     O2    7   0.394   0.098  -0.303
    1UNL     C6    8   0.398  -0.027  -0.374
    1UNL     C7    9   0.497  -0.024  -0.488
    1UNL     C8   10   0.420  -0.145  -0.278
    1UNL     O3   11   0.419  -0.274  -0.339
    1UNL     C9   12   0.309  -0.143  -0.171
    1UNL     O4   13   0.195  -0.182  -0.232
    1UNL    C10   14   0.295  -0.004  -0.105
    1UNL     O5   15   0.411   0.028  -0.016
    1UNL    C11   16   0.376   0.110   0.094
    1UNL     O6   17   0.280   0.048   0.177
    1UNL    C12   18   0.327  -0.086   0.216
    1UNL    C13   19   0.207  -0.170   0.257
    1UNL     O7   20   0.158  -0.136   0.381
    1UNL    C14   21   0.442  -0.075   0.316
    1UNL     O8   22   0.399   0.016   0.419
    1UNL    C15   23   0.552   0.013   0.246
    1UNL     O9   24   0.625  -0.057   0.144
    1UNL    C16   25   0.504   0.148   0.188
    1UNL    O10   26   0.609   0.200   0.099
    1UNL    C17   27  -0.010   0.226  -0.120
    1UNL    C18   28   0.038   0.270   0.022
    1UNL    C19   29   0.023   0.170   0.132
    1UNL    C20   30  -0.081   0.164   0.220
    1UNL    C21   31  -0.062   0.092   0.347
    1UNL    C22   32  -0.198   0.252   0.216
    1UNL    O11   33  -0.258   0.266   0.092
    1UNL    C23   34  -0.291   0.143   0.034
    1UNL    O12   35  -0.279   0.132  -0.103
    1UNL    C24   36  -0.368   0.228  -0.164
    1UNL    C25   37  -0.339   0.239  -0.318
    1UNL    C26   38  -0.516   0.181  -0.134
    1UNL    O13   39  -0.545   0.054  -0.195
    1UNL    C27   40  -0.547   0.174   0.017
    1UNL    O14   41  -0.671   0.111   0.042
    1UNL    C28   42  -0.437   0.090   0.082
    1UNL    O15   43  -0.451  -0.045   0.038
    1UNL    C29   44  -0.381  -0.137   0.116
    1UNL    O16   45  -0.380  -0.116   0.258
    1UNL    C30   46  -0.295  -0.208   0.327
    1UNL    C31   47  -0.333  -0.223   0.472
    1UNL    O17   48  -0.471  -0.249   0.469
    1UNL    C32   49  -0.301  -0.342   0.245
    1UNL    O18   50  -0.431  -0.396   0.232
    1UNL    C33   51  -0.235  -0.334   0.095
    1UNL    O19   52  -0.306  -0.409  -0.001
    1UNL    C34   53  -0.238  -0.182   0.064
    1UNL    O20   54  -0.224  -0.163  -0.071
    1UNL     H1   55  -0.139   0.461  -0.120
    1UNL     H2   56   0.012   0.535  -0.182
    1UNL     H3   57  -0.133   0.503  -0.289
    1UNL     H4   58   0.081   0.404  -0.399
    1UNL     H5   59   0.242   0.208  -0.441
    1UNL     H6   60   0.080   0.141  -0.457
    1UNL     H7   61   0.293   0.217  -0.180
    1UNL     H8   62   0.294  -0.029  -0.410
    1UNL     H9   63   0.467   0.047  -0.568
    1UNL    H10   64   0.528  -0.120  -0.532
    1UNL    H11   65   0.586   0.025  -0.450
    1UNL    H12   66   0.515  -0.127  -0.236
    1UNL    H13   67   0.322  -0.310  -0.334
    1UNL    H14   68   0.330  -0.221  -0.095
    1UNL    H15   69   0.157  -0.100  -0.280
    1UNL    H16   70   0.203   0.003  -0.045
    1UNL    H17   71   0.335   0.200   0.049
    1UNL    H18   72   0.373  -0.120   0.118
    1UNL    H19   73   0.125  -0.163   0.194
    1UNL    H20   74   0.237  -0.280   0.254
    1UNL    H21   75   0.229  -0.087   0.430
    1UNL    H22   76   0.467  -0.167   0.360
    1UNL    H23   77   0.356   0.093   0.382
    1UNL    H24   78   0.616   0.033   0.330
    1UNL    H25   79   0.577  -0.068   0.057
    1UNL    H26   80   0.475   0.224   0.263
    1UNL    H27   81   0.596   0.153   0.012
    1UNL    H28   82  -0.117   0.199  -0.117
    1UNL    H29   83   0.036   0.131  -0.152
    1UNL    H30   84   0.145   0.296   0.016
    1UNL    H31   85  -0.012   0.362   0.043
    1UNL    H32   86   0.117   0.112   0.158
    1UNL    H33   87  -0.002  -0.012   0.323
    1UNL    H34   88  -0.004   0.148   0.417
    1UNL    H35   89  -0.150   0.054   0.399
    1UNL    H36   90  -0.275   0.210   0.277
    1UNL    H37   91  -0.168   0.349   0.256
    1UNL    H38   92  -0.218   0.075   0.082
    1UNL    H39   93  -0.354   0.324  -0.125
    1UNL    H40   94  -0.376   0.148  -0.377
    1UNL    H41   95  -0.232   0.249  -0.340
    1UNL    H42   96  -0.376   0.333  -0.363
    1UNL    H43   97  -0.590   0.253  -0.179
    1UNL    H44   98  -0.520  -0.013  -0.127
    1UNL    H45   99  -0.542   0.275   0.058
    1UNL    H46  100  -0.666   0.011   0.022
    1UNL    H47  101  -0.441   0.091   0.188
    1UNL    H48  102  -0.450  -0.234   0.110
    1UNL    H49  103  -0.193  -0.170   0.312
    1UNL    H50  104  -0.311  -0.126   0.530
    1UNL    H51  105  -0.274  -0.304   0.513
    1UNL    H52  106  -0.501  -0.300   0.387
    1UNL    H53  107  -0.255  -0.423   0.299
    1UNL    H54  108  -0.431  -0.471   0.163
    1UNL    H55  109  -0.133  -0.386   0.098
    1UNL    H56  110  -0.304  -0.359  -0.083
    1UNL    H57  111  -0.159  -0.128   0.116
    1UNL    H58  112  -0.243  -0.067  -0.098
   0.00000   0.00000   0.00000   0.00000   0.00000   0.00000   0.00000   0.00000   0.00000
Generated with MDTraj, t= 82.0
 112
    1UNL     C1    1  -0.113   0.447  -0.195
    1UNL     C2    2  -0.017   0.330  -0.211
    1UNL     C3    3   0.045   0.325  -0.332
    1UNL     C4    4   0.141   0.226  -0.380
    1UNL     O1    5   0.174   0.111  -0.298
    1UNL     C5    6   0.306   0.118  -0.234
    1UNL     O2    7   0.406   0.087  -0.328
    1UNL     C6    8   0.397  -0.039  -0.386
    1UNL     C7    9   0.512  -0.055  -0.488
    1UNL     C8   10   0.409  -0.153  -0.273
    1UNL     O3   11   0.391  -0.282  -0.333
    1UNL     C9   12   0.296  -0.133  -0.169
    1UNL     O4   13   0.165  -0.158  -0.208
    1UNL    C10   14   0.302   0.018  -0.117
    1UNL     O5   15   0.418   0.038  -0.024
    1UNL    C11   16   0.372   0.097   0.097
    1UNL     O6   17   0.279   0.013   0.177
    1UNL    C12   18   0.344  -0.101   0.231
    1UNL    C13   19   0.247  -0.179   0.312
    1UNL     O7   20   0.197  -0.106   0.419
    1UNL    C14   21   0.476  -0.064   0.309
    1UNL     O8   22   0.444  -0.006   0.436
    1UNL    C15   23   0.564   0.032   0.234
    1UNL     O9   24   0.629  -0.036   0.123
    1UNL    C16   25   0.492   0.158   0.187
    1UNL    O10   26   0.583   0.224   0.099
    1UNL    C17   27   0.003   0.228  -0.097
    1UNL    C18   28   0.030   0.303   0.036
    1UNL    C19   29   0.036   0.212   0.150
    1UNL    C20   30  -0.067   0.178   0.230
    1UNL    C21   31  -0.051   0.080   0.342
    1UNL    C22   32  -0.195   0.249   0.218
    1UNL    O11   33  -0.249   0.265   0.090
    1UNL    C23   34  -0.284   0.141   0.033
    1UNL    O12   35  -0.267   0.123  -0.103
    1UNL    C24   36  -0.351   0.206  -0.180
    1UNL    C25   37  -0.320   0.208  -0.329
    1UNL    C26   38  -0.501   0.172  -0.154
    1UNL    O13   39  -0.540   0.042  -0.196
    1UNL    C27   40  -0.536   0.188  -0.004
    1UNL    O14   41  -0.676   0.146   0.007
    1UNL    C28   42  -0.435   0.100   0.077
    1UNL    O15   43  -0.458  -0.035   0.057
    1UNL    C29   44  -0.385  -0.130   0.132
    1UNL    O16   45  -0.352  -0.111   0.274
    1UNL    C30   46  -0.291  -0.232   0.330
    1UNL    C31   47  -0.358  -0.255   0.464
    1UNL    O17   48  -0.498  -0.259   0.450
    1UNL    C32   49  -0.311  -0.357   0.235
    1UNL    O18   50  -0.450  -0.393   0.220
    1UNL    C33   51  -0.252  -0.336   0.086
    1UNL    O19   52  -0.318  -0.419  -0.001
    1UNL    C34   53  -0.268  -0.188   0.048
    1UNL    O20   54  -0.293  -0.189  -0.091
    1UNL     H1   55  -0.176   0.428  -0.105
    1UNL     H2   56  -0.049   0.529  -0.176
    1UNL     H3   57  -0.181   0.465  -0.282
    1UNL     H4   58   0.010   0.407  -0.399
    1UNL     H5   59   0.240   0.273  -0.407
    1UNL     H6   60   0.104   0.184  -0.475
    1UNL     H7   61   0.334   0.218  -0.200
    1UNL     H8   62   0.295  -0.047  -0.429
    1UNL     H9   63   0.545   0.024  -0.546
    1UNL    H10   64   0.501  -0.143  -0.553
    1UNL    H11   65   0.606  -0.079  -0.428
    1UNL    H12   66   0.508  -0.145  -0.237
    1UNL    H13   67   0.298  -0.313  -0.329
    1UNL    H14   68   0.312  -0.209  -0.088
    1UNL    H15   69   0.132  -0.075  -0.243
    1UNL    H16   70   0.217   0.035  -0.052
    1UNL    H17   71   0.314   0.183   0.059
    1UNL    H18   72   0.379  -0.155   0.140
    1UNL    H19   73   0.168  -0.216   0.253
    1UNL    H20   74   0.286  -0.273   0.368
    1UNL    H21   75   0.265  -0.039   0.441
    1UNL    H22   76   0.534  -0.154   0.315
    1UNL    H23   77   0.494  -0.046   0.510
    1UNL    H24   78   0.641   0.068   0.296
    1UNL    H25   79   0.563  -0.046   0.051
    1UNL    H26   80   0.468   0.226   0.272
    1UNL    H27   81   0.622   0.161   0.039
    1UNL    H28   82  -0.079   0.164  -0.092
    1UNL    H29   83   0.084   0.164  -0.120
    1UNL    H30   84   0.128   0.348   0.019
    1UNL    H31   85  -0.038   0.387   0.050
    1UNL    H32   86   0.129   0.159   0.169
    1UNL    H33   87  -0.085  -0.018   0.311
    1UNL    H34   88   0.052   0.079   0.380
    1UNL    H35   89  -0.122   0.103   0.431
    1UNL    H36   90  -0.262   0.191   0.275
    1UNL    H37   91  -0.188   0.351   0.255
    1UNL    H38   92  -0.219   0.070   0.084
    1UNL    H39   93  -0.330   0.299  -0.140
    1UNL    H40   94  -0.311   0.108  -0.376
    1UNL    H41   95  -0.226   0.261  -0.343
    1UNL    H42   96  -0.389   0.278  -0.386
    1UNL    H43   97  -0.578   0.232  -0.208
    1UNL    H44   98  -0.486  -0.021  -0.148
    1UNL    H45   99  -0.537   0.293   0.034
    1UNL    H46  100  -0.691   0.058  -0.022
    1UNL    H47  101  -0.445   0.119   0.180
    1UNL    H48  102  -0.463  -0.217   0.149
    1UNL    H49  103  -0.185  -0.216   0.350
    1UNL    H50  104  -0.330  -0.164   0.530
    1UNL    H51  105  -0.319  -0.347   0.507
    1UNL    H52  106  -0.526  -0.307   0.373
    1UNL    H53  107  -0.268  -0.449   0.280
    1UNL    H54  108  -0.472  -0.456   0.150
    1UNL    H55  109  -0.143  -0.374   0.078
    1UNL    H56  110  -0.342  -0.360  -0.084
    1UNL    H57  111  -0.175  -0.131   0.050
    1UNL    H58  112  -0.286  -0.091  -0.102
   0.00000   0.00000   0.00000   0.00000   0.00000   0.00000   0.00000   0.00000   0.00000
Generated with MDTraj, t= 83.0
 112
    1UNL     C1    1  -0.089   0.472  -0.194
    1UNL     C2    2   0.008   0.368  -0.198
    1UNL     C3    3   0.072   0.347  -0.316
    1UNL     C4    4   0.166   0.240  -0.350
    1UNL     O1    5   0.170   0.124  -0.266
    1UNL     C5    6   0.300   0.106  -0.207
    1UNL     O2    7   0.394   0.082  -0.311
    1UNL     C6    8   0.380  -0.052  -0.369
    1UNL     C7    9   0.486  -0.066  -0.481
    1UNL     C8   10   0.389  -0.164  -0.270
    1UNL     O3   11   0.386  -0.288  -0.330
    1UNL     C9   12   0.284  -0.145  -0.157
    1UNL     O4   13   0.155  -0.147  -0.213
    1UNL    C10   14   0.295   0.003  -0.096
    1UNL     O5   15   0.418   0.018  -0.023
    1UNL    C11   16   0.389   0.098   0.091
    1UNL     O6   17   0.303   0.019   0.182
    1UNL    C12   18   0.371  -0.091   0.234
    1UNL    C13   19   0.282  -0.170   0.324
    1UNL     O7   20   0.217  -0.076   0.409
    1UNL    C14   21   0.507  -0.060   0.301
    1UNL     O8   22   0.495  -0.018   0.435
    1UNL    C15   23   0.590   0.036   0.208
    1UNL     O9   24   0.642  -0.045   0.097
    1UNL    C16   25   0.502   0.163   0.175
    1UNL    O10   26   0.568   0.270   0.114
    1UNL    C17   27   0.028   0.276  -0.087
    1UNL    C18   28   0.028   0.334   0.054
    1UNL    C19   29   0.042   0.230   0.159
    1UNL    C20   30  -0.071   0.190   0.223
    1UNL    C21   31  -0.071   0.078   0.322
    1UNL    C22   32  -0.202   0.260   0.196
    1UNL    O11   33  -0.250   0.250   0.063
    1UNL    C23   34  -0.285   0.117   0.038
    1UNL    O12   35  -0.265   0.081  -0.100
    1UNL    C24   36  -0.344   0.171  -0.183
    1UNL    C25   37  -0.331   0.134  -0.329
    1UNL    C26   38  -0.499   0.161  -0.145
    1UNL    O13   39  -0.550   0.039  -0.188
    1UNL    C27   40  -0.519   0.197   0.004
    1UNL    O14   41  -0.655   0.180   0.038
    1UNL    C28   42  -0.435   0.093   0.084
    1UNL    O15   43  -0.485  -0.033   0.053
    1UNL    C29   44  -0.418  -0.138   0.114
    1UNL    O16   45  -0.369  -0.109   0.242
    1UNL    C30   46  -0.313  -0.228   0.312
    1UNL    C31   47  -0.379  -0.238   0.452
    1UNL    O17   48  -0.520  -0.266   0.446
    1UNL    C32   49  -0.325  -0.365   0.230
    1UNL    O18   50  -0.454  -0.412   0.213
    1UNL    C33   51  -0.258  -0.347   0.084
    1UNL    O19   52  -0.315  -0.433  -0.010
    1UNL    C34   53  -0.297  -0.199   0.027
    1UNL    O20   54  -0.329  -0.207  -0.117
    1UNL     H1   55  -0.126   0.483  -0.091
    1UNL     H2   56  -0.042   0.561  -0.218
    1UNL     H3   57  -0.182   0.453  -0.257
    1UNL     H4   58   0.057   0.422  -0.387
    1UNL     H5   59   0.271   0.278  -0.361
    1UNL     H6   60   0.135   0.201  -0.448
    1UNL     H7   61   0.333   0.197  -0.158
    1UNL     H8   62   0.278  -0.066  -0.410
    1UNL     H9   63   0.463  -0.001  -0.558
    1UNL    H10   64   0.497  -0.168  -0.519
    1UNL    H11   65   0.585  -0.026  -0.442
    1UNL    H12   66   0.483  -0.147  -0.221
    1UNL    H13   67   0.297  -0.312  -0.352
    1UNL    H14   68   0.294  -0.228  -0.082
    1UNL    H15   69   0.134  -0.057  -0.252
    1UNL    H16   70   0.210   0.030  -0.037
    1UNL    H17   71   0.323   0.182   0.057
    1UNL    H18   72   0.403  -0.154   0.151
    1UNL    H19   73   0.199  -0.214   0.277
    1UNL    H20   74   0.337  -0.261   0.374
    1UNL    H21   75   0.287  -0.036   0.466
    1UNL    H22   76   0.564  -0.155   0.301
    1UNL    H23   77   0.543   0.072   0.448
    1UNL    H24   78   0.674   0.068   0.262
    1UNL    H25   79   0.568  -0.045   0.033
    1UNL    H26   80   0.460   0.192   0.273
    1UNL    H27   81   0.575   0.249   0.019
    1UNL    H28   82  -0.038   0.193  -0.097
    1UNL    H29   83   0.126   0.232  -0.092
    1UNL    H30   84   0.098   0.416   0.060
    1UNL    H31   85  -0.069   0.385   0.064
    1UNL    H32   86   0.126   0.168   0.166
    1UNL    H33   87  -0.151   0.020   0.302
    1UNL    H34   88   0.029   0.029   0.323
    1UNL    H35   89  -0.093   0.118   0.429
    1UNL    H36   90  -0.280   0.218   0.254
    1UNL    H37   91  -0.190   0.365   0.217
    1UNL    H38   92  -0.208   0.060   0.093
    1UNL    H39   93  -0.302   0.265  -0.166
    1UNL    H40   94  -0.380   0.038  -0.346
    1UNL    H41   95  -0.223   0.121  -0.351
    1UNL    H42   96  -0.361   0.218  -0.401
    1UNL    H43   97  -0.546   0.234  -0.208
    1UNL    H44   98  -0.566  -0.015  -0.107
    1UNL    H45   99  -0.485   0.304   0.021
    1UNL    H46  100  -0.675   0.080   0.052
    1UNL    H47  101  -0.441   0.114   0.186
    1UNL    H48  102  -0.501  -0.219   0.137
    1UNL    H49  103  -0.207  -0.208   0.333
    1UNL    H50  104  -0.364  -0.140   0.511
    1UNL    H51  105  -0.334  -0.318   0.509
    1UNL    H52  106  -0.531  -0.323   0.365
    1UNL    H53  107  -0.262  -0.443   0.285
    1UNL    H54  108  -0.462  -0.471   0.132
    1UNL    H55  109  -0.145  -0.370   0.083
    1UNL    H56  110  -0.324  -0.380  -0.088
    1UNL    H57  111  -0.211  -0.131   0.023
    1UNL    H58  112  -0.390  -0.131  -0.129
   0.00000   0.00000   0.00000   0.00000   0.00000   0.00000   0.00000   0.00000   0.00000
Generated with MDTraj, t= 84.0
 112
    1UNL     C1    1  -0.049   0.524  -0.189
    1UNL     C2    2   0.013   0.392  -0.191
    1UNL     C3    3   0.096   0.367  -0.297
    1UNL     C4    4   0.166   0.244  -0.339
    1UNL     O1    5   0.165   0.125  -0.258
    1UNL     C5    6   0.297   0.110  -0.195
    1UNL     O2    7   0.395   0.087  -0.294
    1UNL     C6    8   0.370  -0.041  -0.360
    1UNL     C7    9   0.454  -0.067  -0.487
    1UNL     C8   10   0.393  -0.159  -0.261
    1UNL     O3   11   0.364  -0.282  -0.319
    1UNL     C9   12   0.293  -0.136  -0.142
    1UNL     O4   13   0.161  -0.153  -0.200
    1UNL    C10   14   0.296   0.007  -0.083
    1UNL     O5   15   0.413   0.020  -0.010
    1UNL    C11   16   0.395   0.113   0.099
    1UNL     O6   17   0.313   0.045   0.200
    1UNL    C12   18   0.373  -0.073   0.236
    1UNL    C13   19   0.284  -0.162   0.323
    1UNL     O7   20   0.258  -0.106   0.454
    1UNL    C14   21   0.516  -0.049   0.299
    1UNL     O8   22   0.497   0.004   0.425
    1UNL    C15   23   0.604   0.040   0.206
    1UNL     O9   24   0.681  -0.026   0.109
    1UNL    C16   25   0.529   0.167   0.152
    1UNL    O10   26   0.603   0.219   0.041
    1UNL    C17   27  -0.006   0.301  -0.076
    1UNL    C18   28   0.055   0.349   0.055
    1UNL    C19   29   0.043   0.246   0.167
    1UNL    C20   30  -0.073   0.198   0.220
    1UNL    C21   31  -0.065   0.100   0.332
    1UNL    C22   32  -0.203   0.266   0.187
    1UNL    O11   33  -0.246   0.228   0.052
    1UNL    C23   34  -0.295   0.095   0.040
    1UNL    O12   35  -0.287   0.051  -0.096
    1UNL    C24   36  -0.345   0.147  -0.193
    1UNL    C25   37  -0.342   0.092  -0.332
    1UNL    C26   38  -0.499   0.171  -0.162
    1UNL    O13   39  -0.581   0.065  -0.198
    1UNL    C27   40  -0.514   0.193  -0.010
    1UNL    O14   41  -0.645   0.212   0.034
    1UNL    C28   42  -0.448   0.077   0.074
    1UNL    O15   43  -0.509  -0.047   0.048
    1UNL    C29   44  -0.438  -0.150   0.106
    1UNL    O16   45  -0.371  -0.130   0.230
    1UNL    C30   46  -0.315  -0.246   0.303
    1UNL    C31   47  -0.381  -0.255   0.436
    1UNL    O17   48  -0.519  -0.259   0.432
    1UNL    C32   49  -0.335  -0.376   0.216
    1UNL    O18   50  -0.474  -0.410   0.215
    1UNL    C33   51  -0.271  -0.355   0.075
    1UNL    O19   52  -0.310  -0.465  -0.002
    1UNL    C34   53  -0.325  -0.215   0.023
    1UNL    O20   54  -0.344  -0.232  -0.113
    1UNL     H1   55  -0.148   0.519  -0.150
    1UNL     H2   56   0.009   0.587  -0.123
    1UNL     H3   57  -0.064   0.575  -0.287
    1UNL     H4   58   0.116   0.461  -0.359
    1UNL     H5   59   0.272   0.266  -0.364
    1UNL     H6   60   0.115   0.214  -0.430
    1UNL     H7   61   0.322   0.199  -0.142
    1UNL     H8   62   0.265  -0.053  -0.392
    1UNL     H9   63   0.448   0.015  -0.561
    1UNL    H10   64   0.419  -0.160  -0.527
    1UNL    H11   65   0.554  -0.077  -0.454
    1UNL    H12   66   0.496  -0.161  -0.226
    1UNL    H13   67   0.262  -0.280  -0.336
    1UNL    H14   68   0.321  -0.210  -0.064
    1UNL    H15   69   0.134  -0.067  -0.234
    1UNL    H16   70   0.209   0.031  -0.028
    1UNL    H17   71   0.339   0.208   0.075
    1UNL    H18   72   0.382  -0.127   0.144
    1UNL    H19   73   0.195  -0.173   0.265
    1UNL    H20   74   0.320  -0.273   0.339
    1UNL    H21   75   0.298  -0.016   0.451
    1UNL    H22   76   0.559  -0.154   0.316
    1UNL    H23   77   0.587   0.019   0.467
    1UNL    H24   78   0.686   0.068   0.269
    1UNL    H25   79   0.620  -0.052   0.036
    1UNL    H26   80   0.520   0.253   0.220
    1UNL    H27   81   0.641   0.142  -0.013
    1UNL    H28   82  -0.112   0.287  -0.062
    1UNL    H29   83   0.028   0.199  -0.108
    1UNL    H30   84   0.158   0.382   0.048
    1UNL    H31   85  -0.001   0.438   0.090
    1UNL    H32   86   0.139   0.213   0.215
    1UNL    H33   87  -0.154   0.118   0.403
    1UNL    H34   88  -0.061  -0.008   0.304
    1UNL    H35   89   0.021   0.111   0.396
    1UNL    H36   90  -0.278   0.229   0.251
    1UNL    H37   91  -0.200   0.374   0.190
    1UNL    H38   92  -0.232   0.024   0.090
    1UNL    H39   93  -0.293   0.235  -0.175
    1UNL    H40   94  -0.402   0.002  -0.334
    1UNL    H41   95  -0.237   0.066  -0.366
    1UNL    H42   96  -0.374   0.173  -0.403
    1UNL    H43   97  -0.527   0.264  -0.205
    1UNL    H44   98  -0.590   0.006  -0.120
    1UNL    H45   99  -0.455   0.288   0.015
    1UNL    H46  100  -0.708   0.135   0.006
    1UNL    H47  101  -0.466   0.083   0.179
    1UNL    H48  102  -0.514  -0.234   0.137
    1UNL    H49  103  -0.209  -0.223   0.320
    1UNL    H50  104  -0.358  -0.162   0.499
    1UNL    H51  105  -0.351  -0.338   0.497
    1UNL    H52  106  -0.535  -0.329   0.361
    1UNL    H53  107  -0.270  -0.455   0.270
    1UNL    H54  108  -0.482  -0.495   0.172
    1UNL    H55  109  -0.157  -0.366   0.082
    1UNL    H56  110  -0.346  -0.427  -0.089
    1UNL    H57  111  -0.231  -0.154   0.026
    1UNL    H58  112  -0.396  -0.154  -0.142
   0.00000   0.00000   0.00000   0.00000   0.00000   0.00000   0.00000   0.00000   0.00000
Generated with MDTraj, t= 85.0
 112
    1UNL     C1    1   0.024   0.549  -0.167
    1UNL     C2    2   0.040   0.400  -0.189
    1UNL     C3    3   0.108   0.360  -0.304
    1UNL     C4    4   0.135   0.221  -0.346
    1UNL     O1    5   0.137   0.129  -0.242
    1UNL     C5    6   0.280   0.130  -0.194
    1UNL     O2    7   0.373   0.102  -0.305
    1UNL     C6    8   0.356  -0.024  -0.364
    1UNL     C7    9   0.454  -0.043  -0.476
    1UNL     C8   10   0.370  -0.138  -0.260
    1UNL     O3   11   0.339  -0.260  -0.315
    1UNL     C9   12   0.280  -0.118  -0.141
    1UNL     O4   13   0.143  -0.142  -0.170
    1UNL    C10   14   0.300   0.026  -0.076
    1UNL     O5   15   0.425   0.036  -0.016
    1UNL    C11   16   0.422   0.116   0.104
    1UNL     O6   17   0.338   0.064   0.212
    1UNL    C12   18   0.397  -0.056   0.255
    1UNL    C13   19   0.299  -0.145   0.332
    1UNL     O7   20   0.275  -0.093   0.458
    1UNL    C14   21   0.536  -0.030   0.323
    1UNL     O8   22   0.520   0.065   0.424
    1UNL    C15   23   0.629   0.019   0.210
    1UNL     O9   24   0.648  -0.078   0.110
    1UNL    C16   25   0.560   0.148   0.157
    1UNL    O10   26   0.641   0.197   0.049
    1UNL    C17   27  -0.016   0.306  -0.086
    1UNL    C18   28   0.053   0.325   0.052
    1UNL    C19   29   0.046   0.211   0.149
    1UNL    C20   30  -0.066   0.184   0.217
    1UNL    C21   31  -0.066   0.092   0.333
    1UNL    C22   32  -0.197   0.247   0.176
    1UNL    O11   33  -0.246   0.225   0.043
    1UNL    C23   34  -0.281   0.091   0.023
    1UNL    O12   35  -0.278   0.055  -0.117
    1UNL    C24   36  -0.353   0.145  -0.206
    1UNL    C25   37  -0.338   0.096  -0.345
    1UNL    C26   38  -0.507   0.154  -0.162
    1UNL    O13   39  -0.593   0.045  -0.199
    1UNL    C27   40  -0.514   0.183  -0.013
    1UNL    O14   41  -0.645   0.185   0.035
    1UNL    C28   42  -0.430   0.076   0.069
    1UNL    O15   43  -0.496  -0.043   0.038
    1UNL    C29   44  -0.441  -0.153   0.099
    1UNL    O16   45  -0.366  -0.127   0.221
    1UNL    C30   46  -0.321  -0.243   0.303
    1UNL    C31   47  -0.387  -0.258   0.434
    1UNL    O17   48  -0.527  -0.282   0.433
    1UNL    C32   49  -0.348  -0.374   0.219
    1UNL    O18   50  -0.484  -0.399   0.217
    1UNL    C33   51  -0.293  -0.370   0.079
    1UNL    O19   52  -0.338  -0.474   0.002
    1UNL    C34   53  -0.338  -0.233   0.010
    1UNL    O20   54  -0.394  -0.250  -0.119
    1UNL     H1   55  -0.079   0.573  -0.162
    1UNL     H2   56   0.079   0.573  -0.071
    1UNL     H3   57   0.061   0.611  -0.246
    1UNL     H4   58   0.152   0.437  -0.359
    1UNL     H5   59   0.230   0.215  -0.401
    1UNL     H6   60   0.056   0.192  -0.414
    1UNL     H7   61   0.313   0.222  -0.148
    1UNL     H8   62   0.256  -0.034  -0.411
    1UNL     H9   63   0.464   0.043  -0.549
    1UNL    H10   64   0.419  -0.129  -0.528
    1UNL    H11   65   0.548  -0.056  -0.441
    1UNL    H12   66   0.480  -0.140  -0.236
    1UNL    H13   67   0.243  -0.271  -0.311
    1UNL    H14   68   0.312  -0.196  -0.072
    1UNL    H15   69   0.112  -0.051  -0.201
    1UNL    H16   70   0.225   0.029  -0.001
    1UNL    H17   71   0.373   0.215   0.082
    1UNL    H18   72   0.412  -0.111   0.167
    1UNL    H19   73   0.202  -0.153   0.287
    1UNL    H20   74   0.347  -0.254   0.330
    1UNL    H21   75   0.276   0.005   0.458
    1UNL    H22   76   0.579  -0.124   0.375
    1UNL    H23   77   0.599   0.071   0.478
    1UNL    H24   78   0.728   0.035   0.251
    1UNL    H25   79   0.605  -0.036   0.032
    1UNL    H26   80   0.553   0.226   0.233
    1UNL    H27   81   0.612   0.166  -0.037
    1UNL    H28   82  -0.128   0.331  -0.080
    1UNL    H29   83  -0.019   0.195  -0.109
    1UNL    H30   84   0.156   0.349   0.030
    1UNL    H31   85   0.022   0.421   0.103
    1UNL    H32   86   0.134   0.180   0.197
    1UNL    H33   87  -0.041   0.152   0.433
    1UNL    H34   88  -0.167   0.040   0.356
    1UNL    H35   89   0.002   0.017   0.329
    1UNL    H36   90  -0.274   0.222   0.243
    1UNL    H37   91  -0.183   0.355   0.179
    1UNL    H38   92  -0.212   0.020   0.064
    1UNL    H39   93  -0.309   0.239  -0.197
    1UNL    H40   94  -0.369  -0.010  -0.346
    1UNL    H41   95  -0.232   0.100  -0.389
    1UNL    H42   96  -0.395   0.158  -0.414
    1UNL    H43   97  -0.544   0.239  -0.215
    1UNL    H44   98  -0.604  -0.018  -0.126
    1UNL    H45   99  -0.462   0.284   0.002
    1UNL    H46  100  -0.689   0.096   0.029
    1UNL    H47  101  -0.446   0.097   0.172
    1UNL    H48  102  -0.529  -0.216   0.145
    1UNL    H49  103  -0.212  -0.225   0.309
    1UNL    H50  104  -0.377  -0.164   0.498
    1UNL    H51  105  -0.340  -0.336   0.489
    1UNL    H52  106  -0.536  -0.337   0.358
    1UNL    H53  107  -0.295  -0.454   0.281
    1UNL    H54  108  -0.492  -0.490   0.171
    1UNL    H55  109  -0.182  -0.388   0.077
    1UNL    H56  110  -0.405  -0.435  -0.061
    1UNL    H57  111  -0.242  -0.175  -0.001
    1UNL    H58  112  -0.433  -0.159  -0.136
   0.00000   0.00000   0.00000   0.00000   0.00000   0.00000   0.00000   0.00000   0.00000
Generated with MDTraj, t= 86.0
 112
    1UNL     C1    1   0.099   0.540  -0.148
    1UNL     C2    2   0.074   0.398  -0.173
    1UNL     C3    3   0.103   0.346  -0.297
    1UNL     C4    4   0.091   0.205  -0.333
    1UNL     O1    5   0.129   0.131  -0.220
    1UNL     C5    6   0.272   0.137  -0.183
    1UNL     O2    7   0.348   0.127  -0.300
    1UNL     C6    8   0.342  -0.005  -0.356
    1UNL     C7    9   0.437  -0.019  -0.476
    1UNL     C8   10   0.361  -0.124  -0.249
    1UNL     O3   11   0.326  -0.248  -0.307
    1UNL     C9   12   0.276  -0.102  -0.120
    1UNL     O4   13   0.139  -0.136  -0.133
    1UNL    C10   14   0.305   0.036  -0.067
    1UNL     O5   15   0.436   0.041  -0.025
    1UNL    C11   16   0.444   0.119   0.091
    1UNL     O6   17   0.353   0.056   0.185
    1UNL    C12   18   0.402  -0.062   0.251
    1UNL    C13   19   0.300  -0.102   0.359
    1UNL     O7   20   0.275  -0.002   0.450
    1UNL    C14   21   0.538  -0.036   0.323
    1UNL     O8   22   0.531   0.060   0.426
    1UNL    C15   23   0.633   0.008   0.209
    1UNL     O9   24   0.639  -0.083   0.100
    1UNL    C16   25   0.577   0.142   0.157
    1UNL    O10   26   0.658   0.189   0.050
    1UNL    C17   27   0.011   0.314  -0.075
    1UNL    C18   28   0.080   0.318   0.063
    1UNL    C19   29   0.051   0.197   0.148
    1UNL    C20   30  -0.068   0.158   0.194
    1UNL    C21   31  -0.088   0.031   0.273
    1UNL    C22   32  -0.187   0.239   0.161
    1UNL    O11   33  -0.235   0.220   0.031
    1UNL    C23   34  -0.291   0.087   0.013
    1UNL    O12   35  -0.288   0.051  -0.125
    1UNL    C24   36  -0.357   0.147  -0.208
    1UNL    C25   37  -0.339   0.131  -0.355
    1UNL    C26   38  -0.505   0.145  -0.170
    1UNL    O13   39  -0.562   0.015  -0.189
    1UNL    C27   40  -0.529   0.178  -0.020
    1UNL    O14   41  -0.668   0.156   0.003
    1UNL    C28   42  -0.439   0.072   0.060
    1UNL    O15   43  -0.504  -0.054   0.047
    1UNL    C29   44  -0.441  -0.156   0.114
    1UNL    O16   45  -0.361  -0.135   0.233
    1UNL    C30   46  -0.317  -0.259   0.300
    1UNL    C31   47  -0.373  -0.261   0.436
    1UNL    O17   48  -0.516  -0.237   0.441
    1UNL    C32   49  -0.359  -0.390   0.213
    1UNL    O18   50  -0.500  -0.418   0.228
    1UNL    C33   51  -0.307  -0.373   0.067
    1UNL    O19   52  -0.348  -0.480  -0.014
    1UNL    C34   53  -0.356  -0.232   0.007
    1UNL    O20   54  -0.424  -0.248  -0.121
    1UNL     H1   55   0.018   0.589  -0.096
    1UNL     H2   56   0.198   0.550  -0.091
    1UNL     H3   57   0.106   0.595  -0.236
    1UNL     H4   58   0.150   0.418  -0.368
    1UNL     H5   59   0.150   0.173  -0.420
    1UNL     H6   60  -0.011   0.177  -0.351
    1UNL     H7   61   0.294   0.237  -0.143
    1UNL     H8   62   0.239  -0.019  -0.387
    1UNL     H9   63   0.417   0.043  -0.567
    1UNL    H10   64   0.447  -0.118  -0.506
    1UNL    H11   65   0.533   0.018  -0.453
    1UNL    H12   66   0.472  -0.124  -0.222
    1UNL    H13   67   0.230  -0.268  -0.284
    1UNL    H14   68   0.314  -0.165  -0.041
    1UNL    H15   69   0.086  -0.055  -0.156
    1UNL    H16   70   0.234   0.055   0.011
    1UNL    H17   71   0.392   0.213   0.062
    1UNL    H18   72   0.401  -0.137   0.179
    1UNL    H19   73   0.209  -0.119   0.305
    1UNL    H20   74   0.328  -0.197   0.426
    1UNL    H21   75   0.359   0.042   0.479
    1UNL    H22   76   0.586  -0.127   0.374
    1UNL    H23   77   0.616   0.094   0.452
    1UNL    H24   78   0.735   0.014   0.247
    1UNL    H25   79   0.558  -0.054   0.052
    1UNL    H26   80   0.559   0.221   0.231
    1UNL    H27   81   0.657   0.126  -0.025
    1UNL    H28   82  -0.102   0.342  -0.072
    1UNL    H29   83   0.013   0.208  -0.112
    1UNL    H30   84   0.185   0.318   0.041
    1UNL    H31   85   0.068   0.417   0.115
    1UNL    H32   86   0.132   0.121   0.169
    1UNL    H33   87   0.012   0.014   0.318
    1UNL    H34   88  -0.162   0.048   0.360
    1UNL    H35   89  -0.111  -0.058   0.210
    1UNL    H36   90  -0.267   0.219   0.226
    1UNL    H37   91  -0.165   0.348   0.172
    1UNL    H38   92  -0.227   0.014   0.056
    1UNL    H39   93  -0.307   0.237  -0.187
    1UNL    H40   94  -0.408   0.046  -0.385
    1UNL    H41   95  -0.238   0.099  -0.389
    1UNL    H42   96  -0.359   0.221  -0.412
    1UNL    H43   97  -0.568   0.213  -0.227
    1UNL    H44   98  -0.603  -0.006  -0.100
    1UNL    H45   99  -0.494   0.282   0.007
    1UNL    H46  100  -0.684   0.140   0.094
    1UNL    H47  101  -0.445   0.106   0.163
    1UNL    H48  102  -0.529  -0.227   0.146
    1UNL    H49  103  -0.206  -0.252   0.297
    1UNL    H50  104  -0.321  -0.176   0.490
    1UNL    H51  105  -0.345  -0.352   0.483
    1UNL    H52  106  -0.555  -0.283   0.362
    1UNL    H53  107  -0.308  -0.473   0.269
    1UNL    H54  108  -0.523  -0.461   0.148
    1UNL    H55  109  -0.198  -0.375   0.057
    1UNL    H56  110  -0.402  -0.439  -0.085
    1UNL    H57  111  -0.265  -0.173  -0.026
    1UNL    H58  112  -0.455  -0.158  -0.151
   0.00000   0.00000   0.00000   0.00000   0.00000   0.00000   0.00000   0.00000   0.00000
Generated with MDTraj, t= 87.0
 112
    1UNL     C1    1   0.138   0.559  -0.108
    1UNL     C2    2   0.091   0.421  -0.141
    1UNL     C3    3   0.123   0.358  -0.260
    1UNL     C4    4   0.075   0.222  -0.290
    1UNL     O1    5   0.122   0.120  -0.202
    1UNL     C5    6   0.263   0.118  -0.180
    1UNL     O2    7   0.350   0.106  -0.292
    1UNL     C6    8   0.334  -0.023  -0.354
    1UNL     C7    9   0.397  -0.038  -0.491
    1UNL     C8   10   0.368  -0.137  -0.257
    1UNL     O3   11   0.331  -0.265  -0.310
    1UNL     C9   12   0.291  -0.129  -0.121
    1UNL     O4   13   0.158  -0.170  -0.145
    1UNL    C10   14   0.304   0.017  -0.063
    1UNL     O5   15   0.437   0.042  -0.017
    1UNL    C11   16   0.448   0.141   0.089
    1UNL     O6   17   0.359   0.122   0.205
    1UNL    C12   18   0.384  -0.011   0.251
    1UNL    C13   19   0.280  -0.047   0.360
    1UNL     O7   20   0.253   0.066   0.443
    1UNL    C14   21   0.530  -0.034   0.299
    1UNL     O8   22   0.542   0.015   0.430
    1UNL    C15   23   0.642   0.015   0.197
    1UNL     O9   24   0.659  -0.074   0.087
    1UNL    C16   25   0.591   0.143   0.143
    1UNL    O10   26   0.678   0.181   0.036
    1UNL    C17   27   0.008   0.341  -0.035
    1UNL    C18   28   0.084   0.313   0.094
    1UNL    C19   29   0.056   0.184   0.163
    1UNL    C20   30  -0.063   0.137   0.197
    1UNL    C21   31  -0.063  -0.002   0.247
    1UNL    C22   32  -0.192   0.207   0.173
    1UNL    O11   33  -0.242   0.203   0.040
    1UNL    C23   34  -0.304   0.078   0.006
    1UNL    O12   35  -0.293   0.044  -0.131
    1UNL    C24   36  -0.367   0.136  -0.214
    1UNL    C25   37  -0.338   0.115  -0.364
    1UNL    C26   38  -0.517   0.129  -0.177
    1UNL    O13   39  -0.568   0.003  -0.216
    1UNL    C27   40  -0.544   0.174  -0.027
    1UNL    O14   41  -0.680   0.161  -0.005
    1UNL    C28   42  -0.453   0.078   0.056
    1UNL    O15   43  -0.511  -0.052   0.046
    1UNL    C29   44  -0.427  -0.151   0.105
    1UNL    O16   45  -0.340  -0.127   0.217
    1UNL    C30   46  -0.301  -0.248   0.293
    1UNL    C31   47  -0.357  -0.239   0.435
    1UNL    O17   48  -0.499  -0.243   0.426
    1UNL    C32   49  -0.349  -0.381   0.208
    1UNL    O18   50  -0.492  -0.404   0.223
    1UNL    C33   51  -0.315  -0.372   0.055
    1UNL    O19   52  -0.388  -0.469  -0.011
    1UNL    C34   53  -0.362  -0.234  -0.005
    1UNL    O20   54  -0.455  -0.244  -0.108
    1UNL     H1   55   0.128   0.583  -0.001
    1UNL     H2   56   0.241   0.577  -0.135
    1UNL     H3   57   0.077   0.636  -0.149
    1UNL     H4   58   0.186   0.412  -0.330
    1UNL     H5   59   0.106   0.186  -0.388
    1UNL     H6   60  -0.031   0.212  -0.286
    1UNL     H7   61   0.285   0.220  -0.145
    1UNL     H8   62   0.225  -0.034  -0.353
    1UNL     H9   63   0.377   0.053  -0.535
    1UNL    H10   64   0.356  -0.113  -0.553
    1UNL    H11   65   0.506  -0.038  -0.489
    1UNL    H12   66   0.483  -0.136  -0.245
    1UNL    H13   67   0.238  -0.293  -0.279
    1UNL    H14   68   0.340  -0.198  -0.057
    1UNL    H15   69   0.112  -0.095  -0.184
    1UNL    H16   70   0.231   0.033   0.013
    1UNL    H17   71   0.428   0.232   0.033
    1UNL    H18   72   0.373  -0.072   0.167
    1UNL    H19   73   0.183  -0.085   0.336
    1UNL    H20   74   0.337  -0.124   0.429
    1UNL    H21   75   0.341   0.108   0.459
    1UNL    H22   76   0.550  -0.146   0.308
    1UNL    H23   77   0.632   0.031   0.467
    1UNL    H24   78   0.743   0.021   0.245
    1UNL    H25   79   0.574  -0.080   0.038
    1UNL    H26   80   0.596   0.228   0.211
    1UNL    H27   81   0.668   0.117  -0.039
    1UNL    H28   82  -0.083   0.407  -0.007
    1UNL    H29   83  -0.038   0.254  -0.089
    1UNL    H30   84   0.189   0.316   0.074
    1UNL    H31   85   0.068   0.395   0.168
    1UNL    H32   86   0.134   0.118   0.177
    1UNL    H33   87  -0.046   0.002   0.351
    1UNL    H34   88  -0.162  -0.051   0.233
    1UNL    H35   89   0.032  -0.064   0.200
    1UNL    H36   90  -0.268   0.178   0.242
    1UNL    H37   91  -0.181   0.316   0.198
    1UNL    H38   92  -0.253   0.003   0.062
    1UNL    H39   93  -0.324   0.230  -0.195
    1UNL    H40   94  -0.347   0.001  -0.370
    1UNL    H41   95  -0.237   0.135  -0.396
    1UNL    H42   96  -0.402   0.165  -0.439
    1UNL    H43   97  -0.579   0.201  -0.236
    1UNL    H44   98  -0.664  -0.003  -0.203
    1UNL    H45   99  -0.510   0.277  -0.016
    1UNL    H46  100  -0.702   0.066   0.005
    1UNL    H47  101  -0.459   0.107   0.163
    1UNL    H48  102  -0.511  -0.220   0.145
    1UNL    H49  103  -0.189  -0.250   0.297
    1UNL    H50  104  -0.326  -0.142   0.483
    1UNL    H51  105  -0.318  -0.323   0.486
    1UNL    H52  106  -0.531  -0.310   0.359
    1UNL    H53  107  -0.301  -0.469   0.253
    1UNL    H54  108  -0.514  -0.453   0.137
    1UNL    H55  109  -0.215  -0.409   0.040
    1UNL    H56  110  -0.386  -0.458  -0.112
    1UNL    H57  111  -0.275  -0.174  -0.047
    1UNL    H58  112  -0.486  -0.159  -0.143
   0.00000   0.00000   0.00000   0.00000   0.00000   0.00000   0.00000   0.00000   0.00000
Generated with MDTraj, t= 88.0
 112
    1UNL     C1    1   0.137   0.564  -0.067
    1UNL     C2    2   0.105   0.424  -0.101
    1UNL     C3    3   0.153   0.371  -0.219
    1UNL     C4    4   0.093   0.232  -0.256
    1UNL     O1    5   0.128   0.121  -0.169
    1UNL     C5    6   0.266   0.111  -0.169
    1UNL     O2    7   0.325   0.091  -0.297
    1UNL     C6    8   0.296  -0.038  -0.351
    1UNL     C7    9   0.351  -0.052  -0.495
    1UNL     C8   10   0.366  -0.146  -0.258
    1UNL     O3   11   0.364  -0.280  -0.310
    1UNL     C9   12   0.291  -0.133  -0.123
    1UNL     O4   13   0.151  -0.163  -0.132
    1UNL    C10   14   0.318   0.012  -0.068
    1UNL     O5   15   0.454   0.031  -0.026
    1UNL    C11   16   0.452   0.136   0.061
    1UNL     O6   17   0.359   0.110   0.170
    1UNL    C12   18   0.387  -0.011   0.239
    1UNL    C13   19   0.293  -0.017   0.355
    1UNL     O7   20   0.288   0.100   0.440
    1UNL    C14   21   0.525  -0.026   0.304
    1UNL     O8   22   0.537   0.062   0.421
    1UNL    C15   23   0.636   0.012   0.196
    1UNL     O9   24   0.667  -0.092   0.103
    1UNL    C16   25   0.591   0.141   0.125
    1UNL    O10   26   0.685   0.184   0.028
    1UNL    C17   27   0.011   0.341  -0.016
    1UNL    C18   28   0.065   0.332   0.128
    1UNL    C19   29   0.047   0.201   0.187
    1UNL    C20   30  -0.067   0.137   0.210
    1UNL    C21   31  -0.069  -0.004   0.256
    1UNL    C22   32  -0.196   0.206   0.174
    1UNL    O11   33  -0.229   0.192   0.035
    1UNL    C23   34  -0.307   0.076   0.004
    1UNL    O12   35  -0.297   0.035  -0.132
    1UNL    C24   36  -0.356   0.120  -0.222
    1UNL    C25   37  -0.338   0.064  -0.361
    1UNL    C26   38  -0.509   0.142  -0.190
    1UNL    O13   39  -0.577   0.018  -0.216
    1UNL    C27   40  -0.538   0.187  -0.042
    1UNL    O14   41  -0.675   0.176  -0.004
    1UNL    C28   42  -0.453   0.082   0.043
    1UNL    O15   43  -0.520  -0.049   0.030
    1UNL    C29   44  -0.453  -0.161   0.093
    1UNL    O16   45  -0.375  -0.132   0.209
    1UNL    C30   46  -0.304  -0.245   0.262
    1UNL    C31   47  -0.333  -0.242   0.414
    1UNL    O17   48  -0.471  -0.233   0.429
    1UNL    C32   49  -0.348  -0.378   0.192
    1UNL    O18   50  -0.478  -0.420   0.229
    1UNL    C33   51  -0.326  -0.374   0.041
    1UNL    O19   52  -0.397  -0.476  -0.012
    1UNL    C34   53  -0.380  -0.236  -0.020
    1UNL    O20   54  -0.472  -0.257  -0.127
    1UNL     H1   55   0.153   0.573   0.041
    1UNL     H2   56   0.217   0.601  -0.120
    1UNL     H3   57   0.045   0.623  -0.084
    1UNL     H4   58   0.213   0.424  -0.291
    1UNL     H5   59   0.137   0.203  -0.353
    1UNL     H6   60  -0.015   0.234  -0.266
    1UNL     H7   61   0.315   0.208  -0.143
    1UNL     H8   62   0.187  -0.044  -0.344
    1UNL     H9   63   0.304   0.011  -0.559
    1UNL    H10   64   0.343  -0.153  -0.526
    1UNL    H11   65   0.454  -0.013  -0.491
    1UNL    H12   66   0.475  -0.106  -0.252
    1UNL    H13   67   0.275  -0.315  -0.302
    1UNL    H14   68   0.337  -0.205  -0.059
    1UNL    H15   69   0.108  -0.075  -0.158
    1UNL    H16   70   0.257   0.017   0.021
    1UNL    H17   71   0.431   0.223   0.001
    1UNL    H18   72   0.373  -0.090   0.170
    1UNL    H19   73   0.191  -0.042   0.323
    1UNL    H20   74   0.320  -0.091   0.440
    1UNL    H21   75   0.374   0.145   0.426
    1UNL    H22   76   0.540  -0.128   0.341
    1UNL    H23   77   0.634   0.084   0.441
    1UNL    H24   78   0.734   0.030   0.253
    1UNL    H25   79   0.596  -0.101   0.036
    1UNL    H26   80   0.592   0.216   0.205
    1UNL    H27   81   0.645   0.152  -0.054
    1UNL    H28   82  -0.097   0.381  -0.023
    1UNL    H29   83  -0.002   0.231  -0.045
    1UNL    H30   84   0.171   0.352   0.117
    1UNL    H31   85   0.017   0.411   0.191
    1UNL    H32   86   0.139   0.146   0.209
    1UNL    H33   87  -0.012  -0.015   0.351
    1UNL    H34   88  -0.168  -0.034   0.288
    1UNL    H35   89  -0.031  -0.079   0.193
    1UNL    H36   90  -0.277   0.167   0.234
    1UNL    H37   91  -0.199   0.316   0.205
    1UNL    H38   92  -0.261   0.002   0.066
    1UNL    H39   93  -0.305   0.212  -0.215
    1UNL    H40   94  -0.405  -0.026  -0.362
    1UNL    H41   95  -0.238   0.031  -0.385
    1UNL    H42   96  -0.367   0.138  -0.439
    1UNL    H43   97  -0.558   0.216  -0.261
    1UNL    H44   98  -0.661   0.008  -0.163
    1UNL    H45   99  -0.513   0.289  -0.022
    1UNL    H46  100  -0.698   0.088   0.037
    1UNL    H47  101  -0.466   0.107   0.151
    1UNL    H48  102  -0.539  -0.230   0.126
    1UNL    H49  103  -0.194  -0.227   0.254
    1UNL    H50  104  -0.279  -0.150   0.446
    1UNL    H51  105  -0.290  -0.327   0.462
    1UNL    H52  106  -0.518  -0.291   0.370
    1UNL    H53  107  -0.285  -0.455   0.232
    1UNL    H54  108  -0.494  -0.493   0.169
    1UNL    H55  109  -0.223  -0.394   0.022
    1UNL    H56  110  -0.408  -0.461  -0.106
    1UNL    H57  111  -0.303  -0.164  -0.057
    1UNL    H58  112  -0.516  -0.170  -0.139
   0.00000   0.00000   0.00000   0.00000   0.00000   0.00000   0.00000   0.00000   0.00000
Generated with MDTraj, t= 89.0
 112
    1UNL     C1    1   0.147   0.549  -0.054
    1UNL     C2    2   0.087   0.420  -0.089
    1UNL     C3    3   0.121   0.372  -0.213
    1UNL     C4    4   0.085   0.236  -0.267
    1UNL     O1    5   0.135   0.130  -0.186
    1UNL     C5    6   0.276   0.119  -0.184
    1UNL     O2    7   0.331   0.086  -0.313
    1UNL     C6    8   0.285  -0.041  -0.359
    1UNL     C7    9   0.334  -0.068  -0.499
    1UNL     C8   10   0.342  -0.153  -0.265
    1UNL     O3   11   0.320  -0.284  -0.314
    1UNL     C9   12   0.290  -0.132  -0.127
    1UNL     O4   13   0.152  -0.156  -0.118
    1UNL    C10   14   0.320   0.013  -0.078
    1UNL     O5   15   0.456   0.035  -0.033
    1UNL    C11   16   0.465   0.129   0.069
    1UNL     O6   17   0.383   0.105   0.187
    1UNL    C12   18   0.427  -0.006   0.262
    1UNL    C13   19   0.325  -0.034   0.375
    1UNL     O7   20   0.266   0.086   0.421
    1UNL    C14   21   0.565   0.012   0.325
    1UNL     O8   22   0.571   0.132   0.416
    1UNL    C15   23   0.663   0.019   0.203
    1UNL     O9   24   0.652  -0.094   0.127
    1UNL    C16   25   0.616   0.138   0.115
    1UNL    O10   26   0.704   0.156   0.006
    1UNL    C17   27   0.010   0.342   0.005
    1UNL    C18   28   0.059   0.342   0.152
    1UNL    C19   29   0.014   0.221   0.234
    1UNL    C20   30  -0.107   0.165   0.235
    1UNL    C21   31  -0.128   0.031   0.296
    1UNL    C22   32  -0.222   0.222   0.156
    1UNL    O11   33  -0.234   0.180   0.021
    1UNL    C23   34  -0.310   0.059   0.012
    1UNL    O12   35  -0.296   0.010  -0.128
    1UNL    C24   36  -0.340   0.105  -0.221
    1UNL    C25   37  -0.311   0.046  -0.358
    1UNL    C26   38  -0.491   0.131  -0.193
    1UNL    O13   39  -0.573   0.012  -0.226
    1UNL    C27   40  -0.515   0.187  -0.048
    1UNL    O14   41  -0.648   0.217  -0.011
    1UNL    C28   42  -0.458   0.079   0.047
    1UNL    O15   43  -0.532  -0.045   0.045
    1UNL    C29   44  -0.458  -0.160   0.087
    1UNL    O16   45  -0.360  -0.147   0.193
    1UNL    C30   46  -0.300  -0.266   0.246
    1UNL    C31   47  -0.310  -0.259   0.403
    1UNL    O17   48  -0.440  -0.262   0.441
    1UNL    C32   49  -0.361  -0.390   0.180
    1UNL    O18   50  -0.498  -0.407   0.214
    1UNL    C33   51  -0.345  -0.384   0.026
    1UNL    O19   52  -0.428  -0.482  -0.029
    1UNL    C34   53  -0.392  -0.237  -0.028
    1UNL    O20   54  -0.479  -0.246  -0.139
    1UNL     H1   55   0.153   0.555   0.052
    1UNL     H2   56   0.242   0.559  -0.095
    1UNL     H3   57   0.078   0.631  -0.083
    1UNL     H4   58   0.183   0.439  -0.278
    1UNL     H5   59   0.117   0.216  -0.373
    1UNL     H6   60  -0.023   0.224  -0.264
    1UNL     H7   61   0.318   0.219  -0.156
    1UNL     H8   62   0.175  -0.037  -0.351
    1UNL     H9   63   0.286   0.006  -0.561
    1UNL    H10   64   0.308  -0.164  -0.527
    1UNL    H11   65   0.438  -0.043  -0.501
    1UNL    H12   66   0.458  -0.144  -0.251
    1UNL    H13   67   0.233  -0.316  -0.295
    1UNL    H14   68   0.335  -0.212  -0.070
    1UNL    H15   69   0.110  -0.069  -0.133
    1UNL    H16   70   0.252   0.021   0.009
    1UNL    H17   71   0.426   0.215   0.019
    1UNL    H18   72   0.425  -0.088   0.189
    1UNL    H19   73   0.240  -0.096   0.350
    1UNL    H20   74   0.363  -0.074   0.471
    1UNL    H21   75   0.331   0.152   0.386
    1UNL    H22   76   0.582  -0.078   0.381
    1UNL    H23   77   0.664   0.164   0.407
    1UNL    H24   78   0.772   0.049   0.229
    1UNL    H25   79   0.573  -0.073   0.071
    1UNL    H26   80   0.632   0.228   0.179
    1UNL    H27   81   0.670   0.091  -0.062
    1UNL    H28   82  -0.101   0.364  -0.007
    1UNL    H29   83   0.018   0.235  -0.037
    1UNL    H30   84   0.168   0.338   0.151
    1UNL    H31   85   0.027   0.435   0.204
    1UNL    H32   86   0.093   0.171   0.288
    1UNL    H33   87  -0.074   0.029   0.395
    1UNL    H34   88  -0.235   0.026   0.312
    1UNL    H35   89  -0.093  -0.046   0.242
    1UNL    H36   90  -0.315   0.210   0.209
    1UNL    H37   91  -0.215   0.337   0.157
    1UNL    H38   92  -0.260  -0.003   0.083
    1UNL    H39   93  -0.290   0.195  -0.197
    1UNL    H40   94  -0.381  -0.035  -0.371
    1UNL    H41   95  -0.208   0.010  -0.365
    1UNL    H42   96  -0.321   0.123  -0.440
    1UNL    H43   97  -0.529   0.214  -0.260
    1UNL    H44   98  -0.653  -0.002  -0.173
    1UNL    H45   99  -0.461   0.276  -0.029
    1UNL    H46  100  -0.682   0.145   0.037
    1UNL    H47  101  -0.472   0.114   0.154
    1UNL    H48  102  -0.542  -0.228   0.120
    1UNL    H49  103  -0.192  -0.263   0.223
    1UNL    H50  104  -0.265  -0.161   0.433
    1UNL    H51  105  -0.248  -0.339   0.438
    1UNL    H52  106  -0.501  -0.295   0.367
    1UNL    H53  107  -0.320  -0.481   0.215
    1UNL    H54  108  -0.536  -0.455   0.133
    1UNL    H55  109  -0.245  -0.405  -0.009
    1UNL    H56  110  -0.477  -0.438  -0.110
    1UNL    H57  111  -0.304  -0.179  -0.059
    1UNL    H58  112  -0.493  -0.153  -0.176
   0.00000   0.00000   0.00000   0.00000   0.00000   0.00000   0.00000   0.00000   0.00000
Generated with MDTraj, t= 90.0
 112
    1UNL     C1    1   0.135   0.537  -0.054
    1UNL     C2    2   0.099   0.399  -0.093
    1UNL     C3    3   0.136   0.358  -0.216
    1UNL     C4    4   0.108   0.230  -0.275
    1UNL     O1    5   0.143   0.128  -0.185
    1UNL     C5    6   0.284   0.122  -0.166
    1UNL     O2    7   0.336   0.089  -0.290
    1UNL     C6    8   0.281  -0.032  -0.348
    1UNL     C7    9   0.335  -0.050  -0.486
    1UNL     C8   10   0.315  -0.159  -0.256
    1UNL     O3   11   0.247  -0.271  -0.308
    1UNL     C9   12   0.281  -0.131  -0.104
    1UNL     O4   13   0.132  -0.152  -0.098
    1UNL    C10   14   0.324   0.008  -0.061
    1UNL     O5   15   0.466   0.020  -0.030
    1UNL    C11   16   0.476   0.129   0.057
    1UNL     O6   17   0.386   0.117   0.169
    1UNL    C12   18   0.423   0.003   0.244
    1UNL    C13   19   0.307  -0.025   0.354
    1UNL     O7   20   0.304   0.093   0.437
    1UNL    C14   21   0.559   0.036   0.309
    1UNL     O8   22   0.557   0.166   0.376
    1UNL    C15   23   0.669   0.048   0.198
    1UNL     O9   24   0.687  -0.076   0.133
    1UNL    C16   25   0.623   0.147   0.099
    1UNL    O10   26   0.707   0.136  -0.014
    1UNL    C17   27   0.041   0.295   0.003
    1UNL    C18   28   0.065   0.322   0.156
    1UNL    C19   29   0.005   0.213   0.246
    1UNL    C20   30  -0.123   0.183   0.255
    1UNL    C21   31  -0.173   0.099   0.366
    1UNL    C22   32  -0.228   0.246   0.172
    1UNL    O11   33  -0.234   0.199   0.034
    1UNL    C23   34  -0.284   0.067   0.020
    1UNL    O12   35  -0.266   0.014  -0.114
    1UNL    C24   36  -0.318   0.099  -0.217
    1UNL    C25   37  -0.301   0.027  -0.354
    1UNL    C26   38  -0.467   0.137  -0.199
    1UNL    O13   39  -0.555   0.034  -0.248
    1UNL    C27   40  -0.503   0.171  -0.046
    1UNL    O14   41  -0.640   0.172  -0.028
    1UNL    C28   42  -0.436   0.069   0.048
    1UNL    O15   43  -0.521  -0.046   0.050
    1UNL    C29   44  -0.471  -0.168   0.083
    1UNL    O16   45  -0.372  -0.162   0.194
    1UNL    C30   46  -0.302  -0.283   0.227
    1UNL    C31   47  -0.297  -0.289   0.386
    1UNL    O17   48  -0.419  -0.305   0.449
    1UNL    C32   49  -0.372  -0.408   0.164
    1UNL    O18   50  -0.510  -0.406   0.204
    1UNL    C33   51  -0.378  -0.390   0.007
    1UNL    O19   52  -0.476  -0.473  -0.041
    1UNL    C34   53  -0.411  -0.241  -0.038
    1UNL    O20   54  -0.491  -0.232  -0.150
    1UNL     H1   55   0.072   0.568   0.022
    1UNL     H2   56   0.237   0.542  -0.016
    1UNL     H3   57   0.119   0.615  -0.127
    1UNL     H4   58   0.185   0.427  -0.275
    1UNL     H5   59   0.173   0.217  -0.367
    1UNL     H6   60   0.004   0.208  -0.306
    1UNL     H7   61   0.310   0.227  -0.135
    1UNL     H8   62   0.170  -0.017  -0.359
    1UNL     H9   63   0.312   0.039  -0.548
    1UNL    H10   64   0.287  -0.130  -0.532
    1UNL    H11   65   0.435  -0.058  -0.490
    1UNL    H12   66   0.428  -0.183  -0.250
    1UNL    H13   67   0.161  -0.281  -0.252
    1UNL    H14   68   0.327  -0.208  -0.040
    1UNL    H15   69   0.092  -0.065  -0.133
    1UNL    H16   70   0.268   0.039   0.033
    1UNL    H17   71   0.441   0.215   0.002
    1UNL    H18   72   0.433  -0.081   0.169
    1UNL    H19   73   0.205  -0.042   0.326
    1UNL    H20   74   0.338  -0.102   0.421
    1UNL    H21   75   0.370   0.155   0.398
    1UNL    H22   76   0.578  -0.050   0.368
    1UNL    H23   77   0.643   0.207   0.378
    1UNL    H24   78   0.769   0.066   0.257
    1UNL    H25   79   0.610  -0.094   0.072
    1UNL    H26   80   0.638   0.249   0.143
    1UNL    H27   81   0.706   0.044  -0.046
    1UNL    H28   82  -0.069   0.301  -0.009
    1UNL    H29   83   0.068   0.189  -0.032
    1UNL    H30   84   0.174   0.328   0.173
    1UNL    H31   85   0.017   0.417   0.183
    1UNL    H32   86   0.061   0.188   0.336
    1UNL    H33   87  -0.157   0.150   0.455
    1UNL    H34   88  -0.275   0.086   0.347
    1UNL    H35   89  -0.114  -0.001   0.370
    1UNL    H36   90  -0.324   0.234   0.220
    1UNL    H37   91  -0.202   0.358   0.170
    1UNL    H38   92  -0.233   0.010   0.095
    1UNL    H39   93  -0.257   0.185  -0.204
    1UNL    H40   94  -0.335  -0.073  -0.347
    1UNL    H41   95  -0.195   0.036  -0.390
    1UNL    H42   96  -0.360   0.076  -0.434
    1UNL    H43   97  -0.481   0.226  -0.265
    1UNL    H44   98  -0.647   0.052  -0.219
    1UNL    H45   99  -0.467   0.269  -0.024
    1UNL    H46  100  -0.670   0.074  -0.012
    1UNL    H47  101  -0.453   0.105   0.155
    1UNL    H48  102  -0.563  -0.219   0.121
    1UNL    H49  103  -0.203  -0.274   0.184
    1UNL    H50  104  -0.253  -0.189   0.416
    1UNL    H51  105  -0.224  -0.361   0.422
    1UNL    H52  106  -0.490  -0.270   0.392
    1UNL    H53  107  -0.339  -0.504   0.196
    1UNL    H54  108  -0.564  -0.463   0.145
    1UNL    H55  109  -0.283  -0.428  -0.031
    1UNL    H56  110  -0.547  -0.422  -0.076
    1UNL    H57  111  -0.315  -0.195  -0.059
    1UNL    H58  112  -0.527  -0.141  -0.170
   0.00000   0.00000   0.00000   0.00000   0.00000   0.00000   0.00000   0.00000   0.00000
Generated with MDTraj, t= 91.0
 112
    1UNL     C1    1   0.121   0.522  -0.031
    1UNL     C2    2   0.105   0.377  -0.074
    1UNL     C3    3   0.135   0.351  -0.201
    1UNL     C4    4   0.103   0.221  -0.267
    1UNL     O1    5   0.137   0.110  -0.185
    1UNL     C5    6   0.276   0.107  -0.176
    1UNL     O2    7   0.337   0.075  -0.300
    1UNL     C6    8   0.281  -0.048  -0.355
    1UNL     C7    9   0.356  -0.078  -0.479
    1UNL     C8   10   0.301  -0.172  -0.257
    1UNL     O3   11   0.221  -0.278  -0.301
    1UNL     C9   12   0.270  -0.141  -0.110
    1UNL     O4   13   0.121  -0.148  -0.100
    1UNL    C10   14   0.314  -0.002  -0.070
    1UNL     O5   15   0.456   0.013  -0.029
    1UNL    C11   16   0.484   0.135   0.036
    1UNL     O6   17   0.395   0.143   0.156
    1UNL    C12   18   0.420   0.035   0.243
    1UNL    C13   19   0.295   0.022   0.345
    1UNL     O7   20   0.285   0.132   0.433
    1UNL    C14   21   0.560   0.050   0.305
    1UNL     O8   22   0.598   0.157   0.387
    1UNL    C15   23   0.670   0.049   0.189
    1UNL     O9   24   0.667  -0.079   0.128
    1UNL    C16   25   0.628   0.155   0.087
    1UNL    O10   26   0.712   0.159  -0.028
    1UNL    C17   27   0.045   0.277   0.015
    1UNL    C18   28   0.069   0.318   0.166
    1UNL    C19   29   0.006   0.221   0.265
    1UNL    C20   30  -0.124   0.194   0.273
    1UNL    C21   31  -0.190   0.116   0.381
    1UNL    C22   32  -0.223   0.262   0.174
    1UNL    O11   33  -0.232   0.195   0.044
    1UNL    C23   34  -0.300   0.073   0.047
    1UNL    O12   35  -0.278   0.003  -0.076
    1UNL    C24   36  -0.304   0.095  -0.181
    1UNL    C25   37  -0.254   0.048  -0.323
    1UNL    C26   38  -0.452   0.134  -0.196
    1UNL    O13   39  -0.536   0.032  -0.235
    1UNL    C27   40  -0.499   0.181  -0.055
    1UNL    O14   41  -0.638   0.185  -0.061
    1UNL    C28   42  -0.453   0.086   0.057
    1UNL    O15   43  -0.523  -0.035   0.031
    1UNL    C29   44  -0.466  -0.164   0.071
    1UNL    O16   45  -0.365  -0.172   0.186
    1UNL    C30   46  -0.301  -0.296   0.213
    1UNL    C31   47  -0.277  -0.314   0.362
    1UNL    O17   48  -0.395  -0.325   0.440
    1UNL    C32   49  -0.378  -0.416   0.154
    1UNL    O18   50  -0.509  -0.418   0.205
    1UNL    C33   51  -0.401  -0.399  -0.004
    1UNL    O19   52  -0.516  -0.464  -0.046
    1UNL    C34   53  -0.403  -0.240  -0.047
    1UNL    O20   54  -0.473  -0.233  -0.165
    1UNL     H1   55   0.024   0.562  -0.037
    1UNL     H2   56   0.161   0.534   0.073
    1UNL     H3   57   0.175   0.583  -0.095
    1UNL     H4   58   0.181   0.434  -0.260
    1UNL     H5   59   0.152   0.200  -0.366
    1UNL     H6   60  -0.006   0.214  -0.281
    1UNL     H7   61   0.298   0.212  -0.144
    1UNL     H8   62   0.177  -0.037  -0.393
    1UNL     H9   63   0.356   0.005  -0.550
    1UNL    H10   64   0.317  -0.158  -0.534
    1UNL    H11   65   0.458  -0.093  -0.465
    1UNL    H12   66   0.409  -0.211  -0.267
    1UNL    H13   67   0.138  -0.277  -0.258
    1UNL    H14   68   0.306  -0.220  -0.038
    1UNL    H15   69   0.091  -0.062  -0.128
    1UNL    H16   70   0.267   0.022   0.030
    1UNL    H17   71   0.464   0.217  -0.031
    1UNL    H18   72   0.410  -0.061   0.180
    1UNL    H19   73   0.209   0.028   0.284
    1UNL    H20   74   0.300  -0.060   0.410
    1UNL    H21   75   0.375   0.172   0.438
    1UNL    H22   76   0.566  -0.040   0.360
    1UNL    H23   77   0.680   0.145   0.437
    1UNL    H24   78   0.776   0.069   0.231
    1UNL    H25   79   0.585  -0.080   0.074
    1UNL    H26   80   0.638   0.262   0.121
    1UNL    H27   81   0.696   0.083  -0.086
    1UNL    H28   82  -0.059   0.268  -0.010
    1UNL    H29   83   0.091   0.177   0.001
    1UNL    H30   84   0.177   0.330   0.174
    1UNL    H31   85   0.026   0.417   0.177
    1UNL    H32   86   0.067   0.202   0.353
    1UNL    H33   87  -0.269   0.161   0.423
    1UNL    H34   88  -0.228   0.025   0.347
    1UNL    H35   89  -0.116   0.091   0.470
    1UNL    H36   90  -0.323   0.256   0.217
    1UNL    H37   91  -0.197   0.373   0.149
    1UNL    H38   92  -0.260   0.012   0.127
    1UNL    H39   93  -0.247   0.178  -0.149
    1UNL    H40   94  -0.326  -0.013  -0.373
    1UNL    H41   95  -0.159  -0.011  -0.308
    1UNL    H42   96  -0.221   0.125  -0.393
    1UNL    H43   97  -0.455   0.212  -0.271
    1UNL    H44   98  -0.617   0.078  -0.269
    1UNL    H45   99  -0.473   0.283  -0.033
    1UNL    H46  100  -0.665   0.095  -0.070
    1UNL    H47  101  -0.491   0.124   0.157
    1UNL    H48  102  -0.557  -0.218   0.103
    1UNL    H49  103  -0.210  -0.299   0.157
    1UNL    H50  104  -0.217  -0.232   0.411
    1UNL    H51  105  -0.216  -0.402   0.388
    1UNL    H52  106  -0.474  -0.325   0.380
    1UNL    H53  107  -0.332  -0.510   0.179
    1UNL    H54  108  -0.565  -0.489   0.162
    1UNL    H55  109  -0.315  -0.447  -0.058
    1UNL    H56  110  -0.568  -0.397  -0.109
    1UNL    H57  111  -0.304  -0.210  -0.072
    1UNL    H58  112  -0.494  -0.139  -0.183
   0.00000   0.00000   0.00000   0.00000   0.00000   0.00000   0.00000   0.00000   0.00000
Generated with MDTraj, t= 92.0
 112
    1UNL     C1    1   0.146   0.510  -0.006
    1UNL     C2    2   0.094   0.387  -0.062
    1UNL     C3    3   0.104   0.364  -0.194
    1UNL     C4    4   0.067   0.233  -0.262
    1UNL     O1    5   0.124   0.112  -0.202
    1UNL     C5    6   0.263   0.109  -0.193
    1UNL     O2    7   0.327   0.062  -0.314
    1UNL     C6    8   0.285  -0.070  -0.347
    1UNL     C7    9   0.344  -0.111  -0.484
    1UNL     C8   10   0.327  -0.173  -0.241
    1UNL     O3   11   0.276  -0.302  -0.265
    1UNL     C9   12   0.281  -0.136  -0.108
    1UNL     O4   13   0.144  -0.166  -0.089
    1UNL    C10   14   0.310   0.010  -0.082
    1UNL     O5   15   0.451   0.028  -0.045
    1UNL    C11   16   0.471   0.138   0.035
    1UNL     O6   17   0.377   0.131   0.153
    1UNL    C12   18   0.401   0.027   0.250
    1UNL    C13   19   0.301   0.067   0.371
    1UNL     O7   20   0.293   0.201   0.393
    1UNL    C14   21   0.547   0.034   0.295
    1UNL     O8   22   0.577   0.152   0.368
    1UNL    C15   23   0.645   0.029   0.169
    1UNL     O9   24   0.643  -0.095   0.108
    1UNL    C16   25   0.617   0.144   0.072
    1UNL    O10   26   0.712   0.142  -0.034
    1UNL    C17   27   0.040   0.282   0.035
    1UNL    C18   28   0.030   0.331   0.180
    1UNL    C19   29  -0.018   0.222   0.283
    1UNL    C20   30  -0.142   0.180   0.293
    1UNL    C21   31  -0.176   0.075   0.401
    1UNL    C22   32  -0.249   0.237   0.208
    1UNL    O11   33  -0.241   0.192   0.073
    1UNL    C23   34  -0.290   0.064   0.054
    1UNL    O12   35  -0.246   0.006  -0.074
    1UNL    C24   36  -0.275   0.100  -0.176
    1UNL    C25   37  -0.239   0.042  -0.318
    1UNL    C26   38  -0.422   0.148  -0.190
    1UNL    O13   39  -0.508   0.053  -0.243
    1UNL    C27   40  -0.481   0.180  -0.054
    1UNL    O14   41  -0.621   0.190  -0.067
    1UNL    C28   42  -0.444   0.077   0.054
    1UNL    O15   43  -0.512  -0.038   0.018
    1UNL    C29   44  -0.466  -0.164   0.066
    1UNL    O16   45  -0.384  -0.162   0.184
    1UNL    C30   46  -0.304  -0.280   0.197
    1UNL    C31   47  -0.261  -0.302   0.339
    1UNL    O17   48  -0.372  -0.307   0.427
    1UNL    C32   49  -0.377  -0.406   0.143
    1UNL    O18   50  -0.500  -0.421   0.203
    1UNL    C33   51  -0.406  -0.397  -0.012
    1UNL    O19   52  -0.517  -0.458  -0.054
    1UNL    C34   53  -0.412  -0.242  -0.050
    1UNL    O20   54  -0.485  -0.221  -0.163
    1UNL     H1   55   0.065   0.579  -0.019
    1UNL     H2   56   0.180   0.500   0.098
    1UNL     H3   57   0.223   0.546  -0.062
    1UNL     H4   58   0.131   0.443  -0.255
    1UNL     H5   59   0.110   0.240  -0.364
    1UNL     H6   60  -0.040   0.220  -0.273
    1UNL     H7   61   0.300   0.212  -0.179
    1UNL     H8   62   0.174  -0.074  -0.354
    1UNL     H9   63   0.310  -0.054  -0.561
    1UNL    H10   64   0.313  -0.210  -0.505
    1UNL    H11   65   0.454  -0.106  -0.486
    1UNL    H12   66   0.440  -0.176  -0.236
    1UNL    H13   67   0.184  -0.323  -0.222
    1UNL    H14   68   0.335  -0.194  -0.024
    1UNL    H15   69   0.091  -0.103  -0.148
    1UNL    H16   70   0.265   0.030   0.020
    1UNL    H17   71   0.450   0.230  -0.023
    1UNL    H18   72   0.369  -0.073   0.203
    1UNL    H19   73   0.199   0.047   0.353
    1UNL    H20   74   0.346   0.030   0.459
    1UNL    H21   75   0.383   0.239   0.378
    1UNL    H22   76   0.579  -0.051   0.354
    1UNL    H23   77   0.667   0.143   0.412
    1UNL    H24   78   0.749   0.053   0.208
    1UNL    H25   79   0.555  -0.091   0.063
    1UNL    H26   80   0.630   0.246   0.116
    1UNL    H27   81   0.687   0.061  -0.087
    1UNL    H28   82  -0.054   0.256  -0.007
    1UNL    H29   83   0.101   0.197   0.023
    1UNL    H30   84   0.129   0.364   0.212
    1UNL    H31   85  -0.035   0.416   0.185
    1UNL    H32   86   0.059   0.183   0.343
    1UNL    H33   87  -0.282   0.042   0.405
    1UNL    H34   88  -0.119  -0.015   0.390
    1UNL    H35   89  -0.154   0.111   0.497
    1UNL    H36   90  -0.352   0.209   0.237
    1UNL    H37   91  -0.246   0.352   0.206
    1UNL    H38   92  -0.246   0.003   0.132
    1UNL    H39   93  -0.216   0.183  -0.153
    1UNL    H40   94  -0.293  -0.054  -0.333
    1UNL    H41   95  -0.130   0.026  -0.327
    1UNL    H42   96  -0.265   0.106  -0.401
    1UNL    H43   97  -0.416   0.234  -0.251
    1UNL    H44   98  -0.594   0.096  -0.239
    1UNL    H45   99  -0.445   0.278  -0.016
    1UNL    H46  100  -0.658   0.140   0.012
    1UNL    H47  101  -0.480   0.103   0.157
    1UNL    H48  102  -0.559  -0.212   0.097
    1UNL    H49  103  -0.224  -0.267   0.126
    1UNL    H50  104  -0.200  -0.216   0.383
    1UNL    H51  105  -0.198  -0.386   0.374
    1UNL    H52  106  -0.442  -0.353   0.375
    1UNL    H53  107  -0.313  -0.493   0.163
    1UNL    H54  108  -0.547  -0.505   0.176
    1UNL    H55  109  -0.320  -0.445  -0.067
    1UNL    H56  110  -0.561  -0.403  -0.114
    1UNL    H57  111  -0.318  -0.201  -0.077
    1UNL    H58  112  -0.487  -0.121  -0.185
   0.00000   0.00000   0.00000   0.00000   0.00000   0.00000   0.00000   0.00000   0.00000
Generated with MDTraj, t= 93.0
 112
    1UNL     C1    1   0.169   0.509  -0.002
    1UNL     C2    2   0.113   0.380  -0.047
    1UNL     C3    3   0.125   0.353  -0.177
    1UNL     C4    4   0.069   0.224  -0.236
    1UNL     O1    5   0.109   0.112  -0.164
    1UNL     C5    6   0.240   0.094  -0.180
    1UNL     O2    7   0.277   0.044  -0.313
    1UNL     C6    8   0.252  -0.096  -0.339
    1UNL     C7    9   0.301  -0.135  -0.488
    1UNL     C8   10   0.337  -0.171  -0.234
    1UNL     O3   11   0.355  -0.311  -0.261
    1UNL     C9   12   0.270  -0.142  -0.097
    1UNL     O4   13   0.125  -0.167  -0.112
    1UNL    C10   14   0.300   0.008  -0.066
    1UNL     O5   15   0.439   0.023  -0.040
    1UNL    C11   16   0.469   0.145   0.025
    1UNL     O6   17   0.383   0.167   0.142
    1UNL    C12   18   0.392   0.055   0.228
    1UNL    C13   19   0.287   0.070   0.342
    1UNL     O7   20   0.300   0.200   0.402
    1UNL    C14   21   0.536   0.054   0.291
    1UNL     O8   22   0.563   0.172   0.363
    1UNL    C15   23   0.641   0.026   0.174
    1UNL     O9   24   0.608  -0.096   0.112
    1UNL    C16   25   0.622   0.138   0.060
    1UNL    O10   26   0.718   0.129  -0.052
    1UNL    C17   27   0.065   0.281   0.056
    1UNL    C18   28   0.015   0.336   0.189
    1UNL    C19   29  -0.016   0.233   0.296
    1UNL    C20   30  -0.128   0.171   0.312
    1UNL    C21   31  -0.136   0.068   0.417
    1UNL    C22   32  -0.252   0.199   0.236
    1UNL    O11   33  -0.242   0.184   0.097
    1UNL    C23   34  -0.300   0.062   0.048
    1UNL    O12   35  -0.258   0.006  -0.078
    1UNL    C24   36  -0.279   0.102  -0.182
    1UNL    C25   37  -0.215   0.058  -0.315
    1UNL    C26   38  -0.423   0.153  -0.197
    1UNL    O13   39  -0.501   0.058  -0.272
    1UNL    C27   40  -0.483   0.180  -0.057
    1UNL    O14   41  -0.621   0.219  -0.067
    1UNL    C28   42  -0.457   0.072   0.044
    1UNL    O15   43  -0.525  -0.045   0.010
    1UNL    C29   44  -0.463  -0.164   0.060
    1UNL    O16   45  -0.378  -0.153   0.175
    1UNL    C30   46  -0.294  -0.269   0.188
    1UNL    C31   47  -0.254  -0.294   0.331
    1UNL    O17   48  -0.367  -0.290   0.411
    1UNL    C32   49  -0.368  -0.397   0.137
    1UNL    O18   50  -0.489  -0.416   0.201
    1UNL    C33   51  -0.393  -0.394  -0.019
    1UNL    O19   52  -0.505  -0.467  -0.053
    1UNL    C34   53  -0.402  -0.240  -0.060
    1UNL    O20   54  -0.480  -0.225  -0.173
    1UNL     H1   55   0.112   0.542   0.083
    1UNL     H2   56   0.269   0.504   0.019
    1UNL     H3   57   0.151   0.592  -0.068
    1UNL     H4   58   0.165   0.428  -0.246
    1UNL     H5   59   0.116   0.204  -0.332
    1UNL     H6   60  -0.038   0.228  -0.239
    1UNL     H7   61   0.288   0.192  -0.175
    1UNL     H8   62   0.144  -0.108  -0.322
    1UNL     H9   63   0.248  -0.090  -0.563
    1UNL    H10   64   0.290  -0.239  -0.495
    1UNL    H11   65   0.408  -0.109  -0.495
    1UNL    H12   66   0.436  -0.120  -0.231
    1UNL    H13   67   0.266  -0.358  -0.244
    1UNL    H14   68   0.313  -0.230  -0.033
    1UNL    H15   69   0.073  -0.093  -0.141
    1UNL    H16   70   0.246   0.039   0.027
    1UNL    H17   71   0.460   0.231  -0.047
    1UNL    H18   72   0.366  -0.033   0.161
    1UNL    H19   73   0.189   0.064   0.300
    1UNL    H20   74   0.306   0.009   0.427
    1UNL    H21   75   0.396   0.219   0.397
    1UNL    H22   76   0.535  -0.028   0.369
    1UNL    H23   77   0.654   0.169   0.409
    1UNL    H24   78   0.740   0.014   0.223
    1UNL    H25   79   0.547  -0.078   0.038
    1UNL    H26   80   0.649   0.237   0.100
    1UNL    H27   81   0.689   0.050  -0.106
    1UNL    H28   82  -0.022   0.239   0.011
    1UNL    H29   83   0.133   0.204   0.063
    1UNL    H30   84   0.093   0.404   0.227
    1UNL    H31   85  -0.062   0.405   0.169
    1UNL    H32   86   0.075   0.193   0.347
    1UNL    H33   87  -0.183  -0.027   0.368
    1UNL    H34   88  -0.037   0.048   0.448
    1UNL    H35   89  -0.193   0.101   0.493
    1UNL    H36   90  -0.339   0.142   0.278
    1UNL    H37   91  -0.281   0.310   0.239
    1UNL    H38   92  -0.264  -0.010   0.121
    1UNL    H39   93  -0.228   0.183  -0.145
    1UNL    H40   94  -0.259  -0.041  -0.346
    1UNL    H41   95  -0.108   0.049  -0.304
    1UNL    H42   96  -0.234   0.129  -0.393
    1UNL    H43   97  -0.414   0.243  -0.254
    1UNL    H44   98  -0.597   0.080  -0.255
    1UNL    H45   99  -0.435   0.276  -0.021
    1UNL    H46  100  -0.680   0.140  -0.061
    1UNL    H47  101  -0.503   0.100   0.141
    1UNL    H48  102  -0.548  -0.227   0.088
    1UNL    H49  103  -0.207  -0.242   0.126
    1UNL    H50  104  -0.182  -0.222   0.382
    1UNL    H51  105  -0.209  -0.394   0.352
    1UNL    H52  106  -0.434  -0.322   0.349
    1UNL    H53  107  -0.303  -0.482   0.171
    1UNL    H54  108  -0.537  -0.495   0.172
    1UNL    H55  109  -0.307  -0.454  -0.060
    1UNL    H56  110  -0.563  -0.415  -0.125
    1UNL    H57  111  -0.312  -0.189  -0.083
    1UNL    H58  112  -0.509  -0.130  -0.189
   0.00000   0.00000   0.00000   0.00000   0.00000   0.00000   0.00000   0.00000   0.00000
Generated with MDTraj, t= 94.0
 112
    1UNL     C1    1   0.210   0.526  -0.010
    1UNL     C2    2   0.143   0.391  -0.029
    1UNL     C3    3   0.115   0.359  -0.153
    1UNL     C4    4   0.055   0.235  -0.211
    1UNL     O1    5   0.100   0.110  -0.150
    1UNL     C5    6   0.233   0.084  -0.177
    1UNL     O2    7   0.270   0.047  -0.315
    1UNL     C6    8   0.247  -0.096  -0.340
    1UNL     C7    9   0.285  -0.121  -0.490
    1UNL     C8   10   0.317  -0.184  -0.239
    1UNL     O3   11   0.311  -0.320  -0.274
    1UNL     C9   12   0.276  -0.160  -0.092
    1UNL     O4   13   0.137  -0.202  -0.070
    1UNL    C10   14   0.298  -0.004  -0.061
    1UNL     O5   15   0.437   0.015  -0.043
    1UNL    C11   16   0.467   0.140   0.020
    1UNL     O6   17   0.383   0.155   0.135
    1UNL    C12   18   0.401   0.046   0.225
    1UNL    C13   19   0.284   0.051   0.324
    1UNL     O7   20   0.281   0.180   0.393
    1UNL    C14   21   0.542   0.073   0.291
    1UNL     O8   22   0.540   0.199   0.353
    1UNL    C15   23   0.646   0.048   0.180
    1UNL     O9   24   0.641  -0.087   0.141
    1UNL    C16   25   0.617   0.140   0.055
    1UNL    O10   26   0.694   0.104  -0.061
    1UNL    C17   27   0.118   0.294   0.090
    1UNL    C18   28  -0.002   0.349   0.170
    1UNL    C19   29  -0.018   0.262   0.292
    1UNL    C20   30  -0.124   0.195   0.324
    1UNL    C21   31  -0.126   0.099   0.437
    1UNL    C22   32  -0.248   0.191   0.232
    1UNL    O11   33  -0.217   0.170   0.094
    1UNL    C23   34  -0.292   0.064   0.036
    1UNL    O12   35  -0.255   0.016  -0.093
    1UNL    C24   36  -0.284   0.112  -0.194
    1UNL    C25   37  -0.222   0.070  -0.326
    1UNL    C26   38  -0.435   0.144  -0.197
    1UNL    O13   39  -0.501   0.034  -0.256
    1UNL    C27   40  -0.490   0.185  -0.055
    1UNL    O14   41  -0.635   0.180  -0.060
    1UNL    C28   42  -0.446   0.088   0.051
    1UNL    O15   43  -0.519  -0.038   0.018
    1UNL    C29   44  -0.462  -0.160   0.056
    1UNL    O16   45  -0.381  -0.148   0.175
    1UNL    C30   46  -0.300  -0.267   0.181
    1UNL    C31   47  -0.259  -0.293   0.326
    1UNL    O17   48  -0.368  -0.283   0.411
    1UNL    C32   49  -0.371  -0.399   0.130
    1UNL    O18   50  -0.494  -0.434   0.189
    1UNL    C33   51  -0.382  -0.391  -0.029
    1UNL    O19   52  -0.492  -0.466  -0.077
    1UNL    C34   53  -0.393  -0.233  -0.067
    1UNL    O20   54  -0.469  -0.233  -0.188
    1UNL     H1   55   0.225   0.550   0.091
    1UNL     H2   56   0.297   0.534  -0.064
    1UNL     H3   57   0.139   0.603  -0.039
    1UNL     H4   58   0.129   0.433  -0.230
    1UNL     H5   59   0.090   0.222  -0.311
    1UNL     H6   60  -0.054   0.231  -0.205
    1UNL     H7   61   0.279   0.183  -0.168
    1UNL     H8   62   0.140  -0.109  -0.321
    1UNL     H9   63   0.234  -0.038  -0.544
    1UNL    H10   64   0.256  -0.211  -0.534
    1UNL    H11   65   0.390  -0.108  -0.503
    1UNL    H12   66   0.421  -0.153  -0.244
    1UNL    H13   67   0.224  -0.359  -0.249
    1UNL    H14   68   0.354  -0.214  -0.024
    1UNL    H15   69   0.079  -0.122  -0.054
    1UNL    H16   70   0.240   0.028   0.028
    1UNL    H17   71   0.438   0.225  -0.052
    1UNL    H18   72   0.400  -0.049   0.170
    1UNL    H19   73   0.183   0.056   0.282
    1UNL    H20   74   0.293  -0.025   0.400
    1UNL    H21   75   0.372   0.216   0.385
    1UNL    H22   76   0.543  -0.011   0.370
    1UNL    H23   77   0.625   0.218   0.400
    1UNL    H24   78   0.750   0.056   0.210
    1UNL    H25   79   0.567  -0.097   0.078
    1UNL    H26   80   0.649   0.243   0.072
    1UNL    H27   81   0.640   0.050  -0.119
    1UNL    H28   82   0.111   0.194   0.061
    1UNL    H29   83   0.200   0.304   0.153
    1UNL    H30   84   0.017   0.455   0.190
    1UNL    H31   85  -0.090   0.356   0.111
    1UNL    H32   86   0.067   0.250   0.352
    1UNL    H33   87  -0.219   0.056   0.452
    1UNL    H34   88  -0.054   0.026   0.412
    1UNL    H35   89  -0.089   0.152   0.533
    1UNL    H36   90  -0.308   0.105   0.267
    1UNL    H37   91  -0.306   0.284   0.258
    1UNL    H38   92  -0.260  -0.021   0.098
    1UNL    H39   93  -0.243   0.196  -0.154
    1UNL    H40   94  -0.298   0.012  -0.384
    1UNL    H41   95  -0.135   0.013  -0.309
    1UNL    H42   96  -0.193   0.158  -0.386
    1UNL    H43   97  -0.448   0.231  -0.262
    1UNL    H44   98  -0.593   0.037  -0.226
    1UNL    H45   99  -0.459   0.290  -0.025
    1UNL    H46  100  -0.660   0.092  -0.037
    1UNL    H47  101  -0.485   0.118   0.150
    1UNL    H48  102  -0.547  -0.223   0.084
    1UNL    H49  103  -0.211  -0.232   0.121
    1UNL    H50  104  -0.194  -0.208   0.365
    1UNL    H51  105  -0.209  -0.392   0.335
    1UNL    H52  106  -0.438  -0.330   0.356
    1UNL    H53  107  -0.310  -0.494   0.149
    1UNL    H54  108  -0.552  -0.487   0.126
    1UNL    H55  109  -0.298  -0.432  -0.090
    1UNL    H56  110  -0.533  -0.415  -0.142
    1UNL    H57  111  -0.301  -0.179  -0.090
    1UNL    H58  112  -0.470  -0.141  -0.217
   0.00000   0.00000   0.00000   0.00000   0.00000   0.00000   0.00000   0.00000   0.00000
Generated with MDTraj, t= 95.0
 112
    1UNL     C1    1   0.256   0.516  -0.012
    1UNL     C2    2   0.181   0.386  -0.038
    1UNL     C3    3   0.150   0.350  -0.160
    1UNL     C4    4   0.080   0.223  -0.201
    1UNL     O1    5   0.125   0.104  -0.126
    1UNL     C5    6   0.256   0.075  -0.159
    1UNL     O2    7   0.286   0.047  -0.294
    1UNL     C6    8   0.227  -0.074  -0.341
    1UNL     C7    9   0.235  -0.089  -0.492
    1UNL     C8   10   0.282  -0.201  -0.257
    1UNL     O3   11   0.198  -0.312  -0.287
    1UNL     C9   12   0.273  -0.173  -0.104
    1UNL     O4   13   0.138  -0.188  -0.057
    1UNL    C10   14   0.315  -0.034  -0.064
    1UNL     O5   15   0.453  -0.005  -0.042
    1UNL    C11   16   0.472   0.119   0.026
    1UNL     O6   17   0.385   0.137   0.137
    1UNL    C12   18   0.402   0.046   0.246
    1UNL    C13   19   0.290   0.052   0.352
    1UNL     O7   20   0.244   0.181   0.378
    1UNL    C14   21   0.547   0.082   0.300
    1UNL     O8   22   0.542   0.216   0.344
    1UNL    C15   23   0.653   0.061   0.185
    1UNL     O9   24   0.656  -0.070   0.137
    1UNL    C16   25   0.615   0.152   0.072
    1UNL    O10   26   0.700   0.148  -0.034
    1UNL    C17   27   0.139   0.297   0.074
    1UNL    C18   28  -0.002   0.338   0.129
    1UNL    C19   29  -0.028   0.266   0.261
    1UNL    C20   30  -0.128   0.194   0.300
    1UNL    C21   31  -0.133   0.148   0.438
    1UNL    C22   32  -0.254   0.172   0.219
    1UNL    O11   33  -0.232   0.166   0.074
    1UNL    C23   34  -0.299   0.050   0.022
    1UNL    O12   35  -0.264   0.020  -0.109
    1UNL    C24   36  -0.288   0.132  -0.192
    1UNL    C25   37  -0.252   0.098  -0.335
    1UNL    C26   38  -0.443   0.170  -0.189
    1UNL    O13   39  -0.509   0.067  -0.260
    1UNL    C27   40  -0.497   0.189  -0.044
    1UNL    O14   41  -0.640   0.185  -0.050
    1UNL    C28   42  -0.448   0.074   0.043
    1UNL    O15   43  -0.513  -0.054   0.006
    1UNL    C29   44  -0.452  -0.171   0.051
    1UNL    O16   45  -0.368  -0.157   0.167
    1UNL    C30   46  -0.298  -0.274   0.197
    1UNL    C31   47  -0.268  -0.300   0.348
    1UNL    O17   48  -0.387  -0.331   0.421
    1UNL    C32   49  -0.359  -0.403   0.132
    1UNL    O18   50  -0.485  -0.432   0.178
    1UNL    C33   51  -0.362  -0.396  -0.024
    1UNL    O19   52  -0.466  -0.475  -0.072
    1UNL    C34   53  -0.384  -0.250  -0.064
    1UNL    O20   54  -0.455  -0.248  -0.183
    1UNL     H1   55   0.337   0.505   0.051
    1UNL     H2   56   0.285   0.560  -0.105
    1UNL     H3   57   0.188   0.578   0.042
    1UNL     H4   58   0.175   0.414  -0.242
    1UNL     H5   59   0.083   0.196  -0.303
    1UNL     H6   60  -0.025   0.232  -0.165
    1UNL     H7   61   0.309   0.170  -0.150
    1UNL     H8   62   0.121  -0.067  -0.320
    1UNL     H9   63   0.179  -0.011  -0.553
    1UNL    H10   64   0.208  -0.186  -0.527
    1UNL    H11   65   0.333  -0.087  -0.523
    1UNL    H12   66   0.375  -0.239  -0.290
    1UNL    H13   67   0.111  -0.307  -0.245
    1UNL    H14   68   0.338  -0.246  -0.041
    1UNL    H15   69   0.090  -0.105  -0.086
    1UNL    H16   70   0.256  -0.016   0.027
    1UNL    H17   71   0.433   0.200  -0.042
    1UNL    H18   72   0.409  -0.048   0.194
    1UNL    H19   73   0.197   0.001   0.314
    1UNL    H20   74   0.317   0.021   0.454
    1UNL    H21   75   0.327   0.232   0.381
    1UNL    H22   76   0.576   0.015   0.390
    1UNL    H23   77   0.628   0.238   0.377
    1UNL    H24   78   0.750   0.089   0.218
    1UNL    H25   79   0.590  -0.069   0.063
    1UNL    H26   80   0.609   0.251   0.119
    1UNL    H27   81   0.712   0.057  -0.064
    1UNL    H28   82   0.143   0.196   0.047
    1UNL    H29   83   0.213   0.307   0.148
    1UNL    H30   84  -0.014   0.447   0.142
    1UNL    H31   85  -0.078   0.312   0.058
    1UNL    H32   86   0.052   0.289   0.332
    1UNL    H33   87  -0.204   0.195   0.494
    1UNL    H34   88  -0.149   0.043   0.437
    1UNL    H35   89  -0.030   0.155   0.495
    1UNL    H36   90  -0.294   0.076   0.256
    1UNL    H37   91  -0.331   0.248   0.244
    1UNL    H38   92  -0.258  -0.035   0.076
    1UNL    H39   93  -0.232   0.207  -0.152
    1UNL    H40   94  -0.296  -0.001  -0.347
    1UNL    H41   95  -0.147   0.091  -0.355
    1UNL    H42   96  -0.301   0.165  -0.409
    1UNL    H43   97  -0.457   0.265  -0.246
    1UNL    H44   98  -0.607   0.077  -0.249
    1UNL    H45   99  -0.456   0.284   0.006
    1UNL    H46  100  -0.671   0.107   0.011
    1UNL    H47  101  -0.476   0.106   0.143
    1UNL    H48  102  -0.532  -0.235   0.087
    1UNL    H49  103  -0.194  -0.247   0.159
    1UNL    H50  104  -0.217  -0.215   0.400
    1UNL    H51  105  -0.202  -0.387   0.355
    1UNL    H52  106  -0.464  -0.340   0.366
    1UNL    H53  107  -0.297  -0.491   0.174
    1UNL    H54  108  -0.536  -0.497   0.126
    1UNL    H55  109  -0.270  -0.438  -0.065
    1UNL    H56  110  -0.515  -0.423  -0.149
    1UNL    H57  111  -0.280  -0.212  -0.075
    1UNL    H58  112  -0.475  -0.154  -0.201
   0.00000   0.00000   0.00000   0.00000   0.00000   0.00000   0.00000   0.00000   0.00000
Generated with MDTraj, t= 96.0
 112
    1UNL     C1    1   0.301   0.492  -0.048
    1UNL     C2    2   0.200   0.379  -0.059
    1UNL     C3    3   0.158   0.345  -0.177
    1UNL     C4    4   0.072   0.222  -0.203
    1UNL     O1    5   0.125   0.107  -0.132
    1UNL     C5    6   0.263   0.091  -0.170
    1UNL     O2    7   0.278   0.043  -0.308
    1UNL     C6    8   0.197  -0.069  -0.342
    1UNL     C7    9   0.171  -0.086  -0.488
    1UNL     C8   10   0.249  -0.193  -0.264
    1UNL     O3   11   0.164  -0.296  -0.280
    1UNL     C9   12   0.254  -0.159  -0.114
    1UNL     O4   13   0.124  -0.167  -0.053
    1UNL    C10   14   0.316  -0.025  -0.069
    1UNL     O5   15   0.463  -0.007  -0.044
    1UNL    C11   16   0.476   0.115   0.029
    1UNL     O6   17   0.385   0.134   0.133
    1UNL    C12   18   0.404   0.052   0.252
    1UNL    C13   19   0.285   0.072   0.349
    1UNL     O7   20   0.275   0.205   0.393
    1UNL    C14   21   0.545   0.086   0.316
    1UNL     O8   22   0.557   0.211   0.386
    1UNL    C15   23   0.658   0.057   0.209
    1UNL     O9   24   0.680  -0.080   0.163
    1UNL    C16   25   0.618   0.147   0.092
    1UNL    O10   26   0.716   0.152  -0.008
    1UNL    C17   27   0.167   0.306   0.066
    1UNL    C18   28   0.013   0.296   0.107
    1UNL    C19   29  -0.015   0.248   0.250
    1UNL    C20   30  -0.132   0.209   0.296
    1UNL    C21   31  -0.139   0.180   0.444
    1UNL    C22   32  -0.253   0.190   0.212
    1UNL    O11   33  -0.223   0.166   0.070
    1UNL    C23   34  -0.285   0.048   0.014
    1UNL    O12   35  -0.262   0.034  -0.127
    1UNL    C24   36  -0.313   0.144  -0.203
    1UNL    C25   37  -0.274   0.152  -0.353
    1UNL    C26   38  -0.468   0.144  -0.193
    1UNL    O13   39  -0.527   0.025  -0.246
    1UNL    C27   40  -0.498   0.174  -0.045
    1UNL    O14   41  -0.638   0.185  -0.014
    1UNL    C28   42  -0.439   0.055   0.035
    1UNL    O15   43  -0.519  -0.064   0.005
    1UNL    C29   44  -0.462  -0.183   0.051
    1UNL    O16   45  -0.400  -0.180   0.181
    1UNL    C30   46  -0.305  -0.282   0.207
    1UNL    C31   47  -0.283  -0.305   0.358
    1UNL    O17   48  -0.408  -0.338   0.420
    1UNL    C32   49  -0.347  -0.414   0.134
    1UNL    O18   50  -0.476  -0.447   0.157
    1UNL    C33   51  -0.340  -0.394  -0.024
    1UNL    O19   52  -0.444  -0.469  -0.090
    1UNL    C34   53  -0.364  -0.241  -0.056
    1UNL    O20   54  -0.423  -0.247  -0.181
    1UNL     H1   55   0.403   0.468  -0.058
    1UNL     H2   56   0.281   0.574  -0.116
    1UNL     H3   57   0.289   0.526   0.048
    1UNL     H4   58   0.181   0.402  -0.268
    1UNL     H5   59   0.075   0.198  -0.305
    1UNL     H6   60  -0.031   0.240  -0.164
    1UNL     H7   61   0.323   0.181  -0.164
    1UNL     H8   62   0.100  -0.038  -0.303
    1UNL     H9   63   0.131   0.005  -0.536
    1UNL    H10   64   0.109  -0.173  -0.512
    1UNL    H11   65   0.257  -0.114  -0.542
    1UNL    H12   66   0.345  -0.221  -0.298
    1UNL    H13   67   0.077  -0.270  -0.233
    1UNL    H14   68   0.318  -0.239  -0.063
    1UNL    H15   69   0.087  -0.078  -0.058
    1UNL    H16   70   0.274  -0.013   0.029
    1UNL    H17   71   0.473   0.197  -0.047
    1UNL    H18   72   0.413  -0.048   0.220
    1UNL    H19   73   0.185   0.066   0.292
    1UNL    H20   74   0.295   0.003   0.436
    1UNL    H21   75   0.367   0.237   0.405
    1UNL    H22   76   0.556   0.009   0.401
    1UNL    H23   77   0.647   0.220   0.416
    1UNL    H24   78   0.750   0.095   0.244
    1UNL    H25   79   0.599  -0.109   0.117
    1UNL    H26   80   0.632   0.248   0.135
    1UNL    H27   81   0.762   0.066  -0.029
    1UNL    H28   82   0.192   0.205   0.044
    1UNL    H29   83   0.230   0.335   0.147
    1UNL    H30   84  -0.033   0.394   0.093
    1UNL    H31   85  -0.035   0.222   0.042
    1UNL    H32   86   0.071   0.265   0.313
    1UNL    H33   87  -0.117   0.271   0.505
    1UNL    H34   88  -0.242   0.147   0.462
    1UNL    H35   89  -0.084   0.098   0.473
    1UNL    H36   90  -0.323   0.112   0.241
    1UNL    H37   91  -0.317   0.277   0.208
    1UNL    H38   92  -0.240  -0.039   0.062
    1UNL    H39   93  -0.277   0.228  -0.154
    1UNL    H40   94  -0.347   0.093  -0.403
    1UNL    H41   95  -0.177   0.104  -0.375
    1UNL    H42   96  -0.272   0.254  -0.396
    1UNL    H43   97  -0.508   0.231  -0.256
    1UNL    H44   98  -0.625   0.039  -0.256
    1UNL    H45   99  -0.451   0.273  -0.021
    1UNL    H46  100  -0.678   0.100  -0.004
    1UNL    H47  101  -0.468   0.078   0.136
    1UNL    H48  102  -0.541  -0.257   0.063
    1UNL    H49  103  -0.206  -0.248   0.163
    1UNL    H50  104  -0.261  -0.206   0.401
    1UNL    H51  105  -0.207  -0.377   0.382
    1UNL    H52  106  -0.489  -0.338   0.360
    1UNL    H53  107  -0.279  -0.505   0.150
    1UNL    H54  108  -0.491  -0.533   0.108
    1UNL    H55  109  -0.250  -0.431  -0.073
    1UNL    H56  110  -0.470  -0.417  -0.171
    1UNL    H57  111  -0.262  -0.192  -0.052
    1UNL    H58  112  -0.455  -0.158  -0.213
   0.00000   0.00000   0.00000   0.00000   0.00000   0.00000   0.00000   0.00000   0.00000
Generated with MDTraj, t= 97.0
 112
    1UNL     C1    1   0.297   0.518  -0.058
    1UNL     C2    2   0.204   0.404  -0.071
    1UNL     C3    3   0.162   0.366  -0.186
    1UNL     C4    4   0.075   0.249  -0.208
    1UNL     O1    5   0.118   0.137  -0.130
    1UNL     C5    6   0.247   0.097  -0.164
    1UNL     O2    7   0.258   0.053  -0.300
    1UNL     C6    8   0.180  -0.065  -0.320
    1UNL     C7    9   0.160  -0.104  -0.465
    1UNL     C8   10   0.255  -0.177  -0.238
    1UNL     O3   11   0.192  -0.302  -0.256
    1UNL     C9   12   0.268  -0.145  -0.085
    1UNL     O4   13   0.137  -0.179  -0.020
    1UNL    C10   14   0.301  -0.000  -0.060
    1UNL     O5   15   0.443   0.016  -0.043
    1UNL    C11   16   0.473   0.129   0.032
    1UNL     O6   17   0.381   0.156   0.140
    1UNL    C12   18   0.399   0.056   0.241
    1UNL    C13   19   0.284   0.085   0.337
    1UNL     O7   20   0.289   0.218   0.386
    1UNL    C14   21   0.542   0.063   0.319
    1UNL     O8   22   0.567   0.185   0.387
    1UNL    C15   23   0.646   0.025   0.211
    1UNL     O9   24   0.637  -0.111   0.156
    1UNL    C16   25   0.624   0.123   0.085
    1UNL    O10   26   0.702   0.082  -0.023
    1UNL    C17   27   0.168   0.326   0.054
    1UNL    C18   28   0.027   0.277   0.078
    1UNL    C19   29  -0.000   0.252   0.228
    1UNL    C20   30  -0.113   0.212   0.285
    1UNL    C21   31  -0.118   0.185   0.434
    1UNL    C22   32  -0.242   0.187   0.210
    1UNL    O11   33  -0.225   0.171   0.073
    1UNL    C23   34  -0.290   0.053   0.017
    1UNL    O12   35  -0.275   0.041  -0.125
    1UNL    C24   36  -0.325   0.151  -0.202
    1UNL    C25   37  -0.286   0.138  -0.355
    1UNL    C26   38  -0.478   0.164  -0.182
    1UNL    O13   39  -0.554   0.058  -0.246
    1UNL    C27   40  -0.522   0.169  -0.031
    1UNL    O14   41  -0.660   0.139  -0.023
    1UNL    C28   42  -0.441   0.051   0.043
    1UNL    O15   43  -0.501  -0.066  -0.002
    1UNL    C29   44  -0.442  -0.184   0.050
    1UNL    O16   45  -0.372  -0.169   0.170
    1UNL    C30   46  -0.296  -0.288   0.213
    1UNL    C31   47  -0.311  -0.297   0.362
    1UNL    O17   48  -0.442  -0.335   0.402
    1UNL    C32   49  -0.329  -0.427   0.130
    1UNL    O18   50  -0.465  -0.463   0.144
    1UNL    C33   51  -0.319  -0.401  -0.023
    1UNL    O19   52  -0.405  -0.481  -0.097
    1UNL    C34   53  -0.348  -0.247  -0.059
    1UNL    O20   54  -0.397  -0.243  -0.193
    1UNL     H1   55   0.360   0.535  -0.143
    1UNL     H2   56   0.241   0.609  -0.050
    1UNL     H3   57   0.356   0.508   0.025
    1UNL     H4   58   0.184   0.411  -0.278
    1UNL     H5   59   0.076   0.215  -0.307
    1UNL     H6   60  -0.028   0.274  -0.172
    1UNL     H7   61   0.314   0.181  -0.149
    1UNL     H8   62   0.081  -0.048  -0.278
    1UNL     H9   63   0.119  -0.023  -0.518
    1UNL    H10   64   0.105  -0.199  -0.478
    1UNL    H11   65   0.259  -0.133  -0.512
    1UNL    H12   66   0.353  -0.191  -0.277
    1UNL    H13   67   0.104  -0.297  -0.224
    1UNL    H14   68   0.352  -0.207  -0.040
    1UNL    H15   69   0.064  -0.115  -0.050
    1UNL    H16   70   0.251   0.022   0.033
    1UNL    H17   71   0.460   0.228  -0.017
    1UNL    H18   72   0.392  -0.043   0.202
    1UNL    H19   73   0.187   0.062   0.276
    1UNL    H20   74   0.301   0.020   0.428
    1UNL    H21   75   0.384   0.240   0.396
    1UNL    H22   76   0.537  -0.017   0.400
    1UNL    H23   77   0.661   0.184   0.419
    1UNL    H24   78   0.744   0.042   0.244
    1UNL    H25   79   0.566  -0.117   0.087
    1UNL    H26   80   0.652   0.224   0.122
    1UNL    H27   81   0.717  -0.017  -0.015
    1UNL    H28   82   0.242   0.243   0.067
    1UNL    H29   83   0.185   0.395   0.135
    1UNL    H30   84  -0.044   0.355   0.054
    1UNL    H31   85   0.004   0.179   0.027
    1UNL    H32   86   0.089   0.255   0.286
    1UNL    H33   87  -0.017   0.195   0.480
    1UNL    H34   88  -0.184   0.260   0.482
    1UNL    H35   89  -0.165   0.097   0.459
    1UNL    H36   90  -0.288   0.096   0.246
    1UNL    H37   91  -0.315   0.264   0.225
    1UNL    H38   92  -0.240  -0.033   0.065
    1UNL    H39   93  -0.280   0.236  -0.160
    1UNL    H40   94  -0.284   0.036  -0.382
    1UNL    H41   95  -0.185   0.179  -0.388
    1UNL    H42   96  -0.360   0.187  -0.415
    1UNL    H43   97  -0.508   0.263  -0.233
    1UNL    H44   98  -0.641   0.054  -0.202
    1UNL    H45   99  -0.498   0.265   0.017
    1UNL    H46  100  -0.681   0.095   0.063
    1UNL    H47  101  -0.458   0.045   0.150
    1UNL    H48  102  -0.524  -0.249   0.076
    1UNL    H49  103  -0.186  -0.265   0.196
    1UNL    H50  104  -0.291  -0.200   0.408
    1UNL    H51  105  -0.249  -0.372   0.407
    1UNL    H52  106  -0.499  -0.360   0.328
    1UNL    H53  107  -0.264  -0.503   0.181
    1UNL    H54  108  -0.494  -0.546   0.099
    1UNL    H55  109  -0.218  -0.420  -0.056
    1UNL    H56  110  -0.423  -0.438  -0.183
    1UNL    H57  111  -0.248  -0.193  -0.054
    1UNL    H58  112  -0.433  -0.151  -0.204
   0.00000   0.00000   0.00000   0.00000   0.00000   0.00000   0.00000   0.00000   0.00000
Generated with MDTraj, t= 98.0
 112
    1UNL     C1    1   0.248   0.575  -0.075
    1UNL     C2    2   0.165   0.447  -0.072
    1UNL     C3    3   0.141   0.387  -0.187
    1UNL     C4    4   0.081   0.245  -0.207
    1UNL     O1    5   0.121   0.146  -0.115
    1UNL     C5    6   0.246   0.104  -0.154
    1UNL     O2    7   0.257   0.042  -0.287
    1UNL     C6    8   0.192  -0.084  -0.295
    1UNL     C7    9   0.185  -0.129  -0.444
    1UNL     C8   10   0.260  -0.188  -0.200
    1UNL     O3   11   0.218  -0.323  -0.221
    1UNL     C9   12   0.242  -0.141  -0.059
    1UNL     O4   13   0.103  -0.159  -0.025
    1UNL    C10   14   0.295   0.003  -0.046
    1UNL     O5   15   0.436   0.002  -0.041
    1UNL    C11   16   0.479   0.120   0.028
    1UNL     O6   17   0.400   0.162   0.142
    1UNL    C12   18   0.393   0.056   0.239
    1UNL    C13   19   0.287   0.088   0.345
    1UNL     O7   20   0.299   0.219   0.386
    1UNL    C14   21   0.530   0.036   0.300
    1UNL     O8   22   0.573   0.166   0.348
    1UNL    C15   23   0.614  -0.020   0.187
    1UNL     O9   24   0.569  -0.143   0.130
    1UNL    C16   25   0.622   0.093   0.077
    1UNL    O10   26   0.704   0.052  -0.028
    1UNL    C17   27   0.144   0.379   0.062
    1UNL    C18   28  -0.000   0.340   0.088
    1UNL    C19   29  -0.012   0.273   0.223
    1UNL    C20   30  -0.111   0.211   0.278
    1UNL    C21   31  -0.098   0.159   0.419
    1UNL    C22   32  -0.240   0.178   0.209
    1UNL    O11   33  -0.236   0.189   0.074
    1UNL    C23   34  -0.290   0.069   0.015
    1UNL    O12   35  -0.269   0.054  -0.129
    1UNL    C24   36  -0.324   0.163  -0.206
    1UNL    C25   37  -0.287   0.135  -0.356
    1UNL    C26   38  -0.478   0.164  -0.180
    1UNL    O13   39  -0.539   0.047  -0.234
    1UNL    C27   40  -0.518   0.168  -0.029
    1UNL    O14   41  -0.650   0.138  -0.014
    1UNL    C28   42  -0.440   0.053   0.047
    1UNL    O15   43  -0.494  -0.068   0.010
    1UNL    C29   44  -0.418  -0.185   0.051
    1UNL    O16   45  -0.347  -0.172   0.171
    1UNL    C30   46  -0.281  -0.298   0.218
    1UNL    C31   47  -0.320  -0.326   0.360
    1UNL    O17   48  -0.462  -0.319   0.376
    1UNL    C32   49  -0.316  -0.421   0.124
    1UNL    O18   50  -0.456  -0.447   0.136
    1UNL    C33   51  -0.283  -0.393  -0.022
    1UNL    O19   52  -0.346  -0.487  -0.108
    1UNL    C34   53  -0.330  -0.244  -0.061
    1UNL    O20   54  -0.394  -0.239  -0.191
    1UNL     H1   55   0.223   0.632  -0.161
    1UNL     H2   56   0.223   0.637   0.003
    1UNL     H3   57   0.352   0.548  -0.075
    1UNL     H4   58   0.169   0.428  -0.287
    1UNL     H5   59   0.111   0.203  -0.298
    1UNL     H6   60  -0.030   0.235  -0.199
    1UNL     H7   61   0.307   0.195  -0.140
    1UNL     H8   62   0.087  -0.072  -0.266
    1UNL     H9   63   0.128  -0.056  -0.491
    1UNL    H10   64   0.150  -0.234  -0.455
    1UNL    H11   65   0.289  -0.133  -0.494
    1UNL    H12   66   0.366  -0.191  -0.221
    1UNL    H13   67   0.119  -0.331  -0.197
    1UNL    H14   68   0.310  -0.205  -0.000
    1UNL    H15   69   0.046  -0.101  -0.082
    1UNL    H16   70   0.259   0.047   0.045
    1UNL    H17   71   0.476   0.208  -0.036
    1UNL    H18   72   0.363  -0.040   0.198
    1UNL    H19   73   0.181   0.067   0.299
    1UNL    H20   74   0.309   0.014   0.429
    1UNL    H21   75   0.393   0.249   0.387
    1UNL    H22   76   0.529  -0.034   0.387
    1UNL    H23   77   0.670   0.157   0.379
    1UNL    H24   78   0.714  -0.032   0.217
    1UNL    H25   79   0.546  -0.135   0.035
    1UNL    H26   80   0.667   0.185   0.122
    1UNL    H27   81   0.658   0.012  -0.103
    1UNL    H28   82   0.210   0.287   0.070
    1UNL    H29   83   0.178   0.438   0.150
    1UNL    H30   84  -0.067   0.425   0.084
    1UNL    H31   85  -0.035   0.260   0.017
    1UNL    H32   86   0.080   0.271   0.286
    1UNL    H33   87  -0.034   0.072   0.420
    1UNL    H34   88  -0.052   0.233   0.483
    1UNL    H35   89  -0.207   0.140   0.475
    1UNL    H36   90  -0.261   0.078   0.243
    1UNL    H37   91  -0.314   0.241   0.246
    1UNL    H38   92  -0.229  -0.012   0.065
    1UNL    H39   93  -0.279   0.252  -0.168
    1UNL    H40   94  -0.357   0.065  -0.399
    1UNL    H41   95  -0.194   0.074  -0.356
    1UNL    H42   96  -0.271   0.221  -0.418
    1UNL    H43   97  -0.530   0.252  -0.232
    1UNL    H44   98  -0.637   0.062  -0.251
    1UNL    H45   99  -0.503   0.265   0.016
    1UNL    H46  100  -0.660   0.036  -0.017
    1UNL    H47  101  -0.456   0.058   0.155
    1UNL    H48  102  -0.500  -0.253   0.067
    1UNL    H49  103  -0.174  -0.283   0.193
    1UNL    H50  104  -0.280  -0.256   0.433
    1UNL    H51  105  -0.291  -0.426   0.383
    1UNL    H52  106  -0.495  -0.287   0.287
    1UNL    H53  107  -0.267  -0.513   0.151
    1UNL    H54  108  -0.475  -0.539   0.097
    1UNL    H55  109  -0.178  -0.414  -0.049
    1UNL    H56  110  -0.386  -0.443  -0.193
    1UNL    H57  111  -0.241  -0.174  -0.077
    1UNL    H58  112  -0.439  -0.152  -0.199
   0.00000   0.00000   0.00000   0.00000   0.00000   0.00000   0.00000   0.00000   0.00000
Generated with MDTraj, t= 99.0
 112
    1UNL     C1    1   0.152   0.592  -0.094
    1UNL     C2    2   0.130   0.444  -0.084
    1UNL     C3    3   0.090   0.390  -0.199
    1UNL     C4    4   0.045   0.244  -0.220
    1UNL     O1    5   0.095   0.141  -0.138
    1UNL     C5    6   0.222   0.099  -0.166
    1UNL     O2    7   0.235   0.038  -0.295
    1UNL     C6    8   0.180  -0.092  -0.306
    1UNL     C7    9   0.233  -0.145  -0.441
    1UNL     C8   10   0.227  -0.190  -0.185
    1UNL     O3   11   0.182  -0.323  -0.188
    1UNL     C9   12   0.192  -0.128  -0.053
    1UNL     O4   13   0.050  -0.114  -0.033
    1UNL    C10   14   0.270   0.002  -0.045
    1UNL     O5   15   0.413  -0.009  -0.036
    1UNL    C11   16   0.483   0.098   0.031
    1UNL     O6   17   0.407   0.150   0.138
    1UNL    C12   18   0.394   0.058   0.244
    1UNL    C13   19   0.306   0.100   0.363
    1UNL     O7   20   0.330   0.235   0.401
    1UNL    C14   21   0.531   0.018   0.299
    1UNL     O8   22   0.576   0.132   0.373
    1UNL    C15   23   0.630  -0.035   0.196
    1UNL     O9   24   0.593  -0.160   0.148
    1UNL    C16   25   0.630   0.070   0.076
    1UNL    O10   26   0.706   0.016  -0.028
    1UNL    C17   27   0.141   0.384   0.051
    1UNL    C18   28   0.001   0.377   0.124
    1UNL    C19   29   0.003   0.290   0.242
    1UNL    C20   30  -0.100   0.221   0.282
    1UNL    C21   31  -0.085   0.134   0.401
    1UNL    C22   32  -0.231   0.214   0.208
    1UNL    O11   33  -0.219   0.185   0.065
    1UNL    C23   34  -0.273   0.069   0.013
    1UNL    O12   35  -0.255   0.051  -0.127
    1UNL    C24   36  -0.315   0.156  -0.199
    1UNL    C25   37  -0.267   0.153  -0.343
    1UNL    C26   38  -0.469   0.142  -0.184
    1UNL    O13   39  -0.511   0.015  -0.225
    1UNL    C27   40  -0.504   0.161  -0.034
    1UNL    O14   41  -0.641   0.146  -0.011
    1UNL    C28   42  -0.429   0.053   0.047
    1UNL    O15   43  -0.491  -0.072   0.017
    1UNL    C29   44  -0.410  -0.181   0.041
    1UNL    O16   45  -0.336  -0.167   0.167
    1UNL    C30   46  -0.276  -0.287   0.215
    1UNL    C31   47  -0.323  -0.317   0.354
    1UNL    O17   48  -0.466  -0.331   0.362
    1UNL    C32   49  -0.296  -0.400   0.112
    1UNL    O18   50  -0.434  -0.449   0.129
    1UNL    C33   51  -0.254  -0.366  -0.035
    1UNL    O19   52  -0.302  -0.468  -0.122
    1UNL    C34   53  -0.311  -0.229  -0.073
    1UNL    O20   54  -0.392  -0.237  -0.190
    1UNL     H1   55   0.058   0.636  -0.094
    1UNL     H2   56   0.198   0.631  -0.010
    1UNL     H3   57   0.211   0.614  -0.184
    1UNL     H4   58   0.071   0.445  -0.285
    1UNL     H5   59   0.073   0.207  -0.315
    1UNL     H6   60  -0.064   0.224  -0.206
    1UNL     H7   61   0.281   0.194  -0.164
    1UNL     H8   62   0.070  -0.078  -0.310
    1UNL     H9   63   0.198  -0.089  -0.531
    1UNL    H10   64   0.218  -0.255  -0.442
    1UNL    H11   65   0.345  -0.148  -0.440
    1UNL    H12   66   0.338  -0.182  -0.197
    1UNL    H13   67   0.080  -0.326  -0.172
    1UNL    H14   68   0.225  -0.193   0.026
    1UNL    H15   69   0.022  -0.024  -0.053
    1UNL    H16   70   0.235   0.050   0.046
    1UNL    H17   71   0.492   0.177  -0.042
    1UNL    H18   72   0.350  -0.037   0.206
    1UNL    H19   73   0.201   0.098   0.312
    1UNL    H20   74   0.309   0.028   0.448
    1UNL    H21   75   0.425   0.259   0.391
    1UNL    H22   76   0.519  -0.057   0.377
    1UNL    H23   77   0.670   0.111   0.399
    1UNL    H24   78   0.725  -0.045   0.244
    1UNL    H25   79   0.524  -0.165   0.076
    1UNL    H26   80   0.677   0.166   0.106
    1UNL    H27   81   0.659  -0.045  -0.088
    1UNL    H28   82   0.181   0.280   0.044
    1UNL    H29   83   0.219   0.439   0.113
    1UNL    H30   84  -0.046   0.470   0.152
    1UNL    H31   85  -0.076   0.331   0.055
    1UNL    H32   86   0.092   0.288   0.295
    1UNL    H33   87  -0.127   0.034   0.375
    1UNL    H34   88   0.025   0.121   0.423
    1UNL    H35   89  -0.134   0.184   0.489
    1UNL    H36   90  -0.297   0.143   0.255
    1UNL    H37   91  -0.281   0.306   0.216
    1UNL    H38   92  -0.220  -0.013   0.068
    1UNL    H39   93  -0.282   0.250  -0.153
    1UNL    H40   94  -0.235   0.050  -0.371
    1UNL    H41   95  -0.176   0.209  -0.350
    1UNL    H42   96  -0.334   0.201  -0.411
    1UNL    H43   97  -0.522   0.206  -0.257
    1UNL    H44   98  -0.589  -0.011  -0.175
    1UNL    H45   99  -0.483   0.261  -0.003
    1UNL    H46  100  -0.662   0.056   0.012
    1UNL    H47  101  -0.442   0.065   0.155
    1UNL    H48  102  -0.485  -0.253   0.052
    1UNL    H49  103  -0.170  -0.266   0.228
    1UNL    H50  104  -0.299  -0.225   0.409
    1UNL    H51  105  -0.272  -0.401   0.400
    1UNL    H52  106  -0.482  -0.378   0.278
    1UNL    H53  107  -0.245  -0.482   0.154
    1UNL    H54  108  -0.454  -0.480   0.041
    1UNL    H55  109  -0.141  -0.364  -0.040
    1UNL    H56  110  -0.337  -0.436  -0.204
    1UNL    H57  111  -0.238  -0.146  -0.095
    1UNL    H58  112  -0.438  -0.152  -0.204
   0.00000   0.00000   0.00000   0.00000   0.00000   0.00000   0.00000   0.00000   0.00000
