1TPCN00485
20
    1res  C1    1    0.018  -0.196   0.080
    1res  C2    2    0.239   0.037  -0.061
    1res  C3    3    0.377  -0.167  -0.091
    1res  C4    4    0.494  -0.418   0.034
    1res  C5    5    0.600  -0.296  -0.224
    1res  C6    6    0.574  -0.062  -0.076
    1res  C7    7    0.776   0.104  -0.019
    1res  C8    8    0.832   0.264   0.227
    1res  C9    9    0.925   0.312  -0.132
    1res  C10   10    0.709   0.205  -0.254
    1res  C11   11    0.021   0.059   0.248
    1res  C12   12   -0.297   0.185   0.138
    1res  C13   13   -0.397  -0.034   0.010
    1res  C14   14   -0.250  -0.032  -0.205
    1res  C15   15   -0.504  -0.252  -0.200
    1res  C16   16   -0.582  -0.156   0.051
    1res  C17   17   -0.710   0.065   0.137
    1res  C18   18   -0.863   0.316   0.225
    1res  C19   19   -0.920   0.093  -0.055
    1res  C20   20   -0.940  -0.096   0.164
  10.00000  10.00000  10.00000
