1TPCN06074
38
    1res  C1    1    0.094  -0.203   0.386
    1res  C2    2    0.173   0.084   0.349
    1res  C3    3    0.200  -0.104   0.140
    1res  C4    4   -0.049   0.046   0.069
    1res  C5    5   -0.288  -0.017  -0.050
    1res  C6    6   -0.532  -0.040   0.111
    1res  C7    7   -0.704   0.114   0.141
    1res  C8    8   -0.821   0.148   0.432
    1res  C9    9   -0.984   0.195   0.194
    1res  C10   10   -0.999   0.066   0.008
    1res  C11   11   -0.803   0.173  -0.077
    1res  C12   12   -0.886   0.352  -0.203
    1res  C13   13   -1.177   0.434  -0.278
    1res  C14   14   -0.965   0.651  -0.220
    1res  C15   15   -0.781   0.645  -0.099
    1res  C16   16   -0.628   0.472  -0.182
    1res  C17   17   -0.496  -0.181  -0.171
    1res  C18   18   -0.329  -0.306  -0.109
    1res  C19   19   -0.501  -0.515   0.029
    1res  C20   20   -0.667  -0.642  -0.119
    1res  C21   21   -0.529  -0.757   0.153
    1res  C22   22   -0.299  -0.767   0.074
    1res  C23   23   -0.243  -0.506   0.133
    1res  C24   24   -0.126  -0.254  -0.162
    1res  C25   25    0.210   0.229  -0.032
    1res  C26   26    0.182  -0.042  -0.226
    1res  C27   27    0.400  -0.237  -0.140
    1res  C28   28    0.419   0.051  -0.353
    1res  C29   29    0.720  -0.119  -0.280
    1res  C30   30    0.723  -0.116   0.012
    1res  C31   31    0.872   0.093   0.015
    1res  C32   32    1.078   0.030   0.264
    1res  C33   33    1.320   0.093   0.165
    1res  C34   34    1.205   0.330   0.182
    1res  C35   35    0.987   0.316   0.227
    1res  C36   36    0.967  -0.008  -0.233
    1res  C37   37    0.960   0.290  -0.201
    1res  C38   38    0.556   0.202  -0.166
  10.00000  10.00000  10.00000
