[ moleculetype ]
; name        nrexcl
res           1

[ atoms ]
;    nr  type  resnr resid  atom  cgnr     charge       mass
      1 SC4       1 res   C1        1      0.000     54.000
      2 TN6a      1 res   C2        2      0.000     36.000
      3 TC5       1 res   C3        3      0.000     36.000

[ constraints ]
;  ai    aj   funct      b0(nm)
    1     2     1      0.27331
    1     3     1      0.36985
    2     3     1      0.28808

[ bonds ]
;  ai    aj   funct      b0(nm)          k(kJ/mol/nm^2)

[ angles ]
;  ai    aj    ak  funct     th0(deg)        k(kJ/mol/rad^2)
    1     2     3     1     82.38812          2809.06
    1     3     2     1     47.08903          3291.64
    2     1     3     1     50.52282          8446.08

[ dihedrals ]
;  ai    aj    ak    al  funct   phi0(deg)        k(kJ/mol)   mult
