1TPCN00187
13
    1res  C1    1   -0.243   0.359   0.064
    1res  C2    2   -0.167   0.144  -0.028
    1res  C3    3   -0.144  -0.089   0.199
    1res  C4    4   -0.337  -0.251   0.042
    1res  C5    5   -0.258  -0.214  -0.190
    1res  C6    6   -0.026  -0.040  -0.265
    1res  C7    7   -0.022  -0.149  -0.022
    1res  C8    8    0.217  -0.031  -0.011
    1res  C9    9    0.322  -0.254  -0.056
    1res  C10   10    0.471  -0.054   0.018
    1res  C11   11    0.585   0.162   0.086
    1res  C12   12    0.174   0.177   0.062
    1res  C13   13    0.039   0.027   0.181
  10.00000  10.00000  10.00000
