[ moleculetype ]
; name        nrexcl
res           1

[ atoms ]
;    nr  type resnr resid  atom  cgnr     charge       mass
      1 P1        1 res   C1        1      0.000     72.000
      2 N6a       1 res   C2        2      0.000     72.000
      3 SP1       1 res   C3        3      0.000     54.000
      4 SN6       1 res   C4        4      0.000     54.000
      5 SC3       1 res   C5        5      0.000     54.000
      6 SC4       1 res   C6        6      0.000     54.000
      7 TC3       1 res   C7        7      0.000     36.000
      8 TC5       1 res   C8        8      0.000     36.000
      9 TC3       1 res   C9        9      0.000     36.000
     10 TN6       1 res   C10      10      0.000     36.000
     11 SN4a      1 res   C11      11      0.000     54.000
     12 TP1       1 res   C12      12      0.000     36.000
     13 TN6       1 res   C13      13      0.000     36.000
     14 TN6       1 res   C14      14      0.000     36.000
     15 TN6       1 res   C15      15      0.000     36.000
     16 SC4       1 res   C16      16      0.000     54.000
     17 SN6a      1 res   C17      17      0.000     54.000

[ bonds ]
;  ai    aj   funct      b0(nm)        k
    1     2     1      0.30944    20000
    2     3     1      0.33995    20000
    3     4     1      0.29395    20000
    4     5     1      0.23876    20000
    5     6     1      0.32390    20000
    5    17     1      0.29430    20000
    6     7     1      0.35073    20000
    6     8     1      0.26821    20000
    6    17     1      0.31787    20000
    7     8     1      0.25132    20000
    8     9     1      0.25434    20000
    8    16     1      0.33045    20000
    9    10     1      0.24463    20000
   10    11     1      0.25657    20000
   10    16     1      0.24298    20000
   11    12     1      0.29258    20000
   11    13     1      0.27162    20000
   11    15     1      0.29856    20000
   13    14     1      0.24081    20000
   14    15     1      0.22727    20000
