1TPCN00688
9
    1res  C1    1   -0.266   0.255  -0.168
    1res  C2    2   -0.137  -0.004   0.041
    1res  C3    3    0.192   0.005  -0.076
    1res  C4    4    0.389  -0.235  -0.117
    1res  C5    5    0.425   0.007   0.051
    1res  C6    6    0.336   0.250   0.012
    1res  C7    7    0.146   0.197   0.112
    1res  C8    8   -0.176  -0.240   0.163
    1res  C9    9   -0.464   0.040  -0.094
  10.00000  10.00000  10.00000
