[ moleculetype ]
; name        nrexcl
res           1

[ atoms ]
;    nr  type  resnr resid  atom  cgnr     charge       mass
      1 TC3       1 res   C1        1      0.000     36.000
      2 SC3       1 res   C2        2      0.000     54.000
      3 SN4a      1 res   C3        3      0.000     54.000
      4 SN6a      1 res   C4        4      0.000     54.000
      5 TP1       1 res   C5        5      0.000     36.000
      6 SN6d      1 res   C6        6      0.000     54.000
      7 TC5       1 res   C7        7      0.000     36.000
      8 TN6d      1 res   C8        8      0.000     36.000
      9 TC5       1 res   C9        9      0.000     36.000
     10 TC5       1 res   C10      10      0.000     36.000
     11 TC5       1 res   C11      11      0.000     36.000

[ constraints ]
;  ai    aj   funct      b0(nm)
   10    11     1      0.29141
    2     3     1      0.25165
    4     5     1      0.21052
    7     9     1      0.18347
    9    11     1      0.25049
    7     8     1      0.21795
    9    10     1      0.25011
    6     7     1      0.23492
    8     9     1      0.21820
    2     4     1      0.28613
    4     6     1      0.36862

[ bonds ]
;  ai    aj   funct      b0(nm)          k(kJ/mol/nm^2)
    1     2     1      0.34573          16710.2
    3     7     1      0.34594          10777.6
    3     6     1      0.40542           2012.2

[ angles ]
;  ai    aj    ak  funct     th0(deg)        k(kJ/mol/rad^2)
    1     2     3     1     83.24870          1902.34
    1     2     4     1     90.67538           166.87
    2     3     6     1     84.31402           151.97
    2     3     7     1     79.02358           394.00
    2     4     5     1     90.91222           277.88
    2     4     6     1     87.18266          2995.67
    3     2     4     1     79.70342           126.86
    3     6     4     1     52.30291          1949.99
    3     6     7     1     58.30976            89.78
    3     7     6     1     86.97101            53.92
    3     7     8     1     75.65885            98.12
    3     7     9     1    133.26049            88.39
    4     6     7     1     95.77286          2304.95
    5     4     6     1    131.86820            50.62
    6     3     7     1     34.73227           881.46
    6     7     8     1    156.77217           673.55
    6     7     9     1    134.72881          1087.94
    7     8     9     1     49.75234          8521.85
    7     9     8     1     65.05480          4948.63
    7     9    10     1    161.31921          1794.82
    7     9    11     1    126.84899          1855.26
    8     7     9     1     65.19287          5962.31
    8     9    10     1     96.64947          1646.56
    8     9    11     1    167.03522          1231.89
    9    10    11     1     54.45917         13339.46
    9    11    10     1     54.34100         10754.95
   10     9    11     1     71.19982          9223.10

[ dihedrals ]
;  ai    aj    ak    al  funct   phi0(deg)        k(kJ/mol)   mult
    1     2     3     6     1     31.20491       15.813      1
    1     2     3     7     1     -1.00441       17.157      1
    1     2     4     5     1     98.18189       21.740      1
    1     2     4     6     1    -34.99919       11.557      1
    2     3     6     4     1   -128.01090        7.767      1
    2     3     6     7     1     98.27203       16.244      1
    2     3     7     6     1    -83.23691       16.893      1
    2     3     7     8     1    103.41732       18.412      1
    2     3     7     9     1     75.85223       16.429      1
    2     4     6     3     1    136.94713        7.080      1
    2     4     6     7     1    177.95942       19.175      1
    3     2     4     5     1     16.88820       21.163      1
    3     2     4     6     1   -117.03988       11.487      1
    3     6     4     5     1     41.79512       13.550      1
    3     6     7     8     1   -152.28156       30.105      1
    3     6     7     9     1     21.89603       15.056      1
    3     7     6     4     1    145.94896       13.716      1
    3     7     8     9     1     24.02474       12.268      1
    3     7     9     8     1   -145.10708       17.043      1
    3     7     9    10     1   -146.00847       23.335      1
    3     7     9    11     1     36.69859       18.407      1
    4     2     3     6     1    124.03618        7.774      1
    4     2     3     7     1     89.11027        8.553      1
    4     6     3     7     1    -47.98664       19.178      1
    4     6     7     8     1    172.95160       29.747      1
    4     6     7     9     1    -15.92934       15.037      1
    5     4     6     7     1     83.28022       25.249      1
    6     3     7     8     1     10.88413       15.837      1
    6     3     7     9     1    -23.01241       17.150      1
    6     7     8     9     1     -8.33908       26.188      1
    6     7     9     8     1      5.32205       19.042      1
    6     7     9    10     1      3.28207       25.107      1
    6     7     9    11     1   -177.44171       21.058      1
    7     8     9    10     1      0.34875        7.805      1
    7     8     9    11     1     -0.84035       25.950      1
    7     9    10    11     1     -2.00077       19.019      1
    7     9    11    10     1      0.10884       10.699      1
    8     7     9    10     1   -179.71149       20.366      1
    8     7     9    11     1      1.66196       10.788      1
    8     9    10    11     1      0.04330        9.310      1
    8     9    11    10     1   -179.36007       25.756      1
