[ moleculetype ]
; name        nrexcl
res           1

[ atoms ]
;    nr  type resnr resid  atom  cgnr     charge       mass
      1 TC3       1 res   C1        1      0.000     36.000
      2 SC3       1 res   C2        2      0.000     54.000
      3 TN6       1 res   C3        3      0.000     36.000
      4 SC4       1 res   C4        4      0.000     54.000
      5 SN4a      1 res   C5        5      0.000     54.000
      6 TC3       1 res   C6        6      0.000     36.000
      7 TC3       1 res   C7        7      0.000     36.000
      8 TC5       1 res   C8        8      0.000     36.000
      9 SC4       1 res   C9        9      0.000     54.000
     10 TN6       1 res   C10      10      0.000     36.000
     11 TN4a      1 res   C11      11      0.000     36.000
     12 TP1       1 res   C12      12      0.000     36.000
     13 TN6       1 res   C13      13      0.000     36.000
     14 TN6       1 res   C14      14      0.000     36.000
     15 TN6       1 res   C15      15      0.000     36.000

[ bonds ]
;  ai    aj   funct      b0(nm)        k
    1     2     1      0.29021    20000
    1     8     1      0.25576    20000
    2     3     1      0.20442    20000
    2     4     1      0.30137    20000
    2     5     1      0.36038    20000
    3     4     1      0.26400    20000
    5     6     1      0.24570    20000
    6     7     1      0.25164    20000
    6     8     1      0.29868    20000
    6     9     1      0.32739    20000
    7     8     1      0.25403    20000
    7     9     1      0.29296    20000
    9    10     1      0.27914    20000
   10    11     1      0.27054    20000
   10    15     1      0.23694    20000
   11    12     1      0.24540    20000
   11    13     1      0.24132    20000
   13    14     1      0.21400    20000
   14    15     1      0.21002    20000
