1TPCN03554
27
    1res  C1    1   -0.978  -0.163   0.081
    1res  C2    2   -1.178  -0.280   0.025
    1res  C3    3   -1.131   0.068  -0.041
    1res  C4    4   -0.830   0.001  -0.110
    1res  C5    5   -0.844   0.148   0.082
    1res  C6    6   -0.578  -0.151   0.058
    1res  C7    7   -0.475   0.134   0.028
    1res  C8    8   -0.243   0.008   0.153
    1res  C9    9   -0.086  -0.090  -0.090
    1res  C10   10    0.082   0.025   0.061
    1res  C11   11    0.342  -0.093   0.152
    1res  C12   12    0.565  -0.120   0.031
    1res  C13   13    0.740  -0.321  -0.001
    1res  C14   14    0.728  -0.439  -0.223
    1res  C15   15    0.973  -0.436  -0.078
    1res  C16   16    1.027  -0.307   0.102
    1res  C17   17    0.904  -0.134   0.108
    1res  C18   18    1.077   0.076   0.085
    1res  C19   19    1.217   0.280  -0.043
    1res  C20   20    0.981   0.323   0.001
    1res  C21   21    0.868   0.128  -0.120
    1res  C22   22    0.482   0.059  -0.066
    1res  C23   23    0.409   0.198   0.105
    1res  C24   24   -0.006   0.249   0.118
    1res  C25   25   -0.303   0.218  -0.155
    1res  C26   26   -0.626   0.101  -0.236
    1res  C27   27   -0.902   0.212  -0.258
  10.00000  10.00000  10.00000
