[ moleculetype ]
; name        nrexcl
res           1

[ atoms ]
;    nr  type  resnr resid  atom  cgnr     charge       mass
      1 TC5       1 res   C1        1      0.000     36.000
      2 TP1d      1 res   C2        2      0.000     36.000
      3 SN4a      1 res   C3        3      0.000     54.000
      4 TP1       1 res   C4        4      0.000     36.000
      5 TN6       1 res   C5        5      0.000     36.000
      6 TN6       1 res   C6        6      0.000     36.000
      7 TN6       1 res   C7        7      0.000     36.000
      8 SN4a      1 res   C8        8      0.000     54.000
      9 TP1       1 res   C9        9      0.000     36.000
     10 TN6       1 res   C10      10      0.000     36.000
     11 TN6       1 res   C11      11      0.000     36.000
     12 TN6       1 res   C12      12      0.000     36.000
     13 TC3       1 res   C13      13      0.000     36.000
     14 SC4       1 res   C14      14      0.000     54.000
     15 TC3       1 res   C15      15      0.000     36.000

[ bonds ]
;  ai    aj   funct      b0(nm)          k(kJ/mol/nm^2)
    1     2     1      0.26811          81887.4
    1    13     1      0.27798          11802.1
    2     3     1      0.24896          14193.0
    3     4     1      0.31137          65043.2
    3     5     1      0.29576          14994.8
    3     7     1      0.24057          54561.7
    5     6     1      0.25362          18995.8
    6     7     1      0.21779          16894.9
    7     8     1      0.32571          58910.8
    8     9     1      0.28476          64028.9
    8    10     1      0.27192          59539.7
    8    12     1      0.27493          50176.3
   10    11     1      0.27886          19643.8
   11    12     1      0.22461          11028.9
   13    14     1      0.34804          41530.6
   13    15     1      0.28122          66546.3
   14    15     1      0.31497          64784.4

[ angles ]
;  ai    aj    ak  funct     th0(deg)        k(kJ/mol/rad^2)
    1     2     3     1    115.33146            59.85
    1    13    14     1    141.39666            57.49
    1    13    15     1     90.42429           118.61
    2     1    13     1     78.70747           161.91
    2     3     4     1    113.04219           229.63
    2     3     5     1    151.89905            57.71
    2     3     7     1    101.33871           494.97
    3     5     6     1     63.14650           541.27
    3     7     6     1     78.38591           393.38
    3     7     8     1    110.85648           533.58
    4     3     5     1     56.27294          1724.49
    4     3     7     1    131.81405          1106.65
    5     3     7     1     78.60279           519.00
    5     6     7     1     93.12286           136.43
    6     7     8     1    121.60205           240.09
    7     8     9     1    141.59244           691.39
    7     8    10     1    124.29246           856.76
    7     8    12     1     46.35876          1866.88
    8    10    11     1     60.56396           619.60
    8    12    11     1     66.57705           539.70
    9     8    10     1     56.69171          2313.93
    9     8    12     1    134.85956           501.09
   10     8    12     1     83.93613          1262.67
   10    11    12     1     92.49776           720.44
   13    14    15     1     49.86099          5437.76
   13    15    14     1     71.19653          1503.98
   14    13    15     1     58.94243          2091.53
