[ moleculetype ]
; name        nrexcl
res           1

[ atoms ]
;    nr  type resnr resid  atom  cgnr     charge       mass
      1 TN3r      1 res   C1        1      0.000     36.000
      2 SC3       1 res   C2        2      0.000     54.000
      3 TN6a      1 res   C3        3      0.000     36.000
      4 TC5       1 res   C4        4      0.000     36.000
      5 SN6d      1 res   C5        5      0.000     54.000
      6 SC5       1 res   C6        6      0.000     54.000
      7 TN6d      1 res   C7        7      0.000     36.000
      8 TC5       1 res   C8        8      0.000     36.000
      9 TC5       1 res   C9        9      0.000     36.000
     10 TC5       1 res   C10      10      0.000     36.000
     11 TC4       1 res   C11      11      0.000     36.000

[ bonds ]
;  ai    aj   funct      b0(nm)        k
    1     2     1      0.31153    20000
    2     3     1      0.29271    20000
    2     4     1      0.28041    20000
    2     5     1      0.33324    20000
    2     6     1      0.27134    20000
    3     4     1      0.23749    20000
    4     5     1      0.24125    20000
    4    11     1      0.32550    20000
    5     6     1      0.32082    20000
    5    11     1      0.36093    20000
    6     7     1      0.35716    20000
    6     8     1      0.25389    20000
    7     8     1      0.21874    20000
    8     9     1      0.24993    20000
    8    10     1      0.25021    20000
    9    10     1      0.29377    20000
