[ moleculetype ]
; name        nrexcl
res           1

[ atoms ]
;    nr  type  resnr resid  atom  cgnr     charge       mass
      1 SX3       1 res   C1        1      0.000     54.000
      2 TX3       1 res   C2        2      0.000     36.000
      3 TX3       1 res   C3        3      0.000     36.000
      4 TX3       1 res   C4        4      0.000     36.000
      5 TX3       1 res   C5        5      0.000     36.000

[ bonds ]
;  ai    aj   funct      b0(nm)          k(kJ/mol/nm^2)
    1     2     1      0.28281         116178.9
    1     5     1      0.29513         127301.3
    2     3     1      0.22615         147979.5
    3     4     1      0.22613         117672.8
    4     5     1      0.22651         122011.6

[ angles ]
;  ai    aj    ak  funct     th0(deg)        k(kJ/mol/rad^2)
    1     2     3     1     99.36106          3261.72
    1     5     4     1     97.39074          2315.71
    2     1     5     1    102.35013          4166.45
    2     3     4     1    119.60148          1898.47
    3     4     5     1    118.93336          2158.27

[ dihedrals ]
;  ai    aj    ak    al  funct   phi0(deg)        k(kJ/mol)   mult
    1     2     3     4     1    179.99671       13.700      1
    1     2     3     4     1    179.99367       12.995      2
    1     2     3     4     1    179.99122       11.871      3
    1     5     4     3     1    179.86741       20.456      1
    1     5     4     3     1    179.79779       18.037      2
    1     5     4     3     1    179.88312       14.401      3
    2     1     5     4     1   -178.97453       15.807      1
    2     1     5     4     1   -177.97592       14.748      2
    2     1     5     4     1   -177.03670       13.081      3
    2     3     4     5     1    179.04063       21.109      1
    2     3     4     5     1    178.08674       18.422      2
    2     3     4     5     1    177.14743       14.417      3
    3     2     1     5     1   -179.97437       13.688      1
    3     2     1     5     1   -179.94936       13.034      2
    3     2     1     5     1   -179.92577       11.986      3
