[ moleculetype ]
; name        nrexcl
res           1

[ atoms ]
;    nr  type  resnr resid  atom  cgnr     charge       mass
      1 TX3       1 res   C1        1      0.000     36.000
      2 TC5       1 res   C2        2      0.000     36.000
      3 TX3       1 res   C3        3      0.000     36.000
      4 TN1a      1 res   C4        4      0.000     36.000

[ constraints ]
;  ai    aj   funct      b0(nm)
    1     2     1      0.27628
    2     3     1      0.27602
    1     4     1      0.24640
    3     4     1      0.24622

[ bonds ]
;  ai    aj   funct      b0(nm)          k(kJ/mol/nm^2)

[ angles ]
;  ai    aj    ak  funct     th0(deg)        k(kJ/mol/rad^2)
    1     2     3     1    104.55434          3504.86
    1     4     3     1    124.95489          2399.47
    2     1     4     1     65.19506          4686.66
    2     3     4     1     65.25793          4710.23

[ dihedrals ]
;  ai    aj    ak    al  funct   phi0(deg)        k(kJ/mol)   mult
    1     2     3     4     1    179.99968        3.247      1
    1     4     3     2     1   -179.99836        3.267      1
    2     1     4     3     1    179.99836        3.267      1
    3     2     1     4     1    179.99754        3.244      1
