[ moleculetype ]
; name        nrexcl
res           1

[ atoms ]
;    nr  type  resnr resid  atom  cgnr     charge       mass
      1 TX3       1 res   C1        1      0.000     36.000
      2 TC5       1 res   C2        2      0.000     36.000
      3 TX3       1 res   C3        3      0.000     36.000
      4 TN1a      1 res   C4        4      0.000     36.000

[ constraints ]
;  ai    aj   funct      b0(nm)
    1     2     1      0.27604
    2     3     1      0.27568
    1     4     1      0.24601
    3     4     1      0.24620

[ bonds ]
;  ai    aj   funct      b0(nm)          k(kJ/mol/nm^2)

[ angles ]
;  ai    aj    ak  funct     th0(deg)        k(kJ/mol/rad^2)
    1     2     3     1    104.09096          5697.82
    1     4     3     1    124.24339          2569.16
    2     1     4     1     65.23525          5658.71
    2     3     4     1     65.27054          5621.37

[ dihedrals ]
;  ai    aj    ak    al  funct   phi0(deg)        k(kJ/mol)   mult
    1     2     3     4     1    179.08093       11.536      1
    1     4     3     2     1    179.99898       13.713      1
    2     1     4     3     1   -179.99967       13.716      1
    3     2     1     4     1   -179.98937       10.857      1
