[ moleculetype ]
; name        nrexcl
res           1

[ atoms ]
;    nr  type resnr resid  atom  cgnr     charge       mass
      1 SC4       1 res   C1        1      0.000     54.000
      2 N4a       1 res   C2        2      0.000     72.000
      3 SC4       1 res   C3        3      0.000     54.000
      4 TN6       1 res   C4        4      0.000     36.000
      5 SC4       1 res   C5        5      0.000     54.000
      6 TN4a      1 res   C6        6      0.000     36.000
      7 TN4a      1 res   C7        7      0.000     36.000
      8 TN6a      1 res   C8        8      0.000     36.000
      9 SC4       1 res   C9        9      0.000     54.000

[ bonds ]
;  ai    aj   funct      b0(nm)        k
    1     2     1      0.34397    20000
    2     3     1      0.28953    20000
    2     9     1      0.33347    20000
    3     4     1      0.37388    20000
    4     5     1      0.35757    20000
    4     6     1      0.27956    20000
    5     6     1      0.27286    20000
    6     7     1      0.21367    20000
    7     8     1      0.26413    20000
    7     9     1      0.29733    20000
    8     9     1      0.26024    20000
