1TPCN00919
9
    1res  C1    1    0.433   0.164   0.047
    1res  C2    2    0.098   0.086   0.036
    1res  C3    3   -0.007  -0.083   0.247
    1res  C4    4   -0.372  -0.022   0.195
    1res  C5    5   -0.295   0.182  -0.089
    1res  C6    6   -0.304  -0.090  -0.067
    1res  C7    7   -0.171  -0.130  -0.230
    1res  C8    8   -0.018  -0.344  -0.237
    1res  C9    9    0.126  -0.128  -0.218
  10.00000  10.00000  10.00000
