[ moleculetype ]
; name        nrexcl
res           1

[ atoms ]
;    nr  type  resnr resid  atom  cgnr     charge       mass
      1 TN2a      1 res   C1        1      0.000     36.000
      2 TC5       1 res   C2        2      0.000     36.000
      3 SC4       1 res   C3        3      0.000     54.000
      4 TC5       1 res   C4        4      0.000     36.000
      5 P4        1 res   C5        5      0.000     72.000
      6 SN4a      1 res   C6        6      0.000     54.000
      7 N4a       1 res   C7        7      0.000     72.000
      8 SC2       1 res   C8        8      0.000     54.000

[ constraints ]
;  ai    aj   funct      b0(nm)
    1     2     1      0.29453
    2     3     1      0.33432
    2     5     1      0.27648
    3     4     1      0.31246
    7     8     1      0.33998
    5     6     1      0.35062
    2     4     1      0.24910

[ bonds ]
;  ai    aj   funct      b0(nm)          k(kJ/mol/nm^2)
    5     7     1      0.29550          10607.0

[ angles ]
;  ai    aj    ak  funct     th0(deg)        k(kJ/mol/rad^2)
    1     2     3     1     88.46004           544.93
    1     2     4     1    149.39429           895.80
    1     2     5     1    105.09600           248.57
    2     3     4     1     45.14727         10184.62
    2     4     3     1     72.07401          6316.37
    2     5     6     1    146.52834           211.90
    2     5     7     1     77.76465          1224.63
    3     2     4     1     62.77873          6368.43
    3     2     5     1    156.18911           309.35
    4     2     5     1    101.45540           340.79
    5     7     8     1    111.39326           108.49
    6     5     7     1    108.10299            68.64

[ dihedrals ]
;  ai    aj    ak    al  funct   phi0(deg)        k(kJ/mol)   mult
    1     2     3     4     1     -3.31139       18.251      1
    1     2     4     3     1    175.39898       25.085      1
    1     2     5     6     1    146.37609       30.194      1
    1     2     5     7     1   -107.44640       22.870      1
    2     5     7     8     1      5.55621       19.143      1
    3     2     5     6     1    -88.47085       30.020      1
    3     2     5     7     1     16.13070       22.910      1
    3     4     2     5     1     20.84359        8.544      1
    4     2     5     6     1    -43.63643       32.344      1
    4     2     5     7     1     63.38579       24.075      1
    4     3     2     5     1   -127.28128       17.100      1
    6     5     7     8     1    149.77313       23.931      1
