1TPCN01162
8
    1res  C1    1    0.003   0.259   0.104
    1res  C2    2    0.233   0.178  -0.021
    1res  C3    3    0.396   0.031   0.114
    1res  C4    4    0.312  -0.089  -0.104
    1res  C5    5    0.069  -0.141  -0.090
    1res  C6    6   -0.085   0.017   0.017
    1res  C7    7   -0.317   0.033   0.044
    1res  C8    8   -0.202  -0.225  -0.034
  10.00000  10.00000  10.00000
