Generated with MDTraj, t= 0.0
 50
    1UNL     C1    1  -0.403   0.036   0.173
    1UNL     C2    2  -0.312   0.060   0.060
    1UNL     C3    3  -0.243  -0.034  -0.003
    1UNL     C4    4  -0.253  -0.179   0.034
    1UNL     N1    5  -0.123  -0.253   0.012
    1UNL     C5    6  -0.029  -0.236   0.126
    1UNL     C6    7   0.029  -0.094   0.132
    1UNL     C7    8   0.080  -0.048  -0.008
    1UNL     C8    9   0.079  -0.171  -0.098
    1UNL     N2   10   0.194  -0.205  -0.141
    1UNL     C9   11   0.288  -0.113  -0.089
    1UNL    C10   12   0.425  -0.109  -0.110
    1UNL    C11   13   0.499  -0.008  -0.050
    1UNL    C12   14   0.437   0.087   0.029
    1UNL    C13   15   0.301   0.084   0.050
    1UNL    C14   16   0.227  -0.016  -0.009
    1UNL    C15   17  -0.056  -0.230  -0.122
    1UNL    C16   18  -0.133  -0.127  -0.207
    1UNL    C17   19  -0.151   0.001  -0.120
    1UNL    C18   20  -0.012   0.063  -0.076
    1UNL    C19   21   0.058   0.119  -0.201
    1UNL     O1   22  -0.023   0.211  -0.271
    1UNL    C20   23  -0.036   0.182   0.018
    1UNL     O2   24  -0.112   0.269  -0.018
    1UNL     O3   25   0.031   0.184   0.137
    1UNL    C21   26  -0.003   0.299   0.207
    1UNL     H1   27  -0.476  -0.043   0.149
    1UNL     H2   28  -0.460   0.125   0.200
    1UNL     H3   29  -0.348   0.004   0.262
    1UNL     H4   30  -0.298   0.162   0.028
    1UNL     H5   31  -0.282  -0.191   0.138
    1UNL     H6   32  -0.330  -0.228  -0.026
    1UNL     H7   33  -0.082  -0.261   0.219
    1UNL     H8   34   0.051  -0.310   0.115
    1UNL     H9   35   0.112  -0.089   0.203
    1UNL    H10   36  -0.046  -0.023   0.168
    1UNL    H11   37   0.472  -0.183  -0.172
    1UNL    H12   38   0.605  -0.004  -0.065
    1UNL    H13   39   0.496   0.165   0.075
    1UNL    H14   40   0.251   0.158   0.110
    1UNL    H15   41  -0.046  -0.327  -0.174
    1UNL    H16   42  -0.231  -0.167  -0.237
    1UNL    H17   43  -0.079  -0.104  -0.299
    1UNL    H18   44  -0.202   0.077  -0.180
    1UNL    H19   45   0.086   0.039  -0.270
    1UNL    H20   46   0.151   0.170  -0.172
    1UNL    H21   47  -0.068   0.267  -0.205
    1UNL    H22   48  -0.111   0.300   0.225
    1UNL    H23   49   0.051   0.300   0.302
    1UNL    H24   50   0.025   0.386   0.147
   0.00000   0.00000   0.00000   0.00000   0.00000   0.00000   0.00000   0.00000   0.00000
Generated with MDTraj, t= 1.0
 50
    1UNL     C1    1  -0.392   0.000   0.194
    1UNL     C2    2  -0.308   0.053   0.082
    1UNL     C3    3  -0.240  -0.029   0.003
    1UNL     C4    4  -0.249  -0.175   0.026
    1UNL     N1    5  -0.118  -0.245   0.011
    1UNL     C5    6  -0.024  -0.232   0.127
    1UNL     C6    7   0.035  -0.094   0.132
    1UNL     C7    8   0.079  -0.044  -0.017
    1UNL     C8    9   0.076  -0.168  -0.100
    1UNL     N2   10   0.190  -0.209  -0.141
    1UNL     C9   11   0.290  -0.118  -0.090
    1UNL    C10   12   0.429  -0.119  -0.108
    1UNL    C11   13   0.507  -0.030  -0.029
    1UNL    C12   14   0.445   0.072   0.044
    1UNL    C13   15   0.310   0.076   0.059
    1UNL    C14   16   0.232  -0.012  -0.013
    1UNL    C15   17  -0.058  -0.228  -0.130
    1UNL    C16   18  -0.139  -0.124  -0.211
    1UNL    C17   19  -0.150   0.004  -0.121
    1UNL    C18   20  -0.019   0.069  -0.077
    1UNL    C19   21   0.051   0.123  -0.207
    1UNL     O1   22  -0.029   0.217  -0.277
    1UNL    C20   23  -0.046   0.187   0.008
    1UNL     O2   24  -0.129   0.269  -0.023
    1UNL     O3   25   0.027   0.204   0.123
    1UNL    C21   26  -0.008   0.321   0.198
    1UNL     H1   27  -0.456  -0.082   0.170
    1UNL     H2   28  -0.456   0.087   0.239
    1UNL     H3   29  -0.334  -0.046   0.264
    1UNL     H4   30  -0.300   0.162   0.061
    1UNL     H5   31  -0.281  -0.192   0.132
    1UNL     H6   32  -0.322  -0.230  -0.031
    1UNL     H7   33  -0.082  -0.264   0.212
    1UNL     H8   34   0.050  -0.313   0.120
    1UNL     H9   35   0.119  -0.089   0.198
    1UNL    H10   36  -0.033  -0.017   0.170
    1UNL    H11   37   0.486  -0.159  -0.193
    1UNL    H12   38   0.616  -0.014  -0.051
    1UNL    H13   39   0.504   0.153   0.086
    1UNL    H14   40   0.253   0.160   0.100
    1UNL    H15   41  -0.040  -0.325  -0.184
    1UNL    H16   42  -0.242  -0.159  -0.223
    1UNL    H17   43  -0.102  -0.097  -0.311
    1UNL    H18   44  -0.211   0.074  -0.177
    1UNL    H19   45   0.070   0.041  -0.279
    1UNL    H20   46   0.152   0.162  -0.197
    1UNL    H21   47  -0.034   0.286  -0.207
    1UNL    H22   48   0.082   0.379   0.206
    1UNL    H23   49  -0.079   0.382   0.146
    1UNL    H24   50  -0.060   0.287   0.293
   0.00000   0.00000   0.00000   0.00000   0.00000   0.00000   0.00000   0.00000   0.00000
Generated with MDTraj, t= 2.0
 50
    1UNL     C1    1  -0.375   0.027   0.193
    1UNL     C2    2  -0.296   0.058   0.073
    1UNL     C3    3  -0.245  -0.036  -0.004
    1UNL     C4    4  -0.248  -0.191   0.028
    1UNL     N1    5  -0.113  -0.257   0.007
    1UNL     C5    6  -0.020  -0.244   0.122
    1UNL     C6    7   0.025  -0.098   0.127
    1UNL     C7    8   0.071  -0.045  -0.015
    1UNL     C8    9   0.079  -0.163  -0.104
    1UNL     N2   10   0.196  -0.189  -0.148
    1UNL     C9   11   0.290  -0.110  -0.086
    1UNL    C10   12   0.424  -0.123  -0.093
    1UNL    C11   13   0.494  -0.024  -0.026
    1UNL    C12   14   0.433   0.072   0.050
    1UNL    C13   15   0.298   0.091   0.048
    1UNL    C14   16   0.225  -0.007  -0.018
    1UNL    C15   17  -0.053  -0.230  -0.133
    1UNL    C16   18  -0.140  -0.134  -0.207
    1UNL    C17   19  -0.154  -0.001  -0.127
    1UNL    C18   20  -0.018   0.067  -0.076
    1UNL    C19   21   0.043   0.117  -0.202
    1UNL     O1   22  -0.041   0.206  -0.280
    1UNL    C20   23  -0.046   0.195   0.016
    1UNL     O2   24  -0.132   0.270  -0.021
    1UNL     O3   25   0.034   0.207   0.122
    1UNL    C21   26   0.024   0.320   0.212
    1UNL     H1   27  -0.457  -0.039   0.186
    1UNL     H2   28  -0.406   0.133   0.234
    1UNL     H3   29  -0.318  -0.026   0.260
    1UNL     H4   30  -0.279   0.154   0.043
    1UNL     H5   31  -0.281  -0.213   0.133
    1UNL     H6   32  -0.322  -0.245  -0.027
    1UNL     H7   33  -0.067  -0.284   0.211
    1UNL     H8   34   0.053  -0.325   0.098
    1UNL     H9   35   0.097  -0.074   0.197
    1UNL    H10   36  -0.057  -0.029   0.153
    1UNL    H11   37   0.472  -0.175  -0.173
    1UNL    H12   38   0.596  -0.035  -0.016
    1UNL    H13   39   0.493   0.147   0.095
    1UNL    H14   40   0.236   0.163   0.095
    1UNL    H15   41  -0.034  -0.330  -0.185
    1UNL    H16   42  -0.240  -0.176  -0.228
    1UNL    H17   43  -0.095  -0.106  -0.303
    1UNL    H18   44  -0.219   0.070  -0.176
    1UNL    H19   45   0.090   0.047  -0.274
    1UNL    H20   46   0.134   0.171  -0.179
    1UNL    H21   47  -0.100   0.242  -0.208
    1UNL    H22   48  -0.049   0.306   0.291
    1UNL    H23   49   0.114   0.316   0.269
    1UNL    H24   50   0.021   0.415   0.146
   0.00000   0.00000   0.00000   0.00000   0.00000   0.00000   0.00000   0.00000   0.00000
Generated with MDTraj, t= 3.0
 50
    1UNL     C1    1  -0.393   0.021   0.196
    1UNL     C2    2  -0.303   0.054   0.086
    1UNL     C3    3  -0.244  -0.032   0.007
    1UNL     C4    4  -0.253  -0.181   0.027
    1UNL     N1    5  -0.124  -0.256   0.008
    1UNL     C5    6  -0.028  -0.229   0.120
    1UNL     C6    7   0.024  -0.085   0.124
    1UNL     C7    8   0.079  -0.047  -0.014
    1UNL     C8    9   0.080  -0.172  -0.104
    1UNL     N2   10   0.195  -0.206  -0.143
    1UNL     C9   11   0.293  -0.117  -0.087
    1UNL    C10   12   0.434  -0.098  -0.105
    1UNL    C11   13   0.502  -0.003  -0.035
    1UNL    C12   14   0.432   0.094   0.034
    1UNL    C13   15   0.294   0.085   0.053
    1UNL    C14   16   0.228  -0.022  -0.010
    1UNL    C15   17  -0.059  -0.232  -0.129
    1UNL    C16   18  -0.141  -0.132  -0.204
    1UNL    C17   19  -0.155  -0.002  -0.115
    1UNL    C18   20  -0.016   0.065  -0.080
    1UNL    C19   21   0.044   0.119  -0.206
    1UNL     O1   22  -0.031   0.214  -0.278
    1UNL    C20   23  -0.040   0.184   0.006
    1UNL     O2   24  -0.112   0.271  -0.037
    1UNL     O3   25   0.024   0.181   0.131
    1UNL    C21   26   0.021   0.302   0.215
    1UNL     H1   27  -0.459  -0.060   0.186
    1UNL     H2   28  -0.452   0.114   0.215
    1UNL     H3   29  -0.327   0.011   0.283
    1UNL     H4   30  -0.288   0.162   0.051
    1UNL     H5   31  -0.293  -0.197   0.131
    1UNL     H6   32  -0.328  -0.231  -0.035
    1UNL     H7   33  -0.089  -0.258   0.204
    1UNL     H8   34   0.058  -0.302   0.115
    1UNL     H9   35   0.094  -0.080   0.199
    1UNL    H10   36  -0.058  -0.014   0.147
    1UNL    H11   37   0.496  -0.179  -0.145
    1UNL    H12   38   0.616   0.001  -0.040
    1UNL    H13   39   0.491   0.158   0.099
    1UNL    H14   40   0.237   0.155   0.118
    1UNL    H15   41  -0.044  -0.335  -0.176
    1UNL    H16   42  -0.237  -0.174  -0.237
    1UNL    H17   43  -0.101  -0.103  -0.304
    1UNL    H18   44  -0.209   0.074  -0.169
    1UNL    H19   45   0.077   0.031  -0.270
    1UNL    H20   46   0.145   0.161  -0.206
    1UNL    H21   47  -0.038   0.291  -0.219
    1UNL    H22   48  -0.033   0.385   0.168
    1UNL    H23   49  -0.025   0.281   0.309
    1UNL    H24   50   0.135   0.324   0.235
   0.00000   0.00000   0.00000   0.00000   0.00000   0.00000   0.00000   0.00000   0.00000
Generated with MDTraj, t= 4.0
 50
    1UNL     C1    1  -0.400   0.027   0.181
    1UNL     C2    2  -0.319   0.055   0.058
    1UNL     C3    3  -0.244  -0.032  -0.005
    1UNL     C4    4  -0.253  -0.179   0.035
    1UNL     N1    5  -0.127  -0.248   0.018
    1UNL     C5    6  -0.029  -0.235   0.129
    1UNL     C6    7   0.027  -0.092   0.133
    1UNL     C7    8   0.086  -0.056  -0.005
    1UNL     C8    9   0.081  -0.180  -0.099
    1UNL     N2   10   0.193  -0.206  -0.148
    1UNL     C9   11   0.288  -0.112  -0.095
    1UNL    C10   12   0.426  -0.100  -0.123
    1UNL    C11   13   0.501   0.001  -0.070
    1UNL    C12   14   0.437   0.095   0.010
    1UNL    C13   15   0.302   0.083   0.043
    1UNL    C14   16   0.229  -0.025  -0.004
    1UNL    C15   17  -0.060  -0.227  -0.116
    1UNL    C16   18  -0.131  -0.124  -0.200
    1UNL    C17   19  -0.150   0.000  -0.114
    1UNL    C18   20  -0.006   0.063  -0.072
    1UNL    C19   21   0.071   0.120  -0.195
    1UNL     O1   22  -0.016   0.197  -0.266
    1UNL    C20   23  -0.036   0.184   0.022
    1UNL     O2   24  -0.102   0.271  -0.029
    1UNL     O3   25   0.017   0.190   0.144
    1UNL    C21   26  -0.027   0.304   0.220
    1UNL     H1   27  -0.485  -0.032   0.159
    1UNL     H2   28  -0.435   0.114   0.223
    1UNL     H3   29  -0.315  -0.003   0.254
    1UNL     H4   30  -0.316   0.153   0.023
    1UNL     H5   31  -0.275  -0.185   0.144
    1UNL     H6   32  -0.340  -0.233  -0.012
    1UNL     H7   33  -0.075  -0.265   0.221
    1UNL     H8   34   0.050  -0.309   0.095
    1UNL     H9   35   0.102  -0.088   0.206
    1UNL    H10   36  -0.065  -0.039   0.160
    1UNL    H11   37   0.467  -0.191  -0.162
    1UNL    H12   38   0.603   0.006  -0.086
    1UNL    H13   39   0.498   0.175   0.050
    1UNL    H14   40   0.270   0.154   0.114
    1UNL    H15   41  -0.060  -0.327  -0.175
    1UNL    H16   42  -0.226  -0.156  -0.241
    1UNL    H17   43  -0.077  -0.099  -0.296
    1UNL    H18   44  -0.200   0.074  -0.175
    1UNL    H19   45   0.127   0.055  -0.271
    1UNL    H20   46   0.161   0.172  -0.159
    1UNL    H21   47  -0.078   0.240  -0.202
    1UNL    H22   48   0.052   0.382   0.207
    1UNL    H23   49  -0.120   0.348   0.194
    1UNL    H24   50  -0.035   0.270   0.333
   0.00000   0.00000   0.00000   0.00000   0.00000   0.00000   0.00000   0.00000   0.00000
Generated with MDTraj, t= 5.0
 50
    1UNL     C1    1  -0.417   0.047   0.156
    1UNL     C2    2  -0.305   0.064   0.049
    1UNL     C3    3  -0.236  -0.033  -0.002
    1UNL     C4    4  -0.254  -0.177   0.044
    1UNL     N1    5  -0.129  -0.258   0.028
    1UNL     C5    6  -0.028  -0.236   0.133
    1UNL     C6    7   0.034  -0.091   0.138
    1UNL     C7    8   0.084  -0.045  -0.000
    1UNL     C8    9   0.075  -0.174  -0.086
    1UNL     N2   10   0.186  -0.198  -0.143
    1UNL     C9   11   0.285  -0.104  -0.105
    1UNL    C10   12   0.418  -0.101  -0.130
    1UNL    C11   13   0.494   0.006  -0.082
    1UNL    C12   14   0.447   0.093   0.012
    1UNL    C13   15   0.313   0.085   0.039
    1UNL    C14   16   0.231  -0.014  -0.014
    1UNL    C15   17  -0.054  -0.235  -0.104
    1UNL    C16   18  -0.126  -0.132  -0.193
    1UNL    C17   19  -0.145   0.001  -0.120
    1UNL    C18   20  -0.008   0.058  -0.072
    1UNL    C19   21   0.064   0.118  -0.191
    1UNL     O1   22  -0.017   0.206  -0.257
    1UNL    C20   23  -0.036   0.178   0.020
    1UNL     O2   24  -0.106   0.268  -0.022
    1UNL     O3   25   0.021   0.172   0.142
    1UNL    C21   26  -0.030   0.278   0.218
    1UNL     H1   27  -0.492  -0.018   0.116
    1UNL     H2   28  -0.473   0.128   0.175
    1UNL     H3   29  -0.358   0.026   0.256
    1UNL     H4   30  -0.280   0.165   0.008
    1UNL     H5   31  -0.291  -0.183   0.147
    1UNL     H6   32  -0.332  -0.231  -0.022
    1UNL     H7   33  -0.081  -0.257   0.224
    1UNL     H8   34   0.056  -0.311   0.113
    1UNL     H9   35   0.114  -0.108   0.205
    1UNL    H10   36  -0.047  -0.029   0.173
    1UNL    H11   37   0.447  -0.177  -0.201
    1UNL    H12   38   0.598   0.022  -0.123
    1UNL    H13   39   0.503   0.181   0.040
    1UNL    H14   40   0.277   0.168   0.101
    1UNL    H15   41  -0.040  -0.333  -0.168
    1UNL    H16   42  -0.220  -0.168  -0.234
    1UNL    H17   43  -0.060  -0.116  -0.284
    1UNL    H18   44  -0.171   0.075  -0.194
    1UNL    H19   45   0.121   0.039  -0.254
    1UNL    H20   46   0.150   0.177  -0.161
    1UNL    H21   47  -0.044   0.286  -0.208
    1UNL    H22   48  -0.030   0.240   0.326
    1UNL    H23   49   0.024   0.368   0.222
    1UNL    H24   50  -0.135   0.304   0.178
   0.00000   0.00000   0.00000   0.00000   0.00000   0.00000   0.00000   0.00000   0.00000
Generated with MDTraj, t= 6.0
 50
    1UNL     C1    1  -0.425   0.040   0.146
    1UNL     C2    2  -0.326   0.062   0.041
    1UNL     C3    3  -0.243  -0.029  -0.001
    1UNL     C4    4  -0.251  -0.172   0.047
    1UNL     N1    5  -0.122  -0.243   0.025
    1UNL     C5    6  -0.014  -0.236   0.138
    1UNL     C6    7   0.050  -0.093   0.138
    1UNL     C7    8   0.083  -0.048  -0.006
    1UNL     C8    9   0.078  -0.175  -0.096
    1UNL     N2   10   0.197  -0.215  -0.128
    1UNL     C9   11   0.285  -0.105  -0.101
    1UNL    C10   12   0.424  -0.102  -0.126
    1UNL    C11   13   0.498   0.003  -0.073
    1UNL    C12   14   0.439   0.096   0.010
    1UNL    C13   15   0.304   0.089   0.047
    1UNL    C14   16   0.226  -0.006  -0.019
    1UNL    C15   17  -0.056  -0.231  -0.113
    1UNL    C16   18  -0.135  -0.132  -0.205
    1UNL    C17   19  -0.155  -0.003  -0.108
    1UNL    C18   20  -0.011   0.059  -0.072
    1UNL    C19   21   0.057   0.119  -0.194
    1UNL     O1   22  -0.018   0.212  -0.265
    1UNL    C20   23  -0.039   0.175   0.023
    1UNL     O2   24  -0.108   0.271  -0.005
    1UNL     O3   25   0.025   0.165   0.139
    1UNL    C21   26  -0.003   0.281   0.212
    1UNL     H1   27  -0.476  -0.048   0.125
    1UNL     H2   28  -0.508   0.114   0.151
    1UNL     H3   29  -0.375   0.040   0.248
    1UNL     H4   30  -0.319   0.163   0.004
    1UNL     H5   31  -0.273  -0.183   0.153
    1UNL     H6   32  -0.336  -0.227  -0.011
    1UNL     H7   33  -0.062  -0.269   0.228
    1UNL     H8   34   0.063  -0.316   0.109
    1UNL     H9   35   0.144  -0.094   0.188
    1UNL    H10   36  -0.017  -0.025   0.181
    1UNL    H11   37   0.477  -0.165  -0.197
    1UNL    H12   38   0.593   0.018  -0.118
    1UNL    H13   39   0.503   0.173   0.055
    1UNL    H14   40   0.255   0.175   0.090
    1UNL    H15   41  -0.056  -0.339  -0.160
    1UNL    H16   42  -0.233  -0.172  -0.229
    1UNL    H17   43  -0.073  -0.109  -0.297
    1UNL    H18   44  -0.207   0.068  -0.168
    1UNL    H19   45   0.081   0.035  -0.268
    1UNL    H20   46   0.157   0.153  -0.165
    1UNL    H21   47  -0.093   0.257  -0.213
    1UNL    H22   48  -0.115   0.299   0.218
    1UNL    H23   49   0.021   0.269   0.312
    1UNL    H24   50   0.056   0.367   0.172
   0.00000   0.00000   0.00000   0.00000   0.00000   0.00000   0.00000   0.00000   0.00000
Generated with MDTraj, t= 7.0
 50
    1UNL     C1    1  -0.424   0.024   0.161
    1UNL     C2    2  -0.330   0.050   0.046
    1UNL     C3    3  -0.250  -0.041  -0.006
    1UNL     C4    4  -0.242  -0.186   0.032
    1UNL     N1    5  -0.113  -0.260   0.015
    1UNL     C5    6  -0.011  -0.233   0.132
    1UNL     C6    7   0.040  -0.092   0.136
    1UNL     C7    8   0.080  -0.046  -0.009
    1UNL     C8    9   0.076  -0.165  -0.099
    1UNL     N2   10   0.193  -0.212  -0.130
    1UNL     C9   11   0.286  -0.119  -0.090
    1UNL    C10   12   0.423  -0.114  -0.117
    1UNL    C11   13   0.494  -0.006  -0.064
    1UNL    C12   14   0.435   0.089   0.017
    1UNL    C13   15   0.300   0.090   0.038
    1UNL    C14   16   0.228  -0.015  -0.015
    1UNL    C15   17  -0.061  -0.230  -0.121
    1UNL    C16   18  -0.137  -0.127  -0.209
    1UNL    C17   19  -0.151   0.006  -0.118
    1UNL    C18   20  -0.012   0.066  -0.069
    1UNL    C19   21   0.053   0.120  -0.199
    1UNL     O1   22  -0.033   0.205  -0.263
    1UNL    C20   23  -0.033   0.185   0.030
    1UNL     O2   24  -0.118   0.270   0.012
    1UNL     O3   25   0.048   0.199   0.138
    1UNL    C21   26   0.011   0.315   0.200
    1UNL     H1   27  -0.483  -0.060   0.144
    1UNL     H2   28  -0.505   0.109   0.184
    1UNL     H3   29  -0.381   0.004   0.257
    1UNL     H4   30  -0.307   0.149   0.013
    1UNL     H5   31  -0.270  -0.202   0.139
    1UNL     H6   32  -0.313  -0.252  -0.031
    1UNL     H7   33  -0.061  -0.259   0.223
    1UNL     H8   34   0.064  -0.319   0.119
    1UNL     H9   35   0.128  -0.073   0.195
    1UNL    H10   36  -0.026  -0.020   0.168
    1UNL    H11   37   0.472  -0.178  -0.188
    1UNL    H12   38   0.604  -0.010  -0.066
    1UNL    H13   39   0.497   0.164   0.058
    1UNL    H14   40   0.243   0.159   0.098
    1UNL    H15   41  -0.055  -0.336  -0.174
    1UNL    H16   42  -0.236  -0.175  -0.222
    1UNL    H17   43  -0.074  -0.104  -0.300
    1UNL    H18   44  -0.190   0.082  -0.184
    1UNL    H19   45   0.092   0.032  -0.263
    1UNL    H20   46   0.145   0.174  -0.168
    1UNL    H21   47  -0.047   0.279  -0.201
    1UNL    H22   48  -0.055   0.379   0.139
    1UNL    H23   49  -0.050   0.292   0.284
    1UNL    H24   50   0.101   0.363   0.234
   0.00000   0.00000   0.00000   0.00000   0.00000   0.00000   0.00000   0.00000   0.00000
Generated with MDTraj, t= 8.0
 50
    1UNL     C1    1  -0.412   0.012   0.186
    1UNL     C2    2  -0.314   0.045   0.074
    1UNL     C3    3  -0.244  -0.043   0.002
    1UNL     C4    4  -0.253  -0.190   0.025
    1UNL     N1    5  -0.115  -0.249   0.014
    1UNL     C5    6  -0.029  -0.220   0.134
    1UNL     C6    7   0.022  -0.086   0.136
    1UNL     C7    8   0.078  -0.044  -0.007
    1UNL     C8    9   0.081  -0.163  -0.100
    1UNL     N2   10   0.196  -0.194  -0.149
    1UNL     C9   11   0.291  -0.115  -0.081
    1UNL    C10   12   0.425  -0.110  -0.111
    1UNL    C11   13   0.501  -0.019  -0.049
    1UNL    C12   14   0.443   0.080   0.028
    1UNL    C13   15   0.308   0.088   0.045
    1UNL    C14   16   0.233  -0.011  -0.009
    1UNL    C15   17  -0.052  -0.229  -0.127
    1UNL    C16   18  -0.140  -0.130  -0.207
    1UNL    C17   19  -0.158  -0.005  -0.122
    1UNL    C18   20  -0.020   0.060  -0.076
    1UNL    C19   21   0.045   0.123  -0.206
    1UNL     O1   22  -0.029   0.230  -0.263
    1UNL    C20   23  -0.039   0.176   0.014
    1UNL     O2   24  -0.131   0.254   0.006
    1UNL     O3   25   0.055   0.198   0.114
    1UNL    C21   26   0.021   0.316   0.183
    1UNL     H1   27  -0.479  -0.062   0.140
    1UNL     H2   28  -0.473   0.106   0.222
    1UNL     H3   29  -0.374  -0.039   0.269
    1UNL     H4   30  -0.298   0.155   0.054
    1UNL     H5   31  -0.300  -0.234   0.120
    1UNL     H6   32  -0.310  -0.235  -0.062
    1UNL     H7   33  -0.089  -0.249   0.219
    1UNL     H8   34   0.056  -0.296   0.130
    1UNL     H9   35   0.102  -0.072   0.204
    1UNL    H10   36  -0.048  -0.013   0.158
    1UNL    H11   37   0.465  -0.194  -0.167
    1UNL    H12   38   0.609  -0.025  -0.048
    1UNL    H13   39   0.506   0.144   0.096
    1UNL    H14   40   0.255   0.150   0.118
    1UNL    H15   41  -0.028  -0.329  -0.184
    1UNL    H16   42  -0.241  -0.175  -0.212
    1UNL    H17   43  -0.077  -0.104  -0.298
    1UNL    H18   44  -0.222   0.071  -0.161
    1UNL    H19   45   0.064   0.043  -0.285
    1UNL    H20   46   0.146   0.159  -0.181
    1UNL    H21   47  -0.101   0.248  -0.195
    1UNL    H22   48   0.093   0.395   0.168
    1UNL    H23   49  -0.068   0.360   0.134
    1UNL    H24   50  -0.004   0.295   0.282
   0.00000   0.00000   0.00000   0.00000   0.00000   0.00000   0.00000   0.00000   0.00000
Generated with MDTraj, t= 9.0
 50
    1UNL     C1    1  -0.386   0.023   0.200
    1UNL     C2    2  -0.308   0.051   0.076
    1UNL     C3    3  -0.243  -0.039   0.004
    1UNL     C4    4  -0.239  -0.181   0.039
    1UNL     N1    5  -0.115  -0.259   0.006
    1UNL     C5    6  -0.017  -0.247   0.125
    1UNL     C6    7   0.029  -0.100   0.132
    1UNL     C7    8   0.074  -0.047  -0.016
    1UNL     C8    9   0.081  -0.163  -0.107
    1UNL     N2   10   0.192  -0.195  -0.160
    1UNL     C9   11   0.281  -0.115  -0.087
    1UNL    C10   12   0.420  -0.106  -0.102
    1UNL    C11   13   0.498  -0.019  -0.032
    1UNL    C12   14   0.435   0.086   0.037
    1UNL    C13   15   0.296   0.081   0.055
    1UNL    C14   16   0.223  -0.017  -0.005
    1UNL    C15   17  -0.052  -0.229  -0.129
    1UNL    C16   18  -0.141  -0.128  -0.207
    1UNL    C17   19  -0.158   0.000  -0.118
    1UNL    C18   20  -0.024   0.065  -0.075
    1UNL    C19   21   0.047   0.139  -0.196
    1UNL     O1   22  -0.037   0.218  -0.275
    1UNL    C20   23  -0.041   0.179   0.015
    1UNL     O2   24  -0.120   0.262  -0.017
    1UNL     O3   25   0.040   0.196   0.120
    1UNL    C21   26   0.010   0.317   0.177
    1UNL     H1   27  -0.449  -0.066   0.163
    1UNL     H2   28  -0.441   0.113   0.224
    1UNL     H3   29  -0.332  -0.015   0.283
    1UNL     H4   30  -0.293   0.147   0.044
    1UNL     H5   31  -0.235  -0.181   0.157
    1UNL     H6   32  -0.320  -0.251   0.004
    1UNL     H7   33  -0.056  -0.285   0.220
    1UNL     H8   34   0.073  -0.310   0.098
    1UNL     H9   35   0.118  -0.096   0.189
    1UNL    H10   36  -0.042  -0.034   0.174
    1UNL    H11   37   0.467  -0.178  -0.164
    1UNL    H12   38   0.605  -0.018  -0.041
    1UNL    H13   39   0.491   0.161   0.080
    1UNL    H14   40   0.251   0.144   0.126
    1UNL    H15   41  -0.047  -0.337  -0.174
    1UNL    H16   42  -0.241  -0.176  -0.212
    1UNL    H17   43  -0.080  -0.109  -0.299
    1UNL    H18   44  -0.216   0.070  -0.174
    1UNL    H19   45   0.086   0.068  -0.273
    1UNL    H20   46   0.136   0.194  -0.160
    1UNL    H21   47  -0.060   0.290  -0.217
    1UNL    H22   48   0.036   0.314   0.282
    1UNL    H23   49   0.065   0.394   0.117
    1UNL    H24   50  -0.090   0.343   0.165
   0.00000   0.00000   0.00000   0.00000   0.00000   0.00000   0.00000   0.00000   0.00000
Generated with MDTraj, t= 10.0
 50
    1UNL     C1    1  -0.381   0.025   0.210
    1UNL     C2    2  -0.306   0.041   0.080
    1UNL     C3    3  -0.246  -0.040  -0.001
    1UNL     C4    4  -0.254  -0.184   0.041
    1UNL     N1    5  -0.120  -0.251   0.010
    1UNL     C5    6  -0.030  -0.238   0.127
    1UNL     C6    7   0.038  -0.096   0.135
    1UNL     C7    8   0.077  -0.048  -0.008
    1UNL     C8    9   0.079  -0.166  -0.105
    1UNL     N2   10   0.195  -0.196  -0.152
    1UNL     C9   11   0.286  -0.109  -0.100
    1UNL    C10   12   0.426  -0.110  -0.101
    1UNL    C11   13   0.500  -0.005  -0.045
    1UNL    C12   14   0.440   0.086   0.035
    1UNL    C13   15   0.298   0.080   0.053
    1UNL    C14   16   0.223  -0.011  -0.021
    1UNL    C15   17  -0.057  -0.226  -0.121
    1UNL    C16   18  -0.134  -0.122  -0.209
    1UNL    C17   19  -0.156   0.004  -0.122
    1UNL    C18   20  -0.018   0.061  -0.081
    1UNL    C19   21   0.051   0.126  -0.205
    1UNL     O1   22  -0.036   0.195  -0.298
    1UNL    C20   23  -0.035   0.189   0.011
    1UNL     O2   24  -0.098   0.286  -0.028
    1UNL     O3   25   0.022   0.185   0.139
    1UNL    C21   26  -0.009   0.298   0.213
    1UNL     H1   27  -0.443  -0.071   0.196
    1UNL     H2   28  -0.442   0.103   0.223
    1UNL     H3   29  -0.326   0.009   0.304
    1UNL     H4   30  -0.285   0.146   0.043
    1UNL     H5   31  -0.276  -0.224   0.151
    1UNL     H6   32  -0.330  -0.226  -0.029
    1UNL     H7   33  -0.089  -0.252   0.218
    1UNL     H8   34   0.052  -0.314   0.116
    1UNL     H9   35   0.126  -0.098   0.192
    1UNL    H10   36  -0.043  -0.037   0.174
    1UNL    H11   37   0.476  -0.177  -0.169
    1UNL    H12   38   0.607  -0.000  -0.068
    1UNL    H13   39   0.495   0.179   0.066
    1UNL    H14   40   0.247   0.155   0.115
    1UNL    H15   41  -0.039  -0.325  -0.181
    1UNL    H16   42  -0.225  -0.179  -0.238
    1UNL    H17   43  -0.069  -0.096  -0.294
    1UNL    H18   44  -0.209   0.081  -0.174
    1UNL    H19   45   0.114   0.050  -0.259
    1UNL    H20   46   0.118   0.208  -0.173
    1UNL    H21   47  -0.078   0.274  -0.254
    1UNL    H22   48  -0.019   0.266   0.314
    1UNL    H23   49   0.061   0.385   0.187
    1UNL    H24   50  -0.100   0.340   0.176
   0.00000   0.00000   0.00000   0.00000   0.00000   0.00000   0.00000   0.00000   0.00000
Generated with MDTraj, t= 11.0
 50
    1UNL     C1    1  -0.389   0.037   0.195
    1UNL     C2    2  -0.297   0.061   0.079
    1UNL     C3    3  -0.246  -0.039   0.009
    1UNL     C4    4  -0.260  -0.184   0.035
    1UNL     N1    5  -0.129  -0.261   0.010
    1UNL     C5    6  -0.032  -0.237   0.127
    1UNL     C6    7   0.042  -0.097   0.126
    1UNL     C7    8   0.086  -0.045  -0.010
    1UNL     C8    9   0.080  -0.171  -0.099
    1UNL     N2   10   0.197  -0.205  -0.139
    1UNL     C9   11   0.292  -0.107  -0.093
    1UNL    C10   12   0.428  -0.106  -0.115
    1UNL    C11   13   0.498   0.007  -0.069
    1UNL    C12   14   0.439   0.098   0.016
    1UNL    C13   15   0.306   0.082   0.059
    1UNL    C14   16   0.229  -0.013  -0.009
    1UNL    C15   17  -0.055  -0.232  -0.119
    1UNL    C16   18  -0.136  -0.123  -0.203
    1UNL    C17   19  -0.157  -0.006  -0.110
    1UNL    C18   20  -0.014   0.062  -0.079
    1UNL    C19   21   0.051   0.110  -0.209
    1UNL     O1   22  -0.019   0.209  -0.287
    1UNL    C20   23  -0.037   0.185   0.014
    1UNL     O2   24  -0.082   0.286  -0.033
    1UNL     O3   25  -0.003   0.175   0.144
    1UNL    C21   26  -0.031   0.289   0.223
    1UNL     H1   27  -0.485   0.004   0.147
    1UNL     H2   28  -0.417   0.120   0.254
    1UNL     H3   29  -0.356  -0.038   0.270
    1UNL     H4   30  -0.261   0.155   0.049
    1UNL     H5   31  -0.280  -0.193   0.150
    1UNL     H6   32  -0.341  -0.244  -0.015
    1UNL     H7   33  -0.077  -0.250   0.225
    1UNL     H8   34   0.050  -0.313   0.117
    1UNL     H9   35   0.122  -0.107   0.191
    1UNL    H10   36  -0.031  -0.024   0.165
    1UNL    H11   37   0.475  -0.182  -0.175
    1UNL    H12   38   0.596   0.020  -0.108
    1UNL    H13   39   0.497   0.180   0.051
    1UNL    H14   40   0.261   0.166   0.107
    1UNL    H15   41  -0.059  -0.335  -0.176
    1UNL    H16   42  -0.228  -0.158  -0.259
    1UNL    H17   43  -0.069  -0.098  -0.284
    1UNL    H18   44  -0.215   0.065  -0.165
    1UNL    H19   45   0.060   0.027  -0.282
    1UNL    H20   46   0.155   0.140  -0.192
    1UNL    H21   47  -0.044   0.284  -0.231
    1UNL    H22   48   0.030   0.289   0.311
    1UNL    H23   49  -0.039   0.386   0.157
    1UNL    H24   50  -0.134   0.278   0.257
   0.00000   0.00000   0.00000   0.00000   0.00000   0.00000   0.00000   0.00000   0.00000
Generated with MDTraj, t= 12.0
 50
    1UNL     C1    1  -0.384   0.041   0.174
    1UNL     C2    2  -0.304   0.066   0.053
    1UNL     C3    3  -0.237  -0.031  -0.007
    1UNL     C4    4  -0.244  -0.172   0.049
    1UNL     N1    5  -0.124  -0.255   0.022
    1UNL     C5    6  -0.020  -0.237   0.129
    1UNL     C6    7   0.035  -0.096   0.133
    1UNL     C7    8   0.084  -0.049  -0.006
    1UNL     C8    9   0.072  -0.175  -0.095
    1UNL     N2   10   0.184  -0.201  -0.148
    1UNL     C9   11   0.286  -0.109  -0.098
    1UNL    C10   12   0.422  -0.108  -0.126
    1UNL    C11   13   0.487   0.008  -0.082
    1UNL    C12   14   0.428   0.099   0.009
    1UNL    C13   15   0.298   0.087   0.043
    1UNL    C14   16   0.228  -0.019  -0.010
    1UNL    C15   17  -0.063  -0.238  -0.120
    1UNL    C16   18  -0.126  -0.130  -0.214
    1UNL    C17   19  -0.141  -0.009  -0.120
    1UNL    C18   20  -0.009   0.061  -0.069
    1UNL    C19   21   0.067   0.110  -0.197
    1UNL     O1   22  -0.006   0.206  -0.274
    1UNL    C20   23  -0.038   0.178   0.025
    1UNL     O2   24  -0.113   0.264  -0.014
    1UNL     O3   25   0.009   0.187   0.154
    1UNL    C21   26  -0.032   0.295   0.233
    1UNL     H1   27  -0.473  -0.018   0.141
    1UNL     H2   28  -0.452   0.133   0.204
    1UNL     H3   29  -0.317   0.019   0.259
    1UNL     H4   30  -0.299   0.169   0.016
    1UNL     H5   31  -0.256  -0.183   0.163
    1UNL     H6   32  -0.340  -0.223   0.012
    1UNL     H7   33  -0.067  -0.271   0.222
    1UNL     H8   34   0.066  -0.304   0.111
    1UNL     H9   35   0.114  -0.093   0.200
    1UNL    H10   36  -0.043  -0.027   0.170
    1UNL    H11   37   0.465  -0.199  -0.166
    1UNL    H12   38   0.595   0.020  -0.101
    1UNL    H13   39   0.490   0.176   0.055
    1UNL    H14   40   0.258   0.166   0.106
    1UNL    H15   41  -0.055  -0.344  -0.169
    1UNL    H16   42  -0.229  -0.157  -0.251
    1UNL    H17   43  -0.067  -0.122  -0.305
    1UNL    H18   44  -0.189   0.063  -0.182
    1UNL    H19   45   0.094   0.022  -0.256
    1UNL    H20   46   0.162   0.158  -0.173
    1UNL    H21   47  -0.038   0.277  -0.212
    1UNL    H22   48   0.005   0.278   0.332
    1UNL    H23   49   0.005   0.398   0.187
    1UNL    H24   50  -0.143   0.291   0.240
   0.00000   0.00000   0.00000   0.00000   0.00000   0.00000   0.00000   0.00000   0.00000
Generated with MDTraj, t= 13.0
 50
    1UNL     C1    1  -0.427   0.038   0.155
    1UNL     C2    2  -0.320   0.062   0.054
    1UNL     C3    3  -0.249  -0.033  -0.008
    1UNL     C4    4  -0.253  -0.174   0.039
    1UNL     N1    5  -0.118  -0.247   0.023
    1UNL     C5    6  -0.032  -0.223   0.141
    1UNL     C6    7   0.031  -0.089   0.133
    1UNL     C7    8   0.085  -0.051  -0.007
    1UNL     C8    9   0.081  -0.175  -0.091
    1UNL     N2   10   0.194  -0.198  -0.144
    1UNL     C9   11   0.289  -0.107  -0.099
    1UNL    C10   12   0.425  -0.099  -0.132
    1UNL    C11   13   0.502  -0.000  -0.074
    1UNL    C12   14   0.441   0.093   0.012
    1UNL    C13   15   0.311   0.084   0.043
    1UNL    C14   16   0.234  -0.016  -0.009
    1UNL    C15   17  -0.055  -0.234  -0.110
    1UNL    C16   18  -0.125  -0.133  -0.199
    1UNL    C17   19  -0.145  -0.003  -0.128
    1UNL    C18   20  -0.009   0.058  -0.074
    1UNL    C19   21   0.051   0.116  -0.202
    1UNL     O1   22  -0.038   0.215  -0.262
    1UNL    C20   23  -0.034   0.176   0.023
    1UNL     O2   24  -0.122   0.254  -0.004
    1UNL     O3   25   0.039   0.180   0.138
    1UNL    C21   26   0.011   0.285   0.228
    1UNL     H1   27  -0.458  -0.064   0.166
    1UNL     H2   28  -0.529   0.079   0.102
    1UNL     H3   29  -0.408   0.100   0.245
    1UNL     H4   30  -0.295   0.166   0.031
    1UNL     H5   31  -0.297  -0.185   0.142
    1UNL     H6   32  -0.325  -0.242  -0.025
    1UNL     H7   33  -0.084  -0.245   0.236
    1UNL     H8   34   0.037  -0.307   0.127
    1UNL     H9   35   0.117  -0.081   0.194
    1UNL    H10   36  -0.033  -0.009   0.170
    1UNL    H11   37   0.467  -0.180  -0.187
    1UNL    H12   38   0.607   0.004  -0.083
    1UNL    H13   39   0.504   0.172   0.057
    1UNL    H14   40   0.262   0.148   0.117
    1UNL    H15   41  -0.042  -0.341  -0.154
    1UNL    H16   42  -0.220  -0.186  -0.233
    1UNL    H17   43  -0.081  -0.118  -0.297
    1UNL    H18   44  -0.182   0.069  -0.197
    1UNL    H19   45   0.072   0.039  -0.276
    1UNL    H20   46   0.146   0.159  -0.172
    1UNL    H21   47  -0.076   0.271  -0.189
    1UNL    H22   48  -0.020   0.250   0.325
    1UNL    H23   49   0.101   0.364   0.234
    1UNL    H24   50  -0.082   0.331   0.189
   0.00000   0.00000   0.00000   0.00000   0.00000   0.00000   0.00000   0.00000   0.00000
Generated with MDTraj, t= 14.0
 50
    1UNL     C1    1  -0.459   0.016   0.137
    1UNL     C2    2  -0.357   0.044   0.035
    1UNL     C3    3  -0.253  -0.031   0.001
    1UNL     C4    4  -0.237  -0.170   0.053
    1UNL     N1    5  -0.109  -0.242   0.016
    1UNL     C5    6  -0.005  -0.245   0.124
    1UNL     C6    7   0.043  -0.101   0.136
    1UNL     C7    8   0.078  -0.048  -0.005
    1UNL     C8    9   0.085  -0.169  -0.095
    1UNL     N2   10   0.195  -0.208  -0.146
    1UNL     C9   11   0.287  -0.118  -0.092
    1UNL    C10   12   0.427  -0.107  -0.121
    1UNL    C11   13   0.507  -0.015  -0.057
    1UNL    C12   14   0.445   0.087   0.015
    1UNL    C13   15   0.305   0.088   0.033
    1UNL    C14   16   0.226  -0.016  -0.017
    1UNL    C15   17  -0.051  -0.224  -0.117
    1UNL    C16   18  -0.138  -0.125  -0.195
    1UNL    C17   19  -0.158   0.003  -0.108
    1UNL    C18   20  -0.017   0.062  -0.064
    1UNL    C19   21   0.050   0.129  -0.185
    1UNL     O1   22  -0.033   0.218  -0.250
    1UNL    C20   23  -0.039   0.177   0.027
    1UNL     O2   24  -0.120   0.262  -0.005
    1UNL     O3   25   0.050   0.192   0.128
    1UNL    C21   26   0.038   0.310   0.204
    1UNL     H1   27  -0.497  -0.082   0.147
    1UNL     H2   28  -0.548   0.081   0.111
    1UNL     H3   29  -0.434   0.048   0.245
    1UNL     H4   30  -0.358   0.141  -0.005
    1UNL     H5   31  -0.230  -0.171   0.164
    1UNL     H6   32  -0.337  -0.231   0.031
    1UNL     H7   33  -0.052  -0.304   0.205
    1UNL     H8   34   0.079  -0.302   0.088
    1UNL     H9   35   0.127  -0.087   0.203
    1UNL    H10   36  -0.032  -0.031   0.172
    1UNL    H11   37   0.484  -0.170  -0.188
    1UNL    H12   38   0.617  -0.008  -0.076
    1UNL    H13   39   0.504   0.161   0.059
    1UNL    H14   40   0.247   0.158   0.087
    1UNL    H15   41  -0.048  -0.331  -0.162
    1UNL    H16   42  -0.240  -0.165  -0.229
    1UNL    H17   43  -0.100  -0.106  -0.294
    1UNL    H18   44  -0.215   0.081  -0.152
    1UNL    H19   45   0.078   0.049  -0.252
    1UNL    H20   46   0.137   0.189  -0.156
    1UNL    H21   47  -0.067   0.282  -0.184
    1UNL    H22   48   0.009   0.286   0.303
    1UNL    H23   49   0.142   0.363   0.204
    1UNL    H24   50  -0.047   0.367   0.165
   0.00000   0.00000   0.00000   0.00000   0.00000   0.00000   0.00000   0.00000   0.00000
Generated with MDTraj, t= 15.0
 50
    1UNL     C1    1  -0.460   0.008   0.135
    1UNL     C2    2  -0.338   0.045   0.050
    1UNL     C3    3  -0.248  -0.040   0.003
    1UNL     C4    4  -0.242  -0.183   0.040
    1UNL     N1    5  -0.105  -0.250   0.022
    1UNL     C5    6  -0.008  -0.229   0.136
    1UNL     C6    7   0.038  -0.086   0.137
    1UNL     C7    8   0.079  -0.046  -0.005
    1UNL     C8    9   0.081  -0.169  -0.092
    1UNL     N2   10   0.190  -0.208  -0.146
    1UNL     C9   11   0.287  -0.117  -0.103
    1UNL    C10   12   0.422  -0.116  -0.130
    1UNL    C11   13   0.501  -0.029  -0.053
    1UNL    C12   14   0.445   0.071   0.023
    1UNL    C13   15   0.306   0.084   0.029
    1UNL    C14   16   0.229  -0.014  -0.027
    1UNL    C15   17  -0.053  -0.227  -0.114
    1UNL    C16   18  -0.128  -0.126  -0.193
    1UNL    C17   19  -0.152   0.001  -0.111
    1UNL    C18   20  -0.017   0.065  -0.067
    1UNL    C19   21   0.059   0.142  -0.186
    1UNL     O1   22  -0.029   0.224  -0.249
    1UNL    C20   23  -0.041   0.183   0.026
    1UNL     O2   24  -0.138   0.255   0.011
    1UNL     O3   25   0.060   0.210   0.118
    1UNL    C21   26   0.026   0.318   0.200
    1UNL     H1   27  -0.538  -0.049   0.087
    1UNL     H2   28  -0.495   0.095   0.180
    1UNL     H3   29  -0.443  -0.078   0.217
    1UNL     H4   30  -0.310   0.149   0.015
    1UNL     H5   31  -0.292  -0.203   0.138
    1UNL     H6   32  -0.298  -0.249  -0.040
    1UNL     H7   33  -0.059  -0.250   0.232
    1UNL     H8   34   0.073  -0.295   0.114
    1UNL     H9   35   0.103  -0.057   0.223
    1UNL    H10   36  -0.052  -0.029   0.145
    1UNL    H11   37   0.463  -0.168  -0.215
    1UNL    H12   38   0.605  -0.040  -0.055
    1UNL    H13   39   0.506   0.151   0.073
    1UNL    H14   40   0.257   0.168   0.081
    1UNL    H15   41  -0.041  -0.332  -0.162
    1UNL    H16   42  -0.226  -0.165  -0.235
    1UNL    H17   43  -0.078  -0.105  -0.286
    1UNL    H18   44  -0.208   0.068  -0.172
    1UNL    H19   45   0.108   0.083  -0.262
    1UNL    H20   46   0.128   0.207  -0.132
    1UNL    H21   47  -0.095   0.258  -0.180
    1UNL    H22   48  -0.015   0.287   0.294
    1UNL    H23   49   0.121   0.375   0.215
    1UNL    H24   50  -0.056   0.372   0.153
   0.00000   0.00000   0.00000   0.00000   0.00000   0.00000   0.00000   0.00000   0.00000
Generated with MDTraj, t= 16.0
 50
    1UNL     C1    1  -0.425   0.033   0.173
    1UNL     C2    2  -0.333   0.057   0.050
    1UNL     C3    3  -0.253  -0.034  -0.010
    1UNL     C4    4  -0.260  -0.184   0.023
    1UNL     N1    5  -0.119  -0.246   0.021
    1UNL     C5    6  -0.023  -0.229   0.140
    1UNL     C6    7   0.038  -0.087   0.134
    1UNL     C7    8   0.094  -0.047  -0.008
    1UNL     C8    9   0.085  -0.171  -0.092
    1UNL     N2   10   0.200  -0.207  -0.137
    1UNL     C9   11   0.296  -0.109  -0.099
    1UNL    C10   12   0.430  -0.103  -0.127
    1UNL    C11   13   0.508  -0.010  -0.058
    1UNL    C12   14   0.449   0.080   0.026
    1UNL    C13   15   0.312   0.084   0.046
    1UNL    C14   16   0.238  -0.010  -0.016
    1UNL    C15   17  -0.059  -0.230  -0.115
    1UNL    C16   18  -0.134  -0.130  -0.204
    1UNL    C17   19  -0.153   0.002  -0.116
    1UNL    C18   20  -0.014   0.055  -0.072
    1UNL    C19   21   0.049   0.123  -0.205
    1UNL     O1   22  -0.042   0.226  -0.249
    1UNL    C20   23  -0.039   0.174   0.022
    1UNL     O2   24  -0.137   0.243   0.010
    1UNL     O3   25   0.051   0.191   0.117
    1UNL    C21   26   0.009   0.301   0.195
    1UNL     H1   27  -0.520  -0.017   0.152
    1UNL     H2   28  -0.434   0.127   0.211
    1UNL     H3   29  -0.372  -0.039   0.242
    1UNL     H4   30  -0.317   0.155   0.023
    1UNL     H5   31  -0.302  -0.214   0.124
    1UNL     H6   32  -0.335  -0.224  -0.055
    1UNL     H7   33  -0.087  -0.241   0.231
    1UNL     H8   34   0.055  -0.301   0.135
    1UNL     H9   35   0.119  -0.075   0.209
    1UNL    H10   36  -0.039  -0.023   0.167
    1UNL    H11   37   0.463  -0.177  -0.198
    1UNL    H12   38   0.619  -0.019  -0.066
    1UNL    H13   39   0.505   0.150   0.079
    1UNL    H14   40   0.270   0.162   0.105
    1UNL    H15   41  -0.045  -0.335  -0.161
    1UNL    H16   42  -0.232  -0.168  -0.241
    1UNL    H17   43  -0.079  -0.104  -0.294
    1UNL    H18   44  -0.198   0.086  -0.164
    1UNL    H19   45   0.054   0.050  -0.284
    1UNL    H20   46   0.150   0.161  -0.182
    1UNL    H21   47  -0.070   0.276  -0.171
    1UNL    H22   48  -0.097   0.304   0.211
    1UNL    H23   49   0.066   0.300   0.288
    1UNL    H24   50   0.022   0.390   0.137
   0.00000   0.00000   0.00000   0.00000   0.00000   0.00000   0.00000   0.00000   0.00000
Generated with MDTraj, t= 17.0
 50
    1UNL     C1    1  -0.387   0.034   0.179
    1UNL     C2    2  -0.307   0.064   0.056
    1UNL     C3    3  -0.234  -0.036   0.004
    1UNL     C4    4  -0.243  -0.181   0.035
    1UNL     N1    5  -0.122  -0.266   0.010
    1UNL     C5    6  -0.011  -0.253   0.122
    1UNL     C6    7   0.030  -0.101   0.135
    1UNL     C7    8   0.076  -0.044  -0.003
    1UNL     C8    9   0.068  -0.170  -0.100
    1UNL     N2   10   0.186  -0.200  -0.136
    1UNL     C9   11   0.282  -0.108  -0.091
    1UNL    C10   12   0.420  -0.101  -0.114
    1UNL    C11   13   0.491   0.003  -0.059
    1UNL    C12   14   0.422   0.102   0.016
    1UNL    C13   15   0.285   0.096   0.041
    1UNL    C14   16   0.221  -0.012  -0.011
    1UNL    C15   17  -0.062  -0.231  -0.126
    1UNL    C16   18  -0.135  -0.127  -0.206
    1UNL    C17   19  -0.149   0.002  -0.113
    1UNL    C18   20  -0.014   0.061  -0.065
    1UNL    C19   21   0.053   0.109  -0.200
    1UNL     O1   22  -0.017   0.206  -0.280
    1UNL    C20   23  -0.033   0.183   0.022
    1UNL     O2   24  -0.093   0.281  -0.017
    1UNL     O3   25   0.013   0.172   0.151
    1UNL    C21   26   0.006   0.299   0.210
    1UNL     H1   27  -0.414  -0.073   0.189
    1UNL     H2   28  -0.476   0.090   0.176
    1UNL     H3   29  -0.330   0.067   0.257
    1UNL     H4   30  -0.294   0.170   0.019
    1UNL     H5   31  -0.281  -0.185   0.143
    1UNL     H6   32  -0.316  -0.233  -0.033
    1UNL     H7   33  -0.040  -0.305   0.216
    1UNL     H8   34   0.077  -0.296   0.084
    1UNL     H9   35   0.118  -0.094   0.204
    1UNL    H10   36  -0.043  -0.046   0.186
    1UNL    H11   37   0.472  -0.189  -0.151
    1UNL    H12   38   0.593   0.011  -0.073
    1UNL    H13   39   0.486   0.182   0.057
    1UNL    H14   40   0.241   0.172   0.104
    1UNL    H15   41  -0.067  -0.333  -0.180
    1UNL    H16   42  -0.239  -0.160  -0.232
    1UNL    H17   43  -0.098  -0.110  -0.308
    1UNL    H18   44  -0.201   0.082  -0.160
    1UNL    H19   45   0.055   0.023  -0.265
    1UNL    H20   46   0.157   0.144  -0.189
    1UNL    H21   47  -0.068   0.269  -0.221
    1UNL    H22   48  -0.095   0.341   0.213
    1UNL    H23   49   0.050   0.290   0.304
    1UNL    H24   50   0.058   0.367   0.146
   0.00000   0.00000   0.00000   0.00000   0.00000   0.00000   0.00000   0.00000   0.00000
Generated with MDTraj, t= 18.0
 50
    1UNL     C1    1  -0.383   0.014   0.195
    1UNL     C2    2  -0.290   0.061   0.082
    1UNL     C3    3  -0.230  -0.031   0.003
    1UNL     C4    4  -0.253  -0.181   0.032
    1UNL     N1    5  -0.128  -0.256   0.019
    1UNL     C5    6  -0.031  -0.239   0.129
    1UNL     C6    7   0.029  -0.101   0.130
    1UNL     C7    8   0.079  -0.052  -0.003
    1UNL     C8    9   0.076  -0.173  -0.099
    1UNL     N2   10   0.193  -0.198  -0.149
    1UNL     C9   11   0.281  -0.106  -0.096
    1UNL    C10   12   0.418  -0.094  -0.118
    1UNL    C11   13   0.487   0.010  -0.064
    1UNL    C12   14   0.427   0.103   0.024
    1UNL    C13   15   0.293   0.087   0.054
    1UNL    C14   16   0.220  -0.017  -0.008
    1UNL    C15   17  -0.062  -0.229  -0.117
    1UNL    C16   18  -0.132  -0.114  -0.199
    1UNL    C17   19  -0.143   0.014  -0.111
    1UNL    C18   20  -0.002   0.065  -0.080
    1UNL    C19   21   0.059   0.102  -0.218
    1UNL     O1   22  -0.028   0.186  -0.293
    1UNL    C20   23  -0.020   0.186   0.013
    1UNL     O2   24  -0.051   0.294  -0.031
    1UNL     O3   25  -0.006   0.167   0.148
    1UNL    C21   26  -0.043   0.282   0.218
    1UNL     H1   27  -0.464  -0.054   0.171
    1UNL     H2   28  -0.441   0.092   0.245
    1UNL     H3   29  -0.333  -0.009   0.280
    1UNL     H4   30  -0.271   0.161   0.057
    1UNL     H5   31  -0.310  -0.210   0.130
    1UNL     H6   32  -0.322  -0.200  -0.054
    1UNL     H7   33  -0.081  -0.263   0.225
    1UNL     H8   34   0.039  -0.315   0.108
    1UNL     H9   35   0.117  -0.102   0.200
    1UNL    H10   36  -0.032  -0.024   0.175
    1UNL    H11   37   0.463  -0.173  -0.174
    1UNL    H12   38   0.595   0.020  -0.087
    1UNL    H13   39   0.479   0.192   0.051
    1UNL    H14   40   0.245   0.156   0.122
    1UNL    H15   41  -0.056  -0.327  -0.177
    1UNL    H16   42  -0.235  -0.140  -0.230
    1UNL    H17   43  -0.088  -0.094  -0.297
    1UNL    H18   44  -0.199   0.089  -0.161
    1UNL    H19   45   0.092   0.023  -0.283
    1UNL    H20   46   0.144   0.172  -0.198
    1UNL    H21   47  -0.050   0.259  -0.235
    1UNL    H22   48  -0.150   0.309   0.205
    1UNL    H23   49  -0.021   0.270   0.318
    1UNL    H24   50   0.013   0.366   0.175
   0.00000   0.00000   0.00000   0.00000   0.00000   0.00000   0.00000   0.00000   0.00000
Generated with MDTraj, t= 19.0
 50
    1UNL     C1    1  -0.376   0.044   0.213
    1UNL     C2    2  -0.313   0.055   0.074
    1UNL     C3    3  -0.242  -0.044   0.008
    1UNL     C4    4  -0.253  -0.191   0.034
    1UNL     N1    5  -0.124  -0.258   0.007
    1UNL     C5    6  -0.027  -0.242   0.125
    1UNL     C6    7   0.032  -0.103   0.134
    1UNL     C7    8   0.082  -0.048  -0.005
    1UNL     C8    9   0.082  -0.166  -0.097
    1UNL     N2   10   0.190  -0.194  -0.163
    1UNL     C9   11   0.287  -0.108  -0.100
    1UNL    C10   12   0.426  -0.098  -0.126
    1UNL    C11   13   0.506  -0.000  -0.064
    1UNL    C12   14   0.454   0.087   0.030
    1UNL    C13   15   0.319   0.072   0.060
    1UNL    C14   16   0.232  -0.019  -0.005
    1UNL    C15   17  -0.054  -0.224  -0.119
    1UNL    C16   18  -0.132  -0.125  -0.202
    1UNL    C17   19  -0.153  -0.002  -0.111
    1UNL    C18   20  -0.013   0.064  -0.076
    1UNL    C19   21   0.058   0.116  -0.206
    1UNL     O1   22  -0.018   0.202  -0.284
    1UNL    C20   23  -0.045   0.183   0.015
    1UNL     O2   24  -0.072   0.289  -0.033
    1UNL     O3   25  -0.038   0.174   0.147
    1UNL    C21   26  -0.045   0.302   0.206
    1UNL     H1   27  -0.475   0.020   0.225
    1UNL     H2   28  -0.374   0.138   0.269
    1UNL     H3   29  -0.303  -0.002   0.284
    1UNL     H4   30  -0.324   0.153   0.023
    1UNL     H5   31  -0.280  -0.197   0.147
    1UNL     H6   32  -0.337  -0.239  -0.024
    1UNL     H7   33  -0.080  -0.277   0.215
    1UNL     H8   34   0.048  -0.312   0.104
    1UNL     H9   35   0.114  -0.095   0.207
    1UNL    H10   36  -0.043  -0.031   0.180
    1UNL    H11   37   0.465  -0.167  -0.201
    1UNL    H12   38   0.608   0.008  -0.094
    1UNL    H13   39   0.516   0.166   0.075
    1UNL    H14   40   0.265   0.141   0.121
    1UNL    H15   41  -0.039  -0.324  -0.176
    1UNL    H16   42  -0.225  -0.165  -0.242
    1UNL    H17   43  -0.072  -0.098  -0.291
    1UNL    H18   44  -0.196   0.065  -0.181
    1UNL    H19   45   0.069   0.030  -0.270
    1UNL    H20   46   0.157   0.168  -0.204
    1UNL    H21   47  -0.048   0.278  -0.223
    1UNL    H22   48  -0.140   0.358   0.171
    1UNL    H23   49  -0.048   0.301   0.310
    1UNL    H24   50   0.042   0.361   0.168
   0.00000   0.00000   0.00000   0.00000   0.00000   0.00000   0.00000   0.00000   0.00000
Generated with MDTraj, t= 20.0
 50
    1UNL     C1    1  -0.396   0.037   0.189
    1UNL     C2    2  -0.309   0.059   0.073
    1UNL     C3    3  -0.233  -0.037   0.009
    1UNL     C4    4  -0.241  -0.182   0.051
    1UNL     N1    5  -0.115  -0.259   0.016
    1UNL     C5    6  -0.015  -0.233   0.128
    1UNL     C6    7   0.036  -0.088   0.128
    1UNL     C7    8   0.079  -0.044  -0.017
    1UNL     C8    9   0.080  -0.169  -0.110
    1UNL     N2   10   0.193  -0.196  -0.162
    1UNL     C9   11   0.286  -0.112  -0.101
    1UNL    C10   12   0.423  -0.115  -0.114
    1UNL    C11   13   0.498  -0.016  -0.046
    1UNL    C12   14   0.430   0.081   0.030
    1UNL    C13   15   0.294   0.082   0.048
    1UNL    C14   16   0.229  -0.017  -0.017
    1UNL    C15   17  -0.051  -0.231  -0.122
    1UNL    C16   18  -0.134  -0.124  -0.201
    1UNL    C17   19  -0.153   0.002  -0.107
    1UNL    C18   20  -0.009   0.068  -0.078
    1UNL    C19   21   0.059   0.128  -0.209
    1UNL     O1   22  -0.022   0.204  -0.300
    1UNL    C20   23  -0.033   0.188   0.016
    1UNL     O2   24  -0.105   0.277  -0.020
    1UNL     O3   25   0.017   0.185   0.142
    1UNL    C21   26  -0.041   0.278   0.227
    1UNL     H1   27  -0.444  -0.052   0.191
    1UNL     H2   28  -0.465   0.115   0.188
    1UNL     H3   29  -0.323   0.059   0.279
    1UNL     H4   30  -0.317   0.164   0.045
    1UNL     H5   31  -0.273  -0.202   0.159
    1UNL     H6   32  -0.325  -0.224  -0.011
    1UNL     H7   33  -0.067  -0.263   0.220
    1UNL     H8   34   0.069  -0.295   0.111
    1UNL     H9   35   0.108  -0.067   0.208
    1UNL    H10   36  -0.052  -0.020   0.156
    1UNL    H11   37   0.475  -0.180  -0.177
    1UNL    H12   38   0.606  -0.012  -0.047
    1UNL    H13   39   0.484   0.158   0.082
    1UNL    H14   40   0.235   0.157   0.102
    1UNL    H15   41  -0.042  -0.329  -0.181
    1UNL    H16   42  -0.232  -0.160  -0.220
    1UNL    H17   43  -0.079  -0.092  -0.292
    1UNL    H18   44  -0.209   0.070  -0.167
    1UNL    H19   45   0.110   0.061  -0.278
    1UNL    H20   46   0.134   0.201  -0.167
    1UNL    H21   47  -0.068   0.265  -0.242
    1UNL    H22   48  -0.156   0.281   0.206
    1UNL    H23   49  -0.036   0.255   0.330
    1UNL    H24   50   0.009   0.377   0.205
   0.00000   0.00000   0.00000   0.00000   0.00000   0.00000   0.00000   0.00000   0.00000
Generated with MDTraj, t= 21.0
 50
    1UNL     C1    1  -0.420   0.032   0.169
    1UNL     C2    2  -0.324   0.058   0.056
    1UNL     C3    3  -0.245  -0.036  -0.005
    1UNL     C4    4  -0.246  -0.180   0.032
    1UNL     N1    5  -0.115  -0.255   0.012
    1UNL     C5    6  -0.029  -0.232   0.138
    1UNL     C6    7   0.038  -0.093   0.132
    1UNL     C7    8   0.083  -0.048  -0.013
    1UNL     C8    9   0.083  -0.168  -0.105
    1UNL     N2   10   0.202  -0.205  -0.131
    1UNL     C9   11   0.296  -0.116  -0.082
    1UNL    C10   12   0.431  -0.119  -0.099
    1UNL    C11   13   0.504  -0.014  -0.051
    1UNL    C12   14   0.442   0.089   0.016
    1UNL    C13   15   0.304   0.091   0.037
    1UNL    C14   16   0.232  -0.012  -0.014
    1UNL    C15   17  -0.053  -0.231  -0.123
    1UNL    C16   18  -0.130  -0.126  -0.210
    1UNL    C17   19  -0.152   0.002  -0.124
    1UNL    C18   20  -0.017   0.067  -0.081
    1UNL    C19   21   0.036   0.135  -0.208
    1UNL     O1   22  -0.055   0.227  -0.280
    1UNL    C20   23  -0.039   0.176   0.024
    1UNL     O2   24  -0.125   0.259   0.005
    1UNL     O3   25   0.047   0.182   0.133
    1UNL    C21   26   0.019   0.290   0.214
    1UNL     H1   27  -0.478  -0.056   0.169
    1UNL     H2   28  -0.477   0.117   0.172
    1UNL     H3   29  -0.359   0.013   0.266
    1UNL     H4   30  -0.311   0.161   0.028
    1UNL     H5   31  -0.265  -0.180   0.140
    1UNL     H6   32  -0.338  -0.231  -0.015
    1UNL     H7   33  -0.094  -0.234   0.226
    1UNL     H8   34   0.043  -0.309   0.155
    1UNL     H9   35   0.119  -0.092   0.205
    1UNL    H10   36  -0.034  -0.011   0.169
    1UNL    H11   37   0.478  -0.203  -0.154
    1UNL    H12   38   0.613  -0.015  -0.062
    1UNL    H13   39   0.493   0.173   0.059
    1UNL    H14   40   0.251   0.158   0.100
    1UNL    H15   41  -0.059  -0.331  -0.180
    1UNL    H16   42  -0.228  -0.163  -0.229
    1UNL    H17   43  -0.071  -0.093  -0.300
    1UNL    H18   44  -0.197   0.071  -0.191
    1UNL    H19   45   0.069   0.052  -0.268
    1UNL    H20   46   0.127   0.196  -0.178
    1UNL    H21   47  -0.102   0.277  -0.206
    1UNL    H22   48  -0.040   0.245   0.305
    1UNL    H23   49   0.100   0.345   0.255
    1UNL    H24   50  -0.038   0.365   0.149
   0.00000   0.00000   0.00000   0.00000   0.00000   0.00000   0.00000   0.00000   0.00000
Generated with MDTraj, t= 22.0
 50
    1UNL     C1    1  -0.441   0.020   0.146
    1UNL     C2    2  -0.336   0.044   0.048
    1UNL     C3    3  -0.251  -0.045  -0.007
    1UNL     C4    4  -0.248  -0.186   0.036
    1UNL     N1    5  -0.115  -0.255   0.012
    1UNL     C5    6  -0.031  -0.243   0.134
    1UNL     C6    7   0.042  -0.108   0.141
    1UNL     C7    8   0.084  -0.047  -0.001
    1UNL     C8    9   0.078  -0.164  -0.092
    1UNL     N2   10   0.191  -0.206  -0.134
    1UNL     C9   11   0.288  -0.114  -0.082
    1UNL    C10   12   0.425  -0.116  -0.109
    1UNL    C11   13   0.505  -0.014  -0.061
    1UNL    C12   14   0.445   0.093   0.005
    1UNL    C13   15   0.307   0.095   0.034
    1UNL    C14   16   0.229  -0.011  -0.010
    1UNL    C15   17  -0.055  -0.233  -0.127
    1UNL    C16   18  -0.131  -0.129  -0.212
    1UNL    C17   19  -0.155  -0.007  -0.116
    1UNL    C18   20  -0.014   0.062  -0.067
    1UNL    C19   21   0.045   0.126  -0.196
    1UNL     O1   22  -0.017   0.247  -0.244
    1UNL    C20   23  -0.041   0.175   0.033
    1UNL     O2   24  -0.137   0.248   0.018
    1UNL     O3   25   0.055   0.205   0.120
    1UNL    C21   26   0.034   0.328   0.181
    1UNL     H1   27  -0.543  -0.012   0.115
    1UNL     H2   28  -0.462   0.106   0.202
    1UNL     H3   29  -0.433  -0.070   0.213
    1UNL     H4   30  -0.318   0.147   0.009
    1UNL     H5   31  -0.276  -0.184   0.140
    1UNL     H6   32  -0.333  -0.243  -0.018
    1UNL     H7   33  -0.083  -0.262   0.228
    1UNL     H8   34   0.044  -0.319   0.125
    1UNL     H9   35   0.133  -0.114   0.203
    1UNL    H10   36  -0.024  -0.037   0.200
    1UNL    H11   37   0.463  -0.197  -0.165
    1UNL    H12   38   0.606  -0.014  -0.088
    1UNL    H13   39   0.516   0.167   0.045
    1UNL    H14   40   0.266   0.172   0.100
    1UNL    H15   41  -0.026  -0.326  -0.188
    1UNL    H16   42  -0.229  -0.163  -0.231
    1UNL    H17   43  -0.070  -0.098  -0.301
    1UNL    H18   44  -0.213   0.065  -0.166
    1UNL    H19   45   0.033   0.053  -0.273
    1UNL    H20   46   0.157   0.139  -0.180
    1UNL    H21   47  -0.069   0.289  -0.175
    1UNL    H22   48  -0.018   0.296   0.279
    1UNL    H23   49   0.122   0.379   0.208
    1UNL    H24   50  -0.023   0.393   0.110
   0.00000   0.00000   0.00000   0.00000   0.00000   0.00000   0.00000   0.00000   0.00000
Generated with MDTraj, t= 23.0
 50
    1UNL     C1    1  -0.437  -0.001   0.134
    1UNL     C2    2  -0.329   0.048   0.046
    1UNL     C3    3  -0.244  -0.045  -0.003
    1UNL     C4    4  -0.242  -0.188   0.047
    1UNL     N1    5  -0.117  -0.255   0.024
    1UNL     C5    6  -0.027  -0.230   0.133
    1UNL     C6    7   0.038  -0.090   0.138
    1UNL     C7    8   0.076  -0.047  -0.006
    1UNL     C8    9   0.077  -0.176  -0.091
    1UNL     N2   10   0.187  -0.201  -0.150
    1UNL     C9   11   0.278  -0.109  -0.099
    1UNL    C10   12   0.411  -0.104  -0.137
    1UNL    C11   13   0.487  -0.012  -0.069
    1UNL    C12   14   0.435   0.079   0.027
    1UNL    C13   15   0.301   0.078   0.055
    1UNL    C14   16   0.221  -0.019  -0.008
    1UNL    C15   17  -0.055  -0.226  -0.114
    1UNL    C16   18  -0.127  -0.126  -0.200
    1UNL    C17   19  -0.146   0.001  -0.113
    1UNL    C18   20  -0.012   0.064  -0.069
    1UNL    C19   21   0.063   0.126  -0.193
    1UNL     O1   22  -0.007   0.230  -0.251
    1UNL    C20   23  -0.034   0.177   0.027
    1UNL     O2   24  -0.134   0.247   0.017
    1UNL     O3   25   0.061   0.214   0.120
    1UNL    C21   26   0.025   0.333   0.186
    1UNL     H1   27  -0.486  -0.094   0.090
    1UNL     H2   28  -0.526   0.066   0.136
    1UNL     H3   29  -0.415  -0.031   0.233
    1UNL     H4   30  -0.318   0.146   0.017
    1UNL     H5   31  -0.268  -0.195   0.150
    1UNL     H6   32  -0.327  -0.240  -0.011
    1UNL     H7   33  -0.073  -0.256   0.227
    1UNL     H8   34   0.058  -0.298   0.133
    1UNL     H9   35   0.128  -0.090   0.204
    1UNL    H10   36  -0.029  -0.014   0.186
    1UNL    H11   37   0.442  -0.158  -0.227
    1UNL    H12   38   0.596  -0.006  -0.089
    1UNL    H13   39   0.496   0.153   0.072
    1UNL    H14   40   0.264   0.148   0.127
    1UNL    H15   41  -0.050  -0.330  -0.163
    1UNL    H16   42  -0.219  -0.168  -0.235
    1UNL    H17   43  -0.055  -0.097  -0.280
    1UNL    H18   44  -0.193   0.078  -0.166
    1UNL    H19   45   0.093   0.052  -0.264
    1UNL    H20   46   0.157   0.172  -0.152
    1UNL    H21   47  -0.070   0.270  -0.183
    1UNL    H22   48  -0.086   0.329   0.198
    1UNL    H23   49   0.069   0.333   0.285
    1UNL    H24   50   0.062   0.414   0.127
   0.00000   0.00000   0.00000   0.00000   0.00000   0.00000   0.00000   0.00000   0.00000
Generated with MDTraj, t= 24.0
 50
    1UNL     C1    1  -0.438   0.051   0.157
    1UNL     C2    2  -0.334   0.051   0.044
    1UNL     C3    3  -0.247  -0.043  -0.002
    1UNL     C4    4  -0.251  -0.183   0.043
    1UNL     N1    5  -0.120  -0.244   0.018
    1UNL     C5    6  -0.026  -0.229   0.127
    1UNL     C6    7   0.039  -0.092   0.136
    1UNL     C7    8   0.088  -0.049  -0.006
    1UNL     C8    9   0.081  -0.170  -0.097
    1UNL     N2   10   0.194  -0.196  -0.150
    1UNL     C9   11   0.290  -0.099  -0.105
    1UNL    C10   12   0.428  -0.089  -0.130
    1UNL    C11   13   0.508   0.005  -0.066
    1UNL    C12   14   0.455   0.079   0.039
    1UNL    C13   15   0.321   0.075   0.059
    1UNL    C14   16   0.233  -0.006  -0.015
    1UNL    C15   17  -0.054  -0.223  -0.114
    1UNL    C16   18  -0.132  -0.129  -0.206
    1UNL    C17   19  -0.155   0.000  -0.111
    1UNL    C18   20  -0.017   0.055  -0.069
    1UNL    C19   21   0.046   0.115  -0.194
    1UNL     O1   22  -0.049   0.191  -0.263
    1UNL    C20   23  -0.036   0.171   0.026
    1UNL     O2   24  -0.107   0.264  -0.011
    1UNL     O3   25   0.030   0.172   0.143
    1UNL    C21   26   0.015   0.300   0.202
    1UNL     H1   27  -0.495  -0.045   0.134
    1UNL     H2   28  -0.518   0.133   0.137
    1UNL     H3   29  -0.399   0.072   0.249
    1UNL     H4   30  -0.331   0.156   0.003
    1UNL     H5   31  -0.280  -0.191   0.146
    1UNL     H6   32  -0.326  -0.249  -0.010
    1UNL     H7   33  -0.056  -0.258   0.228
    1UNL     H8   34   0.052  -0.304   0.109
    1UNL     H9   35   0.128  -0.088   0.206
    1UNL    H10   36  -0.031  -0.019   0.183
    1UNL    H11   37   0.469  -0.151  -0.209
    1UNL    H12   38   0.610   0.020  -0.087
    1UNL    H13   39   0.518   0.139   0.109
    1UNL    H14   40   0.276   0.137   0.133
    1UNL    H15   41  -0.054  -0.329  -0.160
    1UNL    H16   42  -0.216  -0.176  -0.252
    1UNL    H17   43  -0.068  -0.107  -0.294
    1UNL    H18   44  -0.200   0.080  -0.161
    1UNL    H19   45   0.080   0.036  -0.259
    1UNL    H20   46   0.139   0.170  -0.168
    1UNL    H21   47  -0.076   0.262  -0.204
    1UNL    H22   48  -0.090   0.313   0.223
    1UNL    H23   49   0.084   0.314   0.285
    1UNL    H24   50   0.037   0.367   0.126
   0.00000   0.00000   0.00000   0.00000   0.00000   0.00000   0.00000   0.00000   0.00000
Generated with MDTraj, t= 25.0
 50
    1UNL     C1    1  -0.396   0.040   0.182
    1UNL     C2    2  -0.307   0.060   0.058
    1UNL     C3    3  -0.241  -0.038   0.001
    1UNL     C4    4  -0.240  -0.175   0.053
    1UNL     N1    5  -0.115  -0.257   0.023
    1UNL     C5    6  -0.012  -0.236   0.127
    1UNL     C6    7   0.031  -0.088   0.127
    1UNL     C7    8   0.079  -0.045  -0.015
    1UNL     C8    9   0.074  -0.169  -0.105
    1UNL     N2   10   0.192  -0.209  -0.137
    1UNL     C9   11   0.283  -0.105  -0.101
    1UNL    C10   12   0.421  -0.101  -0.113
    1UNL    C11   13   0.493  -0.002  -0.049
    1UNL    C12   14   0.427   0.100   0.014
    1UNL    C13   15   0.292   0.098   0.037
    1UNL    C14   16   0.226  -0.009  -0.017
    1UNL    C15   17  -0.066  -0.236  -0.123
    1UNL    C16   18  -0.138  -0.125  -0.198
    1UNL    C17   19  -0.156   0.006  -0.114
    1UNL    C18   20  -0.008   0.063  -0.080
    1UNL    C19   21   0.063   0.115  -0.200
    1UNL     O1   22  -0.016   0.204  -0.271
    1UNL    C20   23  -0.027   0.180   0.013
    1UNL     O2   24  -0.090   0.278  -0.025
    1UNL     O3   25   0.024   0.170   0.140
    1UNL    C21   26  -0.038   0.265   0.219
    1UNL     H1   27  -0.486  -0.018   0.136
    1UNL     H2   28  -0.447   0.139   0.212
    1UNL     H3   29  -0.356   0.005   0.270
    1UNL     H4   30  -0.292   0.157   0.023
    1UNL     H5   31  -0.251  -0.179   0.162
    1UNL     H6   32  -0.333  -0.224   0.022
    1UNL     H7   33  -0.048  -0.273   0.222
    1UNL     H8   34   0.084  -0.294   0.121
    1UNL     H9   35   0.118  -0.072   0.201
    1UNL    H10   36  -0.050  -0.022   0.161
    1UNL    H11   37   0.475  -0.182  -0.152
    1UNL    H12   38   0.605  -0.005  -0.052
    1UNL    H13   39   0.493   0.172   0.055
    1UNL    H14   40   0.240   0.172   0.099
    1UNL    H15   41  -0.055  -0.327  -0.194
    1UNL    H16   42  -0.230  -0.164  -0.240
    1UNL    H17   43  -0.091  -0.111  -0.297
    1UNL    H18   44  -0.207   0.072  -0.175
    1UNL    H19   45   0.102   0.041  -0.270
    1UNL    H20   46   0.156   0.165  -0.172
    1UNL    H21   47  -0.075   0.254  -0.207
    1UNL    H22   48  -0.145   0.254   0.212
    1UNL    H23   49   0.010   0.257   0.319
    1UNL    H24   50  -0.016   0.354   0.174
   0.00000   0.00000   0.00000   0.00000   0.00000   0.00000   0.00000   0.00000   0.00000
Generated with MDTraj, t= 26.0
 50
    1UNL     C1    1  -0.353   0.018   0.199
    1UNL     C2    2  -0.280   0.056   0.078
    1UNL     C3    3  -0.231  -0.035  -0.001
    1UNL     C4    4  -0.258  -0.182   0.019
    1UNL     N1    5  -0.127  -0.253   0.010
    1UNL     C5    6  -0.034  -0.230   0.126
    1UNL     C6    7   0.030  -0.089   0.139
    1UNL     C7    8   0.080  -0.047  -0.004
    1UNL     C8    9   0.078  -0.169  -0.094
    1UNL     N2   10   0.196  -0.210  -0.119
    1UNL     C9   11   0.293  -0.117  -0.083
    1UNL    C10   12   0.427  -0.120  -0.109
    1UNL    C11   13   0.495  -0.012  -0.068
    1UNL    C12   14   0.442   0.092   0.002
    1UNL    C13   15   0.304   0.101   0.019
    1UNL    C14   16   0.232  -0.012  -0.015
    1UNL    C15   17  -0.058  -0.233  -0.127
    1UNL    C16   18  -0.128  -0.128  -0.206
    1UNL    C17   19  -0.149   0.002  -0.120
    1UNL    C18   20  -0.010   0.063  -0.077
    1UNL    C19   21   0.065   0.127  -0.194
    1UNL     O1   22  -0.019   0.216  -0.262
    1UNL    C20   23  -0.049   0.183   0.014
    1UNL     O2   24  -0.107   0.280  -0.031
    1UNL     O3   25  -0.018   0.178   0.145
    1UNL    C21   26  -0.053   0.295   0.208
    1UNL     H1   27  -0.442  -0.043   0.162
    1UNL     H2   28  -0.411   0.099   0.250
    1UNL     H3   29  -0.305  -0.035   0.289
    1UNL     H4   30  -0.254   0.161   0.053
    1UNL     H5   31  -0.295  -0.192   0.123
    1UNL     H6   32  -0.339  -0.218  -0.041
    1UNL     H7   33  -0.077  -0.245   0.226
    1UNL     H8   34   0.044  -0.310   0.130
    1UNL     H9   35   0.116  -0.085   0.217
    1UNL    H10   36  -0.047  -0.018   0.169
    1UNL    H11   37   0.479  -0.209  -0.153
    1UNL    H12   38   0.598  -0.016  -0.088
    1UNL    H13   39   0.502   0.177   0.040
    1UNL    H14   40   0.254   0.178   0.071
    1UNL    H15   41  -0.062  -0.338  -0.175
    1UNL    H16   42  -0.224  -0.165  -0.244
    1UNL    H17   43  -0.082  -0.123  -0.304
    1UNL    H18   44  -0.201   0.072  -0.176
    1UNL    H19   45   0.113   0.057  -0.262
    1UNL    H20   46   0.155   0.182  -0.168
    1UNL    H21   47  -0.042   0.293  -0.205
    1UNL    H22   48  -0.161   0.312   0.202
    1UNL    H23   49  -0.000   0.290   0.309
    1UNL    H24   50  -0.013   0.370   0.151
   0.00000   0.00000   0.00000   0.00000   0.00000   0.00000   0.00000   0.00000   0.00000
Generated with MDTraj, t= 27.0
 50
    1UNL     C1    1  -0.372   0.015   0.206
    1UNL     C2    2  -0.303   0.052   0.080
    1UNL     C3    3  -0.242  -0.032  -0.003
    1UNL     C4    4  -0.250  -0.186   0.020
    1UNL     N1    5  -0.121  -0.255   0.004
    1UNL     C5    6  -0.034  -0.237   0.122
    1UNL     C6    7   0.028  -0.095   0.130
    1UNL     C7    8   0.083  -0.044  -0.006
    1UNL     C8    9   0.077  -0.160  -0.106
    1UNL     N2   10   0.192  -0.207  -0.137
    1UNL     C9   11   0.292  -0.118  -0.084
    1UNL    C10   12   0.429  -0.104  -0.115
    1UNL    C11   13   0.503  -0.004  -0.052
    1UNL    C12   14   0.445   0.091   0.031
    1UNL    C13   15   0.308   0.092   0.052
    1UNL    C14   16   0.235  -0.015  -0.003
    1UNL    C15   17  -0.057  -0.227  -0.130
    1UNL    C16   18  -0.146  -0.126  -0.206
    1UNL    C17   19  -0.159   0.005  -0.118
    1UNL    C18   20  -0.019   0.063  -0.075
    1UNL    C19   21   0.055   0.108  -0.202
    1UNL     O1   22  -0.028   0.191  -0.277
    1UNL    C20   23  -0.044   0.189   0.011
    1UNL     O2   24  -0.118   0.275  -0.028
    1UNL     O3   25   0.024   0.198   0.131
    1UNL    C21   26  -0.020   0.307   0.212
    1UNL     H1   27  -0.458  -0.048   0.170
    1UNL     H2   28  -0.414   0.106   0.252
    1UNL     H3   29  -0.303  -0.044   0.288
    1UNL     H4   30  -0.304   0.156   0.061
    1UNL     H5   31  -0.291  -0.204   0.122
    1UNL     H6   32  -0.317  -0.229  -0.047
    1UNL     H7   33  -0.088  -0.266   0.212
    1UNL     H8   34   0.052  -0.310   0.123
    1UNL     H9   35   0.115  -0.089   0.206
    1UNL    H10   36  -0.048  -0.021   0.162
    1UNL    H11   37   0.473  -0.165  -0.185
    1UNL    H12   38   0.609   0.017  -0.074
    1UNL    H13   39   0.504   0.170   0.067
    1UNL    H14   40   0.259   0.178   0.101
    1UNL    H15   41  -0.032  -0.321  -0.191
    1UNL    H16   42  -0.242  -0.171  -0.235
    1UNL    H17   43  -0.094  -0.100  -0.294
    1UNL    H18   44  -0.207   0.087  -0.160
    1UNL    H19   45   0.091   0.028  -0.267
    1UNL    H20   46   0.154   0.147  -0.178
    1UNL    H21   47  -0.075   0.243  -0.207
    1UNL    H22   48  -0.127   0.323   0.192
    1UNL    H23   49   0.018   0.294   0.322
    1UNL    H24   50   0.020   0.393   0.167
   0.00000   0.00000   0.00000   0.00000   0.00000   0.00000   0.00000   0.00000   0.00000
Generated with MDTraj, t= 28.0
 50
    1UNL     C1    1  -0.403   0.025   0.181
    1UNL     C2    2  -0.311   0.049   0.065
    1UNL     C3    3  -0.241  -0.044   0.004
    1UNL     C4    4  -0.238  -0.191   0.042
    1UNL     N1    5  -0.111  -0.256   0.016
    1UNL     C5    6  -0.018  -0.237   0.128
    1UNL     C6    7   0.029  -0.093   0.129
    1UNL     C7    8   0.072  -0.051  -0.020
    1UNL     C8    9   0.080  -0.174  -0.116
    1UNL     N2   10   0.197  -0.193  -0.168
    1UNL     C9   11   0.286  -0.096  -0.106
    1UNL    C10   12   0.427  -0.086  -0.116
    1UNL    C11   13   0.494  -0.001  -0.030
    1UNL    C12   14   0.424   0.081   0.062
    1UNL    C13   15   0.288   0.070   0.070
    1UNL    C14   16   0.217  -0.012  -0.014
    1UNL    C15   17  -0.057  -0.236  -0.124
    1UNL    C16   18  -0.153  -0.142  -0.195
    1UNL    C17   19  -0.156  -0.006  -0.119
    1UNL    C18   20  -0.020   0.062  -0.075
    1UNL    C19   21   0.044   0.118  -0.205
    1UNL     O1   22  -0.039   0.200  -0.277
    1UNL    C20   23  -0.038   0.189   0.012
    1UNL     O2   24  -0.112   0.280  -0.015
    1UNL     O3   25   0.041   0.196   0.130
    1UNL    C21   26   0.042   0.317   0.197
    1UNL     H1   27  -0.475  -0.055   0.144
    1UNL     H2   28  -0.449   0.129   0.195
    1UNL     H3   29  -0.351  -0.013   0.271
    1UNL     H4   30  -0.313   0.149   0.021
    1UNL     H5   31  -0.262  -0.196   0.150
    1UNL     H6   32  -0.308  -0.246  -0.012
    1UNL     H7   33  -0.064  -0.276   0.220
    1UNL     H8   34   0.068  -0.309   0.108
    1UNL     H9   35   0.119  -0.074   0.195
    1UNL    H10   36  -0.055  -0.029   0.168
    1UNL    H11   37   0.484  -0.134  -0.197
    1UNL    H12   38   0.600   0.007  -0.035
    1UNL    H13   39   0.484   0.150   0.123
    1UNL    H14   40   0.239   0.134   0.139
    1UNL    H15   41  -0.050  -0.335  -0.181
    1UNL    H16   42  -0.254  -0.188  -0.202
    1UNL    H17   43  -0.110  -0.119  -0.288
    1UNL    H18   44  -0.195   0.070  -0.180
    1UNL    H19   45   0.078   0.038  -0.270
    1UNL    H20   46   0.139   0.166  -0.187
    1UNL    H21   47  -0.079   0.262  -0.211
    1UNL    H22   48  -0.051   0.323   0.260
    1UNL    H23   49   0.145   0.324   0.255
    1UNL    H24   50   0.034   0.394   0.124
   0.00000   0.00000   0.00000   0.00000   0.00000   0.00000   0.00000   0.00000   0.00000
Generated with MDTraj, t= 29.0
 50
    1UNL     C1    1  -0.418   0.017   0.164
    1UNL     C2    2  -0.323   0.049   0.060
    1UNL     C3    3  -0.246  -0.038   0.001
    1UNL     C4    4  -0.246  -0.187   0.036
    1UNL     N1    5  -0.120  -0.258   0.018
    1UNL     C5    6  -0.029  -0.229   0.127
    1UNL     C6    7   0.032  -0.093   0.135
    1UNL     C7    8   0.080  -0.042  -0.005
    1UNL     C8    9   0.079  -0.158  -0.100
    1UNL     N2   10   0.195  -0.184  -0.154
    1UNL     C9   11   0.297  -0.108  -0.097
    1UNL    C10   12   0.437  -0.110  -0.117
    1UNL    C11   13   0.510  -0.012  -0.055
    1UNL    C12   14   0.451   0.076   0.031
    1UNL    C13   15   0.317   0.070   0.056
    1UNL    C14   16   0.233  -0.014  -0.015
    1UNL    C15   17  -0.050  -0.232  -0.118
    1UNL    C16   18  -0.140  -0.134  -0.197
    1UNL    C17   19  -0.156  -0.004  -0.113
    1UNL    C18   20  -0.016   0.066  -0.071
    1UNL    C19   21   0.050   0.133  -0.190
    1UNL     O1   22  -0.036   0.209  -0.265
    1UNL    C20   23  -0.051   0.184   0.021
    1UNL     O2   24  -0.143   0.254  -0.010
    1UNL     O3   25   0.038   0.204   0.122
    1UNL    C21   26   0.024   0.317   0.190
    1UNL     H1   27  -0.466  -0.088   0.149
    1UNL     H2   28  -0.498   0.102   0.163
    1UNL     H3   29  -0.382   0.014   0.261
    1UNL     H4   30  -0.329   0.151   0.025
    1UNL     H5   31  -0.263  -0.195   0.142
    1UNL     H6   32  -0.324  -0.234  -0.015
    1UNL     H7   33  -0.079  -0.249   0.223
    1UNL     H8   34   0.042  -0.318   0.111
    1UNL     H9   35   0.119  -0.099   0.204
    1UNL    H10   36  -0.039  -0.013   0.176
    1UNL    H11   37   0.478  -0.176  -0.190
    1UNL    H12   38   0.619  -0.014  -0.065
    1UNL    H13   39   0.508   0.148   0.085
    1UNL    H14   40   0.272   0.128   0.134
    1UNL    H15   41  -0.046  -0.336  -0.166
    1UNL    H16   42  -0.243  -0.174  -0.203
    1UNL    H17   43  -0.096  -0.114  -0.290
    1UNL    H18   44  -0.213   0.063  -0.173
    1UNL    H19   45   0.096   0.063  -0.256
    1UNL    H20   46   0.132   0.194  -0.149
    1UNL    H21   47  -0.090   0.272  -0.213
    1UNL    H22   48  -0.077   0.309   0.239
    1UNL    H23   49   0.114   0.332   0.264
    1UNL    H24   50   0.024   0.397   0.120
   0.00000   0.00000   0.00000   0.00000   0.00000   0.00000   0.00000   0.00000   0.00000
Generated with MDTraj, t= 30.0
 50
    1UNL     C1    1  -0.427   0.003   0.147
    1UNL     C2    2  -0.334   0.048   0.046
    1UNL     C3    3  -0.247  -0.036   0.003
    1UNL     C4    4  -0.251  -0.180   0.045
    1UNL     N1    5  -0.121  -0.249   0.023
    1UNL     C5    6  -0.024  -0.236   0.140
    1UNL     C6    7   0.037  -0.094   0.130
    1UNL     C7    8   0.090  -0.045  -0.008
    1UNL     C8    9   0.077  -0.174  -0.098
    1UNL     N2   10   0.193  -0.213  -0.140
    1UNL     C9   11   0.290  -0.121  -0.083
    1UNL    C10   12   0.429  -0.122  -0.107
    1UNL    C11   13   0.504  -0.010  -0.070
    1UNL    C12   14   0.450   0.098  -0.007
    1UNL    C13   15   0.316   0.098   0.031
    1UNL    C14   16   0.241  -0.013  -0.013
    1UNL    C15   17  -0.063  -0.236  -0.119
    1UNL    C16   18  -0.137  -0.128  -0.197
    1UNL    C17   19  -0.150  -0.002  -0.115
    1UNL    C18   20  -0.010   0.063  -0.076
    1UNL    C19   21   0.062   0.134  -0.191
    1UNL     O1   22  -0.023   0.228  -0.254
    1UNL    C20   23  -0.046   0.182   0.020
    1UNL     O2   24  -0.129   0.265  -0.009
    1UNL     O3   25   0.041   0.204   0.129
    1UNL    C21   26   0.000   0.307   0.218
    1UNL     H1   27  -0.504  -0.082   0.127
    1UNL     H2   28  -0.488   0.089   0.196
    1UNL     H3   29  -0.382  -0.033   0.232
    1UNL     H4   30  -0.341   0.146   0.009
    1UNL     H5   31  -0.271  -0.178   0.147
    1UNL     H6   32  -0.325  -0.239  -0.005
    1UNL     H7   33  -0.092  -0.258   0.222
    1UNL     H8   34   0.057  -0.317   0.140
    1UNL     H9   35   0.124  -0.099   0.199
    1UNL    H10   36  -0.037  -0.013   0.168
    1UNL    H11   37   0.479  -0.208  -0.146
    1UNL    H12   38   0.607  -0.002  -0.095
    1UNL    H13   39   0.514   0.178   0.026
    1UNL    H14   40   0.270   0.172   0.098
    1UNL    H15   41  -0.054  -0.334  -0.176
    1UNL    H16   42  -0.239  -0.166  -0.219
    1UNL    H17   43  -0.082  -0.103  -0.284
    1UNL    H18   44  -0.197   0.068  -0.184
    1UNL    H19   45   0.092   0.052  -0.254
    1UNL    H20   46   0.152   0.193  -0.158
    1UNL    H21   47  -0.087   0.268  -0.189
    1UNL    H22   48  -0.106   0.287   0.232
    1UNL    H23   49   0.051   0.309   0.321
    1UNL    H24   50   0.019   0.403   0.173
   0.00000   0.00000   0.00000   0.00000   0.00000   0.00000   0.00000   0.00000   0.00000
Generated with MDTraj, t= 31.0
 50
    1UNL     C1    1  -0.428   0.045   0.139
    1UNL     C2    2  -0.323   0.057   0.035
    1UNL     C3    3  -0.239  -0.036  -0.004
    1UNL     C4    4  -0.247  -0.179   0.045
    1UNL     N1    5  -0.124  -0.259   0.022
    1UNL     C5    6  -0.019  -0.230   0.132
    1UNL     C6    7   0.047  -0.092   0.129
    1UNL     C7    8   0.085  -0.050  -0.014
    1UNL     C8    9   0.075  -0.176  -0.095
    1UNL     N2   10   0.194  -0.212  -0.127
    1UNL     C9   11   0.296  -0.119  -0.086
    1UNL    C10   12   0.434  -0.113  -0.109
    1UNL    C11   13   0.498   0.008  -0.072
    1UNL    C12   14   0.431   0.114  -0.004
    1UNL    C13   15   0.298   0.099   0.026
    1UNL    C14   16   0.234  -0.013  -0.016
    1UNL    C15   17  -0.057  -0.241  -0.113
    1UNL    C16   18  -0.138  -0.142  -0.202
    1UNL    C17   19  -0.152  -0.004  -0.122
    1UNL    C18   20  -0.012   0.058  -0.071
    1UNL    C19   21   0.054   0.123  -0.197
    1UNL     O1   22  -0.037   0.220  -0.261
    1UNL    C20   23  -0.036   0.178   0.030
    1UNL     O2   24  -0.107   0.268  -0.006
    1UNL     O3   25   0.020   0.174   0.154
    1UNL    C21   26   0.014   0.289   0.231
    1UNL     H1   27  -0.490  -0.050   0.142
    1UNL     H2   28  -0.495   0.137   0.146
    1UNL     H3   29  -0.372   0.049   0.234
    1UNL     H4   30  -0.327   0.162  -0.004
    1UNL     H5   31  -0.263  -0.186   0.145
    1UNL     H6   32  -0.330  -0.229  -0.003
    1UNL     H7   33  -0.071  -0.242   0.228
    1UNL     H8   34   0.044  -0.324   0.109
    1UNL     H9   35   0.140  -0.087   0.191
    1UNL    H10   36  -0.038  -0.027   0.174
    1UNL    H11   37   0.492  -0.191  -0.162
    1UNL    H12   38   0.601   0.022  -0.102
    1UNL    H13   39   0.482   0.206   0.022
    1UNL    H14   40   0.245   0.176   0.074
    1UNL    H15   41  -0.051  -0.341  -0.165
    1UNL    H16   42  -0.235  -0.186  -0.223
    1UNL    H17   43  -0.085  -0.124  -0.294
    1UNL    H18   44  -0.199   0.070  -0.190
    1UNL    H19   45   0.086   0.057  -0.276
    1UNL    H20   46   0.142   0.183  -0.158
    1UNL    H21   47  -0.057   0.285  -0.194
    1UNL    H22   48  -0.072   0.283   0.294
    1UNL    H23   49   0.097   0.304   0.303
    1UNL    H24   50   0.025   0.376   0.166
   0.00000   0.00000   0.00000   0.00000   0.00000   0.00000   0.00000   0.00000   0.00000
Generated with MDTraj, t= 32.0
 50
    1UNL     C1    1  -0.413   0.050   0.161
    1UNL     C2    2  -0.313   0.062   0.048
    1UNL     C3    3  -0.245  -0.037  -0.005
    1UNL     C4    4  -0.251  -0.180   0.040
    1UNL     N1    5  -0.123  -0.243   0.021
    1UNL     C5    6  -0.024  -0.229   0.136
    1UNL     C6    7   0.034  -0.087   0.136
    1UNL     C7    8   0.082  -0.049  -0.002
    1UNL     C8    9   0.082  -0.171  -0.096
    1UNL     N2   10   0.199  -0.199  -0.141
    1UNL     C9   11   0.290  -0.101  -0.098
    1UNL    C10   12   0.422  -0.092  -0.134
    1UNL    C11   13   0.494   0.015  -0.083
    1UNL    C12   14   0.442   0.093   0.021
    1UNL    C13   15   0.307   0.080   0.059
    1UNL    C14   16   0.227  -0.013  -0.002
    1UNL    C15   17  -0.055  -0.231  -0.117
    1UNL    C16   18  -0.143  -0.137  -0.196
    1UNL    C17   19  -0.145  -0.004  -0.110
    1UNL    C18   20  -0.011   0.064  -0.072
    1UNL    C19   21   0.061   0.110  -0.201
    1UNL     O1   22  -0.013   0.198  -0.281
    1UNL    C20   23  -0.034   0.177   0.018
    1UNL     O2   24  -0.124   0.251  -0.013
    1UNL     O3   25   0.032   0.178   0.139
    1UNL    C21   26  -0.016   0.279   0.225
    1UNL     H1   27  -0.479  -0.038   0.159
    1UNL     H2   28  -0.469   0.145   0.173
    1UNL     H3   29  -0.337   0.042   0.255
    1UNL     H4   30  -0.294   0.160   0.021
    1UNL     H5   31  -0.276  -0.182   0.141
    1UNL     H6   32  -0.319  -0.239  -0.018
    1UNL     H7   33  -0.090  -0.252   0.220
    1UNL     H8   34   0.055  -0.311   0.129
    1UNL     H9   35   0.115  -0.085   0.214
    1UNL    H10   36  -0.047  -0.011   0.162
    1UNL    H11   37   0.450  -0.159  -0.209
    1UNL    H12   38   0.592   0.038  -0.121
    1UNL    H13   39   0.502   0.169   0.062
    1UNL    H14   40   0.262   0.155   0.125
    1UNL    H15   41  -0.056  -0.332  -0.165
    1UNL    H16   42  -0.240  -0.177  -0.217
    1UNL    H17   43  -0.096  -0.114  -0.294
    1UNL    H18   44  -0.194   0.072  -0.178
    1UNL    H19   45   0.081   0.025  -0.265
    1UNL    H20   46   0.159   0.167  -0.181
    1UNL    H21   47  -0.078   0.234  -0.213
    1UNL    H22   48  -0.119   0.273   0.246
    1UNL    H23   49   0.024   0.274   0.326
    1UNL    H24   50   0.026   0.372   0.186
   0.00000   0.00000   0.00000   0.00000   0.00000   0.00000   0.00000   0.00000   0.00000
Generated with MDTraj, t= 33.0
 50
    1UNL     C1    1  -0.400   0.017   0.180
    1UNL     C2    2  -0.304   0.050   0.067
    1UNL     C3    3  -0.235  -0.038  -0.001
    1UNL     C4    4  -0.241  -0.188   0.033
    1UNL     N1    5  -0.111  -0.254   0.024
    1UNL     C5    6  -0.025  -0.231   0.144
    1UNL     C6    7   0.037  -0.096   0.138
    1UNL     C7    8   0.080  -0.050   0.001
    1UNL     C8    9   0.073  -0.169  -0.094
    1UNL     N2   10   0.179  -0.189  -0.159
    1UNL     C9   11   0.275  -0.095  -0.109
    1UNL    C10   12   0.411  -0.088  -0.135
    1UNL    C11   13   0.499  -0.013  -0.061
    1UNL    C12   14   0.445   0.078   0.029
    1UNL    C13   15   0.305   0.077   0.059
    1UNL    C14   16   0.227  -0.017  -0.009
    1UNL    C15   17  -0.055  -0.232  -0.118
    1UNL    C16   18  -0.136  -0.134  -0.203
    1UNL    C17   19  -0.151   0.000  -0.121
    1UNL    C18   20  -0.008   0.057  -0.069
    1UNL    C19   21   0.057   0.117  -0.193
    1UNL     O1   22  -0.014   0.210  -0.268
    1UNL    C20   23  -0.039   0.178   0.022
    1UNL     O2   24  -0.094   0.268  -0.038
    1UNL     O3   25   0.011   0.193   0.146
    1UNL    C21   26  -0.036   0.320   0.192
    1UNL     H1   27  -0.485  -0.054   0.169
    1UNL     H2   28  -0.442   0.106   0.232
    1UNL     H3   29  -0.327  -0.026   0.260
    1UNL     H4   30  -0.286   0.156   0.035
    1UNL     H5   31  -0.279  -0.191   0.131
    1UNL     H6   32  -0.304  -0.234  -0.038
    1UNL     H7   33  -0.084  -0.251   0.232
    1UNL     H8   34   0.048  -0.318   0.136
    1UNL     H9   35   0.134  -0.100   0.198
    1UNL    H10   36  -0.027  -0.022   0.191
    1UNL    H11   37   0.450  -0.158  -0.212
    1UNL    H12   38   0.605  -0.018  -0.082
    1UNL    H13   39   0.513   0.146   0.084
    1UNL    H14   40   0.262   0.152   0.121
    1UNL    H15   41  -0.030  -0.328  -0.170
    1UNL    H16   42  -0.227  -0.173  -0.242
    1UNL    H17   43  -0.076  -0.122  -0.297
    1UNL    H18   44  -0.219   0.081  -0.171
    1UNL    H19   45   0.082   0.040  -0.265
    1UNL    H20   46   0.154   0.175  -0.164
    1UNL    H21   47  -0.036   0.283  -0.211
    1UNL    H22   48  -0.138   0.324   0.215
    1UNL    H23   49   0.009   0.351   0.286
    1UNL    H24   50  -0.004   0.390   0.114
   0.00000   0.00000   0.00000   0.00000   0.00000   0.00000   0.00000   0.00000   0.00000
Generated with MDTraj, t= 34.0
 50
    1UNL     C1    1  -0.386   0.017   0.204
    1UNL     C2    2  -0.303   0.055   0.083
    1UNL     C3    3  -0.241  -0.035   0.009
    1UNL     C4    4  -0.237  -0.185   0.037
    1UNL     N1    5  -0.112  -0.252   0.005
    1UNL     C5    6  -0.013  -0.239   0.119
    1UNL     C6    7   0.030  -0.092   0.134
    1UNL     C7    8   0.081  -0.043  -0.009
    1UNL     C8    9   0.079  -0.162  -0.099
    1UNL     N2   10   0.196  -0.199  -0.131
    1UNL     C9   11   0.284  -0.112  -0.076
    1UNL    C10   12   0.419  -0.111  -0.107
    1UNL    C11   13   0.494  -0.011  -0.048
    1UNL    C12   14   0.440   0.084   0.038
    1UNL    C13   15   0.302   0.095   0.048
    1UNL    C14   16   0.226  -0.010  -0.004
    1UNL    C15   17  -0.055  -0.212  -0.134
    1UNL    C16   18  -0.138  -0.115  -0.212
    1UNL    C17   19  -0.159   0.006  -0.117
    1UNL    C18   20  -0.020   0.061  -0.083
    1UNL    C19   21   0.049   0.126  -0.213
    1UNL     O1   22  -0.042   0.191  -0.291
    1UNL    C20   23  -0.041   0.178   0.011
    1UNL     O2   24  -0.107   0.271  -0.028
    1UNL     O3   25   0.026   0.182   0.129
    1UNL    C21   26  -0.012   0.297   0.196
    1UNL     H1   27  -0.456  -0.073   0.194
    1UNL     H2   28  -0.447   0.104   0.245
    1UNL     H3   29  -0.312  -0.009   0.270
    1UNL     H4   30  -0.291   0.152   0.047
    1UNL     H5   31  -0.259  -0.204   0.140
    1UNL     H6   32  -0.311  -0.219  -0.027
    1UNL     H7   33  -0.066  -0.277   0.205
    1UNL     H8   34   0.068  -0.316   0.105
    1UNL     H9   35   0.119  -0.089   0.207
    1UNL    H10   36  -0.044  -0.028   0.182
    1UNL    H11   37   0.462  -0.189  -0.164
    1UNL    H12   38   0.602  -0.024  -0.063
    1UNL    H13   39   0.500   0.147   0.097
    1UNL    H14   40   0.249   0.166   0.111
    1UNL    H15   41  -0.053  -0.309  -0.190
    1UNL    H16   42  -0.227  -0.170  -0.227
    1UNL    H17   43  -0.105  -0.083  -0.316
    1UNL    H18   44  -0.222   0.086  -0.175
    1UNL    H19   45   0.112   0.057  -0.270
    1UNL    H20   46   0.120   0.211  -0.180
    1UNL    H21   47  -0.109   0.244  -0.236
    1UNL    H22   48  -0.115   0.324   0.186
    1UNL    H23   49  -0.007   0.274   0.302
    1UNL    H24   50   0.054   0.381   0.162
   0.00000   0.00000   0.00000   0.00000   0.00000   0.00000   0.00000   0.00000   0.00000
Generated with MDTraj, t= 35.0
 50
    1UNL     C1    1  -0.374   0.041   0.211
    1UNL     C2    2  -0.292   0.049   0.082
    1UNL     C3    3  -0.243  -0.045   0.001
    1UNL     C4    4  -0.253  -0.197   0.027
    1UNL     N1    5  -0.117  -0.258   0.004
    1UNL     C5    6  -0.023  -0.231   0.125
    1UNL     C6    7   0.036  -0.088   0.117
    1UNL     C7    8   0.078  -0.040  -0.024
    1UNL     C8    9   0.080  -0.165  -0.109
    1UNL     N2   10   0.199  -0.211  -0.127
    1UNL     C9   11   0.289  -0.112  -0.082
    1UNL    C10   12   0.424  -0.115  -0.081
    1UNL    C11   13   0.493  -0.014  -0.013
    1UNL    C12   14   0.421   0.098   0.030
    1UNL    C13   15   0.286   0.105   0.022
    1UNL    C14   16   0.223  -0.002  -0.028
    1UNL    C15   17  -0.048  -0.229  -0.130
    1UNL    C16   18  -0.131  -0.128  -0.214
    1UNL    C17   19  -0.160  -0.005  -0.115
    1UNL    C18   20  -0.022   0.066  -0.080
    1UNL    C19   21   0.037   0.125  -0.210
    1UNL     O1   22  -0.049   0.218  -0.275
    1UNL    C20   23  -0.035   0.177   0.010
    1UNL     O2   24  -0.107   0.270  -0.018
    1UNL     O3   25   0.035   0.173   0.128
    1UNL    C21   26   0.008   0.291   0.200
    1UNL     H1   27  -0.463  -0.030   0.201
    1UNL     H2   28  -0.411   0.145   0.241
    1UNL     H3   29  -0.303   0.004   0.274
    1UNL     H4   30  -0.269   0.155   0.057
    1UNL     H5   31  -0.286  -0.210   0.128
    1UNL     H6   32  -0.315  -0.254  -0.033
    1UNL     H7   33  -0.084  -0.245   0.214
    1UNL     H8   34   0.057  -0.307   0.134
    1UNL     H9   35   0.131  -0.082   0.182
    1UNL    H10   36  -0.034  -0.020   0.162
    1UNL    H11   37   0.467  -0.205  -0.125
    1UNL    H12   38   0.598  -0.017   0.001
    1UNL    H13   39   0.474   0.180   0.083
    1UNL    H14   40   0.221   0.183   0.061
    1UNL    H15   41  -0.026  -0.324  -0.182
    1UNL    H16   42  -0.223  -0.170  -0.248
    1UNL    H17   43  -0.092  -0.096  -0.315
    1UNL    H18   44  -0.233   0.074  -0.165
    1UNL    H19   45   0.064   0.049  -0.281
    1UNL    H20   46   0.141   0.171  -0.186
    1UNL    H21   47  -0.082   0.295  -0.229
    1UNL    H22   48  -0.081   0.278   0.263
    1UNL    H23   49   0.084   0.304   0.277
    1UNL    H24   50  -0.009   0.378   0.127
   0.00000   0.00000   0.00000   0.00000   0.00000   0.00000   0.00000   0.00000   0.00000
Generated with MDTraj, t= 36.0
 50
    1UNL     C1    1  -0.386   0.019   0.202
    1UNL     C2    2  -0.316   0.041   0.067
    1UNL     C3    3  -0.243  -0.048   0.001
    1UNL     C4    4  -0.245  -0.194   0.035
    1UNL     N1    5  -0.113  -0.259   0.009
    1UNL     C5    6  -0.014  -0.227   0.128
    1UNL     C6    7   0.025  -0.080   0.131
    1UNL     C7    8   0.075  -0.044  -0.014
    1UNL     C8    9   0.076  -0.169  -0.096
    1UNL     N2   10   0.192  -0.212  -0.129
    1UNL     C9   11   0.285  -0.112  -0.087
    1UNL    C10   12   0.422  -0.113  -0.100
    1UNL    C11   13   0.507  -0.017  -0.048
    1UNL    C12   14   0.441   0.085   0.026
    1UNL    C13   15   0.303   0.084   0.045
    1UNL    C14   16   0.221  -0.010  -0.017
    1UNL    C15   17  -0.055  -0.229  -0.133
    1UNL    C16   18  -0.131  -0.121  -0.214
    1UNL    C17   19  -0.154  -0.003  -0.121
    1UNL    C18   20  -0.017   0.067  -0.078
    1UNL    C19   21   0.051   0.118  -0.206
    1UNL     O1   22  -0.022   0.223  -0.276
    1UNL    C20   23  -0.041   0.189   0.015
    1UNL     O2   24  -0.138   0.263  -0.004
    1UNL     O3   25   0.039   0.200   0.120
    1UNL    C21   26  -0.005   0.310   0.199
    1UNL     H1   27  -0.470  -0.054   0.206
    1UNL     H2   28  -0.432   0.111   0.239
    1UNL     H3   29  -0.311  -0.003   0.276
    1UNL     H4   30  -0.313   0.141   0.029
    1UNL     H5   31  -0.274  -0.218   0.137
    1UNL     H6   32  -0.316  -0.239  -0.024
    1UNL     H7   33  -0.062  -0.246   0.225
    1UNL     H8   34   0.074  -0.291   0.123
    1UNL     H9   35   0.099  -0.057   0.217
    1UNL    H10   36  -0.067  -0.026   0.151
    1UNL    H11   37   0.465  -0.187  -0.166
    1UNL    H12   38   0.617  -0.009  -0.066
    1UNL    H13   39   0.499   0.167   0.061
    1UNL    H14   40   0.256   0.164   0.097
    1UNL    H15   41  -0.042  -0.321  -0.192
    1UNL    H16   42  -0.224  -0.148  -0.261
    1UNL    H17   43  -0.076  -0.090  -0.308
    1UNL    H18   44  -0.210   0.090  -0.169
    1UNL    H19   45   0.084   0.037  -0.267
    1UNL    H20   46   0.152   0.162  -0.172
    1UNL    H21   47  -0.098   0.258  -0.218
    1UNL    H22   48  -0.116   0.320   0.203
    1UNL    H23   49   0.032   0.301   0.301
    1UNL    H24   50   0.024   0.410   0.145
   0.00000   0.00000   0.00000   0.00000   0.00000   0.00000   0.00000   0.00000   0.00000
Generated with MDTraj, t= 37.0
 50
    1UNL     C1    1  -0.423   0.012   0.162
    1UNL     C2    2  -0.317   0.055   0.066
    1UNL     C3    3  -0.241  -0.036   0.012
    1UNL     C4    4  -0.253  -0.185   0.043
    1UNL     N1    5  -0.127  -0.260   0.020
    1UNL     C5    6  -0.032  -0.244   0.137
    1UNL     C6    7   0.039  -0.103   0.134
    1UNL     C7    8   0.084  -0.048  -0.005
    1UNL     C8    9   0.086  -0.173  -0.092
    1UNL     N2   10   0.197  -0.195  -0.153
    1UNL     C9   11   0.289  -0.105  -0.103
    1UNL    C10   12   0.426  -0.099  -0.130
    1UNL    C11   13   0.501  -0.003  -0.069
    1UNL    C12   14   0.446   0.081   0.027
    1UNL    C13   15   0.309   0.075   0.057
    1UNL    C14   16   0.229  -0.014  -0.014
    1UNL    C15   17  -0.054  -0.225  -0.114
    1UNL    C16   18  -0.120  -0.118  -0.200
    1UNL    C17   19  -0.145  -0.001  -0.110
    1UNL    C18   20  -0.008   0.067  -0.071
    1UNL    C19   21   0.056   0.115  -0.202
    1UNL     O1   22  -0.032   0.201  -0.265
    1UNL    C20   23  -0.044   0.180   0.023
    1UNL     O2   24  -0.121   0.268  -0.015
    1UNL     O3   25   0.025   0.200   0.140
    1UNL    C21   26  -0.004   0.326   0.183
    1UNL     H1   27  -0.482  -0.065   0.120
    1UNL     H2   28  -0.494   0.085   0.183
    1UNL     H3   29  -0.387  -0.014   0.267
    1UNL     H4   30  -0.297   0.156   0.036
    1UNL     H5   31  -0.277  -0.204   0.147
    1UNL     H6   32  -0.332  -0.227  -0.008
    1UNL     H7   33  -0.078  -0.256   0.234
    1UNL     H8   34   0.043  -0.323   0.136
    1UNL     H9   35   0.119  -0.090   0.211
    1UNL    H10   36  -0.044  -0.038   0.166
    1UNL    H11   37   0.467  -0.160  -0.206
    1UNL    H12   38   0.600  -0.000  -0.100
    1UNL    H13   39   0.505   0.161   0.072
    1UNL    H14   40   0.253   0.138   0.127
    1UNL    H15   41  -0.036  -0.326  -0.154
    1UNL    H16   42  -0.214  -0.157  -0.238
    1UNL    H17   43  -0.066  -0.093  -0.294
    1UNL    H18   44  -0.195   0.080  -0.179
    1UNL    H19   45   0.084   0.034  -0.263
    1UNL    H20   46   0.151   0.169  -0.172
    1UNL    H21   47  -0.041   0.271  -0.200
    1UNL    H22   48  -0.100   0.336   0.238
    1UNL    H23   49   0.080   0.350   0.247
    1UNL    H24   50  -0.019   0.394   0.086
   0.00000   0.00000   0.00000   0.00000   0.00000   0.00000   0.00000   0.00000   0.00000
Generated with MDTraj, t= 38.0
 50
    1UNL     C1    1  -0.428   0.030   0.144
    1UNL     C2    2  -0.332   0.057   0.039
    1UNL     C3    3  -0.242  -0.030  -0.000
    1UNL     C4    4  -0.247  -0.171   0.066
    1UNL     N1    5  -0.125  -0.260   0.026
    1UNL     C5    6  -0.028  -0.238   0.136
    1UNL     C6    7   0.030  -0.096   0.142
    1UNL     C7    8   0.084  -0.052  -0.002
    1UNL     C8    9   0.086  -0.176  -0.081
    1UNL     N2   10   0.188  -0.192  -0.156
    1UNL     C9   11   0.282  -0.100  -0.106
    1UNL    C10   12   0.419  -0.086  -0.130
    1UNL    C11   13   0.494   0.014  -0.065
    1UNL    C12   14   0.434   0.105   0.016
    1UNL    C13   15   0.300   0.087   0.049
    1UNL    C14   16   0.230  -0.014  -0.013
    1UNL    C15   17  -0.049  -0.237  -0.104
    1UNL    C16   18  -0.124  -0.134  -0.199
    1UNL    C17   19  -0.146  -0.011  -0.111
    1UNL    C18   20  -0.008   0.058  -0.073
    1UNL    C19   21   0.052   0.108  -0.204
    1UNL     O1   22  -0.022   0.206  -0.278
    1UNL    C20   23  -0.039   0.180   0.020
    1UNL     O2   24  -0.116   0.275  -0.002
    1UNL     O3   25   0.046   0.177   0.126
    1UNL    C21   26   0.016   0.281   0.214
    1UNL     H1   27  -0.518   0.022   0.095
    1UNL     H2   28  -0.426   0.114   0.206
    1UNL     H3   29  -0.402  -0.061   0.211
    1UNL     H4   30  -0.344   0.159  -0.003
    1UNL     H5   31  -0.252  -0.167   0.173
    1UNL     H6   32  -0.328  -0.231   0.042
    1UNL     H7   33  -0.061  -0.273   0.234
    1UNL     H8   34   0.060  -0.301   0.128
    1UNL     H9   35   0.112  -0.092   0.216
    1UNL    H10   36  -0.040  -0.017   0.183
    1UNL    H11   37   0.466  -0.168  -0.187
    1UNL    H12   38   0.605   0.018  -0.077
    1UNL    H13   39   0.491   0.181   0.067
    1UNL    H14   40   0.253   0.151   0.120
    1UNL    H15   41  -0.036  -0.334  -0.151
    1UNL    H16   42  -0.223  -0.176  -0.224
    1UNL    H17   43  -0.076  -0.114  -0.294
    1UNL    H18   44  -0.199   0.071  -0.176
    1UNL    H19   45   0.056   0.021  -0.261
    1UNL    H20   46   0.154   0.148  -0.184
    1UNL    H21   47  -0.079   0.248  -0.205
    1UNL    H22   48  -0.090   0.310   0.215
    1UNL    H23   49   0.057   0.259   0.307
    1UNL    H24   50   0.062   0.374   0.159
   0.00000   0.00000   0.00000   0.00000   0.00000   0.00000   0.00000   0.00000   0.00000
Generated with MDTraj, t= 39.0
 50
    1UNL     C1    1  -0.439   0.060   0.142
    1UNL     C2    2  -0.328   0.056   0.036
    1UNL     C3    3  -0.242  -0.038   0.001
    1UNL     C4    4  -0.247  -0.180   0.051
    1UNL     N1    5  -0.116  -0.260   0.033
    1UNL     C5    6  -0.023  -0.239   0.144
    1UNL     C6    7   0.039  -0.099   0.136
    1UNL     C7    8   0.086  -0.054  -0.010
    1UNL     C8    9   0.088  -0.184  -0.093
    1UNL     N2   10   0.204  -0.215  -0.138
    1UNL     C9   11   0.300  -0.115  -0.091
    1UNL    C10   12   0.433  -0.102  -0.125
    1UNL    C11   13   0.505   0.007  -0.084
    1UNL    C12   14   0.433   0.103  -0.013
    1UNL    C13   15   0.302   0.087   0.020
    1UNL    C14   16   0.235  -0.021  -0.014
    1UNL    C15   17  -0.046  -0.237  -0.105
    1UNL    C16   18  -0.117  -0.133  -0.203
    1UNL    C17   19  -0.142  -0.009  -0.120
    1UNL    C18   20  -0.014   0.061  -0.069
    1UNL    C19   21   0.049   0.121  -0.196
    1UNL     O1   22  -0.035   0.221  -0.256
    1UNL    C20   23  -0.046   0.184   0.027
    1UNL     O2   24  -0.126   0.273   0.001
    1UNL     O3   25   0.021   0.181   0.147
    1UNL    C21   26  -0.008   0.291   0.225
    1UNL     H1   27  -0.526   0.093   0.092
    1UNL     H2   28  -0.415   0.132   0.216
    1UNL     H3   29  -0.458  -0.028   0.197
    1UNL     H4   30  -0.311   0.146  -0.014
    1UNL     H5   31  -0.269  -0.197   0.152
    1UNL     H6   32  -0.318  -0.235  -0.002
    1UNL     H7   33  -0.067  -0.258   0.242
    1UNL     H8   34   0.059  -0.307   0.149
    1UNL     H9   35   0.125  -0.088   0.202
    1UNL    H10   36  -0.031  -0.021   0.183
    1UNL    H11   37   0.482  -0.184  -0.169
    1UNL    H12   38   0.609   0.016  -0.088
    1UNL    H13   39   0.477   0.198   0.019
    1UNL    H14   40   0.249   0.159   0.082
    1UNL    H15   41  -0.045  -0.330  -0.159
    1UNL    H16   42  -0.212  -0.173  -0.245
    1UNL    H17   43  -0.053  -0.110  -0.286
    1UNL    H18   44  -0.176   0.071  -0.198
    1UNL    H19   45   0.062   0.050  -0.270
    1UNL    H20   46   0.143   0.168  -0.164
    1UNL    H21   47  -0.051   0.297  -0.199
    1UNL    H22   48  -0.114   0.303   0.237
    1UNL    H23   49   0.048   0.287   0.310
    1UNL    H24   50   0.024   0.380   0.160
   0.00000   0.00000   0.00000   0.00000   0.00000   0.00000   0.00000   0.00000   0.00000
Generated with MDTraj, t= 40.0
 50
    1UNL     C1    1  -0.431   0.026   0.159
    1UNL     C2    2  -0.335   0.055   0.049
    1UNL     C3    3  -0.247  -0.031  -0.005
    1UNL     C4    4  -0.244  -0.178   0.044
    1UNL     N1    5  -0.108  -0.247   0.024
    1UNL     C5    6  -0.022  -0.225   0.145
    1UNL     C6    7   0.046  -0.084   0.140
    1UNL     C7    8   0.090  -0.048  -0.008
    1UNL     C8    9   0.091  -0.174  -0.093
    1UNL     N2   10   0.205  -0.222  -0.132
    1UNL     C9   11   0.296  -0.133  -0.085
    1UNL    C10   12   0.431  -0.120  -0.122
    1UNL    C11   13   0.505  -0.006  -0.090
    1UNL    C12   14   0.443   0.091  -0.014
    1UNL    C13   15   0.311   0.087   0.017
    1UNL    C14   16   0.233  -0.023  -0.017
    1UNL    C15   17  -0.047  -0.228  -0.111
    1UNL    C16   18  -0.119  -0.117  -0.200
    1UNL    C17   19  -0.147   0.003  -0.109
    1UNL    C18   20  -0.011   0.071  -0.066
    1UNL    C19   21   0.065   0.126  -0.193
    1UNL     O1   22  -0.014   0.218  -0.270
    1UNL    C20   23  -0.056   0.186   0.023
    1UNL     O2   24  -0.147   0.257  -0.009
    1UNL     O3   25   0.013   0.192   0.141
    1UNL    C21   26  -0.031   0.290   0.228
    1UNL     H1   27  -0.480   0.110   0.203
    1UNL     H2   28  -0.382  -0.023   0.238
    1UNL     H3   29  -0.507  -0.035   0.138
    1UNL     H4   30  -0.327   0.165   0.024
    1UNL     H5   31  -0.257  -0.183   0.146
    1UNL     H6   32  -0.319  -0.240   0.002
    1UNL     H7   33  -0.067  -0.237   0.244
    1UNL     H8   34   0.051  -0.304   0.145
    1UNL     H9   35   0.119  -0.062   0.218
    1UNL    H10   36  -0.037  -0.010   0.168
    1UNL    H11   37   0.477  -0.201  -0.180
    1UNL    H12   38   0.607   0.014  -0.126
    1UNL    H13   39   0.499   0.179   0.016
    1UNL    H14   40   0.266   0.176   0.058
    1UNL    H15   41  -0.033  -0.323  -0.159
    1UNL    H16   42  -0.219  -0.157  -0.230
    1UNL    H17   43  -0.056  -0.100  -0.285
    1UNL    H18   44  -0.204   0.084  -0.168
    1UNL    H19   45   0.090   0.050  -0.258
    1UNL    H20   46   0.149   0.188  -0.160
    1UNL    H21   47  -0.087   0.270  -0.223
    1UNL    H22   48  -0.129   0.267   0.260
    1UNL    H23   49   0.047   0.288   0.295
    1UNL    H24   50  -0.028   0.391   0.179
   0.00000   0.00000   0.00000   0.00000   0.00000   0.00000   0.00000   0.00000   0.00000
Generated with MDTraj, t= 41.0
 50
    1UNL     C1    1  -0.423   0.032   0.163
    1UNL     C2    2  -0.315   0.054   0.059
    1UNL     C3    3  -0.234  -0.044   0.017
    1UNL     C4    4  -0.244  -0.183   0.053
    1UNL     N1    5  -0.111  -0.258   0.023
    1UNL     C5    6  -0.016  -0.232   0.137
    1UNL     C6    7   0.035  -0.085   0.138
    1UNL     C7    8   0.081  -0.045  -0.000
    1UNL     C8    9   0.084  -0.165  -0.091
    1UNL     N2   10   0.193  -0.197  -0.152
    1UNL     C9   11   0.288  -0.104  -0.103
    1UNL    C10   12   0.429  -0.104  -0.120
    1UNL    C11   13   0.498  -0.011  -0.048
    1UNL    C12   14   0.438   0.092   0.019
    1UNL    C13   15   0.302   0.089   0.041
    1UNL    C14   16   0.228  -0.013  -0.017
    1UNL    C15   17  -0.047  -0.233  -0.117
    1UNL    C16   18  -0.130  -0.138  -0.201
    1UNL    C17   19  -0.150  -0.013  -0.113
    1UNL    C18   20  -0.018   0.061  -0.080
    1UNL    C19   21   0.043   0.114  -0.212
    1UNL     O1   22  -0.039   0.218  -0.273
    1UNL    C20   23  -0.041   0.183   0.012
    1UNL     O2   24  -0.107   0.275  -0.024
    1UNL     O3   25   0.027   0.180   0.132
    1UNL    C21   26  -0.008   0.293   0.221
    1UNL     H1   27  -0.398   0.091   0.244
    1UNL     H2   28  -0.434  -0.067   0.188
    1UNL     H3   29  -0.516   0.071   0.123
    1UNL     H4   30  -0.298   0.148   0.020
    1UNL     H5   31  -0.275  -0.191   0.150
    1UNL     H6   32  -0.317  -0.223  -0.014
    1UNL     H7   33  -0.070  -0.257   0.229
    1UNL     H8   34   0.074  -0.290   0.138
    1UNL     H9   35   0.114  -0.061   0.209
    1UNL    H10   36  -0.051  -0.019   0.173
    1UNL    H11   37   0.485  -0.163  -0.191
    1UNL    H12   38   0.604  -0.010  -0.065
    1UNL    H13   39   0.502   0.177   0.040
    1UNL    H14   40   0.247   0.171   0.083
    1UNL    H15   41  -0.032  -0.330  -0.156
    1UNL    H16   42  -0.220  -0.199  -0.230
    1UNL    H17   43  -0.073  -0.110  -0.288
    1UNL    H18   44  -0.208   0.066  -0.172
    1UNL    H19   45   0.042   0.036  -0.278
    1UNL    H20   46   0.141   0.159  -0.191
    1UNL    H21   47  -0.066   0.279  -0.204
    1UNL    H22   48  -0.112   0.282   0.242
    1UNL    H23   49   0.057   0.295   0.302
    1UNL    H24   50   0.005   0.399   0.179
   0.00000   0.00000   0.00000   0.00000   0.00000   0.00000   0.00000   0.00000   0.00000
Generated with MDTraj, t= 42.0
 50
    1UNL     C1    1  -0.389   0.038   0.193
    1UNL     C2    2  -0.318   0.058   0.061
    1UNL     C3    3  -0.249  -0.037  -0.008
    1UNL     C4    4  -0.236  -0.183   0.048
    1UNL     N1    5  -0.113  -0.260   0.012
    1UNL     C5    6  -0.019  -0.250   0.133
    1UNL     C6    7   0.037  -0.104   0.133
    1UNL     C7    8   0.077  -0.049  -0.009
    1UNL     C8    9   0.083  -0.172  -0.099
    1UNL     N2   10   0.197  -0.182  -0.157
    1UNL     C9   11   0.285  -0.092  -0.095
    1UNL    C10   12   0.420  -0.086  -0.108
    1UNL    C11   13   0.492   0.005  -0.039
    1UNL    C12   14   0.435   0.092   0.047
    1UNL    C13   15   0.297   0.095   0.062
    1UNL    C14   16   0.222  -0.003  -0.008
    1UNL    C15   17  -0.055  -0.231  -0.126
    1UNL    C16   18  -0.138  -0.125  -0.205
    1UNL    C17   19  -0.159  -0.001  -0.121
    1UNL    C18   20  -0.017   0.054  -0.071
    1UNL    C19   21   0.044   0.104  -0.208
    1UNL     O1   22  -0.049   0.179  -0.287
    1UNL    C20   23  -0.042   0.178   0.013
    1UNL     O2   24  -0.102   0.271  -0.036
    1UNL     O3   25   0.019   0.175   0.138
    1UNL    C21   26   0.028   0.307   0.196
    1UNL     H1   27  -0.324  -0.005   0.256
    1UNL     H2   28  -0.472  -0.026   0.178
    1UNL     H3   29  -0.414   0.135   0.238
    1UNL     H4   30  -0.306   0.166   0.030
    1UNL     H5   31  -0.233  -0.178   0.152
    1UNL     H6   32  -0.327  -0.229   0.023
    1UNL     H7   33  -0.056  -0.281   0.233
    1UNL     H8   34   0.054  -0.322   0.101
    1UNL     H9   35   0.120  -0.100   0.205
    1UNL    H10   36  -0.038  -0.037   0.177
    1UNL    H11   37   0.468  -0.156  -0.174
    1UNL    H12   38   0.599   0.005  -0.049
    1UNL    H13   39   0.494   0.164   0.100
    1UNL    H14   40   0.252   0.166   0.132
    1UNL    H15   41  -0.054  -0.319  -0.184
    1UNL    H16   42  -0.237  -0.166  -0.231
    1UNL    H17   43  -0.086  -0.116  -0.301
    1UNL    H18   44  -0.216   0.084  -0.172
    1UNL    H19   45   0.081   0.030  -0.269
    1UNL    H20   46   0.114   0.185  -0.178
    1UNL    H21   47  -0.089   0.242  -0.220
    1UNL    H22   48  -0.046   0.313   0.275
    1UNL    H23   49   0.128   0.323   0.231
    1UNL    H24   50   0.011   0.395   0.126
   0.00000   0.00000   0.00000   0.00000   0.00000   0.00000   0.00000   0.00000   0.00000
Generated with MDTraj, t= 43.0
 50
    1UNL     C1    1  -0.376   0.003   0.209
    1UNL     C2    2  -0.288   0.036   0.096
    1UNL     C3    3  -0.231  -0.048   0.011
    1UNL     C4    4  -0.250  -0.189   0.029
    1UNL     N1    5  -0.122  -0.255   0.013
    1UNL     C5    6  -0.033  -0.229   0.129
    1UNL     C6    7   0.020  -0.088   0.129
    1UNL     C7    8   0.075  -0.047  -0.005
    1UNL     C8    9   0.076  -0.166  -0.100
    1UNL     N2   10   0.192  -0.209  -0.128
    1UNL     C9   11   0.288  -0.113  -0.087
    1UNL    C10   12   0.420  -0.093  -0.122
    1UNL    C11   13   0.488   0.007  -0.058
    1UNL    C12   14   0.426   0.085   0.036
    1UNL    C13   15   0.293   0.078   0.062
    1UNL    C14   16   0.225  -0.013  -0.006
    1UNL    C15   17  -0.057  -0.227  -0.124
    1UNL    C16   18  -0.131  -0.119  -0.210
    1UNL    C17   19  -0.148  -0.000  -0.111
    1UNL    C18   20  -0.015   0.068  -0.077
    1UNL    C19   21   0.062   0.118  -0.211
    1UNL     O1   22  -0.020   0.204  -0.284
    1UNL    C20   23  -0.035   0.190   0.004
    1UNL     O2   24  -0.128   0.253  -0.035
    1UNL     O3   25   0.037   0.211   0.117
    1UNL    C21   26  -0.012   0.322   0.186
    1UNL     H1   27  -0.336  -0.075   0.276
    1UNL     H2   28  -0.471  -0.036   0.183
    1UNL     H3   29  -0.388   0.085   0.275
    1UNL     H4   30  -0.271   0.136   0.068
    1UNL     H5   31  -0.296  -0.202   0.124
    1UNL     H6   32  -0.312  -0.226  -0.044
    1UNL     H7   33  -0.100  -0.263   0.211
    1UNL     H8   34   0.051  -0.296   0.125
    1UNL     H9   35   0.107  -0.091   0.200
    1UNL    H10   36  -0.049  -0.016   0.166
    1UNL    H11   37   0.477  -0.170  -0.177
    1UNL    H12   38   0.597   0.019  -0.065
    1UNL    H13   39   0.486   0.146   0.103
    1UNL    H14   40   0.247   0.138   0.135
    1UNL    H15   41  -0.051  -0.317  -0.178
    1UNL    H16   42  -0.222  -0.160  -0.254
    1UNL    H17   43  -0.075  -0.097  -0.303
    1UNL    H18   44  -0.208   0.072  -0.173
    1UNL    H19   45   0.078   0.042  -0.278
    1UNL    H20   46   0.158   0.173  -0.187
    1UNL    H21   47  -0.064   0.253  -0.213
    1UNL    H22   48  -0.120   0.306   0.204
    1UNL    H23   49   0.046   0.319   0.281
    1UNL    H24   50   0.007   0.420   0.135
   0.00000   0.00000   0.00000   0.00000   0.00000   0.00000   0.00000   0.00000   0.00000
Generated with MDTraj, t= 44.0
 50
    1UNL     C1    1  -0.365   0.027   0.204
    1UNL     C2    2  -0.300   0.041   0.073
    1UNL     C3    3  -0.241  -0.054  -0.006
    1UNL     C4    4  -0.253  -0.208   0.014
    1UNL     N1    5  -0.118  -0.264   0.001
    1UNL     C5    6  -0.038  -0.222   0.122
    1UNL     C6    7   0.033  -0.082   0.135
    1UNL     C7    8   0.079  -0.044  -0.005
    1UNL     C8    9   0.077  -0.174  -0.089
    1UNL     N2   10   0.193  -0.208  -0.128
    1UNL     C9   11   0.282  -0.109  -0.087
    1UNL    C10   12   0.419  -0.113  -0.103
    1UNL    C11   13   0.497  -0.017  -0.048
    1UNL    C12   14   0.442   0.095   0.008
    1UNL    C13   15   0.305   0.102   0.026
    1UNL    C14   16   0.227  -0.004  -0.014
    1UNL    C15   17  -0.053  -0.239  -0.124
    1UNL    C16   18  -0.130  -0.130  -0.205
    1UNL    C17   19  -0.154  -0.009  -0.116
    1UNL    C18   20  -0.017   0.058  -0.071
    1UNL    C19   21   0.054   0.124  -0.193
    1UNL     O1   22  -0.020   0.220  -0.260
    1UNL    C20   23  -0.047   0.186   0.021
    1UNL     O2   24  -0.129   0.260  -0.027
    1UNL     O3   25   0.014   0.199   0.138
    1UNL    C21   26  -0.004   0.333   0.186
    1UNL     H1   27  -0.282   0.009   0.282
    1UNL     H2   28  -0.420  -0.066   0.212
    1UNL     H3   29  -0.421   0.106   0.236
    1UNL     H4   30  -0.282   0.145   0.044
    1UNL     H5   31  -0.292  -0.242   0.109
    1UNL     H6   32  -0.315  -0.253  -0.053
    1UNL     H7   33  -0.107  -0.240   0.209
    1UNL     H8   34   0.025  -0.309   0.121
    1UNL     H9   35   0.122  -0.089   0.202
    1UNL    H10   36  -0.032  -0.008   0.174
    1UNL    H11   37   0.465  -0.195  -0.149
    1UNL    H12   38   0.602  -0.030  -0.042
    1UNL    H13   39   0.509   0.173   0.039
    1UNL    H14   40   0.263   0.185   0.084
    1UNL    H15   41  -0.045  -0.331  -0.175
    1UNL    H16   42  -0.224  -0.164  -0.242
    1UNL    H17   43  -0.069  -0.105  -0.295
    1UNL    H18   44  -0.213   0.065  -0.175
    1UNL    H19   45   0.085   0.054  -0.263
    1UNL    H20   46   0.145   0.187  -0.166
    1UNL    H21   47  -0.073   0.281  -0.199
    1UNL    H22   48  -0.114   0.349   0.202
    1UNL    H23   49   0.053   0.351   0.283
    1UNL    H24   50   0.028   0.406   0.110
   0.00000   0.00000   0.00000   0.00000   0.00000   0.00000   0.00000   0.00000   0.00000
Generated with MDTraj, t= 45.0
 50
    1UNL     C1    1  -0.415   0.038   0.173
    1UNL     C2    2  -0.324   0.055   0.057
    1UNL     C3    3  -0.235  -0.036   0.011
    1UNL     C4    4  -0.236  -0.174   0.053
    1UNL     N1    5  -0.110  -0.251   0.018
    1UNL     C5    6  -0.010  -0.241   0.130
    1UNL     C6    7   0.031  -0.090   0.119
    1UNL     C7    8   0.079  -0.038  -0.017
    1UNL     C8    9   0.076  -0.160  -0.107
    1UNL     N2   10   0.196  -0.206  -0.126
    1UNL     C9   11   0.289  -0.108  -0.078
    1UNL    C10   12   0.429  -0.108  -0.098
    1UNL    C11   13   0.495  -0.001  -0.045
    1UNL    C12   14   0.439   0.098   0.030
    1UNL    C13   15   0.301   0.105   0.044
    1UNL    C14   16   0.223   0.000  -0.018
    1UNL    C15   17  -0.054  -0.228  -0.120
    1UNL    C16   18  -0.150  -0.129  -0.197
    1UNL    C17   19  -0.159   0.003  -0.121
    1UNL    C18   20  -0.010   0.061  -0.088
    1UNL    C19   21   0.049   0.116  -0.219
    1UNL     O1   22  -0.052   0.196  -0.274
    1UNL    C20   23  -0.030   0.176   0.010
    1UNL     O2   24  -0.112   0.260  -0.022
    1UNL     O3   25   0.050   0.178   0.124
    1UNL    C21   26   0.001   0.271   0.219
    1UNL     H1   27  -0.350   0.004   0.257
    1UNL     H2   28  -0.491  -0.041   0.163
    1UNL     H3   29  -0.455   0.135   0.197
    1UNL     H4   30  -0.334   0.145  -0.007
    1UNL     H5   31  -0.249  -0.188   0.159
    1UNL     H6   32  -0.315  -0.222   0.007
    1UNL     H7   33  -0.068  -0.272   0.222
    1UNL     H8   34   0.066  -0.316   0.115
    1UNL     H9   35   0.115  -0.069   0.190
    1UNL    H10   36  -0.048  -0.026   0.146
    1UNL    H11   37   0.475  -0.181  -0.169
    1UNL    H12   38   0.601   0.009  -0.077
    1UNL    H13   39   0.501   0.179   0.068
    1UNL    H14   40   0.257   0.192   0.087
    1UNL    H15   41  -0.040  -0.322  -0.163
    1UNL    H16   42  -0.244  -0.176  -0.214
    1UNL    H17   43  -0.104  -0.100  -0.296
    1UNL    H18   44  -0.210   0.076  -0.187
    1UNL    H19   45   0.078   0.046  -0.290
    1UNL    H20   46   0.141   0.182  -0.203
    1UNL    H21   47  -0.100   0.248  -0.211
    1UNL    H22   48  -0.106   0.246   0.242
    1UNL    H23   49   0.064   0.261   0.316
    1UNL    H24   50   0.007   0.370   0.180
   0.00000   0.00000   0.00000   0.00000   0.00000   0.00000   0.00000   0.00000   0.00000
Generated with MDTraj, t= 46.0
 50
    1UNL     C1    1  -0.434   0.021   0.138
    1UNL     C2    2  -0.329   0.055   0.050
    1UNL     C3    3  -0.234  -0.029   0.004
    1UNL     C4    4  -0.236  -0.172   0.050
    1UNL     N1    5  -0.110  -0.247   0.026
    1UNL     C5    6  -0.014  -0.217   0.147
    1UNL     C6    7   0.056  -0.082   0.136
    1UNL     C7    8   0.091  -0.049  -0.007
    1UNL     C8    9   0.077  -0.173  -0.091
    1UNL     N2   10   0.188  -0.202  -0.150
    1UNL     C9   11   0.286  -0.103  -0.113
    1UNL    C10   12   0.427  -0.108  -0.132
    1UNL    C11   13   0.501  -0.010  -0.058
    1UNL    C12   14   0.445   0.084   0.028
    1UNL    C13   15   0.310   0.088   0.039
    1UNL    C14   16   0.229  -0.006  -0.028
    1UNL    C15   17  -0.053  -0.243  -0.116
    1UNL    C16   18  -0.142  -0.138  -0.190
    1UNL    C17   19  -0.144  -0.006  -0.112
    1UNL    C18   20  -0.007   0.063  -0.070
    1UNL    C19   21   0.051   0.132  -0.197
    1UNL     O1   22  -0.045   0.203  -0.269
    1UNL    C20   23  -0.036   0.175   0.024
    1UNL     O2   24  -0.105   0.263  -0.026
    1UNL     O3   25   0.014   0.177   0.152
    1UNL    C21   26  -0.014   0.299   0.212
    1UNL     H1   27  -0.393  -0.018   0.228
    1UNL     H2   28  -0.511  -0.052   0.106
    1UNL     H3   29  -0.491   0.117   0.175
    1UNL     H4   30  -0.331   0.150   0.004
    1UNL     H5   31  -0.259  -0.174   0.154
    1UNL     H6   32  -0.309  -0.228  -0.003
    1UNL     H7   33  -0.078  -0.223   0.241
    1UNL     H8   34   0.057  -0.299   0.149
    1UNL     H9   35   0.153  -0.081   0.188
    1UNL    H10   36  -0.010  -0.008   0.177
    1UNL    H11   37   0.474  -0.174  -0.199
    1UNL    H12   38   0.604  -0.006  -0.074
    1UNL    H13   39   0.509   0.150   0.084
    1UNL    H14   40   0.272   0.163   0.106
    1UNL    H15   41  -0.050  -0.338  -0.160
    1UNL    H16   42  -0.247  -0.159  -0.191
    1UNL    H17   43  -0.107  -0.121  -0.296
    1UNL    H18   44  -0.201   0.071  -0.168
    1UNL    H19   45   0.096   0.060  -0.257
    1UNL    H20   46   0.142   0.195  -0.165
    1UNL    H21   47  -0.090   0.256  -0.197
    1UNL    H22   48  -0.101   0.290   0.278
    1UNL    H23   49   0.077   0.321   0.279
    1UNL    H24   50  -0.025   0.373   0.141
   0.00000   0.00000   0.00000   0.00000   0.00000   0.00000   0.00000   0.00000   0.00000
Generated with MDTraj, t= 47.0
 50
    1UNL     C1    1  -0.430   0.030   0.144
    1UNL     C2    2  -0.338   0.046   0.039
    1UNL     C3    3  -0.245  -0.044   0.006
    1UNL     C4    4  -0.248  -0.195   0.046
    1UNL     N1    5  -0.114  -0.252   0.025
    1UNL     C5    6  -0.021  -0.231   0.140
    1UNL     C6    7   0.035  -0.093   0.143
    1UNL     C7    8   0.087  -0.042   0.004
    1UNL     C8    9   0.079  -0.164  -0.096
    1UNL     N2   10   0.197  -0.197  -0.134
    1UNL     C9   11   0.292  -0.103  -0.097
    1UNL    C10   12   0.418  -0.102  -0.154
    1UNL    C11   13   0.507  -0.012  -0.098
    1UNL    C12   14   0.450   0.080  -0.007
    1UNL    C13   15   0.323   0.078   0.045
    1UNL    C14   16   0.241  -0.018   0.005
    1UNL    C15   17  -0.056  -0.233  -0.113
    1UNL    C16   18  -0.141  -0.135  -0.193
    1UNL    C17   19  -0.147  -0.008  -0.112
    1UNL    C18   20  -0.009   0.060  -0.061
    1UNL    C19   21   0.069   0.123  -0.180
    1UNL     O1   22   0.002   0.216  -0.254
    1UNL    C20   23  -0.044   0.186   0.026
    1UNL     O2   24  -0.144   0.244  -0.015
    1UNL     O3   25   0.031   0.217   0.134
    1UNL    C21   26  -0.028   0.321   0.208
    1UNL     H1   27  -0.373   0.053   0.232
    1UNL     H2   28  -0.468  -0.076   0.159
    1UNL     H3   29  -0.520   0.104   0.132
    1UNL     H4   30  -0.332   0.137  -0.026
    1UNL     H5   31  -0.263  -0.209   0.149
    1UNL     H6   32  -0.322  -0.248  -0.013
    1UNL     H7   33  -0.079  -0.256   0.236
    1UNL     H8   34   0.056  -0.306   0.128
    1UNL     H9   35   0.111  -0.094   0.218
    1UNL    H10   36  -0.046  -0.024   0.171
    1UNL    H11   37   0.446  -0.174  -0.230
    1UNL    H12   38   0.617  -0.014  -0.107
    1UNL    H13   39   0.517   0.155   0.034
    1UNL    H14   40   0.296   0.148   0.123
    1UNL    H15   41  -0.050  -0.326  -0.159
    1UNL    H16   42  -0.242  -0.170  -0.204
    1UNL    H17   43  -0.096  -0.109  -0.292
    1UNL    H18   44  -0.188   0.078  -0.171
    1UNL    H19   45   0.112   0.049  -0.241
    1UNL    H20   46   0.166   0.168  -0.137
    1UNL    H21   47  -0.050   0.265  -0.190
    1UNL    H22   48  -0.131   0.334   0.181
    1UNL    H23   49  -0.029   0.291   0.316
    1UNL    H24   50   0.024   0.407   0.197
   0.00000   0.00000   0.00000   0.00000   0.00000   0.00000   0.00000   0.00000   0.00000
Generated with MDTraj, t= 48.0
 50
    1UNL     C1    1  -0.423   0.035   0.145
    1UNL     C2    2  -0.323   0.055   0.042
    1UNL     C3    3  -0.245  -0.041  -0.010
    1UNL     C4    4  -0.247  -0.182   0.042
    1UNL     N1    5  -0.115  -0.262   0.030
    1UNL     C5    6  -0.030  -0.227   0.148
    1UNL     C6    7   0.038  -0.091   0.141
    1UNL     C7    8   0.083  -0.053  -0.006
    1UNL     C8    9   0.078  -0.178  -0.093
    1UNL     N2   10   0.192  -0.213  -0.138
    1UNL     C9   11   0.294  -0.120  -0.087
    1UNL    C10   12   0.429  -0.090  -0.117
    1UNL    C11   13   0.495   0.025  -0.073
    1UNL    C12   14   0.435   0.113   0.015
    1UNL    C13   15   0.296   0.099   0.030
    1UNL    C14   16   0.233  -0.014  -0.017
    1UNL    C15   17  -0.059  -0.239  -0.112
    1UNL    C16   18  -0.148  -0.143  -0.195
    1UNL    C17   19  -0.154  -0.010  -0.120
    1UNL    C18   20  -0.011   0.054  -0.073
    1UNL    C19   21   0.054   0.126  -0.198
    1UNL     O1   22  -0.029   0.224  -0.255
    1UNL    C20   23  -0.033   0.175   0.022
    1UNL     O2   24  -0.119   0.257  -0.007
    1UNL     O3   25   0.044   0.178   0.133
    1UNL    C21   26   0.028   0.296   0.206
    1UNL     H1   27  -0.358   0.012   0.238
    1UNL     H2   28  -0.494  -0.052   0.120
    1UNL     H3   29  -0.476   0.132   0.155
    1UNL     H4   30  -0.322   0.144  -0.010
    1UNL     H5   31  -0.283  -0.187   0.138
    1UNL     H6   32  -0.309  -0.244  -0.023
    1UNL     H7   33  -0.099  -0.235   0.238
    1UNL     H8   34   0.042  -0.309   0.155
    1UNL     H9   35   0.126  -0.089   0.200
    1UNL    H10   36  -0.034  -0.013   0.172
    1UNL    H11   37   0.482  -0.162  -0.178
    1UNL    H12   38   0.592   0.049  -0.109
    1UNL    H13   39   0.484   0.185   0.078
    1UNL    H14   40   0.237   0.163   0.091
    1UNL    H15   41  -0.048  -0.334  -0.154
    1UNL    H16   42  -0.250  -0.182  -0.205
    1UNL    H17   43  -0.103  -0.124  -0.293
    1UNL    H18   44  -0.198   0.060  -0.195
    1UNL    H19   45   0.073   0.055  -0.273
    1UNL    H20   46   0.164   0.158  -0.181
    1UNL    H21   47  -0.097   0.264  -0.191
    1UNL    H22   48   0.001   0.376   0.142
    1UNL    H23   49  -0.058   0.281   0.275
    1UNL    H24   50   0.115   0.318   0.257
   0.00000   0.00000   0.00000   0.00000   0.00000   0.00000   0.00000   0.00000   0.00000
Generated with MDTraj, t= 49.0
 50
    1UNL     C1    1  -0.411   0.030   0.153
    1UNL     C2    2  -0.312   0.054   0.053
    1UNL     C3    3  -0.230  -0.040   0.008
    1UNL     C4    4  -0.247  -0.188   0.045
    1UNL     N1    5  -0.118  -0.254   0.021
    1UNL     C5    6  -0.023  -0.235   0.135
    1UNL     C6    7   0.041  -0.091   0.131
    1UNL     C7    8   0.081  -0.048  -0.014
    1UNL     C8    9   0.085  -0.163  -0.105
    1UNL     N2   10   0.201  -0.206  -0.140
    1UNL     C9   11   0.291  -0.113  -0.088
    1UNL    C10   12   0.430  -0.105  -0.102
    1UNL    C11   13   0.496   0.005  -0.046
    1UNL    C12   14   0.432   0.115   0.009
    1UNL    C13   15   0.292   0.102   0.034
    1UNL    C14   16   0.230  -0.018  -0.009
    1UNL    C15   17  -0.059  -0.232  -0.115
    1UNL    C16   18  -0.149  -0.133  -0.200
    1UNL    C17   19  -0.153  -0.002  -0.112
    1UNL    C18   20  -0.016   0.063  -0.077
    1UNL    C19   21   0.046   0.123  -0.204
    1UNL     O1   22  -0.055   0.190  -0.274
    1UNL    C20   23  -0.038   0.180   0.018
    1UNL     O2   24  -0.109   0.271  -0.018
    1UNL     O3   25   0.028   0.178   0.141
    1UNL    C21   26   0.029   0.296   0.216
    1UNL     H1   27  -0.394  -0.078   0.204
    1UNL     H2   28  -0.522   0.030   0.121
    1UNL     H3   29  -0.404   0.096   0.240
    1UNL     H4   30  -0.325   0.147  -0.011
    1UNL     H5   31  -0.260  -0.203   0.147
    1UNL     H6   32  -0.322  -0.244  -0.009
    1UNL     H7   33  -0.082  -0.260   0.228
    1UNL     H8   34   0.050  -0.316   0.122
    1UNL     H9   35   0.129  -0.087   0.186
    1UNL    H10   36  -0.030  -0.013   0.165
    1UNL    H11   37   0.482  -0.170  -0.166
    1UNL    H12   38   0.601   0.010  -0.075
    1UNL    H13   39   0.487   0.209   0.016
    1UNL    H14   40   0.231   0.180   0.082
    1UNL    H15   41  -0.054  -0.328  -0.155
    1UNL    H16   42  -0.254  -0.163  -0.213
    1UNL    H17   43  -0.106  -0.121  -0.298
    1UNL    H18   44  -0.213   0.068  -0.176
    1UNL    H19   45   0.106   0.057  -0.260
    1UNL    H20   46   0.127   0.200  -0.177
    1UNL    H21   47  -0.093   0.265  -0.227
    1UNL    H22   48   0.128   0.336   0.220
    1UNL    H23   49  -0.039   0.370   0.170
    1UNL    H24   50   0.001   0.269   0.315
   0.00000   0.00000   0.00000   0.00000   0.00000   0.00000   0.00000   0.00000   0.00000
Generated with MDTraj, t= 50.0
 50
    1UNL     C1    1  -0.395   0.016   0.187
    1UNL     C2    2  -0.313   0.046   0.069
    1UNL     C3    3  -0.236  -0.047   0.018
    1UNL     C4    4  -0.244  -0.192   0.050
    1UNL     N1    5  -0.113  -0.267   0.012
    1UNL     C5    6  -0.017  -0.230   0.125
    1UNL     C6    7   0.038  -0.089   0.137
    1UNL     C7    8   0.083  -0.043  -0.002
    1UNL     C8    9   0.074  -0.162  -0.104
    1UNL     N2   10   0.189  -0.193  -0.152
    1UNL     C9   11   0.292  -0.108  -0.100
    1UNL    C10   12   0.429  -0.116  -0.111
    1UNL    C11   13   0.514  -0.018  -0.062
    1UNL    C12   14   0.458   0.083   0.021
    1UNL    C13   15   0.320   0.084   0.050
    1UNL    C14   16   0.236  -0.014  -0.010
    1UNL    C15   17  -0.053  -0.229  -0.124
    1UNL    C16   18  -0.149  -0.127  -0.185
    1UNL    C17   19  -0.150  -0.001  -0.104
    1UNL    C18   20  -0.010   0.068  -0.071
    1UNL    C19   21   0.058   0.116  -0.201
    1UNL     O1   22  -0.023   0.206  -0.275
    1UNL    C20   23  -0.046   0.198   0.007
    1UNL     O2   24  -0.128   0.274  -0.042
    1UNL     O3   25   0.013   0.209   0.129
    1UNL    C21   26  -0.048   0.312   0.201
    1UNL     H1   27  -0.413  -0.092   0.209
    1UNL     H2   28  -0.503   0.060   0.184
    1UNL     H3   29  -0.352   0.049   0.287
    1UNL     H4   30  -0.308   0.143   0.034
    1UNL     H5   31  -0.266  -0.215   0.148
    1UNL     H6   32  -0.322  -0.234  -0.011
    1UNL     H7   33  -0.064  -0.264   0.220
    1UNL     H8   34   0.061  -0.305   0.103
    1UNL     H9   35   0.121  -0.085   0.200
    1UNL    H10   36  -0.039  -0.019   0.174
    1UNL    H11   37   0.468  -0.193  -0.181
    1UNL    H12   38   0.617  -0.021  -0.097
    1UNL    H13   39   0.527   0.153   0.064
    1UNL    H14   40   0.267   0.157   0.105
    1UNL    H15   41  -0.042  -0.307  -0.192
    1UNL    H16   42  -0.251  -0.171  -0.188
    1UNL    H17   43  -0.126  -0.104  -0.287
    1UNL    H18   44  -0.204   0.083  -0.155
    1UNL    H19   45   0.075   0.039  -0.269
    1UNL    H20   46   0.166   0.157  -0.189
    1UNL    H21   47  -0.070   0.264  -0.208
    1UNL    H22   48  -0.046   0.293   0.311
    1UNL    H23   49  -0.002   0.407   0.177
    1UNL    H24   50  -0.156   0.310   0.172
   0.00000   0.00000   0.00000   0.00000   0.00000   0.00000   0.00000   0.00000   0.00000
Generated with MDTraj, t= 51.0
 50
    1UNL     C1    1  -0.370   0.034   0.202
    1UNL     C2    2  -0.302   0.050   0.070
    1UNL     C3    3  -0.227  -0.041   0.004
    1UNL     C4    4  -0.245  -0.187   0.042
    1UNL     N1    5  -0.113  -0.260   0.034
    1UNL     C5    6  -0.023  -0.219   0.149
    1UNL     C6    7   0.042  -0.082   0.125
    1UNL     C7    8   0.087  -0.037  -0.022
    1UNL     C8    9   0.081  -0.167  -0.106
    1UNL     N2   10   0.197  -0.195  -0.155
    1UNL     C9   11   0.293  -0.099  -0.115
    1UNL    C10   12   0.428  -0.102  -0.127
    1UNL    C11   13   0.510  -0.009  -0.056
    1UNL    C12   14   0.443   0.068   0.045
    1UNL    C13   15   0.306   0.073   0.054
    1UNL    C14   16   0.230  -0.007  -0.030
    1UNL    C15   17  -0.055  -0.240  -0.110
    1UNL    C16   18  -0.141  -0.144  -0.202
    1UNL    C17   19  -0.151  -0.005  -0.124
    1UNL    C18   20  -0.018   0.068  -0.083
    1UNL    C19   21   0.058   0.126  -0.202
    1UNL     O1   22  -0.029   0.206  -0.273
    1UNL    C20   23  -0.058   0.184   0.011
    1UNL     O2   24  -0.131   0.267  -0.034
    1UNL     O3   25  -0.005   0.187   0.138
    1UNL    C21   26  -0.038   0.307   0.201
    1UNL     H1   27  -0.469   0.008   0.183
    1UNL     H2   28  -0.366   0.133   0.266
    1UNL     H3   29  -0.313  -0.051   0.258
    1UNL     H4   30  -0.299   0.159   0.044
    1UNL     H5   31  -0.282  -0.197   0.141
    1UNL     H6   32  -0.314  -0.233  -0.024
    1UNL     H7   33  -0.087  -0.221   0.241
    1UNL     H8   34   0.052  -0.298   0.170
    1UNL     H9   35   0.130  -0.084   0.184
    1UNL    H10   36  -0.026  -0.009   0.167
    1UNL    H11   37   0.470  -0.175  -0.189
    1UNL    H12   38   0.618  -0.006  -0.066
    1UNL    H13   39   0.500   0.103   0.131
    1UNL    H14   40   0.257   0.129   0.135
    1UNL    H15   41  -0.053  -0.338  -0.146
    1UNL    H16   42  -0.242  -0.185  -0.223
    1UNL    H17   43  -0.085  -0.135  -0.293
    1UNL    H18   44  -0.213   0.072  -0.175
    1UNL    H19   45   0.095   0.054  -0.267
    1UNL    H20   46   0.150   0.189  -0.176
    1UNL    H21   47  -0.061   0.261  -0.202
    1UNL    H22   48  -0.148   0.302   0.236
    1UNL    H23   49   0.029   0.319   0.284
    1UNL    H24   50  -0.031   0.392   0.125
   0.00000   0.00000   0.00000   0.00000   0.00000   0.00000   0.00000   0.00000   0.00000
Generated with MDTraj, t= 52.0
 50
    1UNL     C1    1  -0.379   0.033   0.189
    1UNL     C2    2  -0.304   0.062   0.068
    1UNL     C3    3  -0.239  -0.036   0.011
    1UNL     C4    4  -0.242  -0.181   0.046
    1UNL     N1    5  -0.121  -0.266   0.008
    1UNL     C5    6  -0.024  -0.236   0.122
    1UNL     C6    7   0.026  -0.090   0.125
    1UNL     C7    8   0.080  -0.050  -0.012
    1UNL     C8    9   0.082  -0.177  -0.100
    1UNL     N2   10   0.202  -0.210  -0.129
    1UNL     C9   11   0.287  -0.101  -0.087
    1UNL    C10   12   0.422  -0.096  -0.112
    1UNL    C11   13   0.491   0.012  -0.049
    1UNL    C12   14   0.431   0.114   0.027
    1UNL    C13   15   0.294   0.098   0.044
    1UNL    C14   16   0.227  -0.010  -0.007
    1UNL    C15   17  -0.058  -0.233  -0.126
    1UNL    C16   18  -0.144  -0.137  -0.202
    1UNL    C17   19  -0.157  -0.006  -0.114
    1UNL    C18   20  -0.019   0.063  -0.080
    1UNL    C19   21   0.046   0.111  -0.208
    1UNL     O1   22  -0.050   0.180  -0.292
    1UNL    C20   23  -0.032   0.192   0.009
    1UNL     O2   24  -0.102   0.284  -0.021
    1UNL     O3   25   0.035   0.181   0.131
    1UNL    C21   26   0.005   0.286   0.216
    1UNL     H1   27  -0.460  -0.030   0.159
    1UNL     H2   28  -0.424   0.126   0.238
    1UNL     H3   29  -0.307  -0.027   0.260
    1UNL     H4   30  -0.273   0.159   0.038
    1UNL     H5   31  -0.248  -0.181   0.155
    1UNL     H6   32  -0.327  -0.221   0.002
    1UNL     H7   33  -0.073  -0.266   0.216
    1UNL     H8   34   0.064  -0.305   0.113
    1UNL     H9   35   0.107  -0.077   0.195
    1UNL    H10   36  -0.056  -0.031   0.152
    1UNL    H11   37   0.461  -0.177  -0.177
    1UNL    H12   38   0.599   0.010  -0.060
    1UNL    H13   39   0.481   0.197   0.074
    1UNL    H14   40   0.241   0.165   0.108
    1UNL    H15   41  -0.051  -0.325  -0.174
    1UNL    H16   42  -0.241  -0.190  -0.207
    1UNL    H17   43  -0.100  -0.121  -0.299
    1UNL    H18   44  -0.217   0.063  -0.179
    1UNL    H19   45   0.086   0.033  -0.265
    1UNL    H20   46   0.128   0.184  -0.181
    1UNL    H21   47  -0.092   0.249  -0.230
    1UNL    H22   48  -0.053   0.371   0.158
    1UNL    H23   49  -0.051   0.245   0.296
    1UNL    H24   50   0.102   0.332   0.254
   0.00000   0.00000   0.00000   0.00000   0.00000   0.00000   0.00000   0.00000   0.00000
Generated with MDTraj, t= 53.0
 50
    1UNL     C1    1  -0.410   0.017   0.186
    1UNL     C2    2  -0.315   0.045   0.074
    1UNL     C3    3  -0.246  -0.044   0.008
    1UNL     C4    4  -0.254  -0.192   0.044
    1UNL     N1    5  -0.120  -0.255   0.006
    1UNL     C5    6  -0.038  -0.237   0.127
    1UNL     C6    7   0.027  -0.097   0.140
    1UNL     C7    8   0.080  -0.041  -0.001
    1UNL     C8    9   0.082  -0.162  -0.091
    1UNL     N2   10   0.193  -0.203  -0.131
    1UNL     C9   11   0.289  -0.111  -0.086
    1UNL    C10   12   0.431  -0.102  -0.117
    1UNL    C11   13   0.503   0.004  -0.064
    1UNL    C12   14   0.436   0.112  -0.005
    1UNL    C13   15   0.295   0.112   0.012
    1UNL    C14   16   0.228  -0.006  -0.015
    1UNL    C15   17  -0.050  -0.226  -0.124
    1UNL    C16   18  -0.140  -0.127  -0.210
    1UNL    C17   19  -0.160  -0.003  -0.112
    1UNL    C18   20  -0.013   0.059  -0.068
    1UNL    C19   21   0.062   0.104  -0.191
    1UNL     O1   22  -0.024   0.181  -0.273
    1UNL    C20   23  -0.038   0.184   0.022
    1UNL     O2   24  -0.106   0.274  -0.018
    1UNL     O3   25   0.027   0.186   0.141
    1UNL    C21   26   0.017   0.311   0.201
    1UNL     H1   27  -0.434  -0.096   0.189
    1UNL     H2   28  -0.513   0.057   0.174
    1UNL     H3   29  -0.367   0.039   0.285
    1UNL     H4   30  -0.291   0.150   0.051
    1UNL     H5   31  -0.274  -0.208   0.152
    1UNL     H6   32  -0.327  -0.228  -0.021
    1UNL     H7   33  -0.094  -0.256   0.218
    1UNL     H8   34   0.034  -0.322   0.123
    1UNL     H9   35   0.109  -0.111   0.209
    1UNL    H10   36  -0.037  -0.024   0.178
    1UNL    H11   37   0.469  -0.176  -0.183
    1UNL    H12   38   0.604   0.017  -0.096
    1UNL    H13   39   0.483   0.205   0.019
    1UNL    H14   40   0.240   0.190   0.058
    1UNL    H15   41  -0.031  -0.310  -0.183
    1UNL    H16   42  -0.234  -0.176  -0.235
    1UNL    H17   43  -0.093  -0.100  -0.304
    1UNL    H18   44  -0.224   0.075  -0.158
    1UNL    H19   45   0.098   0.019  -0.242
    1UNL    H20   46   0.147   0.169  -0.160
    1UNL    H21   47  -0.065   0.257  -0.230
    1UNL    H22   48   0.113   0.373   0.181
    1UNL    H23   49  -0.069   0.359   0.166
    1UNL    H24   50   0.007   0.301   0.311
   0.00000   0.00000   0.00000   0.00000   0.00000   0.00000   0.00000   0.00000   0.00000
Generated with MDTraj, t= 54.0
 50
    1UNL     C1    1  -0.414   0.023   0.162
    1UNL     C2    2  -0.313   0.050   0.050
    1UNL     C3    3  -0.239  -0.045  -0.004
    1UNL     C4    4  -0.232  -0.184   0.059
    1UNL     N1    5  -0.105  -0.252   0.033
    1UNL     C5    6  -0.020  -0.223   0.152
    1UNL     C6    7   0.035  -0.083   0.135
    1UNL     C7    8   0.078  -0.050  -0.009
    1UNL     C8    9   0.081  -0.181  -0.092
    1UNL     N2   10   0.196  -0.213  -0.137
    1UNL     C9   11   0.285  -0.112  -0.095
    1UNL    C10   12   0.414  -0.095  -0.144
    1UNL    C11   13   0.501  -0.004  -0.089
    1UNL    C12   14   0.447   0.078   0.015
    1UNL    C13   15   0.310   0.077   0.041
    1UNL    C14   16   0.228  -0.015  -0.012
    1UNL    C15   17  -0.053  -0.236  -0.111
    1UNL    C16   18  -0.129  -0.131  -0.203
    1UNL    C17   19  -0.145  -0.005  -0.119
    1UNL    C18   20  -0.015   0.065  -0.073
    1UNL    C19   21   0.053   0.134  -0.193
    1UNL     O1   22  -0.033   0.222  -0.257
    1UNL    C20   23  -0.050   0.177   0.024
    1UNL     O2   24  -0.138   0.253  -0.012
    1UNL     O3   25   0.036   0.200   0.131
    1UNL    C21   26  -0.011   0.311   0.199
    1UNL     H1   27  -0.499  -0.041   0.108
    1UNL     H2   28  -0.469   0.108   0.205
    1UNL     H3   29  -0.370  -0.042   0.233
    1UNL     H4   30  -0.300   0.154   0.020
    1UNL     H5   31  -0.235  -0.163   0.167
    1UNL     H6   32  -0.307  -0.251   0.034
    1UNL     H7   33  -0.075  -0.247   0.242
    1UNL     H8   34   0.070  -0.288   0.161
    1UNL     H9   35   0.119  -0.060   0.199
    1UNL    H10   36  -0.036  -0.011   0.160
    1UNL    H11   37   0.446  -0.148  -0.233
    1UNL    H12   38   0.603   0.017  -0.124
    1UNL    H13   39   0.510   0.151   0.067
    1UNL    H14   40   0.258   0.150   0.106
    1UNL    H15   41  -0.057  -0.332  -0.149
    1UNL    H16   42  -0.221  -0.176  -0.243
    1UNL    H17   43  -0.073  -0.107  -0.293
    1UNL    H18   44  -0.203   0.067  -0.181
    1UNL    H19   45   0.078   0.054  -0.258
    1UNL    H20   46   0.146   0.183  -0.161
    1UNL    H21   47  -0.099   0.270  -0.199
    1UNL    H22   48   0.054   0.334   0.288
    1UNL    H23   49  -0.013   0.389   0.131
    1UNL    H24   50  -0.113   0.294   0.230
   0.00000   0.00000   0.00000   0.00000   0.00000   0.00000   0.00000   0.00000   0.00000
Generated with MDTraj, t= 55.0
 50
    1UNL     C1    1  -0.445   0.049   0.142
    1UNL     C2    2  -0.337   0.043   0.041
    1UNL     C3    3  -0.248  -0.048   0.008
    1UNL     C4    4  -0.237  -0.175   0.075
    1UNL     N1    5  -0.106  -0.247   0.038
    1UNL     C5    6  -0.009  -0.222   0.146
    1UNL     C6    7   0.063  -0.089   0.139
    1UNL     C7    8   0.088  -0.047  -0.014
    1UNL     C8    9   0.080  -0.167  -0.094
    1UNL     N2   10   0.194  -0.190  -0.155
    1UNL     C9   11   0.289  -0.095  -0.118
    1UNL    C10   12   0.425  -0.096  -0.135
    1UNL    C11   13   0.508  -0.006  -0.066
    1UNL    C12   14   0.447   0.091   0.017
    1UNL    C13   15   0.312   0.088   0.037
    1UNL    C14   16   0.231  -0.004  -0.030
    1UNL    C15   17  -0.054  -0.229  -0.110
    1UNL    C16   18  -0.141  -0.138  -0.196
    1UNL    C17   19  -0.158  -0.018  -0.106
    1UNL    C18   20  -0.022   0.054  -0.066
    1UNL    C19   21   0.039   0.109  -0.207
    1UNL     O1   22  -0.032   0.216  -0.265
    1UNL    C20   23  -0.040   0.176   0.024
    1UNL     O2   24  -0.131   0.251  -0.007
    1UNL     O3   25   0.047   0.189   0.128
    1UNL    C21   26  -0.001   0.282   0.217
    1UNL     H1   27  -0.526  -0.004   0.097
    1UNL     H2   28  -0.494   0.149   0.156
    1UNL     H3   29  -0.418  -0.001   0.235
    1UNL     H4   30  -0.346   0.128  -0.023
    1UNL     H5   31  -0.239  -0.167   0.185
    1UNL     H6   32  -0.317  -0.234   0.047
    1UNL     H7   33  -0.048  -0.227   0.245
    1UNL     H8   34   0.061  -0.307   0.142
    1UNL     H9   35   0.155  -0.092   0.194
    1UNL    H10   36   0.010  -0.015   0.194
    1UNL    H11   37   0.465  -0.172  -0.200
    1UNL    H12   38   0.612  -0.023  -0.056
    1UNL    H13   39   0.510   0.154   0.076
    1UNL    H14   40   0.266   0.158   0.100
    1UNL    H15   41  -0.038  -0.324  -0.149
    1UNL    H16   42  -0.236  -0.187  -0.210
    1UNL    H17   43  -0.103  -0.124  -0.299
    1UNL    H18   44  -0.212   0.060  -0.164
    1UNL    H19   45   0.057   0.031  -0.279
    1UNL    H20   46   0.135   0.151  -0.181
    1UNL    H21   47  -0.043   0.285  -0.198
    1UNL    H22   48  -0.048   0.232   0.302
    1UNL    H23   49   0.076   0.347   0.247
    1UNL    H24   50  -0.070   0.344   0.165
   0.00000   0.00000   0.00000   0.00000   0.00000   0.00000   0.00000   0.00000   0.00000
Generated with MDTraj, t= 56.0
 50
    1UNL     C1    1  -0.433   0.018   0.145
    1UNL     C2    2  -0.333   0.041   0.046
    1UNL     C3    3  -0.248  -0.050   0.009
    1UNL     C4    4  -0.244  -0.192   0.060
    1UNL     N1    5  -0.109  -0.258   0.020
    1UNL     C5    6  -0.019  -0.227   0.141
    1UNL     C6    7   0.045  -0.082   0.137
    1UNL     C7    8   0.090  -0.037  -0.005
    1UNL     C8    9   0.079  -0.165  -0.088
    1UNL     N2   10   0.194  -0.207  -0.134
    1UNL     C9   11   0.291  -0.115  -0.085
    1UNL    C10   12   0.424  -0.112  -0.118
    1UNL    C11   13   0.497  -0.001  -0.088
    1UNL    C12   14   0.441   0.099  -0.013
    1UNL    C13   15   0.307   0.099   0.029
    1UNL    C14   16   0.235  -0.010  -0.016
    1UNL    C15   17  -0.050  -0.231  -0.116
    1UNL    C16   18  -0.132  -0.126  -0.197
    1UNL    C17   19  -0.151  -0.002  -0.111
    1UNL    C18   20  -0.014   0.071  -0.071
    1UNL    C19   21   0.039   0.133  -0.202
    1UNL     O1   22  -0.061   0.206  -0.273
    1UNL    C20   23  -0.032   0.178   0.025
    1UNL     O2   24  -0.102   0.271  -0.007
    1UNL     O3   25   0.029   0.177   0.145
    1UNL    C21   26   0.021   0.301   0.216
    1UNL     H1   27  -0.474  -0.073   0.130
    1UNL     H2   28  -0.527   0.073   0.130
    1UNL     H3   29  -0.395   0.023   0.251
    1UNL     H4   30  -0.331   0.138  -0.009
    1UNL     H5   31  -0.243  -0.194   0.168
    1UNL     H6   32  -0.322  -0.254   0.032
    1UNL     H7   33  -0.075  -0.238   0.230
    1UNL     H8   34   0.068  -0.292   0.156
    1UNL     H9   35   0.124  -0.066   0.205
    1UNL    H10   36  -0.031  -0.015   0.175
    1UNL    H11   37   0.464  -0.201  -0.160
    1UNL    H12   38   0.601  -0.012  -0.118
    1UNL    H13   39   0.509   0.176   0.023
    1UNL    H14   40   0.259   0.180   0.087
    1UNL    H15   41  -0.031  -0.319  -0.170
    1UNL    H16   42  -0.222  -0.169  -0.234
    1UNL    H17   43  -0.077  -0.103  -0.291
    1UNL    H18   44  -0.207   0.078  -0.163
    1UNL    H19   45   0.080   0.054  -0.265
    1UNL    H20   46   0.118   0.200  -0.175
    1UNL    H21   47  -0.109   0.252  -0.200
    1UNL    H22   48  -0.056   0.363   0.174
    1UNL    H23   49  -0.004   0.286   0.319
    1UNL    H24   50   0.117   0.348   0.211
   0.00000   0.00000   0.00000   0.00000   0.00000   0.00000   0.00000   0.00000   0.00000
Generated with MDTraj, t= 57.0
 50
    1UNL     C1    1  -0.412   0.005   0.183
    1UNL     C2    2  -0.314   0.045   0.080
    1UNL     C3    3  -0.232  -0.037   0.015
    1UNL     C4    4  -0.248  -0.187   0.049
    1UNL     N1    5  -0.117  -0.260   0.015
    1UNL     C5    6  -0.032  -0.234   0.142
    1UNL     C6    7   0.038  -0.100   0.129
    1UNL     C7    8   0.079  -0.058  -0.012
    1UNL     C8    9   0.075  -0.175  -0.104
    1UNL     N2   10   0.193  -0.208  -0.135
    1UNL     C9   11   0.285  -0.121  -0.076
    1UNL    C10   12   0.421  -0.106  -0.109
    1UNL    C11   13   0.489   0.011  -0.080
    1UNL    C12   14   0.429   0.114  -0.013
    1UNL    C13   15   0.292   0.101   0.026
    1UNL    C14   16   0.225  -0.017  -0.008
    1UNL    C15   17  -0.060  -0.229  -0.124
    1UNL    C16   18  -0.133  -0.118  -0.202
    1UNL    C17   19  -0.148   0.002  -0.110
    1UNL    C18   20  -0.004   0.062  -0.076
    1UNL    C19   21   0.066   0.122  -0.200
    1UNL     O1   22  -0.016   0.218  -0.271
    1UNL    C20   23  -0.029   0.176   0.021
    1UNL     O2   24  -0.122   0.251  -0.008
    1UNL     O3   25   0.042   0.196   0.134
    1UNL    C21   26  -0.007   0.318   0.193
    1UNL     H1   27  -0.465  -0.079   0.142
    1UNL     H2   28  -0.494   0.072   0.190
    1UNL     H3   29  -0.361  -0.018   0.278
    1UNL     H4   30  -0.326   0.142   0.044
    1UNL     H5   31  -0.269  -0.206   0.154
    1UNL     H6   32  -0.321  -0.241  -0.004
    1UNL     H7   33  -0.083  -0.225   0.234
    1UNL     H8   34   0.044  -0.311   0.160
    1UNL     H9   35   0.114  -0.089   0.199
    1UNL    H10   36  -0.036  -0.025   0.160
    1UNL    H11   37   0.474  -0.191  -0.155
    1UNL    H12   38   0.588   0.020  -0.120
    1UNL    H13   39   0.478   0.209  -0.011
    1UNL    H14   40   0.248   0.187   0.069
    1UNL    H15   41  -0.064  -0.318  -0.179
    1UNL    H16   42  -0.228  -0.152  -0.236
    1UNL    H17   43  -0.073  -0.098  -0.294
    1UNL    H18   44  -0.207   0.083  -0.159
    1UNL    H19   45   0.084   0.041  -0.272
    1UNL    H20   46   0.157   0.171  -0.178
    1UNL    H21   47  -0.053   0.277  -0.202
    1UNL    H22   48   0.056   0.392   0.152
    1UNL    H23   49  -0.110   0.349   0.166
    1UNL    H24   50   0.014   0.317   0.302
   0.00000   0.00000   0.00000   0.00000   0.00000   0.00000   0.00000   0.00000   0.00000
Generated with MDTraj, t= 58.0
 50
    1UNL     C1    1  -0.354   0.045   0.212
    1UNL     C2    2  -0.311   0.039   0.066
    1UNL     C3    3  -0.243  -0.055   0.002
    1UNL     C4    4  -0.252  -0.200   0.030
    1UNL     N1    5  -0.120  -0.269   0.015
    1UNL     C5    6  -0.044  -0.231   0.134
    1UNL     C6    7   0.030  -0.090   0.140
    1UNL     C7    8   0.075  -0.041  -0.002
    1UNL     C8    9   0.081  -0.168  -0.089
    1UNL     N2   10   0.191  -0.185  -0.148
    1UNL     C9   11   0.281  -0.091  -0.102
    1UNL    C10   12   0.419  -0.086  -0.129
    1UNL    C11   13   0.499   0.003  -0.066
    1UNL    C12   14   0.444   0.088   0.028
    1UNL    C13   15   0.308   0.081   0.058
    1UNL    C14   16   0.223  -0.002  -0.005
    1UNL    C15   17  -0.047  -0.241  -0.118
    1UNL    C16   18  -0.136  -0.141  -0.208
    1UNL    C17   19  -0.152  -0.018  -0.113
    1UNL    C18   20  -0.022   0.058  -0.076
    1UNL    C19   21   0.044   0.113  -0.208
    1UNL     O1   22  -0.026   0.218  -0.275
    1UNL    C20   23  -0.045   0.179   0.018
    1UNL     O2   24  -0.123   0.266  -0.022
    1UNL     O3   25   0.034   0.188   0.128
    1UNL    C21   26   0.001   0.307   0.188
    1UNL     H1   27  -0.467   0.042   0.210
    1UNL     H2   28  -0.339   0.136   0.256
    1UNL     H3   29  -0.309  -0.032   0.264
    1UNL     H4   30  -0.339   0.125  -0.004
    1UNL     H5   31  -0.282  -0.222   0.129
    1UNL     H6   32  -0.326  -0.242  -0.035
    1UNL     H7   33  -0.111  -0.235   0.215
    1UNL     H8   34   0.029  -0.309   0.158
    1UNL     H9   35   0.112  -0.087   0.205
    1UNL    H10   36  -0.034  -0.017   0.190
    1UNL    H11   37   0.460  -0.157  -0.195
    1UNL    H12   38   0.602   0.020  -0.090
    1UNL    H13   39   0.499   0.176   0.062
    1UNL    H14   40   0.264   0.156   0.123
    1UNL    H15   41  -0.021  -0.330  -0.165
    1UNL    H16   42  -0.230  -0.189  -0.225
    1UNL    H17   43  -0.093  -0.120  -0.309
    1UNL    H18   44  -0.198   0.055  -0.183
    1UNL    H19   45   0.068   0.037  -0.285
    1UNL    H20   46   0.130   0.163  -0.175
    1UNL    H21   47  -0.093   0.262  -0.217
    1UNL    H22   48   0.089   0.365   0.174
    1UNL    H23   49  -0.085   0.366   0.142
    1UNL    H24   50  -0.007   0.288   0.302
   0.00000   0.00000   0.00000   0.00000   0.00000   0.00000   0.00000   0.00000   0.00000
Generated with MDTraj, t= 59.0
 50
    1UNL     C1    1  -0.368   0.034   0.213
    1UNL     C2    2  -0.282   0.056   0.093
    1UNL     C3    3  -0.228  -0.040   0.018
    1UNL     C4    4  -0.238  -0.193   0.042
    1UNL     N1    5  -0.108  -0.267   0.013
    1UNL     C5    6  -0.020  -0.246   0.129
    1UNL     C6    7   0.038  -0.101   0.127
    1UNL     C7    8   0.076  -0.046  -0.018
    1UNL     C8    9   0.081  -0.165  -0.105
    1UNL     N2   10   0.196  -0.198  -0.146
    1UNL     C9   11   0.281  -0.092  -0.100
    1UNL    C10   12   0.416  -0.085  -0.122
    1UNL    C11   13   0.486   0.003  -0.048
    1UNL    C12   14   0.424   0.078   0.050
    1UNL    C13   15   0.290   0.077   0.067
    1UNL    C14   16   0.218   0.000  -0.016
    1UNL    C15   17  -0.050  -0.230  -0.123
    1UNL    C16   18  -0.146  -0.129  -0.194
    1UNL    C17   19  -0.155  -0.005  -0.111
    1UNL    C18   20  -0.013   0.066  -0.085
    1UNL    C19   21   0.050   0.126  -0.216
    1UNL     O1   22  -0.047   0.183  -0.305
    1UNL    C20   23  -0.039   0.188   0.008
    1UNL     O2   24  -0.108   0.281  -0.031
    1UNL     O3   25   0.019   0.184   0.127
    1UNL    C21   26  -0.009   0.303   0.198
    1UNL     H1   27  -0.456  -0.029   0.180
    1UNL     H2   28  -0.423   0.114   0.249
    1UNL     H3   29  -0.316  -0.006   0.291
    1UNL     H4   30  -0.275   0.152   0.056
    1UNL     H5   31  -0.274  -0.215   0.138
    1UNL     H6   32  -0.313  -0.246  -0.017
    1UNL     H7   33  -0.071  -0.265   0.219
    1UNL     H8   34   0.062  -0.318   0.122
    1UNL     H9   35   0.121  -0.097   0.189
    1UNL    H10   36  -0.020  -0.022   0.176
    1UNL    H11   37   0.464  -0.155  -0.193
    1UNL    H12   38   0.596   0.011  -0.050
    1UNL    H13   39   0.482   0.141   0.114
    1UNL    H14   40   0.241   0.149   0.132
    1UNL    H15   41  -0.031  -0.311  -0.186
    1UNL    H16   42  -0.245  -0.173  -0.196
    1UNL    H17   43  -0.112  -0.111  -0.298
    1UNL    H18   44  -0.216   0.070  -0.166
    1UNL    H19   45   0.081   0.036  -0.272
    1UNL    H20   46   0.130   0.193  -0.199
    1UNL    H21   47  -0.094   0.262  -0.269
    1UNL    H22   48   0.012   0.380   0.127
    1UNL    H23   49  -0.121   0.312   0.225
    1UNL    H24   50   0.063   0.315   0.289
   0.00000   0.00000   0.00000   0.00000   0.00000   0.00000   0.00000   0.00000   0.00000
Generated with MDTraj, t= 60.0
 50
    1UNL     C1    1  -0.385   0.002   0.214
    1UNL     C2    2  -0.319   0.041   0.091
    1UNL     C3    3  -0.235  -0.039   0.023
    1UNL     C4    4  -0.237  -0.195   0.042
    1UNL     N1    5  -0.107  -0.258   0.007
    1UNL     C5    6  -0.009  -0.242   0.123
    1UNL     C6    7   0.046  -0.097   0.128
    1UNL     C7    8   0.080  -0.044  -0.012
    1UNL     C8    9   0.075  -0.161  -0.109
    1UNL     N2   10   0.191  -0.207  -0.141
    1UNL     C9   11   0.284  -0.113  -0.086
    1UNL    C10   12   0.424  -0.110  -0.097
    1UNL    C11   13   0.499  -0.007  -0.041
    1UNL    C12   14   0.439   0.096   0.020
    1UNL    C13   15   0.305   0.101   0.030
    1UNL    C14   16   0.227  -0.006  -0.026
    1UNL    C15   17  -0.059  -0.220  -0.133
    1UNL    C16   18  -0.151  -0.113  -0.206
    1UNL    C17   19  -0.162   0.010  -0.108
    1UNL    C18   20  -0.018   0.068  -0.074
    1UNL    C19   21   0.043   0.110  -0.213
    1UNL     O1   22  -0.045   0.186  -0.291
    1UNL    C20   23  -0.031   0.189   0.008
    1UNL     O2   24  -0.088   0.286  -0.035
    1UNL     O3   25   0.015   0.193   0.138
    1UNL    C21   26  -0.022   0.314   0.199
    1UNL     H1   27  -0.358  -0.095   0.244
    1UNL     H2   28  -0.489  -0.008   0.200
    1UNL     H3   29  -0.359   0.072   0.292
    1UNL     H4   30  -0.329   0.151   0.067
    1UNL     H5   31  -0.265  -0.234   0.135
    1UNL     H6   32  -0.318  -0.238  -0.018
    1UNL     H7   33  -0.068  -0.256   0.209
    1UNL     H8   34   0.069  -0.318   0.125
    1UNL     H9   35   0.133  -0.094   0.187
    1UNL    H10   36  -0.015  -0.024   0.182
    1UNL    H11   37   0.477  -0.190  -0.143
    1UNL    H12   38   0.602  -0.021  -0.028
    1UNL    H13   39   0.502   0.170   0.071
    1UNL    H14   40   0.258   0.178   0.080
    1UNL    H15   41  -0.058  -0.312  -0.183
    1UNL    H16   42  -0.248  -0.162  -0.221
    1UNL    H17   43  -0.107  -0.083  -0.301
    1UNL    H18   44  -0.222   0.094  -0.150
    1UNL    H19   45   0.085   0.024  -0.270
    1UNL    H20   46   0.121   0.175  -0.184
    1UNL    H21   47  -0.077   0.259  -0.235
    1UNL    H22   48  -0.036   0.386   0.125
    1UNL    H23   49  -0.117   0.294   0.261
    1UNL    H24   50   0.061   0.347   0.271
   0.00000   0.00000   0.00000   0.00000   0.00000   0.00000   0.00000   0.00000   0.00000
Generated with MDTraj, t= 61.0
 50
    1UNL     C1    1  -0.386   0.020   0.186
    1UNL     C2    2  -0.311   0.046   0.064
    1UNL     C3    3  -0.239  -0.051   0.003
    1UNL     C4    4  -0.244  -0.190   0.040
    1UNL     N1    5  -0.117  -0.256   0.023
    1UNL     C5    6  -0.021  -0.221   0.139
    1UNL     C6    7   0.040  -0.079   0.134
    1UNL     C7    8   0.086  -0.036  -0.007
    1UNL     C8    9   0.079  -0.164  -0.090
    1UNL     N2   10   0.195  -0.203  -0.134
    1UNL     C9   11   0.292  -0.118  -0.084
    1UNL    C10   12   0.426  -0.112  -0.113
    1UNL    C11   13   0.502  -0.012  -0.061
    1UNL    C12   14   0.447   0.094  -0.001
    1UNL    C13   15   0.312   0.100   0.024
    1UNL    C14   16   0.231  -0.010  -0.015
    1UNL    C15   17  -0.055  -0.227  -0.121
    1UNL    C16   18  -0.136  -0.128  -0.203
    1UNL    C17   19  -0.153  -0.008  -0.117
    1UNL    C18   20  -0.015   0.067  -0.075
    1UNL    C19   21   0.038   0.126  -0.211
    1UNL     O1   22  -0.051   0.215  -0.263
    1UNL    C20   23  -0.042   0.181   0.012
    1UNL     O2   24  -0.120   0.267  -0.019
    1UNL     O3   25   0.017   0.175   0.136
    1UNL    C21   26  -0.004   0.296   0.204
    1UNL     H1   27  -0.333   0.045   0.267
    1UNL     H2   28  -0.416  -0.081   0.193
    1UNL     H3   29  -0.475   0.089   0.183
    1UNL     H4   30  -0.286   0.145   0.043
    1UNL     H5   31  -0.277  -0.199   0.141
    1UNL     H6   32  -0.327  -0.235  -0.013
    1UNL     H7   33  -0.065  -0.235   0.235
    1UNL     H8   34   0.057  -0.295   0.122
    1UNL     H9   35   0.116  -0.055   0.207
    1UNL    H10   36  -0.041  -0.015   0.164
    1UNL    H11   37   0.482  -0.190  -0.163
    1UNL    H12   38   0.611  -0.019  -0.079
    1UNL    H13   39   0.510   0.172   0.031
    1UNL    H14   40   0.266   0.183   0.087
    1UNL    H15   41  -0.042  -0.315  -0.177
    1UNL    H16   42  -0.232  -0.179  -0.220
    1UNL    H17   43  -0.091  -0.097  -0.297
    1UNL    H18   44  -0.211   0.071  -0.170
    1UNL    H19   45   0.054   0.048  -0.290
    1UNL    H20   46   0.131   0.174  -0.196
    1UNL    H21   47  -0.091   0.261  -0.184
    1UNL    H22   48   0.077   0.359   0.190
    1UNL    H23   49  -0.095   0.346   0.163
    1UNL    H24   50  -0.036   0.279   0.311
   0.00000   0.00000   0.00000   0.00000   0.00000   0.00000   0.00000   0.00000   0.00000
Generated with MDTraj, t= 62.0
 50
    1UNL     C1    1  -0.414   0.054   0.150
    1UNL     C2    2  -0.318   0.057   0.043
    1UNL     C3    3  -0.232  -0.040   0.001
    1UNL     C4    4  -0.239  -0.179   0.063
    1UNL     N1    5  -0.114  -0.254   0.035
    1UNL     C5    6  -0.010  -0.233   0.142
    1UNL     C6    7   0.039  -0.091   0.134
    1UNL     C7    8   0.081  -0.054  -0.004
    1UNL     C8    9   0.082  -0.174  -0.098
    1UNL     N2   10   0.195  -0.204  -0.154
    1UNL     C9   11   0.291  -0.109  -0.104
    1UNL    C10   12   0.422  -0.091  -0.134
    1UNL    C11   13   0.490   0.012  -0.074
    1UNL    C12   14   0.427   0.102   0.005
    1UNL    C13   15   0.292   0.091   0.032
    1UNL    C14   16   0.223  -0.014  -0.020
    1UNL    C15   17  -0.057  -0.237  -0.109
    1UNL    C16   18  -0.139  -0.137  -0.196
    1UNL    C17   19  -0.145  -0.007  -0.114
    1UNL    C18   20  -0.012   0.055  -0.068
    1UNL    C19   21   0.061   0.121  -0.188
    1UNL     O1   22  -0.025   0.209  -0.257
    1UNL    C20   23  -0.046   0.174   0.027
    1UNL     O2   24  -0.145   0.237   0.004
    1UNL     O3   25   0.051   0.196   0.119
    1UNL    C21   26   0.003   0.286   0.210
    1UNL     H1   27  -0.371   0.053   0.249
    1UNL     H2   28  -0.476  -0.032   0.144
    1UNL     H3   29  -0.475   0.145   0.152
    1UNL     H4   30  -0.306   0.155  -0.003
    1UNL     H5   31  -0.252  -0.158   0.170
    1UNL     H6   32  -0.333  -0.227   0.044
    1UNL     H7   33  -0.062  -0.246   0.235
    1UNL     H8   34   0.071  -0.305   0.127
    1UNL     H9   35   0.125  -0.076   0.199
    1UNL    H10   36  -0.035  -0.024   0.167
    1UNL    H11   37   0.479  -0.153  -0.203
    1UNL    H12   38   0.591   0.031  -0.098
    1UNL    H13   39   0.485   0.191   0.035
    1UNL    H14   40   0.251   0.163   0.094
    1UNL    H15   41  -0.044  -0.328  -0.159
    1UNL    H16   42  -0.241  -0.171  -0.226
    1UNL    H17   43  -0.080  -0.122  -0.284
    1UNL    H18   44  -0.199   0.074  -0.170
    1UNL    H19   45   0.102   0.044  -0.259
    1UNL    H20   46   0.147   0.178  -0.164
    1UNL    H21   47  -0.071   0.259  -0.189
    1UNL    H22   48   0.076   0.308   0.283
    1UNL    H23   49  -0.022   0.377   0.160
    1UNL    H24   50  -0.096   0.253   0.244
   0.00000   0.00000   0.00000   0.00000   0.00000   0.00000   0.00000   0.00000   0.00000
Generated with MDTraj, t= 63.0
 50
    1UNL     C1    1  -0.473   0.002   0.121
    1UNL     C2    2  -0.354   0.041   0.044
    1UNL     C3    3  -0.250  -0.043   0.015
    1UNL     C4    4  -0.238  -0.188   0.059
    1UNL     N1    5  -0.112  -0.249   0.035
    1UNL     C5    6  -0.024  -0.227   0.154
    1UNL     C6    7   0.047  -0.080   0.147
    1UNL     C7    8   0.085  -0.049   0.001
    1UNL     C8    9   0.081  -0.178  -0.090
    1UNL     N2   10   0.191  -0.203  -0.144
    1UNL     C9   11   0.287  -0.101  -0.114
    1UNL    C10   12   0.422  -0.081  -0.156
    1UNL    C11   13   0.500   0.019  -0.102
    1UNL    C12   14   0.451   0.094  -0.000
    1UNL    C13   15   0.321   0.078   0.041
    1UNL    C14   16   0.235  -0.012  -0.017
    1UNL    C15   17  -0.055  -0.235  -0.107
    1UNL    C16   18  -0.138  -0.134  -0.190
    1UNL    C17   19  -0.154  -0.002  -0.100
    1UNL    C18   20  -0.018   0.055  -0.062
    1UNL    C19   21   0.053   0.112  -0.185
    1UNL     O1   22  -0.029   0.198  -0.260
    1UNL    C20   23  -0.038   0.187   0.025
    1UNL     O2   24  -0.082   0.289  -0.021
    1UNL     O3   25   0.017   0.179   0.154
    1UNL    C21   26   0.033   0.304   0.213
    1UNL     H1   27  -0.446  -0.051   0.223
    1UNL     H2   28  -0.528  -0.071   0.065
    1UNL     H3   29  -0.531   0.085   0.151
    1UNL     H4   30  -0.353   0.133  -0.013
    1UNL     H5   31  -0.288  -0.206   0.158
    1UNL     H6   32  -0.309  -0.246   0.003
    1UNL     H7   33  -0.091  -0.241   0.238
    1UNL     H8   34   0.049  -0.308   0.147
    1UNL     H9   35   0.133  -0.074   0.214
    1UNL    H10   36  -0.019  -0.004   0.176
    1UNL    H11   37   0.454  -0.134  -0.241
    1UNL    H12   38   0.601   0.041  -0.139
    1UNL    H13   39   0.511   0.170   0.039
    1UNL    H14   40   0.288   0.152   0.111
    1UNL    H15   41  -0.056  -0.328  -0.156
    1UNL    H16   42  -0.238  -0.174  -0.218
    1UNL    H17   43  -0.085  -0.117  -0.280
    1UNL    H18   44  -0.201   0.064  -0.178
    1UNL    H19   45   0.081   0.034  -0.265
    1UNL    H20   46   0.147   0.155  -0.165
    1UNL    H21   47  -0.070   0.268  -0.199
    1UNL    H22   48   0.069   0.287   0.313
    1UNL    H23   49   0.110   0.359   0.167
    1UNL    H24   50  -0.055   0.365   0.201
   0.00000   0.00000   0.00000   0.00000   0.00000   0.00000   0.00000   0.00000   0.00000
Generated with MDTraj, t= 64.0
 50
    1UNL     C1    1  -0.461  -0.012   0.127
    1UNL     C2    2  -0.355   0.040   0.044
    1UNL     C3    3  -0.248  -0.036   0.012
    1UNL     C4    4  -0.237  -0.174   0.065
    1UNL     N1    5  -0.115  -0.256   0.028
    1UNL     C5    6  -0.018  -0.241   0.135
    1UNL     C6    7   0.040  -0.100   0.137
    1UNL     C7    8   0.088  -0.043  -0.001
    1UNL     C8    9   0.082  -0.165  -0.096
    1UNL     N2   10   0.192  -0.200  -0.142
    1UNL     C9   11   0.286  -0.103  -0.105
    1UNL    C10   12   0.421  -0.097  -0.149
    1UNL    C11   13   0.489   0.006  -0.095
    1UNL    C12   14   0.440   0.099  -0.006
    1UNL    C13   15   0.312   0.095   0.038
    1UNL    C14   16   0.235  -0.011  -0.012
    1UNL    C15   17  -0.052  -0.228  -0.109
    1UNL    C16   18  -0.147  -0.125  -0.184
    1UNL    C17   19  -0.155   0.004  -0.096
    1UNL    C18   20  -0.004   0.060  -0.063
    1UNL    C19   21   0.059   0.107  -0.194
    1UNL     O1   22  -0.038   0.175  -0.263
    1UNL    C20   23  -0.012   0.197   0.022
    1UNL     O2   24  -0.064   0.296  -0.023
    1UNL     O3   25   0.026   0.188   0.155
    1UNL    C21   26  -0.000   0.307   0.225
    1UNL     H1   27  -0.426  -0.030   0.234
    1UNL     H2   28  -0.494  -0.111   0.084
    1UNL     H3   29  -0.542   0.058   0.138
    1UNL     H4   30  -0.369   0.138   0.002
    1UNL     H5   31  -0.243  -0.162   0.178
    1UNL     H6   32  -0.330  -0.229   0.065
    1UNL     H7   33  -0.079  -0.258   0.224
    1UNL     H8   34   0.052  -0.323   0.116
    1UNL     H9   35   0.134  -0.102   0.192
    1UNL    H10   36  -0.025  -0.033   0.187
    1UNL    H11   37   0.459  -0.169  -0.225
    1UNL    H12   38   0.592   0.012  -0.119
    1UNL    H13   39   0.507   0.175   0.041
    1UNL    H14   40   0.268   0.179   0.099
    1UNL    H15   41  -0.044  -0.309  -0.176
    1UNL    H16   42  -0.247  -0.172  -0.193
    1UNL    H17   43  -0.119  -0.102  -0.284
    1UNL    H18   44  -0.209   0.090  -0.148
    1UNL    H19   45   0.083   0.015  -0.259
    1UNL    H20   46   0.152   0.159  -0.192
    1UNL    H21   47  -0.059   0.257  -0.218
    1UNL    H22   48   0.024   0.286   0.331
    1UNL    H23   49   0.069   0.383   0.196
    1UNL    H24   50  -0.098   0.345   0.203
   0.00000   0.00000   0.00000   0.00000   0.00000   0.00000   0.00000   0.00000   0.00000
Generated with MDTraj, t= 65.0
 50
    1UNL     C1    1  -0.409   0.039   0.166
    1UNL     C2    2  -0.308   0.063   0.062
    1UNL     C3    3  -0.227  -0.034   0.011
    1UNL     C4    4  -0.233  -0.171   0.057
    1UNL     N1    5  -0.118  -0.250   0.029
    1UNL     C5    6  -0.013  -0.228   0.133
    1UNL     C6    7   0.045  -0.087   0.134
    1UNL     C7    8   0.086  -0.045  -0.011
    1UNL     C8    9   0.078  -0.173  -0.096
    1UNL     N2   10   0.193  -0.202  -0.146
    1UNL     C9   11   0.286  -0.105  -0.105
    1UNL    C10   12   0.424  -0.101  -0.125
    1UNL    C11   13   0.499  -0.001  -0.065
    1UNL    C12   14   0.440   0.101   0.010
    1UNL    C13   15   0.303   0.103   0.017
    1UNL    C14   16   0.229  -0.008  -0.028
    1UNL    C15   17  -0.057  -0.244  -0.113
    1UNL    C16   18  -0.144  -0.150  -0.192
    1UNL    C17   19  -0.149  -0.010  -0.121
    1UNL    C18   20  -0.018   0.061  -0.082
    1UNL    C19   21   0.051   0.118  -0.202
    1UNL     O1   22  -0.025   0.210  -0.265
    1UNL    C20   23  -0.044   0.182   0.017
    1UNL     O2   24  -0.116   0.272  -0.018
    1UNL     O3   25   0.009   0.169   0.144
    1UNL    C21   26  -0.019   0.278   0.225
    1UNL     H1   27  -0.371   0.005   0.260
    1UNL     H2   28  -0.481  -0.045   0.131
    1UNL     H3   29  -0.469   0.132   0.196
    1UNL     H4   30  -0.312   0.161   0.008
    1UNL     H5   31  -0.248  -0.166   0.170
    1UNL     H6   32  -0.321  -0.227   0.037
    1UNL     H7   33  -0.059  -0.260   0.229
    1UNL     H8   34   0.066  -0.300   0.107
    1UNL     H9   35   0.136  -0.091   0.190
    1UNL    H10   36  -0.016  -0.006   0.173
    1UNL    H11   37   0.474  -0.184  -0.166
    1UNL    H12   38   0.608  -0.003  -0.068
    1UNL    H13   39   0.504   0.165   0.063
    1UNL    H14   40   0.262   0.172   0.080
    1UNL    H15   41  -0.049  -0.343  -0.150
    1UNL    H16   42  -0.243  -0.196  -0.207
    1UNL    H17   43  -0.099  -0.133  -0.287
    1UNL    H18   44  -0.211   0.058  -0.187
    1UNL    H19   45   0.086   0.035  -0.276
    1UNL    H20   46   0.140   0.165  -0.164
    1UNL    H21   47  -0.078   0.258  -0.192
    1UNL    H22   48   0.062   0.277   0.306
    1UNL    H23   49  -0.007   0.370   0.168
    1UNL    H24   50  -0.120   0.270   0.264
   0.00000   0.00000   0.00000   0.00000   0.00000   0.00000   0.00000   0.00000   0.00000
Generated with MDTraj, t= 66.0
 50
    1UNL     C1    1  -0.338   0.033   0.207
    1UNL     C2    2  -0.306   0.048   0.069
    1UNL     C3    3  -0.250  -0.047  -0.009
    1UNL     C4    4  -0.244  -0.188   0.037
    1UNL     N1    5  -0.116  -0.251   0.021
    1UNL     C5    6  -0.028  -0.219   0.133
    1UNL     C6    7   0.032  -0.083   0.125
    1UNL     C7    8   0.078  -0.047  -0.020
    1UNL     C8    9   0.080  -0.171  -0.108
    1UNL     N2   10   0.201  -0.218  -0.129
    1UNL     C9   11   0.297  -0.116  -0.089
    1UNL    C10   12   0.431  -0.103  -0.119
    1UNL    C11   13   0.511  -0.004  -0.062
    1UNL    C12   14   0.446   0.089   0.019
    1UNL    C13   15   0.308   0.090   0.041
    1UNL    C14   16   0.230  -0.014  -0.011
    1UNL    C15   17  -0.056  -0.231  -0.119
    1UNL    C16   18  -0.138  -0.135  -0.199
    1UNL    C17   19  -0.163  -0.003  -0.124
    1UNL    C18   20  -0.020   0.062  -0.073
    1UNL    C19   21   0.046   0.129  -0.200
    1UNL     O1   22  -0.047   0.214  -0.263
    1UNL    C20   23  -0.052   0.180   0.013
    1UNL     O2   24  -0.135   0.261  -0.027
    1UNL     O3   25   0.029   0.200   0.125
    1UNL    C21   26  -0.032   0.294   0.208
    1UNL     H1   27  -0.259   0.004   0.270
    1UNL     H2   28  -0.424  -0.042   0.220
    1UNL     H3   29  -0.371   0.139   0.253
    1UNL     H4   30  -0.311   0.144   0.031
    1UNL     H5   31  -0.284  -0.211   0.142
    1UNL     H6   32  -0.320  -0.242  -0.013
    1UNL     H7   33  -0.093  -0.217   0.225
    1UNL     H8   34   0.041  -0.304   0.138
    1UNL     H9   35   0.117  -0.070   0.188
    1UNL    H10   36  -0.047  -0.009   0.155
    1UNL    H11   37   0.477  -0.180  -0.179
    1UNL    H12   38   0.614   0.001  -0.092
    1UNL    H13   39   0.511   0.168   0.060
    1UNL    H14   40   0.260   0.164   0.110
    1UNL    H15   41  -0.049  -0.328  -0.160
    1UNL    H16   42  -0.234  -0.176  -0.230
    1UNL    H17   43  -0.077  -0.116  -0.286
    1UNL    H18   44  -0.220   0.071  -0.188
    1UNL    H19   45   0.071   0.047  -0.281
    1UNL    H20   46   0.136   0.184  -0.177
    1UNL    H21   47  -0.077   0.283  -0.203
    1UNL    H22   48   0.026   0.302   0.309
    1UNL    H23   49  -0.032   0.390   0.154
    1UNL    H24   50  -0.133   0.256   0.225
   0.00000   0.00000   0.00000   0.00000   0.00000   0.00000   0.00000   0.00000   0.00000
Generated with MDTraj, t= 67.0
 50
    1UNL     C1    1  -0.373  -0.011   0.221
    1UNL     C2    2  -0.288   0.027   0.111
    1UNL     C3    3  -0.246  -0.059   0.019
    1UNL     C4    4  -0.247  -0.208   0.034
    1UNL     N1    5  -0.119  -0.257   0.002
    1UNL     C5    6  -0.028  -0.237   0.122
    1UNL     C6    7   0.030  -0.092   0.134
    1UNL     C7    8   0.075  -0.045  -0.010
    1UNL     C8    9   0.075  -0.160  -0.107
    1UNL     N2   10   0.193  -0.196  -0.151
    1UNL     C9   11   0.290  -0.107  -0.098
    1UNL    C10   12   0.430  -0.108  -0.098
    1UNL    C11   13   0.498   0.000  -0.036
    1UNL    C12   14   0.429   0.098   0.033
    1UNL    C13   15   0.289   0.096   0.036
    1UNL    C14   16   0.224  -0.006  -0.023
    1UNL    C15   17  -0.062  -0.221  -0.132
    1UNL    C16   18  -0.159  -0.116  -0.201
    1UNL    C17   19  -0.168   0.001  -0.101
    1UNL    C18   20  -0.023   0.064  -0.071
    1UNL    C19   21   0.055   0.114  -0.200
    1UNL     O1   22  -0.031   0.184  -0.290
    1UNL    C20   23  -0.036   0.192   0.011
    1UNL     O2   24  -0.103   0.280  -0.040
    1UNL     O3   25   0.035   0.205   0.124
    1UNL    C21   26   0.011   0.335   0.177
    1UNL     H1   27  -0.322  -0.081   0.294
    1UNL     H2   28  -0.462  -0.063   0.175
    1UNL     H3   29  -0.403   0.080   0.284
    1UNL     H4   30  -0.260   0.134   0.089
    1UNL     H5   31  -0.264  -0.232   0.144
    1UNL     H6   32  -0.323  -0.269  -0.011
    1UNL     H7   33  -0.087  -0.265   0.215
    1UNL     H8   34   0.057  -0.304   0.111
    1UNL     H9   35   0.116  -0.086   0.196
    1UNL    H10   36  -0.050  -0.018   0.165
    1UNL    H11   37   0.490  -0.175  -0.159
    1UNL    H12   38   0.605   0.009  -0.052
    1UNL    H13   39   0.478   0.181   0.080
    1UNL    H14   40   0.225   0.164   0.087
    1UNL    H15   41  -0.056  -0.307  -0.192
    1UNL    H16   42  -0.256  -0.155  -0.229
    1UNL    H17   43  -0.114  -0.075  -0.291
    1UNL    H18   44  -0.218   0.094  -0.146
    1UNL    H19   45   0.112   0.025  -0.253
    1UNL    H20   46   0.128   0.189  -0.167
    1UNL    H21   47  -0.094   0.236  -0.231
    1UNL    H22   48   0.064   0.357   0.281
    1UNL    H23   49   0.039   0.409   0.100
    1UNL    H24   50  -0.095   0.338   0.195
   0.00000   0.00000   0.00000   0.00000   0.00000   0.00000   0.00000   0.00000   0.00000
Generated with MDTraj, t= 68.0
 50
    1UNL     C1    1  -0.383  -0.008   0.206
    1UNL     C2    2  -0.291   0.032   0.099
    1UNL     C3    3  -0.237  -0.055   0.013
    1UNL     C4    4  -0.239  -0.206   0.050
    1UNL     N1    5  -0.113  -0.272   0.008
    1UNL     C5    6  -0.016  -0.245   0.121
    1UNL     C6    7   0.023  -0.094   0.130
    1UNL     C7    8   0.073  -0.043  -0.007
    1UNL     C8    9   0.068  -0.158  -0.104
    1UNL     N2   10   0.188  -0.186  -0.144
    1UNL     C9   11   0.282  -0.098  -0.090
    1UNL    C10   12   0.422  -0.094  -0.114
    1UNL    C11   13   0.493   0.006  -0.041
    1UNL    C12   14   0.435   0.101   0.046
    1UNL    C13   15   0.298   0.085   0.073
    1UNL    C14   16   0.228  -0.012   0.001
    1UNL    C15   17  -0.062  -0.227  -0.133
    1UNL    C16   18  -0.152  -0.121  -0.203
    1UNL    C17   19  -0.173  -0.009  -0.103
    1UNL    C18   20  -0.026   0.066  -0.076
    1UNL    C19   21   0.029   0.119  -0.207
    1UNL     O1   22  -0.065   0.185  -0.290
    1UNL    C20   23  -0.026   0.195   0.001
    1UNL     O2   24  -0.082   0.292  -0.048
    1UNL     O3   25   0.030   0.195   0.123
    1UNL    C21   26   0.045   0.323   0.167
    1UNL     H1   27  -0.326  -0.053   0.303
    1UNL     H2   28  -0.445  -0.093   0.165
    1UNL     H3   29  -0.448   0.072   0.241
    1UNL     H4   30  -0.275   0.132   0.071
    1UNL     H5   31  -0.264  -0.223   0.158
    1UNL     H6   32  -0.322  -0.247  -0.009
    1UNL     H7   33  -0.055  -0.273   0.224
    1UNL     H8   34   0.073  -0.308   0.105
    1UNL     H9   35   0.107  -0.084   0.196
    1UNL    H10   36  -0.061  -0.024   0.160
    1UNL    H11   37   0.465  -0.140  -0.199
    1UNL    H12   38   0.598   0.022  -0.059
    1UNL    H13   39   0.488   0.181   0.095
    1UNL    H14   40   0.245   0.155   0.130
    1UNL    H15   41  -0.041  -0.305  -0.201
    1UNL    H16   42  -0.248  -0.159  -0.233
    1UNL    H17   43  -0.106  -0.079  -0.294
    1UNL    H18   44  -0.242   0.064  -0.156
    1UNL    H19   45   0.077   0.036  -0.273
    1UNL    H20   46   0.107   0.195  -0.183
    1UNL    H21   47  -0.087   0.269  -0.245
    1UNL    H22   48   0.088   0.320   0.275
    1UNL    H23   49   0.110   0.375   0.097
    1UNL    H24   50  -0.052   0.364   0.177
   0.00000   0.00000   0.00000   0.00000   0.00000   0.00000   0.00000   0.00000   0.00000
Generated with MDTraj, t= 69.0
 50
    1UNL     C1    1  -0.379   0.034   0.199
    1UNL     C2    2  -0.314   0.053   0.067
    1UNL     C3    3  -0.246  -0.045   0.008
    1UNL     C4    4  -0.246  -0.189   0.055
    1UNL     N1    5  -0.115  -0.247   0.026
    1UNL     C5    6  -0.022  -0.229   0.142
    1UNL     C6    7   0.052  -0.099   0.135
    1UNL     C7    8   0.086  -0.046  -0.015
    1UNL     C8    9   0.078  -0.168  -0.112
    1UNL     N2   10   0.193  -0.183  -0.167
    1UNL     C9   11   0.289  -0.093  -0.103
    1UNL    C10   12   0.428  -0.091  -0.123
    1UNL    C11   13   0.501   0.002  -0.057
    1UNL    C12   14   0.438   0.091   0.036
    1UNL    C13   15   0.300   0.096   0.048
    1UNL    C14   16   0.226   0.001  -0.021
    1UNL    C15   17  -0.059  -0.241  -0.119
    1UNL    C16   18  -0.145  -0.139  -0.204
    1UNL    C17   19  -0.160  -0.006  -0.116
    1UNL    C18   20  -0.014   0.059  -0.078
    1UNL    C19   21   0.046   0.122  -0.202
    1UNL     O1   22  -0.040   0.192  -0.282
    1UNL    C20   23  -0.040   0.173   0.015
    1UNL     O2   24  -0.127   0.255  -0.015
    1UNL     O3   25   0.032   0.183   0.128
    1UNL    C21   26  -0.002   0.301   0.198
    1UNL     H1   27  -0.307   0.052   0.285
    1UNL     H2   28  -0.420  -0.074   0.206
    1UNL     H3   29  -0.462   0.104   0.219
    1UNL     H4   30  -0.291   0.149   0.019
    1UNL     H5   31  -0.253  -0.180   0.164
    1UNL     H6   32  -0.339  -0.244   0.017
    1UNL     H7   33  -0.075  -0.237   0.242
    1UNL     H8   34   0.050  -0.311   0.152
    1UNL     H9   35   0.151  -0.106   0.181
    1UNL    H10   36  -0.002  -0.018   0.188
    1UNL    H11   37   0.457  -0.168  -0.198
    1UNL    H12   38   0.607   0.004  -0.073
    1UNL    H13   39   0.498   0.143   0.113
    1UNL    H14   40   0.247   0.161   0.123
    1UNL    H15   41  -0.062  -0.343  -0.146
    1UNL    H16   42  -0.242  -0.181  -0.221
    1UNL    H17   43  -0.100  -0.120  -0.302
    1UNL    H18   44  -0.204   0.075  -0.184
    1UNL    H19   45   0.083   0.037  -0.271
    1UNL    H20   46   0.130   0.192  -0.185
    1UNL    H21   47  -0.103   0.247  -0.226
    1UNL    H22   48   0.016   0.287   0.307
    1UNL    H23   49   0.057   0.382   0.159
    1UNL    H24   50  -0.104   0.320   0.196
   0.00000   0.00000   0.00000   0.00000   0.00000   0.00000   0.00000   0.00000   0.00000
Generated with MDTraj, t= 70.0
 50
    1UNL     C1    1  -0.413   0.044   0.165
    1UNL     C2    2  -0.321   0.048   0.049
    1UNL     C3    3  -0.238  -0.045  -0.003
    1UNL     C4    4  -0.232  -0.180   0.061
    1UNL     N1    5  -0.111  -0.262   0.027
    1UNL     C5    6  -0.014  -0.220   0.141
    1UNL     C6    7   0.047  -0.078   0.136
    1UNL     C7    8   0.090  -0.041  -0.010
    1UNL     C8    9   0.080  -0.169  -0.094
    1UNL     N2   10   0.195  -0.216  -0.126
    1UNL     C9   11   0.290  -0.118  -0.096
    1UNL    C10   12   0.422  -0.114  -0.140
    1UNL    C11   13   0.504  -0.004  -0.104
    1UNL    C12   14   0.447   0.099  -0.020
    1UNL    C13   15   0.313   0.089   0.021
    1UNL    C14   16   0.235  -0.015  -0.022
    1UNL    C15   17  -0.049  -0.238  -0.106
    1UNL    C16   18  -0.129  -0.150  -0.191
    1UNL    C17   19  -0.146  -0.012  -0.117
    1UNL    C18   20  -0.011   0.065  -0.074
    1UNL    C19   21   0.051   0.133  -0.201
    1UNL     O1   22  -0.022   0.240  -0.256
    1UNL    C20   23  -0.046   0.179   0.030
    1UNL     O2   24  -0.127   0.262  -0.015
    1UNL     O3   25   0.013   0.185   0.154
    1UNL    C21   26  -0.057   0.282   0.229
    1UNL     H1   27  -0.375  -0.009   0.247
    1UNL     H2   28  -0.514   0.003   0.127
    1UNL     H3   29  -0.428   0.149   0.207
    1UNL     H4   30  -0.325   0.144   0.003
    1UNL     H5   31  -0.251  -0.177   0.167
    1UNL     H6   32  -0.320  -0.235   0.006
    1UNL     H7   33  -0.056  -0.241   0.244
    1UNL     H8   34   0.071  -0.289   0.141
    1UNL     H9   35   0.148  -0.078   0.188
    1UNL    H10   36  -0.012  -0.000   0.183
    1UNL    H11   37   0.448  -0.196  -0.200
    1UNL    H12   38   0.609   0.001  -0.138
    1UNL    H13   39   0.510   0.179   0.007
    1UNL    H14   40   0.280   0.151   0.097
    1UNL    H15   41  -0.035  -0.332  -0.153
    1UNL    H16   42  -0.228  -0.192  -0.203
    1UNL    H17   43  -0.076  -0.141  -0.288
    1UNL    H18   44  -0.204   0.067  -0.177
    1UNL    H19   45   0.068   0.061  -0.288
    1UNL    H20   46   0.152   0.170  -0.178
    1UNL    H21   47  -0.051   0.301  -0.185
    1UNL    H22   48   0.001   0.349   0.294
    1UNL    H23   49  -0.113   0.342   0.160
    1UNL    H24   50  -0.119   0.235   0.298
   0.00000   0.00000   0.00000   0.00000   0.00000   0.00000   0.00000   0.00000   0.00000
Generated with MDTraj, t= 71.0
 50
    1UNL     C1    1  -0.451   0.022   0.128
    1UNL     C2    2  -0.333   0.055   0.041
    1UNL     C3    3  -0.239  -0.034   0.013
    1UNL     C4    4  -0.239  -0.169   0.056
    1UNL     N1    5  -0.112  -0.240   0.030
    1UNL     C5    6  -0.021  -0.224   0.149
    1UNL     C6    7   0.057  -0.095   0.140
    1UNL     C7    8   0.094  -0.046  -0.000
    1UNL     C8    9   0.092  -0.175  -0.089
    1UNL     N2   10   0.207  -0.217  -0.131
    1UNL     C9   11   0.290  -0.115  -0.097
    1UNL    C10   12   0.420  -0.115  -0.135
    1UNL    C11   13   0.502  -0.001  -0.113
    1UNL    C12   14   0.447   0.113  -0.049
    1UNL    C13   15   0.316   0.103   0.006
    1UNL    C14   16   0.237  -0.008  -0.025
    1UNL    C15   17  -0.048  -0.228  -0.105
    1UNL    C16   18  -0.133  -0.127  -0.190
    1UNL    C17   19  -0.145   0.001  -0.101
    1UNL    C18   20  -0.011   0.063  -0.060
    1UNL    C19   21   0.060   0.122  -0.196
    1UNL     O1   22  -0.026   0.201  -0.278
    1UNL    C20   23  -0.041   0.174   0.039
    1UNL     O2   24  -0.107   0.269  -0.004
    1UNL     O3   25   0.001   0.171   0.171
    1UNL    C21   26  -0.040   0.280   0.246
    1UNL     H1   27  -0.425   0.013   0.230
    1UNL     H2   28  -0.498  -0.067   0.091
    1UNL     H3   29  -0.532   0.105   0.133
    1UNL     H4   30  -0.341   0.144  -0.018
    1UNL     H5   31  -0.263  -0.177   0.161
    1UNL     H6   32  -0.320  -0.226  -0.008
    1UNL     H7   33  -0.081  -0.229   0.245
    1UNL     H8   34   0.048  -0.309   0.152
    1UNL     H9   35   0.159  -0.109   0.195
    1UNL    H10   36   0.004  -0.022   0.201
    1UNL    H11   37   0.462  -0.206  -0.181
    1UNL    H12   38   0.593   0.001  -0.164
    1UNL    H13   39   0.502   0.209  -0.038
    1UNL    H14   40   0.273   0.182   0.072
    1UNL    H15   41  -0.042  -0.324  -0.148
    1UNL    H16   42  -0.228  -0.168  -0.222
    1UNL    H17   43  -0.077  -0.102  -0.280
    1UNL    H18   44  -0.192   0.088  -0.160
    1UNL    H19   45   0.113   0.042  -0.257
    1UNL    H20   46   0.149   0.183  -0.164
    1UNL    H21   47  -0.078   0.245  -0.209
    1UNL    H22   48   0.040   0.355   0.255
    1UNL    H23   49  -0.128   0.327   0.202
    1UNL    H24   50  -0.050   0.252   0.347
   0.00000   0.00000   0.00000   0.00000   0.00000   0.00000   0.00000   0.00000   0.00000
Generated with MDTraj, t= 72.0
 50
    1UNL     C1    1  -0.449   0.032   0.134
    1UNL     C2    2  -0.338   0.049   0.029
    1UNL     C3    3  -0.238  -0.037   0.006
    1UNL     C4    4  -0.231  -0.179   0.068
    1UNL     N1    5  -0.114  -0.262   0.036
    1UNL     C5    6  -0.018  -0.238   0.152
    1UNL     C6    7   0.047  -0.100   0.144
    1UNL     C7    8   0.085  -0.049  -0.003
    1UNL     C8    9   0.082  -0.172  -0.086
    1UNL     N2   10   0.188  -0.196  -0.155
    1UNL     C9   11   0.288  -0.106  -0.110
    1UNL    C10   12   0.420  -0.086  -0.146
    1UNL    C11   13   0.495   0.022  -0.097
    1UNL    C12   14   0.445   0.101   0.005
    1UNL    C13   15   0.305   0.091   0.040
    1UNL    C14   16   0.232  -0.013  -0.018
    1UNL    C15   17  -0.055  -0.237  -0.103
    1UNL    C16   18  -0.129  -0.132  -0.189
    1UNL    C17   19  -0.149  -0.005  -0.109
    1UNL    C18   20  -0.010   0.057  -0.068
    1UNL    C19   21   0.048   0.117  -0.198
    1UNL     O1   22  -0.039   0.208  -0.265
    1UNL    C20   23  -0.026   0.176   0.025
    1UNL     O2   24  -0.091   0.271  -0.018
    1UNL     O3   25   0.023   0.172   0.152
    1UNL    C21   26  -0.001   0.292   0.224
    1UNL     H1   27  -0.431   0.088   0.228
    1UNL     H2   28  -0.457  -0.068   0.158
    1UNL     H3   29  -0.554   0.064   0.117
    1UNL     H4   30  -0.358   0.139  -0.031
    1UNL     H5   31  -0.228  -0.167   0.178
    1UNL     H6   32  -0.326  -0.239   0.042
    1UNL     H7   33  -0.068  -0.252   0.252
    1UNL     H8   34   0.061  -0.313   0.143
    1UNL     H9   35   0.131  -0.090   0.224
    1UNL    H10   36  -0.030  -0.033   0.181
    1UNL    H11   37   0.457  -0.145  -0.226
    1UNL    H12   38   0.598   0.033  -0.142
    1UNL    H13   39   0.495   0.181   0.050
    1UNL    H14   40   0.241   0.156   0.101
    1UNL    H15   41  -0.055  -0.331  -0.152
    1UNL    H16   42  -0.231  -0.168  -0.213
    1UNL    H17   43  -0.081  -0.120  -0.286
    1UNL    H18   44  -0.203   0.069  -0.178
    1UNL    H19   45   0.066   0.037  -0.274
    1UNL    H20   46   0.152   0.156  -0.182
    1UNL    H21   47  -0.061   0.275  -0.195
    1UNL    H22   48  -0.012   0.376   0.156
    1UNL    H23   49  -0.097   0.295   0.283
    1UNL    H24   50   0.086   0.320   0.282
   0.00000   0.00000   0.00000   0.00000   0.00000   0.00000   0.00000   0.00000   0.00000
Generated with MDTraj, t= 73.0
 50
    1UNL     C1    1  -0.417   0.035   0.171
    1UNL     C2    2  -0.324   0.042   0.058
    1UNL     C3    3  -0.246  -0.050   0.009
    1UNL     C4    4  -0.248  -0.191   0.063
    1UNL     N1    5  -0.112  -0.260   0.029
    1UNL     C5    6  -0.015  -0.237   0.141
    1UNL     C6    7   0.030  -0.089   0.141
    1UNL     C7    8   0.079  -0.053   0.002
    1UNL     C8    9   0.081  -0.171  -0.094
    1UNL     N2   10   0.190  -0.185  -0.159
    1UNL     C9   11   0.283  -0.087  -0.111
    1UNL    C10   12   0.415  -0.075  -0.145
    1UNL    C11   13   0.497   0.009  -0.066
    1UNL    C12   14   0.432   0.094   0.027
    1UNL    C13   15   0.298   0.081   0.064
    1UNL    C14   16   0.233  -0.018  -0.004
    1UNL    C15   17  -0.057  -0.239  -0.115
    1UNL    C16   18  -0.134  -0.134  -0.199
    1UNL    C17   19  -0.149  -0.008  -0.107
    1UNL    C18   20  -0.010   0.056  -0.077
    1UNL    C19   21   0.053   0.113  -0.209
    1UNL     O1   22  -0.018   0.220  -0.265
    1UNL    C20   23  -0.039   0.178   0.012
    1UNL     O2   24  -0.137   0.247  -0.009
    1UNL     O3   25   0.050   0.194   0.112
    1UNL    C21   26   0.020   0.301   0.187
    1UNL     H1   27  -0.358   0.050   0.267
    1UNL     H2   28  -0.471  -0.056   0.173
    1UNL     H3   29  -0.478   0.116   0.171
    1UNL     H4   30  -0.324   0.137   0.011
    1UNL     H5   31  -0.269  -0.195   0.177
    1UNL     H6   32  -0.328  -0.250   0.007
    1UNL     H7   33  -0.067  -0.264   0.236
    1UNL     H8   34   0.076  -0.297   0.131
    1UNL     H9   35   0.108  -0.073   0.224
    1UNL    H10   36  -0.046  -0.014   0.170
    1UNL    H11   37   0.453  -0.139  -0.223
    1UNL    H12   38   0.600   0.005  -0.074
    1UNL    H13   39   0.496   0.171   0.077
    1UNL    H14   40   0.240   0.150   0.115
    1UNL    H15   41  -0.047  -0.334  -0.163
    1UNL    H16   42  -0.233  -0.177  -0.225
    1UNL    H17   43  -0.086  -0.106  -0.292
    1UNL    H18   44  -0.203   0.064  -0.178
    1UNL    H19   45   0.066   0.029  -0.279
    1UNL    H20   46   0.160   0.144  -0.191
    1UNL    H21   47  -0.085   0.261  -0.207
    1UNL    H22   48   0.014   0.389   0.125
    1UNL    H23   49  -0.079   0.293   0.248
    1UNL    H24   50   0.110   0.317   0.251
   0.00000   0.00000   0.00000   0.00000   0.00000   0.00000   0.00000   0.00000   0.00000
Generated with MDTraj, t= 74.0
 50
    1UNL     C1    1  -0.375   0.003   0.210
    1UNL     C2    2  -0.302   0.036   0.091
    1UNL     C3    3  -0.243  -0.048   0.009
    1UNL     C4    4  -0.251  -0.203   0.012
    1UNL     N1    5  -0.113  -0.264   0.004
    1UNL     C5    6  -0.030  -0.233   0.132
    1UNL     C6    7   0.037  -0.089   0.133
    1UNL     C7    8   0.083  -0.046  -0.010
    1UNL     C8    9   0.081  -0.170  -0.096
    1UNL     N2   10   0.195  -0.206  -0.136
    1UNL     C9   11   0.289  -0.120  -0.085
    1UNL    C10   12   0.427  -0.114  -0.114
    1UNL    C11   13   0.500  -0.011  -0.051
    1UNL    C12   14   0.435   0.092   0.026
    1UNL    C13   15   0.299   0.088   0.034
    1UNL    C14   16   0.227  -0.017  -0.015
    1UNL    C15   17  -0.051  -0.229  -0.126
    1UNL    C16   18  -0.120  -0.113  -0.210
    1UNL    C17   19  -0.153   0.002  -0.107
    1UNL    C18   20  -0.017   0.065  -0.066
    1UNL    C19   21   0.039   0.132  -0.194
    1UNL     O1   22  -0.053   0.200  -0.269
    1UNL    C20   23  -0.052   0.189   0.023
    1UNL     O2   24  -0.148   0.253  -0.014
    1UNL     O3   25   0.038   0.218   0.120
    1UNL    C21   26   0.018   0.348   0.163
    1UNL     H1   27  -0.309  -0.062   0.271
    1UNL     H2   28  -0.471  -0.042   0.191
    1UNL     H3   29  -0.380   0.089   0.265
    1UNL     H4   30  -0.294   0.145   0.063
    1UNL     H5   31  -0.290  -0.238   0.119
    1UNL     H6   32  -0.320  -0.239  -0.070
    1UNL     H7   33  -0.085  -0.251   0.226
    1UNL     H8   34   0.047  -0.311   0.136
    1UNL     H9   35   0.127  -0.080   0.202
    1UNL    H10   36  -0.026  -0.011   0.188
    1UNL    H11   37   0.473  -0.197  -0.165
    1UNL    H12   38   0.610  -0.004  -0.061
    1UNL    H13   39   0.485   0.166   0.080
    1UNL    H14   40   0.237   0.173   0.076
    1UNL    H15   41  -0.037  -0.315  -0.188
    1UNL    H16   42  -0.215  -0.140  -0.263
    1UNL    H17   43  -0.047  -0.085  -0.285
    1UNL    H18   44  -0.215   0.081  -0.161
    1UNL    H19   45   0.087   0.058  -0.255
    1UNL    H20   46   0.123   0.198  -0.157
    1UNL    H21   47  -0.105   0.268  -0.216
    1UNL    H22   48   0.039   0.414   0.082
    1UNL    H23   49  -0.093   0.365   0.195
    1UNL    H24   50   0.090   0.372   0.247
   0.00000   0.00000   0.00000   0.00000   0.00000   0.00000   0.00000   0.00000   0.00000
Generated with MDTraj, t= 75.0
 50
    1UNL     C1    1  -0.360  -0.015   0.233
    1UNL     C2    2  -0.299   0.028   0.105
    1UNL     C3    3  -0.235  -0.049   0.020
    1UNL     C4    4  -0.236  -0.201   0.027
    1UNL     N1    5  -0.103  -0.262   0.005
    1UNL     C5    6  -0.008  -0.239   0.113
    1UNL     C6    7   0.030  -0.095   0.121
    1UNL     C7    8   0.075  -0.033  -0.016
    1UNL     C8    9   0.077  -0.160  -0.109
    1UNL     N2   10   0.191  -0.215  -0.121
    1UNL     C9   11   0.281  -0.116  -0.071
    1UNL    C10   12   0.422  -0.125  -0.075
    1UNL    C11   13   0.494  -0.016  -0.026
    1UNL    C12   14   0.427   0.097   0.032
    1UNL    C13   15   0.288   0.108   0.025
    1UNL    C14   16   0.212  -0.000  -0.023
    1UNL    C15   17  -0.051  -0.215  -0.137
    1UNL    C16   18  -0.153  -0.113  -0.203
    1UNL    C17   19  -0.165   0.001  -0.109
    1UNL    C18   20  -0.024   0.071  -0.085
    1UNL    C19   21   0.034   0.111  -0.226
    1UNL     O1   22  -0.042   0.212  -0.281
    1UNL    C20   23  -0.043   0.197  -0.004
    1UNL     O2   24  -0.125   0.281  -0.032
    1UNL     O3   25   0.048   0.207   0.107
    1UNL    C21   26   0.019   0.320   0.190
    1UNL     H1   27  -0.286  -0.024   0.300
    1UNL     H2   28  -0.421  -0.104   0.228
    1UNL     H3   29  -0.415   0.068   0.274
    1UNL     H4   30  -0.308   0.128   0.079
    1UNL     H5   31  -0.291  -0.242   0.123
    1UNL     H6   32  -0.298  -0.240  -0.058
    1UNL     H7   33  -0.052  -0.274   0.208
    1UNL     H8   34   0.085  -0.297   0.109
    1UNL     H9   35   0.098  -0.072   0.208
    1UNL    H10   36  -0.063  -0.038   0.162
    1UNL    H11   37   0.465  -0.219  -0.103
    1UNL    H12   38   0.599  -0.019  -0.015
    1UNL    H13   39   0.484   0.190   0.062
    1UNL    H14   40   0.240   0.185   0.074
    1UNL    H15   41  -0.035  -0.302  -0.201
    1UNL    H16   42  -0.252  -0.161  -0.222
    1UNL    H17   43  -0.123  -0.074  -0.301
    1UNL    H18   44  -0.233   0.083  -0.149
    1UNL    H19   45   0.047   0.028  -0.291
    1UNL    H20   46   0.139   0.150  -0.214
    1UNL    H21   47  -0.080   0.261  -0.206
    1UNL    H22   48   0.029   0.405   0.130
    1UNL    H23   49  -0.089   0.312   0.229
    1UNL    H24   50   0.089   0.322   0.277
   0.00000   0.00000   0.00000   0.00000   0.00000   0.00000   0.00000   0.00000   0.00000
Generated with MDTraj, t= 76.0
 50
    1UNL     C1    1  -0.359   0.046   0.216
    1UNL     C2    2  -0.292   0.061   0.083
    1UNL     C3    3  -0.230  -0.033   0.009
    1UNL     C4    4  -0.234  -0.187   0.035
    1UNL     N1    5  -0.106  -0.255   0.014
    1UNL     C5    6  -0.009  -0.232   0.121
    1UNL     C6    7   0.048  -0.086   0.123
    1UNL     C7    8   0.082  -0.040  -0.017
    1UNL     C8    9   0.085  -0.165  -0.103
    1UNL     N2   10   0.199  -0.199  -0.152
    1UNL     C9   11   0.286  -0.096  -0.106
    1UNL    C10   12   0.421  -0.103  -0.107
    1UNL    C11   13   0.497  -0.025  -0.017
    1UNL    C12   14   0.437   0.087   0.044
    1UNL    C13   15   0.298   0.090   0.044
    1UNL    C14   16   0.223   0.001  -0.031
    1UNL    C15   17  -0.048  -0.229  -0.124
    1UNL    C16   18  -0.140  -0.134  -0.202
    1UNL    C17   19  -0.156  -0.005  -0.121
    1UNL    C18   20  -0.017   0.068  -0.085
    1UNL    C19   21   0.032   0.114  -0.220
    1UNL     O1   22  -0.071   0.196  -0.279
    1UNL    C20   23  -0.050   0.180   0.014
    1UNL     O2   24  -0.121   0.264  -0.027
    1UNL     O3   25   0.001   0.174   0.137
    1UNL    C21   26  -0.010   0.296   0.198
    1UNL     H1   27  -0.284   0.033   0.285
    1UNL     H2   28  -0.425  -0.034   0.220
    1UNL     H3   29  -0.405   0.139   0.251
    1UNL     H4   30  -0.279   0.168   0.052
    1UNL     H5   31  -0.263  -0.205   0.143
    1UNL     H6   32  -0.314  -0.240  -0.026
    1UNL     H7   33  -0.049  -0.254   0.220
    1UNL     H8   34   0.073  -0.303   0.108
    1UNL     H9   35   0.136  -0.076   0.193
    1UNL    H10   36  -0.032  -0.017   0.172
    1UNL    H11   37   0.457  -0.189  -0.164
    1UNL    H12   38   0.603  -0.046  -0.009
    1UNL    H13   39   0.497   0.160   0.088
    1UNL    H14   40   0.258   0.169   0.105
    1UNL    H15   41  -0.039  -0.331  -0.164
    1UNL    H16   42  -0.232  -0.190  -0.230
    1UNL    H17   43  -0.096  -0.098  -0.296
    1UNL    H18   44  -0.220   0.073  -0.172
    1UNL    H19   45   0.055   0.032  -0.281
    1UNL    H20   46   0.127   0.170  -0.211
    1UNL    H21   47  -0.101   0.262  -0.208
    1UNL    H22   48   0.014   0.368   0.128
    1UNL    H23   49  -0.111   0.304   0.244
    1UNL    H24   50   0.063   0.288   0.279
   0.00000   0.00000   0.00000   0.00000   0.00000   0.00000   0.00000   0.00000   0.00000
Generated with MDTraj, t= 77.0
 50
    1UNL     C1    1  -0.407   0.045   0.180
    1UNL     C2    2  -0.320   0.056   0.058
    1UNL     C3    3  -0.234  -0.033   0.015
    1UNL     C4    4  -0.231  -0.173   0.058
    1UNL     N1    5  -0.109  -0.253   0.031
    1UNL     C5    6  -0.005  -0.240   0.134
    1UNL     C6    7   0.035  -0.084   0.140
    1UNL     C7    8   0.084  -0.044  -0.007
    1UNL     C8    9   0.083  -0.171  -0.090
    1UNL     N2   10   0.189  -0.185  -0.160
    1UNL     C9   11   0.285  -0.098  -0.107
    1UNL    C10   12   0.416  -0.089  -0.150
    1UNL    C11   13   0.500  -0.003  -0.084
    1UNL    C12   14   0.453   0.065   0.024
    1UNL    C13   15   0.315   0.075   0.054
    1UNL    C14   16   0.229  -0.003  -0.017
    1UNL    C15   17  -0.051  -0.234  -0.111
    1UNL    C16   18  -0.130  -0.135  -0.197
    1UNL    C17   19  -0.146  -0.007  -0.110
    1UNL    C18   20  -0.006   0.064  -0.073
    1UNL    C19   21   0.057   0.112  -0.205
    1UNL     O1   22  -0.038   0.193  -0.280
    1UNL    C20   23  -0.034   0.186   0.016
    1UNL     O2   24  -0.107   0.268  -0.030
    1UNL     O3   25   0.005   0.181   0.147
    1UNL    C21   26  -0.058   0.290   0.217
    1UNL     H1   27  -0.368  -0.035   0.248
    1UNL     H2   28  -0.505   0.029   0.163
    1UNL     H3   29  -0.385   0.134   0.237
    1UNL     H4   30  -0.324   0.149   0.009
    1UNL     H5   31  -0.248  -0.186   0.165
    1UNL     H6   32  -0.321  -0.227   0.010
    1UNL     H7   33  -0.041  -0.272   0.230
    1UNL     H8   34   0.083  -0.299   0.108
    1UNL     H9   35   0.122  -0.069   0.212
    1UNL    H10   36  -0.052  -0.023   0.178
    1UNL    H11   37   0.454  -0.152  -0.228
    1UNL    H12   38   0.605  -0.004  -0.115
    1UNL    H13   39   0.523   0.120   0.090
    1UNL    H14   40   0.266   0.141   0.128
    1UNL    H15   41  -0.031  -0.326  -0.167
    1UNL    H16   42  -0.231  -0.176  -0.216
    1UNL    H17   43  -0.083  -0.122  -0.297
    1UNL    H18   44  -0.199   0.067  -0.176
    1UNL    H19   45   0.087   0.034  -0.266
    1UNL    H20   46   0.142   0.180  -0.192
    1UNL    H21   47  -0.080   0.255  -0.222
    1UNL    H22   48  -0.009   0.376   0.185
    1UNL    H23   49  -0.163   0.290   0.186
    1UNL    H24   50  -0.063   0.273   0.323
   0.00000   0.00000   0.00000   0.00000   0.00000   0.00000   0.00000   0.00000   0.00000
Generated with MDTraj, t= 78.0
 50
    1UNL     C1    1  -0.452   0.022   0.137
    1UNL     C2    2  -0.334   0.056   0.051
    1UNL     C3    3  -0.246  -0.032   0.010
    1UNL     C4    4  -0.251  -0.176   0.061
    1UNL     N1    5  -0.121  -0.253   0.042
    1UNL     C5    6  -0.022  -0.235   0.149
    1UNL     C6    7   0.050  -0.098   0.141
    1UNL     C7    8   0.091  -0.056   0.000
    1UNL     C8    9   0.082  -0.181  -0.082
    1UNL     N2   10   0.189  -0.206  -0.146
    1UNL     C9   11   0.284  -0.109  -0.113
    1UNL    C10   12   0.413  -0.089  -0.161
    1UNL    C11   13   0.488   0.015  -0.113
    1UNL    C12   14   0.436   0.105  -0.023
    1UNL    C13   15   0.309   0.094   0.031
    1UNL    C14   16   0.241  -0.016  -0.017
    1UNL    C15   17  -0.054  -0.237  -0.100
    1UNL    C16   18  -0.124  -0.127  -0.191
    1UNL    C17   19  -0.142   0.002  -0.100
    1UNL    C18   20  -0.002   0.060  -0.060
    1UNL    C19   21   0.073   0.114  -0.188
    1UNL     O1   22   0.006   0.208  -0.268
    1UNL    C20   23  -0.034   0.177   0.030
    1UNL     O2   24  -0.084   0.272  -0.023
    1UNL     O3   25   0.001   0.170   0.162
    1UNL    C21   26  -0.036   0.297   0.220
    1UNL     H1   27  -0.413  -0.040   0.224
    1UNL     H2   28  -0.529  -0.039   0.089
    1UNL     H3   29  -0.490   0.106   0.185
    1UNL     H4   30  -0.328   0.160   0.018
    1UNL     H5   31  -0.276  -0.177   0.166
    1UNL     H6   32  -0.331  -0.247   0.012
    1UNL     H7   33  -0.075  -0.238   0.242
    1UNL     H8   34   0.053  -0.314   0.154
    1UNL     H9   35   0.151  -0.106   0.198
    1UNL    H10   36  -0.009  -0.016   0.183
    1UNL    H11   37   0.461  -0.148  -0.238
    1UNL    H12   38   0.593   0.022  -0.127
    1UNL    H13   39   0.490   0.194   0.004
    1UNL    H14   40   0.256   0.163   0.090
    1UNL    H15   41  -0.052  -0.334  -0.152
    1UNL    H16   42  -0.225  -0.156  -0.227
    1UNL    H17   43  -0.058  -0.114  -0.280
    1UNL    H18   44  -0.190   0.075  -0.171
    1UNL    H19   45   0.095   0.041  -0.257
    1UNL    H20   46   0.161   0.169  -0.155
    1UNL    H21   47  -0.045   0.270  -0.207
    1UNL    H22   48   0.002   0.373   0.156
    1UNL    H23   49  -0.145   0.292   0.225
    1UNL    H24   50  -0.001   0.302   0.321
   0.00000   0.00000   0.00000   0.00000   0.00000   0.00000   0.00000   0.00000   0.00000
Generated with MDTraj, t= 79.0
 50
    1UNL     C1    1  -0.454   0.050   0.113
    1UNL     C2    2  -0.335   0.057   0.019
    1UNL     C3    3  -0.243  -0.036  -0.002
    1UNL     C4    4  -0.245  -0.178   0.064
    1UNL     N1    5  -0.122  -0.253   0.029
    1UNL     C5    6  -0.020  -0.240   0.143
    1UNL     C6    7   0.040  -0.100   0.148
    1UNL     C7    8   0.085  -0.053   0.004
    1UNL     C8    9   0.082  -0.179  -0.074
    1UNL     N2   10   0.199  -0.219  -0.112
    1UNL     C9   11   0.295  -0.115  -0.089
    1UNL    C10   12   0.422  -0.094  -0.140
    1UNL    C11   13   0.482   0.025  -0.117
    1UNL    C12   14   0.426   0.125  -0.040
    1UNL    C13   15   0.307   0.097   0.021
    1UNL    C14   16   0.240  -0.020  -0.008
    1UNL    C15   17  -0.055  -0.236  -0.105
    1UNL    C16   18  -0.124  -0.140  -0.197
    1UNL    C17   19  -0.140  -0.008  -0.112
    1UNL    C18   20  -0.009   0.058  -0.066
    1UNL    C19   21   0.052   0.133  -0.197
    1UNL     O1   22  -0.040   0.207  -0.267
    1UNL    C20   23  -0.034   0.176   0.039
    1UNL     O2   24  -0.100   0.273   0.006
    1UNL     O3   25   0.035   0.163   0.155
    1UNL    C21   26   0.019   0.279   0.234
    1UNL     H1   27  -0.439   0.116   0.198
    1UNL     H2   28  -0.461  -0.055   0.163
    1UNL     H3   29  -0.550   0.080   0.079
    1UNL     H4   30  -0.320   0.153  -0.029
    1UNL     H5   31  -0.247  -0.175   0.172
    1UNL     H6   32  -0.342  -0.232   0.030
    1UNL     H7   33  -0.059  -0.269   0.237
    1UNL     H8   34   0.054  -0.320   0.126
    1UNL     H9   35   0.128  -0.084   0.223
    1UNL    H10   36  -0.037  -0.028   0.170
    1UNL    H11   37   0.473  -0.172  -0.192
    1UNL    H12   38   0.578   0.046  -0.166
    1UNL    H13   39   0.483   0.213  -0.026
    1UNL    H14   40   0.254   0.183   0.071
    1UNL    H15   41  -0.054  -0.332  -0.162
    1UNL    H16   42  -0.218  -0.191  -0.228
    1UNL    H17   43  -0.056  -0.114  -0.285
    1UNL    H18   44  -0.190   0.067  -0.178
    1UNL    H19   45   0.076   0.057  -0.261
    1UNL    H20   46   0.133   0.203  -0.174
    1UNL    H21   47  -0.082   0.263  -0.199
    1UNL    H22   48   0.076   0.365   0.195
    1UNL    H23   49  -0.088   0.291   0.248
    1UNL    H24   50   0.056   0.247   0.332
   0.00000   0.00000   0.00000   0.00000   0.00000   0.00000   0.00000   0.00000   0.00000
Generated with MDTraj, t= 80.0
 50
    1UNL     C1    1  -0.438   0.028   0.141
    1UNL     C2    2  -0.339   0.052   0.031
    1UNL     C3    3  -0.259  -0.042  -0.009
    1UNL     C4    4  -0.251  -0.177   0.055
    1UNL     N1    5  -0.119  -0.250   0.039
    1UNL     C5    6  -0.025  -0.224   0.152
    1UNL     C6    7   0.052  -0.094   0.133
    1UNL     C7    8   0.087  -0.047  -0.012
    1UNL     C8    9   0.085  -0.176  -0.094
    1UNL     N2   10   0.197  -0.201  -0.155
    1UNL     C9   11   0.293  -0.111  -0.100
    1UNL    C10   12   0.434  -0.104  -0.120
    1UNL    C11   13   0.503   0.004  -0.080
    1UNL    C12   14   0.440   0.098  -0.003
    1UNL    C13   15   0.305   0.098   0.019
    1UNL    C14   16   0.226  -0.009  -0.023
    1UNL    C15   17  -0.051  -0.238  -0.103
    1UNL    C16   18  -0.134  -0.138  -0.193
    1UNL    C17   19  -0.156  -0.006  -0.109
    1UNL    C18   20  -0.018   0.057  -0.067
    1UNL    C19   21   0.044   0.117  -0.202
    1UNL     O1   22  -0.030   0.225  -0.254
    1UNL    C20   23  -0.033   0.178   0.028
    1UNL     O2   24  -0.134   0.245   0.015
    1UNL     O3   25   0.061   0.194   0.129
    1UNL    C21   26   0.016   0.294   0.219
    1UNL     H1   27  -0.497   0.115   0.146
    1UNL     H2   28  -0.379   0.014   0.237
    1UNL     H3   29  -0.511  -0.060   0.120
    1UNL     H4   30  -0.329   0.148  -0.014
    1UNL     H5   31  -0.286  -0.163   0.158
    1UNL     H6   32  -0.323  -0.246   0.001
    1UNL     H7   33  -0.088  -0.214   0.237
    1UNL     H8   34   0.036  -0.310   0.182
    1UNL     H9   35   0.155  -0.099   0.183
    1UNL    H10   36  -0.002  -0.012   0.177
    1UNL    H11   37   0.482  -0.190  -0.165
    1UNL    H12   38   0.606   0.013  -0.104
    1UNL    H13   39   0.508   0.184   0.028
    1UNL    H14   40   0.265   0.173   0.078
    1UNL    H15   41  -0.033  -0.340  -0.144
    1UNL    H16   42  -0.228  -0.190  -0.218
    1UNL    H17   43  -0.070  -0.114  -0.284
    1UNL    H18   44  -0.209   0.069  -0.172
    1UNL    H19   45   0.053   0.051  -0.280
    1UNL    H20   46   0.142   0.155  -0.169
    1UNL    H21   47  -0.063   0.279  -0.175
    1UNL    H22   48   0.028   0.399   0.175
    1UNL    H23   49  -0.085   0.268   0.250
    1UNL    H24   50   0.078   0.286   0.312
   0.00000   0.00000   0.00000   0.00000   0.00000   0.00000   0.00000   0.00000   0.00000
Generated with MDTraj, t= 81.0
 50
    1UNL     C1    1  -0.430   0.008   0.169
    1UNL     C2    2  -0.313   0.041   0.074
    1UNL     C3    3  -0.231  -0.045   0.016
    1UNL     C4    4  -0.227  -0.192   0.055
    1UNL     N1    5  -0.104  -0.252   0.017
    1UNL     C5    6  -0.004  -0.226   0.131
    1UNL     C6    7   0.038  -0.076   0.129
    1UNL     C7    8   0.087  -0.040  -0.010
    1UNL     C8    9   0.077  -0.164  -0.105
    1UNL     N2   10   0.188  -0.193  -0.160
    1UNL     C9   11   0.285  -0.113  -0.102
    1UNL    C10   12   0.421  -0.118  -0.124
    1UNL    C11   13   0.508  -0.031  -0.060
    1UNL    C12   14   0.455   0.060   0.027
    1UNL    C13   15   0.323   0.061   0.054
    1UNL    C14   16   0.235  -0.025  -0.010
    1UNL    C15   17  -0.050  -0.227  -0.121
    1UNL    C16   18  -0.141  -0.137  -0.199
    1UNL    C17   19  -0.151  -0.006  -0.115
    1UNL    C18   20  -0.020   0.069  -0.076
    1UNL    C19   21   0.045   0.136  -0.195
    1UNL     O1   22  -0.040   0.235  -0.261
    1UNL    C20   23  -0.052   0.189   0.016
    1UNL     O2   24  -0.157   0.254  -0.004
    1UNL     O3   25   0.029   0.212   0.127
    1UNL    C21   26   0.000   0.340   0.180
    1UNL     H1   27  -0.525   0.024   0.113
    1UNL     H2   28  -0.426   0.074   0.255
    1UNL     H3   29  -0.432  -0.104   0.203
    1UNL     H4   30  -0.317   0.145   0.032
    1UNL     H5   31  -0.226  -0.201   0.166
    1UNL     H6   32  -0.319  -0.244   0.023
    1UNL     H7   33  -0.044  -0.253   0.226
    1UNL     H8   34   0.078  -0.297   0.112
    1UNL     H9   35   0.126  -0.058   0.194
    1UNL    H10   36  -0.047  -0.012   0.157
    1UNL    H11   37   0.465  -0.187  -0.192
    1UNL    H12   38   0.616  -0.032  -0.077
    1UNL    H13   39   0.519   0.127   0.070
    1UNL    H14   40   0.302   0.139   0.129
    1UNL    H15   41  -0.044  -0.331  -0.165
    1UNL    H16   42  -0.242  -0.181  -0.215
    1UNL    H17   43  -0.089  -0.124  -0.301
    1UNL    H18   44  -0.221   0.064  -0.164
    1UNL    H19   45   0.068   0.057  -0.258
    1UNL    H20   46   0.142   0.182  -0.162
    1UNL    H21   47  -0.092   0.285  -0.195
    1UNL    H22   48  -0.051   0.409   0.103
    1UNL    H23   49  -0.059   0.331   0.270
    1UNL    H24   50   0.096   0.391   0.209
   0.00000   0.00000   0.00000   0.00000   0.00000   0.00000   0.00000   0.00000   0.00000
Generated with MDTraj, t= 82.0
 50
    1UNL     C1    1  -0.399   0.005   0.207
    1UNL     C2    2  -0.317   0.039   0.089
    1UNL     C3    3  -0.247  -0.045   0.017
    1UNL     C4    4  -0.236  -0.191   0.052
    1UNL     N1    5  -0.110  -0.253   0.003
    1UNL     C5    6  -0.008  -0.240   0.113
    1UNL     C6    7   0.046  -0.100   0.123
    1UNL     C7    8   0.081  -0.040  -0.013
    1UNL     C8    9   0.078  -0.158  -0.116
    1UNL     N2   10   0.191  -0.184  -0.170
    1UNL     C9   11   0.288  -0.104  -0.101
    1UNL    C10   12   0.426  -0.113  -0.102
    1UNL    C11   13   0.498  -0.024  -0.023
    1UNL    C12   14   0.438   0.070   0.048
    1UNL    C13   15   0.302   0.079   0.059
    1UNL    C14   16   0.228  -0.009  -0.018
    1UNL    C15   17  -0.053  -0.223  -0.136
    1UNL    C16   18  -0.147  -0.117  -0.205
    1UNL    C17   19  -0.163   0.002  -0.108
    1UNL    C18   20  -0.020   0.066  -0.073
    1UNL    C19   21   0.042   0.119  -0.204
    1UNL     O1   22  -0.059   0.181  -0.280
    1UNL    C20   23  -0.034   0.192   0.017
    1UNL     O2   24  -0.123   0.271  -0.017
    1UNL     O3   25   0.052   0.221   0.115
    1UNL    C21   26   0.011   0.330   0.184
    1UNL     H1   27  -0.500  -0.049   0.174
    1UNL     H2   28  -0.431   0.095   0.261
    1UNL     H3   29  -0.359  -0.059   0.284
    1UNL     H4   30  -0.324   0.137   0.057
    1UNL     H5   31  -0.259  -0.204   0.162
    1UNL     H6   32  -0.310  -0.247   0.002
    1UNL     H7   33  -0.065  -0.258   0.201
    1UNL     H8   34   0.071  -0.317   0.102
    1UNL     H9   35   0.136  -0.110   0.181
    1UNL    H10   36  -0.031  -0.033   0.169
    1UNL    H11   37   0.480  -0.176  -0.173
    1UNL    H12   38   0.603  -0.023  -0.027
    1UNL    H13   39   0.501   0.133   0.117
    1UNL    H14   40   0.259   0.158   0.117
    1UNL    H15   41  -0.047  -0.315  -0.201
    1UNL    H16   42  -0.245  -0.168  -0.214
    1UNL    H17   43  -0.128  -0.083  -0.313
    1UNL    H18   44  -0.227   0.080  -0.152
    1UNL    H19   45   0.076   0.039  -0.263
    1UNL    H20   46   0.137   0.182  -0.191
    1UNL    H21   47  -0.115   0.243  -0.228
    1UNL    H22   48   0.033   0.428   0.125
    1UNL    H23   49  -0.093   0.324   0.202
    1UNL    H24   50   0.069   0.337   0.277
   0.00000   0.00000   0.00000   0.00000   0.00000   0.00000   0.00000   0.00000   0.00000
Generated with MDTraj, t= 83.0
 50
    1UNL     C1    1  -0.346   0.017   0.226
    1UNL     C2    2  -0.284   0.044   0.095
    1UNL     C3    3  -0.250  -0.046   0.005
    1UNL     C4    4  -0.255  -0.200   0.017
    1UNL     N1    5  -0.120  -0.257   0.001
    1UNL     C5    6  -0.032  -0.233   0.129
    1UNL     C6    7   0.028  -0.093   0.121
    1UNL     C7    8   0.071  -0.042  -0.023
    1UNL     C8    9   0.079  -0.164  -0.104
    1UNL     N2   10   0.197  -0.198  -0.135
    1UNL     C9   11   0.287  -0.101  -0.086
    1UNL    C10   12   0.426  -0.102  -0.094
    1UNL    C11   13   0.490   0.003  -0.038
    1UNL    C12   14   0.427   0.092   0.040
    1UNL    C13   15   0.289   0.097   0.050
    1UNL    C14   16   0.216   0.003  -0.018
    1UNL    C15   17  -0.056  -0.228  -0.134
    1UNL    C16   18  -0.140  -0.122  -0.213
    1UNL    C17   19  -0.167  -0.005  -0.114
    1UNL    C18   20  -0.028   0.061  -0.080
    1UNL    C19   21   0.037   0.121  -0.209
    1UNL     O1   22  -0.051   0.189  -0.288
    1UNL    C20   23  -0.045   0.182   0.016
    1UNL     O2   24  -0.104   0.287  -0.025
    1UNL     O3   25   0.031   0.175   0.131
    1UNL    C21   26   0.042   0.298   0.192
    1UNL     H1   27  -0.389  -0.088   0.226
    1UNL     H2   28  -0.432   0.091   0.239
    1UNL     H3   29  -0.284   0.031   0.309
    1UNL     H4   30  -0.262   0.153   0.081
    1UNL     H5   31  -0.295  -0.236   0.116
    1UNL     H6   32  -0.326  -0.251  -0.042
    1UNL     H7   33  -0.099  -0.250   0.211
    1UNL     H8   34   0.045  -0.312   0.123
    1UNL     H9   35   0.117  -0.091   0.176
    1UNL    H10   36  -0.047  -0.021   0.161
    1UNL    H11   37   0.476  -0.165  -0.164
    1UNL    H12   38   0.600   0.007  -0.054
    1UNL    H13   39   0.486   0.158   0.100
    1UNL    H14   40   0.238   0.161   0.115
    1UNL    H15   41  -0.039  -0.325  -0.190
    1UNL    H16   42  -0.233  -0.166  -0.260
    1UNL    H17   43  -0.091  -0.083  -0.308
    1UNL    H18   44  -0.227   0.061  -0.179
    1UNL    H19   45   0.094   0.056  -0.270
    1UNL    H20   46   0.122   0.196  -0.182
    1UNL    H21   47  -0.093   0.261  -0.229
    1UNL    H22   48   0.114   0.369   0.136
    1UNL    H23   49  -0.051   0.343   0.186
    1UNL    H24   50   0.080   0.296   0.291
   0.00000   0.00000   0.00000   0.00000   0.00000   0.00000   0.00000   0.00000   0.00000
Generated with MDTraj, t= 84.0
 50
    1UNL     C1    1  -0.351   0.030   0.212
    1UNL     C2    2  -0.278   0.056   0.086
    1UNL     C3    3  -0.237  -0.039   0.006
    1UNL     C4    4  -0.243  -0.188   0.038
    1UNL     N1    5  -0.122  -0.262   0.003
    1UNL     C5    6  -0.017  -0.242   0.117
    1UNL     C6    7   0.031  -0.097   0.132
    1UNL     C7    8   0.072  -0.052  -0.008
    1UNL     C8    9   0.069  -0.172  -0.098
    1UNL     N2   10   0.186  -0.215  -0.117
    1UNL     C9   11   0.282  -0.113  -0.091
    1UNL    C10   12   0.418  -0.101  -0.119
    1UNL    C11   13   0.485   0.011  -0.072
    1UNL    C12   14   0.422   0.110   0.006
    1UNL    C13   15   0.294   0.090   0.044
    1UNL    C14   16   0.226  -0.015  -0.012
    1UNL    C15   17  -0.065  -0.228  -0.131
    1UNL    C16   18  -0.144  -0.126  -0.213
    1UNL    C17   19  -0.155  -0.001  -0.119
    1UNL    C18   20  -0.015   0.064  -0.076
    1UNL    C19   21   0.059   0.120  -0.197
    1UNL     O1   22  -0.006   0.207  -0.282
    1UNL    C20   23  -0.036   0.184   0.015
    1UNL     O2   24  -0.105   0.278  -0.030
    1UNL     O3   25   0.011   0.183   0.144
    1UNL    C21   26  -0.035   0.291   0.215
    1UNL     H1   27  -0.447  -0.003   0.190
    1UNL     H2   28  -0.356   0.132   0.269
    1UNL     H3   29  -0.299  -0.037   0.278
    1UNL     H4   30  -0.260   0.156   0.064
    1UNL     H5   31  -0.276  -0.210   0.142
    1UNL     H6   32  -0.328  -0.230  -0.012
    1UNL     H7   33  -0.068  -0.277   0.204
    1UNL     H8   34   0.059  -0.317   0.085
    1UNL     H9   35   0.112  -0.091   0.196
    1UNL    H10   36  -0.049  -0.026   0.164
    1UNL    H11   37   0.477  -0.167  -0.183
    1UNL    H12   38   0.584   0.033  -0.096
    1UNL    H13   39   0.480   0.190   0.043
    1UNL    H14   40   0.251   0.152   0.126
    1UNL    H15   41  -0.049  -0.329  -0.181
    1UNL    H16   42  -0.244  -0.157  -0.258
    1UNL    H17   43  -0.081  -0.097  -0.300
    1UNL    H18   44  -0.196   0.082  -0.179
    1UNL    H19   45   0.097   0.038  -0.253
    1UNL    H20   46   0.160   0.171  -0.168
    1UNL    H21   47  -0.057   0.257  -0.219
    1UNL    H22   48  -0.021   0.386   0.156
    1UNL    H23   49  -0.136   0.279   0.225
    1UNL    H24   50   0.019   0.307   0.304
   0.00000   0.00000   0.00000   0.00000   0.00000   0.00000   0.00000   0.00000   0.00000
Generated with MDTraj, t= 85.0
 50
    1UNL     C1    1  -0.405   0.036   0.175
    1UNL     C2    2  -0.309   0.057   0.065
    1UNL     C3    3  -0.245  -0.036  -0.003
    1UNL     C4    4  -0.255  -0.180   0.043
    1UNL     N1    5  -0.128  -0.245   0.031
    1UNL     C5    6  -0.028  -0.228   0.139
    1UNL     C6    7   0.047  -0.096   0.135
    1UNL     C7    8   0.091  -0.048  -0.006
    1UNL     C8    9   0.081  -0.175  -0.095
    1UNL     N2   10   0.192  -0.200  -0.152
    1UNL     C9   11   0.288  -0.103  -0.111
    1UNL    C10   12   0.424  -0.097  -0.142
    1UNL    C11   13   0.500   0.001  -0.091
    1UNL    C12   14   0.449   0.096  -0.005
    1UNL    C13   15   0.315   0.097   0.032
    1UNL    C14   16   0.235  -0.009  -0.020
    1UNL    C15   17  -0.059  -0.234  -0.107
    1UNL    C16   18  -0.136  -0.129  -0.198
    1UNL    C17   19  -0.151   0.000  -0.116
    1UNL    C18   20  -0.002   0.062  -0.068
    1UNL    C19   21   0.061   0.114  -0.194
    1UNL     O1   22  -0.019   0.201  -0.263
    1UNL    C20   23  -0.022   0.177   0.029
    1UNL     O2   24  -0.092   0.266  -0.019
    1UNL     O3   25   0.005   0.176   0.159
    1UNL    C21   26  -0.066   0.277   0.222
    1UNL     H1   27  -0.502   0.039   0.143
    1UNL     H2   28  -0.395   0.116   0.253
    1UNL     H3   29  -0.388  -0.057   0.234
    1UNL     H4   30  -0.283   0.162   0.040
    1UNL     H5   31  -0.300  -0.182   0.142
    1UNL     H6   32  -0.327  -0.234  -0.016
    1UNL     H7   33  -0.095  -0.239   0.224
    1UNL     H8   34   0.038  -0.318   0.131
    1UNL     H9   35   0.126  -0.100   0.203
    1UNL    H10   36  -0.019  -0.018   0.171
    1UNL    H11   37   0.468  -0.168  -0.208
    1UNL    H12   38   0.608   0.014  -0.121
    1UNL    H13   39   0.521   0.168   0.043
    1UNL    H14   40   0.273   0.151   0.111
    1UNL    H15   41  -0.049  -0.337  -0.154
    1UNL    H16   42  -0.245  -0.155  -0.223
    1UNL    H17   43  -0.076  -0.106  -0.288
    1UNL    H18   44  -0.196   0.088  -0.165
    1UNL    H19   45   0.081   0.034  -0.263
    1UNL    H20   46   0.169   0.157  -0.176
    1UNL    H21   47  -0.053   0.263  -0.190
    1UNL    H22   48  -0.052   0.375   0.168
    1UNL    H23   49  -0.166   0.252   0.214
    1UNL    H24   50  -0.028   0.296   0.319
   0.00000   0.00000   0.00000   0.00000   0.00000   0.00000   0.00000   0.00000   0.00000
Generated with MDTraj, t= 86.0
 50
    1UNL     C1    1  -0.445   0.037   0.120
    1UNL     C2    2  -0.334   0.062   0.026
    1UNL     C3    3  -0.237  -0.026   0.008
    1UNL     C4    4  -0.237  -0.168   0.066
    1UNL     N1    5  -0.118  -0.247   0.033
    1UNL     C5    6  -0.002  -0.233   0.135
    1UNL     C6    7   0.044  -0.089   0.140
    1UNL     C7    8   0.088  -0.044  -0.004
    1UNL     C8    9   0.080  -0.166  -0.092
    1UNL     N2   10   0.189  -0.195  -0.153
    1UNL     C9   11   0.291  -0.106  -0.105
    1UNL    C10   12   0.423  -0.096  -0.148
    1UNL    C11   13   0.506  -0.001  -0.095
    1UNL    C12   14   0.458   0.085   0.002
    1UNL    C13   15   0.323   0.085   0.035
    1UNL    C14   16   0.239  -0.017  -0.014
    1UNL    C15   17  -0.057  -0.231  -0.105
    1UNL    C16   18  -0.136  -0.140  -0.189
    1UNL    C17   19  -0.152  -0.008  -0.114
    1UNL    C18   20  -0.013   0.061  -0.068
    1UNL    C19   21   0.048   0.128  -0.192
    1UNL     O1   22  -0.051   0.207  -0.260
    1UNL    C20   23  -0.041   0.172   0.032
    1UNL     O2   24  -0.098   0.273  -0.008
    1UNL     O3   25   0.000   0.157   0.168
    1UNL    C21   26  -0.001   0.279   0.230
    1UNL     H1   27  -0.488  -0.062   0.100
    1UNL     H2   28  -0.519   0.105   0.117
    1UNL     H3   29  -0.401   0.033   0.222
    1UNL     H4   30  -0.328   0.152  -0.032
    1UNL     H5   31  -0.230  -0.151   0.170
    1UNL     H6   32  -0.331  -0.222   0.046
    1UNL     H7   33  -0.031  -0.277   0.230
    1UNL     H8   34   0.074  -0.298   0.085
    1UNL     H9   35   0.132  -0.082   0.199
    1UNL    H10   36  -0.024  -0.031   0.193
    1UNL    H11   37   0.452  -0.158  -0.232
    1UNL    H12   38   0.602   0.001  -0.137
    1UNL    H13   39   0.525   0.146   0.051
    1UNL    H14   40   0.286   0.158   0.110
    1UNL    H15   41  -0.049  -0.335  -0.152
    1UNL    H16   42  -0.242  -0.186  -0.204
    1UNL    H17   43  -0.080  -0.108  -0.279
    1UNL    H18   44  -0.198   0.061  -0.185
    1UNL    H19   45   0.095   0.055  -0.258
    1UNL    H20   46   0.138   0.199  -0.164
    1UNL    H21   47  -0.085   0.277  -0.205
    1UNL    H22   48   0.069   0.350   0.175
    1UNL    H23   49  -0.101   0.318   0.221
    1UNL    H24   50   0.043   0.273   0.328
   0.00000   0.00000   0.00000   0.00000   0.00000   0.00000   0.00000   0.00000   0.00000
Generated with MDTraj, t= 87.0
 50
    1UNL     C1    1  -0.465   0.010   0.126
    1UNL     C2    2  -0.364   0.041   0.026
    1UNL     C3    3  -0.256  -0.034   0.003
    1UNL     C4    4  -0.236  -0.170   0.069
    1UNL     N1    5  -0.112  -0.243   0.034
    1UNL     C5    6  -0.007  -0.235   0.143
    1UNL     C6    7   0.054  -0.097   0.141
    1UNL     C7    8   0.087  -0.054  -0.006
    1UNL     C8    9   0.080  -0.174  -0.107
    1UNL     N2   10   0.192  -0.211  -0.158
    1UNL     C9   11   0.284  -0.112  -0.117
    1UNL    C10   12   0.420  -0.105  -0.138
    1UNL    C11   13   0.495  -0.001  -0.071
    1UNL    C12   14   0.435   0.099   0.003
    1UNL    C13   15   0.301   0.085   0.028
    1UNL    C14   16   0.232  -0.022  -0.025
    1UNL    C15   17  -0.059  -0.233  -0.112
    1UNL    C16   18  -0.143  -0.129  -0.189
    1UNL    C17   19  -0.158   0.005  -0.102
    1UNL    C18   20  -0.012   0.062  -0.065
    1UNL    C19   21   0.063   0.123  -0.193
    1UNL     O1   22  -0.015   0.231  -0.252
    1UNL    C20   23  -0.031   0.180   0.036
    1UNL     O2   24  -0.116   0.260   0.006
    1UNL     O3   25   0.063   0.199   0.134
    1UNL    C21   26   0.018   0.296   0.226
    1UNL     H1   27  -0.452  -0.099   0.154
    1UNL     H2   28  -0.560   0.025   0.090
    1UNL     H3   29  -0.446   0.069   0.213
    1UNL     H4   30  -0.376   0.130  -0.034
    1UNL     H5   31  -0.256  -0.167   0.174
    1UNL     H6   32  -0.315  -0.234   0.024
    1UNL     H7   33  -0.059  -0.252   0.238
    1UNL     H8   34   0.064  -0.318   0.122
    1UNL     H9   35   0.147  -0.102   0.192
    1UNL    H10   36   0.007  -0.028   0.201
    1UNL    H11   37   0.467  -0.170  -0.209
    1UNL    H12   38   0.604   0.004  -0.085
    1UNL    H13   39   0.498   0.178   0.054
    1UNL    H14   40   0.254   0.165   0.079
    1UNL    H15   41  -0.064  -0.338  -0.156
    1UNL    H16   42  -0.252  -0.166  -0.197
    1UNL    H17   43  -0.096  -0.101  -0.285
    1UNL    H18   44  -0.200   0.081  -0.168
    1UNL    H19   45   0.095   0.053  -0.270
    1UNL    H20   46   0.163   0.171  -0.154
    1UNL    H21   47  -0.063   0.286  -0.182
    1UNL    H22   48   0.070   0.394   0.209
    1UNL    H23   49  -0.089   0.312   0.210
    1UNL    H24   50   0.048   0.261   0.326
   0.00000   0.00000   0.00000   0.00000   0.00000   0.00000   0.00000   0.00000   0.00000
Generated with MDTraj, t= 88.0
 50
    1UNL     C1    1  -0.454   0.027   0.140
    1UNL     C2    2  -0.338   0.042   0.049
    1UNL     C3    3  -0.246  -0.043  -0.003
    1UNL     C4    4  -0.242  -0.191   0.020
    1UNL     N1    5  -0.113  -0.258   0.023
    1UNL     C5    6  -0.027  -0.231   0.145
    1UNL     C6    7   0.037  -0.092   0.143
    1UNL     C7    8   0.087  -0.042  -0.002
    1UNL     C8    9   0.084  -0.170  -0.096
    1UNL     N2   10   0.198  -0.211  -0.135
    1UNL     C9   11   0.295  -0.117  -0.098
    1UNL    C10   12   0.429  -0.121  -0.133
    1UNL    C11   13   0.503  -0.013  -0.090
    1UNL    C12   14   0.453   0.083   0.000
    1UNL    C13   15   0.317   0.084   0.036
    1UNL    C14   16   0.238  -0.015  -0.014
    1UNL    C15   17  -0.049  -0.229  -0.110
    1UNL    C16   18  -0.130  -0.131  -0.199
    1UNL    C17   19  -0.154   0.003  -0.114
    1UNL    C18   20  -0.016   0.065  -0.064
    1UNL    C19   21   0.042   0.146  -0.184
    1UNL     O1   22  -0.045   0.239  -0.239
    1UNL    C20   23  -0.049   0.179   0.036
    1UNL     O2   24  -0.144   0.250   0.019
    1UNL     O3   25   0.054   0.193   0.125
    1UNL    C21   26   0.041   0.319   0.194
    1UNL     H1   27  -0.480  -0.079   0.159
    1UNL     H2   28  -0.549   0.074   0.102
    1UNL     H3   29  -0.437   0.066   0.233
    1UNL     H4   30  -0.327   0.144   0.009
    1UNL     H5   31  -0.286  -0.211   0.115
    1UNL     H6   32  -0.307  -0.245  -0.055
    1UNL     H7   33  -0.093  -0.251   0.233
    1UNL     H8   34   0.059  -0.302   0.144
    1UNL     H9   35   0.117  -0.090   0.212
    1UNL    H10   36  -0.023  -0.023   0.192
    1UNL    H11   37   0.468  -0.199  -0.197
    1UNL    H12   38   0.607  -0.000  -0.125
    1UNL    H13   39   0.507   0.163   0.040
    1UNL    H14   40   0.265   0.159   0.093
    1UNL    H15   41  -0.032  -0.324  -0.172
    1UNL    H16   42  -0.234  -0.173  -0.219
    1UNL    H17   43  -0.075  -0.112  -0.293
    1UNL    H18   44  -0.203   0.078  -0.176
    1UNL    H19   45   0.054   0.067  -0.258
    1UNL    H20   46   0.145   0.201  -0.171
    1UNL    H21   47  -0.098   0.272  -0.165
    1UNL    H22   48  -0.014   0.391   0.131
    1UNL    H23   49  -0.026   0.309   0.284
    1UNL    H24   50   0.145   0.357   0.216
   0.00000   0.00000   0.00000   0.00000   0.00000   0.00000   0.00000   0.00000   0.00000
Generated with MDTraj, t= 89.0
 50
    1UNL     C1    1  -0.414   0.025   0.168
    1UNL     C2    2  -0.324   0.060   0.055
    1UNL     C3    3  -0.235  -0.030   0.005
    1UNL     C4    4  -0.244  -0.178   0.039
    1UNL     N1    5  -0.114  -0.254   0.014
    1UNL     C5    6  -0.014  -0.241   0.124
    1UNL     C6    7   0.038  -0.096   0.138
    1UNL     C7    8   0.080  -0.053  -0.009
    1UNL     C8    9   0.078  -0.169  -0.106
    1UNL     N2   10   0.194  -0.199  -0.149
    1UNL     C9   11   0.287  -0.113  -0.091
    1UNL    C10   12   0.423  -0.115  -0.112
    1UNL    C11   13   0.498  -0.013  -0.055
    1UNL    C12   14   0.434   0.095   0.015
    1UNL    C13   15   0.296   0.097   0.036
    1UNL    C14   16   0.229  -0.013  -0.013
    1UNL    C15   17  -0.057  -0.232  -0.125
    1UNL    C16   18  -0.142  -0.131  -0.201
    1UNL    C17   19  -0.150   0.004  -0.115
    1UNL    C18   20  -0.010   0.064  -0.072
    1UNL    C19   21   0.046   0.123  -0.200
    1UNL     O1   22  -0.031   0.217  -0.264
    1UNL    C20   23  -0.044   0.179   0.025
    1UNL     O2   24  -0.148   0.238   0.021
    1UNL     O3   25   0.055   0.199   0.124
    1UNL    C21   26   0.029   0.311   0.198
    1UNL     H1   27  -0.491  -0.042   0.142
    1UNL     H2   28  -0.465   0.114   0.223
    1UNL     H3   29  -0.362  -0.026   0.243
    1UNL     H4   30  -0.329   0.154   0.011
    1UNL     H5   31  -0.269  -0.193   0.142
    1UNL     H6   32  -0.322  -0.226  -0.025
    1UNL     H7   33  -0.059  -0.272   0.220
    1UNL     H8   34   0.065  -0.313   0.095
    1UNL     H9   35   0.120  -0.099   0.204
    1UNL    H10   36  -0.020  -0.026   0.193
    1UNL    H11   37   0.464  -0.201  -0.164
    1UNL    H12   38   0.598  -0.009  -0.075
    1UNL    H13   39   0.495   0.181   0.046
    1UNL    H14   40   0.246   0.181   0.089
    1UNL    H15   41  -0.055  -0.332  -0.181
    1UNL    H16   42  -0.243  -0.174  -0.227
    1UNL    H17   43  -0.095  -0.104  -0.299
    1UNL    H18   44  -0.201   0.073  -0.185
    1UNL    H19   45   0.077   0.052  -0.276
    1UNL    H20   46   0.139   0.178  -0.160
    1UNL    H21   47  -0.075   0.265  -0.187
    1UNL    H22   48  -0.067   0.358   0.175
    1UNL    H23   49   0.020   0.283   0.310
    1UNL    H24   50   0.116   0.379   0.178
   0.00000   0.00000   0.00000   0.00000   0.00000   0.00000   0.00000   0.00000   0.00000
Generated with MDTraj, t= 90.0
 50
    1UNL     C1    1  -0.392   0.005   0.195
    1UNL     C2    2  -0.317   0.048   0.079
    1UNL     C3    3  -0.241  -0.039   0.010
    1UNL     C4    4  -0.250  -0.184   0.034
    1UNL     N1    5  -0.118  -0.256   0.024
    1UNL     C5    6  -0.018  -0.235   0.129
    1UNL     C6    7   0.043  -0.088   0.130
    1UNL     C7    8   0.082  -0.046  -0.016
    1UNL     C8    9   0.074  -0.163  -0.106
    1UNL     N2   10   0.187  -0.196  -0.157
    1UNL     C9   11   0.285  -0.108  -0.098
    1UNL    C10   12   0.423  -0.103  -0.117
    1UNL    C11   13   0.494  -0.010  -0.044
    1UNL    C12   14   0.436   0.089   0.038
    1UNL    C13   15   0.296   0.086   0.051
    1UNL    C14   16   0.228  -0.012  -0.017
    1UNL    C15   17  -0.057  -0.236  -0.123
    1UNL    C16   18  -0.142  -0.130  -0.197
    1UNL    C17   19  -0.157   0.000  -0.106
    1UNL    C18   20  -0.012   0.069  -0.082
    1UNL    C19   21   0.039   0.111  -0.224
    1UNL     O1   22  -0.037   0.217  -0.275
    1UNL    C20   23  -0.022   0.194   0.009
    1UNL     O2   24  -0.083   0.288  -0.027
    1UNL     O3   25   0.025   0.183   0.138
    1UNL    C21   26  -0.009   0.296   0.211
    1UNL     H1   27  -0.491  -0.005   0.170
    1UNL     H2   28  -0.382   0.078   0.282
    1UNL     H3   29  -0.352  -0.094   0.233
    1UNL     H4   30  -0.327   0.157   0.050
    1UNL     H5   31  -0.297  -0.209   0.126
    1UNL     H6   32  -0.317  -0.232  -0.044
    1UNL     H7   33  -0.074  -0.264   0.223
    1UNL     H8   34   0.065  -0.305   0.120
    1UNL     H9   35   0.124  -0.082   0.195
    1UNL    H10   36  -0.020  -0.017   0.179
    1UNL    H11   37   0.463  -0.181  -0.178
    1UNL    H12   38   0.609  -0.016  -0.053
    1UNL    H13   39   0.498   0.166   0.086
    1UNL    H14   40   0.236   0.145   0.112
    1UNL    H15   41  -0.041  -0.337  -0.177
    1UNL    H16   42  -0.238  -0.174  -0.237
    1UNL    H17   43  -0.094  -0.098  -0.294
    1UNL    H18   44  -0.224   0.070  -0.159
    1UNL    H19   45   0.034   0.025  -0.292
    1UNL    H20   46   0.149   0.139  -0.227
    1UNL    H21   47  -0.061   0.282  -0.207
    1UNL    H22   48  -0.113   0.298   0.237
    1UNL    H23   49   0.049   0.300   0.311
    1UNL    H24   50   0.022   0.381   0.149
   0.00000   0.00000   0.00000   0.00000   0.00000   0.00000   0.00000   0.00000   0.00000
Generated with MDTraj, t= 91.0
 50
    1UNL     C1    1  -0.358   0.035   0.222
    1UNL     C2    2  -0.287   0.053   0.093
    1UNL     C3    3  -0.228  -0.039   0.011
    1UNL     C4    4  -0.248  -0.186   0.022
    1UNL     N1    5  -0.124  -0.260   0.005
    1UNL     C5    6  -0.023  -0.252   0.112
    1UNL     C6    7   0.032  -0.105   0.133
    1UNL     C7    8   0.080  -0.041  -0.007
    1UNL     C8    9   0.074  -0.166  -0.100
    1UNL     N2   10   0.192  -0.193  -0.152
    1UNL     C9   11   0.288  -0.110  -0.093
    1UNL    C10   12   0.424  -0.106  -0.119
    1UNL    C11   13   0.503  -0.004  -0.066
    1UNL    C12   14   0.447   0.085   0.031
    1UNL    C13   15   0.310   0.079   0.060
    1UNL    C14   16   0.230  -0.010  -0.014
    1UNL    C15   17  -0.063  -0.217  -0.127
    1UNL    C16   18  -0.138  -0.108  -0.202
    1UNL    C17   19  -0.151   0.011  -0.114
    1UNL    C18   20  -0.011   0.072  -0.076
    1UNL    C19   21   0.058   0.110  -0.212
    1UNL     O1   22  -0.044   0.166  -0.301
    1UNL    C20   23  -0.043   0.198   0.013
    1UNL     O2   24  -0.072   0.303  -0.034
    1UNL     O3   25  -0.041   0.174   0.148
    1UNL    C21   26  -0.039   0.297   0.224
    1UNL     H1   27  -0.382  -0.070   0.238
    1UNL     H2   28  -0.451   0.088   0.233
    1UNL     H3   29  -0.286   0.068   0.309
    1UNL     H4   30  -0.277   0.152   0.063
    1UNL     H5   31  -0.272  -0.203   0.126
    1UNL     H6   32  -0.331  -0.235  -0.036
    1UNL     H7   33  -0.063  -0.285   0.212
    1UNL     H8   34   0.055  -0.325   0.090
    1UNL     H9   35   0.101  -0.101   0.210
    1UNL    H10   36  -0.050  -0.048   0.180
    1UNL    H11   37   0.461  -0.180  -0.192
    1UNL    H12   38   0.604  -0.002  -0.084
    1UNL    H13   39   0.501   0.155   0.087
    1UNL    H14   40   0.257   0.143   0.133
    1UNL    H15   41  -0.050  -0.310  -0.192
    1UNL    H16   42  -0.233  -0.153  -0.238
    1UNL    H17   43  -0.084  -0.088  -0.302
    1UNL    H18   44  -0.218   0.090  -0.154
    1UNL    H19   45   0.102   0.018  -0.258
    1UNL    H20   46   0.143   0.181  -0.197
    1UNL    H21   47  -0.086   0.253  -0.274
    1UNL    H22   48  -0.133   0.317   0.262
    1UNL    H23   49   0.033   0.291   0.314
    1UNL    H24   50  -0.007   0.373   0.156
   0.00000   0.00000   0.00000   0.00000   0.00000   0.00000   0.00000   0.00000   0.00000
Generated with MDTraj, t= 92.0
 50
    1UNL     C1    1  -0.352   0.037   0.211
    1UNL     C2    2  -0.286   0.060   0.089
    1UNL     C3    3  -0.236  -0.038   0.014
    1UNL     C4    4  -0.247  -0.184   0.041
    1UNL     N1    5  -0.125  -0.261   0.016
    1UNL     C5    6  -0.026  -0.244   0.120
    1UNL     C6    7   0.035  -0.103   0.125
    1UNL     C7    8   0.081  -0.053  -0.016
    1UNL     C8    9   0.077  -0.178  -0.103
    1UNL     N2   10   0.191  -0.204  -0.161
    1UNL     C9   11   0.281  -0.107  -0.110
    1UNL    C10   12   0.420  -0.100  -0.122
    1UNL    C11   13   0.493  -0.004  -0.047
    1UNL    C12   14   0.421   0.099   0.022
    1UNL    C13   15   0.285   0.081   0.047
    1UNL    C14   16   0.223  -0.017  -0.024
    1UNL    C15   17  -0.060  -0.235  -0.128
    1UNL    C16   18  -0.139  -0.121  -0.191
    1UNL    C17   19  -0.149   0.006  -0.106
    1UNL    C18   20  -0.014   0.066  -0.074
    1UNL    C19   21   0.057   0.109  -0.211
    1UNL     O1   22  -0.015   0.214  -0.278
    1UNL    C20   23  -0.032   0.189   0.013
    1UNL     O2   24  -0.061   0.295  -0.035
    1UNL     O3   25  -0.006   0.176   0.149
    1UNL    C21   26  -0.061   0.287   0.207
    1UNL     H1   27  -0.277  -0.001   0.297
    1UNL     H2   28  -0.428  -0.038   0.210
    1UNL     H3   29  -0.397   0.133   0.248
    1UNL     H4   30  -0.259   0.161   0.049
    1UNL     H5   31  -0.290  -0.218   0.136
    1UNL     H6   32  -0.324  -0.215  -0.030
    1UNL     H7   33  -0.066  -0.270   0.222
    1UNL     H8   34   0.054  -0.315   0.107
    1UNL     H9   35   0.117  -0.104   0.192
    1UNL    H10   36  -0.039  -0.039   0.174
    1UNL    H11   37   0.471  -0.168  -0.184
    1UNL    H12   38   0.603  -0.010  -0.041
    1UNL    H13   39   0.476   0.189   0.064
    1UNL    H14   40   0.226   0.150   0.105
    1UNL    H15   41  -0.064  -0.330  -0.193
    1UNL    H16   42  -0.232  -0.161  -0.238
    1UNL    H17   43  -0.086  -0.100  -0.292
    1UNL    H18   44  -0.208   0.084  -0.158
    1UNL    H19   45   0.080   0.025  -0.281
    1UNL    H20   46   0.149   0.150  -0.172
    1UNL    H21   47  -0.048   0.279  -0.212
    1UNL    H22   48  -0.147   0.314   0.159
    1UNL    H23   49  -0.094   0.250   0.308
    1UNL    H24   50   0.011   0.366   0.213
   0.00000   0.00000   0.00000   0.00000   0.00000   0.00000   0.00000   0.00000   0.00000
Generated with MDTraj, t= 93.0
 50
    1UNL     C1    1  -0.399   0.041   0.196
    1UNL     C2    2  -0.328   0.050   0.067
    1UNL     C3    3  -0.249  -0.040   0.003
    1UNL     C4    4  -0.248  -0.183   0.037
    1UNL     N1    5  -0.117  -0.251   0.012
    1UNL     C5    6  -0.018  -0.242   0.127
    1UNL     C6    7   0.020  -0.097   0.134
    1UNL     C7    8   0.077  -0.044  -0.008
    1UNL     C8    9   0.075  -0.160  -0.096
    1UNL     N2   10   0.191  -0.199  -0.136
    1UNL     C9   11   0.295  -0.113  -0.087
    1UNL    C10   12   0.428  -0.106  -0.126
    1UNL    C11   13   0.503  -0.000  -0.075
    1UNL    C12   14   0.448   0.092   0.015
    1UNL    C13   15   0.308   0.089   0.036
    1UNL    C14   16   0.229  -0.012  -0.014
    1UNL    C15   17  -0.058  -0.224  -0.123
    1UNL    C16   18  -0.136  -0.123  -0.205
    1UNL    C17   19  -0.155  -0.002  -0.111
    1UNL    C18   20  -0.015   0.065  -0.078
    1UNL    C19   21   0.054   0.122  -0.200
    1UNL     O1   22  -0.026   0.209  -0.273
    1UNL    C20   23  -0.042   0.182   0.015
    1UNL     O2   24  -0.088   0.291  -0.023
    1UNL     O3   25  -0.006   0.155   0.147
    1UNL    C21   26   0.010   0.281   0.213
    1UNL     H1   27  -0.333   0.083   0.280
    1UNL     H2   28  -0.414  -0.068   0.225
    1UNL     H3   29  -0.495   0.091   0.191
    1UNL     H4   30  -0.313   0.150   0.036
    1UNL     H5   31  -0.276  -0.191   0.143
    1UNL     H6   32  -0.317  -0.252  -0.010
    1UNL     H7   33  -0.048  -0.284   0.228
    1UNL     H8   34   0.071  -0.300   0.107
    1UNL     H9   35   0.097  -0.082   0.209
    1UNL    H10   36  -0.070  -0.042   0.163
    1UNL    H11   37   0.459  -0.189  -0.193
    1UNL    H12   38   0.612   0.000  -0.103
    1UNL    H13   39   0.505   0.170   0.052
    1UNL    H14   40   0.257   0.162   0.095
    1UNL    H15   41  -0.049  -0.321  -0.184
    1UNL    H16   42  -0.228  -0.170  -0.246
    1UNL    H17   43  -0.080  -0.108  -0.305
    1UNL    H18   44  -0.218   0.078  -0.158
    1UNL    H19   45   0.066   0.036  -0.269
    1UNL    H20   46   0.143   0.175  -0.172
    1UNL    H21   47  -0.057   0.277  -0.213
    1UNL    H22   48  -0.066   0.345   0.189
    1UNL    H23   49   0.004   0.266   0.324
    1UNL    H24   50   0.104   0.323   0.188
   0.00000   0.00000   0.00000   0.00000   0.00000   0.00000   0.00000   0.00000   0.00000
Generated with MDTraj, t= 94.0
 50
    1UNL     C1    1  -0.453   0.029   0.137
    1UNL     C2    2  -0.327   0.060   0.062
    1UNL     C3    3  -0.242  -0.032   0.012
    1UNL     C4    4  -0.243  -0.177   0.040
    1UNL     N1    5  -0.116  -0.250   0.016
    1UNL     C5    6  -0.015  -0.242   0.123
    1UNL     C6    7   0.047  -0.101   0.133
    1UNL     C7    8   0.085  -0.054  -0.010
    1UNL     C8    9   0.079  -0.180  -0.099
    1UNL     N2   10   0.192  -0.204  -0.150
    1UNL     C9   11   0.288  -0.114  -0.100
    1UNL    C10   12   0.423  -0.105  -0.134
    1UNL    C11   13   0.497  -0.010  -0.063
    1UNL    C12   14   0.432   0.092   0.012
    1UNL    C13   15   0.294   0.094   0.033
    1UNL    C14   16   0.230  -0.019  -0.016
    1UNL    C15   17  -0.059  -0.235  -0.121
    1UNL    C16   18  -0.137  -0.115  -0.198
    1UNL    C17   19  -0.149   0.011  -0.102
    1UNL    C18   20  -0.008   0.059  -0.067
    1UNL    C19   21   0.052   0.123  -0.187
    1UNL     O1   22  -0.040   0.202  -0.259
    1UNL    C20   23  -0.021   0.179   0.034
    1UNL     O2   24  -0.115   0.255   0.011
    1UNL     O3   25   0.059   0.199   0.139
    1UNL    C21   26   0.013   0.312   0.204
    1UNL     H1   27  -0.430  -0.042   0.215
    1UNL     H2   28  -0.526  -0.034   0.067
    1UNL     H3   29  -0.506   0.118   0.170
    1UNL     H4   30  -0.297   0.164   0.043
    1UNL     H5   31  -0.271  -0.210   0.143
    1UNL     H6   32  -0.328  -0.217  -0.014
    1UNL     H7   33  -0.071  -0.273   0.216
    1UNL     H8   34   0.056  -0.323   0.123
    1UNL     H9   35   0.135  -0.101   0.201
    1UNL    H10   36  -0.026  -0.031   0.170
    1UNL    H11   37   0.468  -0.180  -0.193
    1UNL    H12   38   0.598  -0.008  -0.071
    1UNL    H13   39   0.489   0.180   0.050
    1UNL    H14   40   0.237   0.177   0.079
    1UNL    H15   41  -0.054  -0.338  -0.171
    1UNL    H16   42  -0.231  -0.161  -0.237
    1UNL    H17   43  -0.079  -0.094  -0.294
    1UNL    H18   44  -0.199   0.097  -0.152
    1UNL    H19   45   0.084   0.046  -0.261
    1UNL    H20   46   0.123   0.192  -0.149
    1UNL    H21   47  -0.091   0.258  -0.191
    1UNL    H22   48  -0.080   0.294   0.252
    1UNL    H23   49   0.095   0.335   0.278
    1UNL    H24   50   0.004   0.394   0.134
   0.00000   0.00000   0.00000   0.00000   0.00000   0.00000   0.00000   0.00000   0.00000
Generated with MDTraj, t= 95.0
 50
    1UNL     C1    1  -0.445   0.000   0.143
    1UNL     C2    2  -0.357   0.036   0.026
    1UNL     C3    3  -0.253  -0.040  -0.010
    1UNL     C4    4  -0.243  -0.175   0.049
    1UNL     N1    5  -0.110  -0.237   0.025
    1UNL     C5    6  -0.018  -0.219   0.144
    1UNL     C6    7   0.033  -0.074   0.144
    1UNL     C7    8   0.085  -0.044  -0.006
    1UNL     C8    9   0.077  -0.170  -0.085
    1UNL     N2   10   0.183  -0.201  -0.139
    1UNL     C9   11   0.276  -0.103  -0.107
    1UNL    C10   12   0.409  -0.106  -0.148
    1UNL    C11   13   0.496  -0.020  -0.081
    1UNL    C12   14   0.451   0.069   0.019
    1UNL    C13   15   0.316   0.078   0.050
    1UNL    C14   16   0.234  -0.011  -0.016
    1UNL    C15   17  -0.049  -0.230  -0.108
    1UNL    C16   18  -0.131  -0.137  -0.197
    1UNL    C17   19  -0.157  -0.010  -0.120
    1UNL    C18   20  -0.020   0.061  -0.074
    1UNL    C19   21   0.052   0.126  -0.195
    1UNL     O1   22  -0.012   0.252  -0.231
    1UNL    C20   23  -0.032   0.178   0.022
    1UNL     O2   24  -0.138   0.243   0.027
    1UNL     O3   25   0.071   0.205   0.107
    1UNL    C21   26   0.034   0.300   0.200
    1UNL     H1   27  -0.492  -0.092   0.127
    1UNL     H2   28  -0.540   0.065   0.152
    1UNL     H3   29  -0.396   0.000   0.243
    1UNL     H4   30  -0.351   0.136  -0.016
    1UNL     H5   31  -0.284  -0.179   0.152
    1UNL     H6   32  -0.305  -0.246  -0.003
    1UNL     H7   33  -0.073  -0.242   0.239
    1UNL     H8   34   0.054  -0.297   0.147
    1UNL     H9   35   0.120  -0.053   0.213
    1UNL    H10   36  -0.048  -0.009   0.165
    1UNL    H11   37   0.449  -0.186  -0.210
    1UNL    H12   38   0.609  -0.027  -0.101
    1UNL    H13   39   0.517   0.136   0.066
    1UNL    H14   40   0.275   0.152   0.112
    1UNL    H15   41  -0.035  -0.336  -0.148
    1UNL    H16   42  -0.226  -0.190  -0.228
    1UNL    H17   43  -0.065  -0.122  -0.288
    1UNL    H18   44  -0.210   0.057  -0.193
    1UNL    H19   45   0.034   0.063  -0.283
    1UNL    H20   46   0.151   0.153  -0.176
    1UNL    H21   47  -0.025   0.304  -0.151
    1UNL    H22   48  -0.037   0.257   0.273
    1UNL    H23   49   0.128   0.342   0.241
    1UNL    H24   50  -0.018   0.380   0.142
   0.00000   0.00000   0.00000   0.00000   0.00000   0.00000   0.00000   0.00000   0.00000
Generated with MDTraj, t= 96.0
 50
    1UNL     C1    1  -0.461   0.050   0.120
    1UNL     C2    2  -0.335   0.061   0.045
    1UNL     C3    3  -0.250  -0.036   0.003
    1UNL     C4    4  -0.239  -0.180   0.045
    1UNL     N1    5  -0.111  -0.251   0.022
    1UNL     C5    6  -0.004  -0.243   0.129
    1UNL     C6    7   0.055  -0.106   0.134
    1UNL     C7    8   0.085  -0.047  -0.009
    1UNL     C8    9   0.082  -0.167  -0.097
    1UNL     N2   10   0.194  -0.202  -0.146
    1UNL     C9   11   0.292  -0.110  -0.105
    1UNL    C10   12   0.428  -0.113  -0.125
    1UNL    C11   13   0.507  -0.015  -0.076
    1UNL    C12   14   0.452   0.080   0.009
    1UNL    C13   15   0.316   0.084   0.033
    1UNL    C14   16   0.233  -0.009  -0.027
    1UNL    C15   17  -0.055  -0.234  -0.109
    1UNL    C16   18  -0.142  -0.131  -0.195
    1UNL    C17   19  -0.157  -0.004  -0.107
    1UNL    C18   20  -0.019   0.062  -0.061
    1UNL    C19   21   0.048   0.128  -0.181
    1UNL     O1   22  -0.044   0.223  -0.233
    1UNL    C20   23  -0.042   0.165   0.041
    1UNL     O2   24  -0.141   0.239   0.021
    1UNL     O3   25   0.053   0.197   0.130
    1UNL    C21   26   0.022   0.325   0.186
    1UNL     H1   27  -0.537   0.048   0.043
    1UNL     H2   28  -0.484   0.138   0.168
    1UNL     H3   29  -0.468  -0.038   0.191
    1UNL     H4   30  -0.312   0.159   0.011
    1UNL     H5   31  -0.243  -0.187   0.154
    1UNL     H6   32  -0.328  -0.235   0.016
    1UNL     H7   33  -0.060  -0.270   0.221
    1UNL     H8   34   0.072  -0.319   0.125
    1UNL     H9   35   0.158  -0.118   0.182
    1UNL    H10   36  -0.009  -0.038   0.186
    1UNL    H11   37   0.459  -0.204  -0.176
    1UNL    H12   38   0.609  -0.020  -0.096
    1UNL    H13   39   0.517   0.156   0.050
    1UNL    H14   40   0.270   0.158   0.097
    1UNL    H15   41  -0.040  -0.333  -0.161
    1UNL    H16   42  -0.244  -0.179  -0.215
    1UNL    H17   43  -0.090  -0.101  -0.290
    1UNL    H18   44  -0.210   0.079  -0.163
    1UNL    H19   45   0.062   0.060  -0.265
    1UNL    H20   46   0.130   0.187  -0.151
    1UNL    H21   47  -0.063   0.284  -0.156
    1UNL    H22   48  -0.087   0.327   0.217
    1UNL    H23   49   0.096   0.356   0.259
    1UNL    H24   50   0.030   0.400   0.101
   0.00000   0.00000   0.00000   0.00000   0.00000   0.00000   0.00000   0.00000   0.00000
Generated with MDTraj, t= 97.0
 50
    1UNL     C1    1  -0.439  -0.004   0.153
    1UNL     C2    2  -0.340   0.046   0.050
    1UNL     C3    3  -0.250  -0.037  -0.001
    1UNL     C4    4  -0.237  -0.175   0.056
    1UNL     N1    5  -0.117  -0.245   0.022
    1UNL     C5    6  -0.012  -0.227   0.133
    1UNL     C6    7   0.038  -0.087   0.135
    1UNL     C7    8   0.079  -0.047  -0.012
    1UNL     C8    9   0.071  -0.172  -0.098
    1UNL     N2   10   0.186  -0.211  -0.135
    1UNL     C9   11   0.285  -0.114  -0.090
    1UNL    C10   12   0.419  -0.112  -0.117
    1UNL    C11   13   0.494  -0.006  -0.076
    1UNL    C12   14   0.434   0.095  -0.003
    1UNL    C13   15   0.302   0.086   0.038
    1UNL    C14   16   0.225  -0.017  -0.014
    1UNL    C15   17  -0.066  -0.226  -0.121
    1UNL    C16   18  -0.137  -0.117  -0.201
    1UNL    C17   19  -0.154   0.005  -0.113
    1UNL    C18   20  -0.010   0.069  -0.070
    1UNL    C19   21   0.061   0.129  -0.194
    1UNL     O1   22  -0.032   0.198  -0.278
    1UNL    C20   23  -0.024   0.185   0.030
    1UNL     O2   24  -0.095   0.282  -0.004
    1UNL     O3   25   0.050   0.184   0.141
    1UNL    C21   26   0.022   0.293   0.225
    1UNL     H1   27  -0.535   0.012   0.103
    1UNL     H2   28  -0.442   0.055   0.236
    1UNL     H3   29  -0.430  -0.109   0.183
    1UNL     H4   30  -0.351   0.145   0.000
    1UNL     H5   31  -0.262  -0.182   0.162
    1UNL     H6   32  -0.308  -0.243   0.008
    1UNL     H7   33  -0.035  -0.263   0.234
    1UNL     H8   34   0.061  -0.297   0.100
    1UNL     H9   35   0.130  -0.078   0.201
    1UNL    H10   36  -0.045  -0.023   0.167
    1UNL    H11   37   0.466  -0.188  -0.173
    1UNL    H12   38   0.598  -0.000  -0.100
    1UNL    H13   39   0.502   0.174   0.029
    1UNL    H14   40   0.257   0.167   0.096
    1UNL    H15   41  -0.069  -0.329  -0.169
    1UNL    H16   42  -0.241  -0.158  -0.231
    1UNL    H17   43  -0.075  -0.086  -0.288
    1UNL    H18   44  -0.207   0.082  -0.176
    1UNL    H19   45   0.108   0.050  -0.253
    1UNL    H20   46   0.122   0.208  -0.162
    1UNL    H21   47  -0.079   0.259  -0.218
    1UNL    H22   48  -0.092   0.311   0.230
    1UNL    H23   49   0.070   0.278   0.318
    1UNL    H24   50   0.068   0.388   0.182
   0.00000   0.00000   0.00000   0.00000   0.00000   0.00000   0.00000   0.00000   0.00000
Generated with MDTraj, t= 98.0
 50
    1UNL     C1    1  -0.413   0.033   0.179
    1UNL     C2    2  -0.309   0.058   0.075
    1UNL     C3    3  -0.248  -0.039   0.008
    1UNL     C4    4  -0.264  -0.186   0.055
    1UNL     N1    5  -0.133  -0.255   0.019
    1UNL     C5    6  -0.023  -0.237   0.126
    1UNL     C6    7   0.038  -0.098   0.129
    1UNL     C7    8   0.085  -0.048  -0.010
    1UNL     C8    9   0.075  -0.169  -0.103
    1UNL     N2   10   0.189  -0.195  -0.155
    1UNL     C9   11   0.291  -0.114  -0.098
    1UNL    C10   12   0.430  -0.103  -0.122
    1UNL    C11   13   0.498   0.010  -0.069
    1UNL    C12   14   0.440   0.102   0.013
    1UNL    C13   15   0.307   0.092   0.043
    1UNL    C14   16   0.233  -0.015  -0.013
    1UNL    C15   17  -0.060  -0.234  -0.115
    1UNL    C16   18  -0.141  -0.138  -0.199
    1UNL    C17   19  -0.155  -0.008  -0.108
    1UNL    C18   20  -0.015   0.060  -0.073
    1UNL    C19   21   0.045   0.106  -0.206
    1UNL     O1   22  -0.007   0.227  -0.267
    1UNL    C20   23  -0.029   0.178   0.017
    1UNL     O2   24  -0.073   0.282  -0.030
    1UNL     O3   25   0.010   0.171   0.146
    1UNL    C21   26  -0.017   0.292   0.209
    1UNL     H1   27  -0.452   0.129   0.213
    1UNL     H2   28  -0.380  -0.015   0.270
    1UNL     H3   29  -0.494  -0.020   0.149
    1UNL     H4   30  -0.305   0.153   0.033
    1UNL     H5   31  -0.272  -0.201   0.161
    1UNL     H6   32  -0.356  -0.234   0.017
    1UNL     H7   33  -0.076  -0.258   0.219
    1UNL     H8   34   0.055  -0.309   0.115
    1UNL     H9   35   0.132  -0.104   0.190
    1UNL    H10   36  -0.037  -0.026   0.173
    1UNL    H11   37   0.489  -0.163  -0.196
    1UNL    H12   38   0.607   0.026  -0.095
    1UNL    H13   39   0.496   0.182   0.055
    1UNL    H14   40   0.264   0.159   0.112
    1UNL    H15   41  -0.046  -0.340  -0.153
    1UNL    H16   42  -0.246  -0.176  -0.231
    1UNL    H17   43  -0.079  -0.111  -0.287
    1UNL    H18   44  -0.208   0.071  -0.169
    1UNL    H19   45   0.031   0.022  -0.272
    1UNL    H20   46   0.147   0.128  -0.186
    1UNL    H21   47  -0.036   0.287  -0.191
    1UNL    H22   48  -0.130   0.299   0.229
    1UNL    H23   49   0.040   0.294   0.296
    1UNL    H24   50   0.012   0.382   0.149
   0.00000   0.00000   0.00000   0.00000   0.00000   0.00000   0.00000   0.00000   0.00000
Generated with MDTraj, t= 99.0
 50
    1UNL     C1    1  -0.347   0.069   0.208
    1UNL     C2    2  -0.281   0.067   0.073
    1UNL     C3    3  -0.244  -0.037  -0.002
    1UNL     C4    4  -0.253  -0.180   0.041
    1UNL     N1    5  -0.130  -0.260   0.013
    1UNL     C5    6  -0.031  -0.245   0.128
    1UNL     C6    7   0.028  -0.100   0.137
    1UNL     C7    8   0.082  -0.053  -0.007
    1UNL     C8    9   0.079  -0.173  -0.103
    1UNL     N2   10   0.194  -0.188  -0.159
    1UNL     C9   11   0.290  -0.105  -0.095
    1UNL    C10   12   0.424  -0.099  -0.127
    1UNL    C11   13   0.494   0.008  -0.071
    1UNL    C12   14   0.438   0.090   0.018
    1UNL    C13   15   0.311   0.073   0.058
    1UNL    C14   16   0.230  -0.021  -0.002
    1UNL    C15   17  -0.056  -0.232  -0.122
    1UNL    C16   18  -0.130  -0.126  -0.211
    1UNL    C17   19  -0.156  -0.001  -0.121
    1UNL    C18   20  -0.013   0.062  -0.076
    1UNL    C19   21   0.065   0.125  -0.195
    1UNL     O1   22  -0.024   0.176  -0.292
    1UNL    C20   23  -0.044   0.183   0.016
    1UNL     O2   24  -0.119   0.269  -0.023
    1UNL     O3   25   0.001   0.181   0.144
    1UNL    C21   26  -0.043   0.292   0.226
    1UNL     H1   27  -0.289   0.137   0.267
    1UNL     H2   28  -0.344  -0.027   0.262
    1UNL     H3   29  -0.443   0.106   0.202
    1UNL     H4   30  -0.282   0.165   0.016
    1UNL     H5   31  -0.269  -0.181   0.146
    1UNL     H6   32  -0.338  -0.240   0.004
    1UNL     H7   33  -0.078  -0.286   0.218
    1UNL     H8   34   0.046  -0.311   0.094
    1UNL     H9   35   0.102  -0.088   0.219
    1UNL    H10   36  -0.064  -0.031   0.151
    1UNL    H11   37   0.463  -0.158  -0.204
    1UNL    H12   38   0.585   0.027  -0.112
    1UNL    H13   39   0.500   0.169   0.067
    1UNL    H14   40   0.272   0.133   0.143
    1UNL    H15   41  -0.038  -0.329  -0.177
    1UNL    H16   42  -0.233  -0.162  -0.249
    1UNL    H17   43  -0.072  -0.091  -0.300
    1UNL    H18   44  -0.204   0.084  -0.179
    1UNL    H19   45   0.109   0.041  -0.250
    1UNL    H20   46   0.131   0.200  -0.152
    1UNL    H21   47  -0.082   0.237  -0.249
    1UNL    H22   48  -0.145   0.322   0.188
    1UNL    H23   49  -0.044   0.264   0.325
    1UNL    H24   50   0.020   0.379   0.220
   0.00000   0.00000   0.00000   0.00000   0.00000   0.00000   0.00000   0.00000   0.00000
