[ moleculetype ]
; name        nrexcl
res           1

[ atoms ]
;    nr  type  resnr resid  atom  cgnr     charge       mass
      1 SC4       1 res   C1        1      0.000     54.000
      2 SN6       1 res   C2        2      0.000     54.000
      3 SN4a      1 res   C3        3      0.000     54.000
      4 TP1       1 res   C4        4      0.000     36.000
      5 SP4       1 res   C5        5      0.000     54.000
      6 TN6       1 res   C6        6      0.000     36.000
      7 SC2       1 res   C7        7      0.000     54.000
      8 SN6       1 res   C8        8      0.000     54.000
      9 SN4a      1 res   C9        9      0.000     54.000
     10 TP1       1 res   C10      10      0.000     36.000
     11 SP4       1 res   C11      11      0.000     54.000
     12 TN6       1 res   C12      12      0.000     36.000

[ constraints ]
;  ai    aj   funct      b0(nm)
    1     2     1      0.35378
    1     8     1      0.31389
    3     5     1      0.25910
   11    12     1      0.28043
    9    11     1      0.27600
    2     8     1      0.31895
    9    10     1      0.27629
    2     7     1      0.28402
    3     6     1      0.26394
    8     9     1      0.32804

[ bonds ]
;  ai    aj   funct      b0(nm)          k(kJ/mol/nm^2)
    2     3     1      0.32944           5413.7
    3     4     1      0.29474          18659.3
    5     6     1      0.29003          16698.4
    9    12     1      0.26003           6261.9

[ angles ]
;  ai    aj    ak  funct     th0(deg)        k(kJ/mol/rad^2)
    1     2     3     1     96.80516            32.09
    1     2     7     1    132.69251          1029.73
    1     2     8     1     55.33625          6544.40
    1     8     2     1     67.97377          6829.56
    1     8     9     1    102.48671           130.37
    2     1     8     1     56.68999         10175.89
    2     3     4     1    116.83749            59.84
    2     3     5     1    127.03056            93.18
    2     3     6     1     60.29640            92.19
    2     8     9     1    162.71337            74.03
    3     2     7     1    121.17738            17.78
    3     2     8     1    131.15260           201.74
    3     5     6     1     57.16727          1099.94
    3     6     5     1     55.54152          1384.34
    4     3     5     1     82.02259           269.77
    4     3     6     1    113.91311           143.38
    5     3     6     1     67.29089          1609.61
    7     2     8     1     77.99323          1005.92
    8     9    10     1    104.77816           396.28
    8     9    11     1     92.15571           328.81
    8     9    12     1     64.03477           433.74
    9    11    12     1     55.73404           396.95
    9    12    11     1     61.29889           871.74
   10     9    11     1     66.38662          1526.72
   10     9    12     1    126.92568           453.51
   11     9    12     1     62.96521          1044.92

[ dihedrals ]
;  ai    aj    ak    al  funct   phi0(deg)        k(kJ/mol)   mult
    1     2     3     4     1    162.03918       26.819      1
    1     2     3     5     1   -100.23700       31.377      1
    1     2     3     6     1    -95.20840       31.485      1
    1     2     8     9     1   -168.89225       25.266      1
    1     8     2     3     1    143.49404       17.891      1
    1     8     2     7     1      1.87888       14.983      1
    1     8     9    10     1    152.04269       24.267      1
    1     8     9    11     1     83.97700       25.317      1
    1     8     9    12     1     27.26864       27.308      1
    2     1     8     9     1      4.14726       21.760      1
    2     3     5     6     1   -175.28870       13.561      1
    2     3     6     5     1      4.82202       12.957      1
    2     8     9    10     1    142.82667       15.869      1
    2     8     9    11     1     80.82175       16.167      1
    2     8     9    12     1     13.10922       13.588      1
    3     2     1     8     1    -16.98889       21.985      1
    3     2     8     9     1   -148.62702       11.724      1
    4     3     2     7     1    -24.45726       17.085      1
    4     3     2     8     1    177.15811       19.838      1
    4     3     5     6     1    -59.10155       15.816      1
    4     3     6     5     1    110.10603       15.074      1
    5     3     2     7     1     67.67616       19.293      1
    5     3     2     8     1    -82.32451       23.399      1
    6     3     2     7     1     79.06125       20.514      1
    6     3     2     8     1    -78.81191       24.646      1
    7     2     1     8     1   -178.30484       17.050      1
    7     2     8     9     1     14.27868       23.122      1
    8     9    11    12     1    118.06242       10.733      1
    8     9    12    11     1    -72.65794       13.497      1
   10     9    11    12     1     16.11505       10.687      1
   10     9    12    11     1   -160.68950       11.398      1
