[ moleculetype ]
; name        nrexcl
res           1

[ atoms ]
;    nr  type  resnr resid  atom  cgnr     charge       mass
      1 TX1       1 res   C1        1      0.000     36.000
      2 TX3       1 res   C2        2      0.000     36.000
      3 TX3       1 res   C3        3      0.000     36.000
      4 TX3       1 res   C4        4      0.000     36.000
      5 TX3       1 res   C5        5      0.000     36.000
      6 TX3       1 res   C6        6      0.000     36.000

[ constraints ]
;  ai    aj   funct      b0(nm)
    1     2     1      0.22963
    2     3     1      0.21564
    4     5     1      0.22997
    3     4     1      0.22407
    5     6     1      0.22314
    1     6     1      0.22952

[ bonds ]
;  ai    aj   funct      b0(nm)          k(kJ/mol/nm^2)

[ angles ]
;  ai    aj    ak  funct     th0(deg)        k(kJ/mol/rad^2)
    1     2     3     1    101.71807           899.63
    1     6     5     1     95.54507          1298.66
    2     1     6     1    102.06544           981.96
    2     3     4     1     98.24424           469.59
    3     4     5     1     94.67773           678.63
    4     5     6     1     96.02375          1188.60

[ dihedrals ]
;  ai    aj    ak    al  funct   phi0(deg)        k(kJ/mol)   mult
    1     2     3     4     1   -104.01435        9.341      1
    1     6     5     4     1     98.89587        7.086      1
    2     1     6     5     1   -105.05903        8.558      1
    2     3     4     5     1     96.97223       10.078      1
    3     2     1     6     1    105.87912        7.799      1
    3     4     5     6     1    -91.01833        7.118      1
