[ moleculetype ]
; name        nrexcl
res           1

[ atoms ]
;    nr  type resnr resid  atom  cgnr     charge       mass
      1 SC2       1 res   C1        1      0.000     54.000
      2 TC3       1 res   C2        2      0.000     36.000
      3 TN4a      1 res   C3        3      0.000     36.000
      4 TN6a      1 res   C4        4      0.000     36.000
      5 SC4       1 res   C5        5      0.000     54.000
      6 TN6       1 res   C6        6      0.000     36.000
      7 TC5       1 res   C7        7      0.000     36.000
      8 TN2a      1 res   C8        8      0.000     36.000
      9 TN6       1 res   C9        9      0.000     36.000

[ bonds ]
;  ai    aj   funct      b0(nm)        k
    1     2     1      0.27100    20000
    2     3     1      0.23636    20000
    2     4     1      0.23415    20000
    2     5     1      0.37238    20000
    3     4     1      0.27612    20000
    3     9     1      0.22037    20000
    5     6     1      0.31235    20000
    5     7     1      0.29484    20000
    5     9     1      0.29327    20000
    6     7     1      0.23260    20000
    7     8     1      0.26910    20000
