[ moleculetype ]
; name        nrexcl
res           1

[ atoms ]
;    nr  type  resnr resid  atom  cgnr     charge       mass
      1 TC5       1 res   C1        1      0.000     36.000
      2 TN2a      1 res   C2        2      0.000     36.000
      3 TC5       1 res   C3        3      0.000     36.000
      4 TC3       1 res   C4        4      0.000     36.000

[ constraints ]
;  ai    aj   funct      b0(nm)
    1     2     1      0.20668
    1     3     1      0.23854
    2     3     1      0.22477

[ bonds ]
;  ai    aj   funct      b0(nm)          k(kJ/mol/nm^2)
    3     4     1      0.28764           8731.8

[ angles ]
;  ai    aj    ak  funct     th0(deg)        k(kJ/mol/rad^2)
    1     2     3     1     66.98791          3187.06
    1     3     2     1     52.89038          2908.42
    1     3     4     1    121.69651           127.90
    2     1     3     1     60.12170          6709.70
    2     3     4     1     70.77421           123.84

[ dihedrals ]
;  ai    aj    ak    al  funct   phi0(deg)        k(kJ/mol)   mult
    1     2     3     4     1      0.52448       19.091      1
    2     1     3     4     1   -179.10587       23.580      1
