[ moleculetype ]
; name        nrexcl
res           1

[ atoms ]
;    nr  type resnr resid  atom  cgnr     charge       mass
      1 TC4       1 res   C1        1      0.000     36.000
      2 TN4a      1 res   C2        2      0.000     36.000
      3 TN6       1 res   C3        3      0.000     36.000
      4 SN4a      1 res   C4        4      0.000     54.000
      5 TP1       1 res   C5        5      0.000     36.000
      6 TN3r      1 res   C6        6      0.000     36.000
      7 SN4a      1 res   C7        7      0.000     54.000
      8 SN4a      1 res   C8        8      0.000     54.000
      9 SC5       1 res   C9        9      0.000     54.000
     10 TC3       1 res   C10      10      0.000     36.000
     11 SC4       1 res   C11      11      0.000     54.000
     12 SC4       1 res   C12      12      0.000     54.000
     13 TC3       1 res   C13      13      0.000     36.000
     14 SC4       1 res   C14      14      0.000     54.000
     15 SC4       1 res   C15      15      0.000     54.000
     16 TC3       1 res   C16      16      0.000     36.000
     17 TN6       1 res   C17      17      0.000     36.000
     18 SC4       1 res   C18      18      0.000     54.000
     19 TC3       1 res   C19      19      0.000     36.000
     20 TC3       1 res   C20      20      0.000     36.000
     21 TN6       1 res   C21      21      0.000     36.000
     22 TN6       1 res   C22      22      0.000     36.000
     23 TN6       1 res   C23      23      0.000     36.000
     24 TN6       1 res   C24      24      0.000     36.000
     25 TN6       1 res   C25      25      0.000     36.000
     26 TN6       1 res   C26      26      0.000     36.000
     27 TN6       1 res   C27      27      0.000     36.000
     28 TN6       1 res   C28      28      0.000     36.000

[ bonds ]
;  ai    aj   funct      b0(nm)        k
    1     2     1      0.29103    20000
    1    28     1      0.24400    20000
    2     3     1      0.22182    20000
    2    26     1      0.25378    20000
    3     4     1      0.25801    20000
    3    25     1      0.24237    20000
    4     5     1      0.30339    20000
    4     6     1      0.31862    20000
    4    24     1      0.26917    20000
    6     7     1      0.29626    20000
    7     8     1      0.29406    20000
    7    21     1      0.27709    20000
    7    23     1      0.31104    20000
    8     9     1      0.29424    20000
    9    10     1      0.29677    20000
    9    11     1      0.30051    20000
    9    12     1      0.39137    20000
    9    20     1      0.37657    20000
   10    11     1      0.28873    20000
   12    13     1      0.31100    20000
   12    14     1      0.34634    20000
   12    20     1      0.30871    20000
   13    14     1      0.32960    20000
   14    15     1      0.29969    20000
   14    19     1      0.31994    20000
   15    16     1      0.26477    20000
   15    18     1      0.37458    20000
   15    19     1      0.26922    20000
   16    17     1      0.28124    20000
   17    18     1      0.26715    20000
   21    22     1      0.20737    20000
   22    23     1      0.22172    20000
   24    25     1      0.24404    20000
   26    27     1      0.24631    20000
   27    28     1      0.21611    20000
