[ moleculetype ]
; name        nrexcl
res           1

[ atoms ]
;    nr  type resnr resid  atom  cgnr     charge       mass
      1 C1        1 res   C1        1      0.000     72.000
      2 TN4a      1 res   C2        2      0.000     36.000
      3 P4        1 res   C3        3      0.000     72.000
      4 SC4       1 res   C4        4      0.000     54.000
      5 P4        1 res   C5        5      0.000     72.000
      6 SC4       1 res   C6        6      0.000     54.000
      7 SN4a      1 res   C7        7      0.000     54.000
      8 N6a       1 res   C8        8      0.000     72.000
      9 TN3r      1 res   C9        9      0.000     36.000
     10 SN4a      1 res   C10      10      0.000     54.000
     11 SC3       1 res   C11      11      0.000     54.000
     12 SN4a      1 res   C12      12      0.000     54.000

[ bonds ]
;  ai    aj   funct      b0(nm)        k
    1     2     1      0.25297    20000
    2     3     1      0.25394    20000
    3     4     1      0.29499    20000
    3    11     1      0.35141    20000
    3    12     1      0.37714    20000
    4     5     1      0.37143    20000
    5     6     1      0.24327    20000
    5     8     1      0.33802    20000
    6     7     1      0.45197    20000
    8     9     1      0.24953    20000
    9    10     1      0.31062    20000
    9    11     1      0.28056    20000
