[ moleculetype ]
; name        nrexcl
res           1

[ atoms ]
;    nr  type  resnr resid  atom  cgnr     charge       mass
      1 N5a       1 res   C1        1      0.000     72.000
      2 C1        1 res   C2        2      0.000     72.000
      3 SN3r      1 res   C3        3      0.000     54.000
      4 SN4a      1 res   C4        4      0.000     54.000
      5 TP1       1 res   C5        5      0.000     36.000
      6 SP4       1 res   C6        6      0.000     54.000
      7 TN6       1 res   C7        7      0.000     36.000

[ constraints ]
;  ai    aj   funct      b0(nm)
    1     2     1      0.35871
    2     3     1      0.28932
    4     5     1      0.29517
    6     7     1      0.28064
    4     6     1      0.29793

[ bonds ]
;  ai    aj   funct      b0(nm)          k(kJ/mol/nm^2)
    3     4     1      0.30093          11684.3
    1     3     1      0.41559           5250.4
    4     7     1      0.27932          16632.1

[ angles ]
;  ai    aj    ak  funct     th0(deg)        k(kJ/mol/rad^2)
    1     2     3     1     78.99982           319.78
    1     3     2     1     58.04326           366.59
    1     3     4     1     96.18493           277.27
    2     1     3     1     42.95866          4468.33
    2     3     4     1    137.07997           474.71
    3     4     5     1    103.99714           117.47
    3     4     6     1    128.95604            47.67
    3     4     7     1     93.38938           772.37
    4     6     7     1     57.64050           969.35
    4     7     6     1     64.32420          1180.32
    5     4     6     1     75.24349           355.66
    5     4     7     1    126.73723            69.25
    6     4     7     1     58.03501          1676.80

[ dihedrals ]
;  ai    aj    ak    al  funct   phi0(deg)        k(kJ/mol)   mult
    1     2     3     4     1   -115.25248       18.187      1
    1     3     4     5     1    109.00316       24.322      1
    1     3     4     6     1   -163.83646       24.429      1
    1     3     4     7     1   -116.05882       16.470      1
    2     1     3     4     1     37.03871       10.053      1
    2     3     4     5     1     56.21468       22.796      1
    2     3     4     6     1    145.55207       25.809      1
    2     3     4     7     1   -169.79622       19.817      1
    3     4     6     7     1   -127.18680       25.112      1
    3     4     7     6     1     38.83872       25.901      1
    5     4     6     7     1    -21.51255       21.623      1
    5     4     7     6     1    158.86137       22.725      1
