Generated with MDTraj, t= 0.0
 47
    1UNL     C1    1  -0.280   0.165  -0.233
    1UNL     C2    2  -0.331   0.136  -0.093
    1UNL     C3    3  -0.231   0.062  -0.001
    1UNL     C4    4  -0.300   0.032   0.138
    1UNL     C5    5  -0.334  -0.117   0.160
    1UNL     C6    6  -0.213  -0.209   0.137
    1UNL     N1    7  -0.117  -0.153   0.037
    1UNL     C7    8   0.007  -0.230   0.005
    1UNL     C8    9   0.109  -0.154  -0.078
    1UNL     C9   10   0.182  -0.041  -0.011
    1UNL    C10   11   0.135   0.063   0.069
    1UNL     N2   12   0.239   0.148   0.099
    1UNL    C11   13   0.355   0.101   0.040
    1UNL    C12   14   0.486   0.150   0.040
    1UNL    C13   15   0.582   0.081  -0.030
    1UNL    C14   16   0.549  -0.036  -0.100
    1UNL    C15   17   0.422  -0.085  -0.101
    1UNL    C16   18   0.322  -0.017  -0.030
    1UNL    C17   19  -0.003   0.086   0.123
    1UNL    C18   20  -0.103   0.147   0.022
    1UNL    C19   21  -0.186  -0.072  -0.065
    1UNL     H1   22  -0.191   0.229  -0.231
    1UNL     H2   23  -0.253   0.073  -0.286
    1UNL     H3   24  -0.355   0.216  -0.294
    1UNL     H4   25  -0.422   0.075  -0.099
    1UNL     H5   26  -0.361   0.229  -0.044
    1UNL     H6   27  -0.235   0.067   0.219
    1UNL     H7   28  -0.390   0.094   0.146
    1UNL     H8   29  -0.415  -0.145   0.091
    1UNL     H9   30  -0.375  -0.132   0.260
    1UNL    H10   31  -0.158  -0.224   0.231
    1UNL    H11   32  -0.244  -0.308   0.103
    1UNL    H12   33   0.052  -0.262   0.099
    1UNL    H13   34  -0.025  -0.322  -0.047
    1UNL    H14   35   0.063  -0.116  -0.170
    1UNL    H15   36   0.185  -0.225  -0.114
    1UNL    H16   37   0.233   0.232   0.157
    1UNL    H17   38   0.509   0.240   0.094
    1UNL    H18   39   0.683   0.117  -0.031
    1UNL    H19   40   0.627  -0.088  -0.154
    1UNL    H20   41   0.397  -0.175  -0.156
    1UNL    H21   42  -0.040  -0.009   0.162
    1UNL    H22   43   0.006   0.150   0.211
    1UNL    H23   44  -0.052   0.162  -0.074
    1UNL    H24   45  -0.133   0.248   0.054
    1UNL    H25   46  -0.272  -0.128  -0.103
    1UNL    H26   47  -0.121  -0.054  -0.150
   0.00000   0.00000   0.00000   0.00000   0.00000   0.00000   0.00000   0.00000   0.00000
Generated with MDTraj, t= 1.0
 47
    1UNL     C1    1  -0.271   0.170  -0.241
    1UNL     C2    2  -0.331   0.132  -0.103
    1UNL     C3    3  -0.235   0.058  -0.006
    1UNL     C4    4  -0.305   0.035   0.131
    1UNL     C5    5  -0.321  -0.114   0.179
    1UNL     C6    6  -0.192  -0.206   0.151
    1UNL     N1    7  -0.115  -0.155   0.032
    1UNL     C7    8   0.010  -0.231   0.001
    1UNL     C8    9   0.109  -0.155  -0.094
    1UNL     C9   10   0.179  -0.035  -0.020
    1UNL    C10   11   0.132   0.061   0.069
    1UNL     N2   12   0.237   0.144   0.109
    1UNL    C11   13   0.355   0.097   0.049
    1UNL    C12   14   0.486   0.142   0.045
    1UNL    C13   15   0.580   0.078  -0.036
    1UNL    C14   16   0.547  -0.039  -0.098
    1UNL    C15   17   0.421  -0.077  -0.102
    1UNL    C16   18   0.317  -0.014  -0.028
    1UNL    C17   19  -0.009   0.087   0.125
    1UNL    C18   20  -0.112   0.150   0.028
    1UNL    C19   21  -0.193  -0.074  -0.073
    1UNL     H1   22  -0.165   0.219  -0.228
    1UNL     H2   23  -0.265   0.084  -0.299
    1UNL     H3   24  -0.331   0.236  -0.288
    1UNL     H4   25  -0.428   0.082  -0.118
    1UNL     H5   26  -0.347   0.226  -0.051
    1UNL     H6   27  -0.250   0.091   0.208
    1UNL     H7   28  -0.403   0.080   0.135
    1UNL     H8   29  -0.418  -0.155   0.148
    1UNL     H9   30  -0.354  -0.106   0.285
    1UNL    H10   31  -0.124  -0.206   0.236
    1UNL    H11   32  -0.221  -0.307   0.127
    1UNL    H12   33   0.069  -0.251   0.092
    1UNL    H13   34  -0.013  -0.331  -0.038
    1UNL    H14   35   0.059  -0.115  -0.182
    1UNL    H15   36   0.176  -0.236  -0.127
    1UNL    H16   37   0.228   0.225   0.164
    1UNL    H17   38   0.514   0.212   0.120
    1UNL    H18   39   0.687   0.111  -0.050
    1UNL    H19   40   0.614  -0.104  -0.156
    1UNL    H20   41   0.392  -0.175  -0.154
    1UNL    H21   42  -0.046   0.000   0.170
    1UNL    H22   43  -0.001   0.158   0.212
    1UNL    H23   44  -0.056   0.192  -0.054
    1UNL    H24   45  -0.158   0.240   0.081
    1UNL    H25   46  -0.282  -0.139  -0.101
    1UNL    H26   47  -0.147  -0.058  -0.169
   0.00000   0.00000   0.00000   0.00000   0.00000   0.00000   0.00000   0.00000   0.00000
Generated with MDTraj, t= 2.0
 47
    1UNL     C1    1  -0.288   0.166  -0.236
    1UNL     C2    2  -0.331   0.133  -0.093
    1UNL     C3    3  -0.235   0.057  -0.001
    1UNL     C4    4  -0.294   0.039   0.137
    1UNL     C5    5  -0.328  -0.111   0.159
    1UNL     C6    6  -0.204  -0.197   0.156
    1UNL     N1    7  -0.122  -0.159   0.040
    1UNL     C7    8  -0.002  -0.238  -0.006
    1UNL     C8    9   0.110  -0.151  -0.082
    1UNL     C9   10   0.180  -0.035  -0.017
    1UNL    C10   11   0.134   0.072   0.068
    1UNL     N2   12   0.243   0.144   0.109
    1UNL    C11   13   0.359   0.098   0.039
    1UNL    C12   14   0.489   0.150   0.051
    1UNL    C13   15   0.583   0.076  -0.019
    1UNL    C14   16   0.549  -0.032  -0.103
    1UNL    C15   17   0.422  -0.082  -0.109
    1UNL    C16   18   0.322  -0.018  -0.036
    1UNL    C17   19  -0.003   0.089   0.118
    1UNL    C18   20  -0.105   0.138   0.013
    1UNL    C19   21  -0.191  -0.080  -0.062
    1UNL     H1   22  -0.222   0.260  -0.256
    1UNL     H2   23  -0.244   0.084  -0.279
    1UNL     H3   24  -0.368   0.177  -0.297
    1UNL     H4   25  -0.412   0.058  -0.095
    1UNL     H5   26  -0.361   0.224  -0.043
    1UNL     H6   27  -0.227   0.072   0.220
    1UNL     H7   28  -0.380   0.100   0.154
    1UNL     H8   29  -0.408  -0.126   0.083
    1UNL     H9   30  -0.403  -0.134   0.235
    1UNL    H10   31  -0.138  -0.188   0.244
    1UNL    H11   32  -0.227  -0.302   0.144
    1UNL    H12   33   0.045  -0.297   0.075
    1UNL    H13   34  -0.040  -0.311  -0.079
    1UNL    H14   35   0.054  -0.121  -0.170
    1UNL    H15   36   0.192  -0.212  -0.122
    1UNL    H16   37   0.236   0.209   0.181
    1UNL    H17   38   0.533   0.227   0.117
    1UNL    H18   39   0.681   0.104  -0.011
    1UNL    H19   40   0.631  -0.075  -0.155
    1UNL    H20   41   0.395  -0.159  -0.168
    1UNL    H21   42  -0.031  -0.000   0.169
    1UNL    H22   43   0.003   0.162   0.207
    1UNL    H23   44  -0.057   0.145  -0.082
    1UNL    H24   45  -0.123   0.250   0.043
    1UNL    H25   46  -0.279  -0.139  -0.110
    1UNL    H26   47  -0.135  -0.066  -0.153
   0.00000   0.00000   0.00000   0.00000   0.00000   0.00000   0.00000   0.00000   0.00000
Generated with MDTraj, t= 3.0
 47
    1UNL     C1    1  -0.298   0.164  -0.241
    1UNL     C2    2  -0.337   0.150  -0.090
    1UNL     C3    3  -0.234   0.064  -0.006
    1UNL     C4    4  -0.297   0.024   0.134
    1UNL     C5    5  -0.324  -0.127   0.175
    1UNL     C6    6  -0.219  -0.218   0.121
    1UNL     N1    7  -0.117  -0.152   0.034
    1UNL     C7    8   0.011  -0.230   0.017
    1UNL     C8    9   0.111  -0.160  -0.070
    1UNL     C9   10   0.182  -0.032  -0.017
    1UNL    C10   11   0.138   0.068   0.062
    1UNL     N2   12   0.244   0.152   0.095
    1UNL    C11   13   0.361   0.100   0.045
    1UNL    C12   14   0.489   0.146   0.047
    1UNL    C13   15   0.581   0.078  -0.032
    1UNL    C14   16   0.548  -0.041  -0.093
    1UNL    C15   17   0.426  -0.093  -0.098
    1UNL    C16   18   0.323  -0.012  -0.031
    1UNL    C17   19  -0.003   0.094   0.119
    1UNL    C18   20  -0.103   0.150   0.019
    1UNL    C19   21  -0.191  -0.067  -0.067
    1UNL     H1   22  -0.201   0.199  -0.267
    1UNL     H2   23  -0.316   0.072  -0.287
    1UNL     H3   24  -0.368   0.230  -0.290
    1UNL     H4   25  -0.437   0.105  -0.083
    1UNL     H5   26  -0.335   0.245  -0.040
    1UNL     H6   27  -0.248   0.076   0.222
    1UNL     H7   28  -0.396   0.066   0.144
    1UNL     H8   29  -0.427  -0.165   0.162
    1UNL     H9   30  -0.336  -0.117   0.283
    1UNL    H10   31  -0.167  -0.285   0.193
    1UNL    H11   32  -0.259  -0.293   0.054
    1UNL    H12   33   0.057  -0.247   0.116
    1UNL    H13   34  -0.008  -0.332  -0.022
    1UNL    H14   35   0.083  -0.121  -0.167
    1UNL    H15   36   0.192  -0.228  -0.092
    1UNL    H16   37   0.233   0.222   0.162
    1UNL    H17   38   0.503   0.242   0.085
    1UNL    H18   39   0.689   0.117  -0.040
    1UNL    H19   40   0.627  -0.094  -0.146
    1UNL    H20   41   0.402  -0.184  -0.163
    1UNL    H21   42  -0.029  -0.004   0.166
    1UNL    H22   43   0.011   0.159   0.211
    1UNL    H23   44  -0.042   0.164  -0.068
    1UNL    H24   45  -0.138   0.260   0.049
    1UNL    H25   46  -0.287  -0.122  -0.101
    1UNL    H26   47  -0.144  -0.057  -0.168
   0.00000   0.00000   0.00000   0.00000   0.00000   0.00000   0.00000   0.00000   0.00000
Generated with MDTraj, t= 4.0
 47
    1UNL     C1    1  -0.283   0.167  -0.226
    1UNL     C2    2  -0.329   0.135  -0.084
    1UNL     C3    3  -0.222   0.064   0.004
    1UNL     C4    4  -0.300   0.034   0.142
    1UNL     C5    5  -0.340  -0.120   0.141
    1UNL     C6    6  -0.221  -0.213   0.141
    1UNL     N1    7  -0.124  -0.160   0.034
    1UNL     C7    8   0.001  -0.231   0.004
    1UNL     C8    9   0.105  -0.161  -0.080
    1UNL     C9   10   0.184  -0.046  -0.016
    1UNL    C10   11   0.133   0.066   0.057
    1UNL     N2   12   0.235   0.154   0.089
    1UNL    C11   13   0.354   0.106   0.032
    1UNL    C12   14   0.485   0.156   0.030
    1UNL    C13   15   0.581   0.088  -0.034
    1UNL    C14   16   0.555  -0.041  -0.090
    1UNL    C15   17   0.427  -0.093  -0.080
    1UNL    C16   18   0.323  -0.017  -0.031
    1UNL    C17   19   0.003   0.082   0.124
    1UNL    C18   20  -0.097   0.152   0.031
    1UNL    C19   21  -0.180  -0.064  -0.063
    1UNL     H1   22  -0.223   0.244  -0.238
    1UNL     H2   23  -0.245   0.079  -0.269
    1UNL     H3   24  -0.376   0.186  -0.280
    1UNL     H4   25  -0.415   0.066  -0.089
    1UNL     H5   26  -0.350   0.226  -0.029
    1UNL     H6   27  -0.240   0.058   0.235
    1UNL     H7   28  -0.387   0.097   0.158
    1UNL     H8   29  -0.406  -0.125   0.053
    1UNL     H9   30  -0.414  -0.154   0.213
    1UNL    H10   31  -0.177  -0.221   0.242
    1UNL    H11   32  -0.229  -0.319   0.118
    1UNL    H12   33   0.046  -0.249   0.103
    1UNL    H13   34  -0.020  -0.327  -0.047
    1UNL    H14   35   0.059  -0.138  -0.176
    1UNL    H15   36   0.186  -0.229  -0.109
    1UNL    H16   37   0.233   0.248   0.117
    1UNL    H17   38   0.523   0.258   0.062
    1UNL    H18   39   0.675   0.130  -0.038
    1UNL    H19   40   0.642  -0.095  -0.132
    1UNL    H20   41   0.401  -0.194  -0.114
    1UNL    H21   42  -0.049  -0.015   0.161
    1UNL    H22   43   0.024   0.138   0.220
    1UNL    H23   44  -0.043   0.166  -0.060
    1UNL    H24   45  -0.122   0.256   0.083
    1UNL    H25   46  -0.271  -0.107  -0.116
    1UNL    H26   47  -0.113  -0.039  -0.156
   0.00000   0.00000   0.00000   0.00000   0.00000   0.00000   0.00000   0.00000   0.00000
Generated with MDTraj, t= 5.0
 47
    1UNL     C1    1  -0.257   0.195  -0.223
    1UNL     C2    2  -0.323   0.135  -0.101
    1UNL     C3    3  -0.229   0.058  -0.001
    1UNL     C4    4  -0.308   0.027   0.130
    1UNL     C5    5  -0.337  -0.122   0.155
    1UNL     C6    6  -0.218  -0.213   0.131
    1UNL     N1    7  -0.117  -0.155   0.039
    1UNL     C7    8   0.007  -0.237   0.017
    1UNL     C8    9   0.120  -0.171  -0.063
    1UNL     C9   10   0.174  -0.046   0.000
    1UNL    C10   11   0.133   0.064   0.071
    1UNL     N2   12   0.233   0.162   0.078
    1UNL    C11   13   0.345   0.111   0.027
    1UNL    C12   14   0.478   0.158   0.024
    1UNL    C13   15   0.577   0.081  -0.042
    1UNL    C14   16   0.540  -0.039  -0.103
    1UNL    C15   17   0.417  -0.095  -0.094
    1UNL    C16   18   0.313  -0.016  -0.027
    1UNL    C17   19  -0.001   0.082   0.135
    1UNL    C18   20  -0.103   0.147   0.040
    1UNL    C19   21  -0.167  -0.070  -0.072
    1UNL     H1   22  -0.168   0.263  -0.210
    1UNL     H2   23  -0.229   0.115  -0.282
    1UNL     H3   24  -0.326   0.248  -0.285
    1UNL     H4   25  -0.393   0.056  -0.134
    1UNL     H5   26  -0.372   0.212  -0.043
    1UNL     H6   27  -0.254   0.070   0.220
    1UNL     H7   28  -0.396   0.091   0.129
    1UNL     H8   29  -0.411  -0.158   0.084
    1UNL     H9   30  -0.382  -0.139   0.254
    1UNL    H10   31  -0.157  -0.251   0.217
    1UNL    H11   32  -0.258  -0.308   0.097
    1UNL    H12   33   0.063  -0.249   0.112
    1UNL    H13   34  -0.027  -0.335  -0.023
    1UNL    H14   35   0.084  -0.149  -0.162
    1UNL    H15   36   0.198  -0.246  -0.078
    1UNL    H16   37   0.243   0.237   0.144
    1UNL    H17   38   0.487   0.245   0.078
    1UNL    H18   39   0.680   0.122  -0.057
    1UNL    H19   40   0.613  -0.091  -0.154
    1UNL    H20   41   0.403  -0.190  -0.130
    1UNL    H21   42  -0.038  -0.024   0.166
    1UNL    H22   43  -0.003   0.139   0.233
    1UNL    H23   44  -0.042   0.173  -0.046
    1UNL    H24   45  -0.137   0.248   0.090
    1UNL    H25   46  -0.243  -0.116  -0.144
    1UNL    H26   47  -0.077  -0.044  -0.144
   0.00000   0.00000   0.00000   0.00000   0.00000   0.00000   0.00000   0.00000   0.00000
Generated with MDTraj, t= 6.0
 47
    1UNL     C1    1  -0.242   0.183  -0.231
    1UNL     C2    2  -0.316   0.137  -0.107
    1UNL     C3    3  -0.223   0.060  -0.001
    1UNL     C4    4  -0.319   0.025   0.120
    1UNL     C5    5  -0.360  -0.117   0.147
    1UNL     C6    6  -0.235  -0.210   0.123
    1UNL     N1    7  -0.123  -0.154   0.043
    1UNL     C7    8   0.006  -0.229   0.048
    1UNL     C8    9   0.115  -0.174  -0.049
    1UNL     C9   10   0.193  -0.050   0.001
    1UNL    C10   11   0.135   0.052   0.082
    1UNL     N2   12   0.233   0.143   0.102
    1UNL    C11   13   0.350   0.100   0.033
    1UNL    C12   14   0.477   0.159   0.020
    1UNL    C13   15   0.566   0.102  -0.062
    1UNL    C14   16   0.546  -0.023  -0.127
    1UNL    C15   17   0.420  -0.084  -0.110
    1UNL    C16   18   0.326  -0.023  -0.034
    1UNL    C17   19  -0.003   0.076   0.146
    1UNL    C18   20  -0.100   0.146   0.048
    1UNL    C19   21  -0.164  -0.066  -0.074
    1UNL     H1   22  -0.147   0.248  -0.205
    1UNL     H2   23  -0.210   0.098  -0.283
    1UNL     H3   24  -0.301   0.238  -0.295
    1UNL     H4   25  -0.407   0.077  -0.129
    1UNL     H5   26  -0.342   0.229  -0.055
    1UNL     H6   27  -0.263   0.071   0.207
    1UNL     H7   28  -0.404   0.095   0.119
    1UNL     H8   29  -0.439  -0.141   0.078
    1UNL     H9   30  -0.394  -0.140   0.251
    1UNL    H10   31  -0.205  -0.240   0.226
    1UNL    H11   32  -0.250  -0.306   0.073
    1UNL    H12   33   0.031  -0.238   0.155
    1UNL    H13   34  -0.007  -0.333   0.011
    1UNL    H14   35   0.080  -0.149  -0.147
    1UNL    H15   36   0.186  -0.256  -0.066
    1UNL    H16   37   0.228   0.233   0.151
    1UNL    H17   38   0.507   0.251   0.079
    1UNL    H18   39   0.659   0.155  -0.074
    1UNL    H19   40   0.618  -0.070  -0.201
    1UNL    H20   41   0.390  -0.189  -0.148
    1UNL    H21   42  -0.049  -0.020   0.181
    1UNL    H22   43   0.025   0.128   0.244
    1UNL    H23   44  -0.045   0.164  -0.046
    1UNL    H24   45  -0.143   0.242   0.089
    1UNL    H25   46  -0.239  -0.127  -0.136
    1UNL    H26   47  -0.084  -0.025  -0.145
   0.00000   0.00000   0.00000   0.00000   0.00000   0.00000   0.00000   0.00000   0.00000
Generated with MDTraj, t= 7.0
 47
    1UNL     C1    1  -0.221   0.156  -0.232
    1UNL     C2    2  -0.290   0.145  -0.099
    1UNL     C3    3  -0.207   0.062   0.002
    1UNL     C4    4  -0.295   0.030   0.131
    1UNL     C5    5  -0.354  -0.110   0.116
    1UNL     C6    6  -0.238  -0.217   0.117
    1UNL     N1    7  -0.127  -0.162   0.040
    1UNL     C7    8  -0.004  -0.238   0.040
    1UNL     C8    9   0.117  -0.178  -0.038
    1UNL     C9   10   0.174  -0.053   0.014
    1UNL    C10   11   0.133   0.047   0.100
    1UNL     N2   12   0.233   0.143   0.105
    1UNL    C11   13   0.341   0.110   0.031
    1UNL    C12   14   0.466   0.175   0.013
    1UNL    C13   15   0.556   0.104  -0.074
    1UNL    C14   16   0.519  -0.021  -0.138
    1UNL    C15   17   0.401  -0.084  -0.112
    1UNL    C16   18   0.313  -0.013  -0.027
    1UNL    C17   19  -0.001   0.075   0.161
    1UNL    C18   20  -0.082   0.150   0.048
    1UNL    C19   21  -0.156  -0.066  -0.071
    1UNL     H1   22  -0.124   0.213  -0.221
    1UNL     H2   23  -0.197   0.058  -0.276
    1UNL     H3   24  -0.280   0.206  -0.302
    1UNL     H4   25  -0.388   0.096  -0.120
    1UNL     H5   26  -0.310   0.240  -0.048
    1UNL     H6   27  -0.236   0.055   0.224
    1UNL     H7   28  -0.366   0.114   0.137
    1UNL     H8   29  -0.397  -0.133   0.019
    1UNL     H9   30  -0.427  -0.123   0.197
    1UNL    H10   31  -0.206  -0.233   0.223
    1UNL    H11   32  -0.278  -0.310   0.079
    1UNL    H12   33   0.028  -0.254   0.142
    1UNL    H13   34  -0.047  -0.332   0.002
    1UNL    H14   35   0.088  -0.162  -0.138
    1UNL    H15   36   0.203  -0.249  -0.043
    1UNL    H16   37   0.201   0.233   0.146
    1UNL    H17   38   0.479   0.265   0.065
    1UNL    H18   39   0.654   0.144  -0.088
    1UNL    H19   40   0.590  -0.068  -0.198
    1UNL    H20   41   0.388  -0.167  -0.175
    1UNL    H21   42  -0.033  -0.020   0.196
    1UNL    H22   43   0.000   0.140   0.255
    1UNL    H23   44  -0.019   0.164  -0.043
    1UNL    H24   45  -0.115   0.248   0.077
    1UNL    H25   46  -0.242  -0.100  -0.143
    1UNL    H26   47  -0.060  -0.048  -0.124
   0.00000   0.00000   0.00000   0.00000   0.00000   0.00000   0.00000   0.00000   0.00000
Generated with MDTraj, t= 8.0
 47
    1UNL     C1    1  -0.201   0.188  -0.231
    1UNL     C2    2  -0.285   0.159  -0.108
    1UNL     C3    3  -0.214   0.069   0.002
    1UNL     C4    4  -0.327   0.021   0.110
    1UNL     C5    5  -0.362  -0.130   0.118
    1UNL     C6    6  -0.233  -0.216   0.107
    1UNL     N1    7  -0.117  -0.151   0.052
    1UNL     C7    8  -0.004  -0.245   0.060
    1UNL     C8    9   0.123  -0.204  -0.018
    1UNL     C9   10   0.186  -0.064   0.024
    1UNL    C10   11   0.135   0.047   0.093
    1UNL     N2   12   0.232   0.148   0.094
    1UNL    C11   13   0.344   0.094   0.029
    1UNL    C12   14   0.462   0.170  -0.000
    1UNL    C13   15   0.543   0.119  -0.091
    1UNL    C14   16   0.526  -0.009  -0.148
    1UNL    C15   17   0.409  -0.083  -0.109
    1UNL    C16   18   0.314  -0.032  -0.023
    1UNL    C17   19   0.005   0.072   0.157
    1UNL    C18   20  -0.101   0.157   0.069
    1UNL    C19   21  -0.152  -0.058  -0.063
    1UNL     H1   22  -0.111   0.236  -0.206
    1UNL     H2   23  -0.174   0.092  -0.287
    1UNL     H3   24  -0.253   0.254  -0.305
    1UNL     H4   25  -0.373   0.094  -0.133
    1UNL     H5   26  -0.331   0.250  -0.071
    1UNL     H6   27  -0.290   0.060   0.207
    1UNL     H7   28  -0.415   0.086   0.089
    1UNL     H8   29  -0.434  -0.136   0.035
    1UNL     H9   30  -0.408  -0.174   0.205
    1UNL    H10   31  -0.218  -0.252   0.212
    1UNL    H11   32  -0.261  -0.296   0.040
    1UNL    H12   33   0.007  -0.240   0.168
    1UNL    H13   34  -0.039  -0.347   0.039
    1UNL    H14   35   0.099  -0.208  -0.120
    1UNL    H15   36   0.197  -0.284   0.002
    1UNL    H16   37   0.233   0.232   0.158
    1UNL    H17   38   0.478   0.271   0.038
    1UNL    H18   39   0.636   0.172  -0.119
    1UNL    H19   40   0.603  -0.053  -0.218
    1UNL    H20   41   0.374  -0.177  -0.153
    1UNL    H21   42  -0.044  -0.012   0.193
    1UNL    H22   43   0.034   0.128   0.253
    1UNL    H23   44  -0.042   0.210  -0.012
    1UNL    H24   45  -0.155   0.224   0.128
    1UNL    H25   46  -0.231  -0.124  -0.124
    1UNL    H26   47  -0.062  -0.031  -0.118
   0.00000   0.00000   0.00000   0.00000   0.00000   0.00000   0.00000   0.00000   0.00000
Generated with MDTraj, t= 9.0
 47
    1UNL     C1    1  -0.179   0.205  -0.213
    1UNL     C2    2  -0.271   0.143  -0.104
    1UNL     C3    3  -0.199   0.064   0.009
    1UNL     C4    4  -0.311   0.021   0.115
    1UNL     C5    5  -0.361  -0.123   0.085
    1UNL     C6    6  -0.248  -0.226   0.112
    1UNL     N1    7  -0.132  -0.191   0.029
    1UNL     C7    8  -0.003  -0.241   0.073
    1UNL     C8    9   0.116  -0.191  -0.008
    1UNL     C9   10   0.172  -0.055   0.017
    1UNL    C10   11   0.138   0.053   0.099
    1UNL     N2   12   0.231   0.152   0.095
    1UNL    C11   13   0.323   0.120   0.004
    1UNL    C12   14   0.445   0.180  -0.030
    1UNL    C13   15   0.543   0.109  -0.091
    1UNL    C14   16   0.521  -0.029  -0.127
    1UNL    C15   17   0.403  -0.089  -0.107
    1UNL    C16   18   0.296  -0.013  -0.042
    1UNL    C17   19   0.012   0.076   0.175
    1UNL    C18   20  -0.092   0.148   0.083
    1UNL    C19   21  -0.134  -0.060  -0.063
    1UNL     H1   22  -0.137   0.283  -0.165
    1UNL     H2   23  -0.094   0.135  -0.241
    1UNL     H3   24  -0.235   0.243  -0.309
    1UNL     H4   25  -0.351   0.086  -0.156
    1UNL     H5   26  -0.328   0.221  -0.052
    1UNL     H6   27  -0.273   0.032   0.220
    1UNL     H7   28  -0.397   0.091   0.108
    1UNL     H8   29  -0.388  -0.148  -0.018
    1UNL     H9   30  -0.456  -0.121   0.138
    1UNL    H10   31  -0.221  -0.229   0.221
    1UNL    H11   32  -0.296  -0.320   0.088
    1UNL    H12   33   0.009  -0.225   0.180
    1UNL    H13   34  -0.024  -0.348   0.066
    1UNL    H14   35   0.097  -0.197  -0.112
    1UNL    H15   36   0.185  -0.278   0.015
    1UNL    H16   37   0.222   0.254   0.127
    1UNL    H17   38   0.455   0.283   0.009
    1UNL    H18   39   0.638   0.150  -0.110
    1UNL    H19   40   0.594  -0.085  -0.177
    1UNL    H20   41   0.406  -0.200  -0.124
    1UNL    H21   42  -0.021  -0.023   0.203
    1UNL    H22   43   0.019   0.141   0.269
    1UNL    H23   44  -0.029   0.197   0.002
    1UNL    H24   45  -0.139   0.221   0.136
    1UNL    H25   46  -0.205  -0.090  -0.151
    1UNL    H26   47  -0.031  -0.039  -0.093
   0.00000   0.00000   0.00000   0.00000   0.00000   0.00000   0.00000   0.00000   0.00000
Generated with MDTraj, t= 10.0
 47
    1UNL     C1    1  -0.192   0.215  -0.206
    1UNL     C2    2  -0.272   0.158  -0.094
    1UNL     C3    3  -0.198   0.074   0.010
    1UNL     C4    4  -0.305   0.006   0.108
    1UNL     C5    5  -0.371  -0.133   0.073
    1UNL     C6    6  -0.255  -0.234   0.055
    1UNL     N1    7  -0.123  -0.171   0.039
    1UNL     C7    8   0.002  -0.241   0.101
    1UNL     C8    9   0.135  -0.204   0.037
    1UNL     C9   10   0.184  -0.061   0.038
    1UNL    C10   11   0.125   0.053   0.089
    1UNL     N2   12   0.218   0.155   0.066
    1UNL    C11   13   0.336   0.110   0.009
    1UNL    C12   14   0.452   0.181  -0.039
    1UNL    C13   15   0.538   0.107  -0.115
    1UNL    C14   16   0.509  -0.025  -0.145
    1UNL    C15   17   0.403  -0.099  -0.094
    1UNL    C16   18   0.314  -0.025  -0.020
    1UNL    C17   19   0.002   0.079   0.171
    1UNL    C18   20  -0.103   0.158   0.096
    1UNL    C19   21  -0.125  -0.051  -0.058
    1UNL     H1   22  -0.107   0.267  -0.161
    1UNL     H2   23  -0.144   0.137  -0.269
    1UNL     H3   24  -0.243   0.291  -0.277
    1UNL     H4   25  -0.357   0.094  -0.126
    1UNL     H5   26  -0.324   0.245  -0.052
    1UNL     H6   27  -0.254  -0.018   0.204
    1UNL     H7   28  -0.386   0.082   0.125
    1UNL     H8   29  -0.426  -0.097  -0.015
    1UNL     H9   30  -0.452  -0.173   0.130
    1UNL    H10   31  -0.261  -0.293   0.150
    1UNL    H11   32  -0.256  -0.305  -0.026
    1UNL    H12   33  -0.012  -0.217   0.206
    1UNL    H13   34  -0.025  -0.345   0.097
    1UNL    H14   35   0.108  -0.233  -0.063
    1UNL    H15   36   0.221  -0.271   0.065
    1UNL    H16   37   0.212   0.255   0.106
    1UNL    H17   38   0.473   0.279  -0.019
    1UNL    H18   39   0.612   0.166  -0.168
    1UNL    H19   40   0.583  -0.066  -0.215
    1UNL    H20   41   0.385  -0.199  -0.103
    1UNL    H21   42  -0.050  -0.020   0.204
    1UNL    H22   43   0.045   0.132   0.261
    1UNL    H23   44  -0.048   0.223   0.022
    1UNL    H24   45  -0.156   0.222   0.156
    1UNL    H25   46  -0.186  -0.091  -0.145
    1UNL    H26   47  -0.019  -0.033  -0.083
   0.00000   0.00000   0.00000   0.00000   0.00000   0.00000   0.00000   0.00000   0.00000
Generated with MDTraj, t= 11.0
 47
    1UNL     C1    1  -0.191   0.209  -0.204
    1UNL     C2    2  -0.268   0.157  -0.078
    1UNL     C3    3  -0.188   0.063   0.015
    1UNL     C4    4  -0.290  -0.004   0.122
    1UNL     C5    5  -0.352  -0.127   0.054
    1UNL     C6    6  -0.252  -0.238   0.032
    1UNL     N1    7  -0.115  -0.189  -0.004
    1UNL     C7    8  -0.009  -0.220   0.094
    1UNL     C8    9   0.129  -0.198   0.049
    1UNL     C9   10   0.182  -0.058   0.054
    1UNL    C10   11   0.131   0.061   0.108
    1UNL     N2   12   0.213   0.166   0.077
    1UNL    C11   13   0.326   0.120   0.005
    1UNL    C12   14   0.430   0.174  -0.060
    1UNL    C13   15   0.513   0.094  -0.137
    1UNL    C14   16   0.504  -0.043  -0.146
    1UNL    C15   17   0.400  -0.105  -0.078
    1UNL    C16   18   0.307  -0.022  -0.006
    1UNL    C17   19   0.008   0.092   0.190
    1UNL    C18   20  -0.099   0.154   0.101
    1UNL    C19   21  -0.109  -0.042  -0.067
    1UNL     H1   22  -0.116   0.299  -0.171
    1UNL     H2   23  -0.126   0.140  -0.257
    1UNL     H3   24  -0.256   0.256  -0.282
    1UNL     H4   25  -0.350   0.095  -0.119
    1UNL     H5   26  -0.321   0.236  -0.022
    1UNL     H6   27  -0.233  -0.045   0.208
    1UNL     H7   28  -0.380   0.055   0.157
    1UNL     H8   29  -0.397  -0.101  -0.039
    1UNL     H9   30  -0.439  -0.143   0.115
    1UNL    H10   31  -0.227  -0.307   0.116
    1UNL    H11   32  -0.302  -0.299  -0.041
    1UNL    H12   33  -0.028  -0.167   0.185
    1UNL    H13   34  -0.033  -0.323   0.119
    1UNL    H14   35   0.144  -0.227  -0.053
    1UNL    H15   36   0.196  -0.262   0.113
    1UNL    H16   37   0.197   0.269   0.103
    1UNL    H17   38   0.438   0.288  -0.065
    1UNL    H18   39   0.596   0.136  -0.192
    1UNL    H19   40   0.567  -0.108  -0.205
    1UNL    H20   41   0.390  -0.220  -0.091
    1UNL    H21   42  -0.017  -0.005   0.244
    1UNL    H22   43   0.034   0.171   0.265
    1UNL    H23   44  -0.053   0.233   0.038
    1UNL    H24   45  -0.168   0.215   0.153
    1UNL    H25   46  -0.143  -0.045  -0.170
    1UNL    H26   47  -0.003  -0.006  -0.062
   0.00000   0.00000   0.00000   0.00000   0.00000   0.00000   0.00000   0.00000   0.00000
Generated with MDTraj, t= 12.0
 47
    1UNL     C1    1  -0.198   0.228  -0.190
    1UNL     C2    2  -0.269   0.141  -0.083
    1UNL     C3    3  -0.182   0.063   0.013
    1UNL     C4    4  -0.285  -0.011   0.116
    1UNL     C5    5  -0.353  -0.142   0.051
    1UNL     C6    6  -0.244  -0.231  -0.016
    1UNL     N1    7  -0.101  -0.180  -0.001
    1UNL     C7    8  -0.020  -0.211   0.119
    1UNL     C8    9   0.136  -0.197   0.098
    1UNL     C9   10   0.176  -0.056   0.057
    1UNL    C10   11   0.137   0.063   0.118
    1UNL     N2   12   0.225   0.166   0.076
    1UNL    C11   13   0.315   0.108  -0.012
    1UNL    C12   14   0.423   0.172  -0.072
    1UNL    C13   15   0.515   0.091  -0.141
    1UNL    C14   16   0.496  -0.046  -0.144
    1UNL    C15   17   0.387  -0.104  -0.092
    1UNL    C16   18   0.293  -0.027  -0.022
    1UNL    C17   19   0.011   0.091   0.195
    1UNL    C18   20  -0.103   0.159   0.100
    1UNL    C19   21  -0.092  -0.040  -0.059
    1UNL     H1   22  -0.154   0.319  -0.136
    1UNL     H2   23  -0.111   0.180  -0.244
    1UNL     H3   24  -0.268   0.278  -0.261
    1UNL     H4   25  -0.339   0.076  -0.139
    1UNL     H5   26  -0.330   0.208  -0.021
    1UNL     H6   27  -0.244  -0.052   0.209
    1UNL     H7   28  -0.364   0.069   0.136
    1UNL     H8   29  -0.421  -0.097  -0.014
    1UNL     H9   30  -0.416  -0.199   0.119
    1UNL    H10   31  -0.256  -0.333   0.029
    1UNL    H11   32  -0.247  -0.238  -0.123
    1UNL    H12   33  -0.056  -0.148   0.194
    1UNL    H13   34  -0.033  -0.313   0.151
    1UNL    H14   35   0.158  -0.257   0.014
    1UNL    H15   36   0.185  -0.236   0.191
    1UNL    H16   37   0.205   0.266   0.106
    1UNL    H17   38   0.444   0.274  -0.075
    1UNL    H18   39   0.611   0.139  -0.173
    1UNL    H19   40   0.571  -0.109  -0.186
    1UNL    H20   41   0.363  -0.204  -0.106
    1UNL    H21   42  -0.024   0.008   0.250
    1UNL    H22   43   0.041   0.167   0.274
    1UNL    H23   44  -0.056   0.230   0.041
    1UNL    H24   45  -0.164   0.219   0.165
    1UNL    H25   46  -0.125  -0.043  -0.160
    1UNL    H26   47   0.012  -0.002  -0.063
   0.00000   0.00000   0.00000   0.00000   0.00000   0.00000   0.00000   0.00000   0.00000
Generated with MDTraj, t= 13.0
 47
    1UNL     C1    1  -0.207   0.238  -0.163
    1UNL     C2    2  -0.283   0.143  -0.075
    1UNL     C3    3  -0.184   0.062   0.020
    1UNL     C4    4  -0.277  -0.026   0.106
    1UNL     C5    5  -0.334  -0.151   0.038
    1UNL     C6    6  -0.223  -0.230  -0.039
    1UNL     N1    7  -0.090  -0.173  -0.019
    1UNL     C7    8  -0.021  -0.211   0.107
    1UNL     C8    9   0.139  -0.191   0.112
    1UNL     C9   10   0.182  -0.048   0.082
    1UNL    C10   11   0.136   0.082   0.117
    1UNL     N2   12   0.218   0.175   0.065
    1UNL    C11   13   0.322   0.116  -0.007
    1UNL    C12   14   0.423   0.163  -0.092
    1UNL    C13   15   0.499   0.072  -0.161
    1UNL    C14   16   0.472  -0.068  -0.146
    1UNL    C15   17   0.377  -0.117  -0.062
    1UNL    C16   18   0.298  -0.024   0.008
    1UNL    C17   19   0.014   0.106   0.193
    1UNL    C18   20  -0.104   0.157   0.108
    1UNL    C19   21  -0.090  -0.032  -0.072
    1UNL     H1   22  -0.148   0.311  -0.110
    1UNL     H2   23  -0.128   0.181  -0.228
    1UNL     H3   24  -0.269   0.306  -0.231
    1UNL     H4   25  -0.342   0.071  -0.134
    1UNL     H5   26  -0.361   0.205  -0.025
    1UNL     H6   27  -0.224  -0.049   0.199
    1UNL     H7   28  -0.373   0.028   0.132
    1UNL     H8   29  -0.409  -0.126  -0.028
    1UNL     H9   30  -0.382  -0.219   0.112
    1UNL    H10   31  -0.218  -0.335  -0.006
    1UNL    H11   32  -0.241  -0.222  -0.144
    1UNL    H12   33  -0.073  -0.171   0.191
    1UNL    H13   34  -0.025  -0.318   0.121
    1UNL    H14   35   0.176  -0.260   0.040
    1UNL    H15   36   0.181  -0.204   0.215
    1UNL    H16   37   0.205   0.275   0.095
    1UNL    H17   38   0.451   0.269  -0.091
    1UNL    H18   39   0.580   0.087  -0.224
    1UNL    H19   40   0.540  -0.139  -0.193
    1UNL    H20   41   0.351  -0.219  -0.059
    1UNL    H21   42  -0.009   0.013   0.239
    1UNL    H22   43   0.036   0.173   0.282
    1UNL    H23   44  -0.062   0.229   0.052
    1UNL    H24   45  -0.175   0.213   0.169
    1UNL    H25   46  -0.124  -0.027  -0.172
    1UNL    H26   47   0.008   0.015  -0.086
   0.00000   0.00000   0.00000   0.00000   0.00000   0.00000   0.00000   0.00000   0.00000
Generated with MDTraj, t= 14.0
 47
    1UNL     C1    1  -0.202   0.245  -0.157
    1UNL     C2    2  -0.276   0.142  -0.076
    1UNL     C3    3  -0.182   0.069   0.018
    1UNL     C4    4  -0.271  -0.026   0.112
    1UNL     C5    5  -0.314  -0.146   0.038
    1UNL     C6    6  -0.204  -0.217  -0.047
    1UNL     N1    7  -0.074  -0.161  -0.017
    1UNL     C7    8  -0.022  -0.208   0.114
    1UNL     C8    9   0.131  -0.195   0.118
    1UNL     C9   10   0.185  -0.057   0.090
    1UNL    C10   11   0.127   0.066   0.115
    1UNL     N2   12   0.191   0.164   0.046
    1UNL    C11   13   0.297   0.106  -0.017
    1UNL    C12   14   0.401   0.161  -0.096
    1UNL    C13   15   0.486   0.073  -0.156
    1UNL    C14   16   0.481  -0.068  -0.140
    1UNL    C15   17   0.387  -0.121  -0.062
    1UNL    C16   18   0.296  -0.034   0.006
    1UNL    C17   19   0.008   0.102   0.196
    1UNL    C18   20  -0.096   0.161   0.108
    1UNL    C19   21  -0.083  -0.020  -0.071
    1UNL     H1   22  -0.174   0.336  -0.110
    1UNL     H2   23  -0.096   0.203  -0.183
    1UNL     H3   24  -0.252   0.274  -0.257
    1UNL     H4   25  -0.331   0.072  -0.141
    1UNL     H5   26  -0.356   0.186  -0.014
    1UNL     H6   27  -0.234  -0.051   0.211
    1UNL     H7   28  -0.360   0.042   0.130
    1UNL     H8   29  -0.391  -0.138  -0.030
    1UNL     H9   30  -0.358  -0.219   0.109
    1UNL    H10   31  -0.193  -0.323  -0.015
    1UNL    H11   32  -0.223  -0.213  -0.151
    1UNL    H12   33  -0.063  -0.164   0.211
    1UNL    H13   34  -0.047  -0.314   0.112
    1UNL    H14   35   0.186  -0.254   0.049
    1UNL    H15   36   0.161  -0.218   0.224
    1UNL    H16   37   0.164   0.262   0.035
    1UNL    H17   38   0.416   0.268  -0.098
    1UNL    H18   39   0.567   0.123  -0.216
    1UNL    H19   40   0.538  -0.134  -0.203
    1UNL    H20   41   0.382  -0.234  -0.035
    1UNL    H21   42  -0.027   0.027   0.268
    1UNL    H22   43   0.049   0.179   0.269
    1UNL    H23   44  -0.059   0.245   0.051
    1UNL    H24   45  -0.169   0.209   0.172
    1UNL    H25   46  -0.117  -0.007  -0.172
    1UNL    H26   47   0.014   0.019  -0.088
   0.00000   0.00000   0.00000   0.00000   0.00000   0.00000   0.00000   0.00000   0.00000
Generated with MDTraj, t= 15.0
 47
    1UNL     C1    1  -0.179   0.241  -0.162
    1UNL     C2    2  -0.261   0.148  -0.072
    1UNL     C3    3  -0.176   0.057   0.018
    1UNL     C4    4  -0.288  -0.028   0.099
    1UNL     C5    5  -0.345  -0.147   0.022
    1UNL     C6    6  -0.228  -0.243  -0.033
    1UNL     N1    7  -0.091  -0.176  -0.020
    1UNL     C7    8  -0.021  -0.210   0.109
    1UNL     C8    9   0.124  -0.179   0.133
    1UNL     C9   10   0.180  -0.051   0.085
    1UNL    C10   11   0.138   0.074   0.122
    1UNL     N2   12   0.213   0.170   0.059
    1UNL    C11   13   0.310   0.112  -0.020
    1UNL    C12   14   0.404   0.167  -0.108
    1UNL    C13   15   0.491   0.081  -0.168
    1UNL    C14   16   0.483  -0.057  -0.138
    1UNL    C15   17   0.386  -0.113  -0.057
    1UNL    C16   18   0.293  -0.026  -0.007
    1UNL    C17   19   0.020   0.097   0.208
    1UNL    C18   20  -0.099   0.155   0.118
    1UNL    C19   21  -0.087  -0.034  -0.066
    1UNL     H1   22  -0.100   0.301  -0.120
    1UNL     H2   23  -0.129   0.176  -0.240
    1UNL     H3   24  -0.256   0.305  -0.221
    1UNL     H4   25  -0.339   0.095  -0.128
    1UNL     H5   26  -0.318   0.206   0.003
    1UNL     H6   27  -0.235  -0.060   0.188
    1UNL     H7   28  -0.371   0.037   0.140
    1UNL     H8   29  -0.395  -0.104  -0.057
    1UNL     H9   30  -0.422  -0.215   0.068
    1UNL    H10   31  -0.219  -0.338   0.023
    1UNL    H11   32  -0.223  -0.267  -0.136
    1UNL    H12   33  -0.094  -0.149   0.174
    1UNL    H13   34  -0.041  -0.311   0.143
    1UNL    H14   35   0.177  -0.248   0.072
    1UNL    H15   36   0.158  -0.192   0.238
    1UNL    H16   37   0.213   0.269   0.067
    1UNL    H17   38   0.398   0.271  -0.131
    1UNL    H18   39   0.545   0.117  -0.249
    1UNL    H19   40   0.554  -0.112  -0.201
    1UNL    H20   41   0.379  -0.213  -0.038
    1UNL    H21   42  -0.010   0.002   0.259
    1UNL    H22   43   0.044   0.158   0.301
    1UNL    H23   44  -0.043   0.231   0.048
    1UNL    H24   45  -0.169   0.213   0.174
    1UNL    H25   46  -0.115  -0.031  -0.167
    1UNL    H26   47   0.006   0.016  -0.069
   0.00000   0.00000   0.00000   0.00000   0.00000   0.00000   0.00000   0.00000   0.00000
Generated with MDTraj, t= 16.0
 47
    1UNL     C1    1  -0.164   0.229  -0.192
    1UNL     C2    2  -0.256   0.151  -0.097
    1UNL     C3    3  -0.187   0.068   0.018
    1UNL     C4    4  -0.300  -0.015   0.095
    1UNL     C5    5  -0.342  -0.142   0.021
    1UNL     C6    6  -0.225  -0.236   0.001
    1UNL     N1    7  -0.090  -0.173   0.010
    1UNL     C7    8  -0.006  -0.218   0.125
    1UNL     C8    9   0.142  -0.199   0.102
    1UNL     C9   10   0.181  -0.055   0.073
    1UNL    C10   11   0.127   0.063   0.121
    1UNL     N2   12   0.208   0.170   0.079
    1UNL    C11   13   0.307   0.117  -0.007
    1UNL    C12   14   0.414   0.166  -0.082
    1UNL    C13   15   0.494   0.085  -0.158
    1UNL    C14   16   0.476  -0.052  -0.169
    1UNL    C15   17   0.377  -0.110  -0.087
    1UNL    C16   18   0.288  -0.023  -0.014
    1UNL    C17   19   0.003   0.091   0.200
    1UNL    C18   20  -0.108   0.160   0.122
    1UNL    C19   21  -0.084  -0.029  -0.044
    1UNL     H1   22  -0.096   0.305  -0.145
    1UNL     H2   23  -0.097   0.155  -0.236
    1UNL     H3   24  -0.226   0.275  -0.280
    1UNL     H4   25  -0.309   0.072  -0.151
    1UNL     H5   26  -0.332   0.216  -0.049
    1UNL     H6   27  -0.267  -0.049   0.192
    1UNL     H7   28  -0.384   0.058   0.116
    1UNL     H8   29  -0.376  -0.118  -0.075
    1UNL     H9   30  -0.425  -0.193   0.074
    1UNL    H10   31  -0.213  -0.331   0.058
    1UNL    H11   32  -0.228  -0.273  -0.099
    1UNL    H12   33  -0.040  -0.194   0.230
    1UNL    H13   34  -0.019  -0.327   0.113
    1UNL    H14   35   0.163  -0.261   0.017
    1UNL    H15   36   0.203  -0.231   0.188
    1UNL    H16   37   0.202   0.265   0.101
    1UNL    H17   38   0.416   0.277  -0.082
    1UNL    H18   39   0.579   0.132  -0.213
    1UNL    H19   40   0.536  -0.119  -0.223
    1UNL    H20   41   0.367  -0.217  -0.092
    1UNL    H21   42  -0.045   0.004   0.254
    1UNL    H22   43   0.028   0.157   0.288
    1UNL    H23   44  -0.044   0.250   0.075
    1UNL    H24   45  -0.174   0.201   0.196
    1UNL    H25   46  -0.097  -0.025  -0.145
    1UNL    H26   47   0.015   0.011  -0.034
   0.00000   0.00000   0.00000   0.00000   0.00000   0.00000   0.00000   0.00000   0.00000
Generated with MDTraj, t= 17.0
 47
    1UNL     C1    1  -0.153   0.223  -0.196
    1UNL     C2    2  -0.243   0.141  -0.108
    1UNL     C3    3  -0.176   0.056   0.014
    1UNL     C4    4  -0.282   0.001   0.112
    1UNL     C5    5  -0.348  -0.128   0.045
    1UNL     C6    6  -0.254  -0.242   0.028
    1UNL     N1    7  -0.117  -0.199  -0.004
    1UNL     C7    8  -0.030  -0.221   0.117
    1UNL     C8    9   0.124  -0.195   0.085
    1UNL     C9   10   0.180  -0.057   0.072
    1UNL    C10   11   0.135   0.057   0.135
    1UNL     N2   12   0.214   0.158   0.085
    1UNL    C11   13   0.316   0.110   0.003
    1UNL    C12   14   0.418   0.184  -0.068
    1UNL    C13   15   0.492   0.117  -0.161
    1UNL    C14   16   0.480  -0.026  -0.168
    1UNL    C15   17   0.385  -0.093  -0.092
    1UNL    C16   18   0.297  -0.027  -0.009
    1UNL    C17   19   0.008   0.091   0.194
    1UNL    C18   20  -0.088   0.156   0.097
    1UNL    C19   21  -0.095  -0.060  -0.064
    1UNL     H1   22  -0.091   0.305  -0.145
    1UNL     H2   23  -0.080   0.155  -0.240
    1UNL     H3   24  -0.212   0.270  -0.281
    1UNL     H4   25  -0.304   0.075  -0.168
    1UNL     H5   26  -0.309   0.210  -0.052
    1UNL     H6   27  -0.244  -0.014   0.212
    1UNL     H7   28  -0.371   0.071   0.119
    1UNL     H8   29  -0.387  -0.099  -0.049
    1UNL     H9   30  -0.431  -0.166   0.109
    1UNL    H10   31  -0.239  -0.299   0.122
    1UNL    H11   32  -0.276  -0.321  -0.041
    1UNL    H12   33  -0.052  -0.155   0.196
    1UNL    H13   34  -0.038  -0.324   0.155
    1UNL    H14   35   0.145  -0.251  -0.003
    1UNL    H15   36   0.162  -0.252   0.169
    1UNL    H16   37   0.190   0.250   0.104
    1UNL    H17   38   0.432   0.287  -0.058
    1UNL    H18   39   0.572   0.171  -0.203
    1UNL    H19   40   0.551  -0.085  -0.230
    1UNL    H20   41   0.380  -0.210  -0.098
    1UNL    H21   42  -0.046   0.008   0.240
    1UNL    H22   43   0.022   0.160   0.283
    1UNL    H23   44  -0.026   0.216   0.027
    1UNL    H24   45  -0.152   0.225   0.153
    1UNL    H25   46  -0.140  -0.065  -0.155
    1UNL    H26   47   0.012  -0.035  -0.079
   0.00000   0.00000   0.00000   0.00000   0.00000   0.00000   0.00000   0.00000   0.00000
Generated with MDTraj, t= 18.0
 47
    1UNL     C1    1  -0.178   0.198  -0.211
    1UNL     C2    2  -0.270   0.151  -0.101
    1UNL     C3    3  -0.190   0.071   0.010
    1UNL     C4    4  -0.292   0.008   0.105
    1UNL     C5    5  -0.355  -0.132   0.049
    1UNL     C6    6  -0.246  -0.239   0.032
    1UNL     N1    7  -0.110  -0.177   0.021
    1UNL     C7    8  -0.007  -0.235   0.108
    1UNL     C8    9   0.132  -0.203   0.062
    1UNL     C9   10   0.181  -0.058   0.059
    1UNL    C10   11   0.136   0.059   0.121
    1UNL     N2   12   0.220   0.163   0.083
    1UNL    C11   13   0.326   0.115   0.011
    1UNL    C12   14   0.431   0.178  -0.057
    1UNL    C13   15   0.512   0.104  -0.143
    1UNL    C14   16   0.482  -0.031  -0.164
    1UNL    C15   17   0.384  -0.095  -0.091
    1UNL    C16   18   0.303  -0.023  -0.001
    1UNL    C17   19   0.002   0.080   0.188
    1UNL    C18   20  -0.093   0.168   0.099
    1UNL    C19   21  -0.102  -0.046  -0.056
    1UNL     H1   22  -0.092   0.276  -0.190
    1UNL     H2   23  -0.129   0.109  -0.252
    1UNL     H3   24  -0.242   0.235  -0.293
    1UNL     H4   25  -0.349   0.087  -0.141
    1UNL     H5   26  -0.316   0.238  -0.051
    1UNL     H6   27  -0.259  -0.011   0.205
    1UNL     H7   28  -0.375   0.084   0.114
    1UNL     H8   29  -0.403  -0.116  -0.044
    1UNL     H9   30  -0.426  -0.175   0.121
    1UNL    H10   31  -0.237  -0.308   0.119
    1UNL    H11   32  -0.251  -0.317  -0.044
    1UNL    H12   33  -0.027  -0.209   0.208
    1UNL    H13   34  -0.014  -0.344   0.090
    1UNL    H14   35   0.138  -0.232  -0.044
    1UNL    H15   36   0.208  -0.264   0.113
    1UNL    H16   37   0.209   0.255   0.115
    1UNL    H17   38   0.450   0.281  -0.018
    1UNL    H18   39   0.595   0.141  -0.203
    1UNL    H19   40   0.542  -0.081  -0.232
    1UNL    H20   41   0.371  -0.194  -0.112
    1UNL    H21   42  -0.039  -0.017   0.216
    1UNL    H22   43   0.025   0.136   0.284
    1UNL    H23   44  -0.048   0.237   0.042
    1UNL    H24   45  -0.166   0.228   0.157
    1UNL    H25   46  -0.144  -0.075  -0.146
    1UNL    H26   47  -0.001  -0.006  -0.069
   0.00000   0.00000   0.00000   0.00000   0.00000   0.00000   0.00000   0.00000   0.00000
Generated with MDTraj, t= 19.0
 47
    1UNL     C1    1  -0.186   0.205  -0.200
    1UNL     C2    2  -0.274   0.150  -0.081
    1UNL     C3    3  -0.199   0.057   0.013
    1UNL     C4    4  -0.304  -0.005   0.113
    1UNL     C5    5  -0.363  -0.133   0.061
    1UNL     C6    6  -0.258  -0.238   0.052
    1UNL     N1    7  -0.123  -0.182   0.018
    1UNL     C7    8  -0.015  -0.226   0.105
    1UNL     C8    9   0.123  -0.196   0.054
    1UNL     C9   10   0.183  -0.055   0.039
    1UNL    C10   11   0.136   0.061   0.093
    1UNL     N2   12   0.223   0.167   0.078
    1UNL    C11   13   0.321   0.117  -0.008
    1UNL    C12   14   0.441   0.181  -0.055
    1UNL    C13   15   0.536   0.104  -0.112
    1UNL    C14   16   0.520  -0.035  -0.129
    1UNL    C15   17   0.400  -0.093  -0.095
    1UNL    C16   18   0.301  -0.018  -0.029
    1UNL    C17   19   0.017   0.089   0.172
    1UNL    C18   20  -0.092   0.156   0.087
    1UNL    C19   21  -0.120  -0.049  -0.063
    1UNL     H1   22  -0.077   0.247  -0.192
    1UNL     H2   23  -0.178   0.122  -0.276
    1UNL     H3   24  -0.251   0.272  -0.255
    1UNL     H4   25  -0.359   0.095  -0.122
    1UNL     H5   26  -0.315   0.234  -0.021
    1UNL     H6   27  -0.253  -0.031   0.204
    1UNL     H7   28  -0.385   0.067   0.143
    1UNL     H8   29  -0.395  -0.125  -0.043
    1UNL     H9   30  -0.442  -0.176   0.124
    1UNL    H10   31  -0.249  -0.310   0.137
    1UNL    H11   32  -0.291  -0.303  -0.030
    1UNL    H12   33  -0.027  -0.192   0.203
    1UNL    H13   34  -0.040  -0.335   0.103
    1UNL    H14   35   0.135  -0.244  -0.044
    1UNL    H15   36   0.204  -0.241   0.112
    1UNL    H16   37   0.220   0.264   0.104
    1UNL    H17   38   0.464   0.281  -0.034
    1UNL    H18   39   0.622   0.163  -0.144
    1UNL    H19   40   0.602  -0.090  -0.183
    1UNL    H20   41   0.388  -0.198  -0.107
    1UNL    H21   42  -0.018  -0.010   0.216
    1UNL    H22   43   0.053   0.156   0.256
    1UNL    H23   44  -0.053   0.227   0.023
    1UNL    H24   45  -0.153   0.217   0.158
    1UNL    H25   46  -0.170  -0.059  -0.158
    1UNL    H26   47  -0.017  -0.023  -0.074
   0.00000   0.00000   0.00000   0.00000   0.00000   0.00000   0.00000   0.00000   0.00000
Generated with MDTraj, t= 20.0
 47
    1UNL     C1    1  -0.218   0.215  -0.187
    1UNL     C2    2  -0.298   0.138  -0.086
    1UNL     C3    3  -0.200   0.064   0.018
    1UNL     C4    4  -0.289  -0.004   0.128
    1UNL     C5    5  -0.364  -0.139   0.088
    1UNL     C6    6  -0.248  -0.242   0.044
    1UNL     N1    7  -0.124  -0.175   0.001
    1UNL     C7    8  -0.006  -0.227   0.084
    1UNL     C8    9   0.128  -0.190   0.024
    1UNL     C9   10   0.176  -0.056   0.038
    1UNL    C10   11   0.130   0.067   0.087
    1UNL     N2   12   0.224   0.162   0.054
    1UNL    C11   13   0.338   0.112  -0.001
    1UNL    C12   14   0.448   0.175  -0.049
    1UNL    C13   15   0.543   0.099  -0.106
    1UNL    C14   16   0.522  -0.041  -0.108
    1UNL    C15   17   0.409  -0.108  -0.070
    1UNL    C16   18   0.311  -0.028  -0.013
    1UNL    C17   19   0.010   0.101   0.159
    1UNL    C18   20  -0.102   0.164   0.080
    1UNL    C19   21  -0.118  -0.041  -0.060
    1UNL     H1   22  -0.177   0.316  -0.152
    1UNL     H2   23  -0.124   0.157  -0.223
    1UNL     H3   24  -0.276   0.230  -0.278
    1UNL     H4   25  -0.374   0.074  -0.132
    1UNL     H5   26  -0.357   0.216  -0.033
    1UNL     H6   27  -0.221  -0.026   0.209
    1UNL     H7   28  -0.363   0.063   0.175
    1UNL     H8   29  -0.412  -0.126  -0.008
    1UNL     H9   30  -0.430  -0.189   0.159
    1UNL    H10   31  -0.230  -0.311   0.129
    1UNL    H11   32  -0.268  -0.310  -0.041
    1UNL    H12   33  -0.018  -0.183   0.181
    1UNL    H13   34  -0.007  -0.337   0.100
    1UNL    H14   35   0.135  -0.219  -0.082
    1UNL    H15   36   0.196  -0.258   0.074
    1UNL    H16   37   0.221   0.262   0.080
    1UNL    H17   38   0.435   0.284  -0.056
    1UNL    H18   39   0.626   0.146  -0.153
    1UNL    H19   40   0.596  -0.093  -0.161
    1UNL    H20   41   0.401  -0.222  -0.103
    1UNL    H21   42  -0.039   0.015   0.217
    1UNL    H22   43   0.037   0.180   0.237
    1UNL    H23   44  -0.049   0.218  -0.007
    1UNL    H24   45  -0.150   0.238   0.144
    1UNL    H25   46  -0.146  -0.058  -0.165
    1UNL    H26   47  -0.018  -0.010  -0.058
   0.00000   0.00000   0.00000   0.00000   0.00000   0.00000   0.00000   0.00000   0.00000
Generated with MDTraj, t= 21.0
 47
    1UNL     C1    1  -0.266   0.231  -0.180
    1UNL     C2    2  -0.315   0.137  -0.072
    1UNL     C3    3  -0.207   0.060   0.014
    1UNL     C4    4  -0.284  -0.015   0.130
    1UNL     C5    5  -0.358  -0.139   0.077
    1UNL     C6    6  -0.256  -0.250   0.032
    1UNL     N1    7  -0.127  -0.184  -0.007
    1UNL     C7    8  -0.020  -0.207   0.094
    1UNL     C8    9   0.131  -0.189   0.055
    1UNL     C9   10   0.191  -0.048   0.042
    1UNL    C10   11   0.138   0.069   0.086
    1UNL     N2   12   0.229   0.171   0.066
    1UNL    C11   13   0.342   0.116   0.003
    1UNL    C12   14   0.468   0.164  -0.043
    1UNL    C13   15   0.561   0.082  -0.099
    1UNL    C14   16   0.536  -0.047  -0.125
    1UNL    C15   17   0.418  -0.103  -0.076
    1UNL    C16   18   0.317  -0.022  -0.015
    1UNL    C17   19   0.011   0.112   0.151
    1UNL    C18   20  -0.095   0.161   0.059
    1UNL    C19   21  -0.126  -0.049  -0.073
    1UNL     H1   22  -0.190   0.301  -0.141
    1UNL     H2   23  -0.214   0.172  -0.265
    1UNL     H3   24  -0.348   0.288  -0.229
    1UNL     H4   25  -0.386   0.071  -0.122
    1UNL     H5   26  -0.384   0.198  -0.009
    1UNL     H6   27  -0.228  -0.045   0.220
    1UNL     H7   28  -0.355   0.056   0.174
    1UNL     H8   29  -0.429  -0.122  -0.005
    1UNL     H9   30  -0.407  -0.187   0.160
    1UNL    H10   31  -0.238  -0.327   0.111
    1UNL    H11   32  -0.307  -0.306  -0.050
    1UNL    H12   33  -0.039  -0.173   0.195
    1UNL    H13   34  -0.033  -0.319   0.097
    1UNL    H14   35   0.144  -0.240  -0.042
    1UNL    H15   36   0.184  -0.251   0.126
    1UNL    H16   37   0.220   0.276   0.075
    1UNL    H17   38   0.489   0.269  -0.037
    1UNL    H18   39   0.660   0.123  -0.130
    1UNL    H19   40   0.615  -0.113  -0.165
    1UNL    H20   41   0.384  -0.199  -0.085
    1UNL    H21   42  -0.033   0.033   0.213
    1UNL    H22   43   0.031   0.190   0.236
    1UNL    H23   44  -0.041   0.212  -0.037
    1UNL    H24   45  -0.148   0.244   0.106
    1UNL    H25   46  -0.185  -0.064  -0.165
    1UNL    H26   47  -0.025  -0.039  -0.102
   0.00000   0.00000   0.00000   0.00000   0.00000   0.00000   0.00000   0.00000   0.00000
Generated with MDTraj, t= 22.0
 47
    1UNL     C1    1  -0.252   0.203  -0.195
    1UNL     C2    2  -0.308   0.124  -0.076
    1UNL     C3    3  -0.204   0.061   0.018
    1UNL     C4    4  -0.273  -0.019   0.138
    1UNL     C5    5  -0.332  -0.155   0.102
    1UNL     C6    6  -0.248  -0.234   0.001
    1UNL     N1    7  -0.113  -0.180  -0.021
    1UNL     C7    8  -0.017  -0.208   0.088
    1UNL     C8    9   0.121  -0.177   0.040
    1UNL     C9   10   0.176  -0.039   0.041
    1UNL    C10   11   0.138   0.083   0.097
    1UNL     N2   12   0.230   0.176   0.057
    1UNL    C11   13   0.339   0.117  -0.008
    1UNL    C12   14   0.468   0.158  -0.043
    1UNL    C13   15   0.561   0.068  -0.095
    1UNL    C14   16   0.518  -0.066  -0.111
    1UNL    C15   17   0.395  -0.106  -0.080
    1UNL    C16   18   0.303  -0.015  -0.025
    1UNL    C17   19   0.010   0.116   0.166
    1UNL    C18   20  -0.112   0.177   0.083
    1UNL    C19   21  -0.113  -0.034  -0.062
    1UNL     H1   22  -0.217   0.302  -0.168
    1UNL     H2   23  -0.173   0.156  -0.262
    1UNL     H3   24  -0.339   0.223  -0.267
    1UNL     H4   25  -0.380   0.048  -0.111
    1UNL     H5   26  -0.386   0.184  -0.022
    1UNL     H6   27  -0.220  -0.012   0.236
    1UNL     H7   28  -0.366   0.035   0.160
    1UNL     H8   29  -0.429  -0.134   0.053
    1UNL     H9   30  -0.356  -0.214   0.187
    1UNL    H10   31  -0.243  -0.340   0.038
    1UNL    H11   32  -0.296  -0.245  -0.098
    1UNL    H12   33  -0.051  -0.148   0.177
    1UNL    H13   34  -0.033  -0.313   0.119
    1UNL    H14   35   0.121  -0.222  -0.061
    1UNL    H15   36   0.202  -0.228   0.090
    1UNL    H16   37   0.226   0.275   0.098
    1UNL    H17   38   0.506   0.256  -0.021
    1UNL    H18   39   0.663   0.090  -0.109
    1UNL    H19   40   0.583  -0.142  -0.146
    1UNL    H20   41   0.387  -0.212  -0.080
    1UNL    H21   42  -0.021   0.039   0.232
    1UNL    H22   43   0.032   0.188   0.258
    1UNL    H23   44  -0.081   0.245  -0.008
    1UNL    H24   45  -0.184   0.239   0.135
    1UNL    H25   46  -0.148  -0.055  -0.166
    1UNL    H26   47  -0.017   0.007  -0.074
   0.00000   0.00000   0.00000   0.00000   0.00000   0.00000   0.00000   0.00000   0.00000
Generated with MDTraj, t= 23.0
 47
    1UNL     C1    1  -0.261   0.208  -0.192
    1UNL     C2    2  -0.311   0.134  -0.061
    1UNL     C3    3  -0.195   0.062   0.009
    1UNL     C4    4  -0.269  -0.009   0.129
    1UNL     C5    5  -0.333  -0.145   0.084
    1UNL     C6    6  -0.243  -0.236  -0.008
    1UNL     N1    7  -0.110  -0.177  -0.025
    1UNL     C7    8  -0.030  -0.202   0.096
    1UNL     C8    9   0.122  -0.190   0.083
    1UNL     C9   10   0.180  -0.053   0.054
    1UNL    C10   11   0.138   0.073   0.097
    1UNL     N2   12   0.224   0.168   0.049
    1UNL    C11   13   0.333   0.106  -0.010
    1UNL    C12   14   0.451   0.171  -0.057
    1UNL    C13   15   0.544   0.086  -0.108
    1UNL    C14   16   0.522  -0.051  -0.119
    1UNL    C15   17   0.410  -0.110  -0.069
    1UNL    C16   18   0.310  -0.033  -0.007
    1UNL    C17   19   0.017   0.105   0.171
    1UNL    C18   20  -0.095   0.165   0.079
    1UNL    C19   21  -0.120  -0.035  -0.079
    1UNL     H1   22  -0.187   0.282  -0.166
    1UNL     H2   23  -0.223   0.143  -0.275
    1UNL     H3   24  -0.351   0.271  -0.232
    1UNL     H4   25  -0.399   0.071  -0.085
    1UNL     H5   26  -0.370   0.200   0.010
    1UNL     H6   27  -0.199  -0.017   0.216
    1UNL     H7   28  -0.342   0.062   0.166
    1UNL     H8   29  -0.424  -0.111   0.030
    1UNL     H9   30  -0.375  -0.200   0.162
    1UNL    H10   31  -0.236  -0.345   0.012
    1UNL    H11   32  -0.283  -0.228  -0.112
    1UNL    H12   33  -0.068  -0.132   0.177
    1UNL    H13   34  -0.057  -0.304   0.129
    1UNL    H14   35   0.159  -0.256  -0.000
    1UNL    H15   36   0.169  -0.230   0.171
    1UNL    H16   37   0.217   0.272   0.077
    1UNL    H17   38   0.481   0.272  -0.031
    1UNL    H18   39   0.640   0.127  -0.148
    1UNL    H19   40   0.603  -0.106  -0.170
    1UNL    H20   41   0.389  -0.226  -0.068
    1UNL    H21   42  -0.019   0.034   0.238
    1UNL    H22   43   0.039   0.191   0.248
    1UNL    H23   44  -0.056   0.235   0.005
    1UNL    H24   45  -0.161   0.222   0.146
    1UNL    H25   46  -0.154  -0.038  -0.183
    1UNL    H26   47  -0.014  -0.007  -0.083
   0.00000   0.00000   0.00000   0.00000   0.00000   0.00000   0.00000   0.00000   0.00000
Generated with MDTraj, t= 24.0
 47
    1UNL     C1    1  -0.214   0.227  -0.176
    1UNL     C2    2  -0.282   0.137  -0.076
    1UNL     C3    3  -0.192   0.062   0.023
    1UNL     C4    4  -0.290  -0.023   0.117
    1UNL     C5    5  -0.345  -0.146   0.050
    1UNL     C6    6  -0.237  -0.241   0.008
    1UNL     N1    7  -0.108  -0.171  -0.005
    1UNL     C7    8  -0.014  -0.215   0.100
    1UNL     C8    9   0.136  -0.192   0.070
    1UNL     C9   10   0.182  -0.047   0.064
    1UNL    C10   11   0.128   0.077   0.086
    1UNL     N2   12   0.213   0.179   0.053
    1UNL    C11   13   0.324   0.121  -0.010
    1UNL    C12   14   0.436   0.163  -0.082
    1UNL    C13   15   0.523   0.074  -0.138
    1UNL    C14   16   0.508  -0.062  -0.117
    1UNL    C15   17   0.403  -0.112  -0.051
    1UNL    C16   18   0.307  -0.020   0.003
    1UNL    C17   19   0.012   0.109   0.176
    1UNL    C18   20  -0.108   0.161   0.102
    1UNL    C19   21  -0.106  -0.035  -0.073
    1UNL     H1   22  -0.168   0.313  -0.126
    1UNL     H2   23  -0.143   0.174  -0.239
    1UNL     H3   24  -0.298   0.277  -0.241
    1UNL     H4   25  -0.346   0.059  -0.123
    1UNL     H5   26  -0.372   0.191  -0.033
    1UNL     H6   27  -0.223  -0.062   0.200
    1UNL     H7   28  -0.359   0.049   0.160
    1UNL     H8   29  -0.405  -0.119  -0.041
    1UNL     H9   30  -0.424  -0.178   0.110
    1UNL    H10   31  -0.224  -0.327   0.076
    1UNL    H11   32  -0.257  -0.285  -0.090
    1UNL    H12   33  -0.037  -0.171   0.200
    1UNL    H13   34  -0.018  -0.326   0.099
    1UNL    H14   35   0.175  -0.230  -0.028
    1UNL    H15   36   0.189  -0.244   0.148
    1UNL    H16   37   0.191   0.282   0.054
    1UNL    H17   38   0.443   0.269  -0.084
    1UNL    H18   39   0.600   0.107  -0.201
    1UNL    H19   40   0.580  -0.134  -0.161
    1UNL    H20   41   0.376  -0.211  -0.049
    1UNL    H21   42  -0.015   0.020   0.224
    1UNL    H22   43   0.044   0.192   0.255
    1UNL    H23   44  -0.072   0.234   0.044
    1UNL    H24   45  -0.179   0.207   0.173
    1UNL    H25   46  -0.146  -0.048  -0.173
    1UNL    H26   47   0.003  -0.008  -0.094
   0.00000   0.00000   0.00000   0.00000   0.00000   0.00000   0.00000   0.00000   0.00000
Generated with MDTraj, t= 25.0
 47
    1UNL     C1    1  -0.171   0.234  -0.176
    1UNL     C2    2  -0.262   0.146  -0.103
    1UNL     C3    3  -0.189   0.064   0.016
    1UNL     C4    4  -0.292  -0.014   0.104
    1UNL     C5    5  -0.354  -0.139   0.037
    1UNL     C6    6  -0.236  -0.235   0.002
    1UNL     N1    7  -0.097  -0.180   0.010
    1UNL     C7    8  -0.014  -0.210   0.129
    1UNL     C8    9   0.133  -0.190   0.114
    1UNL     C9   10   0.176  -0.066   0.057
    1UNL    C10   11   0.129   0.059   0.109
    1UNL     N2   12   0.207   0.160   0.054
    1UNL    C11   13   0.310   0.108  -0.018
    1UNL    C12   14   0.410   0.180  -0.085
    1UNL    C13   15   0.506   0.104  -0.143
    1UNL    C14   16   0.499  -0.040  -0.132
    1UNL    C15   17   0.394  -0.109  -0.079
    1UNL    C16   18   0.297  -0.035  -0.021
    1UNL    C17   19   0.012   0.091   0.194
    1UNL    C18   20  -0.102   0.156   0.106
    1UNL    C19   21  -0.095  -0.048  -0.060
    1UNL     H1   22  -0.155   0.326  -0.110
    1UNL     H2   23  -0.077   0.187  -0.203
    1UNL     H3   24  -0.220   0.279  -0.267
    1UNL     H4   25  -0.326   0.085  -0.169
    1UNL     H5   26  -0.349   0.203  -0.057
    1UNL     H6   27  -0.236  -0.033   0.199
    1UNL     H7   28  -0.372   0.056   0.124
    1UNL     H8   29  -0.420  -0.101  -0.047
    1UNL     H9   30  -0.427  -0.183   0.096
    1UNL    H10   31  -0.244  -0.313   0.080
    1UNL    H11   32  -0.246  -0.282  -0.097
    1UNL    H12   33  -0.055  -0.150   0.211
    1UNL    H13   34  -0.031  -0.317   0.151
    1UNL    H14   35   0.171  -0.279   0.055
    1UNL    H15   36   0.190  -0.187   0.205
    1UNL    H16   37   0.205   0.261   0.076
    1UNL    H17   38   0.397   0.285  -0.116
    1UNL    H18   39   0.587   0.163  -0.194
    1UNL    H19   40   0.572  -0.089  -0.186
    1UNL    H20   41   0.388  -0.213  -0.096
    1UNL    H21   42  -0.025   0.009   0.258
    1UNL    H22   43   0.055   0.171   0.268
    1UNL    H23   44  -0.060   0.222   0.038
    1UNL    H24   45  -0.166   0.217   0.171
    1UNL    H25   46  -0.130  -0.065  -0.161
    1UNL    H26   47   0.017  -0.023  -0.071
   0.00000   0.00000   0.00000   0.00000   0.00000   0.00000   0.00000   0.00000   0.00000
Generated with MDTraj, t= 26.0
 47
    1UNL     C1    1  -0.151   0.212  -0.205
    1UNL     C2    2  -0.249   0.152  -0.090
    1UNL     C3    3  -0.178   0.058   0.013
    1UNL     C4    4  -0.289  -0.017   0.100
    1UNL     C5    5  -0.340  -0.136   0.017
    1UNL     C6    6  -0.225  -0.240   0.002
    1UNL     N1    7  -0.090  -0.183  -0.004
    1UNL     C7    8  -0.009  -0.218   0.115
    1UNL     C8    9   0.140  -0.196   0.104
    1UNL     C9   10   0.187  -0.049   0.090
    1UNL    C10   11   0.132   0.070   0.131
    1UNL     N2   12   0.212   0.176   0.090
    1UNL    C11   13   0.305   0.123   0.003
    1UNL    C12   14   0.396   0.174  -0.093
    1UNL    C13   15   0.471   0.082  -0.171
    1UNL    C14   16   0.462  -0.055  -0.164
    1UNL    C15   17   0.376  -0.108  -0.068
    1UNL    C16   18   0.293  -0.014   0.003
    1UNL    C17   19   0.006   0.103   0.205
    1UNL    C18   20  -0.100   0.155   0.107
    1UNL    C19   21  -0.088  -0.045  -0.061
    1UNL     H1   22  -0.068   0.277  -0.151
    1UNL     H2   23  -0.105   0.136  -0.270
    1UNL     H3   24  -0.206   0.285  -0.265
    1UNL     H4   25  -0.337   0.099  -0.131
    1UNL     H5   26  -0.302   0.235  -0.036
    1UNL     H6   27  -0.253  -0.051   0.200
    1UNL     H7   28  -0.364   0.061   0.114
    1UNL     H8   29  -0.376  -0.107  -0.087
    1UNL     H9   30  -0.425  -0.169   0.067
    1UNL    H10   31  -0.236  -0.310   0.086
    1UNL    H11   32  -0.252  -0.284  -0.094
    1UNL    H12   33  -0.052  -0.170   0.200
    1UNL    H13   34  -0.033  -0.325   0.137
    1UNL    H14   35   0.169  -0.239   0.001
    1UNL    H15   36   0.200  -0.251   0.173
    1UNL    H16   37   0.197   0.278   0.095
    1UNL    H17   38   0.405   0.279  -0.100
    1UNL    H18   39   0.539   0.116  -0.244
    1UNL    H19   40   0.541  -0.122  -0.213
    1UNL    H20   41   0.381  -0.221  -0.041
    1UNL    H21   42  -0.025   0.001   0.252
    1UNL    H22   43   0.031   0.167   0.298
    1UNL    H23   44  -0.061   0.248   0.057
    1UNL    H24   45  -0.182   0.195   0.168
    1UNL    H25   46  -0.141  -0.064  -0.156
    1UNL    H26   47   0.011  -0.002  -0.081
   0.00000   0.00000   0.00000   0.00000   0.00000   0.00000   0.00000   0.00000   0.00000
Generated with MDTraj, t= 27.0
 47
    1UNL     C1    1  -0.150   0.204  -0.201
    1UNL     C2    2  -0.242   0.143  -0.099
    1UNL     C3    3  -0.168   0.063   0.007
    1UNL     C4    4  -0.279  -0.009   0.095
    1UNL     C5    5  -0.333  -0.138   0.025
    1UNL     C6    6  -0.223  -0.236  -0.024
    1UNL     N1    7  -0.085  -0.184  -0.001
    1UNL     C7    8  -0.021  -0.213   0.137
    1UNL     C8    9   0.135  -0.193   0.141
    1UNL     C9   10   0.181  -0.054   0.097
    1UNL    C10   11   0.126   0.066   0.137
    1UNL     N2   12   0.206   0.162   0.078
    1UNL    C11   13   0.306   0.113  -0.002
    1UNL    C12   14   0.401   0.176  -0.083
    1UNL    C13   15   0.472   0.101  -0.171
    1UNL    C14   16   0.450  -0.041  -0.183
    1UNL    C15   17   0.364  -0.106  -0.091
    1UNL    C16   18   0.287  -0.032   0.002
    1UNL    C17   19   0.001   0.099   0.210
    1UNL    C18   20  -0.099   0.160   0.110
    1UNL    C19   21  -0.075  -0.043  -0.060
    1UNL     H1   22  -0.081   0.282  -0.150
    1UNL     H2   23  -0.084   0.137  -0.264
    1UNL     H3   24  -0.203   0.269  -0.268
    1UNL     H4   25  -0.316   0.083  -0.156
    1UNL     H5   26  -0.305   0.220  -0.045
    1UNL     H6   27  -0.229  -0.028   0.190
    1UNL     H7   28  -0.361   0.059   0.117
    1UNL     H8   29  -0.385  -0.085  -0.063
    1UNL     H9   30  -0.410  -0.187   0.074
    1UNL    H10   31  -0.246  -0.330   0.025
    1UNL    H11   32  -0.244  -0.241  -0.131
    1UNL    H12   33  -0.063  -0.159   0.212
    1UNL    H13   34  -0.041  -0.317   0.171
    1UNL    H14   35   0.186  -0.267   0.069
    1UNL    H15   36   0.159  -0.218   0.242
    1UNL    H16   37   0.194   0.259   0.100
    1UNL    H17   38   0.427   0.282  -0.073
    1UNL    H18   39   0.549   0.147  -0.235
    1UNL    H19   40   0.495  -0.096  -0.256
    1UNL    H20   41   0.367  -0.208  -0.085
    1UNL    H21   42  -0.039   0.018   0.280
    1UNL    H22   43   0.038   0.181   0.282
    1UNL    H23   44  -0.036   0.244   0.061
    1UNL    H24   45  -0.174   0.217   0.165
    1UNL    H25   46  -0.105  -0.050  -0.169
    1UNL    H26   47   0.025  -0.011  -0.056
   0.00000   0.00000   0.00000   0.00000   0.00000   0.00000   0.00000   0.00000   0.00000
Generated with MDTraj, t= 28.0
 47
    1UNL     C1    1  -0.161   0.239  -0.175
    1UNL     C2    2  -0.248   0.143  -0.096
    1UNL     C3    3  -0.173   0.056   0.011
    1UNL     C4    4  -0.282  -0.022   0.096
    1UNL     C5    5  -0.333  -0.148   0.021
    1UNL     C6    6  -0.218  -0.246  -0.023
    1UNL     N1    7  -0.084  -0.182  -0.010
    1UNL     C7    8  -0.019  -0.210   0.125
    1UNL     C8    9   0.138  -0.182   0.134
    1UNL     C9   10   0.177  -0.047   0.092
    1UNL    C10   11   0.135   0.078   0.140
    1UNL     N2   12   0.210   0.172   0.072
    1UNL    C11   13   0.301   0.113  -0.010
    1UNL    C12   14   0.404   0.165  -0.094
    1UNL    C13   15   0.477   0.083  -0.172
    1UNL    C14   16   0.458  -0.057  -0.157
    1UNL    C15   17   0.364  -0.112  -0.079
    1UNL    C16   18   0.285  -0.023  -0.001
    1UNL    C17   19   0.004   0.111   0.210
    1UNL    C18   20  -0.104   0.155   0.110
    1UNL    C19   21  -0.073  -0.045  -0.071
    1UNL     H1   22  -0.128   0.324  -0.119
    1UNL     H2   23  -0.067   0.183  -0.217
    1UNL     H3   24  -0.213   0.280  -0.263
    1UNL     H4   25  -0.289   0.074  -0.172
    1UNL     H5   26  -0.328   0.209  -0.052
    1UNL     H6   27  -0.245  -0.051   0.193
    1UNL     H7   28  -0.360   0.052   0.116
    1UNL     H8   29  -0.404  -0.119  -0.064
    1UNL     H9   30  -0.398  -0.186   0.095
    1UNL    H10   31  -0.231  -0.337   0.036
    1UNL    H11   32  -0.229  -0.275  -0.127
    1UNL    H12   33  -0.071  -0.164   0.205
    1UNL    H13   34  -0.035  -0.317   0.151
    1UNL    H14   35   0.166  -0.274   0.070
    1UNL    H15   36   0.169  -0.192   0.234
    1UNL    H16   37   0.204   0.265   0.105
    1UNL    H17   38   0.417   0.271  -0.091
    1UNL    H18   39   0.546   0.127  -0.240
    1UNL    H19   40   0.507  -0.122  -0.235
    1UNL    H20   41   0.336  -0.216  -0.090
    1UNL    H21   42  -0.022   0.020   0.268
    1UNL    H22   43   0.028   0.193   0.288
    1UNL    H23   44  -0.050   0.231   0.038
    1UNL    H24   45  -0.170   0.222   0.164
    1UNL    H25   46  -0.088  -0.057  -0.184
    1UNL    H26   47   0.025  -0.008  -0.062
   0.00000   0.00000   0.00000   0.00000   0.00000   0.00000   0.00000   0.00000   0.00000
Generated with MDTraj, t= 29.0
 47
    1UNL     C1    1  -0.194   0.253  -0.173
    1UNL     C2    2  -0.271   0.150  -0.088
    1UNL     C3    3  -0.189   0.066   0.020
    1UNL     C4    4  -0.293  -0.031   0.099
    1UNL     C5    5  -0.333  -0.156   0.013
    1UNL     C6    6  -0.210  -0.237  -0.023
    1UNL     N1    7  -0.084  -0.160  -0.005
    1UNL     C7    8  -0.006  -0.212   0.118
    1UNL     C8    9   0.146  -0.196   0.124
    1UNL     C9   10   0.190  -0.053   0.084
    1UNL    C10   11   0.136   0.073   0.124
    1UNL     N2   12   0.207   0.180   0.063
    1UNL    C11   13   0.298   0.112  -0.021
    1UNL    C12   14   0.398   0.156  -0.107
    1UNL    C13   15   0.486   0.070  -0.162
    1UNL    C14   16   0.487  -0.069  -0.139
    1UNL    C15   17   0.391  -0.117  -0.055
    1UNL    C16   18   0.296  -0.029   0.001
    1UNL    C17   19   0.009   0.103   0.194
    1UNL    C18   20  -0.112   0.162   0.115
    1UNL    C19   21  -0.087  -0.024  -0.059
    1UNL     H1   22  -0.165   0.343  -0.128
    1UNL     H2   23  -0.095   0.206  -0.210
    1UNL     H3   24  -0.247   0.279  -0.269
    1UNL     H4   25  -0.322   0.077  -0.154
    1UNL     H5   26  -0.344   0.213  -0.029
    1UNL     H6   27  -0.243  -0.059   0.191
    1UNL     H7   28  -0.380   0.026   0.127
    1UNL     H8   29  -0.392  -0.115  -0.075
    1UNL     H9   30  -0.406  -0.211   0.066
    1UNL    H10   31  -0.197  -0.314   0.051
    1UNL    H11   32  -0.228  -0.283  -0.119
    1UNL    H12   33  -0.060  -0.176   0.215
    1UNL    H13   34  -0.038  -0.316   0.124
    1UNL    H14   35   0.191  -0.252   0.034
    1UNL    H15   36   0.181  -0.238   0.216
    1UNL    H16   37   0.170   0.267   0.038
    1UNL    H17   38   0.407   0.264  -0.111
    1UNL    H18   39   0.569   0.099  -0.228
    1UNL    H19   40   0.562  -0.135  -0.177
    1UNL    H20   41   0.362  -0.227  -0.044
    1UNL    H21   42  -0.020   0.013   0.252
    1UNL    H22   43   0.044   0.176   0.278
    1UNL    H23   44  -0.087   0.259   0.060
    1UNL    H24   45  -0.185   0.198   0.187
    1UNL    H25   46  -0.110  -0.026  -0.170
    1UNL    H26   47   0.021   0.004  -0.061
   0.00000   0.00000   0.00000   0.00000   0.00000   0.00000   0.00000   0.00000   0.00000
Generated with MDTraj, t= 30.0
 47
    1UNL     C1    1  -0.192   0.234  -0.174
    1UNL     C2    2  -0.278   0.146  -0.078
    1UNL     C3    3  -0.187   0.061   0.022
    1UNL     C4    4  -0.281  -0.028   0.113
    1UNL     C5    5  -0.339  -0.151   0.045
    1UNL     C6    6  -0.239  -0.236  -0.033
    1UNL     N1    7  -0.096  -0.176  -0.027
    1UNL     C7    8  -0.024  -0.212   0.108
    1UNL     C8    9   0.124  -0.188   0.123
    1UNL     C9   10   0.176  -0.055   0.080
    1UNL    C10   11   0.135   0.072   0.109
    1UNL     N2   12   0.204   0.162   0.031
    1UNL    C11   13   0.312   0.103  -0.029
    1UNL    C12   14   0.407   0.173  -0.103
    1UNL    C13   15   0.512   0.092  -0.144
    1UNL    C14   16   0.506  -0.050  -0.119
    1UNL    C15   17   0.402  -0.115  -0.057
    1UNL    C16   18   0.300  -0.034  -0.002
    1UNL    C17   19   0.024   0.107   0.197
    1UNL    C18   20  -0.099   0.161   0.113
    1UNL    C19   21  -0.100  -0.029  -0.062
    1UNL     H1   22  -0.118   0.297  -0.132
    1UNL     H2   23  -0.141   0.175  -0.247
    1UNL     H3   24  -0.261   0.300  -0.241
    1UNL     H4   25  -0.348   0.082  -0.136
    1UNL     H5   26  -0.330   0.208  -0.001
    1UNL     H6   27  -0.234  -0.048   0.208
    1UNL     H7   28  -0.358   0.041   0.147
    1UNL     H8   29  -0.419  -0.112  -0.024
    1UNL     H9   30  -0.398  -0.206   0.116
    1UNL    H10   31  -0.247  -0.336   0.009
    1UNL    H11   32  -0.258  -0.244  -0.139
    1UNL    H12   33  -0.074  -0.159   0.199
    1UNL    H13   34  -0.054  -0.315   0.131
    1UNL    H14   35   0.177  -0.274   0.066
    1UNL    H15   36   0.145  -0.198   0.227
    1UNL    H16   37   0.205   0.257   0.054
    1UNL    H17   38   0.408   0.279  -0.128
    1UNL    H18   39   0.604   0.136  -0.174
    1UNL    H19   40   0.591  -0.106  -0.154
    1UNL    H20   41   0.403  -0.214  -0.046
    1UNL    H21   42  -0.002   0.015   0.247
    1UNL    H22   43   0.060   0.181   0.279
    1UNL    H23   44  -0.059   0.243   0.055
    1UNL    H24   45  -0.178   0.203   0.177
    1UNL    H25   46  -0.118  -0.024  -0.173
    1UNL    H26   47   0.008   0.009  -0.062
   0.00000   0.00000   0.00000   0.00000   0.00000   0.00000   0.00000   0.00000   0.00000
Generated with MDTraj, t= 31.0
 47
    1UNL     C1    1  -0.214   0.225  -0.189
    1UNL     C2    2  -0.284   0.139  -0.084
    1UNL     C3    3  -0.188   0.067   0.020
    1UNL     C4    4  -0.278  -0.014   0.123
    1UNL     C5    5  -0.335  -0.149   0.063
    1UNL     C6    6  -0.231  -0.241  -0.002
    1UNL     N1    7  -0.103  -0.173  -0.012
    1UNL     C7    8  -0.017  -0.222   0.099
    1UNL     C8    9   0.132  -0.196   0.072
    1UNL     C9   10   0.186  -0.050   0.071
    1UNL    C10   11   0.126   0.073   0.102
    1UNL     N2   12   0.213   0.171   0.060
    1UNL    C11   13   0.325   0.112   0.002
    1UNL    C12   14   0.432   0.162  -0.067
    1UNL    C13   15   0.524   0.079  -0.129
    1UNL    C14   16   0.503  -0.056  -0.137
    1UNL    C15   17   0.394  -0.112  -0.071
    1UNL    C16   18   0.304  -0.026  -0.002
    1UNL    C17   19   0.001   0.113   0.181
    1UNL    C18   20  -0.108   0.175   0.096
    1UNL    C19   21  -0.107  -0.033  -0.068
    1UNL     H1   22  -0.150   0.302  -0.145
    1UNL     H2   23  -0.157   0.160  -0.243
    1UNL     H3   24  -0.296   0.265  -0.259
    1UNL     H4   25  -0.339   0.054  -0.128
    1UNL     H5   26  -0.352   0.202  -0.021
    1UNL     H6   27  -0.220  -0.032   0.211
    1UNL     H7   28  -0.353   0.051   0.166
    1UNL     H8   29  -0.414  -0.124  -0.013
    1UNL     H9   30  -0.386  -0.207   0.137
    1UNL    H10   31  -0.213  -0.339   0.044
    1UNL    H11   32  -0.270  -0.252  -0.103
    1UNL    H12   33  -0.055  -0.182   0.196
    1UNL    H13   34  -0.026  -0.331   0.106
    1UNL    H14   35   0.140  -0.239  -0.035
    1UNL    H15   36   0.202  -0.253   0.130
    1UNL    H16   37   0.180   0.264   0.055
    1UNL    H17   38   0.451   0.267  -0.065
    1UNL    H18   39   0.609   0.133  -0.172
    1UNL    H19   40   0.574  -0.124  -0.185
    1UNL    H20   41   0.383  -0.222  -0.056
    1UNL    H21   42  -0.034   0.046   0.253
    1UNL    H22   43   0.038   0.206   0.237
    1UNL    H23   44  -0.067   0.238   0.023
    1UNL    H24   45  -0.185   0.230   0.155
    1UNL    H25   46  -0.143  -0.040  -0.173
    1UNL    H26   47   0.003  -0.004  -0.082
   0.00000   0.00000   0.00000   0.00000   0.00000   0.00000   0.00000   0.00000   0.00000
Generated with MDTraj, t= 32.0
 47
    1UNL     C1    1  -0.236   0.223  -0.187
    1UNL     C2    2  -0.304   0.139  -0.089
    1UNL     C3    3  -0.201   0.055   0.002
    1UNL     C4    4  -0.281  -0.007   0.118
    1UNL     C5    5  -0.354  -0.140   0.076
    1UNL     C6    6  -0.258  -0.249   0.023
    1UNL     N1    7  -0.121  -0.192  -0.008
    1UNL     C7    8  -0.025  -0.210   0.105
    1UNL     C8    9   0.122  -0.185   0.069
    1UNL     C9   10   0.180  -0.045   0.048
    1UNL    C10   11   0.145   0.075   0.111
    1UNL     N2   12   0.242   0.161   0.094
    1UNL    C11   13   0.346   0.112   0.011
    1UNL    C12   14   0.462   0.169  -0.045
    1UNL    C13   15   0.551   0.091  -0.117
    1UNL    C14   16   0.518  -0.043  -0.142
    1UNL    C15   17   0.399  -0.100  -0.093
    1UNL    C16   18   0.306  -0.021  -0.022
    1UNL    C17   19   0.009   0.112   0.171
    1UNL    C18   20  -0.100   0.160   0.070
    1UNL    C19   21  -0.121  -0.058  -0.076
    1UNL     H1   22  -0.185   0.315  -0.146
    1UNL     H2   23  -0.163   0.162  -0.232
    1UNL     H3   24  -0.306   0.248  -0.265
    1UNL     H4   25  -0.355   0.051  -0.131
    1UNL     H5   26  -0.369   0.196  -0.019
    1UNL     H6   27  -0.211  -0.025   0.196
    1UNL     H7   28  -0.351   0.066   0.154
    1UNL     H8   29  -0.429  -0.118  -0.001
    1UNL     H9   30  -0.407  -0.177   0.163
    1UNL    H10   31  -0.254  -0.330   0.097
    1UNL    H11   32  -0.293  -0.287  -0.072
    1UNL    H12   33  -0.043  -0.152   0.192
    1UNL    H13   34  -0.040  -0.315   0.136
    1UNL    H14   35   0.158  -0.238  -0.027
    1UNL    H15   36   0.174  -0.230   0.151
    1UNL    H16   37   0.237   0.257   0.120
    1UNL    H17   38   0.475   0.278  -0.035
    1UNL    H18   39   0.634   0.136  -0.172
    1UNL    H19   40   0.576  -0.094  -0.215
    1UNL    H20   41   0.376  -0.207  -0.122
    1UNL    H21   42  -0.026   0.027   0.227
    1UNL    H22   43   0.021   0.192   0.246
    1UNL    H23   44  -0.053   0.188  -0.019
    1UNL    H24   45  -0.156   0.248   0.109
    1UNL    H25   46  -0.172  -0.073  -0.175
    1UNL    H26   47  -0.016  -0.030  -0.099
   0.00000   0.00000   0.00000   0.00000   0.00000   0.00000   0.00000   0.00000   0.00000
Generated with MDTraj, t= 33.0
 47
    1UNL     C1    1  -0.230   0.199  -0.212
    1UNL     C2    2  -0.298   0.137  -0.088
    1UNL     C3    3  -0.200   0.061   0.013
    1UNL     C4    4  -0.287  -0.005   0.131
    1UNL     C5    5  -0.360  -0.133   0.084
    1UNL     C6    6  -0.256  -0.235   0.048
    1UNL     N1    7  -0.120  -0.177   0.011
    1UNL     C7    8  -0.003  -0.226   0.086
    1UNL     C8    9   0.126  -0.193   0.017
    1UNL     C9   10   0.182  -0.047   0.037
    1UNL    C10   11   0.129   0.071   0.091
    1UNL     N2   12   0.232   0.168   0.078
    1UNL    C11   13   0.336   0.117   0.004
    1UNL    C12   14   0.465   0.172  -0.026
    1UNL    C13   15   0.553   0.087  -0.095
    1UNL    C14   16   0.517  -0.048  -0.121
    1UNL    C15   17   0.397  -0.097  -0.095
    1UNL    C16   18   0.306  -0.015  -0.029
    1UNL    C17   19   0.002   0.095   0.163
    1UNL    C18   20  -0.102   0.168   0.076
    1UNL    C19   21  -0.117  -0.048  -0.057
    1UNL     H1   22  -0.167   0.289  -0.186
    1UNL     H2   23  -0.165   0.127  -0.261
    1UNL     H3   24  -0.298   0.225  -0.280
    1UNL     H4   25  -0.380   0.072  -0.116
    1UNL     H5   26  -0.323   0.216  -0.012
    1UNL     H6   27  -0.224  -0.031   0.216
    1UNL     H7   28  -0.359   0.068   0.161
    1UNL     H8   29  -0.421  -0.104  -0.001
    1UNL     H9   30  -0.423  -0.167   0.167
    1UNL    H10   31  -0.242  -0.305   0.132
    1UNL    H11   32  -0.289  -0.295  -0.036
    1UNL    H12   33  -0.013  -0.188   0.185
    1UNL    H13   34  -0.010  -0.336   0.092
    1UNL    H14   35   0.110  -0.211  -0.096
    1UNL    H15   36   0.206  -0.262   0.042
    1UNL    H16   37   0.256   0.251   0.132
    1UNL    H17   38   0.486   0.270   0.004
    1UNL    H18   39   0.649   0.129  -0.112
    1UNL    H19   40   0.585  -0.100  -0.187
    1UNL    H20   41   0.371  -0.187  -0.127
    1UNL    H21   42  -0.048   0.005   0.215
    1UNL    H22   43   0.022   0.165   0.244
    1UNL    H23   44  -0.057   0.230   0.005
    1UNL    H24   45  -0.169   0.227   0.143
    1UNL    H25   46  -0.167  -0.072  -0.158
    1UNL    H26   47  -0.015  -0.013  -0.075
   0.00000   0.00000   0.00000   0.00000   0.00000   0.00000   0.00000   0.00000   0.00000
Generated with MDTraj, t= 34.0
 47
    1UNL     C1    1  -0.216   0.206  -0.214
    1UNL     C2    2  -0.293   0.165  -0.079
    1UNL     C3    3  -0.216   0.063   0.015
    1UNL     C4    4  -0.301   0.004   0.128
    1UNL     C5    5  -0.364  -0.134   0.093
    1UNL     C6    6  -0.259  -0.240   0.079
    1UNL     N1    7  -0.135  -0.183   0.014
    1UNL     C7    8  -0.009  -0.220   0.079
    1UNL     C8    9   0.122  -0.194  -0.001
    1UNL     C9   10   0.192  -0.061   0.027
    1UNL    C10   11   0.132   0.056   0.073
    1UNL     N2   12   0.215   0.161   0.060
    1UNL    C11   13   0.340   0.114   0.010
    1UNL    C12   14   0.458   0.178  -0.028
    1UNL    C13   15   0.551   0.107  -0.086
    1UNL    C14   16   0.539  -0.031  -0.126
    1UNL    C15   17   0.428  -0.099  -0.080
    1UNL    C16   18   0.325  -0.024  -0.012
    1UNL    C17   19   0.013   0.081   0.152
    1UNL    C18   20  -0.101   0.152   0.077
    1UNL    C19   21  -0.143  -0.054  -0.063
    1UNL     H1   22  -0.109   0.223  -0.201
    1UNL     H2   23  -0.227   0.120  -0.283
    1UNL     H3   24  -0.260   0.286  -0.263
    1UNL     H4   25  -0.387   0.117  -0.106
    1UNL     H5   26  -0.304   0.260  -0.022
    1UNL     H6   27  -0.235  -0.004   0.214
    1UNL     H7   28  -0.374   0.078   0.149
    1UNL     H8   29  -0.424  -0.115   0.005
    1UNL     H9   30  -0.433  -0.165   0.174
    1UNL    H10   31  -0.228  -0.285   0.176
    1UNL    H11   32  -0.294  -0.326   0.023
    1UNL    H12   33   0.012  -0.170   0.170
    1UNL    H13   34  -0.023  -0.327   0.104
    1UNL    H14   35   0.098  -0.207  -0.112
    1UNL    H15   36   0.201  -0.264   0.024
    1UNL    H16   37   0.195   0.261   0.056
    1UNL    H17   38   0.479   0.275   0.023
    1UNL    H18   39   0.656   0.143  -0.092
    1UNL    H19   40   0.619  -0.086  -0.170
    1UNL    H20   41   0.407  -0.205  -0.117
    1UNL    H21   42  -0.037  -0.015   0.188
    1UNL    H22   43   0.038   0.135   0.242
    1UNL    H23   44  -0.052   0.205   0.000
    1UNL    H24   45  -0.159   0.224   0.139
    1UNL    H25   46  -0.198  -0.077  -0.163
    1UNL    H26   47  -0.045  -0.017  -0.083
   0.00000   0.00000   0.00000   0.00000   0.00000   0.00000   0.00000   0.00000   0.00000
Generated with MDTraj, t= 35.0
 47
    1UNL     C1    1  -0.226   0.205  -0.220
    1UNL     C2    2  -0.292   0.148  -0.097
    1UNL     C3    3  -0.209   0.071   0.007
    1UNL     C4    4  -0.307   0.019   0.123
    1UNL     C5    5  -0.362  -0.128   0.094
    1UNL     C6    6  -0.243  -0.225   0.090
    1UNL     N1    7  -0.120  -0.158   0.046
    1UNL     C7    8   0.002  -0.245   0.060
    1UNL     C8    9   0.129  -0.195  -0.016
    1UNL     C9   10   0.182  -0.057   0.022
    1UNL    C10   11   0.136   0.047   0.101
    1UNL     N2   12   0.225   0.161   0.075
    1UNL    C11   13   0.335   0.114   0.011
    1UNL    C12   14   0.453   0.176  -0.030
    1UNL    C13   15   0.552   0.101  -0.090
    1UNL    C14   16   0.530  -0.035  -0.109
    1UNL    C15   17   0.408  -0.096  -0.093
    1UNL    C16   18   0.311  -0.017  -0.028
    1UNL    C17   19  -0.001   0.067   0.162
    1UNL    C18   20  -0.093   0.157   0.075
    1UNL    C19   21  -0.137  -0.054  -0.058
    1UNL     H1   22  -0.178   0.296  -0.208
    1UNL     H2   23  -0.147   0.141  -0.260
    1UNL     H3   24  -0.296   0.219  -0.305
    1UNL     H4   25  -0.354   0.067  -0.138
    1UNL     H5   26  -0.344   0.229  -0.044
    1UNL     H6   27  -0.241   0.010   0.209
    1UNL     H7   28  -0.378   0.093   0.150
    1UNL     H8   29  -0.409  -0.138  -0.002
    1UNL     H9   30  -0.434  -0.148   0.177
    1UNL    H10   31  -0.225  -0.268   0.190
    1UNL    H11   32  -0.251  -0.313   0.024
    1UNL    H12   33   0.017  -0.265   0.163
    1UNL    H13   34  -0.012  -0.340   0.003
    1UNL    H14   35   0.104  -0.188  -0.128
    1UNL    H15   36   0.207  -0.272  -0.007
    1UNL    H16   37   0.216   0.241   0.141
    1UNL    H17   38   0.463   0.279  -0.008
    1UNL    H18   39   0.643   0.150  -0.102
    1UNL    H19   40   0.619  -0.090  -0.145
    1UNL    H20   41   0.388  -0.200  -0.123
    1UNL    H21   42  -0.045  -0.025   0.201
    1UNL    H22   43  -0.002   0.115   0.261
    1UNL    H23   44  -0.042   0.188  -0.015
    1UNL    H24   45  -0.121   0.251   0.125
    1UNL    H25   46  -0.201  -0.098  -0.143
    1UNL    H26   47  -0.039  -0.026  -0.091
   0.00000   0.00000   0.00000   0.00000   0.00000   0.00000   0.00000   0.00000   0.00000
Generated with MDTraj, t= 36.0
 47
    1UNL     C1    1  -0.191   0.185  -0.219
    1UNL     C2    2  -0.287   0.131  -0.113
    1UNL     C3    3  -0.219   0.069   0.011
    1UNL     C4    4  -0.322   0.025   0.118
    1UNL     C5    5  -0.361  -0.127   0.105
    1UNL     C6    6  -0.244  -0.227   0.109
    1UNL     N1    7  -0.126  -0.160   0.050
    1UNL     C7    8   0.002  -0.240   0.065
    1UNL     C8    9   0.114  -0.183  -0.021
    1UNL     C9   10   0.181  -0.051   0.014
    1UNL    C10   11   0.133   0.058   0.086
    1UNL     N2   12   0.233   0.146   0.103
    1UNL    C11   13   0.346   0.107   0.027
    1UNL    C12   14   0.470   0.169  -0.001
    1UNL    C13   15   0.555   0.104  -0.083
    1UNL    C14   16   0.524  -0.020  -0.145
    1UNL    C15   17   0.403  -0.085  -0.114
    1UNL    C16   18   0.314  -0.018  -0.032
    1UNL    C17   19   0.001   0.072   0.151
    1UNL    C18   20  -0.103   0.154   0.072
    1UNL    C19   21  -0.149  -0.051  -0.054
    1UNL     H1   22  -0.148   0.273  -0.195
    1UNL     H2   23  -0.107   0.123  -0.241
    1UNL     H3   24  -0.241   0.205  -0.322
    1UNL     H4   25  -0.344   0.053  -0.162
    1UNL     H5   26  -0.348   0.217  -0.084
    1UNL     H6   27  -0.281   0.055   0.215
    1UNL     H7   28  -0.408   0.084   0.106
    1UNL     H8   29  -0.417  -0.130   0.012
    1UNL     H9   30  -0.422  -0.161   0.193
    1UNL    H10   31  -0.215  -0.268   0.209
    1UNL    H11   32  -0.270  -0.313   0.046
    1UNL    H12   33   0.043  -0.244   0.164
    1UNL    H13   34  -0.029  -0.343   0.034
    1UNL    H14   35   0.077  -0.172  -0.127
    1UNL    H15   36   0.191  -0.263  -0.023
    1UNL    H16   37   0.223   0.244   0.143
    1UNL    H17   38   0.495   0.268   0.033
    1UNL    H18   39   0.649   0.154  -0.117
    1UNL    H19   40   0.582  -0.055  -0.226
    1UNL    H20   41   0.385  -0.173  -0.156
    1UNL    H21   42  -0.040  -0.020   0.174
    1UNL    H22   43   0.016   0.103   0.255
    1UNL    H23   44  -0.053   0.215  -0.006
    1UNL    H24   45  -0.166   0.222   0.130
    1UNL    H25   46  -0.216  -0.098  -0.133
    1UNL    H26   47  -0.056  -0.018  -0.105
   0.00000   0.00000   0.00000   0.00000   0.00000   0.00000   0.00000   0.00000   0.00000
Generated with MDTraj, t= 37.0
 47
    1UNL     C1    1  -0.200   0.175  -0.230
    1UNL     C2    2  -0.285   0.157  -0.107
    1UNL     C3    3  -0.204   0.070  -0.004
    1UNL     C4    4  -0.301   0.024   0.110
    1UNL     C5    5  -0.352  -0.118   0.111
    1UNL     C6    6  -0.235  -0.212   0.131
    1UNL     N1    7  -0.126  -0.174   0.033
    1UNL     C7    8   0.005  -0.242   0.063
    1UNL     C8    9   0.121  -0.197  -0.015
    1UNL     C9   10   0.181  -0.059   0.022
    1UNL    C10   11   0.132   0.048   0.094
    1UNL     N2   12   0.231   0.143   0.109
    1UNL    C11   13   0.334   0.107   0.031
    1UNL    C12   14   0.463   0.167   0.012
    1UNL    C13   15   0.549   0.105  -0.078
    1UNL    C14   16   0.510  -0.007  -0.148
    1UNL    C15   17   0.396  -0.072  -0.121
    1UNL    C16   18   0.301  -0.014  -0.035
    1UNL    C17   19  -0.005   0.061   0.147
    1UNL    C18   20  -0.092   0.153   0.057
    1UNL    C19   21  -0.154  -0.059  -0.064
    1UNL     H1   22  -0.100   0.207  -0.206
    1UNL     H2   23  -0.188   0.085  -0.284
    1UNL     H3   24  -0.243   0.258  -0.297
    1UNL     H4   25  -0.377   0.111  -0.140
    1UNL     H5   26  -0.301   0.253  -0.057
    1UNL     H6   27  -0.263   0.040   0.211
    1UNL     H7   28  -0.381   0.094   0.105
    1UNL     H8   29  -0.385  -0.146   0.012
    1UNL     H9   30  -0.433  -0.130   0.190
    1UNL    H10   31  -0.195  -0.207   0.236
    1UNL    H11   32  -0.260  -0.317   0.113
    1UNL    H12   33   0.014  -0.221   0.168
    1UNL    H13   34  -0.009  -0.352   0.052
    1UNL    H14   35   0.092  -0.200  -0.121
    1UNL    H15   36   0.212  -0.260  -0.006
    1UNL    H16   37   0.239   0.237   0.161
    1UNL    H17   38   0.479   0.258   0.071
    1UNL    H18   39   0.635   0.156  -0.109
    1UNL    H19   40   0.575  -0.052  -0.227
    1UNL    H20   41   0.372  -0.173  -0.173
    1UNL    H21   42  -0.049  -0.030   0.171
    1UNL    H22   43   0.002   0.105   0.247
    1UNL    H23   44  -0.021   0.196  -0.024
    1UNL    H24   45  -0.135   0.234   0.114
    1UNL    H25   46  -0.231  -0.102  -0.132
    1UNL    H26   47  -0.063  -0.038  -0.129
   0.00000   0.00000   0.00000   0.00000   0.00000   0.00000   0.00000   0.00000   0.00000
Generated with MDTraj, t= 38.0
 47
    1UNL     C1    1  -0.209   0.178  -0.235
    1UNL     C2    2  -0.285   0.158  -0.103
    1UNL     C3    3  -0.208   0.064   0.001
    1UNL     C4    4  -0.306   0.026   0.122
    1UNL     C5    5  -0.362  -0.113   0.106
    1UNL     C6    6  -0.250  -0.218   0.117
    1UNL     N1    7  -0.132  -0.167   0.040
    1UNL     C7    8   0.002  -0.243   0.056
    1UNL     C8    9   0.117  -0.184  -0.028
    1UNL     C9   10   0.183  -0.061   0.024
    1UNL    C10   11   0.139   0.045   0.106
    1UNL     N2   12   0.238   0.139   0.116
    1UNL    C11   13   0.344   0.104   0.032
    1UNL    C12   14   0.460   0.178  -0.013
    1UNL    C13   15   0.546   0.121  -0.100
    1UNL    C14   16   0.525  -0.015  -0.136
    1UNL    C15   17   0.412  -0.082  -0.103
    1UNL    C16   18   0.316  -0.021  -0.021
    1UNL    C17   19  -0.003   0.066   0.153
    1UNL    C18   20  -0.097   0.143   0.052
    1UNL    C19   21  -0.153  -0.064  -0.066
    1UNL     H1   22  -0.116   0.244  -0.228
    1UNL     H2   23  -0.176   0.085  -0.269
    1UNL     H3   24  -0.274   0.230  -0.308
    1UNL     H4   25  -0.373   0.098  -0.119
    1UNL     H5   26  -0.317   0.253  -0.058
    1UNL     H6   27  -0.241   0.033   0.210
    1UNL     H7   28  -0.385   0.091   0.151
    1UNL     H8   29  -0.408  -0.120   0.008
    1UNL     H9   30  -0.430  -0.135   0.194
    1UNL    H10   31  -0.212  -0.220   0.223
    1UNL    H11   32  -0.277  -0.322   0.092
    1UNL    H12   33   0.030  -0.245   0.159
    1UNL    H13   34  -0.030  -0.346   0.025
    1UNL    H14   35   0.090  -0.160  -0.129
    1UNL    H15   36   0.188  -0.269  -0.036
    1UNL    H16   37   0.236   0.229   0.176
    1UNL    H17   38   0.473   0.277   0.019
    1UNL    H18   39   0.640   0.177  -0.123
    1UNL    H19   40   0.603  -0.052  -0.194
    1UNL    H20   41   0.395  -0.185  -0.129
    1UNL    H21   42  -0.050  -0.030   0.179
    1UNL    H22   43  -0.002   0.118   0.247
    1UNL    H23   44  -0.030   0.175  -0.040
    1UNL    H24   45  -0.132   0.232   0.101
    1UNL    H25   46  -0.225  -0.104  -0.139
    1UNL    H26   47  -0.057  -0.051  -0.127
   0.00000   0.00000   0.00000   0.00000   0.00000   0.00000   0.00000   0.00000   0.00000
Generated with MDTraj, t= 39.0
 47
    1UNL     C1    1  -0.219   0.210  -0.226
    1UNL     C2    2  -0.295   0.145  -0.107
    1UNL     C3    3  -0.211   0.067  -0.001
    1UNL     C4    4  -0.298   0.022   0.121
    1UNL     C5    5  -0.356  -0.120   0.123
    1UNL     C6    6  -0.243  -0.229   0.105
    1UNL     N1    7  -0.131  -0.180   0.024
    1UNL     C7    8   0.003  -0.244   0.064
    1UNL     C8    9   0.121  -0.191  -0.016
    1UNL     C9   10   0.182  -0.056   0.014
    1UNL    C10   11   0.131   0.050   0.087
    1UNL     N2   12   0.225   0.151   0.093
    1UNL    C11   13   0.342   0.113   0.025
    1UNL    C12   14   0.458   0.172  -0.013
    1UNL    C13   15   0.555   0.104  -0.082
    1UNL    C14   16   0.534  -0.026  -0.133
    1UNL    C15   17   0.416  -0.093  -0.103
    1UNL    C16   18   0.316  -0.023  -0.020
    1UNL    C17   19  -0.004   0.080   0.153
    1UNL    C18   20  -0.109   0.158   0.069
    1UNL    C19   21  -0.145  -0.060  -0.064
    1UNL     H1   22  -0.156   0.301  -0.192
    1UNL     H2   23  -0.147   0.142  -0.268
    1UNL     H3   24  -0.288   0.246  -0.301
    1UNL     H4   25  -0.378   0.078  -0.133
    1UNL     H5   26  -0.347   0.221  -0.048
    1UNL     H6   27  -0.241   0.021   0.215
    1UNL     H7   28  -0.362   0.105   0.136
    1UNL     H8   29  -0.433  -0.127   0.048
    1UNL     H9   30  -0.396  -0.138   0.228
    1UNL    H10   31  -0.197  -0.267   0.200
    1UNL    H11   32  -0.275  -0.322   0.056
    1UNL    H12   33   0.011  -0.224   0.170
    1UNL    H13   34  -0.005  -0.353   0.038
    1UNL    H14   35   0.099  -0.198  -0.119
    1UNL    H15   36   0.207  -0.260   0.008
    1UNL    H16   37   0.197   0.248   0.126
    1UNL    H17   38   0.478   0.273   0.028
    1UNL    H18   39   0.652   0.149  -0.084
    1UNL    H19   40   0.612  -0.085  -0.185
    1UNL    H20   41   0.394  -0.182  -0.147
    1UNL    H21   42  -0.047  -0.021   0.184
    1UNL    H22   43   0.017   0.133   0.240
    1UNL    H23   44  -0.047   0.220  -0.008
    1UNL    H24   45  -0.168   0.233   0.121
    1UNL    H25   46  -0.182  -0.092  -0.163
    1UNL    H26   47  -0.036  -0.037  -0.090
   0.00000   0.00000   0.00000   0.00000   0.00000   0.00000   0.00000   0.00000   0.00000
Generated with MDTraj, t= 40.0
 47
    1UNL     C1    1  -0.237   0.213  -0.217
    1UNL     C2    2  -0.298   0.147  -0.092
    1UNL     C3    3  -0.214   0.062   0.009
    1UNL     C4    4  -0.311  -0.000   0.122
    1UNL     C5    5  -0.368  -0.137   0.094
    1UNL     C6    6  -0.255  -0.240   0.089
    1UNL     N1    7  -0.131  -0.183   0.028
    1UNL     C7    8   0.001  -0.229   0.079
    1UNL     C8    9   0.125  -0.181  -0.005
    1UNL     C9   10   0.188  -0.047   0.020
    1UNL    C10   11   0.139   0.065   0.081
    1UNL     N2   12   0.234   0.168   0.061
    1UNL    C11   13   0.349   0.116   0.003
    1UNL    C12   14   0.476   0.174  -0.015
    1UNL    C13   15   0.570   0.085  -0.071
    1UNL    C14   16   0.540  -0.045  -0.111
    1UNL    C15   17   0.408  -0.090  -0.104
    1UNL    C16   18   0.317  -0.013  -0.031
    1UNL    C17   19   0.009   0.091   0.157
    1UNL    C18   20  -0.108   0.156   0.078
    1UNL    C19   21  -0.152  -0.063  -0.057
    1UNL     H1   22  -0.146   0.273  -0.190
    1UNL     H2   23  -0.206   0.138  -0.298
    1UNL     H3   24  -0.307   0.282  -0.255
    1UNL     H4   25  -0.393   0.104  -0.119
    1UNL     H5   26  -0.325   0.227  -0.023
    1UNL     H6   27  -0.244   0.002   0.209
    1UNL     H7   28  -0.391   0.065   0.150
    1UNL     H8   29  -0.422  -0.136   0.000
    1UNL     H9   30  -0.442  -0.159   0.178
    1UNL    H10   31  -0.225  -0.288   0.185
    1UNL    H11   32  -0.275  -0.329   0.028
    1UNL    H12   33   0.015  -0.184   0.175
    1UNL    H13   34  -0.010  -0.343   0.077
    1UNL    H14   35   0.090  -0.180  -0.103
    1UNL    H15   36   0.206  -0.259   0.003
    1UNL    H16   37   0.229   0.261   0.109
    1UNL    H17   38   0.513   0.266   0.019
    1UNL    H18   39   0.674   0.122  -0.086
    1UNL    H19   40   0.617  -0.105  -0.149
    1UNL    H20   41   0.368  -0.186  -0.157
    1UNL    H21   42  -0.022  -0.012   0.193
    1UNL    H22   43   0.032   0.149   0.239
    1UNL    H23   44  -0.075   0.230   0.005
    1UNL    H24   45  -0.169   0.220   0.142
    1UNL    H25   46  -0.215  -0.087  -0.145
    1UNL    H26   47  -0.054  -0.038  -0.104
   0.00000   0.00000   0.00000   0.00000   0.00000   0.00000   0.00000   0.00000   0.00000
Generated with MDTraj, t= 41.0
 47
    1UNL     C1    1  -0.247   0.189  -0.217
    1UNL     C2    2  -0.307   0.147  -0.078
    1UNL     C3    3  -0.207   0.070   0.021
    1UNL     C4    4  -0.282  -0.004   0.139
    1UNL     C5    5  -0.349  -0.127   0.087
    1UNL     C6    6  -0.254  -0.239   0.050
    1UNL     N1    7  -0.122  -0.180   0.001
    1UNL     C7    8  -0.003  -0.215   0.081
    1UNL     C8    9   0.122  -0.192   0.003
    1UNL     C9   10   0.184  -0.059   0.033
    1UNL    C10   11   0.129   0.067   0.079
    1UNL     N2   12   0.228   0.165   0.069
    1UNL    C11   13   0.334   0.110   0.000
    1UNL    C12   14   0.456   0.173  -0.031
    1UNL    C13   15   0.562   0.092  -0.077
    1UNL    C14   16   0.536  -0.045  -0.109
    1UNL    C15   17   0.414  -0.099  -0.086
    1UNL    C16   18   0.314  -0.029  -0.017
    1UNL    C17   19   0.012   0.104   0.162
    1UNL    C18   20  -0.103   0.164   0.076
    1UNL    C19   21  -0.134  -0.044  -0.058
    1UNL     H1   22  -0.139   0.206  -0.212
    1UNL     H2   23  -0.263   0.107  -0.300
    1UNL     H3   24  -0.291   0.276  -0.256
    1UNL     H4   25  -0.382   0.068  -0.087
    1UNL     H5   26  -0.358   0.233  -0.035
    1UNL     H6   27  -0.214  -0.027   0.219
    1UNL     H7   28  -0.345   0.078   0.172
    1UNL     H8   29  -0.406  -0.098   0.002
    1UNL     H9   30  -0.420  -0.170   0.165
    1UNL    H10   31  -0.226  -0.303   0.135
    1UNL    H11   32  -0.289  -0.313  -0.023
    1UNL    H12   33  -0.013  -0.167   0.175
    1UNL    H13   34  -0.016  -0.326   0.092
    1UNL    H14   35   0.113  -0.204  -0.100
    1UNL    H15   36   0.193  -0.270   0.043
    1UNL    H16   37   0.214   0.265   0.083
    1UNL    H17   38   0.471   0.282  -0.018
    1UNL    H18   39   0.660   0.126  -0.103
    1UNL    H19   40   0.604  -0.103  -0.176
    1UNL    H20   41   0.404  -0.199  -0.117
    1UNL    H21   42  -0.029   0.024   0.217
    1UNL    H22   43   0.043   0.175   0.230
    1UNL    H23   44  -0.070   0.221  -0.001
    1UNL    H24   45  -0.155   0.239   0.138
    1UNL    H25   46  -0.189  -0.064  -0.155
    1UNL    H26   47  -0.040   0.002  -0.090
   0.00000   0.00000   0.00000   0.00000   0.00000   0.00000   0.00000   0.00000   0.00000
Generated with MDTraj, t= 42.0
 47
    1UNL     C1    1  -0.241   0.199  -0.200
    1UNL     C2    2  -0.309   0.142  -0.076
    1UNL     C3    3  -0.206   0.068   0.017
    1UNL     C4    4  -0.284  -0.010   0.133
    1UNL     C5    5  -0.356  -0.136   0.081
    1UNL     C6    6  -0.258  -0.235   0.016
    1UNL     N1    7  -0.121  -0.177  -0.010
    1UNL     C7    8  -0.020  -0.217   0.089
    1UNL     C8    9   0.135  -0.190   0.058
    1UNL     C9   10   0.192  -0.049   0.052
    1UNL    C10   11   0.145   0.068   0.099
    1UNL     N2   12   0.236   0.168   0.077
    1UNL    C11   13   0.338   0.110   0.005
    1UNL    C12   14   0.456   0.171  -0.053
    1UNL    C13   15   0.551   0.094  -0.112
    1UNL    C14   16   0.528  -0.045  -0.122
    1UNL    C15   17   0.414  -0.104  -0.077
    1UNL    C16   18   0.313  -0.025  -0.014
    1UNL    C17   19   0.006   0.098   0.163
    1UNL    C18   20  -0.102   0.162   0.073
    1UNL    C19   21  -0.131  -0.042  -0.074
    1UNL     H1   22  -0.170   0.275  -0.173
    1UNL     H2   23  -0.187   0.119  -0.262
    1UNL     H3   24  -0.313   0.245  -0.268
    1UNL     H4   25  -0.380   0.072  -0.121
    1UNL     H5   26  -0.367   0.213  -0.018
    1UNL     H6   27  -0.205  -0.022   0.201
    1UNL     H7   28  -0.352   0.061   0.179
    1UNL     H8   29  -0.432  -0.117   0.009
    1UNL     H9   30  -0.403  -0.185   0.173
    1UNL    H10   31  -0.239  -0.318   0.087
    1UNL    H11   32  -0.296  -0.282  -0.074
    1UNL    H12   33  -0.055  -0.163   0.174
    1UNL    H13   34  -0.047  -0.324   0.113
    1UNL    H14   35   0.155  -0.230  -0.036
    1UNL    H15   36   0.189  -0.254   0.134
    1UNL    H16   37   0.235   0.266   0.096
    1UNL    H17   38   0.457   0.275  -0.052
    1UNL    H18   39   0.631   0.141  -0.171
    1UNL    H19   40   0.600  -0.108  -0.162
    1UNL    H20   41   0.398  -0.209  -0.073
    1UNL    H21   42  -0.029   0.013   0.213
    1UNL    H22   43   0.024   0.176   0.228
    1UNL    H23   44  -0.052   0.210  -0.001
    1UNL    H24   45  -0.154   0.246   0.122
    1UNL    H25   46  -0.204  -0.047  -0.161
    1UNL    H26   47  -0.037  -0.013  -0.118
   0.00000   0.00000   0.00000   0.00000   0.00000   0.00000   0.00000   0.00000   0.00000
Generated with MDTraj, t= 43.0
 47
    1UNL     C1    1  -0.219   0.237  -0.168
    1UNL     C2    2  -0.286   0.125  -0.090
    1UNL     C3    3  -0.193   0.059   0.010
    1UNL     C4    4  -0.274  -0.020   0.112
    1UNL     C5    5  -0.343  -0.149   0.057
    1UNL     C6    6  -0.232  -0.244   0.001
    1UNL     N1    7  -0.098  -0.176  -0.006
    1UNL     C7    8  -0.015  -0.217   0.110
    1UNL     C8    9   0.134  -0.185   0.095
    1UNL     C9   10   0.172  -0.046   0.060
    1UNL    C10   11   0.132   0.081   0.112
    1UNL     N2   12   0.220   0.174   0.058
    1UNL    C11   13   0.325   0.121  -0.012
    1UNL    C12   14   0.449   0.166  -0.065
    1UNL    C13   15   0.530   0.073  -0.123
    1UNL    C14   16   0.498  -0.066  -0.136
    1UNL    C15   17   0.381  -0.111  -0.077
    1UNL    C16   18   0.295  -0.022  -0.017
    1UNL    C17   19   0.004   0.118   0.180
    1UNL    C18   20  -0.108   0.161   0.085
    1UNL    C19   21  -0.101  -0.037  -0.072
    1UNL     H1   22  -0.221   0.332  -0.113
    1UNL     H2   23  -0.118   0.218  -0.200
    1UNL     H3   24  -0.273   0.264  -0.264
    1UNL     H4   25  -0.342   0.054  -0.153
    1UNL     H5   26  -0.364   0.174  -0.032
    1UNL     H6   27  -0.208  -0.052   0.190
    1UNL     H7   28  -0.344   0.054   0.156
    1UNL     H8   29  -0.405  -0.122  -0.025
    1UNL     H9   30  -0.398  -0.204   0.141
    1UNL    H10   31  -0.232  -0.335   0.064
    1UNL    H11   32  -0.255  -0.273  -0.101
    1UNL    H12   33  -0.065  -0.192   0.210
    1UNL    H13   34  -0.031  -0.328   0.109
    1UNL    H14   35   0.164  -0.254   0.020
    1UNL    H15   36   0.194  -0.208   0.188
    1UNL    H16   37   0.208   0.267   0.086
    1UNL    H17   38   0.466   0.275  -0.062
    1UNL    H18   39   0.626   0.108  -0.157
    1UNL    H19   40   0.582  -0.131  -0.174
    1UNL    H20   41   0.365  -0.224  -0.067
    1UNL    H21   42  -0.043   0.037   0.238
    1UNL    H22   43   0.027   0.192   0.248
    1UNL    H23   44  -0.067   0.231   0.010
    1UNL    H24   45  -0.180   0.223   0.139
    1UNL    H25   46  -0.129  -0.053  -0.182
    1UNL    H26   47  -0.010   0.021  -0.083
   0.00000   0.00000   0.00000   0.00000   0.00000   0.00000   0.00000   0.00000   0.00000
Generated with MDTraj, t= 44.0
 47
    1UNL     C1    1  -0.193   0.231  -0.184
    1UNL     C2    2  -0.265   0.147  -0.078
    1UNL     C3    3  -0.184   0.060   0.010
    1UNL     C4    4  -0.280  -0.025   0.099
    1UNL     C5    5  -0.327  -0.159   0.031
    1UNL     C6    6  -0.212  -0.229  -0.039
    1UNL     N1    7  -0.082  -0.173  -0.012
    1UNL     C7    8  -0.024  -0.201   0.121
    1UNL     C8    9   0.129  -0.185   0.137
    1UNL     C9   10   0.180  -0.050   0.088
    1UNL    C10   11   0.129   0.072   0.115
    1UNL     N2   12   0.200   0.174   0.048
    1UNL    C11   13   0.302   0.109  -0.022
    1UNL    C12   14   0.412   0.163  -0.093
    1UNL    C13   15   0.492   0.075  -0.161
    1UNL    C14   16   0.486  -0.065  -0.147
    1UNL    C15   17   0.390  -0.119  -0.059
    1UNL    C16   18   0.300  -0.026   0.006
    1UNL    C17   19   0.007   0.109   0.201
    1UNL    C18   20  -0.107   0.161   0.116
    1UNL    C19   21  -0.088  -0.032  -0.063
    1UNL     H1   22  -0.112   0.291  -0.140
    1UNL     H2   23  -0.157   0.174  -0.262
    1UNL     H3   24  -0.267   0.309  -0.230
    1UNL     H4   25  -0.340   0.085  -0.129
    1UNL     H5   26  -0.332   0.212  -0.019
    1UNL     H6   27  -0.229  -0.044   0.193
    1UNL     H7   28  -0.368   0.032   0.132
    1UNL     H8   29  -0.402  -0.130  -0.037
    1UNL     H9   30  -0.363  -0.230   0.114
    1UNL    H10   31  -0.204  -0.333  -0.005
    1UNL    H11   32  -0.235  -0.233  -0.146
    1UNL    H12   33  -0.080  -0.149   0.206
    1UNL    H13   34  -0.037  -0.305   0.158
    1UNL    H14   35   0.174  -0.250   0.066
    1UNL    H15   36   0.171  -0.210   0.241
    1UNL    H16   37   0.182   0.269   0.048
    1UNL    H17   38   0.424   0.270  -0.096
    1UNL    H18   39   0.579   0.121  -0.205
    1UNL    H19   40   0.555  -0.135  -0.185
    1UNL    H20   41   0.393  -0.219  -0.043
    1UNL    H21   42  -0.021   0.020   0.262
    1UNL    H22   43   0.029   0.180   0.274
    1UNL    H23   44  -0.069   0.256   0.056
    1UNL    H24   45  -0.183   0.204   0.180
    1UNL    H25   46  -0.108  -0.022  -0.174
    1UNL    H26   47   0.012   0.005  -0.052
   0.00000   0.00000   0.00000   0.00000   0.00000   0.00000   0.00000   0.00000   0.00000
Generated with MDTraj, t= 45.0
 47
    1UNL     C1    1  -0.168   0.233  -0.198
    1UNL     C2    2  -0.242   0.153  -0.084
    1UNL     C3    3  -0.166   0.061   0.016
    1UNL     C4    4  -0.273  -0.025   0.097
    1UNL     C5    5  -0.321  -0.148   0.013
    1UNL     C6    6  -0.204  -0.224  -0.051
    1UNL     N1    7  -0.069  -0.179  -0.018
    1UNL     C7    8  -0.017  -0.214   0.116
    1UNL     C8    9   0.135  -0.187   0.144
    1UNL     C9   10   0.186  -0.047   0.108
    1UNL    C10   11   0.127   0.075   0.136
    1UNL     N2   12   0.193   0.175   0.058
    1UNL    C11   13   0.286   0.110  -0.021
    1UNL    C12   14   0.371   0.159  -0.123
    1UNL    C13   15   0.452   0.070  -0.188
    1UNL    C14   16   0.460  -0.063  -0.140
    1UNL    C15   17   0.377  -0.109  -0.040
    1UNL    C16   18   0.290  -0.026   0.017
    1UNL    C17   19   0.005   0.099   0.216
    1UNL    C18   20  -0.104   0.159   0.126
    1UNL    C19   21  -0.062  -0.030  -0.055
    1UNL     H1   22  -0.085   0.292  -0.157
    1UNL     H2   23  -0.130   0.167  -0.268
    1UNL     H3   24  -0.234   0.306  -0.257
    1UNL     H4   25  -0.318   0.093  -0.135
    1UNL     H5   26  -0.313   0.216  -0.026
    1UNL     H6   27  -0.244  -0.057   0.197
    1UNL     H7   28  -0.361   0.034   0.126
    1UNL     H8   29  -0.399  -0.128  -0.055
    1UNL     H9   30  -0.367  -0.206   0.099
    1UNL    H10   31  -0.217  -0.330  -0.024
    1UNL    H11   32  -0.204  -0.225  -0.159
    1UNL    H12   33  -0.059  -0.159   0.204
    1UNL    H13   34  -0.039  -0.315   0.153
    1UNL    H14   35   0.193  -0.256   0.086
    1UNL    H15   36   0.159  -0.195   0.255
    1UNL    H16   37   0.177   0.272   0.043
    1UNL    H17   38   0.372   0.261  -0.148
    1UNL    H18   39   0.499   0.089  -0.285
    1UNL    H19   40   0.540  -0.126  -0.183
    1UNL    H20   41   0.374  -0.219  -0.021
    1UNL    H21   42  -0.036   0.008   0.262
    1UNL    H22   43   0.029   0.160   0.299
    1UNL    H23   44  -0.049   0.243   0.061
    1UNL    H24   45  -0.176   0.212   0.186
    1UNL    H25   46  -0.062  -0.023  -0.168
    1UNL    H26   47   0.039   0.011  -0.046
   0.00000   0.00000   0.00000   0.00000   0.00000   0.00000   0.00000   0.00000   0.00000
Generated with MDTraj, t= 46.0
 47
    1UNL     C1    1  -0.148   0.254  -0.176
    1UNL     C2    2  -0.230   0.148  -0.108
    1UNL     C3    3  -0.169   0.062   0.011
    1UNL     C4    4  -0.281  -0.020   0.076
    1UNL     C5    5  -0.314  -0.157   0.006
    1UNL     C6    6  -0.189  -0.244  -0.032
    1UNL     N1    7  -0.061  -0.179   0.003
    1UNL     C7    8  -0.010  -0.220   0.132
    1UNL     C8    9   0.136  -0.180   0.157
    1UNL     C9   10   0.179  -0.049   0.105
    1UNL    C10   11   0.130   0.078   0.140
    1UNL     N2   12   0.202   0.176   0.080
    1UNL    C11   13   0.290   0.117  -0.010
    1UNL    C12   14   0.380   0.166  -0.112
    1UNL    C13   15   0.448   0.072  -0.187
    1UNL    C14   16   0.432  -0.069  -0.168
    1UNL    C15   17   0.346  -0.119  -0.078
    1UNL    C16   18   0.284  -0.024   0.011
    1UNL    C17   19  -0.002   0.103   0.211
    1UNL    C18   20  -0.109   0.157   0.116
    1UNL    C19   21  -0.057  -0.031  -0.049
    1UNL     H1   22  -0.155   0.354  -0.132
    1UNL     H2   23  -0.044   0.221  -0.168
    1UNL     H3   24  -0.165   0.260  -0.286
    1UNL     H4   25  -0.272   0.082  -0.184
    1UNL     H5   26  -0.325   0.197  -0.078
    1UNL     H6   27  -0.258  -0.036   0.180
    1UNL     H7   28  -0.371   0.043   0.091
    1UNL     H8   29  -0.371  -0.118  -0.074
    1UNL     H9   30  -0.393  -0.219   0.058
    1UNL    H10   31  -0.177  -0.344   0.014
    1UNL    H11   32  -0.190  -0.265  -0.138
    1UNL    H12   33  -0.080  -0.187   0.211
    1UNL    H13   34  -0.021  -0.330   0.154
    1UNL    H14   35   0.204  -0.259   0.125
    1UNL    H15   36   0.145  -0.174   0.268
    1UNL    H16   37   0.183   0.276   0.082
    1UNL    H17   38   0.373   0.276  -0.131
    1UNL    H18   39   0.496   0.108  -0.275
    1UNL    H19   40   0.475  -0.132  -0.243
    1UNL    H20   41   0.336  -0.228  -0.068
    1UNL    H21   42  -0.037   0.017   0.265
    1UNL    H22   43   0.017   0.183   0.282
    1UNL    H23   44  -0.062   0.242   0.064
    1UNL    H24   45  -0.191   0.203   0.172
    1UNL    H25   46  -0.085  -0.055  -0.156
    1UNL    H26   47   0.043   0.014  -0.063
   0.00000   0.00000   0.00000   0.00000   0.00000   0.00000   0.00000   0.00000   0.00000
Generated with MDTraj, t= 47.0
 47
    1UNL     C1    1  -0.136   0.226  -0.181
    1UNL     C2    2  -0.232   0.144  -0.099
    1UNL     C3    3  -0.161   0.056   0.013
    1UNL     C4    4  -0.275  -0.031   0.074
    1UNL     C5    5  -0.314  -0.150  -0.009
    1UNL     C6    6  -0.204  -0.254  -0.016
    1UNL     N1    7  -0.071  -0.186  -0.002
    1UNL     C7    8  -0.024  -0.202   0.134
    1UNL     C8    9   0.124  -0.177   0.153
    1UNL     C9   10   0.178  -0.044   0.103
    1UNL    C10   11   0.132   0.082   0.140
    1UNL     N2   12   0.216   0.175   0.084
    1UNL    C11   13   0.303   0.113  -0.003
    1UNL    C12   14   0.381   0.171  -0.104
    1UNL    C13   15   0.446   0.084  -0.185
    1UNL    C14   16   0.434  -0.055  -0.180
    1UNL    C15   17   0.349  -0.114  -0.087
    1UNL    C16   18   0.280  -0.030   0.008
    1UNL    C17   19   0.005   0.113   0.215
    1UNL    C18   20  -0.106   0.159   0.125
    1UNL    C19   21  -0.066  -0.039  -0.057
    1UNL     H1   22  -0.088   0.305  -0.124
    1UNL     H2   23  -0.053   0.157  -0.222
    1UNL     H3   24  -0.184   0.263  -0.269
    1UNL     H4   25  -0.295   0.085  -0.166
    1UNL     H5   26  -0.307   0.212  -0.052
    1UNL     H6   27  -0.263  -0.054   0.179
    1UNL     H7   28  -0.360   0.040   0.079
    1UNL     H8   29  -0.328  -0.120  -0.109
    1UNL     H9   30  -0.415  -0.183   0.024
    1UNL    H10   31  -0.225  -0.337   0.056
    1UNL    H11   32  -0.197  -0.287  -0.119
    1UNL    H12   33  -0.092  -0.149   0.198
    1UNL    H13   34  -0.062  -0.301   0.165
    1UNL    H14   35   0.181  -0.260   0.107
    1UNL    H15   36   0.147  -0.192   0.260
    1UNL    H16   37   0.201   0.278   0.088
    1UNL    H17   38   0.376   0.271  -0.124
    1UNL    H18   39   0.495   0.135  -0.268
    1UNL    H19   40   0.500  -0.119  -0.236
    1UNL    H20   41   0.354  -0.211  -0.057
    1UNL    H21   42  -0.028   0.029   0.270
    1UNL    H22   43   0.032   0.195   0.284
    1UNL    H23   44  -0.080   0.246   0.083
    1UNL    H24   45  -0.198   0.189   0.181
    1UNL    H25   46  -0.125  -0.056  -0.152
    1UNL    H26   47   0.035  -0.005  -0.089
   0.00000   0.00000   0.00000   0.00000   0.00000   0.00000   0.00000   0.00000   0.00000
Generated with MDTraj, t= 48.0
 47
    1UNL     C1    1  -0.136   0.199  -0.203
    1UNL     C2    2  -0.247   0.156  -0.104
    1UNL     C3    3  -0.171   0.069   0.011
    1UNL     C4    4  -0.277  -0.013   0.092
    1UNL     C5    5  -0.329  -0.139   0.025
    1UNL     C6    6  -0.208  -0.232  -0.011
    1UNL     N1    7  -0.077  -0.176   0.002
    1UNL     C7    8  -0.012  -0.224   0.122
    1UNL     C8    9   0.138  -0.198   0.127
    1UNL     C9   10   0.177  -0.059   0.094
    1UNL    C10   11   0.122   0.063   0.130
    1UNL     N2   12   0.195   0.168   0.068
    1UNL    C11   13   0.297   0.111  -0.009
    1UNL    C12   14   0.376   0.171  -0.097
    1UNL    C13   15   0.462   0.094  -0.178
    1UNL    C14   16   0.457  -0.044  -0.161
    1UNL    C15   17   0.379  -0.104  -0.067
    1UNL    C16   18   0.290  -0.028   0.010
    1UNL    C17   19  -0.003   0.097   0.212
    1UNL    C18   20  -0.108   0.166   0.119
    1UNL    C19   21  -0.069  -0.030  -0.052
    1UNL     H1   22  -0.034   0.203  -0.163
    1UNL     H2   23  -0.133   0.126  -0.294
    1UNL     H3   24  -0.157   0.289  -0.250
    1UNL     H4   25  -0.329   0.104  -0.154
    1UNL     H5   26  -0.295   0.243  -0.052
    1UNL     H6   27  -0.236  -0.033   0.192
    1UNL     H7   28  -0.359   0.056   0.116
    1UNL     H8   29  -0.389  -0.116  -0.058
    1UNL     H9   30  -0.399  -0.198   0.088
    1UNL    H10   31  -0.220  -0.320   0.057
    1UNL    H11   32  -0.219  -0.258  -0.115
    1UNL    H12   33  -0.059  -0.170   0.200
    1UNL    H13   34  -0.047  -0.326   0.138
    1UNL    H14   35   0.183  -0.278   0.063
    1UNL    H15   36   0.167  -0.226   0.227
    1UNL    H16   37   0.160   0.268   0.058
    1UNL    H17   38   0.359   0.279  -0.124
    1UNL    H18   39   0.529   0.132  -0.253
    1UNL    H19   40   0.544  -0.096  -0.203
    1UNL    H20   41   0.401  -0.219  -0.056
    1UNL    H21   42  -0.043   0.009   0.258
    1UNL    H22   43   0.027   0.175   0.287
    1UNL    H23   44  -0.068   0.243   0.060
    1UNL    H24   45  -0.187   0.218   0.176
    1UNL    H25   46  -0.085  -0.043  -0.163
    1UNL    H26   47   0.032   0.009  -0.042
   0.00000   0.00000   0.00000   0.00000   0.00000   0.00000   0.00000   0.00000   0.00000
Generated with MDTraj, t= 49.0
 47
    1UNL     C1    1  -0.177   0.229  -0.189
    1UNL     C2    2  -0.255   0.133  -0.093
    1UNL     C3    3  -0.181   0.055   0.017
    1UNL     C4    4  -0.294  -0.016   0.108
    1UNL     C5    5  -0.348  -0.144   0.037
    1UNL     C6    6  -0.236  -0.244  -0.002
    1UNL     N1    7  -0.103  -0.188  -0.004
    1UNL     C7    8  -0.024  -0.214   0.116
    1UNL     C8    9   0.128  -0.190   0.106
    1UNL     C9   10   0.187  -0.048   0.079
    1UNL    C10   11   0.132   0.074   0.122
    1UNL     N2   12   0.213   0.179   0.067
    1UNL    C11   13   0.304   0.118  -0.023
    1UNL    C12   14   0.414   0.177  -0.092
    1UNL    C13   15   0.497   0.089  -0.162
    1UNL    C14   16   0.497  -0.046  -0.136
    1UNL    C15   17   0.395  -0.108  -0.066
    1UNL    C16   18   0.298  -0.021   0.001
    1UNL    C17   19   0.009   0.105   0.195
    1UNL    C18   20  -0.104   0.158   0.102
    1UNL    C19   21  -0.088  -0.050  -0.064
    1UNL     H1   22  -0.154   0.332  -0.151
    1UNL     H2   23  -0.079   0.183  -0.222
    1UNL     H3   24  -0.232   0.235  -0.277
    1UNL     H4   25  -0.314   0.057  -0.144
    1UNL     H5   26  -0.325   0.203  -0.039
    1UNL     H6   27  -0.238  -0.057   0.193
    1UNL     H7   28  -0.367   0.056   0.149
    1UNL     H8   29  -0.398  -0.113  -0.050
    1UNL     H9   30  -0.422  -0.195   0.101
    1UNL    H10   31  -0.235  -0.321   0.079
    1UNL    H11   32  -0.259  -0.288  -0.098
    1UNL    H12   33  -0.072  -0.160   0.197
    1UNL    H13   34  -0.031  -0.320   0.141
    1UNL    H14   35   0.177  -0.271   0.043
    1UNL    H15   36   0.161  -0.217   0.206
    1UNL    H16   37   0.207   0.284   0.090
    1UNL    H17   38   0.426   0.280  -0.119
    1UNL    H18   39   0.582   0.129  -0.222
    1UNL    H19   40   0.569  -0.113  -0.178
    1UNL    H20   41   0.390  -0.210  -0.051
    1UNL    H21   42  -0.023   0.007   0.241
    1UNL    H22   43   0.028   0.187   0.271
    1UNL    H23   44  -0.056   0.229   0.026
    1UNL    H24   45  -0.172   0.221   0.159
    1UNL    H25   46  -0.116  -0.062  -0.172
    1UNL    H26   47   0.016  -0.022  -0.048
   0.00000   0.00000   0.00000   0.00000   0.00000   0.00000   0.00000   0.00000   0.00000
Generated with MDTraj, t= 50.0
 47
    1UNL     C1    1  -0.238   0.240  -0.187
    1UNL     C2    2  -0.299   0.141  -0.089
    1UNL     C3    3  -0.205   0.064   0.010
    1UNL     C4    4  -0.293  -0.020   0.111
    1UNL     C5    5  -0.339  -0.165   0.059
    1UNL     C6    6  -0.230  -0.258   0.004
    1UNL     N1    7  -0.103  -0.182   0.002
    1UNL     C7    8  -0.012  -0.199   0.117
    1UNL     C8    9   0.139  -0.186   0.088
    1UNL     C9   10   0.181  -0.046   0.050
    1UNL    C10   11   0.135   0.078   0.101
    1UNL     N2   12   0.219   0.173   0.051
    1UNL    C11   13   0.327   0.119  -0.021
    1UNL    C12   14   0.452   0.166  -0.054
    1UNL    C13   15   0.541   0.077  -0.109
    1UNL    C14   16   0.508  -0.062  -0.130
    1UNL    C15   17   0.393  -0.111  -0.083
    1UNL    C16   18   0.308  -0.020  -0.012
    1UNL    C17   19   0.008   0.112   0.179
    1UNL    C18   20  -0.106   0.162   0.090
    1UNL    C19   21  -0.113  -0.040  -0.062
    1UNL     H1   22  -0.167   0.314  -0.140
    1UNL     H2   23  -0.183   0.186  -0.261
    1UNL     H3   24  -0.315   0.293  -0.244
    1UNL     H4   25  -0.360   0.069  -0.145
    1UNL     H5   26  -0.364   0.196  -0.015
    1UNL     H6   27  -0.234  -0.019   0.205
    1UNL     H7   28  -0.387   0.034   0.135
    1UNL     H8   29  -0.416  -0.151  -0.013
    1UNL     H9   30  -0.390  -0.209   0.145
    1UNL    H10   31  -0.228  -0.349   0.066
    1UNL    H11   32  -0.243  -0.286  -0.100
    1UNL    H12   33  -0.033  -0.140   0.207
    1UNL    H13   34  -0.028  -0.298   0.155
    1UNL    H14   35   0.167  -0.249  -0.003
    1UNL    H15   36   0.202  -0.226   0.167
    1UNL    H16   37   0.210   0.279   0.058
    1UNL    H17   38   0.477   0.267  -0.037
    1UNL    H18   39   0.627   0.108  -0.164
    1UNL    H19   40   0.584  -0.128  -0.174
    1UNL    H20   41   0.366  -0.212  -0.110
    1UNL    H21   42  -0.039   0.027   0.243
    1UNL    H22   43   0.038   0.196   0.250
    1UNL    H23   44  -0.047   0.231   0.012
    1UNL    H24   45  -0.172   0.230   0.143
    1UNL    H25   46  -0.152  -0.050  -0.166
    1UNL    H26   47  -0.009  -0.007  -0.059
   0.00000   0.00000   0.00000   0.00000   0.00000   0.00000   0.00000   0.00000   0.00000
Generated with MDTraj, t= 51.0
 47
    1UNL     C1    1  -0.268   0.194  -0.196
    1UNL     C2    2  -0.309   0.122  -0.065
    1UNL     C3    3  -0.198   0.061   0.022
    1UNL     C4    4  -0.268  -0.020   0.142
    1UNL     C5    5  -0.348  -0.147   0.094
    1UNL     C6    6  -0.263  -0.227  -0.003
    1UNL     N1    7  -0.120  -0.178  -0.024
    1UNL     C7    8  -0.024  -0.223   0.082
    1UNL     C8    9   0.126  -0.191   0.050
    1UNL     C9   10   0.177  -0.042   0.053
    1UNL    C10   11   0.137   0.085   0.086
    1UNL     N2   12   0.229   0.177   0.044
    1UNL    C11   13   0.338   0.117  -0.006
    1UNL    C12   14   0.468   0.165  -0.045
    1UNL    C13   15   0.560   0.080  -0.097
    1UNL    C14   16   0.529  -0.055  -0.110
    1UNL    C15   17   0.409  -0.104  -0.065
    1UNL    C16   18   0.312  -0.023  -0.004
    1UNL    C17   19   0.014   0.121   0.162
    1UNL    C18   20  -0.100   0.166   0.074
    1UNL    C19   21  -0.117  -0.034  -0.071
    1UNL     H1   22  -0.220   0.293  -0.179
    1UNL     H2   23  -0.204   0.136  -0.252
    1UNL     H3   24  -0.360   0.205  -0.262
    1UNL     H4   25  -0.377   0.041  -0.094
    1UNL     H5   26  -0.364   0.189   0.009
    1UNL     H6   27  -0.206  -0.042   0.231
    1UNL     H7   28  -0.343   0.060   0.166
    1UNL     H8   29  -0.442  -0.112   0.058
    1UNL     H9   30  -0.380  -0.204   0.181
    1UNL    H10   31  -0.245  -0.331   0.031
    1UNL    H11   32  -0.316  -0.235  -0.097
    1UNL    H12   33  -0.050  -0.174   0.173
    1UNL    H13   34  -0.026  -0.325   0.116
    1UNL    H14   35   0.136  -0.217  -0.062
    1UNL    H15   36   0.202  -0.249   0.101
    1UNL    H16   37   0.219   0.282   0.059
    1UNL    H17   38   0.486   0.275  -0.030
    1UNL    H18   39   0.647   0.138  -0.139
    1UNL    H19   40   0.616  -0.114  -0.130
    1UNL    H20   41   0.392  -0.213  -0.034
    1UNL    H21   42  -0.017   0.038   0.228
    1UNL    H22   43   0.041   0.205   0.238
    1UNL    H23   44  -0.051   0.207  -0.023
    1UNL    H24   45  -0.154   0.251   0.117
    1UNL    H25   46  -0.163  -0.050  -0.170
    1UNL    H26   47  -0.017   0.011  -0.080
   0.00000   0.00000   0.00000   0.00000   0.00000   0.00000   0.00000   0.00000   0.00000
Generated with MDTraj, t= 52.0
 47
    1UNL     C1    1  -0.275   0.209  -0.185
    1UNL     C2    2  -0.327   0.134  -0.061
    1UNL     C3    3  -0.210   0.062   0.007
    1UNL     C4    4  -0.279  -0.008   0.136
    1UNL     C5    5  -0.335  -0.152   0.113
    1UNL     C6    6  -0.252  -0.245   0.025
    1UNL     N1    7  -0.124  -0.179  -0.020
    1UNL     C7    8  -0.019  -0.205   0.079
    1UNL     C8    9   0.126  -0.186   0.023
    1UNL     C9   10   0.186  -0.048   0.028
    1UNL    C10   11   0.140   0.077   0.076
    1UNL     N2   12   0.231   0.173   0.059
    1UNL    C11   13   0.344   0.115  -0.002
    1UNL    C12   14   0.468   0.169  -0.038
    1UNL    C13   15   0.561   0.085  -0.084
    1UNL    C14   16   0.541  -0.055  -0.093
    1UNL    C15   17   0.419  -0.117  -0.056
    1UNL    C16   18   0.322  -0.024  -0.015
    1UNL    C17   19   0.009   0.113   0.148
    1UNL    C18   20  -0.102   0.165   0.058
    1UNL    C19   21  -0.138  -0.038  -0.087
    1UNL     H1   22  -0.198   0.281  -0.163
    1UNL     H2   23  -0.233   0.141  -0.252
    1UNL     H3   24  -0.357   0.260  -0.247
    1UNL     H4   25  -0.402   0.056  -0.083
    1UNL     H5   26  -0.378   0.207   0.009
    1UNL     H6   27  -0.202   0.000   0.216
    1UNL     H7   28  -0.364   0.054   0.172
    1UNL     H8   29  -0.436  -0.151   0.072
    1UNL     H9   30  -0.348  -0.197   0.211
    1UNL    H10   31  -0.227  -0.332   0.090
    1UNL    H11   32  -0.306  -0.284  -0.060
    1UNL    H12   33  -0.025  -0.163   0.177
    1UNL    H13   34  -0.027  -0.308   0.112
    1UNL    H14   35   0.130  -0.221  -0.087
    1UNL    H15   36   0.198  -0.245   0.077
    1UNL    H16   37   0.231   0.271   0.096
    1UNL    H17   38   0.461   0.271  -0.050
    1UNL    H18   39   0.654   0.122  -0.113
    1UNL    H19   40   0.624  -0.122  -0.116
    1UNL    H20   41   0.421  -0.210  -0.020
    1UNL    H21   42  -0.023   0.050   0.226
    1UNL    H22   43   0.041   0.203   0.218
    1UNL    H23   44  -0.051   0.216  -0.022
    1UNL    H24   45  -0.157   0.247   0.110
    1UNL    H25   46  -0.211  -0.047  -0.169
    1UNL    H26   47  -0.040  -0.007  -0.127
   0.00000   0.00000   0.00000   0.00000   0.00000   0.00000   0.00000   0.00000   0.00000
Generated with MDTraj, t= 53.0
 47
    1UNL     C1    1  -0.272   0.214  -0.173
    1UNL     C2    2  -0.322   0.113  -0.075
    1UNL     C3    3  -0.207   0.056   0.012
    1UNL     C4    4  -0.285  -0.007   0.135
    1UNL     C5    5  -0.358  -0.134   0.090
    1UNL     C6    6  -0.253  -0.244   0.043
    1UNL     N1    7  -0.125  -0.186  -0.003
    1UNL     C7    8  -0.015  -0.205   0.084
    1UNL     C8    9   0.126  -0.181   0.026
    1UNL     C9   10   0.179  -0.038   0.011
    1UNL    C10   11   0.134   0.078   0.070
    1UNL     N2   12   0.239   0.172   0.056
    1UNL    C11   13   0.349   0.114  -0.002
    1UNL    C12   14   0.479   0.169  -0.016
    1UNL    C13   15   0.571   0.080  -0.071
    1UNL    C14   16   0.540  -0.056  -0.105
    1UNL    C15   17   0.416  -0.106  -0.077
    1UNL    C16   18   0.319  -0.021  -0.032
    1UNL    C17   19   0.012   0.117   0.143
    1UNL    C18   20  -0.113   0.168   0.064
    1UNL    C19   21  -0.131  -0.052  -0.072
    1UNL     H1   22  -0.227   0.299  -0.133
    1UNL     H2   23  -0.201   0.164  -0.243
    1UNL     H3   24  -0.356   0.252  -0.239
    1UNL     H4   25  -0.388   0.035  -0.117
    1UNL     H5   26  -0.392   0.168  -0.004
    1UNL     H6   27  -0.209  -0.036   0.212
    1UNL     H7   28  -0.350   0.069   0.182
    1UNL     H8   29  -0.421  -0.114   0.003
    1UNL     H9   30  -0.420  -0.177   0.168
    1UNL    H10   31  -0.235  -0.306   0.133
    1UNL    H11   32  -0.286  -0.308  -0.039
    1UNL    H12   33  -0.030  -0.164   0.184
    1UNL    H13   34  -0.007  -0.309   0.118
    1UNL    H14   35   0.128  -0.230  -0.078
    1UNL    H15   36   0.202  -0.228   0.088
    1UNL    H16   37   0.233   0.265   0.096
    1UNL    H17   38   0.501   0.280  -0.011
    1UNL    H18   39   0.665   0.126  -0.111
    1UNL    H19   40   0.615  -0.126  -0.134
    1UNL    H20   41   0.389  -0.213  -0.106
    1UNL    H21   42  -0.018   0.040   0.210
    1UNL    H22   43   0.031   0.193   0.230
    1UNL    H23   44  -0.076   0.215  -0.018
    1UNL    H24   45  -0.171   0.246   0.123
    1UNL    H25   46  -0.172  -0.074  -0.172
    1UNL    H26   47  -0.028  -0.017  -0.092
   0.00000   0.00000   0.00000   0.00000   0.00000   0.00000   0.00000   0.00000   0.00000
Generated with MDTraj, t= 54.0
 47
    1UNL     C1    1  -0.235   0.205  -0.199
    1UNL     C2    2  -0.301   0.133  -0.084
    1UNL     C3    3  -0.210   0.055   0.014
    1UNL     C4    4  -0.295  -0.003   0.131
    1UNL     C5    5  -0.356  -0.136   0.100
    1UNL     C6    6  -0.246  -0.235   0.048
    1UNL     N1    7  -0.118  -0.185   0.010
    1UNL     C7    8  -0.005  -0.221   0.081
    1UNL     C8    9   0.129  -0.187   0.014
    1UNL     C9   10   0.180  -0.044   0.034
    1UNL    C10   11   0.130   0.078   0.080
    1UNL     N2   12   0.228   0.174   0.070
    1UNL    C11   13   0.338   0.121   0.005
    1UNL    C12   14   0.469   0.165  -0.025
    1UNL    C13   15   0.559   0.087  -0.095
    1UNL    C14   16   0.531  -0.050  -0.118
    1UNL    C15   17   0.405  -0.093  -0.083
    1UNL    C16   18   0.312  -0.015  -0.012
    1UNL    C17   19   0.003   0.103   0.156
    1UNL    C18   20  -0.099   0.159   0.062
    1UNL    C19   21  -0.140  -0.056  -0.067
    1UNL     H1   22  -0.171   0.281  -0.167
    1UNL     H2   23  -0.176   0.127  -0.262
    1UNL     H3   24  -0.311   0.246  -0.267
    1UNL     H4   25  -0.386   0.076  -0.127
    1UNL     H5   26  -0.354   0.210  -0.020
    1UNL     H6   27  -0.233  -0.016   0.224
    1UNL     H7   28  -0.374   0.072   0.154
    1UNL     H8   29  -0.432  -0.121   0.020
    1UNL     H9   30  -0.401  -0.185   0.184
    1UNL    H10   31  -0.230  -0.319   0.120
    1UNL    H11   32  -0.284  -0.278  -0.046
    1UNL    H12   33  -0.004  -0.178   0.185
    1UNL    H13   34  -0.001  -0.328   0.104
    1UNL    H14   35   0.113  -0.202  -0.099
    1UNL    H15   36   0.203  -0.258   0.048
    1UNL    H16   37   0.218   0.269   0.095
    1UNL    H17   38   0.492   0.263   0.003
    1UNL    H18   39   0.656   0.109  -0.129
    1UNL    H19   40   0.605  -0.121  -0.161
    1UNL    H20   41   0.364  -0.190  -0.120
    1UNL    H21   42  -0.024   0.005   0.198
    1UNL    H22   43   0.022   0.159   0.257
    1UNL    H23   44  -0.055   0.198  -0.021
    1UNL    H24   45  -0.154   0.248   0.104
    1UNL    H25   46  -0.180  -0.072  -0.169
    1UNL    H26   47  -0.034  -0.029  -0.090
   0.00000   0.00000   0.00000   0.00000   0.00000   0.00000   0.00000   0.00000   0.00000
Generated with MDTraj, t= 55.0
 47
    1UNL     C1    1  -0.223   0.170  -0.224
    1UNL     C2    2  -0.282   0.159  -0.085
    1UNL     C3    3  -0.197   0.066   0.013
    1UNL     C4    4  -0.301   0.013   0.119
    1UNL     C5    5  -0.360  -0.116   0.070
    1UNL     C6    6  -0.266  -0.235   0.054
    1UNL     N1    7  -0.129  -0.191   0.014
    1UNL     C7    8  -0.008  -0.215   0.091
    1UNL     C8    9   0.128  -0.201   0.024
    1UNL     C9   10   0.192  -0.065   0.042
    1UNL    C10   11   0.140   0.049   0.108
    1UNL     N2   12   0.224   0.157   0.082
    1UNL    C11   13   0.330   0.117   0.006
    1UNL    C12   14   0.445   0.186  -0.039
    1UNL    C13   15   0.539   0.117  -0.109
    1UNL    C14   16   0.520  -0.021  -0.134
    1UNL    C15   17   0.409  -0.094  -0.098
    1UNL    C16   18   0.317  -0.025  -0.011
    1UNL    C17   19   0.012   0.079   0.177
    1UNL    C18   20  -0.084   0.154   0.079
    1UNL    C19   21  -0.129  -0.053  -0.055
    1UNL     H1   22  -0.121   0.215  -0.222
    1UNL     H2   23  -0.214   0.069  -0.280
    1UNL     H3   24  -0.278   0.231  -0.292
    1UNL     H4   25  -0.388   0.124  -0.084
    1UNL     H5   26  -0.295   0.263  -0.045
    1UNL     H6   27  -0.243  -0.004   0.213
    1UNL     H7   28  -0.385   0.085   0.138
    1UNL     H8   29  -0.408  -0.106  -0.031
    1UNL     H9   30  -0.441  -0.138   0.136
    1UNL    H10   31  -0.261  -0.292   0.149
    1UNL    H11   32  -0.292  -0.313  -0.018
    1UNL    H12   33  -0.005  -0.166   0.194
    1UNL    H13   34  -0.016  -0.322   0.119
    1UNL    H14   35   0.128  -0.234  -0.085
    1UNL    H15   36   0.198  -0.269   0.071
    1UNL    H16   37   0.202   0.247   0.112
    1UNL    H17   38   0.456   0.294  -0.019
    1UNL    H18   39   0.630   0.173  -0.138
    1UNL    H19   40   0.589  -0.075  -0.192
    1UNL    H20   41   0.396  -0.190  -0.118
    1UNL    H21   42  -0.040  -0.009   0.225
    1UNL    H22   43   0.049   0.145   0.267
    1UNL    H23   44  -0.020   0.198   0.004
    1UNL    H24   45  -0.137   0.240   0.130
    1UNL    H25   46  -0.168  -0.076  -0.155
    1UNL    H26   47  -0.024  -0.025  -0.086
   0.00000   0.00000   0.00000   0.00000   0.00000   0.00000   0.00000   0.00000   0.00000
Generated with MDTraj, t= 56.0
 47
    1UNL     C1    1  -0.168   0.192  -0.228
    1UNL     C2    2  -0.257   0.146  -0.105
    1UNL     C3    3  -0.193   0.070   0.010
    1UNL     C4    4  -0.321   0.016   0.103
    1UNL     C5    5  -0.369  -0.131   0.070
    1UNL     C6    6  -0.243  -0.227   0.066
    1UNL     N1    7  -0.108  -0.163   0.056
    1UNL     C7    8   0.007  -0.256   0.073
    1UNL     C8    9   0.142  -0.202   0.027
    1UNL     C9   10   0.184  -0.061   0.055
    1UNL    C10   11   0.137   0.051   0.120
    1UNL     N2   12   0.220   0.157   0.095
    1UNL    C11   13   0.327   0.117   0.015
    1UNL    C12   14   0.431   0.182  -0.044
    1UNL    C13   15   0.515   0.106  -0.125
    1UNL    C14   16   0.487  -0.026  -0.161
    1UNL    C15   17   0.386  -0.093  -0.102
    1UNL    C16   18   0.305  -0.018  -0.014
    1UNL    C17   19  -0.003   0.081   0.179
    1UNL    C18   20  -0.106   0.164   0.089
    1UNL    C19   21  -0.110  -0.047  -0.047
    1UNL     H1   22  -0.075   0.245  -0.183
    1UNL     H2   23  -0.130   0.108  -0.292
    1UNL     H3   24  -0.214   0.262  -0.292
    1UNL     H4   25  -0.330   0.078  -0.151
    1UNL     H5   26  -0.318   0.230  -0.064
    1UNL     H6   27  -0.292   0.021   0.210
    1UNL     H7   28  -0.403   0.089   0.080
    1UNL     H8   29  -0.424  -0.120  -0.029
    1UNL     H9   30  -0.442  -0.179   0.131
    1UNL    H10   31  -0.225  -0.278   0.163
    1UNL    H11   32  -0.261  -0.315   0.003
    1UNL    H12   33   0.010  -0.277   0.187
    1UNL    H13   34  -0.021  -0.356   0.033
    1UNL    H14   35   0.138  -0.211  -0.086
    1UNL    H15   36   0.223  -0.272   0.046
    1UNL    H16   37   0.208   0.250   0.122
    1UNL    H17   38   0.452   0.287  -0.025
    1UNL    H18   39   0.584   0.166  -0.180
    1UNL    H19   40   0.567  -0.071  -0.225
    1UNL    H20   41   0.373  -0.209  -0.102
    1UNL    H21   42  -0.041  -0.018   0.212
    1UNL    H22   43   0.019   0.152   0.270
    1UNL    H23   44  -0.045   0.222   0.013
    1UNL    H24   45  -0.157   0.237   0.156
    1UNL    H25   46  -0.163  -0.092  -0.131
    1UNL    H26   47  -0.011  -0.025  -0.095
   0.00000   0.00000   0.00000   0.00000   0.00000   0.00000   0.00000   0.00000   0.00000
Generated with MDTraj, t= 57.0
 47
    1UNL     C1    1  -0.111   0.213  -0.193
    1UNL     C2    2  -0.232   0.151  -0.127
    1UNL     C3    3  -0.194   0.063  -0.003
    1UNL     C4    4  -0.325   0.024   0.078
    1UNL     C5    5  -0.367  -0.118   0.070
    1UNL     C6    6  -0.260  -0.219   0.115
    1UNL     N1    7  -0.124  -0.191   0.058
    1UNL     C7    8   0.008  -0.241   0.113
    1UNL     C8    9   0.128  -0.210   0.026
    1UNL     C9   10   0.182  -0.068   0.031
    1UNL    C10   11   0.125   0.038   0.108
    1UNL     N2   12   0.209   0.143   0.091
    1UNL    C11   13   0.316   0.117   0.004
    1UNL    C12   14   0.419   0.191  -0.043
    1UNL    C13   15   0.512   0.130  -0.127
    1UNL    C14   16   0.502  -0.003  -0.167
    1UNL    C15   17   0.398  -0.079  -0.121
    1UNL    C16   18   0.300  -0.021  -0.033
    1UNL    C17   19  -0.002   0.062   0.183
    1UNL    C18   20  -0.102   0.139   0.094
    1UNL    C19   21  -0.127  -0.069  -0.046
    1UNL     H1   22  -0.082   0.302  -0.121
    1UNL     H2   23  -0.023   0.148  -0.188
    1UNL     H3   24  -0.120   0.247  -0.295
    1UNL     H4   25  -0.274   0.081  -0.201
    1UNL     H5   26  -0.310   0.229  -0.115
    1UNL     H6   27  -0.312   0.056   0.184
    1UNL     H7   28  -0.408   0.080   0.028
    1UNL     H8   29  -0.395  -0.153  -0.036
    1UNL     H9   30  -0.459  -0.123   0.124
    1UNL    H10   31  -0.269  -0.243   0.222
    1UNL    H11   32  -0.274  -0.318   0.069
    1UNL    H12   33   0.015  -0.224   0.227
    1UNL    H13   34  -0.012  -0.350   0.108
    1UNL    H14   35   0.107  -0.235  -0.081
    1UNL    H15   36   0.210  -0.281   0.040
    1UNL    H16   37   0.197   0.235   0.129
    1UNL    H17   38   0.415   0.297  -0.030
    1UNL    H18   39   0.599   0.186  -0.164
    1UNL    H19   40   0.574  -0.045  -0.230
    1UNL    H20   41   0.400  -0.188  -0.127
    1UNL    H21   42  -0.044  -0.033   0.214
    1UNL    H22   43   0.036   0.128   0.274
    1UNL    H23   44  -0.030   0.217   0.041
    1UNL    H24   45  -0.172   0.197   0.156
    1UNL    H25   46  -0.167  -0.106  -0.141
    1UNL    H26   47  -0.023  -0.047  -0.076
   0.00000   0.00000   0.00000   0.00000   0.00000   0.00000   0.00000   0.00000   0.00000
Generated with MDTraj, t= 58.0
 47
    1UNL     C1    1  -0.099   0.192  -0.203
    1UNL     C2    2  -0.212   0.165  -0.107
    1UNL     C3    3  -0.193   0.065   0.004
    1UNL     C4    4  -0.334   0.024   0.056
    1UNL     C5    5  -0.354  -0.127   0.067
    1UNL     C6    6  -0.231  -0.195   0.133
    1UNL     N1    7  -0.107  -0.176   0.048
    1UNL     C7    8   0.013  -0.261   0.082
    1UNL     C8    9   0.143  -0.211   0.022
    1UNL     C9   10   0.173  -0.066   0.045
    1UNL    C10   11   0.112   0.044   0.109
    1UNL     N2   12   0.200   0.152   0.085
    1UNL    C11   13   0.305   0.114   0.001
    1UNL    C12   14   0.416   0.186  -0.053
    1UNL    C13   15   0.505   0.128  -0.140
    1UNL    C14   16   0.484  -0.011  -0.156
    1UNL    C15   17   0.384  -0.084  -0.103
    1UNL    C16   18   0.287  -0.017  -0.021
    1UNL    C17   19  -0.013   0.053   0.184
    1UNL    C18   20  -0.113   0.139   0.117
    1UNL    C19   21  -0.121  -0.062  -0.057
    1UNL     H1   22  -0.013   0.225  -0.137
    1UNL     H2   23  -0.058   0.114  -0.264
    1UNL     H3   24  -0.115   0.278  -0.274
    1UNL     H4   25  -0.304   0.146  -0.164
    1UNL     H5   26  -0.233   0.259  -0.052
    1UNL     H6   27  -0.344   0.074   0.154
    1UNL     H7   28  -0.414   0.062  -0.012
    1UNL     H8   29  -0.369  -0.164  -0.040
    1UNL     H9   30  -0.439  -0.164   0.120
    1UNL    H10   31  -0.207  -0.153   0.232
    1UNL    H11   32  -0.261  -0.298   0.155
    1UNL    H12   33   0.024  -0.246   0.195
    1UNL    H13   34  -0.006  -0.370   0.067
    1UNL    H14   35   0.134  -0.235  -0.085
    1UNL    H15   36   0.223  -0.279   0.050
    1UNL    H16   37   0.187   0.247   0.123
    1UNL    H17   38   0.433   0.296  -0.039
    1UNL    H18   39   0.589   0.184  -0.180
    1UNL    H19   40   0.559  -0.070  -0.212
    1UNL    H20   41   0.370  -0.180  -0.129
    1UNL    H21   42  -0.041  -0.050   0.202
    1UNL    H22   43   0.015   0.096   0.288
    1UNL    H23   44  -0.059   0.228   0.066
    1UNL    H24   45  -0.186   0.177   0.191
    1UNL    H25   46  -0.173  -0.101  -0.147
    1UNL    H26   47  -0.022  -0.037  -0.088
   0.00000   0.00000   0.00000   0.00000   0.00000   0.00000   0.00000   0.00000   0.00000
Generated with MDTraj, t= 59.0
 47
    1UNL     C1    1  -0.079   0.190  -0.187
    1UNL     C2    2  -0.212   0.165  -0.111
    1UNL     C3    3  -0.193   0.062   0.002
    1UNL     C4    4  -0.340   0.033   0.062
    1UNL     C5    5  -0.373  -0.120   0.062
    1UNL     C6    6  -0.257  -0.212   0.118
    1UNL     N1    7  -0.125  -0.185   0.057
    1UNL     C7    8   0.004  -0.247   0.102
    1UNL     C8    9   0.135  -0.211   0.028
    1UNL     C9   10   0.182  -0.065   0.036
    1UNL    C10   11   0.124   0.043   0.100
    1UNL     N2   12   0.204   0.156   0.084
    1UNL    C11   13   0.310   0.123   0.003
    1UNL    C12   14   0.408   0.194  -0.058
    1UNL    C13   15   0.502   0.134  -0.145
    1UNL    C14   16   0.500  -0.005  -0.166
    1UNL    C15   17   0.401  -0.079  -0.100
    1UNL    C16   18   0.302  -0.019  -0.020
    1UNL    C17   19   0.003   0.048   0.179
    1UNL    C18   20  -0.109   0.132   0.115
    1UNL    C19   21  -0.130  -0.075  -0.047
    1UNL     H1   22  -0.011   0.235  -0.121
    1UNL     H2   23  -0.032   0.099  -0.222
    1UNL     H3   24  -0.098   0.259  -0.279
    1UNL     H4   25  -0.281   0.119  -0.184
    1UNL     H5   26  -0.261   0.255  -0.074
    1UNL     H6   27  -0.335   0.054   0.170
    1UNL     H7   28  -0.420   0.100   0.020
    1UNL     H8   29  -0.385  -0.160  -0.045
    1UNL     H9   30  -0.465  -0.137   0.114
    1UNL    H10   31  -0.249  -0.178   0.223
    1UNL    H11   32  -0.280  -0.319   0.115
    1UNL    H12   33   0.028  -0.238   0.213
    1UNL    H13   34  -0.016  -0.355   0.083
    1UNL    H14   35   0.117  -0.235  -0.077
    1UNL    H15   36   0.216  -0.282   0.052
    1UNL    H16   37   0.167   0.248   0.119
    1UNL    H17   38   0.418   0.294  -0.036
    1UNL    H18   39   0.582   0.181  -0.200
    1UNL    H19   40   0.571  -0.048  -0.232
    1UNL    H20   41   0.377  -0.183  -0.147
    1UNL    H21   42  -0.030  -0.055   0.195
    1UNL    H22   43   0.033   0.081   0.284
    1UNL    H23   44  -0.066   0.224   0.070
    1UNL    H24   45  -0.183   0.162   0.193
    1UNL    H25   46  -0.188  -0.127  -0.125
    1UNL    H26   47  -0.031  -0.059  -0.083
   0.00000   0.00000   0.00000   0.00000   0.00000   0.00000   0.00000   0.00000   0.00000
Generated with MDTraj, t= 60.0
 47
    1UNL     C1    1  -0.104   0.214  -0.196
    1UNL     C2    2  -0.223   0.162  -0.116
    1UNL     C3    3  -0.186   0.065   0.004
    1UNL     C4    4  -0.322   0.022   0.072
    1UNL     C5    5  -0.355  -0.127   0.050
    1UNL     C6    6  -0.241  -0.219   0.102
    1UNL     N1    7  -0.105  -0.179   0.057
    1UNL     C7    8   0.011  -0.244   0.110
    1UNL     C8    9   0.135  -0.207   0.034
    1UNL     C9   10   0.179  -0.067   0.039
    1UNL    C10   11   0.127   0.037   0.109
    1UNL     N2   12   0.199   0.149   0.082
    1UNL    C11   13   0.304   0.116  -0.001
    1UNL    C12   14   0.408   0.194  -0.055
    1UNL    C13   15   0.494   0.119  -0.128
    1UNL    C14   16   0.484  -0.020  -0.153
    1UNL    C15   17   0.372  -0.090  -0.114
    1UNL    C16   18   0.288  -0.017  -0.034
    1UNL    C17   19  -0.003   0.057   0.187
    1UNL    C18   20  -0.102   0.151   0.106
    1UNL    C19   21  -0.110  -0.064  -0.046
    1UNL     H1   22  -0.058   0.290  -0.147
    1UNL     H2   23  -0.023   0.143  -0.217
    1UNL     H3   24  -0.141   0.259  -0.298
    1UNL     H4   25  -0.300   0.108  -0.173
    1UNL     H5   26  -0.276   0.249  -0.080
    1UNL     H6   27  -0.317   0.044   0.179
    1UNL     H7   28  -0.410   0.084   0.037
    1UNL     H8   29  -0.379  -0.147  -0.062
    1UNL     H9   30  -0.437  -0.155   0.112
    1UNL    H10   31  -0.251  -0.228   0.211
    1UNL    H11   32  -0.255  -0.316   0.051
    1UNL    H12   33   0.019  -0.218   0.220
    1UNL    H13   34   0.005  -0.355   0.104
    1UNL    H14   35   0.136  -0.246  -0.066
    1UNL    H15   36   0.216  -0.265   0.083
    1UNL    H16   37   0.182   0.241   0.132
    1UNL    H17   38   0.422   0.301  -0.026
    1UNL    H18   39   0.582   0.177  -0.157
    1UNL    H19   40   0.547  -0.071  -0.228
    1UNL    H20   41   0.354  -0.192  -0.135
    1UNL    H21   42  -0.042  -0.041   0.225
    1UNL    H22   43   0.031   0.113   0.278
    1UNL    H23   44  -0.044   0.225   0.064
    1UNL    H24   45  -0.169   0.202   0.179
    1UNL    H25   46  -0.158  -0.096  -0.140
    1UNL    H26   47  -0.005  -0.053  -0.063
   0.00000   0.00000   0.00000   0.00000   0.00000   0.00000   0.00000   0.00000   0.00000
Generated with MDTraj, t= 61.0
 47
    1UNL     C1    1  -0.152   0.201  -0.210
    1UNL     C2    2  -0.250   0.153  -0.106
    1UNL     C3    3  -0.190   0.064   0.018
    1UNL     C4    4  -0.318   0.010   0.097
    1UNL     C5    5  -0.371  -0.127   0.044
    1UNL     C6    6  -0.260  -0.234   0.047
    1UNL     N1    7  -0.118  -0.182   0.033
    1UNL     C7    8  -0.003  -0.240   0.104
    1UNL     C8    9   0.139  -0.204   0.055
    1UNL     C9   10   0.189  -0.063   0.063
    1UNL    C10   11   0.135   0.057   0.115
    1UNL     N2   12   0.223   0.157   0.092
    1UNL    C11   13   0.333   0.116   0.024
    1UNL    C12   14   0.426   0.187  -0.065
    1UNL    C13   15   0.505   0.117  -0.151
    1UNL    C14   16   0.483  -0.023  -0.169
    1UNL    C15   17   0.391  -0.096  -0.096
    1UNL    C16   18   0.313  -0.023  -0.005
    1UNL    C17   19   0.011   0.083   0.184
    1UNL    C18   20  -0.100   0.153   0.097
    1UNL    C19   21  -0.115  -0.055  -0.045
    1UNL     H1   22  -0.063   0.245  -0.167
    1UNL     H2   23  -0.115   0.117  -0.271
    1UNL     H3   24  -0.201   0.276  -0.276
    1UNL     H4   25  -0.338   0.104  -0.150
    1UNL     H5   26  -0.295   0.239  -0.059
    1UNL     H6   27  -0.307   0.006   0.205
    1UNL     H7   28  -0.396   0.089   0.082
    1UNL     H8   29  -0.413  -0.116  -0.063
    1UNL     H9   30  -0.455  -0.159   0.103
    1UNL    H10   31  -0.252  -0.280   0.147
    1UNL    H11   32  -0.280  -0.305  -0.033
    1UNL    H12   33  -0.005  -0.206   0.210
    1UNL    H13   34  -0.021  -0.350   0.102
    1UNL    H14   35   0.143  -0.225  -0.049
    1UNL    H15   36   0.221  -0.272   0.091
    1UNL    H16   37   0.193   0.259   0.101
    1UNL    H17   38   0.431   0.288  -0.035
    1UNL    H18   39   0.576   0.173  -0.208
    1UNL    H19   40   0.542  -0.070  -0.244
    1UNL    H20   41   0.399  -0.199  -0.106
    1UNL    H21   42  -0.030  -0.017   0.215
    1UNL    H22   43   0.036   0.131   0.282
    1UNL    H23   44  -0.053   0.224   0.040
    1UNL    H24   45  -0.164   0.205   0.172
    1UNL    H25   46  -0.154  -0.092  -0.139
    1UNL    H26   47  -0.011  -0.026  -0.061
   0.00000   0.00000   0.00000   0.00000   0.00000   0.00000   0.00000   0.00000   0.00000
Generated with MDTraj, t= 62.0
 47
    1UNL     C1    1  -0.206   0.208  -0.209
    1UNL     C2    2  -0.276   0.142  -0.086
    1UNL     C3    3  -0.183   0.064   0.012
    1UNL     C4    4  -0.276   0.002   0.117
    1UNL     C5    5  -0.342  -0.127   0.074
    1UNL     C6    6  -0.256  -0.242   0.017
    1UNL     N1    7  -0.108  -0.194  -0.018
    1UNL     C7    8  -0.014  -0.223   0.099
    1UNL     C8    9   0.132  -0.202   0.069
    1UNL     C9   10   0.174  -0.056   0.059
    1UNL    C10   11   0.135   0.060   0.121
    1UNL     N2   12   0.216   0.165   0.079
    1UNL    C11   13   0.314   0.112   0.002
    1UNL    C12   14   0.427   0.171  -0.058
    1UNL    C13   15   0.521   0.100  -0.120
    1UNL    C14   16   0.500  -0.036  -0.143
    1UNL    C15   17   0.385  -0.094  -0.089
    1UNL    C16   18   0.288  -0.023  -0.021
    1UNL    C17   19   0.010   0.104   0.189
    1UNL    C18   20  -0.083   0.163   0.088
    1UNL    C19   21  -0.099  -0.050  -0.065
    1UNL     H1   22  -0.116   0.272  -0.172
    1UNL     H2   23  -0.163   0.128  -0.271
    1UNL     H3   24  -0.275   0.265  -0.262
    1UNL     H4   25  -0.354   0.077  -0.126
    1UNL     H5   26  -0.331   0.213  -0.027
    1UNL     H6   27  -0.211  -0.013   0.202
    1UNL     H7   28  -0.349   0.080   0.149
    1UNL     H8   29  -0.419  -0.096  -0.006
    1UNL     H9   30  -0.411  -0.157   0.151
    1UNL    H10   31  -0.245  -0.319   0.095
    1UNL    H11   32  -0.289  -0.288  -0.077
    1UNL    H12   33  -0.045  -0.165   0.185
    1UNL    H13   34  -0.026  -0.332   0.118
    1UNL    H14   35   0.154  -0.254  -0.022
    1UNL    H15   36   0.203  -0.250   0.143
    1UNL    H16   37   0.240   0.266   0.112
    1UNL    H17   38   0.432   0.281  -0.046
    1UNL    H18   39   0.614   0.145  -0.159
    1UNL    H19   40   0.579  -0.088  -0.199
    1UNL    H20   41   0.364  -0.208  -0.100
    1UNL    H21   42  -0.021   0.029   0.259
    1UNL    H22   43   0.050   0.179   0.261
    1UNL    H23   44  -0.027   0.219   0.018
    1UNL    H24   45  -0.145   0.240   0.138
    1UNL    H25   46  -0.132  -0.046  -0.166
    1UNL    H26   47   0.011  -0.031  -0.067
   0.00000   0.00000   0.00000   0.00000   0.00000   0.00000   0.00000   0.00000   0.00000
Generated with MDTraj, t= 63.0
 47
    1UNL     C1    1  -0.250   0.233  -0.166
    1UNL     C2    2  -0.301   0.128  -0.067
    1UNL     C3    3  -0.202   0.055   0.024
    1UNL     C4    4  -0.298  -0.027   0.121
    1UNL     C5    5  -0.337  -0.164   0.063
    1UNL     C6    6  -0.234  -0.246  -0.019
    1UNL     N1    7  -0.102  -0.172  -0.027
    1UNL     C7    8  -0.026  -0.199   0.105
    1UNL     C8    9   0.125  -0.178   0.087
    1UNL     C9   10   0.183  -0.044   0.060
    1UNL    C10   11   0.137   0.077   0.100
    1UNL     N2   12   0.236   0.168   0.055
    1UNL    C11   13   0.338   0.108  -0.012
    1UNL    C12   14   0.462   0.156  -0.060
    1UNL    C13   15   0.545   0.076  -0.132
    1UNL    C14   16   0.514  -0.062  -0.127
    1UNL    C15   17   0.402  -0.117  -0.066
    1UNL    C16   18   0.308  -0.025  -0.012
    1UNL    C17   19   0.010   0.128   0.164
    1UNL    C18   20  -0.120   0.169   0.097
    1UNL    C19   21  -0.109  -0.029  -0.071
    1UNL     H1   22  -0.236   0.345  -0.126
    1UNL     H2   23  -0.152   0.209  -0.209
    1UNL     H3   24  -0.312   0.245  -0.246
    1UNL     H4   25  -0.347   0.041  -0.114
    1UNL     H5   26  -0.383   0.170  -0.011
    1UNL     H6   27  -0.242  -0.041   0.212
    1UNL     H7   28  -0.384   0.041   0.140
    1UNL     H8   29  -0.432  -0.151  -0.000
    1UNL     H9   30  -0.378  -0.223   0.144
    1UNL    H10   31  -0.207  -0.349   0.012
    1UNL    H11   32  -0.270  -0.245  -0.122
    1UNL    H12   33  -0.059  -0.129   0.178
    1UNL    H13   34  -0.040  -0.305   0.132
    1UNL    H14   35   0.158  -0.241   0.007
    1UNL    H15   36   0.174  -0.225   0.179
    1UNL    H16   37   0.217   0.273   0.064
    1UNL    H17   38   0.483   0.259  -0.049
    1UNL    H18   39   0.641   0.109  -0.162
    1UNL    H19   40   0.570  -0.135  -0.182
    1UNL    H20   41   0.384  -0.217  -0.084
    1UNL    H21   42  -0.016   0.072   0.252
    1UNL    H22   43   0.044   0.218   0.222
    1UNL    H23   44  -0.096   0.247   0.025
    1UNL    H24   45  -0.189   0.217   0.168
    1UNL    H25   46  -0.139  -0.030  -0.174
    1UNL    H26   47  -0.010   0.026  -0.069
   0.00000   0.00000   0.00000   0.00000   0.00000   0.00000   0.00000   0.00000   0.00000
Generated with MDTraj, t= 64.0
 47
    1UNL     C1    1  -0.270   0.248  -0.149
    1UNL     C2    2  -0.320   0.144  -0.050
    1UNL     C3    3  -0.200   0.064   0.017
    1UNL     C4    4  -0.267  -0.033   0.121
    1UNL     C5    5  -0.327  -0.165   0.053
    1UNL     C6    6  -0.223  -0.242  -0.032
    1UNL     N1    7  -0.096  -0.168  -0.032
    1UNL     C7    8  -0.014  -0.219   0.088
    1UNL     C8    9   0.132  -0.177   0.098
    1UNL     C9   10   0.175  -0.044   0.058
    1UNL    C10   11   0.132   0.084   0.088
    1UNL     N2   12   0.210   0.177   0.025
    1UNL    C11   13   0.320   0.108  -0.033
    1UNL    C12   14   0.444   0.154  -0.083
    1UNL    C13   15   0.543   0.064  -0.113
    1UNL    C14   16   0.524  -0.075  -0.096
    1UNL    C15   17   0.405  -0.123  -0.037
    1UNL    C16   18   0.301  -0.030  -0.008
    1UNL    C17   19   0.018   0.123   0.171
    1UNL    C18   20  -0.109   0.175   0.091
    1UNL    C19   21  -0.107  -0.024  -0.066
    1UNL     H1   22  -0.200   0.326  -0.109
    1UNL     H2   23  -0.217   0.194  -0.229
    1UNL     H3   24  -0.352   0.299  -0.194
    1UNL     H4   25  -0.387   0.083  -0.110
    1UNL     H5   26  -0.381   0.189   0.028
    1UNL     H6   27  -0.195  -0.061   0.202
    1UNL     H7   28  -0.347   0.029   0.165
    1UNL     H8   29  -0.414  -0.137  -0.012
    1UNL     H9   30  -0.365  -0.237   0.127
    1UNL    H10   31  -0.200  -0.340   0.016
    1UNL    H11   32  -0.261  -0.253  -0.134
    1UNL    H12   33  -0.064  -0.188   0.180
    1UNL    H13   34  -0.019  -0.327   0.071
    1UNL    H14   35   0.182  -0.244   0.029
    1UNL    H15   36   0.174  -0.211   0.199
    1UNL    H16   37   0.197   0.280   0.042
    1UNL    H17   38   0.474   0.258  -0.081
    1UNL    H18   39   0.646   0.092  -0.139
    1UNL    H19   40   0.606  -0.142  -0.118
    1UNL    H20   41   0.381  -0.228  -0.040
    1UNL    H21   42  -0.004   0.048   0.247
    1UNL    H22   43   0.044   0.202   0.248
    1UNL    H23   44  -0.076   0.251   0.018
    1UNL    H24   45  -0.170   0.223   0.165
    1UNL    H25   46  -0.140  -0.020  -0.169
    1UNL    H26   47  -0.005   0.018  -0.071
   0.00000   0.00000   0.00000   0.00000   0.00000   0.00000   0.00000   0.00000   0.00000
Generated with MDTraj, t= 65.0
 47
    1UNL     C1    1  -0.231   0.236  -0.170
    1UNL     C2    2  -0.292   0.130  -0.073
    1UNL     C3    3  -0.189   0.063   0.029
    1UNL     C4    4  -0.273  -0.026   0.134
    1UNL     C5    5  -0.336  -0.156   0.072
    1UNL     C6    6  -0.245  -0.218  -0.033
    1UNL     N1    7  -0.103  -0.169  -0.036
    1UNL     C7    8  -0.030  -0.216   0.089
    1UNL     C8    9   0.122  -0.195   0.097
    1UNL     C9   10   0.181  -0.056   0.069
    1UNL    C10   11   0.136   0.069   0.093
    1UNL     N2   12   0.204   0.165   0.028
    1UNL    C11   13   0.315   0.105  -0.028
    1UNL    C12   14   0.420   0.166  -0.095
    1UNL    C13   15   0.531   0.084  -0.123
    1UNL    C14   16   0.528  -0.051  -0.096
    1UNL    C15   17   0.419  -0.107  -0.048
    1UNL    C16   18   0.300  -0.036  -0.007
    1UNL    C17   19   0.016   0.103   0.179
    1UNL    C18   20  -0.098   0.172   0.098
    1UNL    C19   21  -0.100  -0.023  -0.062
    1UNL     H1   22  -0.195   0.322  -0.127
    1UNL     H2   23  -0.149   0.193  -0.229
    1UNL     H3   24  -0.309   0.261  -0.247
    1UNL     H4   25  -0.353   0.063  -0.135
    1UNL     H5   26  -0.359   0.192  -0.016
    1UNL     H6   27  -0.210  -0.057   0.224
    1UNL     H7   28  -0.355   0.032   0.176
    1UNL     H8   29  -0.438  -0.147   0.030
    1UNL     H9   30  -0.340  -0.228   0.157
    1UNL    H10   31  -0.252  -0.328  -0.017
    1UNL    H11   32  -0.280  -0.185  -0.130
    1UNL    H12   33  -0.085  -0.178   0.176
    1UNL    H13   34  -0.040  -0.323   0.091
    1UNL    H14   35   0.172  -0.261   0.031
    1UNL    H15   36   0.171  -0.217   0.197
    1UNL    H16   37   0.190   0.267   0.029
    1UNL    H17   38   0.417   0.275  -0.100
    1UNL    H18   39   0.620   0.130  -0.161
    1UNL    H19   40   0.616  -0.112  -0.117
    1UNL    H20   41   0.413  -0.217  -0.022
    1UNL    H21   42  -0.021   0.010   0.224
    1UNL    H22   43   0.048   0.149   0.276
    1UNL    H23   44  -0.055   0.247   0.027
    1UNL    H24   45  -0.164   0.228   0.158
    1UNL    H25   46  -0.133  -0.012  -0.165
    1UNL    H26   47  -0.000   0.012  -0.075
   0.00000   0.00000   0.00000   0.00000   0.00000   0.00000   0.00000   0.00000   0.00000
Generated with MDTraj, t= 66.0
 47
    1UNL     C1    1  -0.196   0.229  -0.185
    1UNL     C2    2  -0.279   0.149  -0.088
    1UNL     C3    3  -0.195   0.065   0.018
    1UNL     C4    4  -0.292  -0.017   0.112
    1UNL     C5    5  -0.349  -0.151   0.046
    1UNL     C6    6  -0.232  -0.244   0.007
    1UNL     N1    7  -0.100  -0.178  -0.012
    1UNL     C7    8  -0.015  -0.221   0.099
    1UNL     C8    9   0.134  -0.186   0.089
    1UNL     C9   10   0.187  -0.055   0.067
    1UNL    C10   11   0.136   0.072   0.116
    1UNL     N2   12   0.215   0.173   0.074
    1UNL    C11   13   0.334   0.121   0.008
    1UNL    C12   14   0.433   0.173  -0.079
    1UNL    C13   15   0.516   0.081  -0.143
    1UNL    C14   16   0.486  -0.057  -0.143
    1UNL    C15   17   0.385  -0.106  -0.075
    1UNL    C16   18   0.309  -0.019   0.001
    1UNL    C17   19   0.006   0.097   0.182
    1UNL    C18   20  -0.109   0.158   0.100
    1UNL    C19   21  -0.106  -0.038  -0.065
    1UNL     H1   22  -0.123   0.297  -0.162
    1UNL     H2   23  -0.145   0.162  -0.254
    1UNL     H3   24  -0.262   0.284  -0.262
    1UNL     H4   25  -0.346   0.079  -0.139
    1UNL     H5   26  -0.344   0.219  -0.039
    1UNL     H6   27  -0.229  -0.052   0.200
    1UNL     H7   28  -0.366   0.047   0.158
    1UNL     H8   29  -0.399  -0.112  -0.042
    1UNL     H9   30  -0.428  -0.210   0.101
    1UNL    H10   31  -0.218  -0.328   0.079
    1UNL    H11   32  -0.257  -0.289  -0.087
    1UNL    H12   33  -0.051  -0.180   0.195
    1UNL    H13   34  -0.013  -0.328   0.108
    1UNL    H14   35   0.179  -0.245   0.012
    1UNL    H15   36   0.187  -0.219   0.184
    1UNL    H16   37   0.202   0.273   0.080
    1UNL    H17   38   0.444   0.277  -0.100
    1UNL    H18   39   0.597   0.127  -0.199
    1UNL    H19   40   0.533  -0.118  -0.218
    1UNL    H20   41   0.370  -0.206  -0.067
    1UNL    H21   42  -0.032   0.010   0.241
    1UNL    H22   43   0.033   0.168   0.265
    1UNL    H23   44  -0.059   0.235   0.033
    1UNL    H24   45  -0.173   0.217   0.157
    1UNL    H25   46  -0.135  -0.034  -0.170
    1UNL    H26   47  -0.005  -0.010  -0.071
   0.00000   0.00000   0.00000   0.00000   0.00000   0.00000   0.00000   0.00000   0.00000
Generated with MDTraj, t= 67.0
 47
    1UNL     C1    1  -0.155   0.212  -0.201
    1UNL     C2    2  -0.254   0.143  -0.106
    1UNL     C3    3  -0.179   0.062   0.004
    1UNL     C4    4  -0.286  -0.009   0.097
    1UNL     C5    5  -0.341  -0.140   0.048
    1UNL     C6    6  -0.237  -0.245   0.016
    1UNL     N1    7  -0.097  -0.185   0.008
    1UNL     C7    8  -0.022  -0.204   0.130
    1UNL     C8    9   0.126  -0.195   0.093
    1UNL     C9   10   0.182  -0.061   0.077
    1UNL    C10   11   0.133   0.055   0.131
    1UNL     N2   12   0.223   0.159   0.098
    1UNL    C11   13   0.319   0.109   0.008
    1UNL    C12   14   0.419   0.175  -0.058
    1UNL    C13   15   0.503   0.105  -0.143
    1UNL    C14   16   0.467  -0.024  -0.173
    1UNL    C15   17   0.363  -0.095  -0.120
    1UNL    C16   18   0.282  -0.025  -0.020
    1UNL    C17   19   0.004   0.099   0.193
    1UNL    C18   20  -0.096   0.157   0.098
    1UNL    C19   21  -0.094  -0.050  -0.062
    1UNL     H1   22  -0.092   0.294  -0.162
    1UNL     H2   23  -0.096   0.135  -0.240
    1UNL     H3   24  -0.219   0.252  -0.286
    1UNL     H4   25  -0.312   0.071  -0.165
    1UNL     H5   26  -0.322   0.213  -0.060
    1UNL     H6   27  -0.239  -0.028   0.198
    1UNL     H7   28  -0.364   0.061   0.128
    1UNL     H8   29  -0.393  -0.121  -0.044
    1UNL     H9   30  -0.426  -0.168   0.119
    1UNL    H10   31  -0.242  -0.332   0.085
    1UNL    H11   32  -0.252  -0.284  -0.083
    1UNL    H12   33  -0.042  -0.130   0.205
    1UNL    H13   34  -0.040  -0.299   0.176
    1UNL    H14   35   0.148  -0.238  -0.003
    1UNL    H15   36   0.191  -0.251   0.166
    1UNL    H16   37   0.232   0.250   0.138
    1UNL    H17   38   0.434   0.283  -0.038
    1UNL    H18   39   0.582   0.156  -0.197
    1UNL    H19   40   0.535  -0.076  -0.240
    1UNL    H20   41   0.336  -0.204  -0.143
    1UNL    H21   42  -0.040   0.018   0.258
    1UNL    H22   43   0.019   0.177   0.273
    1UNL    H23   44  -0.043   0.233   0.031
    1UNL    H24   45  -0.163   0.214   0.152
    1UNL    H25   46  -0.128  -0.064  -0.164
    1UNL    H26   47   0.005  -0.012  -0.070
   0.00000   0.00000   0.00000   0.00000   0.00000   0.00000   0.00000   0.00000   0.00000
Generated with MDTraj, t= 68.0
 47
    1UNL     C1    1  -0.143   0.202  -0.209
    1UNL     C2    2  -0.242   0.143  -0.108
    1UNL     C3    3  -0.174   0.058   0.002
    1UNL     C4    4  -0.283  -0.002   0.098
    1UNL     C5    5  -0.358  -0.123   0.043
    1UNL     C6    6  -0.255  -0.233   0.014
    1UNL     N1    7  -0.106  -0.185   0.005
    1UNL     C7    8  -0.014  -0.227   0.112
    1UNL     C8    9   0.137  -0.199   0.094
    1UNL     C9   10   0.188  -0.060   0.093
    1UNL    C10   11   0.137   0.057   0.138
    1UNL     N2   12   0.222   0.166   0.102
    1UNL    C11   13   0.307   0.120   0.001
    1UNL    C12   14   0.402   0.183  -0.077
    1UNL    C13   15   0.477   0.112  -0.167
    1UNL    C14   16   0.465  -0.028  -0.177
    1UNL    C15   17   0.378  -0.090  -0.088
    1UNL    C16   18   0.296  -0.021   0.004
    1UNL    C17   19   0.002   0.080   0.199
    1UNL    C18   20  -0.090   0.153   0.104
    1UNL    C19   21  -0.086  -0.056  -0.058
    1UNL     H1   22  -0.077   0.286  -0.161
    1UNL     H2   23  -0.081   0.127  -0.245
    1UNL     H3   24  -0.199   0.248  -0.292
    1UNL     H4   25  -0.323   0.085  -0.153
    1UNL     H5   26  -0.285   0.225  -0.050
    1UNL     H6   27  -0.242  -0.021   0.198
    1UNL     H7   28  -0.354   0.077   0.125
    1UNL     H8   29  -0.415  -0.088  -0.040
    1UNL     H9   30  -0.439  -0.158   0.116
    1UNL    H10   31  -0.252  -0.311   0.092
    1UNL    H11   32  -0.283  -0.287  -0.075
    1UNL    H12   33  -0.053  -0.194   0.204
    1UNL    H13   34  -0.026  -0.334   0.116
    1UNL    H14   35   0.163  -0.249   0.001
    1UNL    H15   36   0.201  -0.261   0.164
    1UNL    H16   37   0.186   0.257   0.097
    1UNL    H17   38   0.425   0.286  -0.075
    1UNL    H18   39   0.558   0.157  -0.222
    1UNL    H19   40   0.520  -0.080  -0.254
    1UNL    H20   41   0.360  -0.196  -0.099
    1UNL    H21   42  -0.059  -0.005   0.235
    1UNL    H22   43   0.023   0.140   0.293
    1UNL    H23   44  -0.029   0.229   0.045
    1UNL    H24   45  -0.151   0.212   0.164
    1UNL    H25   46  -0.128  -0.067  -0.156
    1UNL    H26   47   0.018  -0.022  -0.062
   0.00000   0.00000   0.00000   0.00000   0.00000   0.00000   0.00000   0.00000   0.00000
Generated with MDTraj, t= 69.0
 47
    1UNL     C1    1  -0.153   0.229  -0.197
    1UNL     C2    2  -0.249   0.173  -0.093
    1UNL     C3    3  -0.189   0.065   0.012
    1UNL     C4    4  -0.290  -0.012   0.097
    1UNL     C5    5  -0.345  -0.139   0.024
    1UNL     C6    6  -0.232  -0.240   0.010
    1UNL     N1    7  -0.100  -0.175   0.009
    1UNL     C7    8  -0.005  -0.229   0.117
    1UNL     C8    9   0.147  -0.195   0.105
    1UNL     C9   10   0.186  -0.058   0.076
    1UNL    C10   11   0.130   0.061   0.125
    1UNL     N2   12   0.198   0.163   0.066
    1UNL    C11   13   0.297   0.118  -0.012
    1UNL    C12   14   0.405   0.177  -0.092
    1UNL    C13   15   0.490   0.097  -0.166
    1UNL    C14   16   0.482  -0.044  -0.153
    1UNL    C15   17   0.386  -0.105  -0.078
    1UNL    C16   18   0.296  -0.022  -0.001
    1UNL    C17   19   0.003   0.082   0.203
    1UNL    C18   20  -0.110   0.148   0.119
    1UNL    C19   21  -0.090  -0.044  -0.056
    1UNL     H1   22  -0.060   0.281  -0.154
    1UNL     H2   23  -0.113   0.150  -0.264
    1UNL     H3   24  -0.198   0.303  -0.260
    1UNL     H4   25  -0.326   0.114  -0.142
    1UNL     H5   26  -0.304   0.246  -0.033
    1UNL     H6   27  -0.252  -0.031   0.197
    1UNL     H7   28  -0.373   0.056   0.120
    1UNL     H8   29  -0.383  -0.107  -0.070
    1UNL     H9   30  -0.434  -0.184   0.083
    1UNL    H10   31  -0.234  -0.308   0.098
    1UNL    H11   32  -0.236  -0.300  -0.081
    1UNL    H12   33  -0.046  -0.203   0.210
    1UNL    H13   34  -0.024  -0.334   0.116
    1UNL    H14   35   0.195  -0.266   0.038
    1UNL    H15   36   0.200  -0.229   0.198
    1UNL    H16   37   0.194   0.255   0.101
    1UNL    H17   38   0.415   0.283  -0.097
    1UNL    H18   39   0.569   0.139  -0.228
    1UNL    H19   40   0.545  -0.113  -0.209
    1UNL    H20   41   0.366  -0.207  -0.094
    1UNL    H21   42  -0.034  -0.013   0.238
    1UNL    H22   43   0.023   0.154   0.289
    1UNL    H23   44  -0.058   0.236   0.079
    1UNL    H24   45  -0.182   0.189   0.183
    1UNL    H25   46  -0.123  -0.062  -0.155
    1UNL    H26   47   0.013   0.001  -0.056
   0.00000   0.00000   0.00000   0.00000   0.00000   0.00000   0.00000   0.00000   0.00000
Generated with MDTraj, t= 70.0
 47
    1UNL     C1    1  -0.166   0.249  -0.169
    1UNL     C2    2  -0.256   0.155  -0.076
    1UNL     C3    3  -0.189   0.059   0.029
    1UNL     C4    4  -0.286  -0.037   0.107
    1UNL     C5    5  -0.339  -0.151   0.011
    1UNL     C6    6  -0.224  -0.248  -0.021
    1UNL     N1    7  -0.095  -0.181  -0.006
    1UNL     C7    8  -0.026  -0.199   0.130
    1UNL     C8    9   0.128  -0.185   0.115
    1UNL     C9   10   0.176  -0.052   0.068
    1UNL    C10   11   0.133   0.071   0.112
    1UNL     N2   12   0.204   0.171   0.050
    1UNL    C11   13   0.304   0.108  -0.022
    1UNL    C12   14   0.410   0.169  -0.101
    1UNL    C13   15   0.504   0.090  -0.156
    1UNL    C14   16   0.496  -0.051  -0.139
    1UNL    C15   17   0.388  -0.112  -0.075
    1UNL    C16   18   0.290  -0.035  -0.015
    1UNL    C17   19   0.019   0.108   0.202
    1UNL    C18   20  -0.110   0.154   0.130
    1UNL    C19   21  -0.102  -0.040  -0.066
    1UNL     H1   22  -0.148   0.338  -0.108
    1UNL     H2   23  -0.066   0.197  -0.207
    1UNL     H3   24  -0.230   0.279  -0.247
    1UNL     H4   25  -0.317   0.093  -0.143
    1UNL     H5   26  -0.325   0.216  -0.019
    1UNL     H6   27  -0.239  -0.082   0.191
    1UNL     H7   28  -0.365   0.017   0.164
    1UNL     H8   29  -0.377  -0.112  -0.080
    1UNL     H9   30  -0.422  -0.209   0.064
    1UNL    H10   31  -0.224  -0.339   0.042
    1UNL    H11   32  -0.236  -0.278  -0.125
    1UNL    H12   33  -0.067  -0.130   0.197
    1UNL    H13   34  -0.048  -0.295   0.173
    1UNL    H14   35   0.170  -0.268   0.057
    1UNL    H15   36   0.176  -0.206   0.215
    1UNL    H16   37   0.191   0.269   0.048
    1UNL    H17   38   0.415   0.278  -0.097
    1UNL    H18   39   0.589   0.120  -0.213
    1UNL    H19   40   0.583  -0.111  -0.162
    1UNL    H20   41   0.387  -0.226  -0.054
    1UNL    H21   42  -0.002   0.026   0.271
    1UNL    H22   43   0.071   0.196   0.251
    1UNL    H23   44  -0.095   0.239   0.076
    1UNL    H24   45  -0.176   0.183   0.208
    1UNL    H25   46  -0.157  -0.040  -0.157
    1UNL    H26   47  -0.000   0.002  -0.079
   0.00000   0.00000   0.00000   0.00000   0.00000   0.00000   0.00000   0.00000   0.00000
Generated with MDTraj, t= 71.0
 47
    1UNL     C1    1  -0.206   0.258  -0.162
    1UNL     C2    2  -0.282   0.155  -0.083
    1UNL     C3    3  -0.191   0.068   0.018
    1UNL     C4    4  -0.268  -0.029   0.110
    1UNL     C5    5  -0.332  -0.153   0.037
    1UNL     C6    6  -0.219  -0.236  -0.030
    1UNL     N1    7  -0.086  -0.171  -0.011
    1UNL     C7    8  -0.003  -0.234   0.099
    1UNL     C8    9   0.140  -0.187   0.123
    1UNL     C9   10   0.178  -0.052   0.079
    1UNL    C10   11   0.125   0.070   0.104
    1UNL     N2   12   0.212   0.174   0.057
    1UNL    C11   13   0.315   0.112  -0.008
    1UNL    C12   14   0.411   0.159  -0.098
    1UNL    C13   15   0.497   0.070  -0.155
    1UNL    C14   16   0.483  -0.070  -0.144
    1UNL    C15   17   0.385  -0.115  -0.057
    1UNL    C16   18   0.303  -0.027   0.008
    1UNL    C17   19   0.006   0.106   0.189
    1UNL    C18   20  -0.112   0.169   0.106
    1UNL    C19   21  -0.096  -0.027  -0.062
    1UNL     H1   22  -0.176   0.344  -0.102
    1UNL     H2   23  -0.115   0.221  -0.229
    1UNL     H3   24  -0.277   0.304  -0.228
    1UNL     H4   25  -0.333   0.077  -0.141
    1UNL     H5   26  -0.365   0.208  -0.035
    1UNL     H6   27  -0.193  -0.064   0.175
    1UNL     H7   28  -0.335   0.021   0.183
    1UNL     H8   29  -0.392  -0.113  -0.041
    1UNL     H9   30  -0.399  -0.219   0.103
    1UNL    H10   31  -0.220  -0.339   0.007
    1UNL    H11   32  -0.236  -0.240  -0.138
    1UNL    H12   33  -0.052  -0.226   0.201
    1UNL    H13   34  -0.008  -0.339   0.081
    1UNL    H14   35   0.211  -0.258   0.074
    1UNL    H15   36   0.176  -0.199   0.228
    1UNL    H16   37   0.194   0.273   0.064
    1UNL    H17   38   0.404   0.263  -0.121
    1UNL    H18   39   0.576   0.115  -0.219
    1UNL    H19   40   0.548  -0.135  -0.201
    1UNL    H20   41   0.402  -0.211  -0.027
    1UNL    H21   42  -0.016   0.006   0.234
    1UNL    H22   43   0.036   0.182   0.266
    1UNL    H23   44  -0.083   0.250   0.052
    1UNL    H24   45  -0.184   0.204   0.176
    1UNL    H25   46  -0.133  -0.029  -0.162
    1UNL    H26   47   0.001   0.023  -0.067
   0.00000   0.00000   0.00000   0.00000   0.00000   0.00000   0.00000   0.00000   0.00000
Generated with MDTraj, t= 72.0
 47
    1UNL     C1    1  -0.220   0.225  -0.180
    1UNL     C2    2  -0.283   0.133  -0.073
    1UNL     C3    3  -0.175   0.057   0.018
    1UNL     C4    4  -0.265  -0.025   0.111
    1UNL     C5    5  -0.318  -0.160   0.053
    1UNL     C6    6  -0.223  -0.214  -0.050
    1UNL     N1    7  -0.084  -0.162  -0.025
    1UNL     C7    8  -0.030  -0.199   0.106
    1UNL     C8    9   0.120  -0.189   0.116
    1UNL     C9   10   0.179  -0.057   0.087
    1UNL    C10   11   0.137   0.069   0.127
    1UNL     N2   12   0.222   0.169   0.068
    1UNL    C11   13   0.310   0.104  -0.018
    1UNL    C12   14   0.414   0.163  -0.096
    1UNL    C13   15   0.500   0.079  -0.150
    1UNL    C14   16   0.489  -0.061  -0.136
    1UNL    C15   17   0.377  -0.118  -0.071
    1UNL    C16   18   0.289  -0.031  -0.005
    1UNL    C17   19   0.012   0.116   0.198
    1UNL    C18   20  -0.106   0.158   0.107
    1UNL    C19   21  -0.076  -0.023  -0.067
    1UNL     H1   22  -0.159   0.304  -0.137
    1UNL     H2   23  -0.162   0.180  -0.263
    1UNL     H3   24  -0.295   0.288  -0.232
    1UNL     H4   25  -0.344   0.058  -0.125
    1UNL     H5   26  -0.355   0.189  -0.010
    1UNL     H6   27  -0.230  -0.044   0.209
    1UNL     H7   28  -0.352   0.040   0.138
    1UNL     H8   29  -0.416  -0.143   0.013
    1UNL     H9   30  -0.330  -0.231   0.143
    1UNL    H10   31  -0.225  -0.324  -0.056
    1UNL    H11   32  -0.254  -0.182  -0.151
    1UNL    H12   33  -0.073  -0.145   0.198
    1UNL    H13   34  -0.054  -0.301   0.124
    1UNL    H14   35   0.163  -0.254   0.034
    1UNL    H15   36   0.166  -0.231   0.207
    1UNL    H16   37   0.225   0.267   0.097
    1UNL    H17   38   0.409   0.271  -0.117
    1UNL    H18   39   0.560   0.122  -0.225
    1UNL    H19   40   0.562  -0.130  -0.180
    1UNL    H20   41   0.372  -0.230  -0.066
    1UNL    H21   42  -0.030   0.038   0.266
    1UNL    H22   43   0.046   0.208   0.254
    1UNL    H23   44  -0.071   0.241   0.046
    1UNL    H24   45  -0.179   0.197   0.172
    1UNL    H25   46  -0.095  -0.010  -0.173
    1UNL    H26   47   0.027   0.005  -0.064
   0.00000   0.00000   0.00000   0.00000   0.00000   0.00000   0.00000   0.00000   0.00000
Generated with MDTraj, t= 73.0
 47
    1UNL     C1    1  -0.196   0.228  -0.182
    1UNL     C2    2  -0.274   0.152  -0.074
    1UNL     C3    3  -0.185   0.059   0.016
    1UNL     C4    4  -0.283  -0.019   0.111
    1UNL     C5    5  -0.339  -0.148   0.053
    1UNL     C6    6  -0.238  -0.238  -0.018
    1UNL     N1    7  -0.098  -0.174  -0.018
    1UNL     C7    8  -0.016  -0.219   0.103
    1UNL     C8    9   0.136  -0.182   0.111
    1UNL     C9   10   0.187  -0.050   0.075
    1UNL    C10   11   0.132   0.072   0.112
    1UNL     N2   12   0.214   0.175   0.069
    1UNL    C11   13   0.314   0.115  -0.009
    1UNL    C12   14   0.432   0.166  -0.076
    1UNL    C13   15   0.515   0.082  -0.150
    1UNL    C14   16   0.484  -0.054  -0.151
    1UNL    C15   17   0.383  -0.111  -0.080
    1UNL    C16   18   0.301  -0.028  -0.003
    1UNL    C17   19   0.008   0.097   0.188
    1UNL    C18   20  -0.108   0.152   0.110
    1UNL    C19   21  -0.097  -0.034  -0.070
    1UNL     H1   22  -0.121   0.290  -0.132
    1UNL     H2   23  -0.153   0.164  -0.251
    1UNL     H3   24  -0.266   0.304  -0.233
    1UNL     H4   25  -0.352   0.103  -0.134
    1UNL     H5   26  -0.324   0.231  -0.016
    1UNL     H6   27  -0.245  -0.038   0.209
    1UNL     H7   28  -0.368   0.046   0.139
    1UNL     H8   29  -0.423  -0.117  -0.006
    1UNL     H9   30  -0.381  -0.199   0.148
    1UNL    H10   31  -0.219  -0.332   0.034
    1UNL    H11   32  -0.269  -0.268  -0.119
    1UNL    H12   33  -0.072  -0.185   0.195
    1UNL    H13   34  -0.025  -0.325   0.118
    1UNL    H14   35   0.193  -0.270   0.061
    1UNL    H15   36   0.167  -0.199   0.216
    1UNL    H16   37   0.182   0.270   0.042
    1UNL    H17   38   0.443   0.272  -0.074
    1UNL    H18   39   0.599   0.113  -0.218
    1UNL    H19   40   0.552  -0.113  -0.209
    1UNL    H20   41   0.353  -0.214  -0.102
    1UNL    H21   42  -0.022   0.006   0.243
    1UNL    H22   43   0.030   0.174   0.267
    1UNL    H23   44  -0.069   0.240   0.048
    1UNL    H24   45  -0.180   0.198   0.170
    1UNL    H25   46  -0.140  -0.044  -0.168
    1UNL    H26   47  -0.002   0.006  -0.093
   0.00000   0.00000   0.00000   0.00000   0.00000   0.00000   0.00000   0.00000   0.00000
Generated with MDTraj, t= 74.0
 47
    1UNL     C1    1  -0.187   0.247  -0.169
    1UNL     C2    2  -0.267   0.145  -0.097
    1UNL     C3    3  -0.190   0.067   0.009
    1UNL     C4    4  -0.292  -0.006   0.108
    1UNL     C5    5  -0.352  -0.136   0.048
    1UNL     C6    6  -0.239  -0.243   0.023
    1UNL     N1    7  -0.101  -0.185  -0.004
    1UNL     C7    8  -0.007  -0.216   0.111
    1UNL     C8    9   0.143  -0.198   0.072
    1UNL     C9   10   0.183  -0.057   0.067
    1UNL    C10   11   0.132   0.061   0.113
    1UNL     N2   12   0.207   0.161   0.064
    1UNL    C11   13   0.312   0.110  -0.008
    1UNL    C12   14   0.419   0.175  -0.076
    1UNL    C13   15   0.508   0.095  -0.146
    1UNL    C14   16   0.497  -0.047  -0.145
    1UNL    C15   17   0.393  -0.105  -0.083
    1UNL    C16   18   0.302  -0.030  -0.000
    1UNL    C17   19   0.007   0.091   0.192
    1UNL    C18   20  -0.099   0.158   0.099
    1UNL    C19   21  -0.104  -0.048  -0.058
    1UNL     H1   22  -0.187   0.350  -0.128
    1UNL     H2   23  -0.089   0.219  -0.177
    1UNL     H3   24  -0.211   0.270  -0.281
    1UNL     H4   25  -0.306   0.069  -0.169
    1UNL     H5   26  -0.359   0.198  -0.062
    1UNL     H6   27  -0.240  -0.028   0.198
    1UNL     H7   28  -0.364   0.071   0.138
    1UNL     H8   29  -0.409  -0.110  -0.039
    1UNL     H9   30  -0.434  -0.172   0.121
    1UNL    H10   31  -0.230  -0.312   0.107
    1UNL    H11   32  -0.258  -0.308  -0.065
    1UNL    H12   33  -0.030  -0.152   0.193
    1UNL    H13   34  -0.036  -0.313   0.149
    1UNL    H14   35   0.155  -0.246  -0.034
    1UNL    H15   36   0.206  -0.266   0.131
    1UNL    H16   37   0.202   0.260   0.099
    1UNL    H17   38   0.429   0.283  -0.083
    1UNL    H18   39   0.593   0.140  -0.186
    1UNL    H19   40   0.571  -0.111  -0.193
    1UNL    H20   41   0.384  -0.206  -0.085
    1UNL    H21   42  -0.034   0.016   0.261
    1UNL    H22   43   0.036   0.165   0.272
    1UNL    H23   44  -0.046   0.230   0.023
    1UNL    H24   45  -0.160   0.225   0.150
    1UNL    H25   46  -0.134  -0.061  -0.159
    1UNL    H26   47  -0.001  -0.019  -0.072
   0.00000   0.00000   0.00000   0.00000   0.00000   0.00000   0.00000   0.00000   0.00000
Generated with MDTraj, t= 75.0
 47
    1UNL     C1    1  -0.175   0.217  -0.202
    1UNL     C2    2  -0.259   0.151  -0.085
    1UNL     C3    3  -0.196   0.065   0.021
    1UNL     C4    4  -0.313  -0.002   0.112
    1UNL     C5    5  -0.361  -0.124   0.041
    1UNL     C6    6  -0.250  -0.235   0.037
    1UNL     N1    7  -0.114  -0.177   0.018
    1UNL     C7    8  -0.010  -0.229   0.114
    1UNL     C8    9   0.135  -0.203   0.053
    1UNL     C9   10   0.191  -0.064   0.056
    1UNL    C10   11   0.139   0.053   0.115
    1UNL     N2   12   0.214   0.159   0.070
    1UNL    C11   13   0.318   0.117  -0.015
    1UNL    C12   14   0.420   0.185  -0.076
    1UNL    C13   15   0.518   0.106  -0.137
    1UNL    C14   16   0.511  -0.034  -0.143
    1UNL    C15   17   0.404  -0.096  -0.082
    1UNL    C16   18   0.304  -0.021  -0.015
    1UNL    C17   19   0.013   0.075   0.192
    1UNL    C18   20  -0.096   0.150   0.102
    1UNL    C19   21  -0.122  -0.046  -0.055
    1UNL     H1   22  -0.085   0.272  -0.178
    1UNL     H2   23  -0.146   0.138  -0.270
    1UNL     H3   24  -0.226   0.295  -0.271
    1UNL     H4   25  -0.342   0.093  -0.129
    1UNL     H5   26  -0.313   0.231  -0.031
    1UNL     H6   27  -0.265  -0.017   0.207
    1UNL     H7   28  -0.396   0.066   0.130
    1UNL     H8   29  -0.394  -0.108  -0.061
    1UNL     H9   30  -0.451  -0.164   0.098
    1UNL    H10   31  -0.255  -0.305   0.122
    1UNL    H11   32  -0.271  -0.286  -0.059
    1UNL    H12   33  -0.028  -0.197   0.213
    1UNL    H13   34  -0.026  -0.338   0.113
    1UNL    H14   35   0.153  -0.248  -0.054
    1UNL    H15   36   0.206  -0.261   0.112
    1UNL    H16   37   0.177   0.258   0.088
    1UNL    H17   38   0.434   0.291  -0.068
    1UNL    H18   39   0.600   0.159  -0.191
    1UNL    H19   40   0.595  -0.094  -0.171
    1UNL    H20   41   0.405  -0.212  -0.068
    1UNL    H21   42  -0.028  -0.014   0.237
    1UNL    H22   43   0.028   0.137   0.284
    1UNL    H23   44  -0.048   0.224   0.029
    1UNL    H24   45  -0.150   0.217   0.165
    1UNL    H25   46  -0.166  -0.066  -0.149
    1UNL    H26   47  -0.019  -0.012  -0.073
   0.00000   0.00000   0.00000   0.00000   0.00000   0.00000   0.00000   0.00000   0.00000
Generated with MDTraj, t= 76.0
 47
    1UNL     C1    1  -0.186   0.179  -0.221
    1UNL     C2    2  -0.263   0.160  -0.091
    1UNL     C3    3  -0.188   0.074   0.016
    1UNL     C4    4  -0.299   0.014   0.114
    1UNL     C5    5  -0.355  -0.124   0.066
    1UNL     C6    6  -0.253  -0.237   0.039
    1UNL     N1    7  -0.118  -0.177   0.012
    1UNL     C7    8  -0.006  -0.238   0.092
    1UNL     C8    9   0.139  -0.200   0.057
    1UNL     C9   10   0.183  -0.058   0.047
    1UNL    C10   11   0.134   0.054   0.112
    1UNL     N2   12   0.203   0.170   0.071
    1UNL    C11   13   0.320   0.121  -0.002
    1UNL    C12   14   0.438   0.182  -0.043
    1UNL    C13   15   0.527   0.104  -0.123
    1UNL    C14   16   0.496  -0.031  -0.148
    1UNL    C15   17   0.389  -0.099  -0.097
    1UNL    C16   18   0.303  -0.017  -0.020
    1UNL    C17   19   0.010   0.066   0.185
    1UNL    C18   20  -0.093   0.156   0.107
    1UNL    C19   21  -0.116  -0.046  -0.055
    1UNL     H1   22  -0.083   0.177  -0.198
    1UNL     H2   23  -0.219   0.084  -0.284
    1UNL     H3   24  -0.198   0.278  -0.270
    1UNL     H4   25  -0.366   0.124  -0.118
    1UNL     H5   26  -0.277   0.258  -0.043
    1UNL     H6   27  -0.247  -0.002   0.208
    1UNL     H7   28  -0.368   0.096   0.130
    1UNL     H8   29  -0.403  -0.107  -0.029
    1UNL     H9   30  -0.431  -0.169   0.138
    1UNL    H10   31  -0.253  -0.301   0.127
    1UNL    H11   32  -0.287  -0.296  -0.049
    1UNL    H12   33  -0.021  -0.203   0.190
    1UNL    H13   34  -0.014  -0.350   0.082
    1UNL    H14   35   0.168  -0.252  -0.043
    1UNL    H15   36   0.210  -0.243   0.128
    1UNL    H16   37   0.194   0.263   0.125
    1UNL    H17   38   0.451   0.288  -0.033
    1UNL    H18   39   0.608   0.152  -0.174
    1UNL    H19   40   0.569  -0.074  -0.217
    1UNL    H20   41   0.377  -0.202  -0.094
    1UNL    H21   42  -0.033  -0.033   0.209
    1UNL    H22   43   0.037   0.118   0.279
    1UNL    H23   44  -0.030   0.229   0.051
    1UNL    H24   45  -0.153   0.226   0.167
    1UNL    H25   46  -0.159  -0.062  -0.149
    1UNL    H26   47  -0.010  -0.019  -0.070
   0.00000   0.00000   0.00000   0.00000   0.00000   0.00000   0.00000   0.00000   0.00000
Generated with MDTraj, t= 77.0
 47
    1UNL     C1    1  -0.205   0.217  -0.200
    1UNL     C2    2  -0.276   0.133  -0.099
    1UNL     C3    3  -0.186   0.054   0.010
    1UNL     C4    4  -0.291  -0.001   0.116
    1UNL     C5    5  -0.364  -0.132   0.066
    1UNL     C6    6  -0.256  -0.240   0.053
    1UNL     N1    7  -0.118  -0.186   0.011
    1UNL     C7    8  -0.012  -0.208   0.107
    1UNL     C8    9   0.115  -0.193   0.036
    1UNL     C9   10   0.180  -0.057   0.048
    1UNL    C10   11   0.133   0.062   0.105
    1UNL     N2   12   0.235   0.155   0.096
    1UNL    C11   13   0.338   0.107   0.016
    1UNL    C12   14   0.450   0.170  -0.033
    1UNL    C13   15   0.524   0.110  -0.128
    1UNL    C14   16   0.497  -0.026  -0.159
    1UNL    C15   17   0.400  -0.093  -0.096
    1UNL    C16   18   0.310  -0.028  -0.009
    1UNL    C17   19   0.006   0.100   0.174
    1UNL    C18   20  -0.092   0.157   0.075
    1UNL    C19   21  -0.113  -0.056  -0.066
    1UNL     H1   22  -0.191   0.318  -0.168
    1UNL     H2   23  -0.101   0.159  -0.218
    1UNL     H3   24  -0.253   0.239  -0.297
    1UNL     H4   25  -0.336   0.055  -0.152
    1UNL     H5   26  -0.356   0.187  -0.044
    1UNL     H6   27  -0.233  -0.027   0.205
    1UNL     H7   28  -0.357   0.078   0.149
    1UNL     H8   29  -0.417  -0.112  -0.026
    1UNL     H9   30  -0.437  -0.158   0.149
    1UNL    H10   31  -0.245  -0.287   0.151
    1UNL    H11   32  -0.295  -0.321  -0.014
    1UNL    H12   33  -0.008  -0.143   0.191
    1UNL    H13   34  -0.025  -0.318   0.130
    1UNL    H14   35   0.097  -0.210  -0.077
    1UNL    H15   36   0.188  -0.268   0.064
    1UNL    H16   37   0.244   0.257   0.127
    1UNL    H17   38   0.457   0.276  -0.016
    1UNL    H18   39   0.598   0.173  -0.178
    1UNL    H19   40   0.555  -0.085  -0.227
    1UNL    H20   41   0.389  -0.200  -0.105
    1UNL    H21   42  -0.043   0.009   0.217
    1UNL    H22   43   0.031   0.171   0.255
    1UNL    H23   44  -0.036   0.213   0.003
    1UNL    H24   45  -0.157   0.235   0.122
    1UNL    H25   46  -0.159  -0.074  -0.160
    1UNL    H26   47  -0.008  -0.026  -0.082
   0.00000   0.00000   0.00000   0.00000   0.00000   0.00000   0.00000   0.00000   0.00000
Generated with MDTraj, t= 78.0
 47
    1UNL     C1    1  -0.228   0.242  -0.195
    1UNL     C2    2  -0.291   0.146  -0.095
    1UNL     C3    3  -0.199   0.055  -0.000
    1UNL     C4    4  -0.287  -0.004   0.112
    1UNL     C5    5  -0.347  -0.146   0.087
    1UNL     C6    6  -0.253  -0.241   0.046
    1UNL     N1    7  -0.122  -0.177   0.020
    1UNL     C7    8  -0.007  -0.222   0.103
    1UNL     C8    9   0.129  -0.187   0.053
    1UNL     C9   10   0.176  -0.047   0.034
    1UNL    C10   11   0.135   0.068   0.099
    1UNL     N2   12   0.232   0.162   0.086
    1UNL    C11   13   0.331   0.117   0.006
    1UNL    C12   14   0.456   0.168  -0.034
    1UNL    C13   15   0.541   0.090  -0.109
    1UNL    C14   16   0.512  -0.043  -0.140
    1UNL    C15   17   0.395  -0.097  -0.096
    1UNL    C16   18   0.304  -0.016  -0.025
    1UNL    C17   19   0.005   0.088   0.168
    1UNL    C18   20  -0.093   0.149   0.065
    1UNL    C19   21  -0.119  -0.056  -0.076
    1UNL     H1   22  -0.156   0.301  -0.137
    1UNL     H2   23  -0.176   0.180  -0.278
    1UNL     H3   24  -0.293   0.321  -0.232
    1UNL     H4   25  -0.361   0.070  -0.138
    1UNL     H5   26  -0.355   0.205  -0.029
    1UNL     H6   27  -0.230  -0.002   0.208
    1UNL     H7   28  -0.369   0.065   0.125
    1UNL     H8   29  -0.427  -0.131   0.013
    1UNL     H9   30  -0.401  -0.175   0.181
    1UNL    H10   31  -0.242  -0.319   0.120
    1UNL    H11   32  -0.277  -0.297  -0.049
    1UNL    H12   33  -0.028  -0.185   0.201
    1UNL    H13   34  -0.009  -0.336   0.101
    1UNL    H14   35   0.141  -0.234  -0.049
    1UNL    H15   36   0.203  -0.237   0.114
    1UNL    H16   37   0.221   0.265   0.108
    1UNL    H17   38   0.475   0.269  -0.011
    1UNL    H18   39   0.626   0.137  -0.154
    1UNL    H19   40   0.599  -0.103  -0.169
    1UNL    H20   41   0.362  -0.205  -0.118
    1UNL    H21   42  -0.034  -0.004   0.220
    1UNL    H22   43   0.026   0.154   0.254
    1UNL    H23   44  -0.042   0.192  -0.014
    1UNL    H24   45  -0.141   0.238   0.119
    1UNL    H25   46  -0.157  -0.089  -0.170
    1UNL    H26   47  -0.013  -0.032  -0.087
   0.00000   0.00000   0.00000   0.00000   0.00000   0.00000   0.00000   0.00000   0.00000
Generated with MDTraj, t= 79.0
 47
    1UNL     C1    1  -0.234   0.194  -0.200
    1UNL     C2    2  -0.296   0.136  -0.067
    1UNL     C3    3  -0.198   0.066   0.029
    1UNL     C4    4  -0.282  -0.010   0.136
    1UNL     C5    5  -0.366  -0.133   0.070
    1UNL     C6    6  -0.264  -0.236   0.018
    1UNL     N1    7  -0.125  -0.180  -0.007
    1UNL     C7    8  -0.022  -0.227   0.082
    1UNL     C8    9   0.123  -0.193   0.041
    1UNL     C9   10   0.182  -0.047   0.031
    1UNL    C10   11   0.138   0.075   0.080
    1UNL     N2   12   0.220   0.177   0.039
    1UNL    C11   13   0.333   0.119  -0.012
    1UNL    C12   14   0.461   0.175  -0.049
    1UNL    C13   15   0.554   0.093  -0.106
    1UNL    C14   16   0.530  -0.049  -0.106
    1UNL    C15   17   0.410  -0.111  -0.069
    1UNL    C16   18   0.316  -0.022  -0.013
    1UNL    C17   19   0.019   0.098   0.171
    1UNL    C18   20  -0.103   0.167   0.103
    1UNL    C19   21  -0.117  -0.037  -0.060
    1UNL     H1   22  -0.214   0.302  -0.168
    1UNL     H2   23  -0.145   0.141  -0.220
    1UNL     H3   24  -0.304   0.196  -0.284
    1UNL     H4   25  -0.372   0.059  -0.093
    1UNL     H5   26  -0.349   0.213  -0.011
    1UNL     H6   27  -0.206  -0.047   0.209
    1UNL     H7   28  -0.344   0.053   0.197
    1UNL     H8   29  -0.421  -0.091  -0.016
    1UNL     H9   30  -0.444  -0.176   0.140
    1UNL    H10   31  -0.248  -0.315   0.090
    1UNL    H11   32  -0.299  -0.289  -0.075
    1UNL    H12   33  -0.037  -0.201   0.186
    1UNL    H13   34  -0.038  -0.340   0.083
    1UNL    H14   35   0.146  -0.242  -0.056
    1UNL    H15   36   0.186  -0.247   0.113
    1UNL    H16   37   0.216   0.270   0.085
    1UNL    H17   38   0.478   0.285  -0.056
    1UNL    H18   39   0.650   0.128  -0.146
    1UNL    H19   40   0.610  -0.106  -0.147
    1UNL    H20   41   0.399  -0.211  -0.069
    1UNL    H21   42  -0.008   0.002   0.218
    1UNL    H22   43   0.044   0.147   0.267
    1UNL    H23   44  -0.079   0.248   0.043
    1UNL    H24   45  -0.171   0.213   0.185
    1UNL    H25   46  -0.151  -0.047  -0.161
    1UNL    H26   47  -0.013  -0.013  -0.063
   0.00000   0.00000   0.00000   0.00000   0.00000   0.00000   0.00000   0.00000   0.00000
Generated with MDTraj, t= 80.0
 47
    1UNL     C1    1  -0.249   0.247  -0.173
    1UNL     C2    2  -0.302   0.149  -0.070
    1UNL     C3    3  -0.202   0.065   0.015
    1UNL     C4    4  -0.285  -0.016   0.133
    1UNL     C5    5  -0.335  -0.155   0.086
    1UNL     C6    6  -0.233  -0.249   0.013
    1UNL     N1    7  -0.105  -0.179  -0.023
    1UNL     C7    8  -0.024  -0.200   0.095
    1UNL     C8    9   0.126  -0.198   0.056
    1UNL     C9   10   0.185  -0.056   0.052
    1UNL    C10   11   0.130   0.066   0.086
    1UNL     N2   12   0.219   0.164   0.046
    1UNL    C11   13   0.326   0.108  -0.018
    1UNL    C12   14   0.443   0.168  -0.065
    1UNL    C13   15   0.543   0.087  -0.102
    1UNL    C14   16   0.533  -0.055  -0.108
    1UNL    C15   17   0.419  -0.111  -0.057
    1UNL    C16   18   0.315  -0.032  -0.005
    1UNL    C17   19   0.012   0.107   0.157
    1UNL    C18   20  -0.102   0.168   0.073
    1UNL    C19   21  -0.132  -0.037  -0.079
    1UNL     H1   22  -0.166   0.318  -0.132
    1UNL     H2   23  -0.217   0.208  -0.260
    1UNL     H3   24  -0.322   0.326  -0.199
    1UNL     H4   25  -0.362   0.068  -0.118
    1UNL     H5   26  -0.370   0.189   0.005
    1UNL     H6   27  -0.221  -0.026   0.225
    1UNL     H7   28  -0.364   0.043   0.177
    1UNL     H8   29  -0.422  -0.150   0.014
    1UNL     H9   30  -0.363  -0.215   0.176
    1UNL    H10   31  -0.218  -0.338   0.072
    1UNL    H11   32  -0.276  -0.274  -0.089
    1UNL    H12   33  -0.054  -0.133   0.177
    1UNL    H13   34  -0.045  -0.300   0.145
    1UNL    H14   35   0.129  -0.248  -0.042
    1UNL    H15   36   0.188  -0.261   0.122
    1UNL    H16   37   0.197   0.264   0.049
    1UNL    H17   38   0.452   0.273  -0.056
    1UNL    H18   39   0.633   0.130  -0.141
    1UNL    H19   40   0.608  -0.130  -0.133
    1UNL    H20   41   0.426  -0.221  -0.041
    1UNL    H21   42  -0.019   0.035   0.230
    1UNL    H22   43   0.047   0.176   0.235
    1UNL    H23   44  -0.046   0.220   0.000
    1UNL    H24   45  -0.170   0.247   0.123
    1UNL    H25   46  -0.192  -0.058  -0.165
    1UNL    H26   47  -0.036  -0.001  -0.110
   0.00000   0.00000   0.00000   0.00000   0.00000   0.00000   0.00000   0.00000   0.00000
Generated with MDTraj, t= 81.0
 47
    1UNL     C1    1  -0.259   0.219  -0.165
    1UNL     C2    2  -0.309   0.106  -0.077
    1UNL     C3    3  -0.196   0.064   0.020
    1UNL     C4    4  -0.270  -0.026   0.127
    1UNL     C5    5  -0.337  -0.144   0.068
    1UNL     C6    6  -0.246  -0.228  -0.027
    1UNL     N1    7  -0.104  -0.174  -0.032
    1UNL     C7    8  -0.025  -0.211   0.089
    1UNL     C8    9   0.130  -0.176   0.091
    1UNL     C9   10   0.178  -0.040   0.060
    1UNL    C10   11   0.134   0.085   0.101
    1UNL     N2   12   0.230   0.174   0.056
    1UNL    C11   13   0.333   0.108  -0.012
    1UNL    C12   14   0.452   0.159  -0.073
    1UNL    C13   15   0.542   0.068  -0.119
    1UNL    C14   16   0.518  -0.067  -0.118
    1UNL    C15   17   0.394  -0.113  -0.074
    1UNL    C16   18   0.305  -0.026  -0.014
    1UNL    C17   19   0.012   0.122   0.178
    1UNL    C18   20  -0.106   0.171   0.088
    1UNL    C19   21  -0.099  -0.028  -0.055
    1UNL     H1   22  -0.250   0.311  -0.099
    1UNL     H2   23  -0.165   0.191  -0.211
    1UNL     H3   24  -0.331   0.246  -0.242
    1UNL     H4   25  -0.333   0.024  -0.151
    1UNL     H5   26  -0.400   0.136  -0.023
    1UNL     H6   27  -0.210  -0.049   0.218
    1UNL     H7   28  -0.344   0.044   0.164
    1UNL     H8   29  -0.421  -0.104   0.006
    1UNL     H9   30  -0.372  -0.223   0.138
    1UNL    H10   31  -0.233  -0.327   0.011
    1UNL    H11   32  -0.290  -0.229  -0.132
    1UNL    H12   33  -0.076  -0.165   0.180
    1UNL    H13   34  -0.038  -0.322   0.100
    1UNL    H14   35   0.175  -0.251   0.028
    1UNL    H15   36   0.167  -0.201   0.193
    1UNL    H16   37   0.226   0.271   0.083
    1UNL    H17   38   0.457   0.269  -0.074
    1UNL    H18   39   0.629   0.103  -0.172
    1UNL    H19   40   0.603  -0.130  -0.144
    1UNL    H20   41   0.369  -0.223  -0.072
    1UNL    H21   42  -0.011   0.052   0.254
    1UNL    H22   43   0.040   0.208   0.239
    1UNL    H23   44  -0.058   0.231   0.009
    1UNL    H24   45  -0.175   0.248   0.138
    1UNL    H25   46  -0.108  -0.024  -0.162
    1UNL    H26   47  -0.000  -0.000  -0.034
   0.00000   0.00000   0.00000   0.00000   0.00000   0.00000   0.00000   0.00000   0.00000
Generated with MDTraj, t= 82.0
 47
    1UNL     C1    1  -0.213   0.222  -0.190
    1UNL     C2    2  -0.286   0.149  -0.068
    1UNL     C3    3  -0.194   0.064   0.020
    1UNL     C4    4  -0.295  -0.028   0.107
    1UNL     C5    5  -0.328  -0.169   0.069
    1UNL     C6    6  -0.215  -0.239  -0.014
    1UNL     N1    7  -0.086  -0.159  -0.020
    1UNL     C7    8  -0.014  -0.204   0.101
    1UNL     C8    9   0.135  -0.188   0.105
    1UNL     C9   10   0.180  -0.048   0.072
    1UNL    C10   11   0.129   0.074   0.109
    1UNL     N2   12   0.217   0.171   0.066
    1UNL    C11   13   0.323   0.112  -0.011
    1UNL    C12   14   0.441   0.160  -0.074
    1UNL    C13   15   0.522   0.075  -0.142
    1UNL    C14   16   0.492  -0.062  -0.136
    1UNL    C15   17   0.380  -0.119  -0.074
    1UNL    C16   18   0.299  -0.030  -0.006
    1UNL    C17   19   0.001   0.114   0.184
    1UNL    C18   20  -0.113   0.165   0.096
    1UNL    C19   21  -0.102  -0.021  -0.068
    1UNL     H1   22  -0.120   0.267  -0.162
    1UNL     H2   23  -0.187   0.145  -0.275
    1UNL     H3   24  -0.263   0.306  -0.237
    1UNL     H4   25  -0.377   0.092  -0.103
    1UNL     H5   26  -0.320   0.234  -0.009
    1UNL     H6   27  -0.259  -0.015   0.210
    1UNL     H7   28  -0.390   0.024   0.094
    1UNL     H8   29  -0.421  -0.174   0.007
    1UNL     H9   30  -0.346  -0.215   0.168
    1UNL    H10   31  -0.191  -0.340   0.011
    1UNL    H11   32  -0.240  -0.251  -0.125
    1UNL    H12   33  -0.063  -0.153   0.185
    1UNL    H13   34  -0.042  -0.312   0.105
    1UNL    H14   35   0.192  -0.244   0.035
    1UNL    H15   36   0.173  -0.216   0.206
    1UNL    H16   37   0.193   0.266   0.081
    1UNL    H17   38   0.438   0.265  -0.091
    1UNL    H18   39   0.610   0.113  -0.192
    1UNL    H19   40   0.553  -0.130  -0.193
    1UNL    H20   41   0.367  -0.217  -0.080
    1UNL    H21   42  -0.031   0.028   0.233
    1UNL    H22   43   0.024   0.186   0.262
    1UNL    H23   44  -0.079   0.246   0.021
    1UNL    H24   45  -0.182   0.223   0.164
    1UNL    H25   46  -0.144  -0.030  -0.166
    1UNL    H26   47  -0.001   0.017  -0.078
   0.00000   0.00000   0.00000   0.00000   0.00000   0.00000   0.00000   0.00000   0.00000
Generated with MDTraj, t= 83.0
 47
    1UNL     C1    1  -0.168   0.206  -0.181
    1UNL     C2    2  -0.258   0.139  -0.083
    1UNL     C3    3  -0.171   0.063   0.017
    1UNL     C4    4  -0.270  -0.012   0.115
    1UNL     C5    5  -0.337  -0.126   0.038
    1UNL     C6    6  -0.241  -0.233  -0.014
    1UNL     N1    7  -0.101  -0.187  -0.015
    1UNL     C7    8  -0.024  -0.218   0.108
    1UNL     C8    9   0.125  -0.200   0.105
    1UNL     C9   10   0.186  -0.059   0.087
    1UNL    C10   11   0.137   0.065   0.128
    1UNL     N2   12   0.200   0.168   0.061
    1UNL    C11   13   0.293   0.110  -0.016
    1UNL    C12   14   0.391   0.174  -0.092
    1UNL    C13   15   0.486   0.098  -0.151
    1UNL    C14   16   0.484  -0.044  -0.148
    1UNL    C15   17   0.395  -0.102  -0.066
    1UNL    C16   18   0.294  -0.028   0.001
    1UNL    C17   19   0.013   0.107   0.198
    1UNL    C18   20  -0.090   0.165   0.098
    1UNL    C19   21  -0.087  -0.045  -0.062
    1UNL     H1   22  -0.136   0.301  -0.154
    1UNL     H2   23  -0.066   0.148  -0.203
    1UNL     H3   24  -0.204   0.230  -0.282
    1UNL     H4   25  -0.325   0.066  -0.132
    1UNL     H5   26  -0.325   0.212  -0.038
    1UNL     H6   27  -0.211  -0.057   0.194
    1UNL     H7   28  -0.341   0.062   0.156
    1UNL     H8   29  -0.386  -0.072  -0.045
    1UNL     H9   30  -0.414  -0.163   0.105
    1UNL    H10   31  -0.239  -0.326   0.040
    1UNL    H11   32  -0.259  -0.275  -0.119
    1UNL    H12   33  -0.057  -0.147   0.184
    1UNL    H13   34  -0.042  -0.327   0.134
    1UNL    H14   35   0.162  -0.264   0.030
    1UNL    H15   36   0.173  -0.230   0.204
    1UNL    H16   37   0.189   0.266   0.064
    1UNL    H17   38   0.395   0.281  -0.102
    1UNL    H18   39   0.555   0.152  -0.213
    1UNL    H19   40   0.562  -0.100  -0.197
    1UNL    H20   41   0.393  -0.215  -0.062
    1UNL    H21   42  -0.024   0.026   0.259
    1UNL    H22   43   0.044   0.189   0.261
    1UNL    H23   44  -0.041   0.245   0.025
    1UNL    H24   45  -0.163   0.226   0.157
    1UNL    H25   46  -0.120  -0.049  -0.163
    1UNL    H26   47   0.023  -0.034  -0.070
   0.00000   0.00000   0.00000   0.00000   0.00000   0.00000   0.00000   0.00000   0.00000
Generated with MDTraj, t= 84.0
 47
    1UNL     C1    1  -0.137   0.243  -0.177
    1UNL     C2    2  -0.241   0.155  -0.108
    1UNL     C3    3  -0.185   0.062   0.005
    1UNL     C4    4  -0.314  -0.001   0.075
    1UNL     C5    5  -0.347  -0.140   0.018
    1UNL     C6    6  -0.226  -0.241   0.018
    1UNL     N1    7  -0.093  -0.178   0.029
    1UNL     C7    8   0.002  -0.225   0.136
    1UNL     C8    9   0.147  -0.202   0.108
    1UNL     C9   10   0.190  -0.058   0.090
    1UNL    C10   11   0.130   0.065   0.125
    1UNL     N2   12   0.205   0.163   0.065
    1UNL    C11   13   0.312   0.114  -0.003
    1UNL    C12   14   0.402   0.176  -0.092
    1UNL    C13   15   0.477   0.096  -0.179
    1UNL    C14   16   0.462  -0.043  -0.168
    1UNL    C15   17   0.377  -0.105  -0.083
    1UNL    C16   18   0.300  -0.024   0.008
    1UNL    C17   19   0.002   0.086   0.196
    1UNL    C18   20  -0.115   0.152   0.111
    1UNL    C19   21  -0.093  -0.048  -0.051
    1UNL     H1   22  -0.082   0.296  -0.104
    1UNL     H2   23  -0.072   0.184  -0.240
    1UNL     H3   24  -0.193   0.322  -0.232
    1UNL     H4   25  -0.279   0.097  -0.195
    1UNL     H5   26  -0.321   0.219  -0.075
    1UNL     H6   27  -0.286  -0.018   0.178
    1UNL     H7   28  -0.397   0.073   0.070
    1UNL     H8   29  -0.379  -0.119  -0.087
    1UNL     H9   30  -0.422  -0.187   0.082
    1UNL    H10   31  -0.231  -0.321   0.089
    1UNL    H11   32  -0.225  -0.297  -0.082
    1UNL    H12   33  -0.018  -0.190   0.237
    1UNL    H13   34   0.001  -0.338   0.143
    1UNL    H14   35   0.170  -0.258   0.023
    1UNL    H15   36   0.209  -0.244   0.194
    1UNL    H16   37   0.191   0.260   0.067
    1UNL    H17   38   0.417   0.285  -0.084
    1UNL    H18   39   0.556   0.133  -0.246
    1UNL    H19   40   0.530  -0.094  -0.237
    1UNL    H20   41   0.380  -0.213  -0.067
    1UNL    H21   42  -0.047  -0.005   0.245
    1UNL    H22   43   0.027   0.147   0.280
    1UNL    H23   44  -0.064   0.240   0.057
    1UNL    H24   45  -0.200   0.198   0.170
    1UNL    H25   46  -0.118  -0.079  -0.150
    1UNL    H26   47   0.009  -0.006  -0.060
   0.00000   0.00000   0.00000   0.00000   0.00000   0.00000   0.00000   0.00000   0.00000
Generated with MDTraj, t= 85.0
 47
    1UNL     C1    1  -0.114   0.206  -0.196
    1UNL     C2    2  -0.219   0.150  -0.097
    1UNL     C3    3  -0.171   0.053   0.018
    1UNL     C4    4  -0.301  -0.005   0.082
    1UNL     C5    5  -0.349  -0.131   0.007
    1UNL     C6    6  -0.238  -0.239   0.027
    1UNL     N1    7  -0.098  -0.190   0.013
    1UNL     C7    8  -0.006  -0.225   0.128
    1UNL     C8    9   0.145  -0.194   0.112
    1UNL     C9   10   0.175  -0.051   0.072
    1UNL    C10   11   0.128   0.063   0.129
    1UNL     N2   12   0.198   0.169   0.083
    1UNL    C11   13   0.291   0.125  -0.021
    1UNL    C12   14   0.391   0.179  -0.100
    1UNL    C13   15   0.486   0.102  -0.163
    1UNL    C14   16   0.469  -0.039  -0.157
    1UNL    C15   17   0.362  -0.101  -0.098
    1UNL    C16   18   0.277  -0.017  -0.020
    1UNL    C17   19   0.008   0.092   0.216
    1UNL    C18   20  -0.098   0.149   0.123
    1UNL    C19   21  -0.087  -0.052  -0.049
    1UNL     H1   22  -0.064   0.288  -0.144
    1UNL     H2   23  -0.046   0.143  -0.232
    1UNL     H3   24  -0.161   0.264  -0.282
    1UNL     H4   25  -0.301   0.100  -0.155
    1UNL     H5   26  -0.273   0.229  -0.047
    1UNL     H6   27  -0.283  -0.011   0.189
    1UNL     H7   28  -0.374   0.079   0.074
    1UNL     H8   29  -0.355  -0.113  -0.103
    1UNL     H9   30  -0.437  -0.161   0.061
    1UNL    H10   31  -0.252  -0.287   0.121
    1UNL    H11   32  -0.248  -0.316  -0.058
    1UNL    H12   33  -0.046  -0.185   0.220
    1UNL    H13   34  -0.022  -0.334   0.155
    1UNL    H14   35   0.188  -0.250   0.036
    1UNL    H15   36   0.199  -0.228   0.206
    1UNL    H16   37   0.177   0.265   0.096
    1UNL    H17   38   0.412   0.281  -0.100
    1UNL    H18   39   0.571   0.153  -0.202
    1UNL    H19   40   0.539  -0.100  -0.212
    1UNL    H20   41   0.352  -0.204  -0.087
    1UNL    H21   42  -0.024   0.008   0.282
    1UNL    H22   43   0.027   0.168   0.289
    1UNL    H23   44  -0.055   0.231   0.063
    1UNL    H24   45  -0.178   0.197   0.190
    1UNL    H25   46  -0.127  -0.063  -0.148
    1UNL    H26   47   0.017  -0.025  -0.064
   0.00000   0.00000   0.00000   0.00000   0.00000   0.00000   0.00000   0.00000   0.00000
Generated with MDTraj, t= 86.0
 47
    1UNL     C1    1  -0.130   0.195  -0.199
    1UNL     C2    2  -0.237   0.152  -0.103
    1UNL     C3    3  -0.183   0.063   0.012
    1UNL     C4    4  -0.288  -0.009   0.095
    1UNL     C5    5  -0.351  -0.137   0.041
    1UNL     C6    6  -0.240  -0.240  -0.004
    1UNL     N1    7  -0.099  -0.188   0.004
    1UNL     C7    8  -0.017  -0.211   0.124
    1UNL     C8    9   0.137  -0.195   0.111
    1UNL     C9   10   0.182  -0.058   0.082
    1UNL    C10   11   0.131   0.064   0.127
    1UNL     N2   12   0.208   0.165   0.077
    1UNL    C11   13   0.310   0.113   0.000
    1UNL    C12   14   0.388   0.183  -0.082
    1UNL    C13   15   0.468   0.103  -0.168
    1UNL    C14   16   0.472  -0.035  -0.165
    1UNL    C15   17   0.390  -0.101  -0.079
    1UNL    C16   18   0.300  -0.026  -0.001
    1UNL    C17   19   0.013   0.099   0.202
    1UNL    C18   20  -0.099   0.156   0.109
    1UNL    C19   21  -0.089  -0.049  -0.057
    1UNL     H1   22  -0.032   0.214  -0.155
    1UNL     H2   23  -0.117   0.125  -0.278
    1UNL     H3   24  -0.154   0.290  -0.247
    1UNL     H4   25  -0.313   0.088  -0.155
    1UNL     H5   26  -0.299   0.234  -0.070
    1UNL     H6   27  -0.246  -0.014   0.195
    1UNL     H7   28  -0.367   0.070   0.108
    1UNL     H8   29  -0.406  -0.107  -0.049
    1UNL     H9   30  -0.402  -0.186   0.124
    1UNL    H10   31  -0.247  -0.319   0.067
    1UNL    H11   32  -0.262  -0.274  -0.111
    1UNL    H12   33  -0.057  -0.152   0.201
    1UNL    H13   34  -0.042  -0.316   0.157
    1UNL    H14   35   0.162  -0.263   0.036
    1UNL    H15   36   0.193  -0.232   0.202
    1UNL    H16   37   0.199   0.261   0.109
    1UNL    H17   38   0.375   0.296  -0.090
    1UNL    H18   39   0.504   0.163  -0.255
    1UNL    H19   40   0.535  -0.094  -0.230
    1UNL    H20   41   0.365  -0.211  -0.094
    1UNL    H21   42  -0.029   0.027   0.267
    1UNL    H22   43   0.048   0.179   0.265
    1UNL    H23   44  -0.065   0.234   0.048
    1UNL    H24   45  -0.176   0.200   0.184
    1UNL    H25   46  -0.125  -0.070  -0.156
    1UNL    H26   47   0.011  -0.015  -0.070
   0.00000   0.00000   0.00000   0.00000   0.00000   0.00000   0.00000   0.00000   0.00000
Generated with MDTraj, t= 87.0
 47
    1UNL     C1    1  -0.210   0.225  -0.200
    1UNL     C2    2  -0.270   0.145  -0.084
    1UNL     C3    3  -0.179   0.064   0.014
    1UNL     C4    4  -0.275  -0.020   0.103
    1UNL     C5    5  -0.331  -0.135   0.016
    1UNL     C6    6  -0.217  -0.240  -0.002
    1UNL     N1    7  -0.080  -0.179  -0.001
    1UNL     C7    8  -0.006  -0.225   0.118
    1UNL     C8    9   0.142  -0.195   0.115
    1UNL     C9   10   0.175  -0.053   0.082
    1UNL    C10   11   0.129   0.075   0.119
    1UNL     N2   12   0.217   0.173   0.073
    1UNL    C11   13   0.315   0.111  -0.004
    1UNL    C12   14   0.420   0.169  -0.070
    1UNL    C13   15   0.489   0.084  -0.157
    1UNL    C14   16   0.466  -0.055  -0.152
    1UNL    C15   17   0.372  -0.115  -0.068
    1UNL    C16   18   0.289  -0.026   0.001
    1UNL    C17   19   0.007   0.114   0.189
    1UNL    C18   20  -0.101   0.166   0.102
    1UNL    C19   21  -0.085  -0.038  -0.068
    1UNL     H1   22  -0.173   0.321  -0.166
    1UNL     H2   23  -0.136   0.162  -0.259
    1UNL     H3   24  -0.291   0.244  -0.260
    1UNL     H4   25  -0.349   0.080  -0.127
    1UNL     H5   26  -0.331   0.204  -0.017
    1UNL     H6   27  -0.220  -0.050   0.191
    1UNL     H7   28  -0.353   0.050   0.146
    1UNL     H8   29  -0.356  -0.094  -0.082
    1UNL     H9   30  -0.412  -0.171   0.078
    1UNL    H10   31  -0.222  -0.308   0.079
    1UNL    H11   32  -0.230  -0.300  -0.099
    1UNL    H12   33  -0.056  -0.183   0.205
    1UNL    H13   34  -0.022  -0.336   0.115
    1UNL    H14   35   0.181  -0.260   0.042
    1UNL    H15   36   0.197  -0.226   0.209
    1UNL    H16   37   0.195   0.272   0.052
    1UNL    H17   38   0.432   0.273  -0.073
    1UNL    H18   39   0.575   0.114  -0.210
    1UNL    H19   40   0.518  -0.123  -0.222
    1UNL    H20   41   0.348  -0.214  -0.059
    1UNL    H21   42  -0.021   0.026   0.242
    1UNL    H22   43   0.032   0.199   0.252
    1UNL    H23   44  -0.062   0.243   0.045
    1UNL    H24   45  -0.185   0.213   0.169
    1UNL    H25   46  -0.124  -0.057  -0.166
    1UNL    H26   47   0.013  -0.001  -0.089
   0.00000   0.00000   0.00000   0.00000   0.00000   0.00000   0.00000   0.00000   0.00000
Generated with MDTraj, t= 88.0
 47
    1UNL     C1    1  -0.208   0.232  -0.172
    1UNL     C2    2  -0.288   0.136  -0.080
    1UNL     C3    3  -0.187   0.058   0.012
    1UNL     C4    4  -0.290  -0.025   0.106
    1UNL     C5    5  -0.317  -0.177   0.073
    1UNL     C6    6  -0.229  -0.227  -0.037
    1UNL     N1    7  -0.095  -0.179  -0.027
    1UNL     C7    8  -0.033  -0.202   0.111
    1UNL     C8    9   0.119  -0.174   0.113
    1UNL     C9   10   0.171  -0.041   0.057
    1UNL    C10   11   0.132   0.080   0.103
    1UNL     N2   12   0.215   0.180   0.052
    1UNL    C11   13   0.316   0.113  -0.018
    1UNL    C12   14   0.431   0.160  -0.088
    1UNL    C13   15   0.525   0.076  -0.141
    1UNL    C14   16   0.500  -0.066  -0.123
    1UNL    C15   17   0.392  -0.115  -0.060
    1UNL    C16   18   0.295  -0.025  -0.013
    1UNL    C17   19   0.019   0.119   0.193
    1UNL    C18   20  -0.106   0.152   0.111
    1UNL    C19   21  -0.097  -0.035  -0.071
    1UNL     H1   22  -0.209   0.333  -0.139
    1UNL     H2   23  -0.102   0.191  -0.197
    1UNL     H3   24  -0.263   0.236  -0.256
    1UNL     H4   25  -0.352   0.059  -0.130
    1UNL     H5   26  -0.360   0.183  -0.016
    1UNL     H6   27  -0.256  -0.014   0.211
    1UNL     H7   28  -0.381   0.042   0.113
    1UNL     H8   29  -0.424  -0.177   0.051
    1UNL     H9   30  -0.295  -0.228   0.165
    1UNL    H10   31  -0.221  -0.333  -0.035
    1UNL    H11   32  -0.265  -0.202  -0.143
    1UNL    H12   33  -0.085  -0.135   0.188
    1UNL    H13   34  -0.059  -0.307   0.138
    1UNL    H14   35   0.181  -0.241   0.058
    1UNL    H15   36   0.156  -0.190   0.218
    1UNL    H16   37   0.221   0.274   0.099
    1UNL    H17   38   0.455   0.266  -0.088
    1UNL    H18   39   0.625   0.108  -0.174
    1UNL    H19   40   0.575  -0.136  -0.147
    1UNL    H20   41   0.377  -0.222  -0.033
    1UNL    H21   42  -0.001   0.036   0.261
    1UNL    H22   43   0.057   0.205   0.246
    1UNL    H23   44  -0.073   0.232   0.052
    1UNL    H24   45  -0.186   0.197   0.183
    1UNL    H25   46  -0.120  -0.033  -0.176
    1UNL    H26   47   0.005  -0.000  -0.070
   0.00000   0.00000   0.00000   0.00000   0.00000   0.00000   0.00000   0.00000   0.00000
Generated with MDTraj, t= 89.0
 47
    1UNL     C1    1  -0.245   0.238  -0.173
    1UNL     C2    2  -0.293   0.135  -0.073
    1UNL     C3    3  -0.186   0.068   0.018
    1UNL     C4    4  -0.275  -0.019   0.124
    1UNL     C5    5  -0.335  -0.153   0.072
    1UNL     C6    6  -0.235  -0.222  -0.020
    1UNL     N1    7  -0.094  -0.174  -0.021
    1UNL     C7    8  -0.014  -0.210   0.099
    1UNL     C8    9   0.132  -0.195   0.082
    1UNL     C9   10   0.180  -0.061   0.064
    1UNL    C10   11   0.129   0.069   0.092
    1UNL     N2   12   0.206   0.165   0.035
    1UNL    C11   13   0.315   0.110  -0.014
    1UNL    C12   14   0.426   0.165  -0.085
    1UNL    C13   15   0.524   0.081  -0.126
    1UNL    C14   16   0.521  -0.062  -0.104
    1UNL    C15   17   0.413  -0.114  -0.041
    1UNL    C16   18   0.306  -0.031  -0.003
    1UNL    C17   19   0.006   0.106   0.172
    1UNL    C18   20  -0.101   0.173   0.089
    1UNL    C19   21  -0.101  -0.029  -0.072
    1UNL     H1   22  -0.174   0.313  -0.147
    1UNL     H2   23  -0.207   0.187  -0.267
    1UNL     H3   24  -0.335   0.289  -0.197
    1UNL     H4   25  -0.351   0.052  -0.118
    1UNL     H5   26  -0.365   0.178  -0.004
    1UNL     H6   27  -0.226  -0.033   0.223
    1UNL     H7   28  -0.357   0.048   0.165
    1UNL     H8   29  -0.430  -0.129   0.023
    1UNL     H9   30  -0.352  -0.209   0.163
    1UNL    H10   31  -0.232  -0.326  -0.005
    1UNL    H11   32  -0.268  -0.215  -0.129
    1UNL    H12   33  -0.053  -0.160   0.195
    1UNL    H13   34  -0.030  -0.319   0.115
    1UNL    H14   35   0.160  -0.261   0.002
    1UNL    H15   36   0.189  -0.235   0.170
    1UNL    H16   37   0.184   0.267   0.056
    1UNL    H17   38   0.447   0.272  -0.069
    1UNL    H18   39   0.606   0.116  -0.188
    1UNL    H19   40   0.608  -0.125  -0.137
    1UNL    H20   41   0.408  -0.220  -0.017
    1UNL    H21   42  -0.026   0.014   0.222
    1UNL    H22   43   0.033   0.168   0.255
    1UNL    H23   44  -0.062   0.246   0.016
    1UNL    H24   45  -0.167   0.233   0.161
    1UNL    H25   46  -0.144  -0.029  -0.169
    1UNL    H26   47   0.003   0.004  -0.089
   0.00000   0.00000   0.00000   0.00000   0.00000   0.00000   0.00000   0.00000   0.00000
Generated with MDTraj, t= 90.0
 47
    1UNL     C1    1  -0.223   0.230  -0.175
    1UNL     C2    2  -0.302   0.148  -0.072
    1UNL     C3    3  -0.209   0.064   0.019
    1UNL     C4    4  -0.301  -0.015   0.123
    1UNL     C5    5  -0.353  -0.149   0.064
    1UNL     C6    6  -0.242  -0.247   0.012
    1UNL     N1    7  -0.114  -0.181  -0.010
    1UNL     C7    8  -0.010  -0.208   0.095
    1UNL     C8    9   0.134  -0.187   0.068
    1UNL     C9   10   0.188  -0.049   0.048
    1UNL    C10   11   0.138   0.070   0.089
    1UNL     N2   12   0.222   0.175   0.052
    1UNL    C11   13   0.334   0.121  -0.004
    1UNL    C12   14   0.454   0.171  -0.065
    1UNL    C13   15   0.538   0.080  -0.121
    1UNL    C14   16   0.523  -0.057  -0.115
    1UNL    C15   17   0.408  -0.107  -0.056
    1UNL    C16   18   0.316  -0.020  -0.003
    1UNL    C17   19   0.010   0.095   0.167
    1UNL    C18   20  -0.103   0.151   0.078
    1UNL    C19   21  -0.125  -0.040  -0.068
    1UNL     H1   22  -0.182   0.324  -0.144
    1UNL     H2   23  -0.138   0.176  -0.210
    1UNL     H3   24  -0.289   0.250  -0.264
    1UNL     H4   25  -0.387   0.091  -0.117
    1UNL     H5   26  -0.342   0.224  -0.009
    1UNL     H6   27  -0.243  -0.028   0.215
    1UNL     H7   28  -0.380   0.050   0.171
    1UNL     H8   29  -0.419  -0.114  -0.017
    1UNL     H9   30  -0.416  -0.196   0.140
    1UNL    H10   31  -0.228  -0.335   0.069
    1UNL    H11   32  -0.274  -0.281  -0.089
    1UNL    H12   33  -0.031  -0.164   0.191
    1UNL    H13   34  -0.023  -0.318   0.119
    1UNL    H14   35   0.150  -0.248  -0.022
    1UNL    H15   36   0.202  -0.233   0.144
    1UNL    H16   37   0.196   0.279   0.054
    1UNL    H17   38   0.463   0.276  -0.075
    1UNL    H18   39   0.630   0.109  -0.168
    1UNL    H19   40   0.566  -0.122  -0.182
    1UNL    H20   41   0.379  -0.206  -0.057
    1UNL    H21   42  -0.028   0.009   0.224
    1UNL    H22   43   0.039   0.155   0.251
    1UNL    H23   44  -0.049   0.210  -0.008
    1UNL    H24   45  -0.161   0.224   0.138
    1UNL    H25   46  -0.181  -0.052  -0.158
    1UNL    H26   47  -0.023  -0.004  -0.096
   0.00000   0.00000   0.00000   0.00000   0.00000   0.00000   0.00000   0.00000   0.00000
Generated with MDTraj, t= 91.0
 47
    1UNL     C1    1  -0.204   0.203  -0.200
    1UNL     C2    2  -0.283   0.131  -0.090
    1UNL     C3    3  -0.195   0.061   0.016
    1UNL     C4    4  -0.293  -0.003   0.124
    1UNL     C5    5  -0.365  -0.126   0.066
    1UNL     C6    6  -0.256  -0.240   0.044
    1UNL     N1    7  -0.125  -0.185   0.014
    1UNL     C7    8  -0.008  -0.219   0.102
    1UNL     C8    9   0.127  -0.190   0.041
    1UNL     C9   10   0.177  -0.053   0.038
    1UNL    C10   11   0.136   0.062   0.099
    1UNL     N2   12   0.222   0.170   0.074
    1UNL    C11   13   0.326   0.122  -0.004
    1UNL    C12   14   0.454   0.174  -0.037
    1UNL    C13   15   0.551   0.093  -0.094
    1UNL    C14   16   0.512  -0.036  -0.125
    1UNL    C15   17   0.387  -0.091  -0.104
    1UNL    C16   18   0.294  -0.012  -0.044
    1UNL    C17   19   0.011   0.089   0.173
    1UNL    C18   20  -0.091   0.154   0.080
    1UNL    C19   21  -0.114  -0.053  -0.056
    1UNL     H1   22  -0.141   0.284  -0.170
    1UNL     H2   23  -0.139   0.138  -0.243
    1UNL     H3   24  -0.271   0.245  -0.288
    1UNL     H4   25  -0.339   0.056  -0.149
    1UNL     H5   26  -0.350   0.201  -0.043
    1UNL     H6   27  -0.249  -0.017   0.224
    1UNL     H7   28  -0.362   0.081   0.156
    1UNL     H8   29  -0.406  -0.101  -0.033
    1UNL     H9   30  -0.448  -0.158   0.131
    1UNL    H10   31  -0.249  -0.301   0.131
    1UNL    H11   32  -0.282  -0.298  -0.046
    1UNL    H12   33  -0.015  -0.168   0.192
    1UNL    H13   34  -0.004  -0.329   0.135
    1UNL    H14   35   0.126  -0.222  -0.065
    1UNL    H15   36   0.197  -0.260   0.090
    1UNL    H16   37   0.236   0.256   0.136
    1UNL    H17   38   0.478   0.280  -0.017
    1UNL    H18   39   0.653   0.125  -0.112
    1UNL    H19   40   0.587  -0.109  -0.169
    1UNL    H20   41   0.367  -0.190  -0.160
    1UNL    H21   42  -0.026   0.000   0.222
    1UNL    H22   43   0.025   0.154   0.256
    1UNL    H23   44  -0.014   0.195  -0.002
    1UNL    H24   45  -0.139   0.244   0.124
    1UNL    H25   46  -0.160  -0.067  -0.151
    1UNL    H26   47  -0.009  -0.027  -0.071
   0.00000   0.00000   0.00000   0.00000   0.00000   0.00000   0.00000   0.00000   0.00000
Generated with MDTraj, t= 92.0
 47
    1UNL     C1    1  -0.204   0.185  -0.228
    1UNL     C2    2  -0.281   0.144  -0.104
    1UNL     C3    3  -0.199   0.066  -0.000
    1UNL     C4    4  -0.305   0.013   0.109
    1UNL     C5    5  -0.359  -0.128   0.096
    1UNL     C6    6  -0.251  -0.232   0.069
    1UNL     N1    7  -0.128  -0.182   0.010
    1UNL     C7    8  -0.009  -0.216   0.093
    1UNL     C8    9   0.126  -0.195   0.019
    1UNL     C9   10   0.189  -0.064   0.048
    1UNL    C10   11   0.136   0.051   0.110
    1UNL     N2   12   0.234   0.150   0.102
    1UNL    C11   13   0.345   0.101   0.033
    1UNL    C12   14   0.448   0.175  -0.023
    1UNL    C13   15   0.523   0.117  -0.118
    1UNL    C14   16   0.502  -0.013  -0.163
    1UNL    C15   17   0.407  -0.094  -0.097
    1UNL    C16   18   0.319  -0.028  -0.007
    1UNL    C17   19   0.003   0.084   0.165
    1UNL    C18   20  -0.092   0.163   0.077
    1UNL    C19   21  -0.124  -0.052  -0.066
    1UNL     H1   22  -0.102   0.207  -0.212
    1UNL     H2   23  -0.203   0.112  -0.302
    1UNL     H3   24  -0.249   0.280  -0.278
    1UNL     H4   25  -0.358   0.074  -0.143
    1UNL     H5   26  -0.332   0.226  -0.055
    1UNL     H6   27  -0.274   0.038   0.212
    1UNL     H7   28  -0.390   0.088   0.112
    1UNL     H8   29  -0.437  -0.123   0.017
    1UNL     H9   30  -0.406  -0.157   0.190
    1UNL    H10   31  -0.223  -0.272   0.165
    1UNL    H11   32  -0.294  -0.310   0.005
    1UNL    H12   33  -0.008  -0.184   0.192
    1UNL    H13   34  -0.022  -0.329   0.094
    1UNL    H14   35   0.114  -0.202  -0.093
    1UNL    H15   36   0.200  -0.274   0.045
    1UNL    H16   37   0.211   0.253   0.112
    1UNL    H17   38   0.473   0.272   0.010
    1UNL    H18   39   0.612   0.174  -0.145
    1UNL    H19   40   0.567  -0.053  -0.237
    1UNL    H20   41   0.389  -0.192  -0.123
    1UNL    H21   42  -0.057  -0.001   0.203
    1UNL    H22   43   0.033   0.136   0.253
    1UNL    H23   44  -0.032   0.226   0.002
    1UNL    H24   45  -0.148   0.237   0.140
    1UNL    H25   46  -0.177  -0.077  -0.155
    1UNL    H26   47  -0.024  -0.015  -0.090
   0.00000   0.00000   0.00000   0.00000   0.00000   0.00000   0.00000   0.00000   0.00000
Generated with MDTraj, t= 93.0
 47
    1UNL     C1    1  -0.193   0.177  -0.229
    1UNL     C2    2  -0.268   0.153  -0.104
    1UNL     C3    3  -0.202   0.061   0.002
    1UNL     C4    4  -0.307   0.026   0.105
    1UNL     C5    5  -0.363  -0.118   0.081
    1UNL     C6    6  -0.252  -0.225   0.097
    1UNL     N1    7  -0.122  -0.168   0.052
    1UNL     C7    8  -0.014  -0.262   0.058
    1UNL     C8    9   0.124  -0.198   0.009
    1UNL     C9   10   0.183  -0.057   0.043
    1UNL    C10   11   0.142   0.048   0.118
    1UNL     N2   12   0.223   0.153   0.093
    1UNL    C11   13   0.333   0.120   0.019
    1UNL    C12   14   0.446   0.185  -0.028
    1UNL    C13   15   0.533   0.116  -0.108
    1UNL    C14   16   0.510  -0.018  -0.145
    1UNL    C15   17   0.397  -0.082  -0.105
    1UNL    C16   18   0.304  -0.013  -0.019
    1UNL    C17   19   0.008   0.070   0.175
    1UNL    C18   20  -0.085   0.147   0.073
    1UNL    C19   21  -0.127  -0.060  -0.060
    1UNL     H1   22  -0.113   0.249  -0.221
    1UNL     H2   23  -0.151   0.085  -0.272
    1UNL     H3   24  -0.265   0.216  -0.301
    1UNL     H4   25  -0.372   0.119  -0.126
    1UNL     H5   26  -0.276   0.246  -0.051
    1UNL     H6   27  -0.264   0.047   0.204
    1UNL     H7   28  -0.389   0.103   0.109
    1UNL     H8   29  -0.407  -0.115  -0.021
    1UNL     H9   30  -0.449  -0.124   0.150
    1UNL    H10   31  -0.244  -0.251   0.202
    1UNL    H11   32  -0.273  -0.317   0.043
    1UNL    H12   33  -0.008  -0.292   0.158
    1UNL    H13   34  -0.045  -0.351  -0.005
    1UNL    H14   35   0.119  -0.210  -0.104
    1UNL    H15   36   0.212  -0.258   0.036
    1UNL    H16   37   0.221   0.243   0.145
    1UNL    H17   38   0.469   0.285   0.013
    1UNL    H18   39   0.629   0.157  -0.128
    1UNL    H19   40   0.576  -0.054  -0.223
    1UNL    H20   41   0.385  -0.187  -0.126
    1UNL    H21   42  -0.030  -0.033   0.201
    1UNL    H22   43   0.012   0.125   0.266
    1UNL    H23   44  -0.026   0.204   0.001
    1UNL    H24   45  -0.135   0.233   0.129
    1UNL    H25   46  -0.175  -0.106  -0.145
    1UNL    H26   47  -0.032  -0.018  -0.092
   0.00000   0.00000   0.00000   0.00000   0.00000   0.00000   0.00000   0.00000   0.00000
Generated with MDTraj, t= 94.0
 47
    1UNL     C1    1  -0.152   0.196  -0.213
    1UNL     C2    2  -0.256   0.158  -0.108
    1UNL     C3    3  -0.205   0.062   0.005
    1UNL     C4    4  -0.325   0.019   0.094
    1UNL     C5    5  -0.364  -0.134   0.102
    1UNL     C6    6  -0.238  -0.211   0.131
    1UNL     N1    7  -0.117  -0.163   0.061
    1UNL     C7    8   0.006  -0.236   0.085
    1UNL     C8    9   0.112  -0.199  -0.023
    1UNL     C9   10   0.175  -0.063   0.004
    1UNL    C10   11   0.120   0.042   0.084
    1UNL     N2   12   0.208   0.146   0.082
    1UNL    C11   13   0.324   0.106   0.013
    1UNL    C12   14   0.443   0.182  -0.018
    1UNL    C13   15   0.544   0.122  -0.089
    1UNL    C14   16   0.522  -0.015  -0.130
    1UNL    C15   17   0.410  -0.081  -0.106
    1UNL    C16   18   0.301  -0.023  -0.040
    1UNL    C17   19  -0.003   0.063   0.159
    1UNL    C18   20  -0.101   0.148   0.075
    1UNL    C19   21  -0.136  -0.067  -0.053
    1UNL     H1   22  -0.050   0.211  -0.177
    1UNL     H2   23  -0.149   0.106  -0.283
    1UNL     H3   24  -0.193   0.276  -0.263
    1UNL     H4   25  -0.343   0.101  -0.147
    1UNL     H5   26  -0.298   0.247  -0.063
    1UNL     H6   27  -0.304   0.046   0.198
    1UNL     H7   28  -0.407   0.094   0.076
    1UNL     H8   29  -0.414  -0.156   0.004
    1UNL     H9   30  -0.444  -0.141   0.177
    1UNL    H10   31  -0.212  -0.230   0.235
    1UNL    H11   32  -0.255  -0.308   0.088
    1UNL    H12   33   0.037  -0.223   0.185
    1UNL    H13   34  -0.022  -0.343   0.071
    1UNL    H14   35   0.065  -0.192  -0.128
    1UNL    H15   36   0.174  -0.288  -0.036
    1UNL    H16   37   0.203   0.238   0.127
    1UNL    H17   38   0.467   0.268   0.040
    1UNL    H18   39   0.632   0.181  -0.121
    1UNL    H19   40   0.605  -0.051  -0.193
    1UNL    H20   41   0.398  -0.186  -0.149
    1UNL    H21   42  -0.051  -0.029   0.200
    1UNL    H22   43   0.035   0.121   0.240
    1UNL    H23   44  -0.052   0.214   0.011
    1UNL    H24   45  -0.151   0.220   0.150
    1UNL    H25   46  -0.193  -0.109  -0.136
    1UNL    H26   47  -0.042  -0.045  -0.096
   0.00000   0.00000   0.00000   0.00000   0.00000   0.00000   0.00000   0.00000   0.00000
Generated with MDTraj, t= 95.0
 47
    1UNL     C1    1  -0.168   0.184  -0.209
    1UNL     C2    2  -0.278   0.153  -0.110
    1UNL     C3    3  -0.210   0.066   0.010
    1UNL     C4    4  -0.333   0.018   0.093
    1UNL     C5    5  -0.360  -0.138   0.097
    1UNL     C6    6  -0.240  -0.215   0.134
    1UNL     N1    7  -0.125  -0.172   0.039
    1UNL     C7    8   0.006  -0.241   0.057
    1UNL     C8    9   0.133  -0.187  -0.008
    1UNL     C9   10   0.179  -0.050   0.016
    1UNL    C10   11   0.125   0.060   0.082
    1UNL     N2   12   0.223   0.156   0.087
    1UNL    C11   13   0.336   0.112   0.014
    1UNL    C12   14   0.454   0.175  -0.019
    1UNL    C13   15   0.548   0.106  -0.097
    1UNL    C14   16   0.518  -0.026  -0.137
    1UNL    C15   17   0.407  -0.091  -0.098
    1UNL    C16   18   0.304  -0.016  -0.026
    1UNL    C17   19   0.003   0.066   0.161
    1UNL    C18   20  -0.111   0.145   0.089
    1UNL    C19   21  -0.139  -0.053  -0.057
    1UNL     H1   22  -0.101   0.263  -0.174
    1UNL     H2   23  -0.104   0.095  -0.237
    1UNL     H3   24  -0.216   0.210  -0.293
    1UNL     H4   25  -0.369   0.099  -0.144
    1UNL     H5   26  -0.324   0.237  -0.061
    1UNL     H6   27  -0.329   0.059   0.195
    1UNL     H7   28  -0.424   0.079   0.064
    1UNL     H8   29  -0.403  -0.166  -0.003
    1UNL     H9   30  -0.443  -0.150   0.169
    1UNL    H10   31  -0.218  -0.182   0.237
    1UNL    H11   32  -0.257  -0.319   0.136
    1UNL    H12   33   0.019  -0.244   0.163
    1UNL    H13   34  -0.017  -0.345   0.028
    1UNL    H14   35   0.132  -0.210  -0.121
    1UNL    H15   36   0.212  -0.251   0.032
    1UNL    H16   37   0.209   0.250   0.115
    1UNL    H17   38   0.468   0.275   0.024
    1UNL    H18   39   0.643   0.146  -0.121
    1UNL    H19   40   0.576  -0.073  -0.210
    1UNL    H20   41   0.384  -0.177  -0.148
    1UNL    H21   42  -0.021  -0.038   0.183
    1UNL    H22   43   0.022   0.115   0.254
    1UNL    H23   44  -0.065   0.209   0.022
    1UNL    H24   45  -0.168   0.221   0.157
    1UNL    H25   46  -0.192  -0.081  -0.149
    1UNL    H26   47  -0.043  -0.024  -0.091
   0.00000   0.00000   0.00000   0.00000   0.00000   0.00000   0.00000   0.00000   0.00000
Generated with MDTraj, t= 96.0
 47
    1UNL     C1    1  -0.201   0.200  -0.224
    1UNL     C2    2  -0.279   0.141  -0.106
    1UNL     C3    3  -0.196   0.063   0.002
    1UNL     C4    4  -0.307   0.024   0.118
    1UNL     C5    5  -0.366  -0.118   0.098
    1UNL     C6    6  -0.253  -0.216   0.094
    1UNL     N1    7  -0.120  -0.164   0.044
    1UNL     C7    8   0.005  -0.243   0.081
    1UNL     C8    9   0.129  -0.203   0.008
    1UNL     C9   10   0.182  -0.061   0.025
    1UNL    C10   11   0.136   0.043   0.099
    1UNL     N2   12   0.223   0.155   0.093
    1UNL    C11   13   0.335   0.114   0.014
    1UNL    C12   14   0.448   0.181  -0.018
    1UNL    C13   15   0.539   0.116  -0.099
    1UNL    C14   16   0.524  -0.018  -0.130
    1UNL    C15   17   0.402  -0.083  -0.099
    1UNL    C16   18   0.301  -0.014  -0.034
    1UNL    C17   19  -0.000   0.060   0.154
    1UNL    C18   20  -0.085   0.141   0.057
    1UNL    C19   21  -0.140  -0.063  -0.059
    1UNL     H1   22  -0.114   0.252  -0.184
    1UNL     H2   23  -0.164   0.125  -0.296
    1UNL     H3   24  -0.267   0.264  -0.282
    1UNL     H4   25  -0.362   0.075  -0.141
    1UNL     H5   26  -0.334   0.215  -0.050
    1UNL     H6   27  -0.265   0.033   0.219
    1UNL     H7   28  -0.383   0.105   0.129
    1UNL     H8   29  -0.418  -0.115  -0.001
    1UNL     H9   30  -0.444  -0.137   0.175
    1UNL    H10   31  -0.238  -0.246   0.199
    1UNL    H11   32  -0.288  -0.298   0.038
    1UNL    H12   33   0.014  -0.236   0.190
    1UNL    H13   34  -0.026  -0.344   0.058
    1UNL    H14   35   0.099  -0.224  -0.102
    1UNL    H15   36   0.207  -0.275   0.032
    1UNL    H16   37   0.223   0.225   0.162
    1UNL    H17   38   0.468   0.285   0.001
    1UNL    H18   39   0.633   0.174  -0.112
    1UNL    H19   40   0.601  -0.065  -0.194
    1UNL    H20   41   0.375  -0.183  -0.138
    1UNL    H21   42  -0.042  -0.035   0.178
    1UNL    H22   43   0.007   0.114   0.247
    1UNL    H23   44  -0.021   0.182  -0.016
    1UNL    H24   45  -0.140   0.233   0.100
    1UNL    H25   46  -0.208  -0.093  -0.139
    1UNL    H26   47  -0.046  -0.048  -0.106
   0.00000   0.00000   0.00000   0.00000   0.00000   0.00000   0.00000   0.00000   0.00000
Generated with MDTraj, t= 97.0
 47
    1UNL     C1    1  -0.215   0.184  -0.223
    1UNL     C2    2  -0.296   0.136  -0.098
    1UNL     C3    3  -0.206   0.067   0.004
    1UNL     C4    4  -0.293   0.016   0.123
    1UNL     C5    5  -0.354  -0.120   0.096
    1UNL     C6    6  -0.253  -0.236   0.075
    1UNL     N1    7  -0.129  -0.189   0.006
    1UNL     C7    8  -0.004  -0.220   0.081
    1UNL     C8    9   0.115  -0.183   0.003
    1UNL     C9   10   0.183  -0.055   0.031
    1UNL    C10   11   0.140   0.055   0.103
    1UNL     N2   12   0.231   0.160   0.096
    1UNL    C11   13   0.349   0.113   0.038
    1UNL    C12   14   0.457   0.174  -0.021
    1UNL    C13   15   0.541   0.107  -0.113
    1UNL    C14   16   0.511  -0.024  -0.147
    1UNL    C15   17   0.409  -0.098  -0.084
    1UNL    C16   18   0.320  -0.019  -0.010
    1UNL    C17   19   0.006   0.086   0.159
    1UNL    C18   20  -0.093   0.152   0.066
    1UNL    C19   21  -0.137  -0.059  -0.062
    1UNL     H1   22  -0.131   0.240  -0.181
    1UNL     H2   23  -0.167   0.108  -0.275
    1UNL     H3   24  -0.275   0.239  -0.309
    1UNL     H4   25  -0.371   0.060  -0.129
    1UNL     H5   26  -0.350   0.220  -0.056
    1UNL     H6   27  -0.232   0.012   0.214
    1UNL     H7   28  -0.365   0.096   0.154
    1UNL     H8   29  -0.422  -0.105   0.008
    1UNL     H9   30  -0.418  -0.146   0.183
    1UNL    H10   31  -0.231  -0.284   0.172
    1UNL    H11   32  -0.304  -0.303   0.012
    1UNL    H12   33  -0.007  -0.157   0.175
    1UNL    H13   34  -0.004  -0.321   0.118
    1UNL    H14   35   0.092  -0.186  -0.110
    1UNL    H15   36   0.178  -0.268   0.024
    1UNL    H16   37   0.197   0.252   0.113
    1UNL    H17   38   0.486   0.273   0.012
    1UNL    H18   39   0.627   0.157  -0.149
    1UNL    H19   40   0.575  -0.075  -0.216
    1UNL    H20   41   0.396  -0.198  -0.117
    1UNL    H21   42  -0.040   0.003   0.207
    1UNL    H22   43   0.019   0.149   0.246
    1UNL    H23   44  -0.045   0.205  -0.015
    1UNL    H24   45  -0.146   0.239   0.118
    1UNL    H25   46  -0.172  -0.077  -0.163
    1UNL    H26   47  -0.036  -0.024  -0.078
   0.00000   0.00000   0.00000   0.00000   0.00000   0.00000   0.00000   0.00000   0.00000
Generated with MDTraj, t= 98.0
 47
    1UNL     C1    1  -0.243   0.197  -0.214
    1UNL     C2    2  -0.290   0.141  -0.083
    1UNL     C3    3  -0.209   0.066   0.012
    1UNL     C4    4  -0.303  -0.000   0.124
    1UNL     C5    5  -0.364  -0.132   0.075
    1UNL     C6    6  -0.251  -0.242   0.049
    1UNL     N1    7  -0.122  -0.179   0.014
    1UNL     C7    8   0.006  -0.216   0.097
    1UNL     C8    9   0.137  -0.186   0.036
    1UNL     C9   10   0.187  -0.042   0.034
    1UNL    C10   11   0.135   0.072   0.092
    1UNL     N2   12   0.231   0.171   0.073
    1UNL    C11   13   0.338   0.113   0.008
    1UNL    C12   14   0.471   0.169  -0.029
    1UNL    C13   15   0.557   0.087  -0.090
    1UNL    C14   16   0.521  -0.044  -0.130
    1UNL    C15   17   0.399  -0.093  -0.099
    1UNL    C16   18   0.309  -0.013  -0.028
    1UNL    C17   19   0.002   0.085   0.163
    1UNL    C18   20  -0.101   0.159   0.074
    1UNL    C19   21  -0.133  -0.055  -0.060
    1UNL     H1   22  -0.160   0.265  -0.190
    1UNL     H2   23  -0.193   0.139  -0.284
    1UNL     H3   24  -0.322   0.249  -0.286
    1UNL     H4   25  -0.374   0.073  -0.109
    1UNL     H5   26  -0.328   0.226  -0.026
    1UNL     H6   27  -0.239  -0.013   0.213
    1UNL     H7   28  -0.382   0.068   0.160
    1UNL     H8   29  -0.424  -0.118  -0.019
    1UNL     H9   30  -0.436  -0.159   0.153
    1UNL    H10   31  -0.237  -0.299   0.143
    1UNL    H11   32  -0.279  -0.307  -0.028
    1UNL    H12   33   0.001  -0.186   0.209
    1UNL    H13   34  -0.000  -0.322   0.099
    1UNL    H14   35   0.125  -0.214  -0.075
    1UNL    H15   36   0.219  -0.244   0.079
    1UNL    H16   37   0.248   0.258   0.113
    1UNL    H17   38   0.504   0.253   0.023
    1UNL    H18   39   0.661   0.109  -0.106
    1UNL    H19   40   0.578  -0.107  -0.197
    1UNL    H20   41   0.368  -0.195  -0.113
    1UNL    H21   42  -0.040  -0.010   0.192
    1UNL    H22   43   0.014   0.138   0.257
    1UNL    H23   44  -0.055   0.214  -0.012
    1UNL    H24   45  -0.146   0.247   0.129
    1UNL    H25   46  -0.183  -0.085  -0.150
    1UNL    H26   47  -0.033  -0.026  -0.095
   0.00000   0.00000   0.00000   0.00000   0.00000   0.00000   0.00000   0.00000   0.00000
Generated with MDTraj, t= 99.0
 47
    1UNL     C1    1  -0.225   0.214  -0.189
    1UNL     C2    2  -0.295   0.136  -0.076
    1UNL     C3    3  -0.201   0.058   0.018
    1UNL     C4    4  -0.281  -0.011   0.130
    1UNL     C5    5  -0.355  -0.135   0.085
    1UNL     C6    6  -0.257  -0.244   0.026
    1UNL     N1    7  -0.123  -0.188  -0.008
    1UNL     C7    8  -0.016  -0.213   0.098
    1UNL     C8    9   0.129  -0.194   0.039
    1UNL     C9   10   0.179  -0.049   0.039
    1UNL    C10   11   0.128   0.071   0.084
    1UNL     N2   12   0.216   0.170   0.054
    1UNL    C11   13   0.324   0.121  -0.011
    1UNL    C12   14   0.451   0.173  -0.053
    1UNL    C13   15   0.551   0.092  -0.095
    1UNL    C14   16   0.533  -0.052  -0.102
    1UNL    C15   17   0.414  -0.101  -0.072
    1UNL    C16   18   0.307  -0.021  -0.029
    1UNL    C17   19   0.018   0.104   0.165
    1UNL    C18   20  -0.101   0.156   0.078
    1UNL    C19   21  -0.123  -0.047  -0.065
    1UNL     H1   22  -0.172   0.301  -0.143
    1UNL     H2   23  -0.143   0.169  -0.240
    1UNL     H3   24  -0.292   0.240  -0.280
    1UNL     H4   25  -0.359   0.064  -0.129
    1UNL     H5   26  -0.359   0.211  -0.026
    1UNL     H6   27  -0.217  -0.021   0.221
    1UNL     H7   28  -0.354   0.067   0.160
    1UNL     H8   29  -0.438  -0.101   0.018
    1UNL     H9   30  -0.408  -0.174   0.173
    1UNL    H10   31  -0.238  -0.330   0.095
    1UNL    H11   32  -0.299  -0.287  -0.059
    1UNL    H12   33  -0.026  -0.142   0.187
    1UNL    H13   34  -0.028  -0.312   0.134
    1UNL    H14   35   0.126  -0.230  -0.069
    1UNL    H15   36   0.208  -0.244   0.095
    1UNL    H16   37   0.206   0.265   0.073
    1UNL    H17   38   0.459   0.283  -0.027
    1UNL    H18   39   0.654   0.122  -0.124
    1UNL    H19   40   0.608  -0.109  -0.157
    1UNL    H20   41   0.396  -0.207  -0.087
    1UNL    H21   42  -0.018   0.022   0.227
    1UNL    H22   43   0.045   0.185   0.232
    1UNL    H23   44  -0.058   0.220  -0.009
    1UNL    H24   45  -0.161   0.236   0.128
    1UNL    H25   46  -0.164  -0.055  -0.163
    1UNL    H26   47  -0.020  -0.013  -0.086
   0.00000   0.00000   0.00000   0.00000   0.00000   0.00000   0.00000   0.00000   0.00000
