[ moleculetype ]
; name        nrexcl
res           1

[ atoms ]
;    nr  type  resnr resid  atom  cgnr     charge       mass
      1 TC3       1 res   C1        1      0.000     36.000
      2 SC3       1 res   C2        2      0.000     54.000
      3 SN6d      1 res   C3        3      0.000     54.000
      4 TC3       1 res   C4        4      0.000     36.000
      5 TC5       1 res   C5        5      0.000     36.000
      6 TN6d      1 res   C6        6      0.000     36.000
      7 TC5       1 res   C7        7      0.000     36.000
      8 TC5       1 res   C8        8      0.000     36.000
      9 TC5       1 res   C9        9      0.000     36.000
     10 TC3       1 res   C10      10      0.000     36.000

[ constraints ]
;  ai    aj   funct      b0(nm)
    1     2     1      0.36426
    2     3     1      0.23787
    4     5     1      0.25807
    5    10     1      0.26162
    7     9     1      0.25030
    5     7     1      0.18448
    7     8     1      0.25027
    5     6     1      0.21811
    6     7     1      0.21732
    8     9     1      0.29136

[ bonds ]
;  ai    aj   funct      b0(nm)          k(kJ/mol/nm^2)
    3     4     1      0.27803          14260.6
    2    10     1      0.34179          16445.3

[ angles ]
;  ai    aj    ak  funct     th0(deg)        k(kJ/mol/rad^2)
    1     2     3     1     77.79326           500.69
    1     2    10     1     64.13912          1915.14
    2     3     4     1    119.81713            19.54
    2    10     5     1    107.48564           139.35
    3     2    10     1     77.86619           307.35
    3     4     5     1     89.92957           318.68
    4     5     6     1    170.33270           666.20
    4     5     7     1    121.76991          1013.88
    4     5    10     1    101.14653           969.47
    5     6     7     1     50.13290          6458.94
    5     7     6     1     65.16150          3978.99
    5     7     8     1    161.05243          1301.11
    5     7     9     1    126.63352          1549.46
    6     5     7     1     64.70559          5016.11
    6     5    10     1     72.50492           776.86
    6     7     8     1     96.58354          1210.97
    6     7     9     1    166.62646          1043.28
    7     5    10     1    134.49204           661.56
    7     8     9     1     54.40996          6585.60
    7     9     8     1     54.40063          6493.27
    8     7     9     1     71.18938          6094.81

[ dihedrals ]
;  ai    aj    ak    al  funct   phi0(deg)        k(kJ/mol)   mult
    1     2     3     4     1    -75.19827       20.920      1
    1     2    10     5     1     86.11724       14.958      1
    2     3     4     5     1    116.93918       24.474      1
    2    10     5     4     1    162.78653       18.631      1
    2    10     5     6     1    -12.10034       23.516      1
    2    10     5     7     1    -35.59215       24.631      1
    3     2    10     5     1    169.48703       17.566      1
    3     4     5     6     1   -119.42444       33.469      1
    3     4     5     7     1     51.77813       26.937      1
    3     4     5    10     1   -144.99394       25.038      1
    4     3     2    10     1   -140.43802       20.249      1
    4     5     6     7     1     -3.85704       30.509      1
    4     5     7     6     1      0.86198       14.365      1
    4     5     7     8     1     -0.36341       25.625      1
    4     5     7     9     1    178.05306       16.441      1
    5     6     7     8     1     -0.04746       10.743      1
    5     6     7     9     1     -1.81914       29.973      1
    5     7     8     9     1     -0.38902       25.728      1
    5     7     9     8     1      0.05111       13.633      1
    6     5     7     8     1    178.93677       21.540      1
    6     5     7     9     1      0.94525       14.350      1
    6     7     5    10     1   -160.09468       13.663      1
    6     7     8     9     1      0.95727       10.080      1
    6     7     9     8     1   -176.51356       30.933      1
    7     6     5    10     1     15.12498       11.482      1
    8     7     5    10     1   -160.76771       24.465      1
    9     7     5    10     1     18.13272       16.445      1
