1TPCN01362
10
    1res  C1    1    0.531   0.152  -0.057
    1res  C2    2    0.389  -0.046  -0.039
    1res  C3    3    0.352  -0.348  -0.048
    1res  C4    4    0.190  -0.107  -0.005
    1res  C5    5   -0.002  -0.030   0.098
    1res  C6    6   -0.251  -0.004   0.016
    1res  C7    7   -0.191   0.238   0.185
    1res  C8    8   -0.458   0.312   0.110
    1res  C9    9   -0.518  -0.008  -0.104
    1res  C10   10   -0.034  -0.242  -0.006
  10.00000  10.00000  10.00000
