1TPCN00532
13
    1res  C1    1    0.531  -0.072  -0.071
    1res  C2    2    0.286  -0.086  -0.017
    1res  C3    3    0.085  -0.146   0.059
    1res  C4    4    0.254  -0.376   0.136
    1res  C5    5   -0.121  -0.219   0.066
    1res  C6    6   -0.057   0.007  -0.006
    1res  C7    7   -0.222   0.089  -0.031
    1res  C8    8   -0.164   0.259  -0.047
    1res  C9    9   -0.095   0.498  -0.074
    1res  C10   10    0.049   0.161  -0.001
    1res  C11   11    0.236   0.318   0.045
    1res  C12   12   -0.408   0.002   0.018
    1res  C13   13   -0.366  -0.250  -0.100
  10.00000  10.00000  10.00000
