1TPCN01413
8
    1res  C1    1    0.267  -0.144   0.045
    1res  C2    2    0.407   0.067   0.039
    1res  C3    3    0.147   0.135   0.096
    1res  C4    4   -0.082   0.230  -0.099
    1res  C5    5   -0.202  -0.128  -0.072
    1res  C6    6   -0.188   0.040   0.220
    1res  C7    7   -0.129  -0.209   0.161
    1res  C8    8    0.075  -0.147  -0.111
  10.00000  10.00000  10.00000
