1TPCN00550
14
    1res  C1    1   -0.474  -0.120  -0.095
    1res  C2    2   -0.276   0.063  -0.024
    1res  C3    3    0.021  -0.100   0.002
    1res  C4    4    0.192  -0.034   0.147
    1res  C5    5    0.492  -0.083  -0.010
    1res  C6    6    0.565   0.037  -0.221
    1res  C7    7    0.776  -0.044   0.018
    1res  C8    8    0.679   0.115   0.172
    1res  C9    9    0.507  -0.031   0.273
    1res  C10   10    0.187  -0.033  -0.147
    1res  C11   11    0.062  -0.196  -0.281
    1res  C12   12   -0.118  -0.014  -0.257
    1res  C13   13   -0.490   0.239   0.134
    1res  C14   14   -0.716   0.006   0.105
  10.00000  10.00000  10.00000
