1TPCN03261
14
    1res  C1    1    0.091  -0.117  -0.200
    1res  C2    2    0.407  -0.014  -0.243
    1res  C3    3    0.606   0.004  -0.016
    1res  C4    4    0.462   0.262  -0.071
    1res  C5    5    0.289  -0.117   0.176
    1res  C6    6    0.078   0.019   0.232
    1res  C7    7   -0.060   0.064   0.007
    1res  C8    8   -0.319  -0.025  -0.041
    1res  C9    9   -0.541   0.013   0.099
    1res  C10   10   -0.535   0.228   0.158
    1res  C11   11   -0.672   0.122  -0.097
    1res  C12   12   -0.636  -0.108  -0.126
    1res  C13   13   -0.397  -0.125  -0.213
    1res  C14   14   -0.079  -0.210   0.187
  10.00000  10.00000  10.00000
