1TPCN00152
10
    1res  C1    1   -0.391   0.070  -0.117
    1res  C2    2   -0.104  -0.017  -0.127
    1res  C3    3   -0.215  -0.009   0.147
    1res  C4    4   -0.085  -0.205   0.082
    1res  C5    5    0.105  -0.268  -0.076
    1res  C6    6    0.092   0.055  -0.066
    1res  C7    7    0.264   0.047  -0.026
    1res  C8    8    0.407   0.245   0.028
    1res  C9    9    0.493  -0.036   0.033
    1res  C10   10   -0.074   0.254  -0.094
  10.00000  10.00000  10.00000
