[ moleculetype ]
; name        nrexcl
res           1

[ atoms ]
;    nr  type resnr resid  atom  cgnr     charge       mass
      1 C4        1 res   C1        1      0.000     72.000
      2 SC4       1 res   C2        2      0.000     54.000
      3 SN6a      1 res   C3        3      0.000     54.000
      4 SC4       1 res   C4        4      0.000     54.000
      5 SN3r      1 res   C5        5      0.000     54.000
      6 SN4a      1 res   C6        6      0.000     54.000
      7 TN3r      1 res   C7        7      0.000     36.000
      8 SN4a      1 res   C8        8      0.000     54.000
      9 SP4       1 res   C9        9      0.000     54.000
     10 TP1       1 res   C10      10      0.000     36.000
     11 SP4       1 res   C11      11      0.000     54.000
     12 TN6       1 res   C12      12      0.000     36.000

[ bonds ]
;  ai    aj   funct      b0(nm)        k
    1     2     1      0.42972    20000
    1     5     1      0.32384    20000
    2     3     1      0.35405    20000
    2     4     1      0.39620    20000
    3     4     1      0.28575    20000
    5     6     1      0.32117    20000
    6     7     1      0.27240    20000
    6    11     1      0.25003    20000
    6    12     1      0.28727    20000
    7     8     1      0.31776    20000
    8     9     1      0.22569    20000
    9    10     1      0.26023    20000
   11    12     1      0.28765    20000
