[ moleculetype ]
; name        nrexcl
res           1

[ atoms ]
;    nr  type resnr resid  atom  cgnr     charge       mass
      1 SN2a      1 res   C1        1      0.000     54.000
      2 TC5       1 res   C2        2      0.000     36.000
      3 TC4       1 res   C3        3      0.000     36.000
      4 TC5       1 res   C4        4      0.000     36.000
      5 SC4       1 res   C5        5      0.000     54.000
      6 SP2       1 res   C6        6      0.000     54.000
      7 SN6a      1 res   C7        7      0.000     54.000
      8 SC2       1 res   C8        8      0.000     54.000
      9 TN6       1 res   C9        9      0.000     36.000
     10 TN6a      1 res   C10      10      0.000     36.000

[ bonds ]
;  ai    aj   funct      b0(nm)        k
    1     2     1      0.24420    20000
    2     3     1      0.34248    20000
    2     4     1      0.21229    20000
    3     4     1      0.31306    20000
    4     5     1      0.22084    20000
    4     6     1      0.26523    20000
    5     6     1      0.32698    20000
    5     7     1      0.36758    20000
    5    10     1      0.24164    20000
    7     8     1      0.29497    20000
    7     9     1      0.34969    20000
    9    10     1      0.21549    20000
