1TPCN04293
42
    1res  C1    1    1.721  -0.168   0.140
    1res  C2    2    1.551   0.069   0.096
    1res  C3    3    1.365   0.072   0.030
    1res  C4    4    1.105   0.033   0.015
    1res  C5    5    1.250  -0.130   0.207
    1res  C6    6    0.847   0.244  -0.024
    1res  C7    7    0.608   0.084   0.039
    1res  C8    8    0.373  -0.083   0.026
    1res  C9    9    0.161  -0.286  -0.177
    1res  C10   10    0.429  -0.304  -0.206
    1res  C11   11    0.257  -0.537  -0.261
    1res  C12   12   -0.031  -0.074  -0.266
    1res  C13   13   -0.151  -0.228   0.033
    1res  C14   14   -0.113   0.042   0.014
    1res  C15   15   -0.464  -0.005  -0.090
    1res  C16   16   -0.478  -0.003   0.198
    1res  C17   17   -0.662   0.159   0.099
    1res  C18   18   -0.856   0.368   0.171
    1res  C19   19   -1.049   0.410   0.363
    1res  C20   20   -0.954   0.182   0.366
    1res  C21   21   -0.974   0.120   0.149
    1res  C22   22   -1.041   0.052  -0.054
    1res  C23   23   -1.205   0.290  -0.157
    1res  C24   24   -1.402   0.157  -0.030
    1res  C25   25   -1.202  -0.095  -0.010
    1res  C26   26   -1.503  -0.130   0.051
    1res  C27   27   -1.661  -0.159  -0.161
    1res  C28   28   -1.588  -0.346  -0.279
    1res  C29   29   -1.526  -0.459  -0.078
    1res  C30   30   -1.424  -0.324   0.057
    1res  C31   31   -0.572   0.352  -0.038
    1res  C32   32   -0.436   0.359   0.219
    1res  C33   33   -0.208   0.239  -0.118
    1res  C34   34    0.205   0.045  -0.207
    1res  C35   35    0.645  -0.179   0.150
    1res  C36   36    0.788  -0.172  -0.050
    1res  C37   37    0.755   0.002  -0.204
    1res  C38   38    1.139   0.295   0.038
    1res  C39   39    1.266   0.181  -0.137
    1res  C40   40    1.552   0.239   0.268
    1res  C41   41    1.792   0.244   0.159
    1res  C42   42    1.861   0.027   0.258
  10.00000  10.00000  10.00000
