Generated with MDTraj, t= 0.0
 43
    1UNL     C1    1  -0.388   0.183  -0.063
    1UNL     C2    2  -0.270   0.100  -0.111
    1UNL     C3    3  -0.163   0.068  -0.003
    1UNL     C4    4  -0.100   0.200   0.042
    1UNL     C5    5   0.031   0.226   0.045
    1UNL     N1    6   0.126   0.128   0.008
    1UNL     C6    7   0.083   0.004  -0.038
    1UNL     C7    8   0.187  -0.085  -0.039
    1UNL     C8    9   0.303  -0.014   0.005
    1UNL     C9   10   0.437  -0.053   0.025
    1UNL    C10   11   0.526   0.039   0.073
    1UNL    C11   12   0.486   0.170   0.101
    1UNL    C12   13   0.356   0.211   0.083
    1UNL    C13   14   0.263   0.118   0.034
    1UNL    C14   15   0.167  -0.231  -0.065
    1UNL    C15   16   0.020  -0.266  -0.092
    1UNL     N2   17  -0.076  -0.175  -0.023
    1UNL    C16   18  -0.219  -0.219  -0.017
    1UNL    C17   19  -0.299  -0.134   0.083
    1UNL    C18   20  -0.226  -0.004   0.120
    1UNL    C19   21  -0.058  -0.032  -0.067
    1UNL     H1   22  -0.356   0.281  -0.027
    1UNL     H2   23  -0.460   0.201  -0.144
    1UNL     H3   24  -0.442   0.135   0.018
    1UNL     H4   25  -0.220   0.150  -0.194
    1UNL     H5   26  -0.307   0.005  -0.153
    1UNL     H6   27  -0.168   0.276   0.077
    1UNL     H7   28   0.068   0.320   0.079
    1UNL     H8   29   0.466  -0.154   0.003
    1UNL     H9   30   0.629   0.011   0.088
    1UNL    H10   31   0.558   0.241   0.139
    1UNL    H11   32   0.324   0.311   0.105
    1UNL    H12   33   0.230  -0.261  -0.150
    1UNL    H13   34   0.204  -0.287   0.021
    1UNL    H14   35  -0.002  -0.261  -0.200
    1UNL    H15   36  -0.002  -0.368  -0.062
    1UNL    H16   37  -0.222  -0.325   0.009
    1UNL    H17   38  -0.260  -0.212  -0.118
    1UNL    H18   39  -0.318  -0.193   0.174
    1UNL    H19   40  -0.399  -0.112   0.043
    1UNL    H20   41  -0.293   0.066   0.173
    1UNL    H21   42  -0.146  -0.026   0.191
    1UNL    H22   43  -0.071  -0.031  -0.176
   0.00000   0.00000   0.00000   0.00000   0.00000   0.00000   0.00000   0.00000   0.00000
Generated with MDTraj, t= 1.0
 43
    1UNL     C1    1  -0.351   0.219  -0.087
    1UNL     C2    2  -0.253   0.106  -0.120
    1UNL     C3    3  -0.165   0.065   0.004
    1UNL     C4    4  -0.099   0.193   0.057
    1UNL     C5    5   0.031   0.215   0.070
    1UNL     N1    6   0.119   0.123   0.024
    1UNL     C6    7   0.075   0.001  -0.031
    1UNL     C7    8   0.186  -0.074  -0.062
    1UNL     C8    9   0.301  -0.004  -0.026
    1UNL     C9   10   0.433  -0.051   0.007
    1UNL    C10   11   0.518   0.035   0.068
    1UNL    C11   12   0.474   0.168   0.101
    1UNL    C12   13   0.345   0.211   0.084
    1UNL    C13   14   0.260   0.123   0.021
    1UNL    C14   15   0.177  -0.221  -0.093
    1UNL    C15   16   0.022  -0.267  -0.075
    1UNL     N2   17  -0.066  -0.177   0.012
    1UNL    C16   18  -0.201  -0.241   0.022
    1UNL    C17   19  -0.314  -0.139   0.056
    1UNL    C18   20  -0.251  -0.006   0.110
    1UNL    C19   21  -0.065  -0.043  -0.047
    1UNL     H1   22  -0.318   0.298  -0.019
    1UNL     H2   23  -0.388   0.270  -0.177
    1UNL     H3   24  -0.429   0.170  -0.031
    1UNL     H4   25  -0.179   0.142  -0.200
    1UNL     H5   26  -0.295   0.021  -0.164
    1UNL     H6   27  -0.178   0.262   0.091
    1UNL     H7   28   0.070   0.314   0.087
    1UNL     H8   29   0.458  -0.155   0.009
    1UNL     H9   30   0.621   0.004   0.072
    1UNL    H10   31   0.551   0.231   0.142
    1UNL    H11   32   0.315   0.312   0.115
    1UNL    H12   33   0.215  -0.245  -0.193
    1UNL    H13   34   0.231  -0.270  -0.013
    1UNL    H14   35  -0.012  -0.284  -0.178
    1UNL    H15   36   0.020  -0.364  -0.023
    1UNL    H16   37  -0.192  -0.307   0.110
    1UNL    H17   38  -0.220  -0.307  -0.065
    1UNL    H18   39  -0.376  -0.180   0.136
    1UNL    H19   40  -0.367  -0.114  -0.036
    1UNL    H20   41  -0.331   0.057   0.162
    1UNL    H21   42  -0.187  -0.038   0.189
    1UNL    H22   43  -0.082  -0.055  -0.155
   0.00000   0.00000   0.00000   0.00000   0.00000   0.00000   0.00000   0.00000   0.00000
Generated with MDTraj, t= 2.0
 43
    1UNL     C1    1  -0.349   0.227  -0.088
    1UNL     C2    2  -0.243   0.127  -0.119
    1UNL     C3    3  -0.165   0.065   0.002
    1UNL     C4    4  -0.101   0.185   0.076
    1UNL     C5    5   0.026   0.208   0.086
    1UNL     N1    6   0.118   0.118   0.023
    1UNL     C6    7   0.078   0.004  -0.047
    1UNL     C7    8   0.192  -0.081  -0.068
    1UNL     C8    9   0.306  -0.004  -0.028
    1UNL     C9   10   0.440  -0.041  -0.013
    1UNL    C10   11   0.528   0.054   0.034
    1UNL    C11   12   0.479   0.174   0.090
    1UNL    C12   13   0.342   0.207   0.097
    1UNL    C13   14   0.255   0.114   0.036
    1UNL    C14   15   0.177  -0.232  -0.061
    1UNL    C15   16   0.027  -0.277  -0.045
    1UNL     N2   17  -0.070  -0.182   0.015
    1UNL    C16   18  -0.209  -0.242   0.020
    1UNL    C17   19  -0.320  -0.138   0.031
    1UNL    C18   20  -0.271  -0.007   0.092
    1UNL    C19   21  -0.064  -0.045  -0.046
    1UNL     H1   22  -0.315   0.316  -0.033
    1UNL     H2   23  -0.400   0.257  -0.183
    1UNL     H3   24  -0.405   0.176  -0.016
    1UNL     H4   25  -0.155   0.181  -0.176
    1UNL     H5   26  -0.280   0.056  -0.181
    1UNL     H6   27  -0.162   0.248   0.131
    1UNL     H7   28   0.061   0.292   0.147
    1UNL     H8   29   0.468  -0.148  -0.035
    1UNL     H9   30   0.638   0.039   0.057
    1UNL    H10   31   0.544   0.256   0.121
    1UNL    H11   32   0.307   0.288   0.155
    1UNL    H12   33   0.207  -0.272  -0.158
    1UNL    H13   34   0.228  -0.274   0.024
    1UNL    H14   35  -0.019  -0.313  -0.139
    1UNL    H15   36   0.040  -0.372   0.014
    1UNL    H16   37  -0.206  -0.319   0.101
    1UNL    H17   38  -0.229  -0.304  -0.071
    1UNL    H18   39  -0.388  -0.180   0.106
    1UNL    H19   40  -0.350  -0.109  -0.072
    1UNL    H20   41  -0.359   0.061   0.129
    1UNL    H21   42  -0.221  -0.035   0.182
    1UNL    H22   43  -0.093  -0.065  -0.151
   0.00000   0.00000   0.00000   0.00000   0.00000   0.00000   0.00000   0.00000   0.00000
Generated with MDTraj, t= 3.0
 43
    1UNL     C1    1  -0.339   0.223  -0.098
    1UNL     C2    2  -0.225   0.130  -0.116
    1UNL     C3    3  -0.169   0.060   0.019
    1UNL     C4    4  -0.103   0.170   0.096
    1UNL     C5    5   0.022   0.211   0.083
    1UNL     N1    6   0.123   0.123   0.023
    1UNL     C6    7   0.079   0.001  -0.014
    1UNL     C7    8   0.184  -0.083  -0.033
    1UNL     C8    9   0.301  -0.008   0.007
    1UNL     C9   10   0.443  -0.037   0.006
    1UNL    C10   11   0.538   0.062   0.026
    1UNL    C11   12   0.496   0.193   0.053
    1UNL    C12   13   0.360   0.216   0.067
    1UNL    C13   14   0.265   0.122   0.041
    1UNL    C14   15   0.167  -0.233  -0.061
    1UNL    C15   16   0.023  -0.286  -0.061
    1UNL     N2   17  -0.085  -0.193  -0.001
    1UNL    C16   18  -0.226  -0.242  -0.017
    1UNL    C17   19  -0.334  -0.145   0.036
    1UNL    C18   20  -0.281  -0.010   0.099
    1UNL    C19   21  -0.063  -0.044  -0.039
    1UNL     H1   22  -0.323   0.308  -0.031
    1UNL     H2   23  -0.372   0.264  -0.198
    1UNL     H3   24  -0.413   0.172  -0.045
    1UNL     H4   25  -0.137   0.193  -0.164
    1UNL     H5   26  -0.241   0.055  -0.186
    1UNL     H6   27  -0.175   0.240   0.148
    1UNL     H7   28   0.064   0.290   0.141
    1UNL     H8   29   0.475  -0.133  -0.015
    1UNL     H9   30   0.636   0.036   0.016
    1UNL    H10   31   0.566   0.269   0.079
    1UNL    H11   32   0.320   0.318   0.087
    1UNL    H12   33   0.215  -0.256  -0.156
    1UNL    H13   34   0.219  -0.276   0.021
    1UNL    H14   35   0.008  -0.301  -0.173
    1UNL    H15   36  -0.000  -0.391  -0.024
    1UNL    H16   37  -0.231  -0.336   0.043
    1UNL    H17   38  -0.225  -0.286  -0.121
    1UNL    H18   39  -0.386  -0.199   0.113
    1UNL    H19   40  -0.386  -0.115  -0.056
    1UNL    H20   41  -0.368   0.068   0.116
    1UNL    H21   42  -0.241  -0.019   0.198
    1UNL    H22   43  -0.068  -0.049  -0.149
   0.00000   0.00000   0.00000   0.00000   0.00000   0.00000   0.00000   0.00000   0.00000
Generated with MDTraj, t= 4.0
 43
    1UNL     C1    1  -0.363   0.223  -0.079
    1UNL     C2    2  -0.247   0.118  -0.110
    1UNL     C3    3  -0.161   0.060   0.009
    1UNL     C4    4  -0.100   0.182   0.080
    1UNL     C5    5   0.029   0.214   0.077
    1UNL     N1    6   0.124   0.118   0.039
    1UNL     C6    7   0.080  -0.005  -0.002
    1UNL     C7    8   0.187  -0.090  -0.007
    1UNL     C8    9   0.305  -0.011   0.022
    1UNL     C9   10   0.439  -0.039   0.011
    1UNL    C10   11   0.534   0.061   0.026
    1UNL    C11   12   0.497   0.196   0.041
    1UNL    C12   13   0.364   0.224   0.054
    1UNL    C13   14   0.267   0.121   0.042
    1UNL    C14   15   0.163  -0.248  -0.014
    1UNL    C15   16   0.029  -0.282  -0.073
    1UNL     N2   17  -0.089  -0.189  -0.038
    1UNL    C16   18  -0.237  -0.218  -0.053
    1UNL    C17   19  -0.327  -0.146   0.045
    1UNL    C18   20  -0.255  -0.022   0.104
    1UNL    C19   21  -0.056  -0.038  -0.049
    1UNL     H1   22  -0.337   0.327  -0.058
    1UNL     H2   23  -0.438   0.229  -0.163
    1UNL     H3   24  -0.406   0.198   0.012
    1UNL     H4   25  -0.176   0.155  -0.194
    1UNL     H5   26  -0.301   0.035  -0.158
    1UNL     H6   27  -0.172   0.251   0.106
    1UNL     H7   28   0.075   0.313   0.101
    1UNL     H8   29   0.460  -0.142  -0.030
    1UNL     H9   30   0.646   0.037   0.020
    1UNL    H10   31   0.571   0.277   0.057
    1UNL    H11   32   0.336   0.324   0.067
    1UNL    H12   33   0.239  -0.279  -0.087
    1UNL    H13   34   0.186  -0.292   0.079
    1UNL    H14   35   0.017  -0.278  -0.186
    1UNL    H15   36   0.005  -0.393  -0.058
    1UNL    H16   37  -0.227  -0.330  -0.045
    1UNL    H17   38  -0.263  -0.199  -0.162
    1UNL    H18   39  -0.342  -0.212   0.128
    1UNL    H19   40  -0.416  -0.123  -0.015
    1UNL    H20   41  -0.331   0.055   0.150
    1UNL    H21   42  -0.196  -0.049   0.188
    1UNL    H22   43  -0.052  -0.027  -0.159
   0.00000   0.00000   0.00000   0.00000   0.00000   0.00000   0.00000   0.00000   0.00000
Generated with MDTraj, t= 5.0
 43
    1UNL     C1    1  -0.391   0.190  -0.060
    1UNL     C2    2  -0.264   0.111  -0.104
    1UNL     C3    3  -0.165   0.068   0.001
    1UNL     C4    4  -0.098   0.199   0.050
    1UNL     C5    5   0.031   0.222   0.051
    1UNL     N1    6   0.126   0.127   0.022
    1UNL     C6    7   0.079   0.004  -0.023
    1UNL     C7    8   0.185  -0.085  -0.020
    1UNL     C8    9   0.306  -0.008   0.013
    1UNL     C9   10   0.434  -0.056   0.022
    1UNL    C10   11   0.525   0.037   0.058
    1UNL    C11   12   0.494   0.174   0.077
    1UNL    C12   13   0.362   0.219   0.062
    1UNL    C13   14   0.264   0.123   0.035
    1UNL    C14   15   0.168  -0.233  -0.038
    1UNL    C15   16   0.034  -0.273  -0.087
    1UNL     N2   17  -0.080  -0.185  -0.038
    1UNL    C16   18  -0.227  -0.226  -0.027
    1UNL    C17   19  -0.308  -0.132   0.065
    1UNL    C18   20  -0.231  -0.013   0.116
    1UNL    C19   21  -0.062  -0.031  -0.065
    1UNL     H1   22  -0.372   0.274   0.002
    1UNL     H2   23  -0.441   0.228  -0.153
    1UNL     H3   24  -0.455   0.134   0.003
    1UNL     H4   25  -0.210   0.184  -0.173
    1UNL     H5   26  -0.299   0.025  -0.181
    1UNL     H6   27  -0.162   0.272   0.106
    1UNL     H7   28   0.058   0.314   0.088
    1UNL     H8   29   0.466  -0.149  -0.013
    1UNL     H9   30   0.624   0.009   0.074
    1UNL    H10   31   0.572   0.244   0.092
    1UNL    H11   32   0.324   0.321   0.081
    1UNL    H12   33   0.248  -0.270  -0.103
    1UNL    H13   34   0.190  -0.269   0.057
    1UNL    H14   35   0.027  -0.290  -0.199
    1UNL    H15   36  -0.001  -0.375  -0.049
    1UNL    H16   37  -0.218  -0.333   0.009
    1UNL    H17   38  -0.256  -0.242  -0.137
    1UNL    H18   39  -0.338  -0.202   0.140
    1UNL    H19   40  -0.391  -0.088   0.008
    1UNL    H20   41  -0.290   0.067   0.176
    1UNL    H21   42  -0.154  -0.046   0.182
    1UNL    H22   43  -0.065  -0.008  -0.172
   0.00000   0.00000   0.00000   0.00000   0.00000   0.00000   0.00000   0.00000   0.00000
Generated with MDTraj, t= 6.0
 43
    1UNL     C1    1  -0.396   0.162  -0.059
    1UNL     C2    2  -0.271   0.093  -0.106
    1UNL     C3    3  -0.159   0.077   0.000
    1UNL     C4    4  -0.102   0.211   0.026
    1UNL     C5    5   0.031   0.228   0.031
    1UNL     N1    6   0.121   0.129  -0.010
    1UNL     C6    7   0.086   0.008  -0.061
    1UNL     C7    8   0.190  -0.080  -0.068
    1UNL     C8    9   0.302  -0.017  -0.008
    1UNL     C9   10   0.431  -0.062   0.033
    1UNL    C10   11   0.515   0.026   0.102
    1UNL    C11   12   0.469   0.157   0.123
    1UNL    C12   13   0.349   0.205   0.093
    1UNL    C13   14   0.259   0.116   0.025
    1UNL    C14   15   0.172  -0.222  -0.104
    1UNL    C15   16   0.022  -0.258  -0.097
    1UNL     N2   17  -0.063  -0.177  -0.003
    1UNL    C16   18  -0.206  -0.214   0.009
    1UNL    C17   19  -0.289  -0.118   0.101
    1UNL    C18   20  -0.214   0.009   0.129
    1UNL    C19   21  -0.060  -0.034  -0.063
    1UNL     H1   22  -0.387   0.259  -0.016
    1UNL     H2   23  -0.457   0.178  -0.148
    1UNL     H3   24  -0.454   0.109   0.017
    1UNL     H4   25  -0.233   0.152  -0.197
    1UNL     H5   26  -0.297  -0.012  -0.159
    1UNL     H6   27  -0.175   0.280   0.057
    1UNL     H7   28   0.077   0.332   0.041
    1UNL     H8   29   0.446  -0.170   0.024
    1UNL     H9   30   0.620  -0.006   0.107
    1UNL    H10   31   0.536   0.224   0.179
    1UNL    H11   32   0.324   0.306   0.117
    1UNL    H12   33   0.223  -0.240  -0.201
    1UNL    H13   34   0.215  -0.281  -0.030
    1UNL    H14   35  -0.029  -0.268  -0.197
    1UNL    H15   36   0.017  -0.363  -0.051
    1UNL    H16   37  -0.204  -0.321   0.044
    1UNL    H17   38  -0.242  -0.214  -0.100
    1UNL    H18   39  -0.307  -0.161   0.199
    1UNL    H19   40  -0.389  -0.123   0.053
    1UNL    H20   41  -0.273   0.076   0.201
    1UNL    H21   42  -0.123  -0.014   0.186
    1UNL    H22   43  -0.085  -0.047  -0.168
   0.00000   0.00000   0.00000   0.00000   0.00000   0.00000   0.00000   0.00000   0.00000
Generated with MDTraj, t= 7.0
 43
    1UNL     C1    1  -0.401   0.185  -0.045
    1UNL     C2    2  -0.301   0.081  -0.096
    1UNL     C3    3  -0.164   0.073  -0.023
    1UNL     C4    4  -0.109   0.207  -0.002
    1UNL     C5    5   0.022   0.232   0.009
    1UNL     N1    6   0.122   0.128  -0.011
    1UNL     C6    7   0.083   0.009  -0.070
    1UNL     C7    8   0.187  -0.078  -0.079
    1UNL     C8    9   0.302  -0.013  -0.017
    1UNL     C9   10   0.430  -0.062   0.026
    1UNL    C10   11   0.505   0.021   0.103
    1UNL    C11   12   0.455   0.140   0.157
    1UNL    C12   13   0.331   0.184   0.121
    1UNL    C13   14   0.250   0.112   0.036
    1UNL    C14   15   0.180  -0.221  -0.091
    1UNL    C15   16   0.027  -0.271  -0.093
    1UNL     N2   17  -0.066  -0.167  -0.037
    1UNL    C16   18  -0.191  -0.203   0.014
    1UNL    C17   19  -0.239  -0.120   0.139
    1UNL    C18   20  -0.181   0.021   0.126
    1UNL    C19   21  -0.063  -0.024  -0.092
    1UNL     H1   22  -0.375   0.285  -0.069
    1UNL     H2   23  -0.493   0.166  -0.095
    1UNL     H3   24  -0.414   0.183   0.066
    1UNL     H4   25  -0.286   0.088  -0.211
    1UNL     H5   26  -0.353  -0.016  -0.087
    1UNL     H6   27  -0.178   0.294  -0.006
    1UNL     H7   28   0.048   0.330   0.025
    1UNL     H8   29   0.462  -0.166   0.012
    1UNL     H9   30   0.606  -0.011   0.142
    1UNL    H10   31   0.520   0.196   0.220
    1UNL    H11   32   0.283   0.273   0.163
    1UNL    H12   33   0.226  -0.258  -0.184
    1UNL    H13   34   0.236  -0.259  -0.013
    1UNL    H14   35  -0.013  -0.305  -0.192
    1UNL    H15   36   0.022  -0.362  -0.025
    1UNL    H16   37  -0.184  -0.311   0.044
    1UNL    H17   38  -0.256  -0.188  -0.077
    1UNL    H18   39  -0.198  -0.186   0.217
    1UNL    H19   40  -0.350  -0.120   0.154
    1UNL    H20   41  -0.250   0.094   0.178
    1UNL    H21   42  -0.085   0.014   0.184
    1UNL    H22   43  -0.081  -0.031  -0.200
   0.00000   0.00000   0.00000   0.00000   0.00000   0.00000   0.00000   0.00000   0.00000
Generated with MDTraj, t= 8.0
 43
    1UNL     C1    1  -0.399   0.162  -0.020
    1UNL     C2    2  -0.292   0.077  -0.091
    1UNL     C3    3  -0.159   0.072  -0.019
    1UNL     C4    4  -0.103   0.216  -0.010
    1UNL     C5    5   0.030   0.231  -0.019
    1UNL     N1    6   0.125   0.127  -0.013
    1UNL     C6    7   0.082   0.002  -0.054
    1UNL     C7    8   0.185  -0.091  -0.045
    1UNL     C8    9   0.297  -0.022   0.010
    1UNL     C9   10   0.420  -0.062   0.057
    1UNL    C10   11   0.507   0.028   0.118
    1UNL    C11   12   0.461   0.158   0.143
    1UNL    C12   13   0.339   0.205   0.106
    1UNL    C13   14   0.257   0.111   0.032
    1UNL    C14   15   0.163  -0.224  -0.106
    1UNL    C15   16   0.013  -0.261  -0.128
    1UNL     N2   17  -0.083  -0.172  -0.062
    1UNL    C16   18  -0.193  -0.211   0.021
    1UNL    C17   19  -0.244  -0.114   0.138
    1UNL    C18   20  -0.169   0.019   0.128
    1UNL    C19   21  -0.059  -0.020  -0.098
    1UNL     H1   22  -0.367   0.264  -0.014
    1UNL     H2   23  -0.481   0.161  -0.084
    1UNL     H3   24  -0.422   0.132   0.084
    1UNL     H4   25  -0.281   0.124  -0.198
    1UNL     H5   26  -0.317  -0.018  -0.117
    1UNL     H6   27  -0.159   0.308  -0.002
    1UNL     H7   28   0.076   0.333   0.003
    1UNL     H8   29   0.448  -0.161   0.042
    1UNL     H9   30   0.590  -0.003   0.166
    1UNL    H10   31   0.525   0.224   0.206
    1UNL    H11   32   0.319   0.305   0.140
    1UNL    H12   33   0.215  -0.225  -0.203
    1UNL    H13   34   0.205  -0.306  -0.055
    1UNL    H14   35  -0.015  -0.249  -0.235
    1UNL    H15   36  -0.009  -0.370  -0.101
    1UNL    H16   37  -0.156  -0.308   0.063
    1UNL    H17   38  -0.280  -0.229  -0.047
    1UNL    H18   39  -0.231  -0.159   0.240
    1UNL    H19   40  -0.356  -0.107   0.128
    1UNL    H20   41  -0.233   0.081   0.194
    1UNL    H21   42  -0.065  -0.004   0.171
    1UNL    H22   43  -0.058   0.007  -0.206
   0.00000   0.00000   0.00000   0.00000   0.00000   0.00000   0.00000   0.00000   0.00000
Generated with MDTraj, t= 9.0
 43
    1UNL     C1    1  -0.406   0.123  -0.009
    1UNL     C2    2  -0.294   0.088  -0.105
    1UNL     C3    3  -0.161   0.078  -0.019
    1UNL     C4    4  -0.100   0.215   0.008
    1UNL     C5    5   0.032   0.245   0.009
    1UNL     N1    6   0.125   0.142  -0.020
    1UNL     C6    7   0.080   0.015  -0.060
    1UNL     C7    8   0.171  -0.082  -0.023
    1UNL     C8    9   0.285  -0.019   0.025
    1UNL     C9   10   0.414  -0.078   0.063
    1UNL    C10   11   0.501   0.015   0.112
    1UNL    C11   12   0.482   0.154   0.117
    1UNL    C12   13   0.357   0.207   0.077
    1UNL    C13   14   0.262   0.121   0.022
    1UNL    C14   15   0.145  -0.228  -0.030
    1UNL    C15   16   0.027  -0.250  -0.122
    1UNL     N2   17  -0.089  -0.168  -0.088
    1UNL    C16   18  -0.209  -0.209  -0.010
    1UNL    C17   19  -0.224  -0.131   0.122
    1UNL    C18   20  -0.168   0.013   0.119
    1UNL    C19   21  -0.061  -0.009  -0.102
    1UNL     H1   22  -0.385   0.215   0.045
    1UNL     H2   23  -0.491   0.141  -0.066
    1UNL     H3   24  -0.427   0.050   0.069
    1UNL     H4   25  -0.271   0.156  -0.196
    1UNL     H5   26  -0.314   0.003  -0.157
    1UNL     H6   27  -0.167   0.298   0.026
    1UNL     H7   28   0.076   0.337   0.028
    1UNL     H8   29   0.458  -0.181   0.046
    1UNL     H9   30   0.605  -0.032   0.132
    1UNL    H10   31   0.560   0.200   0.173
    1UNL    H11   32   0.343   0.313   0.073
    1UNL    H12   33   0.231  -0.284  -0.068
    1UNL    H13   34   0.133  -0.267   0.068
    1UNL    H14   35   0.048  -0.224  -0.228
    1UNL    H15   36  -0.003  -0.359  -0.123
    1UNL    H16   37  -0.204  -0.319   0.007
    1UNL    H17   38  -0.286  -0.188  -0.088
    1UNL    H18   39  -0.180  -0.186   0.210
    1UNL    H19   40  -0.331  -0.126   0.154
    1UNL    H20   41  -0.235   0.067   0.188
    1UNL    H21   42  -0.062  -0.010   0.162
    1UNL    H22   43  -0.071   0.012  -0.209
   0.00000   0.00000   0.00000   0.00000   0.00000   0.00000   0.00000   0.00000   0.00000
Generated with MDTraj, t= 10.0
 43
    1UNL     C1    1  -0.405   0.139   0.011
    1UNL     C2    2  -0.294   0.104  -0.091
    1UNL     C3    3  -0.155   0.076  -0.027
    1UNL     C4    4  -0.093   0.214  -0.005
    1UNL     C5    5   0.037   0.239   0.009
    1UNL     N1    6   0.124   0.131  -0.012
    1UNL     C6    7   0.080   0.005  -0.043
    1UNL     C7    8   0.167  -0.097   0.000
    1UNL     C8    9   0.285  -0.029   0.041
    1UNL     C9   10   0.419  -0.063   0.073
    1UNL    C10   11   0.511   0.031   0.105
    1UNL    C11   12   0.478   0.167   0.102
    1UNL    C12   13   0.354   0.210   0.057
    1UNL    C13   14   0.255   0.113   0.033
    1UNL    C14   15   0.140  -0.240  -0.010
    1UNL    C15   16   0.027  -0.251  -0.122
    1UNL     N2   17  -0.095  -0.165  -0.109
    1UNL    C16   18  -0.217  -0.197  -0.037
    1UNL    C17   19  -0.212  -0.146   0.107
    1UNL    C18   20  -0.172   0.009   0.114
    1UNL    C19   21  -0.058  -0.017  -0.107
    1UNL     H1   22  -0.377   0.225   0.072
    1UNL     H2   23  -0.490   0.164  -0.045
    1UNL     H3   24  -0.427   0.058   0.078
    1UNL     H4   25  -0.288   0.185  -0.167
    1UNL     H5   26  -0.314   0.018  -0.154
    1UNL     H6   27  -0.144   0.302   0.034
    1UNL     H7   28   0.084   0.328   0.054
    1UNL     H8   29   0.440  -0.162   0.049
    1UNL     H9   30   0.610   0.013   0.134
    1UNL    H10   31   0.554   0.246   0.115
    1UNL    H11   32   0.338   0.318   0.053
    1UNL    H12   33   0.230  -0.295  -0.034
    1UNL    H13   34   0.105  -0.288   0.080
    1UNL    H14   35   0.066  -0.233  -0.223
    1UNL    H15   36  -0.010  -0.358  -0.123
    1UNL    H16   37  -0.214  -0.306  -0.052
    1UNL    H17   38  -0.305  -0.159  -0.095
    1UNL    H18   39  -0.160  -0.220   0.176
    1UNL    H19   40  -0.316  -0.158   0.150
    1UNL    H20   41  -0.254   0.051   0.172
    1UNL    H21   42  -0.074   0.016   0.178
    1UNL    H22   43  -0.063   0.020  -0.210
   0.00000   0.00000   0.00000   0.00000   0.00000   0.00000   0.00000   0.00000   0.00000
Generated with MDTraj, t= 11.0
 43
    1UNL     C1    1  -0.413   0.160  -0.032
    1UNL     C2    2  -0.302   0.069  -0.088
    1UNL     C3    3  -0.160   0.073  -0.008
    1UNL     C4    4  -0.094   0.208   0.003
    1UNL     C5    5   0.037   0.236   0.006
    1UNL     N1    6   0.131   0.138  -0.021
    1UNL     C6    7   0.083   0.012  -0.052
    1UNL     C7    8   0.172  -0.087  -0.028
    1UNL     C8    9   0.282  -0.016   0.025
    1UNL     C9   10   0.415  -0.068   0.063
    1UNL    C10   11   0.506   0.018   0.116
    1UNL    C11   12   0.481   0.155   0.125
    1UNL    C12   13   0.364   0.207   0.074
    1UNL    C13   14   0.260   0.126   0.031
    1UNL    C14   15   0.152  -0.226  -0.060
    1UNL    C15   16   0.020  -0.247  -0.140
    1UNL     N2   17  -0.089  -0.163  -0.081
    1UNL    C16   18  -0.201  -0.218   0.004
    1UNL    C17   19  -0.237  -0.131   0.125
    1UNL    C18   20  -0.169   0.004   0.130
    1UNL    C19   21  -0.061  -0.013  -0.094
    1UNL     H1   22  -0.384   0.264  -0.044
    1UNL     H2   23  -0.505   0.145  -0.085
    1UNL     H3   24  -0.424   0.141   0.071
    1UNL     H4   25  -0.278   0.103  -0.186
    1UNL     H5   26  -0.336  -0.039  -0.106
    1UNL     H6   27  -0.161   0.290   0.007
    1UNL     H7   28   0.072   0.338  -0.012
    1UNL     H8   29   0.430  -0.177   0.065
    1UNL     H9   30   0.601  -0.026   0.145
    1UNL    H10   31   0.550   0.224   0.163
    1UNL    H11   32   0.343   0.311   0.080
    1UNL    H12   33   0.233  -0.254  -0.125
    1UNL    H13   34   0.165  -0.282   0.032
    1UNL    H14   35   0.037  -0.205  -0.240
    1UNL    H15   36  -0.005  -0.356  -0.149
    1UNL    H16   37  -0.174  -0.320   0.031
    1UNL    H17   38  -0.278  -0.223  -0.077
    1UNL    H18   39  -0.223  -0.197   0.218
    1UNL    H19   40  -0.350  -0.140   0.130
    1UNL    H20   41  -0.232   0.068   0.191
    1UNL    H21   42  -0.068  -0.001   0.190
    1UNL    H22   43  -0.070   0.009  -0.202
   0.00000   0.00000   0.00000   0.00000   0.00000   0.00000   0.00000   0.00000   0.00000
Generated with MDTraj, t= 12.0
 43
    1UNL     C1    1  -0.399   0.185  -0.032
    1UNL     C2    2  -0.296   0.090  -0.097
    1UNL     C3    3  -0.160   0.079  -0.025
    1UNL     C4    4  -0.094   0.216  -0.012
    1UNL     C5    5   0.033   0.235   0.013
    1UNL     N1    6   0.116   0.127  -0.008
    1UNL     C6    7   0.082   0.006  -0.071
    1UNL     C7    8   0.188  -0.087  -0.063
    1UNL     C8    9   0.294  -0.016   0.000
    1UNL     C9   10   0.426  -0.052   0.029
    1UNL    C10   11   0.510   0.032   0.103
    1UNL    C11   12   0.456   0.151   0.154
    1UNL    C12   13   0.329   0.193   0.122
    1UNL    C13   14   0.248   0.110   0.043
    1UNL    C14   15   0.166  -0.229  -0.103
    1UNL    C15   16   0.021  -0.276  -0.111
    1UNL     N2   17  -0.085  -0.178  -0.064
    1UNL    C16   18  -0.182  -0.226   0.043
    1UNL    C17   19  -0.245  -0.112   0.133
    1UNL    C18   20  -0.172   0.022   0.119
    1UNL    C19   21  -0.063  -0.030  -0.100
    1UNL     H1   22  -0.364   0.282  -0.003
    1UNL     H2   23  -0.489   0.204  -0.092
    1UNL     H3   24  -0.428   0.142   0.059
    1UNL     H4   25  -0.275   0.116  -0.195
    1UNL     H5   26  -0.343  -0.018  -0.101
    1UNL     H6   27  -0.169   0.293   0.002
    1UNL     H7   28   0.062   0.325   0.057
    1UNL     H8   29   0.452  -0.154   0.009
    1UNL     H9   30   0.619   0.009   0.127
    1UNL    H10   31   0.517   0.203   0.232
    1UNL    H11   32   0.294   0.286   0.167
    1UNL    H12   33   0.221  -0.243  -0.192
    1UNL    H13   34   0.220  -0.287  -0.026
    1UNL    H14   35  -0.003  -0.300  -0.216
    1UNL    H15   36   0.006  -0.371  -0.057
    1UNL    H16   37  -0.117  -0.296   0.097
    1UNL    H17   38  -0.260  -0.279  -0.015
    1UNL    H18   39  -0.263  -0.165   0.233
    1UNL    H19   40  -0.351  -0.105   0.098
    1UNL    H20   41  -0.217   0.090   0.189
    1UNL    H21   42  -0.063   0.019   0.163
    1UNL    H22   43  -0.079  -0.033  -0.210
   0.00000   0.00000   0.00000   0.00000   0.00000   0.00000   0.00000   0.00000   0.00000
Generated with MDTraj, t= 13.0
 43
    1UNL     C1    1  -0.422   0.144  -0.050
    1UNL     C2    2  -0.294   0.088  -0.121
    1UNL     C3    3  -0.174   0.078  -0.029
    1UNL     C4    4  -0.101   0.218  -0.008
    1UNL     C5    5   0.030   0.234   0.014
    1UNL     N1    6   0.122   0.128   0.013
    1UNL     C6    7   0.073   0.008  -0.035
    1UNL     C7    8   0.175  -0.084  -0.048
    1UNL     C8    9   0.299  -0.021  -0.001
    1UNL     C9   10   0.425  -0.070   0.034
    1UNL    C10   11   0.513   0.012   0.096
    1UNL    C11   12   0.476   0.141   0.145
    1UNL    C12   13   0.345   0.188   0.122
    1UNL    C13   14   0.255   0.106   0.046
    1UNL    C14   15   0.151  -0.223  -0.109
    1UNL    C15   16   0.003  -0.258  -0.143
    1UNL     N2   17  -0.086  -0.168  -0.064
    1UNL    C16   18  -0.113  -0.192   0.081
    1UNL    C17   19  -0.236  -0.112   0.119
    1UNL    C18   20  -0.205   0.032   0.116
    1UNL    C19   21  -0.066  -0.021  -0.087
    1UNL     H1   22  -0.407   0.242  -0.011
    1UNL     H2   23  -0.519   0.148  -0.103
    1UNL     H3   24  -0.436   0.089   0.037
    1UNL     H4   25  -0.278   0.149  -0.202
    1UNL     H5   26  -0.309  -0.024  -0.156
    1UNL     H6   27  -0.164   0.304  -0.015
    1UNL     H7   28   0.064   0.337   0.048
    1UNL     H8   29   0.462  -0.162  -0.005
    1UNL     H9   30   0.603  -0.022   0.122
    1UNL    H10   31   0.542   0.209   0.191
    1UNL    H11   32   0.308   0.284   0.152
    1UNL    H12   33   0.213  -0.221  -0.194
    1UNL    H13   34   0.190  -0.299  -0.038
    1UNL    H14   35  -0.026  -0.244  -0.249
    1UNL    H15   36  -0.014  -0.361  -0.112
    1UNL    H16   37  -0.026  -0.151   0.127
    1UNL    H17   38  -0.116  -0.302   0.092
    1UNL    H18   39  -0.270  -0.158   0.219
    1UNL    H19   40  -0.318  -0.143   0.049
    1UNL    H20   41  -0.289   0.086   0.158
    1UNL    H21   42  -0.122   0.060   0.192
    1UNL    H22   43  -0.053  -0.008  -0.197
   0.00000   0.00000   0.00000   0.00000   0.00000   0.00000   0.00000   0.00000   0.00000
Generated with MDTraj, t= 14.0
 43
    1UNL     C1    1  -0.417   0.139  -0.073
    1UNL     C2    2  -0.283   0.086  -0.122
    1UNL     C3    3  -0.166   0.082  -0.017
    1UNL     C4    4  -0.113   0.224   0.008
    1UNL     C5    5   0.020   0.240   0.021
    1UNL     N1    6   0.115   0.131   0.014
    1UNL     C6    7   0.077   0.011  -0.027
    1UNL     C7    8   0.168  -0.089  -0.023
    1UNL     C8    9   0.282  -0.026   0.029
    1UNL     C9   10   0.407  -0.083   0.060
    1UNL    C10   11   0.510   0.004   0.091
    1UNL    C11   12   0.482   0.143   0.106
    1UNL    C12   13   0.357   0.197   0.097
    1UNL    C13   14   0.253   0.114   0.046
    1UNL    C14   15   0.150  -0.226  -0.091
    1UNL    C15   16   0.004  -0.233  -0.153
    1UNL     N2   17  -0.100  -0.156  -0.080
    1UNL    C16   18  -0.108  -0.208   0.062
    1UNL    C17   19  -0.215  -0.131   0.138
    1UNL    C18   20  -0.202   0.023   0.112
    1UNL    C19   21  -0.059  -0.005  -0.090
    1UNL     H1   22  -0.407   0.238  -0.038
    1UNL     H2   23  -0.496   0.142  -0.151
    1UNL     H3   24  -0.452   0.087   0.011
    1UNL     H4   25  -0.246   0.137  -0.203
    1UNL     H5   26  -0.306  -0.023  -0.163
    1UNL     H6   27  -0.181   0.309   0.006
    1UNL     H7   28   0.063   0.330   0.041
    1UNL     H8   29   0.420  -0.190   0.033
    1UNL     H9   30   0.616  -0.042   0.084
    1UNL    H10   31   0.567   0.201   0.145
    1UNL    H11   32   0.333   0.301   0.114
    1UNL    H12   33   0.218  -0.236  -0.170
    1UNL    H13   34   0.173  -0.301  -0.012
    1UNL    H14   35   0.006  -0.201  -0.258
    1UNL    H15   36  -0.028  -0.335  -0.154
    1UNL    H16   37  -0.009  -0.206   0.103
    1UNL    H17   38  -0.132  -0.313   0.045
    1UNL    H18   39  -0.209  -0.154   0.250
    1UNL    H19   40  -0.317  -0.168   0.105
    1UNL    H20   41  -0.298   0.059   0.147
    1UNL    H21   42  -0.128   0.062   0.189
    1UNL    H22   43  -0.043   0.009  -0.198
   0.00000   0.00000   0.00000   0.00000   0.00000   0.00000   0.00000   0.00000   0.00000
Generated with MDTraj, t= 15.0
 43
    1UNL     C1    1  -0.391   0.182  -0.025
    1UNL     C2    2  -0.292   0.109  -0.106
    1UNL     C3    3  -0.166   0.072  -0.021
    1UNL     C4    4  -0.097   0.212  -0.007
    1UNL     C5    5   0.033   0.228   0.016
    1UNL     N1    6   0.125   0.120   0.006
    1UNL     C6    7   0.079   0.001  -0.046
    1UNL     C7    8   0.178  -0.093  -0.040
    1UNL     C8    9   0.298  -0.033   0.017
    1UNL     C9   10   0.434  -0.061   0.042
    1UNL    C10   11   0.515   0.043   0.093
    1UNL    C11   12   0.467   0.174   0.125
    1UNL    C12   13   0.337   0.202   0.100
    1UNL    C13   14   0.254   0.101   0.045
    1UNL    C14   15   0.155  -0.236  -0.069
    1UNL    C15   16   0.019  -0.266  -0.128
    1UNL     N2   17  -0.092  -0.173  -0.085
    1UNL    C16   18  -0.165  -0.224   0.037
    1UNL    C17   19  -0.259  -0.130   0.108
    1UNL    C18   20  -0.198   0.017   0.119
    1UNL    C19   21  -0.064  -0.019  -0.097
    1UNL     H1   22  -0.353   0.268   0.024
    1UNL     H2   23  -0.477   0.211  -0.087
    1UNL     H3   24  -0.421   0.117   0.055
    1UNL     H4   25  -0.271   0.167  -0.190
    1UNL     H5   26  -0.336   0.010  -0.137
    1UNL     H6   27  -0.149   0.304   0.000
    1UNL     H7   28   0.077   0.329   0.047
    1UNL     H8   29   0.476  -0.155   0.023
    1UNL     H9   30   0.619   0.032   0.109
    1UNL    H10   31   0.530   0.246   0.172
    1UNL    H11   32   0.286   0.288   0.142
    1UNL    H12   33   0.241  -0.264  -0.125
    1UNL    H13   34   0.159  -0.293   0.028
    1UNL    H14   35   0.016  -0.265  -0.238
    1UNL    H15   36  -0.009  -0.365  -0.102
    1UNL    H16   37  -0.086  -0.257   0.100
    1UNL    H17   38  -0.220  -0.310   0.000
    1UNL    H18   39  -0.284  -0.171   0.210
    1UNL    H19   40  -0.355  -0.119   0.050
    1UNL    H20   41  -0.261   0.083   0.179
    1UNL    H21   42  -0.107   0.000   0.179
    1UNL    H22   43  -0.055  -0.003  -0.204
   0.00000   0.00000   0.00000   0.00000   0.00000   0.00000   0.00000   0.00000   0.00000
Generated with MDTraj, t= 16.0
 43
    1UNL     C1    1  -0.409   0.160  -0.052
    1UNL     C2    2  -0.287   0.079  -0.101
    1UNL     C3    3  -0.163   0.076  -0.007
    1UNL     C4    4  -0.106   0.221   0.011
    1UNL     C5    5   0.027   0.238   0.019
    1UNL     N1    6   0.124   0.133  -0.002
    1UNL     C6    7   0.079   0.005  -0.043
    1UNL     C7    8   0.179  -0.087  -0.037
    1UNL     C8    9   0.298  -0.017   0.008
    1UNL     C9   10   0.424  -0.073   0.041
    1UNL    C10   11   0.513   0.011   0.104
    1UNL    C11   12   0.481   0.150   0.126
    1UNL    C12   13   0.362   0.207   0.083
    1UNL    C13   14   0.262   0.114   0.033
    1UNL    C14   15   0.153  -0.230  -0.062
    1UNL    C15   16   0.018  -0.239  -0.141
    1UNL     N2   17  -0.100  -0.161  -0.083
    1UNL    C16   18  -0.144  -0.216   0.047
    1UNL    C17   19  -0.259  -0.139   0.106
    1UNL    C18   20  -0.215   0.016   0.124
    1UNL    C19   21  -0.064  -0.015  -0.083
    1UNL     H1   22  -0.395   0.266  -0.046
    1UNL     H2   23  -0.494   0.144  -0.117
    1UNL     H3   24  -0.432   0.134   0.050
    1UNL     H4   25  -0.259   0.116  -0.196
    1UNL     H5   26  -0.315  -0.023  -0.116
    1UNL     H6   27  -0.173   0.309   0.019
    1UNL     H7   28   0.069   0.333   0.012
    1UNL     H8   29   0.453  -0.181   0.037
    1UNL     H9   30   0.606  -0.025   0.141
    1UNL    H10   31   0.553   0.216   0.173
    1UNL    H11   32   0.332   0.303   0.119
    1UNL    H12   33   0.227  -0.274  -0.125
    1UNL    H13   34   0.161  -0.284   0.037
    1UNL    H14   35   0.031  -0.199  -0.242
    1UNL    H15   36  -0.011  -0.338  -0.157
    1UNL    H16   37  -0.060  -0.205   0.113
    1UNL    H17   38  -0.173  -0.318   0.023
    1UNL    H18   39  -0.289  -0.189   0.202
    1UNL    H19   40  -0.347  -0.142   0.037
    1UNL    H20   41  -0.301   0.065   0.176
    1UNL    H21   42  -0.139   0.017   0.199
    1UNL    H22   43  -0.056   0.010  -0.188
   0.00000   0.00000   0.00000   0.00000   0.00000   0.00000   0.00000   0.00000   0.00000
Generated with MDTraj, t= 17.0
 43
    1UNL     C1    1  -0.408   0.150  -0.060
    1UNL     C2    2  -0.282   0.085  -0.119
    1UNL     C3    3  -0.159   0.082  -0.020
    1UNL     C4    4  -0.098   0.217   0.001
    1UNL     C5    5   0.030   0.235   0.027
    1UNL     N1    6   0.112   0.121   0.030
    1UNL     C6    7   0.070   0.007  -0.038
    1UNL     C7    8   0.168  -0.087  -0.037
    1UNL     C8    9   0.275  -0.035   0.037
    1UNL     C9   10   0.403  -0.080   0.055
    1UNL    C10   11   0.496   0.016   0.088
    1UNL    C11   12   0.467   0.152   0.101
    1UNL    C12   13   0.342   0.197   0.092
    1UNL    C13   14   0.245   0.102   0.072
    1UNL    C14   15   0.155  -0.223  -0.106
    1UNL    C15   16   0.013  -0.255  -0.152
    1UNL     N2   17  -0.083  -0.164  -0.081
    1UNL    C16   18  -0.106  -0.195   0.067
    1UNL    C17   19  -0.221  -0.120   0.130
    1UNL    C18   20  -0.198   0.029   0.121
    1UNL    C19   21  -0.061  -0.012  -0.100
    1UNL     H1   22  -0.396   0.228   0.016
    1UNL     H2   23  -0.467   0.192  -0.137
    1UNL     H3   24  -0.467   0.079  -0.002
    1UNL     H4   25  -0.239   0.147  -0.196
    1UNL     H5   26  -0.298  -0.003  -0.165
    1UNL     H6   27  -0.162   0.300   0.006
    1UNL     H7   28   0.078   0.334   0.037
    1UNL     H8   29   0.426  -0.180   0.035
    1UNL     H9   30   0.606  -0.016   0.077
    1UNL    H10   31   0.552   0.216   0.127
    1UNL    H11   32   0.315   0.302   0.076
    1UNL    H12   33   0.223  -0.222  -0.190
    1UNL    H13   34   0.186  -0.310  -0.043
    1UNL    H14   35   0.003  -0.230  -0.257
    1UNL    H15   36  -0.018  -0.354  -0.135
    1UNL    H16   37  -0.014  -0.164   0.115
    1UNL    H17   38  -0.131  -0.300   0.074
    1UNL    H18   39  -0.235  -0.151   0.236
    1UNL    H19   40  -0.312  -0.148   0.071
    1UNL    H20   41  -0.294   0.078   0.155
    1UNL    H21   42  -0.137   0.054   0.202
    1UNL    H22   43  -0.046   0.003  -0.205
   0.00000   0.00000   0.00000   0.00000   0.00000   0.00000   0.00000   0.00000   0.00000
Generated with MDTraj, t= 18.0
 43
    1UNL     C1    1  -0.411   0.166  -0.047
    1UNL     C2    2  -0.297   0.073  -0.098
    1UNL     C3    3  -0.160   0.083  -0.022
    1UNL     C4    4  -0.095   0.218  -0.022
    1UNL     C5    5   0.034   0.233  -0.004
    1UNL     N1    6   0.115   0.116   0.019
    1UNL     C6    7   0.075  -0.001  -0.039
    1UNL     C7    8   0.180  -0.092  -0.046
    1UNL     C8    9   0.297  -0.013  -0.002
    1UNL     C9   10   0.436  -0.049   0.009
    1UNL    C10   11   0.512   0.026   0.087
    1UNL    C11   12   0.466   0.139   0.151
    1UNL    C12   13   0.338   0.187   0.134
    1UNL    C13   14   0.250   0.107   0.059
    1UNL    C14   15   0.158  -0.236  -0.074
    1UNL    C15   16   0.017  -0.252  -0.139
    1UNL     N2   17  -0.098  -0.168  -0.087
    1UNL    C16   18  -0.144  -0.212   0.053
    1UNL    C17   19  -0.245  -0.112   0.124
    1UNL    C18   20  -0.194   0.034   0.127
    1UNL    C19   21  -0.063  -0.018  -0.091
    1UNL     H1   22  -0.392   0.275  -0.056
    1UNL     H2   23  -0.495   0.142  -0.105
    1UNL     H3   24  -0.419   0.146   0.061
    1UNL     H4   25  -0.294   0.090  -0.202
    1UNL     H5   26  -0.323  -0.026  -0.091
    1UNL     H6   27  -0.152   0.311  -0.044
    1UNL     H7   28   0.078   0.331   0.009
    1UNL     H8   29   0.479  -0.123  -0.060
    1UNL     H9   30   0.607  -0.001   0.101
    1UNL    H10   31   0.529   0.195   0.216
    1UNL    H11   32   0.300   0.282   0.163
    1UNL    H12   33   0.229  -0.291  -0.138
    1UNL    H13   34   0.159  -0.294   0.020
    1UNL    H14   35   0.027  -0.217  -0.240
    1UNL    H15   36  -0.015  -0.352  -0.134
    1UNL    H16   37  -0.050  -0.215   0.108
    1UNL    H17   38  -0.188  -0.310   0.035
    1UNL    H18   39  -0.270  -0.157   0.220
    1UNL    H19   40  -0.342  -0.113   0.070
    1UNL    H20   41  -0.256   0.102   0.194
    1UNL    H21   42  -0.106   0.047   0.183
    1UNL    H22   43  -0.064   0.005  -0.196
   0.00000   0.00000   0.00000   0.00000   0.00000   0.00000   0.00000   0.00000   0.00000
Generated with MDTraj, t= 19.0
 43
    1UNL     C1    1  -0.411   0.168  -0.046
    1UNL     C2    2  -0.295   0.097  -0.103
    1UNL     C3    3  -0.167   0.078  -0.011
    1UNL     C4    4  -0.099   0.213   0.021
    1UNL     C5    5   0.033   0.233   0.023
    1UNL     N1    6   0.121   0.128  -0.009
    1UNL     C6    7   0.077   0.008  -0.061
    1UNL     C7    8   0.182  -0.086  -0.055
    1UNL     C8    9   0.293  -0.026   0.009
    1UNL     C9   10   0.413  -0.077   0.066
    1UNL    C10   11   0.493   0.015   0.128
    1UNL    C11   12   0.462   0.150   0.128
    1UNL    C12   13   0.348   0.203   0.077
    1UNL    C13   14   0.260   0.112   0.024
    1UNL    C14   15   0.164  -0.224  -0.100
    1UNL    C15   16   0.017  -0.260  -0.145
    1UNL     N2   17  -0.091  -0.172  -0.078
    1UNL    C16   18  -0.119  -0.206   0.069
    1UNL    C17   19  -0.239  -0.125   0.114
    1UNL    C18   20  -0.208   0.018   0.129
    1UNL    C19   21  -0.064  -0.018  -0.091
    1UNL     H1   22  -0.380   0.267  -0.008
    1UNL     H2   23  -0.477   0.185  -0.128
    1UNL     H3   24  -0.454   0.119   0.044
    1UNL     H4   25  -0.259   0.149  -0.188
    1UNL     H5   26  -0.324   0.001  -0.154
    1UNL     H6   27  -0.169   0.293   0.014
    1UNL     H7   28   0.076   0.329   0.037
    1UNL     H8   29   0.437  -0.179   0.050
    1UNL     H9   30   0.584  -0.018   0.191
    1UNL    H10   31   0.526   0.222   0.183
    1UNL    H11   32   0.327   0.308   0.095
    1UNL    H12   33   0.236  -0.241  -0.183
    1UNL    H13   34   0.198  -0.295  -0.023
    1UNL    H14   35   0.004  -0.249  -0.250
    1UNL    H15   36  -0.011  -0.357  -0.113
    1UNL    H16   37  -0.026  -0.185   0.122
    1UNL    H17   38  -0.138  -0.313   0.063
    1UNL    H18   39  -0.284  -0.170   0.201
    1UNL    H19   40  -0.315  -0.140   0.035
    1UNL    H20   41  -0.286   0.086   0.179
    1UNL    H21   42  -0.139   0.033   0.207
    1UNL    H22   43  -0.081  -0.010  -0.195
   0.00000   0.00000   0.00000   0.00000   0.00000   0.00000   0.00000   0.00000   0.00000
Generated with MDTraj, t= 20.0
 43
    1UNL     C1    1  -0.410   0.164  -0.045
    1UNL     C2    2  -0.294   0.091  -0.103
    1UNL     C3    3  -0.162   0.076  -0.013
    1UNL     C4    4  -0.104   0.220   0.003
    1UNL     C5    5   0.026   0.242   0.007
    1UNL     N1    6   0.118   0.134  -0.012
    1UNL     C6    7   0.073   0.005  -0.053
    1UNL     C7    8   0.170  -0.090  -0.041
    1UNL     C8    9   0.278  -0.023   0.026
    1UNL     C9   10   0.408  -0.074   0.068
    1UNL    C10   11   0.503   0.011   0.111
    1UNL    C11   12   0.475   0.149   0.120
    1UNL    C12   13   0.347   0.198   0.090
    1UNL    C13   14   0.250   0.115   0.040
    1UNL    C14   15   0.151  -0.233  -0.069
    1UNL    C15   16   0.025  -0.247  -0.155
    1UNL     N2   17  -0.090  -0.158  -0.092
    1UNL    C16   18  -0.131  -0.218   0.045
    1UNL    C17   19  -0.225  -0.135   0.131
    1UNL    C18   20  -0.183   0.015   0.130
    1UNL    C19   21  -0.062  -0.011  -0.100
    1UNL     H1   22  -0.382   0.257   0.008
    1UNL     H2   23  -0.465   0.201  -0.129
    1UNL     H3   24  -0.475   0.115   0.031
    1UNL     H4   25  -0.264   0.139  -0.191
    1UNL     H5   26  -0.316  -0.013  -0.157
    1UNL     H6   27  -0.175   0.293   0.038
    1UNL     H7   28   0.062   0.342   0.042
    1UNL     H8   29   0.432  -0.181   0.076
    1UNL     H9   30   0.606  -0.019   0.121
    1UNL    H10   31   0.552   0.210   0.161
    1UNL    H11   32   0.321   0.298   0.115
    1UNL    H12   33   0.244  -0.274  -0.116
    1UNL    H13   34   0.145  -0.288   0.025
    1UNL    H14   35   0.037  -0.211  -0.255
    1UNL    H15   36  -0.017  -0.343  -0.148
    1UNL    H16   37  -0.031  -0.237   0.087
    1UNL    H17   38  -0.172  -0.316   0.019
    1UNL    H18   39  -0.226  -0.175   0.230
    1UNL    H19   40  -0.329  -0.143   0.096
    1UNL    H20   41  -0.258   0.071   0.192
    1UNL    H21   42  -0.100   0.039   0.191
    1UNL    H22   43  -0.066   0.018  -0.201
   0.00000   0.00000   0.00000   0.00000   0.00000   0.00000   0.00000   0.00000   0.00000
Generated with MDTraj, t= 21.0
 43
    1UNL     C1    1  -0.413   0.155  -0.024
    1UNL     C2    2  -0.293   0.088  -0.114
    1UNL     C3    3  -0.162   0.076  -0.033
    1UNL     C4    4  -0.098   0.211  -0.022
    1UNL     C5    5   0.035   0.231   0.003
    1UNL     N1    6   0.119   0.115   0.024
    1UNL     C6    7   0.079  -0.003  -0.028
    1UNL     C7    8   0.183  -0.094  -0.033
    1UNL     C8    9   0.299  -0.024   0.014
    1UNL     C9   10   0.433  -0.059   0.034
    1UNL    C10   11   0.515   0.034   0.088
    1UNL    C11   12   0.472   0.158   0.135
    1UNL    C12   13   0.340   0.196   0.126
    1UNL    C13   14   0.253   0.101   0.063
    1UNL    C14   15   0.149  -0.230  -0.087
    1UNL    C15   16   0.010  -0.250  -0.147
    1UNL     N2   17  -0.101  -0.164  -0.086
    1UNL    C16   18  -0.156  -0.214   0.048
    1UNL    C17   19  -0.244  -0.110   0.118
    1UNL    C18   20  -0.186   0.034   0.118
    1UNL    C19   21  -0.059  -0.023  -0.097
    1UNL     H1   22  -0.432   0.257  -0.059
    1UNL     H2   23  -0.503   0.097  -0.047
    1UNL     H3   24  -0.382   0.162   0.080
    1UNL     H4   25  -0.276   0.121  -0.212
    1UNL     H5   26  -0.326  -0.025  -0.137
    1UNL     H6   27  -0.157   0.303  -0.041
    1UNL     H7   28   0.086   0.316  -0.027
    1UNL     H8   29   0.454  -0.161   0.010
    1UNL     H9   30   0.618   0.017   0.097
    1UNL    H10   31   0.539   0.240   0.165
    1UNL    H11   32   0.305   0.285   0.178
    1UNL    H12   33   0.227  -0.266  -0.161
    1UNL    H13   34   0.163  -0.296  -0.002
    1UNL    H14   35   0.002  -0.217  -0.247
    1UNL    H15   36  -0.028  -0.348  -0.138
    1UNL    H16   37  -0.069  -0.246   0.108
    1UNL    H17   38  -0.210  -0.307   0.020
    1UNL    H18   39  -0.260  -0.135   0.219
    1UNL    H19   40  -0.338  -0.106   0.064
    1UNL    H20   41  -0.248   0.103   0.173
    1UNL    H21   42  -0.101   0.034   0.181
    1UNL    H22   43  -0.040   0.003  -0.197
   0.00000   0.00000   0.00000   0.00000   0.00000   0.00000   0.00000   0.00000   0.00000
Generated with MDTraj, t= 22.0
 43
    1UNL     C1    1  -0.397   0.177  -0.071
    1UNL     C2    2  -0.284   0.085  -0.131
    1UNL     C3    3  -0.174   0.073  -0.022
    1UNL     C4    4  -0.115   0.216   0.003
    1UNL     C5    5   0.016   0.233   0.033
    1UNL     N1    6   0.116   0.129   0.014
    1UNL     C6    7   0.075   0.014  -0.043
    1UNL     C7    8   0.175  -0.079  -0.051
    1UNL     C8    9   0.289  -0.019   0.005
    1UNL     C9   10   0.412  -0.075   0.044
    1UNL    C10   11   0.508   0.008   0.098
    1UNL    C11   12   0.481   0.142   0.127
    1UNL    C12   13   0.353   0.191   0.100
    1UNL    C13   14   0.253   0.114   0.043
    1UNL    C14   15   0.150  -0.222  -0.093
    1UNL    C15   16   0.010  -0.250  -0.144
    1UNL     N2   17  -0.094  -0.169  -0.072
    1UNL    C16   18  -0.095  -0.196   0.079
    1UNL    C17   19  -0.225  -0.140   0.145
    1UNL    C18   20  -0.224   0.017   0.117
    1UNL    C19   21  -0.068  -0.020  -0.092
    1UNL     H1   22  -0.360   0.245   0.004
    1UNL     H2   23  -0.435   0.243  -0.154
    1UNL     H3   24  -0.471   0.119  -0.015
    1UNL     H4   25  -0.238   0.113  -0.224
    1UNL     H5   26  -0.329  -0.020  -0.159
    1UNL     H6   27  -0.178   0.292   0.036
    1UNL     H7   28   0.051   0.329   0.082
    1UNL     H8   29   0.439  -0.176   0.026
    1UNL     H9   30   0.610  -0.046   0.115
    1UNL    H10   31   0.560   0.195   0.176
    1UNL    H11   32   0.325   0.294   0.115
    1UNL    H12   33   0.235  -0.241  -0.166
    1UNL    H13   34   0.171  -0.285  -0.007
    1UNL    H14   35   0.003  -0.214  -0.242
    1UNL    H15   36  -0.027  -0.349  -0.136
    1UNL    H16   37  -0.000  -0.151   0.119
    1UNL    H17   38  -0.091  -0.305   0.099
    1UNL    H18   39  -0.220  -0.167   0.247
    1UNL    H19   40  -0.311  -0.175   0.090
    1UNL    H20   41  -0.325   0.040   0.138
    1UNL    H21   42  -0.166   0.061   0.195
    1UNL    H22   43  -0.073  -0.006  -0.196
   0.00000   0.00000   0.00000   0.00000   0.00000   0.00000   0.00000   0.00000   0.00000
Generated with MDTraj, t= 23.0
 43
    1UNL     C1    1  -0.388   0.174  -0.069
    1UNL     C2    2  -0.274   0.095  -0.119
    1UNL     C3    3  -0.165   0.071  -0.012
    1UNL     C4    4  -0.102   0.206   0.022
    1UNL     C5    5   0.028   0.224   0.036
    1UNL     N1    6   0.120   0.128  -0.001
    1UNL     C6    7   0.078   0.009  -0.061
    1UNL     C7    8   0.173  -0.086  -0.052
    1UNL     C8    9   0.289  -0.023   0.005
    1UNL     C9   10   0.416  -0.068   0.035
    1UNL    C10   11   0.505   0.022   0.098
    1UNL    C11   12   0.467   0.155   0.132
    1UNL    C12   13   0.339   0.202   0.107
    1UNL    C13   14   0.252   0.107   0.038
    1UNL    C14   15   0.151  -0.228  -0.099
    1UNL    C15   16   0.003  -0.259  -0.132
    1UNL     N2   17  -0.093  -0.167  -0.066
    1UNL    C16   18  -0.112  -0.200   0.080
    1UNL    C17   19  -0.244  -0.132   0.117
    1UNL    C18   20  -0.215   0.018   0.127
    1UNL    C19   21  -0.061  -0.024  -0.092
    1UNL     H1   22  -0.371   0.280  -0.058
    1UNL     H2   23  -0.475   0.171  -0.142
    1UNL     H3   24  -0.425   0.145   0.028
    1UNL     H4   25  -0.235   0.154  -0.203
    1UNL     H5   26  -0.293  -0.006  -0.166
    1UNL     H6   27  -0.167   0.298   0.026
    1UNL     H7   28   0.062   0.317   0.064
    1UNL     H8   29   0.451  -0.164  -0.007
    1UNL     H9   30   0.600  -0.004   0.121
    1UNL    H10   31   0.528   0.216   0.200
    1UNL    H11   32   0.317   0.307   0.123
    1UNL    H12   33   0.208  -0.248  -0.195
    1UNL    H13   34   0.196  -0.290  -0.023
    1UNL    H14   35  -0.024  -0.247  -0.232
    1UNL    H15   36  -0.021  -0.357  -0.095
    1UNL    H16   37  -0.035  -0.148   0.142
    1UNL    H17   38  -0.105  -0.311   0.090
    1UNL    H18   39  -0.285  -0.166   0.207
    1UNL    H19   40  -0.301  -0.152   0.027
    1UNL    H20   41  -0.305   0.064   0.148
    1UNL    H21   42  -0.152   0.036   0.215
    1UNL    H22   43  -0.077  -0.014  -0.196
   0.00000   0.00000   0.00000   0.00000   0.00000   0.00000   0.00000   0.00000   0.00000
Generated with MDTraj, t= 24.0
 43
    1UNL     C1    1  -0.408   0.171  -0.035
    1UNL     C2    2  -0.303   0.084  -0.098
    1UNL     C3    3  -0.165   0.076  -0.027
    1UNL     C4    4  -0.097   0.215  -0.023
    1UNL     C5    5   0.034   0.236  -0.003
    1UNL     N1    6   0.121   0.125   0.017
    1UNL     C6    7   0.076  -0.004  -0.026
    1UNL     C7    8   0.175  -0.093  -0.028
    1UNL     C8    9   0.292  -0.022   0.023
    1UNL     C9   10   0.428  -0.058   0.026
    1UNL    C10   11   0.520   0.031   0.083
    1UNL    C11   12   0.481   0.158   0.137
    1UNL    C12   13   0.352   0.201   0.113
    1UNL    C13   14   0.253   0.113   0.059
    1UNL    C14   15   0.156  -0.235  -0.067
    1UNL    C15   16   0.015  -0.255  -0.141
    1UNL     N2   17  -0.100  -0.165  -0.092
    1UNL    C16   18  -0.164  -0.220   0.034
    1UNL    C17   19  -0.246  -0.125   0.122
    1UNL    C18   20  -0.190   0.019   0.117
    1UNL    C19   21  -0.058  -0.022  -0.093
    1UNL     H1   22  -0.376   0.273  -0.023
    1UNL     H2   23  -0.505   0.179  -0.096
    1UNL     H3   24  -0.429   0.140   0.065
    1UNL     H4   25  -0.289   0.116  -0.205
    1UNL     H5   26  -0.353  -0.009  -0.108
    1UNL     H6   27  -0.153   0.296  -0.051
    1UNL     H7   28   0.076   0.341  -0.009
    1UNL     H8   29   0.467  -0.138  -0.029
    1UNL     H9   30   0.628   0.001   0.095
    1UNL    H10   31   0.551   0.220   0.187
    1UNL    H11   32   0.313   0.295   0.149
    1UNL    H12   33   0.247  -0.264  -0.128
    1UNL    H13   34   0.152  -0.296   0.022
    1UNL    H14   35   0.031  -0.235  -0.241
    1UNL    H15   36  -0.026  -0.352  -0.117
    1UNL    H16   37  -0.080  -0.276   0.085
    1UNL    H17   38  -0.235  -0.299   0.000
    1UNL    H18   39  -0.241  -0.176   0.213
    1UNL    H19   40  -0.348  -0.130   0.091
    1UNL    H20   41  -0.251   0.081   0.175
    1UNL    H21   42  -0.095   0.031   0.170
    1UNL    H22   43  -0.054   0.001  -0.195
   0.00000   0.00000   0.00000   0.00000   0.00000   0.00000   0.00000   0.00000   0.00000
Generated with MDTraj, t= 25.0
 43
    1UNL     C1    1  -0.431   0.129  -0.037
    1UNL     C2    2  -0.295   0.095  -0.113
    1UNL     C3    3  -0.170   0.088  -0.023
    1UNL     C4    4  -0.098   0.224  -0.000
    1UNL     C5    5   0.035   0.241   0.018
    1UNL     N1    6   0.118   0.125   0.012
    1UNL     C6    7   0.072   0.007  -0.035
    1UNL     C7    8   0.164  -0.092  -0.019
    1UNL     C8    9   0.282  -0.033   0.040
    1UNL     C9   10   0.413  -0.077   0.073
    1UNL    C10   11   0.510   0.016   0.114
    1UNL    C11   12   0.482   0.153   0.095
    1UNL    C12   13   0.361   0.198   0.067
    1UNL    C13   14   0.255   0.105   0.050
    1UNL    C14   15   0.146  -0.229  -0.078
    1UNL    C15   16   0.013  -0.244  -0.156
    1UNL     N2   17  -0.094  -0.161  -0.093
    1UNL    C16   18  -0.115  -0.207   0.051
    1UNL    C17   19  -0.220  -0.121   0.115
    1UNL    C18   20  -0.201   0.030   0.115
    1UNL    C19   21  -0.064  -0.012  -0.099
    1UNL     H1   22  -0.421   0.222   0.017
    1UNL     H2   23  -0.519   0.148  -0.107
    1UNL     H3   24  -0.453   0.054   0.039
    1UNL     H4   25  -0.283   0.167  -0.202
    1UNL     H5   26  -0.311   0.005  -0.157
    1UNL     H6   27  -0.164   0.306   0.033
    1UNL     H7   28   0.082   0.322   0.060
    1UNL     H8   29   0.429  -0.188   0.082
    1UNL     H9   30   0.610  -0.021   0.132
    1UNL    H10   31   0.560   0.227   0.112
    1UNL    H11   32   0.331   0.299   0.077
    1UNL    H12   33   0.225  -0.250  -0.157
    1UNL    H13   34   0.152  -0.303  -0.001
    1UNL    H14   35   0.024  -0.206  -0.253
    1UNL    H15   36  -0.013  -0.349  -0.152
    1UNL    H16   37  -0.015  -0.208   0.102
    1UNL    H17   38  -0.131  -0.316   0.044
    1UNL    H18   39  -0.239  -0.162   0.210
    1UNL    H19   40  -0.303  -0.155   0.058
    1UNL    H20   41  -0.280   0.085   0.156
    1UNL    H21   42  -0.121   0.057   0.184
    1UNL    H22   43  -0.052   0.018  -0.198
   0.00000   0.00000   0.00000   0.00000   0.00000   0.00000   0.00000   0.00000   0.00000
Generated with MDTraj, t= 26.0
 43
    1UNL     C1    1  -0.411   0.150  -0.063
    1UNL     C2    2  -0.284   0.079  -0.109
    1UNL     C3    3  -0.164   0.078  -0.011
    1UNL     C4    4  -0.101   0.222   0.013
    1UNL     C5    5   0.029   0.239   0.022
    1UNL     N1    6   0.126   0.139  -0.012
    1UNL     C6    7   0.080   0.013  -0.057
    1UNL     C7    8   0.183  -0.082  -0.058
    1UNL     C8    9   0.297  -0.015   0.000
    1UNL     C9   10   0.417  -0.070   0.038
    1UNL    C10   11   0.504   0.010   0.101
    1UNL    C11   12   0.464   0.138   0.138
    1UNL    C12   13   0.345   0.196   0.106
    1UNL    C13   14   0.258   0.117   0.032
    1UNL    C14   15   0.154  -0.230  -0.088
    1UNL    C15   16   0.008  -0.260  -0.132
    1UNL     N2   17  -0.091  -0.166  -0.067
    1UNL    C16   18  -0.132  -0.208   0.069
    1UNL    C17   19  -0.250  -0.124   0.124
    1UNL    C18   20  -0.202   0.023   0.131
    1UNL    C19   21  -0.060  -0.016  -0.086
    1UNL     H1   22  -0.398   0.258  -0.045
    1UNL     H2   23  -0.498   0.156  -0.133
    1UNL     H3   24  -0.450   0.120   0.036
    1UNL     H4   25  -0.250   0.122  -0.210
    1UNL     H5   26  -0.303  -0.017  -0.133
    1UNL     H6   27  -0.162   0.308   0.014
    1UNL     H7   28   0.069   0.344   0.024
    1UNL     H8   29   0.442  -0.169   0.021
    1UNL     H9   30   0.606  -0.013   0.113
    1UNL    H10   31   0.535   0.203   0.185
    1UNL    H11   32   0.301   0.293   0.134
    1UNL    H12   33   0.225  -0.267  -0.167
    1UNL    H13   34   0.176  -0.291  -0.002
    1UNL    H14   35   0.001  -0.236  -0.233
    1UNL    H15   36  -0.021  -0.366  -0.116
    1UNL    H16   37  -0.038  -0.196   0.128
    1UNL    H17   38  -0.142  -0.317   0.069
    1UNL    H18   39  -0.280  -0.167   0.215
    1UNL    H19   40  -0.330  -0.141   0.056
    1UNL    H20   41  -0.281   0.078   0.172
    1UNL    H21   42  -0.113   0.039   0.192
    1UNL    H22   43  -0.073   0.001  -0.188
   0.00000   0.00000   0.00000   0.00000   0.00000   0.00000   0.00000   0.00000   0.00000
Generated with MDTraj, t= 27.0
 43
    1UNL     C1    1  -0.388   0.203  -0.047
    1UNL     C2    2  -0.303   0.089  -0.097
    1UNL     C3    3  -0.164   0.071  -0.024
    1UNL     C4    4  -0.095   0.207  -0.038
    1UNL     C5    5   0.026   0.227   0.002
    1UNL     N1    6   0.109   0.114   0.015
    1UNL     C6    7   0.071  -0.002  -0.047
    1UNL     C7    8   0.176  -0.089  -0.045
    1UNL     C8    9   0.291  -0.020   0.005
    1UNL     C9   10   0.425  -0.054   0.024
    1UNL    C10   11   0.510   0.041   0.074
    1UNL    C11   12   0.458   0.151   0.146
    1UNL    C12   13   0.326   0.186   0.138
    1UNL    C13   14   0.247   0.103   0.058
    1UNL    C14   15   0.157  -0.234  -0.090
    1UNL    C15   16   0.015  -0.261  -0.138
    1UNL     N2   17  -0.089  -0.171  -0.071
    1UNL    C16   18  -0.121  -0.211   0.070
    1UNL    C17   19  -0.237  -0.124   0.126
    1UNL    C18   20  -0.188   0.026   0.126
    1UNL    C19   21  -0.067  -0.025  -0.095
    1UNL     H1   22  -0.338   0.302  -0.045
    1UNL     H2   23  -0.477   0.222  -0.112
    1UNL     H3   24  -0.417   0.179   0.059
    1UNL     H4   25  -0.281   0.106  -0.207
    1UNL     H5   26  -0.364  -0.000  -0.094
    1UNL     H6   27  -0.158   0.285  -0.073
    1UNL     H7   28   0.074   0.320   0.009
    1UNL     H8   29   0.467  -0.149  -0.016
    1UNL     H9   30   0.622   0.022   0.081
    1UNL    H10   31   0.526   0.210   0.207
    1UNL    H11   32   0.291   0.275   0.183
    1UNL    H12   33   0.235  -0.254  -0.169
    1UNL    H13   34   0.191  -0.305  -0.016
    1UNL    H14   35   0.011  -0.247  -0.241
    1UNL    H15   36  -0.020  -0.363  -0.122
    1UNL    H16   37  -0.030  -0.206   0.135
    1UNL    H17   38  -0.144  -0.316   0.073
    1UNL    H18   39  -0.261  -0.162   0.222
    1UNL    H19   40  -0.317  -0.134   0.056
    1UNL    H20   41  -0.268   0.085   0.163
    1UNL    H21   42  -0.101   0.026   0.189
    1UNL    H22   43  -0.071  -0.020  -0.200
   0.00000   0.00000   0.00000   0.00000   0.00000   0.00000   0.00000   0.00000   0.00000
Generated with MDTraj, t= 28.0
 43
    1UNL     C1    1  -0.421   0.133  -0.065
    1UNL     C2    2  -0.292   0.076  -0.117
    1UNL     C3    3  -0.162   0.083  -0.023
    1UNL     C4    4  -0.103   0.224  -0.004
    1UNL     C5    5   0.022   0.239   0.035
    1UNL     N1    6   0.114   0.126   0.019
    1UNL     C6    7   0.069   0.008  -0.032
    1UNL     C7    8   0.167  -0.086  -0.033
    1UNL     C8    9   0.284  -0.031   0.025
    1UNL     C9   10   0.413  -0.082   0.070
    1UNL    C10   11   0.508   0.008   0.104
    1UNL    C11   12   0.482   0.145   0.100
    1UNL    C12   13   0.353   0.194   0.082
    1UNL    C13   14   0.251   0.107   0.049
    1UNL    C14   15   0.148  -0.220  -0.095
    1UNL    C15   16   0.009  -0.234  -0.160
    1UNL     N2   17  -0.100  -0.160  -0.084
    1UNL    C16   18  -0.114  -0.202   0.062
    1UNL    C17   19  -0.215  -0.114   0.137
    1UNL    C18   20  -0.189   0.032   0.122
    1UNL    C19   21  -0.064  -0.014  -0.092
    1UNL     H1   22  -0.410   0.241  -0.039
    1UNL     H2   23  -0.495   0.126  -0.145
    1UNL     H3   24  -0.438   0.068   0.027
    1UNL     H4   25  -0.278   0.127  -0.215
    1UNL     H5   26  -0.306  -0.040  -0.140
    1UNL     H6   27  -0.169   0.313  -0.016
    1UNL     H7   28   0.068   0.335   0.062
    1UNL     H8   29   0.438  -0.185   0.055
    1UNL     H9   30   0.600  -0.022   0.136
    1UNL    H10   31   0.548   0.216   0.145
    1UNL    H11   32   0.330   0.303   0.077
    1UNL    H12   33   0.232  -0.254  -0.160
    1UNL    H13   34   0.165  -0.289  -0.013
    1UNL    H14   35   0.004  -0.198  -0.260
    1UNL    H15   36  -0.021  -0.339  -0.169
    1UNL    H16   37  -0.018  -0.193   0.116
    1UNL    H17   38  -0.144  -0.305   0.068
    1UNL    H18   39  -0.212  -0.136   0.243
    1UNL    H19   40  -0.307  -0.136   0.087
    1UNL    H20   41  -0.265   0.083   0.178
    1UNL    H21   42  -0.093   0.042   0.170
    1UNL    H22   43  -0.049   0.007  -0.194
   0.00000   0.00000   0.00000   0.00000   0.00000   0.00000   0.00000   0.00000   0.00000
Generated with MDTraj, t= 29.0
 43
    1UNL     C1    1  -0.426   0.128  -0.026
    1UNL     C2    2  -0.299   0.112  -0.100
    1UNL     C3    3  -0.163   0.084  -0.019
    1UNL     C4    4  -0.099   0.220   0.014
    1UNL     C5    5   0.034   0.240  -0.002
    1UNL     N1    6   0.129   0.129  -0.010
    1UNL     C6    7   0.081   0.008  -0.049
    1UNL     C7    8   0.180  -0.090  -0.035
    1UNL     C8    9   0.295  -0.019   0.013
    1UNL     C9   10   0.422  -0.072   0.042
    1UNL    C10   11   0.509   0.015   0.105
    1UNL    C11   12   0.480   0.150   0.128
    1UNL    C12   13   0.358   0.203   0.090
    1UNL    C13   14   0.262   0.117   0.035
    1UNL    C14   15   0.153  -0.236  -0.057
    1UNL    C15   16   0.021  -0.251  -0.136
    1UNL     N2   17  -0.089  -0.167  -0.078
    1UNL    C16   18  -0.148  -0.220   0.051
    1UNL    C17   19  -0.260  -0.122   0.095
    1UNL    C18   20  -0.204   0.023   0.117
    1UNL    C19   21  -0.064  -0.018  -0.088
    1UNL     H1   22  -0.428   0.216   0.047
    1UNL     H2   23  -0.511   0.152  -0.089
    1UNL     H3   24  -0.453   0.039   0.038
    1UNL     H4   25  -0.270   0.200  -0.160
    1UNL     H5   26  -0.300   0.026  -0.185
    1UNL     H6   27  -0.154   0.301   0.041
    1UNL     H7   28   0.075   0.338   0.019
    1UNL     H8   29   0.449  -0.169   0.006
    1UNL     H9   30   0.613  -0.014   0.137
    1UNL    H10   31   0.549   0.214   0.184
    1UNL    H11   32   0.336   0.300   0.124
    1UNL    H12   33   0.240  -0.282  -0.107
    1UNL    H13   34   0.145  -0.299   0.032
    1UNL    H14   35   0.043  -0.209  -0.233
    1UNL    H15   36  -0.022  -0.350  -0.147
    1UNL    H16   37  -0.064  -0.216   0.122
    1UNL    H17   38  -0.180  -0.320   0.051
    1UNL    H18   39  -0.318  -0.166   0.175
    1UNL    H19   40  -0.320  -0.115   0.005
    1UNL    H20   41  -0.272   0.087   0.171
    1UNL    H21   42  -0.116   0.006   0.171
    1UNL    H22   43  -0.061   0.003  -0.193
   0.00000   0.00000   0.00000   0.00000   0.00000   0.00000   0.00000   0.00000   0.00000
Generated with MDTraj, t= 30.0
 43
    1UNL     C1    1  -0.392   0.208  -0.065
    1UNL     C2    2  -0.294   0.094  -0.104
    1UNL     C3    3  -0.162   0.069  -0.013
    1UNL     C4    4  -0.102   0.209   0.004
    1UNL     C5    5   0.031   0.228   0.018
    1UNL     N1    6   0.123   0.121   0.016
    1UNL     C6    7   0.074  -0.003  -0.037
    1UNL     C7    8   0.176  -0.094  -0.034
    1UNL     C8    9   0.288  -0.026   0.021
    1UNL     C9   10   0.426  -0.058   0.035
    1UNL    C10   11   0.509   0.036   0.093
    1UNL    C11   12   0.466   0.167   0.127
    1UNL    C12   13   0.340   0.204   0.094
    1UNL    C13   14   0.256   0.104   0.054
    1UNL    C14   15   0.154  -0.236  -0.091
    1UNL    C15   16   0.016  -0.256  -0.155
    1UNL     N2   17  -0.092  -0.175  -0.079
    1UNL    C16   18  -0.142  -0.221   0.058
    1UNL    C17   19  -0.249  -0.131   0.119
    1UNL    C18   20  -0.192   0.009   0.128
    1UNL    C19   21  -0.067  -0.026  -0.089
    1UNL     H1   22  -0.346   0.311  -0.082
    1UNL     H2   23  -0.481   0.209  -0.126
    1UNL     H3   24  -0.417   0.202   0.045
    1UNL     H4   25  -0.259   0.102  -0.210
    1UNL     H5   26  -0.343  -0.011  -0.105
    1UNL     H6   27  -0.180   0.286   0.026
    1UNL     H7   28   0.066   0.322   0.047
    1UNL     H8   29   0.462  -0.158  -0.000
    1UNL     H9   30   0.611   0.011   0.085
    1UNL    H10   31   0.540   0.240   0.156
    1UNL    H11   32   0.306   0.301   0.136
    1UNL    H12   33   0.228  -0.265  -0.166
    1UNL    H13   34   0.172  -0.306  -0.010
    1UNL    H14   35   0.020  -0.208  -0.253
    1UNL    H15   36  -0.006  -0.362  -0.157
    1UNL    H16   37  -0.062  -0.229   0.130
    1UNL    H17   38  -0.169  -0.322   0.041
    1UNL    H18   39  -0.277  -0.169   0.218
    1UNL    H19   40  -0.339  -0.141   0.058
    1UNL    H20   41  -0.270   0.072   0.171
    1UNL    H21   42  -0.106   0.016   0.186
    1UNL    H22   43  -0.067  -0.000  -0.192
   0.00000   0.00000   0.00000   0.00000   0.00000   0.00000   0.00000   0.00000   0.00000
Generated with MDTraj, t= 31.0
 43
    1UNL     C1    1  -0.388   0.188  -0.119
    1UNL     C2    2  -0.298   0.062  -0.109
    1UNL     C3    3  -0.175   0.076  -0.014
    1UNL     C4    4  -0.118   0.214   0.012
    1UNL     C5    5   0.010   0.226   0.060
    1UNL     N1    6   0.108   0.125   0.027
    1UNL     C6    7   0.067   0.009  -0.039
    1UNL     C7    8   0.168  -0.080  -0.040
    1UNL     C8    9   0.285  -0.022   0.021
    1UNL     C9   10   0.416  -0.072   0.029
    1UNL    C10   11   0.514   0.007   0.079
    1UNL    C11   12   0.487   0.142   0.116
    1UNL    C12   13   0.354   0.191   0.104
    1UNL    C13   14   0.245   0.106   0.064
    1UNL    C14   15   0.152  -0.214  -0.095
    1UNL    C15   16   0.011  -0.234  -0.150
    1UNL     N2   17  -0.098  -0.163  -0.075
    1UNL    C16   18  -0.097  -0.204   0.068
    1UNL    C17   19  -0.216  -0.134   0.133
    1UNL    C18   20  -0.205   0.019   0.127
    1UNL    C19   21  -0.070  -0.019  -0.087
    1UNL     H1   22  -0.315   0.272  -0.135
    1UNL     H2   23  -0.452   0.182  -0.208
    1UNL     H3   24  -0.439   0.205  -0.020
    1UNL     H4   25  -0.269   0.027  -0.213
    1UNL     H5   26  -0.364  -0.012  -0.074
    1UNL     H6   27  -0.175   0.305   0.009
    1UNL     H7   28   0.046   0.331   0.081
    1UNL     H8   29   0.435  -0.168  -0.002
    1UNL     H9   30   0.620  -0.019   0.063
    1UNL    H10   31   0.570   0.202   0.149
    1UNL    H11   32   0.335   0.291   0.131
    1UNL    H12   33   0.228  -0.224  -0.172
    1UNL    H13   34   0.173  -0.294  -0.023
    1UNL    H14   35   0.020  -0.183  -0.249
    1UNL    H15   36  -0.006  -0.340  -0.155
    1UNL    H16   37   0.000  -0.176   0.109
    1UNL    H17   38  -0.097  -0.308   0.080
    1UNL    H18   39  -0.234  -0.177   0.233
    1UNL    H19   40  -0.303  -0.174   0.083
    1UNL    H20   41  -0.291   0.074   0.164
    1UNL    H21   42  -0.128   0.054   0.186
    1UNL    H22   43  -0.066   0.004  -0.193
   0.00000   0.00000   0.00000   0.00000   0.00000   0.00000   0.00000   0.00000   0.00000
Generated with MDTraj, t= 32.0
 43
    1UNL     C1    1  -0.382   0.197  -0.051
    1UNL     C2    2  -0.294   0.095  -0.110
    1UNL     C3    3  -0.170   0.067  -0.023
    1UNL     C4    4  -0.104   0.203  -0.007
    1UNL     C5    5   0.031   0.229   0.011
    1UNL     N1    6   0.120   0.120   0.012
    1UNL     C6    7   0.081   0.001  -0.036
    1UNL     C7    8   0.180  -0.092  -0.042
    1UNL     C8    9   0.300  -0.021  -0.005
    1UNL     C9   10   0.431  -0.056   0.027
    1UNL    C10   11   0.515   0.038   0.090
    1UNL    C11   12   0.464   0.157   0.145
    1UNL    C12   13   0.335   0.196   0.117
    1UNL    C13   14   0.254   0.106   0.045
    1UNL    C14   15   0.154  -0.226  -0.107
    1UNL    C15   16   0.005  -0.260  -0.147
    1UNL     N2   17  -0.094  -0.174  -0.068
    1UNL    C16   18  -0.130  -0.210   0.072
    1UNL    C17   19  -0.251  -0.133   0.125
    1UNL    C18   20  -0.221   0.016   0.124
    1UNL    C19   21  -0.059  -0.031  -0.085
    1UNL     H1   22  -0.352   0.301  -0.084
    1UNL     H2   23  -0.486   0.193  -0.083
    1UNL     H3   24  -0.377   0.209   0.059
    1UNL     H4   25  -0.260   0.122  -0.215
    1UNL     H5   26  -0.337   0.005  -0.123
    1UNL     H6   27  -0.162   0.290   0.011
    1UNL     H7   28   0.071   0.320   0.038
    1UNL     H8   29   0.469  -0.154  -0.013
    1UNL     H9   30   0.615   0.005   0.112
    1UNL    H10   31   0.520   0.206   0.225
    1UNL    H11   32   0.295   0.288   0.155
    1UNL    H12   33   0.222  -0.234  -0.189
    1UNL    H13   34   0.196  -0.298  -0.035
    1UNL    H14   35   0.001  -0.243  -0.258
    1UNL    H15   36  -0.015  -0.361  -0.116
    1UNL    H16   37  -0.047  -0.189   0.140
    1UNL    H17   38  -0.138  -0.314   0.078
    1UNL    H18   39  -0.277  -0.168   0.227
    1UNL    H19   40  -0.340  -0.159   0.067
    1UNL    H20   41  -0.303   0.072   0.166
    1UNL    H21   42  -0.143   0.036   0.188
    1UNL    H22   43  -0.055  -0.019  -0.194
   0.00000   0.00000   0.00000   0.00000   0.00000   0.00000   0.00000   0.00000   0.00000
Generated with MDTraj, t= 33.0
 43
    1UNL     C1    1  -0.399   0.166  -0.037
    1UNL     C2    2  -0.290   0.085  -0.111
    1UNL     C3    3  -0.162   0.074  -0.022
    1UNL     C4    4  -0.105   0.215   0.010
    1UNL     C5    5   0.026   0.233   0.016
    1UNL     N1    6   0.118   0.134  -0.010
    1UNL     C6    7   0.076   0.007  -0.047
    1UNL     C7    8   0.172  -0.087  -0.036
    1UNL     C8    9   0.288  -0.012   0.010
    1UNL     C9   10   0.406  -0.074   0.057
    1UNL    C10   11   0.504   0.014   0.101
    1UNL    C11   12   0.472   0.150   0.122
    1UNL    C12   13   0.347   0.202   0.100
    1UNL    C13   14   0.253   0.121   0.033
    1UNL    C14   15   0.149  -0.236  -0.065
    1UNL    C15   16   0.012  -0.250  -0.142
    1UNL     N2   17  -0.095  -0.157  -0.093
    1UNL    C16   18  -0.133  -0.220   0.045
    1UNL    C17   19  -0.228  -0.131   0.128
    1UNL    C18   20  -0.185   0.015   0.120
    1UNL    C19   21  -0.060  -0.015  -0.095
    1UNL     H1   22  -0.358   0.254   0.018
    1UNL     H2   23  -0.477   0.197  -0.111
    1UNL     H3   24  -0.443   0.111   0.046
    1UNL     H4   25  -0.255   0.138  -0.205
    1UNL     H5   26  -0.321  -0.010  -0.140
    1UNL     H6   27  -0.176   0.297   0.035
    1UNL     H7   28   0.062   0.336   0.047
    1UNL     H8   29   0.432  -0.174   0.036
    1UNL     H9   30   0.599  -0.030   0.122
    1UNL    H10   31   0.539   0.206   0.183
    1UNL    H11   32   0.319   0.305   0.123
    1UNL    H12   33   0.235  -0.268  -0.118
    1UNL    H13   34   0.165  -0.292   0.029
    1UNL    H14   35   0.020  -0.232  -0.254
    1UNL    H15   36  -0.020  -0.353  -0.124
    1UNL    H16   37  -0.045  -0.248   0.103
    1UNL    H17   38  -0.183  -0.312   0.034
    1UNL    H18   39  -0.229  -0.159   0.237
    1UNL    H19   40  -0.332  -0.133   0.094
    1UNL    H20   41  -0.268   0.065   0.165
    1UNL    H21   42  -0.101   0.029   0.180
    1UNL    H22   43  -0.069   0.014  -0.201
   0.00000   0.00000   0.00000   0.00000   0.00000   0.00000   0.00000   0.00000   0.00000
Generated with MDTraj, t= 34.0
 43
    1UNL     C1    1  -0.429   0.113  -0.020
    1UNL     C2    2  -0.297   0.090  -0.107
    1UNL     C3    3  -0.167   0.087  -0.021
    1UNL     C4    4  -0.096   0.225  -0.003
    1UNL     C5    5   0.034   0.242   0.008
    1UNL     N1    6   0.122   0.130   0.006
    1UNL     C6    7   0.070   0.007  -0.031
    1UNL     C7    8   0.168  -0.088  -0.022
    1UNL     C8    9   0.292  -0.032   0.033
    1UNL     C9   10   0.414  -0.077   0.079
    1UNL    C10   11   0.513   0.010   0.115
    1UNL    C11   12   0.483   0.146   0.107
    1UNL    C12   13   0.358   0.194   0.082
    1UNL    C13   14   0.257   0.105   0.041
    1UNL    C14   15   0.152  -0.219  -0.102
    1UNL    C15   16   0.010  -0.245  -0.154
    1UNL     N2   17  -0.097  -0.163  -0.091
    1UNL    C16   18  -0.126  -0.199   0.046
    1UNL    C17   19  -0.239  -0.116   0.110
    1UNL    C18   20  -0.195   0.035   0.120
    1UNL    C19   21  -0.062  -0.013  -0.097
    1UNL     H1   22  -0.443   0.218   0.011
    1UNL     H2   23  -0.510   0.067  -0.086
    1UNL     H3   24  -0.423   0.062   0.075
    1UNL     H4   25  -0.285   0.170  -0.183
    1UNL     H5   26  -0.306  -0.011  -0.159
    1UNL     H6   27  -0.162   0.304  -0.013
    1UNL     H7   28   0.073   0.336   0.012
    1UNL     H8   29   0.436  -0.183   0.069
    1UNL     H9   30   0.622  -0.007   0.126
    1UNL    H10   31   0.558   0.223   0.132
    1UNL    H11   32   0.326   0.293   0.100
    1UNL    H12   33   0.231  -0.232  -0.170
    1UNL    H13   34   0.175  -0.292  -0.023
    1UNL    H14   35   0.025  -0.224  -0.266
    1UNL    H15   36  -0.027  -0.347  -0.143
    1UNL    H16   37  -0.039  -0.180   0.108
    1UNL    H17   38  -0.139  -0.305   0.047
    1UNL    H18   39  -0.265  -0.149   0.215
    1UNL    H19   40  -0.328  -0.124   0.047
    1UNL    H20   41  -0.267   0.096   0.168
    1UNL    H21   42  -0.111   0.034   0.185
    1UNL    H22   43  -0.061   0.019  -0.204
   0.00000   0.00000   0.00000   0.00000   0.00000   0.00000   0.00000   0.00000   0.00000
Generated with MDTraj, t= 35.0
 43
    1UNL     C1    1  -0.410   0.169  -0.054
    1UNL     C2    2  -0.298   0.078  -0.098
    1UNL     C3    3  -0.168   0.077  -0.017
    1UNL     C4    4  -0.100   0.217  -0.016
    1UNL     C5    5   0.029   0.235   0.000
    1UNL     N1    6   0.117   0.119   0.007
    1UNL     C6    7   0.079   0.003  -0.049
    1UNL     C7    8   0.178  -0.088  -0.051
    1UNL     C8    9   0.293  -0.020   0.002
    1UNL     C9   10   0.429  -0.059   0.018
    1UNL    C10   11   0.510   0.022   0.091
    1UNL    C11   12   0.465   0.143   0.151
    1UNL    C12   13   0.343   0.192   0.121
    1UNL    C13   14   0.252   0.106   0.051
    1UNL    C14   15   0.147  -0.234  -0.075
    1UNL    C15   16   0.012  -0.248  -0.146
    1UNL     N2   17  -0.097  -0.161  -0.083
    1UNL    C16   18  -0.120  -0.204   0.060
    1UNL    C17   19  -0.228  -0.122   0.131
    1UNL    C18   20  -0.195   0.031   0.133
    1UNL    C19   21  -0.068  -0.022  -0.088
    1UNL     H1   22  -0.394   0.225   0.039
    1UNL     H2   23  -0.451   0.226  -0.146
    1UNL     H3   24  -0.500   0.116  -0.017
    1UNL     H4   25  -0.265   0.096  -0.203
    1UNL     H5   26  -0.330  -0.038  -0.098
    1UNL     H6   27  -0.173   0.302  -0.012
    1UNL     H7   28   0.073   0.333   0.031
    1UNL     H8   29   0.474  -0.154  -0.015
    1UNL     H9   30   0.611  -0.006   0.096
    1UNL    H10   31   0.535   0.204   0.203
    1UNL    H11   32   0.287   0.270   0.176
    1UNL    H12   33   0.223  -0.267  -0.139
    1UNL    H13   34   0.161  -0.298   0.013
    1UNL    H14   35   0.017  -0.203  -0.252
    1UNL    H15   36  -0.006  -0.356  -0.154
    1UNL    H16   37  -0.025  -0.199   0.109
    1UNL    H17   38  -0.153  -0.307   0.068
    1UNL    H18   39  -0.248  -0.167   0.232
    1UNL    H19   40  -0.323  -0.136   0.077
    1UNL    H20   41  -0.269   0.086   0.182
    1UNL    H21   42  -0.105   0.054   0.187
    1UNL    H22   43  -0.082   0.011  -0.194
   0.00000   0.00000   0.00000   0.00000   0.00000   0.00000   0.00000   0.00000   0.00000
Generated with MDTraj, t= 36.0
 43
    1UNL     C1    1  -0.400   0.196  -0.062
    1UNL     C2    2  -0.290   0.100  -0.112
    1UNL     C3    3  -0.166   0.076  -0.020
    1UNL     C4    4  -0.101   0.214   0.011
    1UNL     C5    5   0.027   0.231   0.036
    1UNL     N1    6   0.112   0.118   0.017
    1UNL     C6    7   0.074   0.008  -0.063
    1UNL     C7    8   0.177  -0.083  -0.065
    1UNL     C8    9   0.281  -0.026   0.006
    1UNL     C9   10   0.408  -0.071   0.032
    1UNL    C10   11   0.494   0.017   0.100
    1UNL    C11   12   0.457   0.151   0.126
    1UNL    C12   13   0.335   0.204   0.100
    1UNL    C13   14   0.243   0.103   0.059
    1UNL    C14   15   0.170  -0.225  -0.118
    1UNL    C15   16   0.021  -0.270  -0.131
    1UNL     N2   17  -0.086  -0.177  -0.059
    1UNL    C16   18  -0.109  -0.205   0.078
    1UNL    C17   19  -0.226  -0.126   0.129
    1UNL    C18   20  -0.200   0.020   0.123
    1UNL    C19   21  -0.067  -0.030  -0.095
    1UNL     H1   22  -0.366   0.257   0.020
    1UNL     H2   23  -0.439   0.256  -0.153
    1UNL     H3   24  -0.485   0.147  -0.012
    1UNL     H4   25  -0.245   0.143  -0.204
    1UNL     H5   26  -0.332  -0.008  -0.144
    1UNL     H6   27  -0.157   0.302  -0.011
    1UNL     H7   28   0.069   0.330   0.026
    1UNL     H8   29   0.436  -0.169   0.010
    1UNL     H9   30   0.602  -0.010   0.117
    1UNL    H10   31   0.534   0.218   0.167
    1UNL    H11   32   0.309   0.303   0.123
    1UNL    H12   33   0.222  -0.233  -0.208
    1UNL    H13   34   0.233  -0.292  -0.057
    1UNL    H14   35  -0.001  -0.275  -0.244
    1UNL    H15   36   0.003  -0.370  -0.090
    1UNL    H16   37  -0.028  -0.174   0.143
    1UNL    H17   38  -0.121  -0.314   0.088
    1UNL    H18   39  -0.234  -0.152   0.237
    1UNL    H19   40  -0.321  -0.160   0.085
    1UNL    H20   41  -0.275   0.080   0.160
    1UNL    H21   42  -0.117   0.049   0.188
    1UNL    H22   43  -0.081  -0.016  -0.206
   0.00000   0.00000   0.00000   0.00000   0.00000   0.00000   0.00000   0.00000   0.00000
Generated with MDTraj, t= 37.0
 43
    1UNL     C1    1  -0.429   0.126  -0.064
    1UNL     C2    2  -0.289   0.079  -0.106
    1UNL     C3    3  -0.170   0.086  -0.007
    1UNL     C4    4  -0.099   0.224  -0.008
    1UNL     C5    5   0.033   0.241   0.006
    1UNL     N1    6   0.122   0.129   0.021
    1UNL     C6    7   0.075   0.009  -0.035
    1UNL     C7    8   0.173  -0.084  -0.046
    1UNL     C8    9   0.294  -0.022   0.009
    1UNL     C9   10   0.425  -0.075   0.032
    1UNL    C10   11   0.516   0.007   0.096
    1UNL    C11   12   0.488   0.142   0.126
    1UNL    C12   13   0.359   0.192   0.096
    1UNL    C13   14   0.258   0.107   0.051
    1UNL    C14   15   0.150  -0.223  -0.088
    1UNL    C15   16   0.013  -0.232  -0.152
    1UNL     N2   17  -0.095  -0.157  -0.069
    1UNL    C16   18  -0.129  -0.213   0.062
    1UNL    C17   19  -0.249  -0.124   0.121
    1UNL    C18   20  -0.209   0.027   0.128
    1UNL    C19   21  -0.064  -0.009  -0.072
    1UNL     H1   22  -0.425   0.232  -0.044
    1UNL     H2   23  -0.497   0.104  -0.154
    1UNL     H3   24  -0.464   0.082   0.030
    1UNL     H4   25  -0.262   0.143  -0.194
    1UNL     H5   26  -0.296  -0.029  -0.139
    1UNL     H6   27  -0.171   0.302   0.006
    1UNL     H7   28   0.069   0.336   0.033
    1UNL     H8   29   0.470  -0.172  -0.007
    1UNL     H9   30   0.614  -0.019   0.122
    1UNL    H10   31   0.555   0.203   0.180
    1UNL    H11   32   0.341   0.300   0.101
    1UNL    H12   33   0.225  -0.257  -0.153
    1UNL    H13   34   0.162  -0.292  -0.004
    1UNL    H14   35   0.018  -0.178  -0.253
    1UNL    H15   36  -0.019  -0.338  -0.166
    1UNL    H16   37  -0.041  -0.212   0.125
    1UNL    H17   38  -0.167  -0.318   0.057
    1UNL    H18   39  -0.292  -0.157   0.217
    1UNL    H19   40  -0.333  -0.135   0.051
    1UNL    H20   41  -0.284   0.090   0.164
    1UNL    H21   42  -0.127   0.050   0.196
    1UNL    H22   43  -0.068   0.010  -0.184
   0.00000   0.00000   0.00000   0.00000   0.00000   0.00000   0.00000   0.00000   0.00000
Generated with MDTraj, t= 38.0
 43
    1UNL     C1    1  -0.413   0.148  -0.019
    1UNL     C2    2  -0.295   0.103  -0.102
    1UNL     C3    3  -0.159   0.085  -0.029
    1UNL     C4    4  -0.096   0.222  -0.010
    1UNL     C5    5   0.033   0.235   0.023
    1UNL     N1    6   0.118   0.125   0.022
    1UNL     C6    7   0.081   0.004  -0.038
    1UNL     C7    8   0.177  -0.092  -0.028
    1UNL     C8    9   0.289  -0.031   0.028
    1UNL     C9   10   0.422  -0.068   0.053
    1UNL    C10   11   0.515   0.031   0.082
    1UNL    C11   12   0.473   0.162   0.102
    1UNL    C12   13   0.343   0.194   0.100
    1UNL    C13   14   0.252   0.100   0.061
    1UNL    C14   15   0.148  -0.237  -0.061
    1UNL    C15   16   0.018  -0.250  -0.143
    1UNL     N2   17  -0.093  -0.168  -0.095
    1UNL    C16   18  -0.151  -0.217   0.032
    1UNL    C17   19  -0.245  -0.120   0.104
    1UNL    C18   20  -0.188   0.019   0.114
    1UNL    C19   21  -0.060  -0.015  -0.097
    1UNL     H1   22  -0.395   0.241   0.032
    1UNL     H2   23  -0.507   0.164  -0.078
    1UNL     H3   24  -0.436   0.089   0.072
    1UNL     H4   25  -0.275   0.163  -0.195
    1UNL     H5   26  -0.319   0.005  -0.131
    1UNL     H6   27  -0.150   0.311  -0.045
    1UNL     H7   28   0.083   0.335   0.007
    1UNL     H8   29   0.444  -0.155   0.004
    1UNL     H9   30   0.621  -0.005   0.095
    1UNL    H10   31   0.546   0.241   0.131
    1UNL    H11   32   0.318   0.296   0.114
    1UNL    H12   33   0.226  -0.286  -0.111
    1UNL    H13   34   0.142  -0.292   0.034
    1UNL    H14   35   0.034  -0.216  -0.250
    1UNL    H15   36  -0.014  -0.357  -0.133
    1UNL    H16   37  -0.074  -0.245   0.104
    1UNL    H17   38  -0.201  -0.316   0.006
    1UNL    H18   39  -0.268  -0.153   0.206
    1UNL    H19   40  -0.344  -0.113   0.058
    1UNL    H20   41  -0.243   0.083   0.176
    1UNL    H21   42  -0.091   0.011   0.161
    1UNL    H22   43  -0.053   0.004  -0.209
   0.00000   0.00000   0.00000   0.00000   0.00000   0.00000   0.00000   0.00000   0.00000
Generated with MDTraj, t= 39.0
 43
    1UNL     C1    1  -0.400   0.195  -0.060
    1UNL     C2    2  -0.289   0.095  -0.108
    1UNL     C3    3  -0.163   0.074  -0.008
    1UNL     C4    4  -0.104   0.211   0.014
    1UNL     C5    5   0.031   0.232   0.018
    1UNL     N1    6   0.116   0.125   0.005
    1UNL     C6    7   0.073   0.005  -0.040
    1UNL     C7    8   0.172  -0.091  -0.040
    1UNL     C8    9   0.291  -0.024   0.012
    1UNL     C9   10   0.412  -0.073   0.064
    1UNL    C10   11   0.502   0.018   0.104
    1UNL    C11   12   0.476   0.158   0.114
    1UNL    C12   13   0.347   0.207   0.085
    1UNL    C13   14   0.255   0.116   0.029
    1UNL    C14   15   0.153  -0.226  -0.085
    1UNL    C15   16   0.009  -0.244  -0.153
    1UNL     N2   17  -0.095  -0.163  -0.081
    1UNL    C16   18  -0.120  -0.222   0.047
    1UNL    C17   19  -0.232  -0.152   0.125
    1UNL    C18   20  -0.202   0.004   0.129
    1UNL    C19   21  -0.065  -0.019  -0.081
    1UNL     H1   22  -0.353   0.286  -0.024
    1UNL     H2   23  -0.465   0.224  -0.144
    1UNL     H3   24  -0.453   0.161   0.032
    1UNL     H4   25  -0.253   0.146  -0.204
    1UNL     H5   26  -0.325   0.003  -0.128
    1UNL     H6   27  -0.161   0.292   0.048
    1UNL     H7   28   0.070   0.322   0.048
    1UNL     H8   29   0.430  -0.185   0.060
    1UNL     H9   30   0.597  -0.019   0.127
    1UNL    H10   31   0.548   0.215   0.165
    1UNL    H11   32   0.303   0.302   0.113
    1UNL    H12   33   0.230  -0.247  -0.154
    1UNL    H13   34   0.174  -0.300  -0.006
    1UNL    H14   35   0.013  -0.204  -0.258
    1UNL    H15   36  -0.037  -0.346  -0.145
    1UNL    H16   37  -0.024  -0.222   0.100
    1UNL    H17   38  -0.145  -0.333   0.036
    1UNL    H18   39  -0.244  -0.183   0.228
    1UNL    H19   40  -0.330  -0.162   0.078
    1UNL    H20   41  -0.288   0.058   0.165
    1UNL    H21   42  -0.120   0.025   0.194
    1UNL    H22   43  -0.062   0.008  -0.193
   0.00000   0.00000   0.00000   0.00000   0.00000   0.00000   0.00000   0.00000   0.00000
Generated with MDTraj, t= 40.0
 43
    1UNL     C1    1  -0.408   0.179  -0.063
    1UNL     C2    2  -0.302   0.082  -0.108
    1UNL     C3    3  -0.171   0.076  -0.015
    1UNL     C4    4  -0.108   0.213   0.003
    1UNL     C5    5   0.024   0.237   0.018
    1UNL     N1    6   0.117   0.132   0.011
    1UNL     C6    7   0.075   0.010  -0.045
    1UNL     C7    8   0.178  -0.082  -0.059
    1UNL     C8    9   0.297  -0.014  -0.015
    1UNL     C9   10   0.422  -0.063   0.024
    1UNL    C10   11   0.510   0.007   0.102
    1UNL    C11   12   0.469   0.132   0.148
    1UNL    C12   13   0.344   0.184   0.119
    1UNL    C13   14   0.256   0.110   0.038
    1UNL    C14   15   0.153  -0.217  -0.111
    1UNL    C15   16   0.009  -0.259  -0.140
    1UNL     N2   17  -0.084  -0.169  -0.064
    1UNL    C16   18  -0.104  -0.195   0.079
    1UNL    C17   19  -0.231  -0.133   0.122
    1UNL    C18   20  -0.216   0.018   0.122
    1UNL    C19   21  -0.061  -0.019  -0.084
    1UNL     H1   22  -0.374   0.284  -0.075
    1UNL     H2   23  -0.495   0.170  -0.129
    1UNL     H3   24  -0.425   0.176   0.048
    1UNL     H4   25  -0.264   0.121  -0.208
    1UNL     H5   26  -0.346  -0.013  -0.115
    1UNL     H6   27  -0.177   0.300   0.007
    1UNL     H7   28   0.059   0.343   0.043
    1UNL     H8   29   0.427  -0.167   0.008
    1UNL     H9   30   0.612  -0.035   0.120
    1UNL    H10   31   0.540   0.192   0.209
    1UNL    H11   32   0.305   0.267   0.177
    1UNL    H12   33   0.222  -0.243  -0.189
    1UNL    H13   34   0.197  -0.282  -0.033
    1UNL    H14   35  -0.033  -0.254  -0.243
    1UNL    H15   36  -0.008  -0.362  -0.097
    1UNL    H16   37  -0.023  -0.151   0.141
    1UNL    H17   38  -0.108  -0.306   0.104
    1UNL    H18   39  -0.259  -0.161   0.222
    1UNL    H19   40  -0.312  -0.156   0.051
    1UNL    H20   41  -0.312   0.059   0.160
    1UNL    H21   42  -0.144   0.050   0.192
    1UNL    H22   43  -0.055  -0.007  -0.199
   0.00000   0.00000   0.00000   0.00000   0.00000   0.00000   0.00000   0.00000   0.00000
Generated with MDTraj, t= 41.0
 43
    1UNL     C1    1  -0.398   0.159  -0.035
    1UNL     C2    2  -0.293   0.076  -0.104
    1UNL     C3    3  -0.157   0.080  -0.035
    1UNL     C4    4  -0.095   0.220  -0.022
    1UNL     C5    5   0.029   0.235   0.022
    1UNL     N1    6   0.108   0.114   0.022
    1UNL     C6    7   0.076  -0.007  -0.045
    1UNL     C7    8   0.178  -0.095  -0.057
    1UNL     C8    9   0.285  -0.022   0.012
    1UNL     C9   10   0.426  -0.054   0.024
    1UNL    C10   11   0.511   0.035   0.086
    1UNL    C11   12   0.457   0.149   0.149
    1UNL    C12   13   0.324   0.181   0.136
    1UNL    C13   14   0.238   0.095   0.072
    1UNL    C14   15   0.145  -0.230  -0.115
    1UNL    C15   16  -0.004  -0.264  -0.143
    1UNL     N2   17  -0.104  -0.166  -0.082
    1UNL    C16   18  -0.115  -0.200   0.059
    1UNL    C17   19  -0.215  -0.104   0.130
    1UNL    C18   20  -0.172   0.045   0.117
    1UNL    C19   21  -0.063  -0.021  -0.096
    1UNL     H1   22  -0.372   0.252   0.026
    1UNL     H2   23  -0.474   0.197  -0.101
    1UNL     H3   24  -0.443   0.103   0.050
    1UNL     H4   25  -0.272   0.106  -0.211
    1UNL     H5   26  -0.312  -0.034  -0.104
    1UNL     H6   27  -0.152   0.297  -0.068
    1UNL     H7   28   0.072   0.327   0.037
    1UNL     H8   29   0.463  -0.147  -0.015
    1UNL     H9   30   0.615   0.019   0.078
    1UNL    H10   31   0.525   0.224   0.183
    1UNL    H11   32   0.288   0.270   0.182
    1UNL    H12   33   0.204  -0.239  -0.204
    1UNL    H13   34   0.196  -0.308  -0.057
    1UNL    H14   35  -0.025  -0.276  -0.252
    1UNL    H15   36  -0.041  -0.358  -0.095
    1UNL    H16   37  -0.016  -0.193   0.112
    1UNL    H17   38  -0.156  -0.306   0.070
    1UNL    H18   39  -0.232  -0.132   0.232
    1UNL    H19   40  -0.312  -0.116   0.079
    1UNL    H20   41  -0.234   0.124   0.167
    1UNL    H21   42  -0.078   0.063   0.161
    1UNL    H22   43  -0.050   0.000  -0.209
   0.00000   0.00000   0.00000   0.00000   0.00000   0.00000   0.00000   0.00000   0.00000
Generated with MDTraj, t= 42.0
 43
    1UNL     C1    1  -0.427   0.138  -0.027
    1UNL     C2    2  -0.303   0.075  -0.095
    1UNL     C3    3  -0.166   0.080  -0.012
    1UNL     C4    4  -0.101   0.215  -0.005
    1UNL     C5    5   0.029   0.241  -0.001
    1UNL     N1    6   0.128   0.136   0.000
    1UNL     C6    7   0.073   0.020  -0.048
    1UNL     C7    8   0.163  -0.079  -0.022
    1UNL     C8    9   0.285  -0.022   0.027
    1UNL     C9   10   0.405  -0.079   0.065
    1UNL    C10   11   0.506  -0.000   0.112
    1UNL    C11   12   0.484   0.136   0.122
    1UNL    C12   13   0.364   0.197   0.085
    1UNL    C13   14   0.260   0.118   0.038
    1UNL    C14   15   0.150  -0.221  -0.075
    1UNL    C15   16   0.018  -0.240  -0.158
    1UNL     N2   17  -0.094  -0.155  -0.096
    1UNL    C16   18  -0.121  -0.202   0.040
    1UNL    C17   19  -0.232  -0.130   0.115
    1UNL    C18   20  -0.187   0.015   0.129
    1UNL    C19   21  -0.069  -0.009  -0.101
    1UNL     H1   22  -0.420   0.248   0.006
    1UNL     H2   23  -0.501   0.139  -0.105
    1UNL     H3   24  -0.441   0.080   0.068
    1UNL     H4   25  -0.278   0.129  -0.190
    1UNL     H5   26  -0.325  -0.038  -0.128
    1UNL     H6   27  -0.164   0.298   0.025
    1UNL     H7   28   0.065   0.341   0.026
    1UNL     H8   29   0.422  -0.187   0.044
    1UNL     H9   30   0.608  -0.032   0.137
    1UNL    H10   31   0.555   0.201   0.172
    1UNL    H11   32   0.353   0.307   0.087
    1UNL    H12   33   0.234  -0.252  -0.135
    1UNL    H13   34   0.147  -0.294   0.003
    1UNL    H14   35   0.020  -0.220  -0.265
    1UNL    H15   36  -0.010  -0.348  -0.145
    1UNL    H16   37  -0.025  -0.196   0.102
    1UNL    H17   38  -0.153  -0.310   0.034
    1UNL    H18   39  -0.245  -0.173   0.212
    1UNL    H19   40  -0.330  -0.143   0.065
    1UNL    H20   41  -0.255   0.080   0.191
    1UNL    H21   42  -0.096   0.027   0.179
    1UNL    H22   43  -0.079   0.020  -0.213
   0.00000   0.00000   0.00000   0.00000   0.00000   0.00000   0.00000   0.00000   0.00000
Generated with MDTraj, t= 43.0
 43
    1UNL     C1    1  -0.417   0.163  -0.025
    1UNL     C2    2  -0.289   0.116  -0.096
    1UNL     C3    3  -0.161   0.079  -0.010
    1UNL     C4    4  -0.091   0.210   0.026
    1UNL     C5    5   0.040   0.228   0.018
    1UNL     N1    6   0.124   0.121  -0.015
    1UNL     C6    7   0.079  -0.003  -0.046
    1UNL     C7    8   0.179  -0.096  -0.031
    1UNL     C8    9   0.292  -0.027   0.022
    1UNL     C9   10   0.423  -0.071   0.070
    1UNL    C10   11   0.502   0.030   0.123
    1UNL    C11   12   0.471   0.168   0.117
    1UNL    C12   13   0.352   0.214   0.070
    1UNL    C13   14   0.258   0.113   0.026
    1UNL    C14   15   0.152  -0.238  -0.082
    1UNL    C15   16   0.014  -0.251  -0.149
    1UNL     N2   17  -0.101  -0.169  -0.094
    1UNL    C16   18  -0.143  -0.215   0.039
    1UNL    C17   19  -0.251  -0.133   0.102
    1UNL    C18   20  -0.201   0.007   0.122
    1UNL    C19   21  -0.064  -0.021  -0.087
    1UNL     H1   22  -0.405   0.263   0.028
    1UNL     H2   23  -0.480   0.183  -0.109
    1UNL     H3   24  -0.435   0.086   0.053
    1UNL     H4   25  -0.256   0.203  -0.158
    1UNL     H5   26  -0.317   0.024  -0.171
    1UNL     H6   27  -0.157   0.292   0.057
    1UNL     H7   28   0.088   0.326   0.012
    1UNL     H8   29   0.472  -0.159   0.046
    1UNL     H9   30   0.595   0.000   0.167
    1UNL    H10   31   0.535   0.237   0.172
    1UNL    H11   32   0.326   0.316   0.065
    1UNL    H12   33   0.217  -0.257  -0.169
    1UNL    H13   34   0.170  -0.316  -0.012
    1UNL    H14   35   0.031  -0.207  -0.247
    1UNL    H15   36  -0.020  -0.358  -0.162
    1UNL    H16   37  -0.049  -0.205   0.106
    1UNL    H17   38  -0.162  -0.326   0.031
    1UNL    H18   39  -0.287  -0.172   0.196
    1UNL    H19   40  -0.340  -0.136   0.036
    1UNL    H20   41  -0.271   0.074   0.176
    1UNL    H21   42  -0.116   0.001   0.185
    1UNL    H22   43  -0.070   0.020  -0.195
   0.00000   0.00000   0.00000   0.00000   0.00000   0.00000   0.00000   0.00000   0.00000
Generated with MDTraj, t= 44.0
 43
    1UNL     C1    1  -0.400   0.185  -0.062
    1UNL     C2    2  -0.293   0.095  -0.115
    1UNL     C3    3  -0.169   0.073  -0.024
    1UNL     C4    4  -0.107   0.212   0.001
    1UNL     C5    5   0.019   0.230   0.034
    1UNL     N1    6   0.115   0.130   0.028
    1UNL     C6    7   0.069   0.012  -0.041
    1UNL     C7    8   0.173  -0.077  -0.050
    1UNL     C8    9   0.288  -0.019   0.006
    1UNL     C9   10   0.422  -0.056   0.014
    1UNL    C10   11   0.519   0.023   0.076
    1UNL    C11   12   0.479   0.145   0.131
    1UNL    C12   13   0.352   0.189   0.119
    1UNL    C13   14   0.252   0.105   0.062
    1UNL    C14   15   0.159  -0.226  -0.073
    1UNL    C15   16   0.023  -0.257  -0.136
    1UNL     N2   17  -0.086  -0.173  -0.073
    1UNL    C16   18  -0.139  -0.222   0.051
    1UNL    C17   19  -0.245  -0.129   0.113
    1UNL    C18   20  -0.200   0.017   0.123
    1UNL    C19   21  -0.064  -0.024  -0.089
    1UNL     H1   22  -0.381   0.293  -0.039
    1UNL     H2   23  -0.475   0.196  -0.136
    1UNL     H3   24  -0.438   0.147   0.034
    1UNL     H4   25  -0.254   0.121  -0.218
    1UNL     H5   26  -0.329  -0.012  -0.136
    1UNL     H6   27  -0.176   0.288   0.006
    1UNL     H7   28   0.053   0.325   0.059
    1UNL     H8   29   0.466  -0.145  -0.040
    1UNL     H9   30   0.620  -0.010   0.085
    1UNL    H10   31   0.553   0.197   0.186
    1UNL    H11   32   0.318   0.284   0.164
    1UNL    H12   33   0.249  -0.264  -0.126
    1UNL    H13   34   0.160  -0.273   0.021
    1UNL    H14   35   0.021  -0.227  -0.238
    1UNL    H15   36  -0.006  -0.366  -0.133
    1UNL    H16   37  -0.044  -0.247   0.115
    1UNL    H17   38  -0.186  -0.322   0.031
    1UNL    H18   39  -0.260  -0.175   0.210
    1UNL    H19   40  -0.346  -0.128   0.068
    1UNL    H20   41  -0.274   0.079   0.176
    1UNL    H21   42  -0.106   0.017   0.177
    1UNL    H22   43  -0.074  -0.006  -0.204
   0.00000   0.00000   0.00000   0.00000   0.00000   0.00000   0.00000   0.00000   0.00000
Generated with MDTraj, t= 45.0
 43
    1UNL     C1    1  -0.400   0.159  -0.089
    1UNL     C2    2  -0.278   0.080  -0.125
    1UNL     C3    3  -0.168   0.078  -0.017
    1UNL     C4    4  -0.102   0.211   0.002
    1UNL     C5    5   0.025   0.229   0.031
    1UNL     N1    6   0.111   0.115   0.043
    1UNL     C6    7   0.078   0.001  -0.028
    1UNL     C7    8   0.176  -0.089  -0.050
    1UNL     C8    9   0.293  -0.026   0.014
    1UNL     C9   10   0.424  -0.067   0.029
    1UNL    C10   11   0.513   0.024   0.079
    1UNL    C11   12   0.476   0.151   0.118
    1UNL    C12   13   0.346   0.188   0.117
    1UNL    C13   14   0.249   0.096   0.068
    1UNL    C14   15   0.149  -0.214  -0.126
    1UNL    C15   16  -0.002  -0.226  -0.160
    1UNL     N2   17  -0.095  -0.164  -0.062
    1UNL    C16   18  -0.115  -0.200   0.084
    1UNL    C17   19  -0.243  -0.126   0.132
    1UNL    C18   20  -0.213   0.024   0.121
    1UNL    C19   21  -0.058  -0.020  -0.073
    1UNL     H1   22  -0.384   0.267  -0.079
    1UNL     H2   23  -0.473   0.149  -0.166
    1UNL     H3   24  -0.443   0.120   0.005
    1UNL     H4   25  -0.232   0.097  -0.228
    1UNL     H5   26  -0.310  -0.024  -0.131
    1UNL     H6   27  -0.167   0.301  -0.013
    1UNL     H7   28   0.070   0.331   0.055
    1UNL     H8   29   0.451  -0.167   0.021
    1UNL     H9   30   0.623   0.009   0.073
    1UNL    H10   31   0.551   0.226   0.154
    1UNL    H11   32   0.306   0.278   0.157
    1UNL    H12   33   0.199  -0.207  -0.227
    1UNL    H13   34   0.193  -0.296  -0.076
    1UNL    H14   35  -0.024  -0.187  -0.256
    1UNL    H15   36  -0.034  -0.333  -0.166
    1UNL    H16   37  -0.025  -0.165   0.150
    1UNL    H17   38  -0.117  -0.312   0.086
    1UNL    H18   39  -0.281  -0.141   0.234
    1UNL    H19   40  -0.322  -0.162   0.063
    1UNL    H20   41  -0.305   0.076   0.143
    1UNL    H21   42  -0.133   0.044   0.194
    1UNL    H22   43  -0.056   0.004  -0.187
   0.00000   0.00000   0.00000   0.00000   0.00000   0.00000   0.00000   0.00000   0.00000
Generated with MDTraj, t= 46.0
 43
    1UNL     C1    1  -0.405   0.177  -0.034
    1UNL     C2    2  -0.298   0.094  -0.113
    1UNL     C3    3  -0.172   0.079  -0.022
    1UNL     C4    4  -0.104   0.214   0.004
    1UNL     C5    5   0.026   0.233   0.025
    1UNL     N1    6   0.120   0.125   0.010
    1UNL     C6    7   0.082   0.008  -0.047
    1UNL     C7    8   0.177  -0.084  -0.044
    1UNL     C8    9   0.294  -0.021   0.006
    1UNL     C9   10   0.419  -0.070   0.042
    1UNL    C10   11   0.508   0.019   0.092
    1UNL    C11   12   0.468   0.148   0.124
    1UNL    C12   13   0.343   0.193   0.110
    1UNL    C13   14   0.253   0.110   0.049
    1UNL    C14   15   0.162  -0.227  -0.078
    1UNL    C15   16   0.024  -0.252  -0.141
    1UNL     N2   17  -0.089  -0.168  -0.079
    1UNL    C16   18  -0.131  -0.215   0.055
    1UNL    C17   19  -0.249  -0.132   0.104
    1UNL    C18   20  -0.203   0.016   0.116
    1UNL    C19   21  -0.059  -0.018  -0.088
    1UNL     H1   22  -0.354   0.264   0.003
    1UNL     H2   23  -0.483   0.212  -0.098
    1UNL     H3   24  -0.453   0.115   0.045
    1UNL     H4   25  -0.277   0.162  -0.203
    1UNL     H5   26  -0.331   0.006  -0.149
    1UNL     H6   27  -0.158   0.303  -0.011
    1UNL     H7   28   0.071   0.323   0.042
    1UNL     H8   29   0.440  -0.177   0.028
    1UNL     H9   30   0.606  -0.016   0.094
    1UNL    H10   31   0.540   0.217   0.150
    1UNL    H11   32   0.306   0.288   0.147
    1UNL    H12   33   0.254  -0.261  -0.133
    1UNL    H13   34   0.158  -0.277   0.016
    1UNL    H14   35   0.026  -0.230  -0.244
    1UNL    H15   36  -0.003  -0.358  -0.125
    1UNL    H16   37  -0.038  -0.196   0.122
    1UNL    H17   38  -0.153  -0.326   0.062
    1UNL    H18   39  -0.281  -0.180   0.199
    1UNL    H19   40  -0.338  -0.138   0.038
    1UNL    H20   41  -0.280   0.072   0.166
    1UNL    H21   42  -0.103   0.017   0.166
    1UNL    H22   43  -0.066   0.002  -0.201
   0.00000   0.00000   0.00000   0.00000   0.00000   0.00000   0.00000   0.00000   0.00000
Generated with MDTraj, t= 47.0
 43
    1UNL     C1    1  -0.412   0.155  -0.034
    1UNL     C2    2  -0.282   0.092  -0.094
    1UNL     C3    3  -0.155   0.081  -0.012
    1UNL     C4    4  -0.097   0.221   0.006
    1UNL     C5    5   0.034   0.239   0.011
    1UNL     N1    6   0.119   0.128  -0.005
    1UNL     C6    7   0.077   0.003  -0.047
    1UNL     C7    8   0.174  -0.094  -0.034
    1UNL     C8    9   0.292  -0.026   0.013
    1UNL     C9   10   0.413  -0.069   0.068
    1UNL    C10   11   0.502   0.023   0.118
    1UNL    C11   12   0.467   0.158   0.129
    1UNL    C12   13   0.345   0.202   0.084
    1UNL    C13   14   0.257   0.111   0.019
    1UNL    C14   15   0.147  -0.230  -0.074
    1UNL    C15   16   0.016  -0.247  -0.156
    1UNL     N2   17  -0.093  -0.160  -0.096
    1UNL    C16   18  -0.161  -0.224   0.025
    1UNL    C17   19  -0.230  -0.130   0.122
    1UNL    C18   20  -0.177   0.016   0.132
    1UNL    C19   21  -0.061  -0.014  -0.087
    1UNL     H1   22  -0.397   0.246   0.015
    1UNL     H2   23  -0.490   0.188  -0.104
    1UNL     H3   24  -0.476   0.088   0.026
    1UNL     H4   25  -0.253   0.141  -0.193
    1UNL     H5   26  -0.313   0.003  -0.130
    1UNL     H6   27  -0.162   0.300   0.037
    1UNL     H7   28   0.078   0.336   0.049
    1UNL     H8   29   0.440  -0.174   0.060
    1UNL     H9   30   0.603  -0.011   0.155
    1UNL    H10   31   0.540   0.223   0.186
    1UNL    H11   32   0.321   0.306   0.097
    1UNL    H12   33   0.230  -0.257  -0.144
    1UNL    H13   34   0.156  -0.289   0.015
    1UNL    H14   35   0.026  -0.228  -0.259
    1UNL    H15   36  -0.016  -0.351  -0.141
    1UNL    H16   37  -0.089  -0.291   0.082
    1UNL    H17   38  -0.236  -0.292  -0.025
    1UNL    H18   39  -0.236  -0.178   0.223
    1UNL    H19   40  -0.335  -0.140   0.085
    1UNL    H20   41  -0.248   0.077   0.184
    1UNL    H21   42  -0.080   0.017   0.189
    1UNL    H22   43  -0.075   0.016  -0.198
   0.00000   0.00000   0.00000   0.00000   0.00000   0.00000   0.00000   0.00000   0.00000
Generated with MDTraj, t= 48.0
 43
    1UNL     C1    1  -0.424   0.150  -0.012
    1UNL     C2    2  -0.307   0.091  -0.093
    1UNL     C3    3  -0.166   0.085  -0.020
    1UNL     C4    4  -0.098   0.223  -0.013
    1UNL     C5    5   0.037   0.243  -0.003
    1UNL     N1    6   0.126   0.133  -0.004
    1UNL     C6    7   0.072   0.004  -0.037
    1UNL     C7    8   0.169  -0.092  -0.029
    1UNL     C8    9   0.280  -0.025   0.031
    1UNL     C9   10   0.408  -0.074   0.058
    1UNL    C10   11   0.501   0.008   0.112
    1UNL    C11   12   0.476   0.146   0.131
    1UNL    C12   13   0.346   0.193   0.102
    1UNL    C13   14   0.251   0.108   0.045
    1UNL    C14   15   0.154  -0.228  -0.086
    1UNL    C15   16   0.016  -0.249  -0.155
    1UNL     N2   17  -0.089  -0.163  -0.095
    1UNL    C16   18  -0.109  -0.199   0.045
    1UNL    C17   19  -0.227  -0.126   0.106
    1UNL    C18   20  -0.188   0.024   0.119
    1UNL    C19   21  -0.061  -0.018  -0.102
    1UNL     H1   22  -0.430   0.254  -0.020
    1UNL     H2   23  -0.526   0.114  -0.035
    1UNL     H3   24  -0.434   0.115   0.093
    1UNL     H4   25  -0.314   0.137  -0.196
    1UNL     H5   26  -0.332  -0.012  -0.117
    1UNL     H6   27  -0.169   0.309  -0.036
    1UNL     H7   28   0.077   0.336  -0.031
    1UNL     H8   29   0.435  -0.169   0.023
    1UNL     H9   30   0.591  -0.031   0.142
    1UNL    H10   31   0.542   0.203   0.187
    1UNL    H11   32   0.326   0.299   0.109
    1UNL    H12   33   0.240  -0.242  -0.154
    1UNL    H13   34   0.167  -0.301  -0.007
    1UNL    H14   35   0.018  -0.221  -0.257
    1UNL    H15   36  -0.021  -0.351  -0.147
    1UNL    H16   37  -0.013  -0.182   0.101
    1UNL    H17   38  -0.128  -0.311   0.045
    1UNL    H18   39  -0.246  -0.188   0.200
    1UNL    H19   40  -0.320  -0.145   0.045
    1UNL    H20   41  -0.257   0.084   0.172
    1UNL    H21   42  -0.088   0.028   0.171
    1UNL    H22   43  -0.061   0.012  -0.213
   0.00000   0.00000   0.00000   0.00000   0.00000   0.00000   0.00000   0.00000   0.00000
Generated with MDTraj, t= 49.0
 43
    1UNL     C1    1  -0.407   0.156  -0.054
    1UNL     C2    2  -0.286   0.065  -0.102
    1UNL     C3    3  -0.159   0.077  -0.025
    1UNL     C4    4  -0.098   0.216  -0.014
    1UNL     C5    5   0.032   0.233   0.020
    1UNL     N1    6   0.118   0.121   0.010
    1UNL     C6    7   0.079   0.011  -0.059
    1UNL     C7    8   0.172  -0.085  -0.059
    1UNL     C8    9   0.287  -0.022   0.003
    1UNL     C9   10   0.422  -0.063   0.025
    1UNL    C10   11   0.502   0.016   0.108
    1UNL    C11   12   0.456   0.141   0.159
    1UNL    C12   13   0.336   0.194   0.122
    1UNL    C13   14   0.250   0.112   0.049
    1UNL    C14   15   0.144  -0.226  -0.118
    1UNL    C15   16  -0.005  -0.259  -0.139
    1UNL     N2   17  -0.099  -0.159  -0.078
    1UNL    C16   18  -0.116  -0.200   0.067
    1UNL    C17   19  -0.216  -0.115   0.143
    1UNL    C18   20  -0.181   0.036   0.123
    1UNL    C19   21  -0.061  -0.014  -0.098
    1UNL     H1   22  -0.364   0.219   0.019
    1UNL     H2   23  -0.452   0.226  -0.124
    1UNL     H3   24  -0.496   0.095  -0.025
    1UNL     H4   25  -0.268   0.087  -0.209
    1UNL     H5   26  -0.339  -0.041  -0.101
    1UNL     H6   27  -0.162   0.291   0.012
    1UNL     H7   28   0.064   0.331   0.059
    1UNL     H8   29   0.448  -0.162  -0.021
    1UNL     H9   30   0.595  -0.034   0.146
    1UNL    H10   31   0.520   0.194   0.233
    1UNL    H11   32   0.312   0.288   0.168
    1UNL    H12   33   0.192  -0.236  -0.216
    1UNL    H13   34   0.191  -0.301  -0.052
    1UNL    H14   35  -0.027  -0.245  -0.242
    1UNL    H15   36  -0.034  -0.359  -0.110
    1UNL    H16   37  -0.014  -0.192   0.110
    1UNL    H17   38  -0.140  -0.311   0.065
    1UNL    H18   39  -0.219  -0.142   0.253
    1UNL    H19   40  -0.317  -0.150   0.104
    1UNL    H20   41  -0.270   0.083   0.156
    1UNL    H21   42  -0.094   0.069   0.187
    1UNL    H22   43  -0.060   0.026  -0.207
   0.00000   0.00000   0.00000   0.00000   0.00000   0.00000   0.00000   0.00000   0.00000
Generated with MDTraj, t= 50.0
 43
    1UNL     C1    1  -0.391   0.185  -0.048
    1UNL     C2    2  -0.301   0.082  -0.106
    1UNL     C3    3  -0.175   0.075  -0.027
    1UNL     C4    4  -0.110   0.215  -0.009
    1UNL     C5    5   0.023   0.239   0.016
    1UNL     N1    6   0.121   0.130   0.009
    1UNL     C6    7   0.074   0.018  -0.057
    1UNL     C7    8   0.172  -0.078  -0.058
    1UNL     C8    9   0.286  -0.020   0.012
    1UNL     C9   10   0.421  -0.066   0.027
    1UNL    C10   11   0.507   0.010   0.102
    1UNL    C11   12   0.469   0.136   0.150
    1UNL    C12   13   0.343   0.190   0.115
    1UNL    C13   14   0.250   0.110   0.053
    1UNL    C14   15   0.159  -0.223  -0.109
    1UNL    C15   16   0.008  -0.261  -0.134
    1UNL     N2   17  -0.092  -0.171  -0.067
    1UNL    C16   18  -0.102  -0.200   0.078
    1UNL    C17   19  -0.223  -0.135   0.130
    1UNL    C18   20  -0.210   0.016   0.113
    1UNL    C19   21  -0.068  -0.023  -0.098
    1UNL     H1   22  -0.358   0.213   0.050
    1UNL     H2   23  -0.393   0.286  -0.090
    1UNL     H3   24  -0.497   0.159  -0.060
    1UNL     H4   25  -0.279   0.109  -0.212
    1UNL     H5   26  -0.352  -0.028  -0.115
    1UNL     H6   27  -0.180   0.304  -0.022
    1UNL     H7   28   0.060   0.340   0.032
    1UNL     H8   29   0.441  -0.164   0.000
    1UNL     H9   30   0.610  -0.015   0.108
    1UNL    H10   31   0.544   0.201   0.190
    1UNL    H11   32   0.314   0.292   0.139
    1UNL    H12   33   0.215  -0.240  -0.201
    1UNL    H13   34   0.207  -0.294  -0.037
    1UNL    H14   35  -0.022  -0.258  -0.236
    1UNL    H15   36  -0.016  -0.361  -0.106
    1UNL    H16   37  -0.011  -0.165   0.127
    1UNL    H17   38  -0.100  -0.314   0.091
    1UNL    H18   39  -0.229  -0.171   0.238
    1UNL    H19   40  -0.317  -0.172   0.079
    1UNL    H20   41  -0.306   0.052   0.143
    1UNL    H21   42  -0.131   0.044   0.187
    1UNL    H22   43  -0.074  -0.007  -0.212
   0.00000   0.00000   0.00000   0.00000   0.00000   0.00000   0.00000   0.00000   0.00000
Generated with MDTraj, t= 51.0
 43
    1UNL     C1    1  -0.395   0.188  -0.066
    1UNL     C2    2  -0.288   0.088  -0.105
    1UNL     C3    3  -0.165   0.070  -0.009
    1UNL     C4    4  -0.103   0.209   0.013
    1UNL     C5    5   0.028   0.236   0.019
    1UNL     N1    6   0.120   0.128   0.001
    1UNL     C6    7   0.072   0.004  -0.037
    1UNL     C7    8   0.177  -0.089  -0.034
    1UNL     C8    9   0.295  -0.027   0.016
    1UNL     C9   10   0.426  -0.067   0.047
    1UNL    C10   11   0.511   0.026   0.103
    1UNL    C11   12   0.477   0.163   0.123
    1UNL    C12   13   0.348   0.205   0.091
    1UNL    C13   14   0.257   0.108   0.039
    1UNL    C14   15   0.147  -0.228  -0.087
    1UNL    C15   16   0.004  -0.241  -0.151
    1UNL     N2   17  -0.105  -0.163  -0.081
    1UNL    C16   18  -0.131  -0.225   0.052
    1UNL    C17   19  -0.239  -0.144   0.128
    1UNL    C18   20  -0.204   0.009   0.128
    1UNL    C19   21  -0.064  -0.020  -0.083
    1UNL     H1   22  -0.468   0.140  -0.002
    1UNL     H2   23  -0.366   0.275  -0.006
    1UNL     H3   24  -0.444   0.222  -0.156
    1UNL     H4   25  -0.249   0.123  -0.204
    1UNL     H5   26  -0.326  -0.016  -0.136
    1UNL     H6   27  -0.170   0.292   0.008
    1UNL     H7   28   0.058   0.336   0.042
    1UNL     H8   29   0.459  -0.173   0.038
    1UNL     H9   30   0.614  -0.006   0.118
    1UNL    H10   31   0.554   0.236   0.143
    1UNL    H11   32   0.330   0.311   0.095
    1UNL    H12   33   0.223  -0.245  -0.162
    1UNL    H13   34   0.164  -0.309  -0.010
    1UNL    H14   35   0.004  -0.217  -0.255
    1UNL    H15   36  -0.034  -0.339  -0.150
    1UNL    H16   37  -0.034  -0.234   0.099
    1UNL    H17   38  -0.163  -0.334   0.034
    1UNL    H18   39  -0.256  -0.181   0.234
    1UNL    H19   40  -0.333  -0.166   0.069
    1UNL    H20   41  -0.284   0.061   0.178
    1UNL    H21   42  -0.108   0.013   0.184
    1UNL    H22   43  -0.080   0.004  -0.195
   0.00000   0.00000   0.00000   0.00000   0.00000   0.00000   0.00000   0.00000   0.00000
Generated with MDTraj, t= 52.0
 43
    1UNL     C1    1  -0.426   0.138  -0.039
    1UNL     C2    2  -0.292   0.103  -0.111
    1UNL     C3    3  -0.161   0.083  -0.025
    1UNL     C4    4  -0.102   0.220   0.010
    1UNL     C5    5   0.027   0.229   0.035
    1UNL     N1    6   0.121   0.122   0.027
    1UNL     C6    7   0.079   0.002  -0.032
    1UNL     C7    8   0.176  -0.093  -0.026
    1UNL     C8    9   0.290  -0.026   0.027
    1UNL     C9   10   0.423  -0.066   0.048
    1UNL    C10   11   0.520   0.025   0.070
    1UNL    C11   12   0.486   0.160   0.097
    1UNL    C12   13   0.357   0.201   0.090
    1UNL    C13   14   0.263   0.109   0.047
    1UNL    C14   15   0.152  -0.232  -0.067
    1UNL    C15   16   0.020  -0.252  -0.134
    1UNL     N2   17  -0.087  -0.158  -0.080
    1UNL    C16   18  -0.152  -0.213   0.044
    1UNL    C17   19  -0.260  -0.119   0.092
    1UNL    C18   20  -0.203   0.015   0.112
    1UNL    C19   21  -0.056  -0.010  -0.094
    1UNL     H1   22  -0.434   0.074   0.049
    1UNL     H2   23  -0.423   0.245  -0.012
    1UNL     H3   24  -0.508   0.113  -0.104
    1UNL     H4   25  -0.264   0.178  -0.191
    1UNL     H5   26  -0.311   0.014  -0.165
    1UNL     H6   27  -0.166   0.301   0.027
    1UNL     H7   28   0.062   0.322   0.079
    1UNL     H8   29   0.449  -0.167   0.029
    1UNL     H9   30   0.620  -0.014   0.096
    1UNL    H10   31   0.569   0.224   0.135
    1UNL    H11   32   0.323   0.301   0.112
    1UNL    H12   33   0.229  -0.272  -0.131
    1UNL    H13   34   0.148  -0.290   0.030
    1UNL    H14   35   0.030  -0.229  -0.239
    1UNL    H15   36  -0.007  -0.353  -0.127
    1UNL    H16   37  -0.081  -0.229   0.123
    1UNL    H17   38  -0.189  -0.317   0.015
    1UNL    H18   39  -0.294  -0.169   0.189
    1UNL    H19   40  -0.345  -0.121   0.019
    1UNL    H20   41  -0.270   0.085   0.163
    1UNL    H21   42  -0.114  -0.007   0.175
    1UNL    H22   43  -0.059   0.008  -0.208
   0.00000   0.00000   0.00000   0.00000   0.00000   0.00000   0.00000   0.00000   0.00000
Generated with MDTraj, t= 53.0
 43
    1UNL     C1    1  -0.422   0.156  -0.080
    1UNL     C2    2  -0.289   0.091  -0.122
    1UNL     C3    3  -0.168   0.082  -0.011
    1UNL     C4    4  -0.107   0.219   0.013
    1UNL     C5    5   0.026   0.236   0.029
    1UNL     N1    6   0.119   0.122   0.022
    1UNL     C6    7   0.071  -0.002  -0.008
    1UNL     C7    8   0.174  -0.090  -0.025
    1UNL     C8    9   0.295  -0.026   0.018
    1UNL     C9   10   0.427  -0.069   0.025
    1UNL    C10   11   0.518   0.022   0.068
    1UNL    C11   12   0.482   0.153   0.102
    1UNL    C12   13   0.352   0.194   0.105
    1UNL    C13   14   0.257   0.110   0.048
    1UNL    C14   15   0.155  -0.223  -0.086
    1UNL    C15   16   0.017  -0.243  -0.152
    1UNL     N2   17  -0.093  -0.168  -0.073
    1UNL    C16   18  -0.128  -0.212   0.063
    1UNL    C17   19  -0.253  -0.124   0.113
    1UNL    C18   20  -0.207   0.022   0.126
    1UNL    C19   21  -0.062  -0.019  -0.064
    1UNL     H1   22  -0.483   0.081  -0.022
    1UNL     H2   23  -0.397   0.246  -0.023
    1UNL     H3   24  -0.480   0.180  -0.164
    1UNL     H4   25  -0.245   0.140  -0.215
    1UNL     H5   26  -0.297  -0.005  -0.150
    1UNL     H6   27  -0.175   0.310   0.005
    1UNL     H7   28   0.089   0.322   0.021
    1UNL     H8   29   0.448  -0.171  -0.005
    1UNL     H9   30   0.615  -0.004   0.097
    1UNL    H10   31   0.547   0.217   0.153
    1UNL    H11   32   0.313   0.290   0.134
    1UNL    H12   33   0.232  -0.231  -0.161
    1UNL    H13   34   0.166  -0.308  -0.012
    1UNL    H14   35   0.025  -0.195  -0.249
    1UNL    H15   36  -0.007  -0.343  -0.166
    1UNL    H16   37  -0.039  -0.186   0.117
    1UNL    H17   38  -0.143  -0.325   0.071
    1UNL    H18   39  -0.300  -0.172   0.204
    1UNL    H19   40  -0.327  -0.144   0.033
    1UNL    H20   41  -0.293   0.082   0.161
    1UNL    H21   42  -0.119   0.042   0.188
    1UNL    H22   43  -0.051   0.010  -0.174
   0.00000   0.00000   0.00000   0.00000   0.00000   0.00000   0.00000   0.00000   0.00000
Generated with MDTraj, t= 54.0
 43
    1UNL     C1    1  -0.388   0.208  -0.085
    1UNL     C2    2  -0.296   0.093  -0.106
    1UNL     C3    3  -0.170   0.075  -0.010
    1UNL     C4    4  -0.108   0.217   0.007
    1UNL     C5    5   0.018   0.225   0.031
    1UNL     N1    6   0.108   0.115   0.021
    1UNL     C6    7   0.070  -0.000  -0.045
    1UNL     C7    8   0.175  -0.087  -0.046
    1UNL     C8    9   0.290  -0.017   0.010
    1UNL     C9   10   0.420  -0.061   0.029
    1UNL    C10   11   0.511   0.030   0.081
    1UNL    C11   12   0.464   0.154   0.122
    1UNL    C12   13   0.337   0.189   0.111
    1UNL    C13   14   0.249   0.108   0.048
    1UNL    C14   15   0.165  -0.214  -0.122
    1UNL    C15   16   0.022  -0.271  -0.131
    1UNL     N2   17  -0.084  -0.185  -0.063
    1UNL    C16   18  -0.124  -0.215   0.075
    1UNL    C17   19  -0.240  -0.123   0.118
    1UNL    C18   20  -0.199   0.020   0.133
    1UNL    C19   21  -0.065  -0.034  -0.083
    1UNL     H1   22  -0.422   0.223   0.023
    1UNL     H2   23  -0.335   0.297  -0.122
    1UNL     H3   24  -0.479   0.195  -0.137
    1UNL     H4   25  -0.240   0.086  -0.205
    1UNL     H5   26  -0.350   0.007  -0.099
    1UNL     H6   27  -0.161   0.299   0.040
    1UNL     H7   28   0.059   0.319   0.073
    1UNL     H8   29   0.452  -0.163   0.013
    1UNL     H9   30   0.617  -0.006   0.091
    1UNL    H10   31   0.536   0.234   0.160
    1UNL    H11   32   0.302   0.284   0.147
    1UNL    H12   33   0.199  -0.197  -0.224
    1UNL    H13   34   0.239  -0.287  -0.076
    1UNL    H14   35  -0.015  -0.291  -0.231
    1UNL    H15   36   0.023  -0.363  -0.085
    1UNL    H16   37  -0.043  -0.195   0.142
    1UNL    H17   38  -0.146  -0.326   0.073
    1UNL    H18   39  -0.280  -0.170   0.214
    1UNL    H19   40  -0.320  -0.135   0.043
    1UNL    H20   41  -0.272   0.085   0.187
    1UNL    H21   42  -0.105   0.024   0.188
    1UNL    H22   43  -0.057  -0.018  -0.196
   0.00000   0.00000   0.00000   0.00000   0.00000   0.00000   0.00000   0.00000   0.00000
Generated with MDTraj, t= 55.0
 43
    1UNL     C1    1  -0.399   0.199  -0.079
    1UNL     C2    2  -0.297   0.084  -0.111
    1UNL     C3    3  -0.172   0.065  -0.015
    1UNL     C4    4  -0.104   0.203   0.015
    1UNL     C5    5   0.025   0.225   0.032
    1UNL     N1    6   0.117   0.126  -0.004
    1UNL     C6    7   0.075   0.003  -0.058
    1UNL     C7    8   0.179  -0.086  -0.062
    1UNL     C8    9   0.292  -0.020  -0.003
    1UNL     C9   10   0.424  -0.063   0.018
    1UNL    C10   11   0.507   0.026   0.091
    1UNL    C11   12   0.462   0.141   0.152
    1UNL    C12   13   0.337   0.190   0.118
    1UNL    C13   14   0.251   0.110   0.036
    1UNL    C14   15   0.149  -0.234  -0.081
    1UNL    C15   16   0.015  -0.246  -0.149
    1UNL     N2   17  -0.090  -0.169  -0.071
    1UNL    C16   18  -0.100  -0.196   0.079
    1UNL    C17   19  -0.225  -0.133   0.141
    1UNL    C18   20  -0.215   0.019   0.127
    1UNL    C19   21  -0.065  -0.023  -0.084
    1UNL     H1   22  -0.406   0.223   0.032
    1UNL     H2   23  -0.365   0.287  -0.136
    1UNL     H3   24  -0.500   0.172  -0.103
    1UNL     H4   25  -0.265   0.094  -0.220
    1UNL     H5   26  -0.343  -0.016  -0.097
    1UNL     H6   27  -0.183   0.281   0.024
    1UNL     H7   28   0.070   0.316   0.058
    1UNL     H8   29   0.458  -0.161  -0.008
    1UNL     H9   30   0.609   0.007   0.094
    1UNL    H10   31   0.535   0.208   0.185
    1UNL    H11   32   0.299   0.288   0.145
    1UNL    H12   33   0.233  -0.281  -0.133
    1UNL    H13   34   0.140  -0.283   0.020
    1UNL    H14   35   0.021  -0.208  -0.251
    1UNL    H15   36  -0.020  -0.343  -0.153
    1UNL    H16   37  -0.010  -0.155   0.117
    1UNL    H17   38  -0.102  -0.306   0.096
    1UNL    H18   39  -0.238  -0.164   0.249
    1UNL    H19   40  -0.313  -0.173   0.088
    1UNL    H20   41  -0.311   0.066   0.164
    1UNL    H21   42  -0.134   0.059   0.187
    1UNL    H22   43  -0.075  -0.011  -0.196
   0.00000   0.00000   0.00000   0.00000   0.00000   0.00000   0.00000   0.00000   0.00000
Generated with MDTraj, t= 56.0
 43
    1UNL     C1    1  -0.415   0.140  -0.029
    1UNL     C2    2  -0.294   0.082  -0.108
    1UNL     C3    3  -0.162   0.075  -0.024
    1UNL     C4    4  -0.097   0.214  -0.017
    1UNL     C5    5   0.031   0.237   0.004
    1UNL     N1    6   0.122   0.129   0.006
    1UNL     C6    7   0.077   0.008  -0.042
    1UNL     C7    8   0.172  -0.089  -0.029
    1UNL     C8    9   0.287  -0.026   0.034
    1UNL     C9   10   0.415  -0.068   0.059
    1UNL    C10   11   0.508   0.009   0.110
    1UNL    C11   12   0.481   0.148   0.113
    1UNL    C12   13   0.356   0.199   0.093
    1UNL    C13   14   0.252   0.111   0.052
    1UNL    C14   15   0.164  -0.211  -0.114
    1UNL    C15   16   0.011  -0.235  -0.148
    1UNL     N2   17  -0.101  -0.165  -0.077
    1UNL    C16   18  -0.136  -0.212   0.064
    1UNL    C17   19  -0.237  -0.122   0.126
    1UNL    C18   20  -0.194   0.025   0.118
    1UNL    C19   21  -0.069  -0.022  -0.092
    1UNL     H1   22  -0.472   0.063   0.027
    1UNL     H2   23  -0.378   0.223   0.033
    1UNL     H3   24  -0.498   0.178  -0.093
    1UNL     H4   25  -0.275   0.153  -0.193
    1UNL     H5   26  -0.329  -0.025  -0.148
    1UNL     H6   27  -0.164   0.297  -0.033
    1UNL     H7   28   0.068   0.343   0.022
    1UNL     H8   29   0.432  -0.176   0.057
    1UNL     H9   30   0.607  -0.023   0.147
    1UNL    H10   31   0.561   0.221   0.142
    1UNL    H11   32   0.336   0.304   0.094
    1UNL    H12   33   0.223  -0.201  -0.206
    1UNL    H13   34   0.201  -0.298  -0.055
    1UNL    H14   35  -0.004  -0.206  -0.252
    1UNL    H15   36  -0.011  -0.337  -0.141
    1UNL    H16   37  -0.050  -0.214   0.125
    1UNL    H17   38  -0.172  -0.315   0.047
    1UNL    H18   39  -0.247  -0.155   0.234
    1UNL    H19   40  -0.336  -0.129   0.078
    1UNL    H20   41  -0.273   0.097   0.154
    1UNL    H21   42  -0.112   0.036   0.186
    1UNL    H22   43  -0.070  -0.011  -0.204
   0.00000   0.00000   0.00000   0.00000   0.00000   0.00000   0.00000   0.00000   0.00000
Generated with MDTraj, t= 57.0
 43
    1UNL     C1    1  -0.409   0.132  -0.019
    1UNL     C2    2  -0.298   0.084  -0.107
    1UNL     C3    3  -0.160   0.083  -0.025
    1UNL     C4    4  -0.096   0.221  -0.009
    1UNL     C5    5   0.034   0.243   0.014
    1UNL     N1    6   0.123   0.130  -0.000
    1UNL     C6    7   0.078   0.015  -0.059
    1UNL     C7    8   0.170  -0.086  -0.039
    1UNL     C8    9   0.281  -0.030   0.027
    1UNL     C9   10   0.420  -0.069   0.048
    1UNL    C10   11   0.510   0.021   0.096
    1UNL    C11   12   0.468   0.150   0.132
    1UNL    C12   13   0.347   0.195   0.099
    1UNL    C13   14   0.252   0.108   0.041
    1UNL    C14   15   0.134  -0.234  -0.053
    1UNL    C15   16   0.016  -0.246  -0.151
    1UNL     N2   17  -0.093  -0.161  -0.095
    1UNL    C16   18  -0.135  -0.215   0.046
    1UNL    C17   19  -0.233  -0.121   0.118
    1UNL    C18   20  -0.174   0.026   0.116
    1UNL    C19   21  -0.067  -0.013  -0.102
    1UNL     H1   22  -0.417   0.082   0.078
    1UNL     H2   23  -0.406   0.239   0.006
    1UNL     H3   24  -0.517   0.108  -0.044
    1UNL     H4   25  -0.294   0.155  -0.194
    1UNL     H5   26  -0.323  -0.028  -0.147
    1UNL     H6   27  -0.167   0.297   0.011
    1UNL     H7   28   0.063   0.334   0.052
    1UNL     H8   29   0.449  -0.166   0.017
    1UNL     H9   30   0.600  -0.023   0.136
    1UNL    H10   31   0.533   0.209   0.191
    1UNL    H11   32   0.313   0.299   0.108
    1UNL    H12   33   0.225  -0.277  -0.098
    1UNL    H13   34   0.120  -0.279   0.047
    1UNL    H14   35   0.047  -0.194  -0.240
    1UNL    H15   36  -0.018  -0.343  -0.178
    1UNL    H16   37  -0.041  -0.211   0.101
    1UNL    H17   38  -0.172  -0.317   0.037
    1UNL    H18   39  -0.250  -0.149   0.226
    1UNL    H19   40  -0.330  -0.131   0.066
    1UNL    H20   41  -0.230   0.091   0.189
    1UNL    H21   42  -0.073   0.029   0.155
    1UNL    H22   43  -0.079   0.011  -0.209
   0.00000   0.00000   0.00000   0.00000   0.00000   0.00000   0.00000   0.00000   0.00000
Generated with MDTraj, t= 58.0
 43
    1UNL     C1    1  -0.405   0.184  -0.051
    1UNL     C2    2  -0.290   0.094  -0.108
    1UNL     C3    3  -0.171   0.075  -0.019
    1UNL     C4    4  -0.105   0.209  -0.000
    1UNL     C5    5   0.026   0.230   0.019
    1UNL     N1    6   0.120   0.121   0.007
    1UNL     C6    7   0.080   0.000  -0.040
    1UNL     C7    8   0.182  -0.092  -0.052
    1UNL     C8    9   0.295  -0.019   0.003
    1UNL     C9   10   0.423  -0.065   0.040
    1UNL    C10   11   0.506   0.019   0.118
    1UNL    C11   12   0.464   0.151   0.140
    1UNL    C12   13   0.338   0.202   0.101
    1UNL    C13   14   0.256   0.112   0.030
    1UNL    C14   15   0.156  -0.217  -0.134
    1UNL    C15   16   0.007  -0.258  -0.138
    1UNL     N2   17  -0.089  -0.169  -0.059
    1UNL    C16   18  -0.123  -0.213   0.077
    1UNL    C17   19  -0.237  -0.131   0.123
    1UNL    C18   20  -0.206   0.017   0.123
    1UNL    C19   21  -0.057  -0.029  -0.082
    1UNL     H1   22  -0.466   0.141   0.025
    1UNL     H2   23  -0.365   0.277  -0.009
    1UNL     H3   24  -0.490   0.211  -0.125
    1UNL     H4   25  -0.263   0.140  -0.207
    1UNL     H5   26  -0.336  -0.011  -0.120
    1UNL     H6   27  -0.176   0.297  -0.003
    1UNL     H7   28   0.067   0.336   0.020
    1UNL     H8   29   0.458  -0.164   0.013
    1UNL     H9   30   0.599  -0.009   0.169
    1UNL    H10   31   0.535   0.219   0.186
    1UNL    H11   32   0.322   0.306   0.110
    1UNL    H12   33   0.204  -0.200  -0.232
    1UNL    H13   34   0.217  -0.297  -0.091
    1UNL    H14   35  -0.028  -0.236  -0.236
    1UNL    H15   36  -0.014  -0.361  -0.120
    1UNL    H16   37  -0.035  -0.199   0.140
    1UNL    H17   38  -0.157  -0.316   0.062
    1UNL    H18   39  -0.265  -0.174   0.223
    1UNL    H19   40  -0.323  -0.147   0.056
    1UNL    H20   41  -0.286   0.078   0.172
    1UNL    H21   42  -0.119   0.028   0.187
    1UNL    H22   43  -0.054  -0.015  -0.190
   0.00000   0.00000   0.00000   0.00000   0.00000   0.00000   0.00000   0.00000   0.00000
Generated with MDTraj, t= 59.0
 43
    1UNL     C1    1  -0.408   0.192  -0.090
    1UNL     C2    2  -0.299   0.085  -0.116
    1UNL     C3    3  -0.177   0.074  -0.022
    1UNL     C4    4  -0.112   0.212   0.008
    1UNL     C5    5   0.017   0.236   0.033
    1UNL     N1    6   0.112   0.127   0.025
    1UNL     C6    7   0.069   0.010  -0.039
    1UNL     C7    8   0.174  -0.077  -0.050
    1UNL     C8    9   0.290  -0.019   0.002
    1UNL     C9   10   0.422  -0.067   0.007
    1UNL    C10   11   0.513   0.015   0.073
    1UNL    C11   12   0.476   0.137   0.134
    1UNL    C12   13   0.337   0.178   0.129
    1UNL    C13   14   0.249   0.107   0.050
    1UNL    C14   15   0.155  -0.225  -0.078
    1UNL    C15   16   0.017  -0.249  -0.142
    1UNL     N2   17  -0.083  -0.163  -0.069
    1UNL    C16   18  -0.094  -0.205   0.076
    1UNL    C17   19  -0.223  -0.141   0.129
    1UNL    C18   20  -0.206   0.013   0.121
    1UNL    C19   21  -0.068  -0.018  -0.087
    1UNL     H1   22  -0.471   0.172  -0.009
    1UNL     H2   23  -0.352   0.284  -0.071
    1UNL     H3   24  -0.482   0.208  -0.178
    1UNL     H4   25  -0.250   0.112  -0.215
    1UNL     H5   26  -0.361  -0.005  -0.123
    1UNL     H6   27  -0.175   0.290   0.031
    1UNL     H7   28   0.052   0.328   0.068
    1UNL     H8   29   0.455  -0.166  -0.020
    1UNL     H9   30   0.616  -0.019   0.068
    1UNL    H10   31   0.548   0.213   0.165
    1UNL    H11   32   0.317   0.278   0.170
    1UNL    H12   33   0.233  -0.256  -0.150
    1UNL    H13   34   0.179  -0.279   0.014
    1UNL    H14   35   0.016  -0.223  -0.243
    1UNL    H15   36  -0.015  -0.351  -0.125
    1UNL    H16   37  -0.007  -0.159   0.123
    1UNL    H17   38  -0.100  -0.313   0.076
    1UNL    H18   39  -0.236  -0.165   0.237
    1UNL    H19   40  -0.313  -0.182   0.079
    1UNL    H20   41  -0.302   0.054   0.158
    1UNL    H21   42  -0.130   0.050   0.188
    1UNL    H22   43  -0.072   0.003  -0.194
   0.00000   0.00000   0.00000   0.00000   0.00000   0.00000   0.00000   0.00000   0.00000
Generated with MDTraj, t= 60.0
 43
    1UNL     C1    1  -0.406   0.163  -0.065
    1UNL     C2    2  -0.283   0.083  -0.111
    1UNL     C3    3  -0.164   0.082  -0.008
    1UNL     C4    4  -0.099   0.217   0.010
    1UNL     C5    5   0.031   0.227   0.033
    1UNL     N1    6   0.119   0.116   0.028
    1UNL     C6    7   0.079  -0.002  -0.026
    1UNL     C7    8   0.180  -0.091  -0.037
    1UNL     C8    9   0.295  -0.031   0.022
    1UNL     C9   10   0.434  -0.060   0.043
    1UNL    C10   11   0.522   0.040   0.078
    1UNL    C11   12   0.475   0.169   0.111
    1UNL    C12   13   0.341   0.197   0.100
    1UNL    C13   14   0.258   0.100   0.053
    1UNL    C14   15   0.155  -0.226  -0.102
    1UNL    C15   16   0.004  -0.251  -0.146
    1UNL     N2   17  -0.102  -0.163  -0.083
    1UNL    C16   18  -0.151  -0.219   0.049
    1UNL    C17   19  -0.255  -0.122   0.111
    1UNL    C18   20  -0.196   0.019   0.125
    1UNL    C19   21  -0.063  -0.022  -0.082
    1UNL     H1   22  -0.422   0.181   0.039
    1UNL     H2   23  -0.400   0.264  -0.106
    1UNL     H3   24  -0.508   0.122  -0.095
    1UNL     H4   25  -0.247   0.134  -0.205
    1UNL     H5   26  -0.297  -0.016  -0.132
    1UNL     H6   27  -0.153   0.312   0.007
    1UNL     H7   28   0.084   0.318   0.054
    1UNL     H8   29   0.455  -0.166   0.049
    1UNL     H9   30   0.620   0.008   0.105
    1UNL    H10   31   0.550   0.246   0.132
    1UNL    H11   32   0.302   0.292   0.133
    1UNL    H12   33   0.225  -0.244  -0.187
    1UNL    H13   34   0.170  -0.306  -0.030
    1UNL    H14   35  -0.005  -0.241  -0.250
    1UNL    H15   36  -0.016  -0.350  -0.103
    1UNL    H16   37  -0.065  -0.231   0.116
    1UNL    H17   38  -0.196  -0.312   0.020
    1UNL    H18   39  -0.301  -0.164   0.202
    1UNL    H19   40  -0.345  -0.106   0.049
    1UNL    H20   41  -0.260   0.090   0.180
    1UNL    H21   42  -0.101   0.010   0.179
    1UNL    H22   43  -0.069   0.007  -0.186
   0.00000   0.00000   0.00000   0.00000   0.00000   0.00000   0.00000   0.00000   0.00000
Generated with MDTraj, t= 61.0
 43
    1UNL     C1    1  -0.421   0.164  -0.030
    1UNL     C2    2  -0.293   0.101  -0.100
    1UNL     C3    3  -0.167   0.077  -0.015
    1UNL     C4    4  -0.108   0.211   0.006
    1UNL     C5    5   0.026   0.235   0.017
    1UNL     N1    6   0.121   0.132   0.013
    1UNL     C6    7   0.077   0.006  -0.030
    1UNL     C7    8   0.176  -0.091  -0.019
    1UNL     C8    9   0.291  -0.018   0.024
    1UNL     C9   10   0.421  -0.070   0.039
    1UNL    C10   11   0.515   0.014   0.085
    1UNL    C11   12   0.492   0.155   0.106
    1UNL    C12   13   0.365   0.202   0.089
    1UNL    C13   14   0.259   0.121   0.041
    1UNL    C14   15   0.146  -0.229  -0.052
    1UNL    C15   16   0.028  -0.248  -0.150
    1UNL     N2   17  -0.090  -0.164  -0.096
    1UNL    C16   18  -0.135  -0.216   0.041
    1UNL    C17   19  -0.257  -0.139   0.090
    1UNL    C18   20  -0.212   0.004   0.120
    1UNL    C19   21  -0.058  -0.015  -0.085
    1UNL     H1   22  -0.498   0.085  -0.014
    1UNL     H2   23  -0.388   0.208   0.065
    1UNL     H3   24  -0.469   0.243  -0.092
    1UNL     H4   25  -0.253   0.159  -0.189
    1UNL     H5   26  -0.322   0.009  -0.128
    1UNL     H6   27  -0.173   0.298  -0.007
    1UNL     H7   28   0.064   0.339   0.016
    1UNL     H8   29   0.427  -0.177   0.040
    1UNL     H9   30   0.610  -0.022   0.128
    1UNL    H10   31   0.568   0.220   0.146
    1UNL    H11   32   0.336   0.302   0.104
    1UNL    H12   33   0.235  -0.286  -0.090
    1UNL    H13   34   0.127  -0.279   0.041
    1UNL    H14   35   0.062  -0.213  -0.241
    1UNL    H15   36  -0.007  -0.354  -0.148
    1UNL    H16   37  -0.051  -0.197   0.108
    1UNL    H17   38  -0.159  -0.321   0.034
    1UNL    H18   39  -0.315  -0.175   0.176
    1UNL    H19   40  -0.332  -0.142   0.010
    1UNL    H20   41  -0.288   0.063   0.174
    1UNL    H21   42  -0.125  -0.009   0.186
    1UNL    H22   43  -0.066   0.018  -0.186
   0.00000   0.00000   0.00000   0.00000   0.00000   0.00000   0.00000   0.00000   0.00000
Generated with MDTraj, t= 62.0
 43
    1UNL     C1    1  -0.403   0.167  -0.063
    1UNL     C2    2  -0.282   0.092  -0.115
    1UNL     C3    3  -0.160   0.079  -0.012
    1UNL     C4    4  -0.099   0.217   0.020
    1UNL     C5    5   0.034   0.228   0.039
    1UNL     N1    6   0.115   0.117   0.029
    1UNL     C6    7   0.071  -0.003  -0.033
    1UNL     C7    8   0.173  -0.089  -0.051
    1UNL     C8    9   0.285  -0.022   0.016
    1UNL     C9   10   0.418  -0.064   0.051
    1UNL    C10   11   0.507   0.026   0.103
    1UNL    C11   12   0.475   0.165   0.111
    1UNL    C12   13   0.352   0.208   0.086
    1UNL    C13   14   0.259   0.113   0.041
    1UNL    C14   15   0.147  -0.227  -0.097
    1UNL    C15   16   0.007  -0.251  -0.156
    1UNL     N2   17  -0.099  -0.169  -0.082
    1UNL    C16   18  -0.137  -0.218   0.051
    1UNL    C17   19  -0.242  -0.130   0.114
    1UNL    C18   20  -0.194   0.016   0.133
    1UNL    C19   21  -0.058  -0.024  -0.086
    1UNL     H1   22  -0.411   0.152   0.051
    1UNL     H2   23  -0.394   0.273  -0.091
    1UNL     H3   24  -0.490   0.120  -0.106
    1UNL     H4   25  -0.242   0.141  -0.207
    1UNL     H5   26  -0.300  -0.007  -0.139
    1UNL     H6   27  -0.167   0.296   0.039
    1UNL     H7   28   0.070   0.321   0.062
    1UNL     H8   29   0.444  -0.165   0.021
    1UNL     H9   30   0.599  -0.011   0.136
    1UNL    H10   31   0.551   0.239   0.136
    1UNL    H11   32   0.329   0.316   0.069
    1UNL    H12   33   0.231  -0.254  -0.168
    1UNL    H13   34   0.172  -0.300  -0.021
    1UNL    H14   35  -0.007  -0.229  -0.257
    1UNL    H15   36  -0.018  -0.358  -0.141
    1UNL    H16   37  -0.048  -0.199   0.113
    1UNL    H17   38  -0.165  -0.323   0.049
    1UNL    H18   39  -0.272  -0.176   0.208
    1UNL    H19   40  -0.342  -0.119   0.064
    1UNL    H20   41  -0.273   0.074   0.182
    1UNL    H21   42  -0.101   0.024   0.192
    1UNL    H22   43  -0.064  -0.002  -0.189
   0.00000   0.00000   0.00000   0.00000   0.00000   0.00000   0.00000   0.00000   0.00000
Generated with MDTraj, t= 63.0
 43
    1UNL     C1    1  -0.401   0.185  -0.060
    1UNL     C2    2  -0.297   0.092  -0.113
    1UNL     C3    3  -0.169   0.075  -0.023
    1UNL     C4    4  -0.105   0.216  -0.010
    1UNL     C5    5   0.025   0.236   0.003
    1UNL     N1    6   0.107   0.120   0.029
    1UNL     C6    7   0.070   0.006  -0.040
    1UNL     C7    8   0.172  -0.078  -0.044
    1UNL     C8    9   0.289  -0.018   0.016
    1UNL     C9   10   0.419  -0.057   0.012
    1UNL    C10   11   0.512   0.023   0.075
    1UNL    C11   12   0.478   0.141   0.135
    1UNL    C12   13   0.343   0.181   0.138
    1UNL    C13   14   0.249   0.106   0.069
    1UNL    C14   15   0.161  -0.217  -0.100
    1UNL    C15   16   0.018  -0.258  -0.140
    1UNL     N2   17  -0.098  -0.177  -0.074
    1UNL    C16   18  -0.114  -0.213   0.066
    1UNL    C17   19  -0.226  -0.132   0.133
    1UNL    C18   20  -0.206   0.020   0.122
    1UNL    C19   21  -0.066  -0.026  -0.089
    1UNL     H1   22  -0.458   0.146   0.034
    1UNL     H2   23  -0.366   0.289  -0.039
    1UNL     H3   24  -0.479   0.196  -0.133
    1UNL     H4   25  -0.244   0.125  -0.205
    1UNL     H5   26  -0.331  -0.010  -0.140
    1UNL     H6   27  -0.169   0.306  -0.022
    1UNL     H7   28   0.079   0.333  -0.017
    1UNL     H8   29   0.446  -0.143  -0.046
    1UNL     H9   30   0.616  -0.015   0.081
    1UNL    H10   31   0.555   0.211   0.160
    1UNL    H11   32   0.313   0.274   0.172
    1UNL    H12   33   0.232  -0.227  -0.187
    1UNL    H13   34   0.214  -0.285  -0.036
    1UNL    H14   35   0.006  -0.236  -0.243
    1UNL    H15   36  -0.008  -0.365  -0.132
    1UNL    H16   37  -0.019  -0.194   0.117
    1UNL    H17   38  -0.141  -0.318   0.074
    1UNL    H18   39  -0.254  -0.153   0.235
    1UNL    H19   40  -0.320  -0.164   0.083
    1UNL    H20   41  -0.297   0.077   0.143
    1UNL    H21   42  -0.131   0.056   0.196
    1UNL    H22   43  -0.063  -0.005  -0.193
   0.00000   0.00000   0.00000   0.00000   0.00000   0.00000   0.00000   0.00000   0.00000
Generated with MDTraj, t= 64.0
 43
    1UNL     C1    1  -0.422   0.144  -0.057
    1UNL     C2    2  -0.291   0.082  -0.116
    1UNL     C3    3  -0.167   0.077  -0.015
    1UNL     C4    4  -0.100   0.214  -0.000
    1UNL     C5    5   0.029   0.232   0.029
    1UNL     N1    6   0.128   0.125   0.008
    1UNL     C6    7   0.082   0.011  -0.054
    1UNL     C7    8   0.182  -0.084  -0.068
    1UNL     C8    9   0.298  -0.027   0.005
    1UNL     C9   10   0.426  -0.066   0.033
    1UNL    C10   11   0.507   0.018   0.104
    1UNL    C11   12   0.471   0.144   0.144
    1UNL    C12   13   0.344   0.193   0.114
    1UNL    C13   14   0.261   0.104   0.040
    1UNL    C14   15   0.150  -0.231  -0.103
    1UNL    C15   16   0.008  -0.244  -0.142
    1UNL     N2   17  -0.098  -0.156  -0.080
    1UNL    C16   18  -0.124  -0.198   0.064
    1UNL    C17   19  -0.235  -0.120   0.139
    1UNL    C18   20  -0.208   0.028   0.134
    1UNL    C19   21  -0.066  -0.010  -0.094
    1UNL     H1   22  -0.459   0.076   0.024
    1UNL     H2   23  -0.402   0.250  -0.019
    1UNL     H3   24  -0.497   0.144  -0.136
    1UNL     H4   25  -0.260   0.131  -0.209
    1UNL     H5   26  -0.320  -0.028  -0.148
    1UNL     H6   27  -0.165   0.296   0.006
    1UNL     H7   28   0.075   0.318   0.061
    1UNL     H8   29   0.457  -0.171   0.025
    1UNL     H9   30   0.604  -0.018   0.130
    1UNL    H10   31   0.536   0.212   0.199
    1UNL    H11   32   0.305   0.293   0.143
    1UNL    H12   33   0.224  -0.280  -0.173
    1UNL    H13   34   0.165  -0.292  -0.017
    1UNL    H14   35  -0.006  -0.225  -0.246
    1UNL    H15   36  -0.026  -0.348  -0.123
    1UNL    H16   37  -0.032  -0.186   0.124
    1UNL    H17   38  -0.152  -0.303   0.068
    1UNL    H18   39  -0.247  -0.158   0.240
    1UNL    H19   40  -0.339  -0.132   0.102
    1UNL    H20   41  -0.288   0.088   0.177
    1UNL    H21   42  -0.116   0.058   0.187
    1UNL    H22   43  -0.074   0.024  -0.194
   0.00000   0.00000   0.00000   0.00000   0.00000   0.00000   0.00000   0.00000   0.00000
Generated with MDTraj, t= 65.0
 43
    1UNL     C1    1  -0.412   0.151  -0.006
    1UNL     C2    2  -0.298   0.085  -0.091
    1UNL     C3    3  -0.162   0.078  -0.023
    1UNL     C4    4  -0.102   0.219   0.001
    1UNL     C5    5   0.027   0.239   0.015
    1UNL     N1    6   0.121   0.130  -0.003
    1UNL     C6    7   0.077   0.010  -0.060
    1UNL     C7    8   0.177  -0.087  -0.038
    1UNL     C8    9   0.287  -0.029   0.026
    1UNL     C9   10   0.412  -0.081   0.072
    1UNL    C10   11   0.505   0.014   0.119
    1UNL    C11   12   0.470   0.152   0.121
    1UNL    C12   13   0.353   0.195   0.081
    1UNL    C13   14   0.254   0.107   0.033
    1UNL    C14   15   0.163  -0.232  -0.088
    1UNL    C15   16   0.015  -0.249  -0.149
    1UNL     N2   17  -0.093  -0.154  -0.094
    1UNL    C16   18  -0.124  -0.201   0.044
    1UNL    C17   19  -0.236  -0.130   0.107
    1UNL    C18   20  -0.197   0.021   0.122
    1UNL    C19   21  -0.064  -0.009  -0.107
    1UNL     H1   22  -0.449   0.085   0.073
    1UNL     H2   23  -0.382   0.253   0.037
    1UNL     H3   24  -0.503   0.164  -0.071
    1UNL     H4   25  -0.295   0.139  -0.185
    1UNL     H5   26  -0.335  -0.024  -0.124
    1UNL     H6   27  -0.174   0.302  -0.012
    1UNL     H7   28   0.066   0.343   0.033
    1UNL     H8   29   0.435  -0.182   0.099
    1UNL     H9   30   0.594  -0.019   0.174
    1UNL    H10   31   0.547   0.212   0.158
    1UNL    H11   32   0.328   0.298   0.093
    1UNL    H12   33   0.244  -0.252  -0.162
    1UNL    H13   34   0.183  -0.298  -0.007
    1UNL    H14   35   0.019  -0.239  -0.257
    1UNL    H15   36  -0.023  -0.349  -0.122
    1UNL    H16   37  -0.033  -0.187   0.107
    1UNL    H17   38  -0.151  -0.306   0.048
    1UNL    H18   39  -0.274  -0.168   0.202
    1UNL    H19   40  -0.319  -0.144   0.036
    1UNL    H20   41  -0.267   0.094   0.159
    1UNL    H21   42  -0.109   0.026   0.191
    1UNL    H22   43  -0.068   0.020  -0.209
   0.00000   0.00000   0.00000   0.00000   0.00000   0.00000   0.00000   0.00000   0.00000
Generated with MDTraj, t= 66.0
 43
    1UNL     C1    1  -0.391   0.162  -0.036
    1UNL     C2    2  -0.292   0.076  -0.095
    1UNL     C3    3  -0.159   0.080  -0.009
    1UNL     C4    4  -0.099   0.227  -0.001
    1UNL     C5    5   0.032   0.242  -0.011
    1UNL     N1    6   0.123   0.129  -0.001
    1UNL     C6    7   0.072   0.001  -0.024
    1UNL     C7    8   0.171  -0.089  -0.035
    1UNL     C8    9   0.285  -0.026   0.021
    1UNL     C9   10   0.420  -0.071   0.041
    1UNL    C10   11   0.505   0.020   0.099
    1UNL    C11   12   0.459   0.151   0.134
    1UNL    C12   13   0.335   0.197   0.109
    1UNL    C13   14   0.245   0.107   0.046
    1UNL    C14   15   0.156  -0.227  -0.099
    1UNL    C15   16   0.010  -0.244  -0.157
    1UNL     N2   17  -0.090  -0.161  -0.088
    1UNL    C16   18  -0.139  -0.218   0.044
    1UNL    C17   19  -0.232  -0.133   0.120
    1UNL    C18   20  -0.188   0.019   0.131
    1UNL    C19   21  -0.058  -0.015  -0.087
    1UNL     H1   22  -0.442   0.130   0.054
    1UNL     H2   23  -0.361   0.269  -0.014
    1UNL     H3   24  -0.486   0.178  -0.100
    1UNL     H4   25  -0.271   0.117  -0.194
    1UNL     H5   26  -0.339  -0.029  -0.122
    1UNL     H6   27  -0.170   0.306   0.003
    1UNL     H7   28   0.075   0.340  -0.012
    1UNL     H8   29   0.458  -0.168   0.011
    1UNL     H9   30   0.607   0.006   0.125
    1UNL    H10   31   0.535   0.224   0.173
    1UNL    H11   32   0.317   0.305   0.114
    1UNL    H12   33   0.232  -0.240  -0.179
    1UNL    H13   34   0.169  -0.302  -0.025
    1UNL    H14   35   0.006  -0.224  -0.265
    1UNL    H15   36  -0.017  -0.347  -0.131
    1UNL    H16   37  -0.056  -0.256   0.111
    1UNL    H17   38  -0.193  -0.309   0.022
    1UNL    H18   39  -0.254  -0.175   0.218
    1UNL    H19   40  -0.329  -0.127   0.071
    1UNL    H20   41  -0.268   0.068   0.182
    1UNL    H21   42  -0.092   0.033   0.186
    1UNL    H22   43  -0.044   0.016  -0.187
   0.00000   0.00000   0.00000   0.00000   0.00000   0.00000   0.00000   0.00000   0.00000
Generated with MDTraj, t= 67.0
 43
    1UNL     C1    1  -0.409   0.159  -0.064
    1UNL     C2    2  -0.281   0.091  -0.123
    1UNL     C3    3  -0.167   0.085  -0.022
    1UNL     C4    4  -0.104   0.221   0.011
    1UNL     C5    5   0.024   0.236   0.045
    1UNL     N1    6   0.111   0.119   0.027
    1UNL     C6    7   0.075   0.005  -0.039
    1UNL     C7    8   0.177  -0.086  -0.045
    1UNL     C8    9   0.292  -0.018  -0.002
    1UNL     C9   10   0.420  -0.070   0.009
    1UNL    C10   11   0.503   0.012   0.083
    1UNL    C11   12   0.467   0.139   0.132
    1UNL    C12   13   0.339   0.192   0.120
    1UNL    C13   14   0.248   0.113   0.045
    1UNL    C14   15   0.161  -0.228  -0.098
    1UNL    C15   16   0.014  -0.261  -0.139
    1UNL     N2   17  -0.081  -0.166  -0.072
    1UNL    C16   18  -0.110  -0.199   0.073
    1UNL    C17   19  -0.237  -0.127   0.122
    1UNL    C18   20  -0.215   0.029   0.119
    1UNL    C19   21  -0.061  -0.016  -0.094
    1UNL     H1   22  -0.445   0.109   0.025
    1UNL     H2   23  -0.393   0.265  -0.035
    1UNL     H3   24  -0.508   0.156  -0.128
    1UNL     H4   25  -0.266   0.145  -0.218
    1UNL     H5   26  -0.311  -0.014  -0.151
    1UNL     H6   27  -0.174   0.298   0.035
    1UNL     H7   28   0.062   0.328   0.088
    1UNL     H8   29   0.456  -0.163  -0.029
    1UNL     H9   30   0.604  -0.025   0.103
    1UNL    H10   31   0.538   0.197   0.182
    1UNL    H11   32   0.319   0.293   0.151
    1UNL    H12   33   0.232  -0.242  -0.182
    1UNL    H13   34   0.185  -0.295  -0.020
    1UNL    H14   35   0.005  -0.236  -0.247
    1UNL    H15   36  -0.007  -0.366  -0.120
    1UNL    H16   37  -0.021  -0.173   0.140
    1UNL    H17   38  -0.118  -0.306   0.091
    1UNL    H18   39  -0.267  -0.150   0.225
    1UNL    H19   40  -0.319  -0.158   0.060
    1UNL    H20   41  -0.304   0.084   0.138
    1UNL    H21   42  -0.144   0.055   0.202
    1UNL    H22   43  -0.048   0.008  -0.198
   0.00000   0.00000   0.00000   0.00000   0.00000   0.00000   0.00000   0.00000   0.00000
Generated with MDTraj, t= 68.0
 43
    1UNL     C1    1  -0.409   0.172  -0.064
    1UNL     C2    2  -0.284   0.089  -0.117
    1UNL     C3    3  -0.173   0.077  -0.017
    1UNL     C4    4  -0.102   0.211   0.010
    1UNL     C5    5   0.027   0.221   0.046
    1UNL     N1    6   0.123   0.120   0.017
    1UNL     C6    7   0.076   0.003  -0.034
    1UNL     C7    8   0.182  -0.085  -0.043
    1UNL     C8    9   0.298  -0.024   0.011
    1UNL     C9   10   0.428  -0.063   0.029
    1UNL    C10   11   0.520   0.025   0.084
    1UNL    C11   12   0.475   0.150   0.125
    1UNL    C12   13   0.349   0.202   0.104
    1UNL    C13   14   0.265   0.109   0.042
    1UNL    C14   15   0.159  -0.221  -0.096
    1UNL    C15   16   0.014  -0.246  -0.145
    1UNL     N2   17  -0.098  -0.172  -0.076
    1UNL    C16   18  -0.132  -0.212   0.061
    1UNL    C17   19  -0.250  -0.130   0.127
    1UNL    C18   20  -0.227   0.026   0.120
    1UNL    C19   21  -0.067  -0.024  -0.086
    1UNL     H1   22  -0.475   0.116   0.005
    1UNL     H2   23  -0.373   0.260  -0.012
    1UNL     H3   24  -0.484   0.206  -0.147
    1UNL     H4   25  -0.245   0.129  -0.215
    1UNL     H5   26  -0.329  -0.009  -0.142
    1UNL     H6   27  -0.163   0.304   0.002
    1UNL     H7   28   0.060   0.322   0.070
    1UNL     H8   29   0.462  -0.161  -0.001
    1UNL     H9   30   0.618  -0.012   0.101
    1UNL    H10   31   0.554   0.213   0.170
    1UNL    H11   32   0.311   0.293   0.141
    1UNL    H12   33   0.230  -0.240  -0.178
    1UNL    H13   34   0.191  -0.283  -0.017
    1UNL    H14   35   0.014  -0.208  -0.252
    1UNL    H15   36  -0.011  -0.351  -0.152
    1UNL    H16   37  -0.042  -0.217   0.132
    1UNL    H17   38  -0.161  -0.316   0.052
    1UNL    H18   39  -0.270  -0.164   0.228
    1UNL    H19   40  -0.336  -0.149   0.069
    1UNL    H20   41  -0.323   0.069   0.141
    1UNL    H21   42  -0.159   0.066   0.199
    1UNL    H22   43  -0.066  -0.004  -0.192
   0.00000   0.00000   0.00000   0.00000   0.00000   0.00000   0.00000   0.00000   0.00000
Generated with MDTraj, t= 69.0
 43
    1UNL     C1    1  -0.400   0.182  -0.043
    1UNL     C2    2  -0.290   0.095  -0.101
    1UNL     C3    3  -0.171   0.072  -0.014
    1UNL     C4    4  -0.102   0.208   0.006
    1UNL     C5    5   0.031   0.233   0.022
    1UNL     N1    6   0.123   0.130  -0.001
    1UNL     C6    7   0.075   0.003  -0.042
    1UNL     C7    8   0.175  -0.094  -0.028
    1UNL     C8    9   0.285  -0.028   0.040
    1UNL     C9   10   0.421  -0.061   0.053
    1UNL    C10   11   0.516   0.031   0.077
    1UNL    C11   12   0.489   0.167   0.105
    1UNL    C12   13   0.354   0.200   0.100
    1UNL    C13   14   0.253   0.106   0.060
    1UNL    C14   15   0.160  -0.235  -0.071
    1UNL    C15   16   0.029  -0.242  -0.157
    1UNL     N2   17  -0.095  -0.169  -0.095
    1UNL    C16   18  -0.160  -0.228   0.035
    1UNL    C17   19  -0.251  -0.136   0.120
    1UNL    C18   20  -0.208   0.009   0.124
    1UNL    C19   21  -0.067  -0.019  -0.093
    1UNL     H1   22  -0.440   0.154   0.061
    1UNL     H2   23  -0.363   0.284  -0.033
    1UNL     H3   24  -0.496   0.182  -0.103
    1UNL     H4   25  -0.252   0.134  -0.201
    1UNL     H5   26  -0.318  -0.003  -0.129
    1UNL     H6   27  -0.168   0.287   0.022
    1UNL     H7   28   0.072   0.324   0.055
    1UNL     H8   29   0.450  -0.164   0.046
    1UNL     H9   30   0.622   0.007   0.078
    1UNL    H10   31   0.557   0.245   0.132
    1UNL    H11   32   0.317   0.304   0.122
    1UNL    H12   33   0.258  -0.252  -0.119
    1UNL    H13   34   0.160  -0.302   0.012
    1UNL    H14   35   0.031  -0.197  -0.262
    1UNL    H15   36   0.003  -0.346  -0.174
    1UNL    H16   37  -0.066  -0.243   0.099
    1UNL    H17   38  -0.200  -0.329   0.030
    1UNL    H18   39  -0.263  -0.179   0.219
    1UNL    H19   40  -0.347  -0.142   0.075
    1UNL    H20   41  -0.284   0.069   0.171
    1UNL    H21   42  -0.123   0.023   0.196
    1UNL    H22   43  -0.076   0.010  -0.199
   0.00000   0.00000   0.00000   0.00000   0.00000   0.00000   0.00000   0.00000   0.00000
Generated with MDTraj, t= 70.0
 43
    1UNL     C1    1  -0.412   0.145  -0.035
    1UNL     C2    2  -0.289   0.098  -0.112
    1UNL     C3    3  -0.161   0.076  -0.019
    1UNL     C4    4  -0.102   0.206   0.016
    1UNL     C5    5   0.027   0.230   0.026
    1UNL     N1    6   0.121   0.127   0.013
    1UNL     C6    7   0.079   0.003  -0.036
    1UNL     C7    8   0.171  -0.094  -0.031
    1UNL     C8    9   0.285  -0.026   0.017
    1UNL     C9   10   0.414  -0.075   0.049
    1UNL    C10   11   0.505   0.016   0.094
    1UNL    C11   12   0.478   0.158   0.113
    1UNL    C12   13   0.355   0.208   0.087
    1UNL    C13   14   0.261   0.118   0.045
    1UNL    C14   15   0.158  -0.232  -0.081
    1UNL    C15   16   0.021  -0.238  -0.151
    1UNL     N2   17  -0.097  -0.166  -0.084
    1UNL    C16   18  -0.136  -0.213   0.050
    1UNL    C17   19  -0.246  -0.121   0.108
    1UNL    C18   20  -0.206   0.025   0.117
    1UNL    C19   21  -0.058  -0.019  -0.091
    1UNL     H1   22  -0.441   0.077   0.055
    1UNL     H2   23  -0.379   0.246  -0.003
    1UNL     H3   24  -0.500   0.146  -0.101
    1UNL     H4   25  -0.253   0.173  -0.191
    1UNL     H5   26  -0.308   0.014  -0.167
    1UNL     H6   27  -0.168   0.293   0.040
    1UNL     H7   28   0.063   0.332   0.055
    1UNL     H8   29   0.426  -0.182   0.044
    1UNL     H9   30   0.605  -0.013   0.117
    1UNL    H10   31   0.554   0.228   0.146
    1UNL    H11   32   0.330   0.308   0.096
    1UNL    H12   33   0.243  -0.260  -0.143
    1UNL    H13   34   0.170  -0.290   0.008
    1UNL    H14   35   0.035  -0.204  -0.260
    1UNL    H15   36  -0.018  -0.339  -0.157
    1UNL    H16   37  -0.044  -0.223   0.118
    1UNL    H17   38  -0.162  -0.318   0.035
    1UNL    H18   39  -0.283  -0.158   0.202
    1UNL    H19   40  -0.328  -0.130   0.039
    1UNL    H20   41  -0.284   0.087   0.161
    1UNL    H21   42  -0.127   0.043   0.194
    1UNL    H22   43  -0.063   0.006  -0.198
   0.00000   0.00000   0.00000   0.00000   0.00000   0.00000   0.00000   0.00000   0.00000
Generated with MDTraj, t= 71.0
 43
    1UNL     C1    1  -0.412   0.134  -0.055
    1UNL     C2    2  -0.291   0.087  -0.122
    1UNL     C3    3  -0.167   0.085  -0.022
    1UNL     C4    4  -0.106   0.223   0.002
    1UNL     C5    5   0.027   0.243   0.018
    1UNL     N1    6   0.112   0.127   0.022
    1UNL     C6    7   0.072   0.002  -0.018
    1UNL     C7    8   0.178  -0.086  -0.045
    1UNL     C8    9   0.292  -0.013  -0.006
    1UNL     C9   10   0.423  -0.068   0.018
    1UNL    C10   11   0.507   0.010   0.098
    1UNL    C11   12   0.471   0.134   0.145
    1UNL    C12   13   0.350   0.187   0.106
    1UNL    C13   14   0.255   0.114   0.037
    1UNL    C14   15   0.161  -0.223  -0.105
    1UNL    C15   16   0.015  -0.250  -0.148
    1UNL     N2   17  -0.093  -0.169  -0.073
    1UNL    C16   18  -0.121  -0.195   0.075
    1UNL    C17   19  -0.244  -0.116   0.127
    1UNL    C18   20  -0.204   0.030   0.123
    1UNL    C19   21  -0.061  -0.021  -0.082
    1UNL     H1   22  -0.444   0.049   0.016
    1UNL     H2   23  -0.371   0.223   0.003
    1UNL     H3   24  -0.492   0.156  -0.127
    1UNL     H4   25  -0.262   0.151  -0.212
    1UNL     H5   26  -0.294  -0.008  -0.158
    1UNL     H6   27  -0.166   0.310   0.009
    1UNL     H7   28   0.070   0.336   0.033
    1UNL     H8   29   0.447  -0.164  -0.026
    1UNL     H9   30   0.602  -0.035   0.127
    1UNL    H10   31   0.541   0.198   0.199
    1UNL    H11   32   0.319   0.292   0.131
    1UNL    H12   33   0.227  -0.226  -0.190
    1UNL    H13   34   0.183  -0.302  -0.035
    1UNL    H14   35  -0.003  -0.213  -0.257
    1UNL    H15   36  -0.001  -0.358  -0.152
    1UNL    H16   37  -0.019  -0.182   0.127
    1UNL    H17   38  -0.133  -0.303   0.085
    1UNL    H18   39  -0.273  -0.147   0.223
    1UNL    H19   40  -0.328  -0.132   0.060
    1UNL    H20   41  -0.283   0.090   0.169
    1UNL    H21   42  -0.121   0.038   0.197
    1UNL    H22   43  -0.057  -0.002  -0.192
   0.00000   0.00000   0.00000   0.00000   0.00000   0.00000   0.00000   0.00000   0.00000
Generated with MDTraj, t= 72.0
 43
    1UNL     C1    1  -0.409   0.181  -0.058
    1UNL     C2    2  -0.299   0.076  -0.096
    1UNL     C3    3  -0.162   0.077  -0.016
    1UNL     C4    4  -0.107   0.217  -0.010
    1UNL     C5    5   0.024   0.233   0.012
    1UNL     N1    6   0.111   0.120   0.007
    1UNL     C6    7   0.069   0.005  -0.051
    1UNL     C7    8   0.174  -0.088  -0.043
    1UNL     C8    9   0.290  -0.026   0.013
    1UNL     C9   10   0.424  -0.064   0.026
    1UNL    C10   11   0.509   0.020   0.092
    1UNL    C11   12   0.457   0.144   0.138
    1UNL    C12   13   0.320   0.183   0.128
    1UNL    C13   14   0.239   0.100   0.051
    1UNL    C14   15   0.155  -0.227  -0.094
    1UNL    C15   16   0.013  -0.250  -0.147
    1UNL     N2   17  -0.091  -0.165  -0.082
    1UNL    C16   18  -0.106  -0.204   0.057
    1UNL    C17   19  -0.215  -0.118   0.130
    1UNL    C18   20  -0.177   0.032   0.138
    1UNL    C19   21  -0.063  -0.020  -0.098
    1UNL     H1   22  -0.438   0.161   0.049
    1UNL     H2   23  -0.362   0.287  -0.067
    1UNL     H3   24  -0.497   0.174  -0.122
    1UNL     H4   25  -0.262   0.090  -0.203
    1UNL     H5   26  -0.324  -0.023  -0.093
    1UNL     H6   27  -0.173   0.301   0.002
    1UNL     H7   28   0.069   0.333   0.031
    1UNL     H8   29   0.466  -0.153  -0.014
    1UNL     H9   30   0.610  -0.007   0.109
    1UNL    H10   31   0.520   0.206   0.198
    1UNL    H11   32   0.293   0.279   0.164
    1UNL    H12   33   0.211  -0.252  -0.182
    1UNL    H13   34   0.178  -0.301  -0.018
    1UNL    H14   35   0.019  -0.238  -0.262
    1UNL    H15   36  -0.024  -0.351  -0.127
    1UNL    H16   37  -0.006  -0.187   0.106
    1UNL    H17   38  -0.118  -0.313   0.055
    1UNL    H18   39  -0.236  -0.160   0.223
    1UNL    H19   40  -0.304  -0.119   0.066
    1UNL    H20   41  -0.261   0.077   0.193
    1UNL    H21   42  -0.087   0.047   0.198
    1UNL    H22   43  -0.072   0.003  -0.208
   0.00000   0.00000   0.00000   0.00000   0.00000   0.00000   0.00000   0.00000   0.00000
Generated with MDTraj, t= 73.0
 43
    1UNL     C1    1  -0.411   0.195  -0.047
    1UNL     C2    2  -0.316   0.077  -0.082
    1UNL     C3    3  -0.169   0.072  -0.013
    1UNL     C4    4  -0.103   0.213   0.004
    1UNL     C5    5   0.027   0.233   0.011
    1UNL     N1    6   0.120   0.126  -0.008
    1UNL     C6    7   0.078   0.001  -0.055
    1UNL     C7    8   0.181  -0.086  -0.048
    1UNL     C8    9   0.284  -0.025   0.028
    1UNL     C9   10   0.411  -0.070   0.074
    1UNL    C10   11   0.504   0.019   0.115
    1UNL    C11   12   0.470   0.155   0.129
    1UNL    C12   13   0.345   0.200   0.088
    1UNL    C13   14   0.252   0.108   0.035
    1UNL    C14   15   0.162  -0.227  -0.105
    1UNL    C15   16   0.015  -0.256  -0.156
    1UNL     N2   17  -0.088  -0.157  -0.090
    1UNL    C16   18  -0.119  -0.207   0.050
    1UNL    C17   19  -0.226  -0.135   0.131
    1UNL    C18   20  -0.186   0.010   0.130
    1UNL    C19   21  -0.065  -0.014  -0.098
    1UNL     H1   22  -0.427   0.197   0.061
    1UNL     H2   23  -0.370   0.301  -0.078
    1UNL     H3   24  -0.514   0.183  -0.087
    1UNL     H4   25  -0.292   0.077  -0.193
    1UNL     H5   26  -0.365  -0.015  -0.055
    1UNL     H6   27  -0.174   0.297   0.002
    1UNL     H7   28   0.060   0.331   0.003
    1UNL     H8   29   0.437  -0.175   0.059
    1UNL     H9   30   0.601  -0.021   0.151
    1UNL    H10   31   0.548   0.213   0.179
    1UNL    H11   32   0.323   0.304   0.102
    1UNL    H12   33   0.235  -0.247  -0.177
    1UNL    H13   34   0.171  -0.305  -0.029
    1UNL    H14   35  -0.002  -0.244  -0.269
    1UNL    H15   36  -0.015  -0.362  -0.137
    1UNL    H16   37  -0.018  -0.193   0.098
    1UNL    H17   38  -0.141  -0.315   0.050
    1UNL    H18   39  -0.230  -0.182   0.225
    1UNL    H19   40  -0.315  -0.152   0.069
    1UNL    H20   41  -0.254   0.066   0.197
    1UNL    H21   42  -0.091   0.011   0.183
    1UNL    H22   43  -0.069   0.018  -0.206
   0.00000   0.00000   0.00000   0.00000   0.00000   0.00000   0.00000   0.00000   0.00000
Generated with MDTraj, t= 74.0
 43
    1UNL     C1    1  -0.420   0.151  -0.037
    1UNL     C2    2  -0.300   0.096  -0.106
    1UNL     C3    3  -0.164   0.078  -0.015
    1UNL     C4    4  -0.099   0.216   0.004
    1UNL     C5    5   0.033   0.239   0.009
    1UNL     N1    6   0.128   0.123   0.003
    1UNL     C6    7   0.078   0.004  -0.049
    1UNL     C7    8   0.175  -0.090  -0.041
    1UNL     C8    9   0.297  -0.023   0.004
    1UNL     C9   10   0.427  -0.066   0.045
    1UNL    C10   11   0.511   0.018   0.113
    1UNL    C11   12   0.473   0.154   0.131
    1UNL    C12   13   0.352   0.201   0.094
    1UNL    C13   14   0.260   0.111   0.037
    1UNL    C14   15   0.146  -0.226  -0.082
    1UNL    C15   16   0.009  -0.247  -0.144
    1UNL     N2   17  -0.100  -0.163  -0.086
    1UNL    C16   18  -0.125  -0.216   0.054
    1UNL    C17   19  -0.235  -0.130   0.120
    1UNL    C18   20  -0.205   0.019   0.121
    1UNL    C19   21  -0.065  -0.018  -0.091
    1UNL     H1   22  -0.467   0.074   0.024
    1UNL     H2   23  -0.400   0.240   0.032
    1UNL     H3   24  -0.507   0.179  -0.107
    1UNL     H4   25  -0.282   0.173  -0.187
    1UNL     H5   26  -0.334  -0.003  -0.147
    1UNL     H6   27  -0.169   0.290   0.025
    1UNL     H7   28   0.082   0.332   0.042
    1UNL     H8   29   0.445  -0.170   0.036
    1UNL     H9   30   0.606  -0.014   0.151
    1UNL    H10   31   0.546   0.219   0.174
    1UNL    H11   32   0.319   0.303   0.116
    1UNL    H12   33   0.214  -0.266  -0.149
    1UNL    H13   34   0.160  -0.286   0.009
    1UNL    H14   35   0.015  -0.234  -0.257
    1UNL    H15   36  -0.027  -0.351  -0.130
    1UNL    H16   37  -0.032  -0.204   0.114
    1UNL    H17   38  -0.150  -0.324   0.049
    1UNL    H18   39  -0.247  -0.177   0.213
    1UNL    H19   40  -0.322  -0.156   0.058
    1UNL    H20   41  -0.288   0.079   0.165
    1UNL    H21   42  -0.127   0.045   0.191
    1UNL    H22   43  -0.067   0.018  -0.199
   0.00000   0.00000   0.00000   0.00000   0.00000   0.00000   0.00000   0.00000   0.00000
Generated with MDTraj, t= 75.0
 43
    1UNL     C1    1  -0.405   0.138  -0.060
    1UNL     C2    2  -0.278   0.091  -0.127
    1UNL     C3    3  -0.160   0.084  -0.026
    1UNL     C4    4  -0.095   0.227  -0.006
    1UNL     C5    5   0.029   0.245   0.031
    1UNL     N1    6   0.118   0.126   0.037
    1UNL     C6    7   0.070   0.010  -0.027
    1UNL     C7    8   0.169  -0.083  -0.046
    1UNL     C8    9   0.289  -0.018   0.012
    1UNL     C9   10   0.418  -0.063   0.015
    1UNL    C10   11   0.510   0.022   0.076
    1UNL    C11   12   0.481   0.149   0.125
    1UNL    C12   13   0.355   0.193   0.116
    1UNL    C13   14   0.252   0.108   0.067
    1UNL    C14   15   0.155  -0.221  -0.098
    1UNL    C15   16   0.003  -0.260  -0.133
    1UNL     N2   17  -0.105  -0.170  -0.073
    1UNL    C16   18  -0.134  -0.217   0.064
    1UNL    C17   19  -0.243  -0.128   0.122
    1UNL    C18   20  -0.198   0.024   0.115
    1UNL    C19   21  -0.062  -0.020  -0.081
    1UNL     H1   22  -0.434   0.076   0.026
    1UNL     H2   23  -0.400   0.239  -0.016
    1UNL     H3   24  -0.502   0.133  -0.127
    1UNL     H4   25  -0.254   0.165  -0.208
    1UNL     H5   26  -0.313  -0.010  -0.167
    1UNL     H6   27  -0.159   0.316  -0.029
    1UNL     H7   28   0.073   0.341   0.046
    1UNL     H8   29   0.442  -0.162  -0.024
    1UNL     H9   30   0.614  -0.006   0.062
    1UNL    H10   31   0.558   0.223   0.156
    1UNL    H11   32   0.328   0.293   0.135
    1UNL    H12   33   0.225  -0.236  -0.174
    1UNL    H13   34   0.194  -0.295  -0.025
    1UNL    H14   35  -0.023  -0.263  -0.244
    1UNL    H15   36  -0.023  -0.366  -0.108
    1UNL    H16   37  -0.045  -0.219   0.127
    1UNL    H17   38  -0.168  -0.324   0.058
    1UNL    H18   39  -0.251  -0.162   0.221
    1UNL    H19   40  -0.335  -0.162   0.071
    1UNL    H20   41  -0.269   0.096   0.163
    1UNL    H21   42  -0.112   0.029   0.179
    1UNL    H22   43  -0.045  -0.004  -0.193
   0.00000   0.00000   0.00000   0.00000   0.00000   0.00000   0.00000   0.00000   0.00000
Generated with MDTraj, t= 76.0
 43
    1UNL     C1    1  -0.389   0.191  -0.083
    1UNL     C2    2  -0.284   0.082  -0.108
    1UNL     C3    3  -0.167   0.069  -0.011
    1UNL     C4    4  -0.100   0.208   0.001
    1UNL     C5    5   0.026   0.223   0.028
    1UNL     N1    6   0.115   0.120   0.034
    1UNL     C6    7   0.072   0.007  -0.035
    1UNL     C7    8   0.168  -0.085  -0.038
    1UNL     C8    9   0.289  -0.024   0.020
    1UNL     C9   10   0.419  -0.065   0.032
    1UNL    C10   11   0.511   0.035   0.069
    1UNL    C11   12   0.480   0.162   0.114
    1UNL    C12   13   0.350   0.199   0.105
    1UNL    C13   14   0.256   0.107   0.059
    1UNL    C14   15   0.138  -0.230  -0.087
    1UNL    C15   16   0.002  -0.237  -0.149
    1UNL     N2   17  -0.096  -0.167  -0.077
    1UNL    C16   18  -0.112  -0.209   0.069
    1UNL    C17   19  -0.233  -0.146   0.123
    1UNL    C18   20  -0.213   0.010   0.124
    1UNL    C19   21  -0.063  -0.018  -0.082
    1UNL     H1   22  -0.421   0.210   0.024
    1UNL     H2   23  -0.365   0.289  -0.121
    1UNL     H3   24  -0.488   0.157  -0.135
    1UNL     H4   25  -0.257   0.102  -0.214
    1UNL     H5   26  -0.335  -0.023  -0.102
    1UNL     H6   27  -0.163   0.286  -0.025
    1UNL     H7   28   0.074   0.320   0.022
    1UNL     H8   29   0.450  -0.163  -0.004
    1UNL     H9   30   0.612  -0.001   0.069
    1UNL    H10   31   0.561   0.222   0.142
    1UNL    H11   32   0.314   0.300   0.133
    1UNL    H12   33   0.209  -0.265  -0.154
    1UNL    H13   34   0.147  -0.293   0.003
    1UNL    H14   35   0.002  -0.202  -0.255
    1UNL    H15   36  -0.040  -0.341  -0.154
    1UNL    H16   37  -0.022  -0.193   0.127
    1UNL    H17   38  -0.118  -0.321   0.078
    1UNL    H18   39  -0.263  -0.189   0.216
    1UNL    H19   40  -0.317  -0.167   0.055
    1UNL    H20   41  -0.313   0.048   0.153
    1UNL    H21   42  -0.143   0.043   0.198
    1UNL    H22   43  -0.064  -0.000  -0.195
   0.00000   0.00000   0.00000   0.00000   0.00000   0.00000   0.00000   0.00000   0.00000
Generated with MDTraj, t= 77.0
 43
    1UNL     C1    1  -0.394   0.210  -0.050
    1UNL     C2    2  -0.296   0.094  -0.096
    1UNL     C3    3  -0.170   0.071  -0.010
    1UNL     C4    4  -0.103   0.210   0.008
    1UNL     C5    5   0.026   0.225   0.027
    1UNL     N1    6   0.122   0.124   0.004
    1UNL     C6    7   0.078   0.002  -0.045
    1UNL     C7    8   0.183  -0.087  -0.055
    1UNL     C8    9   0.302  -0.022   0.009
    1UNL     C9   10   0.426  -0.060   0.054
    1UNL    C10   11   0.512   0.031   0.104
    1UNL    C11   12   0.480   0.168   0.108
    1UNL    C12   13   0.351   0.208   0.083
    1UNL    C13   14   0.257   0.113   0.033
    1UNL    C14   15   0.163  -0.233  -0.090
    1UNL    C15   16   0.013  -0.263  -0.133
    1UNL     N2   17  -0.091  -0.174  -0.072
    1UNL    C16   18  -0.146  -0.224   0.060
    1UNL    C17   19  -0.263  -0.147   0.104
    1UNL    C18   20  -0.211   0.003   0.124
    1UNL    C19   21  -0.066  -0.023  -0.082
    1UNL     H1   22  -0.466   0.189   0.040
    1UNL     H2   23  -0.343   0.305  -0.029
    1UNL     H3   24  -0.464   0.231  -0.134
    1UNL     H4   25  -0.258   0.120  -0.196
    1UNL     H5   26  -0.354  -0.007  -0.109
    1UNL     H6   27  -0.162   0.300   0.024
    1UNL     H7   28   0.077   0.317   0.050
    1UNL     H8   29   0.457  -0.161   0.043
    1UNL     H9   30   0.605   0.002   0.151
    1UNL    H10   31   0.543   0.241   0.163
    1UNL    H11   32   0.317   0.306   0.099
    1UNL    H12   33   0.233  -0.268  -0.161
    1UNL    H13   34   0.170  -0.290   0.004
    1UNL    H14   35   0.008  -0.251  -0.243
    1UNL    H15   36  -0.013  -0.370  -0.115
    1UNL    H16   37  -0.070  -0.213   0.134
    1UNL    H17   38  -0.152  -0.335   0.063
    1UNL    H18   39  -0.304  -0.181   0.197
    1UNL    H19   40  -0.343  -0.153   0.032
    1UNL    H20   41  -0.285   0.068   0.176
    1UNL    H21   42  -0.133  -0.011   0.196
    1UNL    H22   43  -0.069  -0.006  -0.195
   0.00000   0.00000   0.00000   0.00000   0.00000   0.00000   0.00000   0.00000   0.00000
Generated with MDTraj, t= 78.0
 43
    1UNL     C1    1  -0.428   0.119  -0.050
    1UNL     C2    2  -0.290   0.112  -0.113
    1UNL     C3    3  -0.166   0.091  -0.012
    1UNL     C4    4  -0.099   0.223   0.024
    1UNL     C5    5   0.034   0.240   0.023
    1UNL     N1    6   0.124   0.128   0.003
    1UNL     C6    7   0.075   0.007  -0.041
    1UNL     C7    8   0.173  -0.089  -0.034
    1UNL     C8    9   0.293  -0.026   0.007
    1UNL     C9   10   0.426  -0.075   0.038
    1UNL    C10   11   0.514   0.015   0.092
    1UNL    C11   12   0.475   0.151   0.109
    1UNL    C12   13   0.352   0.201   0.092
    1UNL    C13   14   0.260   0.110   0.033
    1UNL    C14   15   0.146  -0.232  -0.050
    1UNL    C15   16   0.016  -0.250  -0.139
    1UNL     N2   17  -0.095  -0.161  -0.083
    1UNL    C16   18  -0.126  -0.213   0.053
    1UNL    C17   19  -0.245  -0.124   0.102
    1UNL    C18   20  -0.197   0.024   0.124
    1UNL    C19   21  -0.068  -0.013  -0.086
    1UNL     H1   22  -0.454   0.026   0.014
    1UNL     H2   23  -0.443   0.213   0.012
    1UNL     H3   24  -0.499   0.115  -0.133
    1UNL     H4   25  -0.271   0.199  -0.179
    1UNL     H5   26  -0.288   0.025  -0.191
    1UNL     H6   27  -0.160   0.310   0.044
    1UNL     H7   28   0.078   0.336   0.029
    1UNL     H8   29   0.452  -0.181   0.025
    1UNL     H9   30   0.613  -0.018   0.120
    1UNL    H10   31   0.546   0.212   0.157
    1UNL    H11   32   0.313   0.301   0.122
    1UNL    H12   33   0.227  -0.273  -0.106
    1UNL    H13   34   0.132  -0.282   0.048
    1UNL    H14   35   0.041  -0.228  -0.243
    1UNL    H15   36  -0.016  -0.358  -0.139
    1UNL    H16   37  -0.042  -0.226   0.115
    1UNL    H17   38  -0.163  -0.318   0.041
    1UNL    H18   39  -0.290  -0.167   0.193
    1UNL    H19   40  -0.324  -0.126   0.030
    1UNL    H20   41  -0.273   0.068   0.192
    1UNL    H21   42  -0.103   0.026   0.174
    1UNL    H22   43  -0.063   0.016  -0.195
   0.00000   0.00000   0.00000   0.00000   0.00000   0.00000   0.00000   0.00000   0.00000
Generated with MDTraj, t= 79.0
 43
    1UNL     C1    1  -0.423   0.131  -0.062
    1UNL     C2    2  -0.291   0.083  -0.111
    1UNL     C3    3  -0.166   0.084  -0.021
    1UNL     C4    4  -0.104   0.221  -0.013
    1UNL     C5    5   0.030   0.245  -0.000
    1UNL     N1    6   0.111   0.126   0.031
    1UNL     C6    7   0.070  -0.001  -0.016
    1UNL     C7    8   0.172  -0.094  -0.022
    1UNL     C8    9   0.282  -0.028   0.029
    1UNL     C9   10   0.415  -0.077   0.046
    1UNL    C10   11   0.517   0.012   0.081
    1UNL    C11   12   0.476   0.143   0.115
    1UNL    C12   13   0.349   0.193   0.096
    1UNL    C13   14   0.248   0.107   0.060
    1UNL    C14   15   0.156  -0.212  -0.111
    1UNL    C15   16   0.009  -0.241  -0.156
    1UNL     N2   17  -0.092  -0.159  -0.074
    1UNL    C16   18  -0.119  -0.203   0.063
    1UNL    C17   19  -0.228  -0.113   0.132
    1UNL    C18   20  -0.186   0.030   0.130
    1UNL    C19   21  -0.061  -0.015  -0.087
    1UNL     H1   22  -0.455   0.083   0.032
    1UNL     H2   23  -0.423   0.247  -0.045
    1UNL     H3   24  -0.496   0.098  -0.138
    1UNL     H4   25  -0.267   0.120  -0.211
    1UNL     H5   26  -0.295  -0.032  -0.133
    1UNL     H6   27  -0.172   0.301  -0.004
    1UNL     H7   28   0.062   0.349   0.016
    1UNL     H8   29   0.443  -0.177   0.023
    1UNL     H9   30   0.623  -0.011   0.079
    1UNL    H10   31   0.560   0.215   0.124
    1UNL    H11   32   0.330   0.294   0.121
    1UNL    H12   33   0.217  -0.201  -0.199
    1UNL    H13   34   0.187  -0.299  -0.054
    1UNL    H14   35  -0.003  -0.217  -0.261
    1UNL    H15   36  -0.013  -0.351  -0.160
    1UNL    H16   37  -0.035  -0.195   0.124
    1UNL    H17   38  -0.150  -0.310   0.063
    1UNL    H18   39  -0.248  -0.152   0.235
    1UNL    H19   40  -0.318  -0.130   0.081
    1UNL    H20   41  -0.267   0.093   0.170
    1UNL    H21   42  -0.101   0.040   0.194
    1UNL    H22   43  -0.031   0.013  -0.192
   0.00000   0.00000   0.00000   0.00000   0.00000   0.00000   0.00000   0.00000   0.00000
Generated with MDTraj, t= 80.0
 43
    1UNL     C1    1  -0.386   0.221  -0.069
    1UNL     C2    2  -0.315   0.080  -0.095
    1UNL     C3    3  -0.173   0.067  -0.017
    1UNL     C4    4  -0.108   0.203   0.001
    1UNL     C5    5   0.025   0.220   0.024
    1UNL     N1    6   0.115   0.118  -0.004
    1UNL     C6    7   0.073  -0.001  -0.059
    1UNL     C7    8   0.177  -0.089  -0.055
    1UNL     C8    9   0.289  -0.018  -0.002
    1UNL     C9   10   0.424  -0.052   0.021
    1UNL    C10   11   0.506   0.024   0.098
    1UNL    C11   12   0.460   0.150   0.144
    1UNL    C12   13   0.326   0.194   0.114
    1UNL    C13   14   0.243   0.104   0.041
    1UNL    C14   15   0.160  -0.234  -0.081
    1UNL    C15   16   0.020  -0.257  -0.139
    1UNL     N2   17  -0.090  -0.174  -0.076
    1UNL    C16   18  -0.104  -0.208   0.064
    1UNL    C17   19  -0.221  -0.124   0.141
    1UNL    C18   20  -0.191   0.021   0.136
    1UNL    C19   21  -0.072  -0.026  -0.093
    1UNL     H1   22  -0.395   0.252   0.036
    1UNL     H2   23  -0.316   0.302  -0.117
    1UNL     H3   24  -0.487   0.223  -0.114
    1UNL     H4   25  -0.297   0.060  -0.202
    1UNL     H5   26  -0.388  -0.007  -0.077
    1UNL     H6   27  -0.177   0.290  -0.009
    1UNL     H7   28   0.060   0.319   0.034
    1UNL     H8   29   0.464  -0.149  -0.010
    1UNL     H9   30   0.614   0.008   0.108
    1UNL    H10   31   0.515   0.221   0.197
    1UNL    H11   32   0.301   0.296   0.140
    1UNL    H12   33   0.236  -0.263  -0.155
    1UNL    H13   34   0.177  -0.294   0.006
    1UNL    H14   35   0.021  -0.231  -0.243
    1UNL    H15   36  -0.007  -0.365  -0.153
    1UNL    H16   37  -0.014  -0.184   0.111
    1UNL    H17   38  -0.126  -0.314   0.081
    1UNL    H18   39  -0.246  -0.172   0.238
    1UNL    H19   40  -0.309  -0.142   0.087
    1UNL    H20   41  -0.268   0.076   0.192
    1UNL    H21   42  -0.099   0.049   0.182
    1UNL    H22   43  -0.083  -0.013  -0.203
   0.00000   0.00000   0.00000   0.00000   0.00000   0.00000   0.00000   0.00000   0.00000
Generated with MDTraj, t= 81.0
 43
    1UNL     C1    1  -0.384   0.199  -0.066
    1UNL     C2    2  -0.289   0.084  -0.103
    1UNL     C3    3  -0.167   0.062  -0.006
    1UNL     C4    4  -0.103   0.196   0.024
    1UNL     C5    5   0.028   0.228   0.024
    1UNL     N1    6   0.119   0.131  -0.019
    1UNL     C6    7   0.080   0.014  -0.072
    1UNL     C7    8   0.186  -0.074  -0.063
    1UNL     C8    9   0.293  -0.015  -0.002
    1UNL     C9   10   0.415  -0.066   0.046
    1UNL    C10   11   0.498   0.017   0.114
    1UNL    C11   12   0.461   0.151   0.137
    1UNL    C12   13   0.345   0.202   0.080
    1UNL    C13   14   0.255   0.120   0.021
    1UNL    C14   15   0.168  -0.220  -0.109
    1UNL    C15   16   0.014  -0.251  -0.138
    1UNL     N2   17  -0.091  -0.180  -0.058
    1UNL    C16   18  -0.124  -0.209   0.086
    1UNL    C17   19  -0.247  -0.135   0.137
    1UNL    C18   20  -0.218   0.008   0.134
    1UNL    C19   21  -0.071  -0.031  -0.088
    1UNL     H1   22  -0.430   0.206   0.035
    1UNL     H2   23  -0.322   0.292  -0.070
    1UNL     H3   24  -0.469   0.204  -0.140
    1UNL     H4   25  -0.256   0.098  -0.208
    1UNL     H5   26  -0.336  -0.018  -0.117
    1UNL     H6   27  -0.164   0.261   0.077
    1UNL     H7   28   0.060   0.320   0.077
    1UNL     H8   29   0.440  -0.168   0.023
    1UNL     H9   30   0.583  -0.030   0.159
    1UNL    H10   31   0.518   0.202   0.220
    1UNL    H11   32   0.314   0.307   0.100
    1UNL    H12   33   0.220  -0.230  -0.207
    1UNL    H13   34   0.215  -0.288  -0.044
    1UNL    H14   35  -0.010  -0.246  -0.242
    1UNL    H15   36  -0.001  -0.361  -0.128
    1UNL    H16   37  -0.041  -0.172   0.140
    1UNL    H17   38  -0.130  -0.315   0.106
    1UNL    H18   39  -0.281  -0.169   0.237
    1UNL    H19   40  -0.328  -0.164   0.080
    1UNL    H20   41  -0.302   0.074   0.160
    1UNL    H21   42  -0.155   0.027   0.219
    1UNL    H22   43  -0.090  -0.025  -0.197
   0.00000   0.00000   0.00000   0.00000   0.00000   0.00000   0.00000   0.00000   0.00000
Generated with MDTraj, t= 82.0
 43
    1UNL     C1    1  -0.409   0.140  -0.040
    1UNL     C2    2  -0.290   0.093  -0.119
    1UNL     C3    3  -0.167   0.077  -0.022
    1UNL     C4    4  -0.104   0.213   0.004
    1UNL     C5    5   0.028   0.234   0.017
    1UNL     N1    6   0.120   0.129   0.005
    1UNL     C6    7   0.071   0.006  -0.033
    1UNL     C7    8   0.167  -0.095  -0.020
    1UNL     C8    9   0.283  -0.027   0.031
    1UNL     C9   10   0.420  -0.069   0.039
    1UNL    C10   11   0.517   0.021   0.075
    1UNL    C11   12   0.488   0.156   0.107
    1UNL    C12   13   0.355   0.199   0.095
    1UNL    C13   14   0.251   0.109   0.056
    1UNL    C14   15   0.148  -0.235  -0.068
    1UNL    C15   16   0.023  -0.235  -0.152
    1UNL     N2   17  -0.092  -0.166  -0.083
    1UNL    C16   18  -0.124  -0.204   0.058
    1UNL    C17   19  -0.241  -0.126   0.117
    1UNL    C18   20  -0.207   0.026   0.121
    1UNL    C19   21  -0.068  -0.019  -0.087
    1UNL     H1   22  -0.460   0.068   0.031
    1UNL     H2   23  -0.373   0.217   0.023
    1UNL     H3   24  -0.493   0.180  -0.108
    1UNL     H4   25  -0.273   0.160  -0.207
    1UNL     H5   26  -0.315  -0.002  -0.170
    1UNL     H6   27  -0.167   0.304   0.019
    1UNL     H7   28   0.066   0.330   0.039
    1UNL     H8   29   0.437  -0.163  -0.012
    1UNL     H9   30   0.623  -0.009   0.077
    1UNL    H10   31   0.558   0.224   0.143
    1UNL    H11   32   0.327   0.299   0.107
    1UNL    H12   33   0.237  -0.267  -0.127
    1UNL    H13   34   0.135  -0.303   0.011
    1UNL    H14   35   0.042  -0.201  -0.250
    1UNL    H15   36  -0.005  -0.340  -0.167
    1UNL    H16   37  -0.034  -0.202   0.114
    1UNL    H17   38  -0.146  -0.309   0.052
    1UNL    H18   39  -0.284  -0.168   0.210
    1UNL    H19   40  -0.326  -0.132   0.058
    1UNL    H20   41  -0.285   0.082   0.174
    1UNL    H21   42  -0.127   0.045   0.188
    1UNL    H22   43  -0.065   0.011  -0.192
   0.00000   0.00000   0.00000   0.00000   0.00000   0.00000   0.00000   0.00000   0.00000
Generated with MDTraj, t= 83.0
 43
    1UNL     C1    1  -0.409   0.136  -0.042
    1UNL     C2    2  -0.282   0.083  -0.109
    1UNL     C3    3  -0.155   0.083  -0.026
    1UNL     C4    4  -0.100   0.220  -0.006
    1UNL     C5    5   0.026   0.235   0.033
    1UNL     N1    6   0.116   0.125   0.034
    1UNL     C6    7   0.072  -0.007  -0.010
    1UNL     C7    8   0.172  -0.103  -0.007
    1UNL     C8    9   0.290  -0.024   0.029
    1UNL     C9   10   0.423  -0.068   0.033
    1UNL    C10   11   0.515   0.028   0.070
    1UNL    C11   12   0.480   0.166   0.093
    1UNL    C12   13   0.349   0.202   0.091
    1UNL    C13   14   0.253   0.111   0.055
    1UNL    C14   15   0.152  -0.232  -0.073
    1UNL    C15   16   0.015  -0.246  -0.148
    1UNL     N2   17  -0.098  -0.164  -0.088
    1UNL    C16   18  -0.167  -0.215   0.035
    1UNL    C17   19  -0.248  -0.116   0.115
    1UNL    C18   20  -0.190   0.032   0.112
    1UNL    C19   21  -0.046  -0.017  -0.088
    1UNL     H1   22  -0.415   0.121   0.072
    1UNL     H2   23  -0.409   0.241  -0.049
    1UNL     H3   24  -0.505   0.089  -0.086
    1UNL     H4   25  -0.274   0.136  -0.207
    1UNL     H5   26  -0.310  -0.019  -0.138
    1UNL     H6   27  -0.167   0.300  -0.011
    1UNL     H7   28   0.071   0.335   0.054
    1UNL     H8   29   0.448  -0.168   0.001
    1UNL     H9   30   0.618   0.009   0.055
    1UNL    H10   31   0.555   0.245   0.114
    1UNL    H11   32   0.322   0.307   0.117
    1UNL    H12   33   0.242  -0.255  -0.136
    1UNL    H13   34   0.156  -0.301   0.006
    1UNL    H14   35   0.027  -0.213  -0.248
    1UNL    H15   36  -0.006  -0.351  -0.165
    1UNL    H16   37  -0.091  -0.265   0.092
    1UNL    H17   38  -0.232  -0.293   0.003
    1UNL    H18   39  -0.254  -0.142   0.221
    1UNL    H19   40  -0.351  -0.109   0.093
    1UNL    H20   41  -0.255   0.106   0.160
    1UNL    H21   42  -0.110   0.026   0.183
    1UNL    H22   43  -0.018   0.008  -0.189
   0.00000   0.00000   0.00000   0.00000   0.00000   0.00000   0.00000   0.00000   0.00000
Generated with MDTraj, t= 84.0
 43
    1UNL     C1    1  -0.385   0.209  -0.075
    1UNL     C2    2  -0.293   0.095  -0.111
    1UNL     C3    3  -0.176   0.072  -0.008
    1UNL     C4    4  -0.108   0.209   0.026
    1UNL     C5    5   0.023   0.228   0.027
    1UNL     N1    6   0.122   0.130  -0.008
    1UNL     C6    7   0.070   0.004  -0.039
    1UNL     C7    8   0.170  -0.086  -0.044
    1UNL     C8    9   0.292  -0.021   0.001
    1UNL     C9   10   0.420  -0.069   0.037
    1UNL    C10   11   0.511   0.026   0.084
    1UNL    C11   12   0.470   0.154   0.122
    1UNL    C12   13   0.348   0.202   0.086
    1UNL    C13   14   0.263   0.114   0.022
    1UNL    C14   15   0.160  -0.229  -0.077
    1UNL    C15   16   0.020  -0.252  -0.137
    1UNL     N2   17  -0.081  -0.177  -0.065
    1UNL    C16   18  -0.110  -0.214   0.077
    1UNL    C17   19  -0.242  -0.152   0.121
    1UNL    C18   20  -0.234   0.008   0.123
    1UNL    C19   21  -0.070  -0.022  -0.076
    1UNL     H1   22  -0.473   0.169  -0.014
    1UNL     H2   23  -0.346   0.279  -0.002
    1UNL     H3   24  -0.436   0.265  -0.158
    1UNL     H4   25  -0.248   0.122  -0.211
    1UNL     H5   26  -0.345   0.003  -0.132
    1UNL     H6   27  -0.167   0.280   0.082
    1UNL     H7   28   0.065   0.310   0.075
    1UNL     H8   29   0.439  -0.173   0.030
    1UNL     H9   30   0.615  -0.009   0.097
    1UNL    H10   31   0.546   0.214   0.167
    1UNL    H11   32   0.309   0.288   0.133
    1UNL    H12   33   0.238  -0.243  -0.157
    1UNL    H13   34   0.184  -0.293   0.003
    1UNL    H14   35   0.019  -0.233  -0.241
    1UNL    H15   36  -0.006  -0.356  -0.127
    1UNL    H16   37  -0.032  -0.174   0.142
    1UNL    H17   38  -0.118  -0.320   0.082
    1UNL    H18   39  -0.280  -0.185   0.216
    1UNL    H19   40  -0.322  -0.176   0.050
    1UNL    H20   41  -0.338   0.032   0.145
    1UNL    H21   42  -0.181   0.040   0.209
    1UNL    H22   43  -0.081  -0.004  -0.181
   0.00000   0.00000   0.00000   0.00000   0.00000   0.00000   0.00000   0.00000   0.00000
Generated with MDTraj, t= 85.0
 43
    1UNL     C1    1  -0.380   0.222  -0.085
    1UNL     C2    2  -0.278   0.103  -0.112
    1UNL     C3    3  -0.170   0.073  -0.007
    1UNL     C4    4  -0.107   0.197   0.044
    1UNL     C5    5   0.023   0.215   0.051
    1UNL     N1    6   0.119   0.125  -0.016
    1UNL     C6    7   0.075   0.005  -0.063
    1UNL     C7    8   0.180  -0.086  -0.059
    1UNL     C8    9   0.301  -0.020  -0.015
    1UNL     C9   10   0.425  -0.062   0.026
    1UNL    C10   11   0.502   0.030   0.091
    1UNL    C11   12   0.457   0.155   0.127
    1UNL    C12   13   0.330   0.198   0.100
    1UNL    C13   14   0.251   0.108   0.020
    1UNL    C14   15   0.168  -0.230  -0.100
    1UNL    C15   16   0.009  -0.262  -0.124
    1UNL     N2   17  -0.083  -0.171  -0.049
    1UNL    C16   18  -0.101  -0.199   0.096
    1UNL    C17   19  -0.241  -0.153   0.130
    1UNL    C18   20  -0.242   0.003   0.114
    1UNL    C19   21  -0.068  -0.027  -0.084
    1UNL     H1   22  -0.381   0.232   0.025
    1UNL     H2   23  -0.351   0.326  -0.122
    1UNL     H3   24  -0.483   0.194  -0.114
    1UNL     H4   25  -0.231   0.125  -0.213
    1UNL     H5   26  -0.333   0.013  -0.121
    1UNL     H6   27  -0.168   0.287   0.061
    1UNL     H7   28   0.068   0.314   0.076
    1UNL     H8   29   0.452  -0.170   0.018
    1UNL     H9   30   0.594  -0.007   0.124
    1UNL    H10   31   0.521   0.218   0.188
    1UNL    H11   32   0.283   0.286   0.139
    1UNL    H12   33   0.229  -0.259  -0.189
    1UNL    H13   34   0.200  -0.290  -0.018
    1UNL    H14   35  -0.015  -0.247  -0.226
    1UNL    H15   36  -0.013  -0.365  -0.110
    1UNL    H16   37  -0.028  -0.131   0.143
    1UNL    H17   38  -0.091  -0.304   0.109
    1UNL    H18   39  -0.270  -0.192   0.223
    1UNL    H19   40  -0.316  -0.190   0.057
    1UNL    H20   41  -0.347   0.033   0.115
    1UNL    H21   42  -0.205   0.053   0.202
    1UNL    H22   43  -0.093  -0.027  -0.187
   0.00000   0.00000   0.00000   0.00000   0.00000   0.00000   0.00000   0.00000   0.00000
Generated with MDTraj, t= 86.0
 43
    1UNL     C1    1  -0.411   0.185  -0.095
    1UNL     C2    2  -0.297   0.079  -0.107
    1UNL     C3    3  -0.174   0.079  -0.014
    1UNL     C4    4  -0.103   0.217   0.002
    1UNL     C5    5   0.028   0.236   0.029
    1UNL     N1    6   0.119   0.123   0.026
    1UNL     C6    7   0.074   0.003  -0.026
    1UNL     C7    8   0.176  -0.088  -0.042
    1UNL     C8    9   0.292  -0.026   0.012
    1UNL     C9   10   0.423  -0.065   0.018
    1UNL    C10   11   0.513   0.026   0.066
    1UNL    C11   12   0.473   0.154   0.118
    1UNL    C12   13   0.347   0.197   0.114
    1UNL    C13   14   0.252   0.107   0.056
    1UNL    C14   15   0.156  -0.223  -0.096
    1UNL    C15   16   0.014  -0.251  -0.133
    1UNL     N2   17  -0.087  -0.168  -0.070
    1UNL    C16   18  -0.134  -0.223   0.069
    1UNL    C17   19  -0.238  -0.130   0.131
    1UNL    C18   20  -0.197   0.014   0.127
    1UNL    C19   21  -0.061  -0.018  -0.078
    1UNL     H1   22  -0.439   0.186   0.009
    1UNL     H2   23  -0.383   0.297  -0.115
    1UNL     H3   24  -0.500   0.156  -0.153
    1UNL     H4   25  -0.245   0.092  -0.208
    1UNL     H5   26  -0.337  -0.017  -0.107
    1UNL     H6   27  -0.176   0.291   0.001
    1UNL     H7   28   0.067   0.330   0.053
    1UNL     H8   29   0.466  -0.153  -0.021
    1UNL     H9   30   0.621   0.001   0.063
    1UNL    H10   31   0.551   0.204   0.173
    1UNL    H11   32   0.321   0.305   0.129
    1UNL    H12   33   0.223  -0.237  -0.186
    1UNL    H13   34   0.184  -0.297  -0.023
    1UNL    H14   35   0.003  -0.248  -0.239
    1UNL    H15   36  -0.013  -0.351  -0.114
    1UNL    H16   37  -0.041  -0.224   0.126
    1UNL    H17   38  -0.180  -0.313   0.037
    1UNL    H18   39  -0.262  -0.160   0.228
    1UNL    H19   40  -0.330  -0.155   0.071
    1UNL    H20   41  -0.259   0.081   0.185
    1UNL    H21   42  -0.108   0.024   0.185
    1UNL    H22   43  -0.058   0.009  -0.181
   0.00000   0.00000   0.00000   0.00000   0.00000   0.00000   0.00000   0.00000   0.00000
Generated with MDTraj, t= 87.0
 43
    1UNL     C1    1  -0.422   0.125  -0.034
    1UNL     C2    2  -0.297   0.092  -0.108
    1UNL     C3    3  -0.159   0.086  -0.023
    1UNL     C4    4  -0.092   0.229  -0.015
    1UNL     C5    5   0.034   0.237   0.010
    1UNL     N1    6   0.113   0.124   0.037
    1UNL     C6    7   0.072   0.002  -0.022
    1UNL     C7    8   0.164  -0.094  -0.007
    1UNL     C8    9   0.283  -0.030   0.037
    1UNL     C9   10   0.424  -0.068   0.043
    1UNL    C10   11   0.521   0.029   0.073
    1UNL    C11   12   0.483   0.160   0.098
    1UNL    C12   13   0.355   0.196   0.090
    1UNL    C13   14   0.248   0.100   0.067
    1UNL    C14   15   0.144  -0.234  -0.068
    1UNL    C15   16   0.012  -0.242  -0.155
    1UNL     N2   17  -0.098  -0.159  -0.089
    1UNL    C16   18  -0.133  -0.216   0.047
    1UNL    C17   19  -0.240  -0.122   0.105
    1UNL    C18   20  -0.187   0.026   0.118
    1UNL    C19   21  -0.060  -0.015  -0.093
    1UNL     H1   22  -0.461   0.041   0.020
    1UNL     H2   23  -0.408   0.205   0.050
    1UNL     H3   24  -0.500   0.159  -0.103
    1UNL     H4   25  -0.276   0.177  -0.181
    1UNL     H5   26  -0.301   0.008  -0.171
    1UNL     H6   27  -0.158   0.319  -0.028
    1UNL     H7   28   0.079   0.338   0.001
    1UNL     H8   29   0.457  -0.160  -0.008
    1UNL     H9   30   0.623   0.006   0.084
    1UNL    H10   31   0.562   0.232   0.114
    1UNL    H11   32   0.328   0.296   0.099
    1UNL    H12   33   0.232  -0.259  -0.128
    1UNL    H13   34   0.142  -0.307   0.013
    1UNL    H14   35   0.023  -0.206  -0.256
    1UNL    H15   36  -0.015  -0.341  -0.179
    1UNL    H16   37  -0.041  -0.215   0.104
    1UNL    H17   38  -0.172  -0.310   0.019
    1UNL    H18   39  -0.266  -0.171   0.193
    1UNL    H19   40  -0.332  -0.122   0.040
    1UNL    H20   41  -0.258   0.083   0.175
    1UNL    H21   42  -0.095   0.037   0.172
    1UNL    H22   43  -0.060   0.020  -0.195
   0.00000   0.00000   0.00000   0.00000   0.00000   0.00000   0.00000   0.00000   0.00000
Generated with MDTraj, t= 88.0
 43
    1UNL     C1    1  -0.415   0.149  -0.042
    1UNL     C2    2  -0.288   0.089  -0.104
    1UNL     C3    3  -0.163   0.075  -0.007
    1UNL     C4    4  -0.097   0.208   0.022
    1UNL     C5    5   0.032   0.232   0.028
    1UNL     N1    6   0.129   0.138  -0.009
    1UNL     C6    7   0.084   0.014  -0.051
    1UNL     C7    8   0.180  -0.083  -0.057
    1UNL     C8    9   0.295  -0.018   0.007
    1UNL     C9   10   0.414  -0.071   0.058
    1UNL    C10   11   0.499   0.013   0.128
    1UNL    C11   12   0.482   0.152   0.116
    1UNL    C12   13   0.367   0.209   0.062
    1UNL    C13   14   0.262   0.125   0.025
    1UNL    C14   15   0.140  -0.227  -0.073
    1UNL    C15   16   0.006  -0.242  -0.143
    1UNL     N2   17  -0.102  -0.163  -0.081
    1UNL    C16   18  -0.133  -0.214   0.056
    1UNL    C17   19  -0.253  -0.139   0.108
    1UNL    C18   20  -0.204   0.006   0.131
    1UNL    C19   21  -0.063  -0.017  -0.085
    1UNL     H1   22  -0.426   0.101   0.058
    1UNL     H2   23  -0.406   0.258  -0.024
    1UNL     H3   24  -0.498   0.127  -0.114
    1UNL     H4   25  -0.255   0.143  -0.199
    1UNL     H5   26  -0.308  -0.009  -0.134
    1UNL     H6   27  -0.166   0.284   0.045
    1UNL     H7   28   0.074   0.329   0.042
    1UNL     H8   29   0.442  -0.172   0.048
    1UNL     H9   30   0.594  -0.019   0.177
    1UNL    H10   31   0.553   0.226   0.152
    1UNL    H11   32   0.354   0.318   0.064
    1UNL    H12   33   0.217  -0.277  -0.132
    1UNL    H13   34   0.134  -0.278   0.025
    1UNL    H14   35   0.019  -0.222  -0.247
    1UNL    H15   36  -0.024  -0.342  -0.144
    1UNL    H16   37  -0.047  -0.185   0.113
    1UNL    H17   38  -0.143  -0.320   0.054
    1UNL    H18   39  -0.293  -0.178   0.196
    1UNL    H19   40  -0.323  -0.152   0.021
    1UNL    H20   41  -0.280   0.068   0.172
    1UNL    H21   42  -0.122  -0.011   0.201
    1UNL    H22   43  -0.070   0.002  -0.191
   0.00000   0.00000   0.00000   0.00000   0.00000   0.00000   0.00000   0.00000   0.00000
Generated with MDTraj, t= 89.0
 43
    1UNL     C1    1  -0.381   0.219  -0.057
    1UNL     C2    2  -0.301   0.092  -0.093
    1UNL     C3    3  -0.166   0.067  -0.013
    1UNL     C4    4  -0.100   0.205  -0.000
    1UNL     C5    5   0.028   0.231  -0.005
    1UNL     N1    6   0.109   0.119   0.001
    1UNL     C6    7   0.072   0.005  -0.063
    1UNL     C7    8   0.175  -0.087  -0.053
    1UNL     C8    9   0.285  -0.017   0.011
    1UNL     C9   10   0.419  -0.053   0.038
    1UNL    C10   11   0.504   0.035   0.100
    1UNL    C11   12   0.465   0.159   0.140
    1UNL    C12   13   0.333   0.197   0.115
    1UNL    C13   14   0.243   0.110   0.050
    1UNL    C14   15   0.152  -0.230  -0.099
    1UNL    C15   16   0.007  -0.266  -0.143
    1UNL     N2   17  -0.097  -0.176  -0.079
    1UNL    C16   18  -0.117  -0.224   0.060
    1UNL    C17   19  -0.222  -0.140   0.140
    1UNL    C18   20  -0.179   0.007   0.137
    1UNL    C19   21  -0.072  -0.024  -0.100
    1UNL     H1   22  -0.411   0.225   0.052
    1UNL     H2   23  -0.327   0.310  -0.071
    1UNL     H3   24  -0.472   0.236  -0.123
    1UNL     H4   25  -0.276   0.087  -0.204
    1UNL     H5   26  -0.364   0.010  -0.075
    1UNL     H6   27  -0.165   0.291   0.016
    1UNL     H7   28   0.075   0.326   0.011
    1UNL     H8   29   0.444  -0.159   0.023
    1UNL     H9   30   0.603  -0.001   0.107
    1UNL    H10   31   0.527   0.227   0.196
    1UNL    H11   32   0.290   0.282   0.162
    1UNL    H12   33   0.222  -0.252  -0.177
    1UNL    H13   34   0.176  -0.293  -0.009
    1UNL    H14   35  -0.001  -0.256  -0.249
    1UNL    H15   36  -0.008  -0.369  -0.129
    1UNL    H16   37  -0.021  -0.224   0.111
    1UNL    H17   38  -0.137  -0.330   0.066
    1UNL    H18   39  -0.238  -0.188   0.233
    1UNL    H19   40  -0.316  -0.133   0.081
    1UNL    H20   41  -0.247   0.057   0.205
    1UNL    H21   42  -0.073   0.007   0.158
    1UNL    H22   43  -0.083  -0.011  -0.207
   0.00000   0.00000   0.00000   0.00000   0.00000   0.00000   0.00000   0.00000   0.00000
Generated with MDTraj, t= 90.0
 43
    1UNL     C1    1  -0.418   0.167  -0.065
    1UNL     C2    2  -0.298   0.077  -0.117
    1UNL     C3    3  -0.170   0.074  -0.025
    1UNL     C4    4  -0.106   0.215  -0.020
    1UNL     C5    5   0.023   0.232   0.013
    1UNL     N1    6   0.107   0.115   0.032
    1UNL     C6    7   0.068  -0.003  -0.035
    1UNL     C7    8   0.179  -0.083  -0.056
    1UNL     C8    9   0.292  -0.018   0.004
    1UNL     C9   10   0.422  -0.063   0.030
    1UNL    C10   11   0.514   0.017   0.085
    1UNL    C11   12   0.472   0.141   0.140
    1UNL    C12   13   0.341   0.185   0.130
    1UNL    C13   14   0.251   0.100   0.066
    1UNL    C14   15   0.147  -0.219  -0.106
    1UNL    C15   16  -0.002  -0.246  -0.149
    1UNL     N2   17  -0.103  -0.169  -0.074
    1UNL    C16   18  -0.095  -0.195   0.066
    1UNL    C17   19  -0.205  -0.114   0.144
    1UNL    C18   20  -0.185   0.033   0.127
    1UNL    C19   21  -0.070  -0.026  -0.092
    1UNL     H1   22  -0.409   0.201   0.045
    1UNL     H2   23  -0.416   0.264  -0.108
    1UNL     H3   24  -0.523   0.127  -0.083
    1UNL     H4   25  -0.266   0.127  -0.214
    1UNL     H5   26  -0.330  -0.022  -0.137
    1UNL     H6   27  -0.163   0.304  -0.051
    1UNL     H7   28   0.061   0.334   0.018
    1UNL     H8   29   0.443  -0.159  -0.010
    1UNL     H9   30   0.617  -0.014   0.099
    1UNL    H10   31   0.553   0.205   0.173
    1UNL    H11   32   0.305   0.281   0.168
    1UNL    H12   33   0.212  -0.236  -0.189
    1UNL    H13   34   0.175  -0.292  -0.024
    1UNL    H14   35  -0.012  -0.231  -0.255
    1UNL    H15   36  -0.024  -0.347  -0.133
    1UNL    H16   37   0.006  -0.177   0.105
    1UNL    H17   38  -0.100  -0.302   0.083
    1UNL    H18   39  -0.211  -0.132   0.252
    1UNL    H19   40  -0.295  -0.152   0.097
    1UNL    H20   41  -0.278   0.082   0.153
    1UNL    H21   42  -0.094   0.059   0.182
    1UNL    H22   43  -0.053  -0.012  -0.199
   0.00000   0.00000   0.00000   0.00000   0.00000   0.00000   0.00000   0.00000   0.00000
Generated with MDTraj, t= 91.0
 43
    1UNL     C1    1  -0.428   0.111  -0.044
    1UNL     C2    2  -0.292   0.091  -0.108
    1UNL     C3    3  -0.163   0.085  -0.011
    1UNL     C4    4  -0.104   0.220   0.004
    1UNL     C5    5   0.032   0.245   0.017
    1UNL     N1    6   0.123   0.133   0.010
    1UNL     C6    7   0.077   0.009  -0.049
    1UNL     C7    8   0.180  -0.082  -0.059
    1UNL     C8    9   0.299  -0.017  -0.009
    1UNL     C9   10   0.419  -0.074   0.048
    1UNL    C10   11   0.507   0.001   0.113
    1UNL    C11   12   0.487   0.146   0.129
    1UNL    C12   13   0.359   0.195   0.103
    1UNL    C13   14   0.264   0.114   0.032
    1UNL    C14   15   0.154  -0.223  -0.095
    1UNL    C15   16   0.007  -0.254  -0.140
    1UNL     N2   17  -0.095  -0.162  -0.075
    1UNL    C16   18  -0.133  -0.199   0.062
    1UNL    C17   19  -0.252  -0.114   0.112
    1UNL    C18   20  -0.201   0.024   0.130
    1UNL    C19   21  -0.065  -0.011  -0.086
    1UNL     H1   22  -0.489   0.017  -0.018
    1UNL     H2   23  -0.420   0.159   0.052
    1UNL     H3   24  -0.497   0.174  -0.108
    1UNL     H4   25  -0.280   0.184  -0.170
    1UNL     H5   26  -0.300   0.006  -0.169
    1UNL     H6   27  -0.173   0.299   0.004
    1UNL     H7   28   0.072   0.339   0.040
    1UNL     H8   29   0.435  -0.181   0.031
    1UNL     H9   30   0.602  -0.035   0.144
    1UNL    H10   31   0.557   0.209   0.183
    1UNL    H11   32   0.336   0.298   0.120
    1UNL    H12   33   0.223  -0.250  -0.171
    1UNL    H13   34   0.186  -0.283  -0.003
    1UNL    H14   35  -0.001  -0.248  -0.247
    1UNL    H15   36  -0.017  -0.354  -0.118
    1UNL    H16   37  -0.047  -0.177   0.129
    1UNL    H17   38  -0.139  -0.305   0.082
    1UNL    H18   39  -0.291  -0.167   0.203
    1UNL    H19   40  -0.333  -0.111   0.044
    1UNL    H20   41  -0.281   0.080   0.174
    1UNL    H21   42  -0.104   0.025   0.183
    1UNL    H22   43  -0.062   0.006  -0.195
   0.00000   0.00000   0.00000   0.00000   0.00000   0.00000   0.00000   0.00000   0.00000
Generated with MDTraj, t= 92.0
 43
    1UNL     C1    1  -0.400   0.166  -0.037
    1UNL     C2    2  -0.284   0.091  -0.090
    1UNL     C3    3  -0.156   0.080  -0.006
    1UNL     C4    4  -0.099   0.211   0.021
    1UNL     C5    5   0.032   0.233   0.006
    1UNL     N1    6   0.123   0.127  -0.003
    1UNL     C6    7   0.078   0.005  -0.047
    1UNL     C7    8   0.169  -0.094  -0.033
    1UNL     C8    9   0.282  -0.027   0.026
    1UNL     C9   10   0.410  -0.074   0.065
    1UNL    C10   11   0.505   0.027   0.096
    1UNL    C11   12   0.470   0.164   0.109
    1UNL    C12   13   0.343   0.208   0.084
    1UNL    C13   14   0.257   0.111   0.036
    1UNL    C14   15   0.143  -0.237  -0.066
    1UNL    C15   16   0.017  -0.245  -0.153
    1UNL     N2   17  -0.095  -0.162  -0.099
    1UNL    C16   18  -0.131  -0.215   0.034
    1UNL    C17   19  -0.241  -0.133   0.104
    1UNL    C18   20  -0.193   0.006   0.136
    1UNL    C19   21  -0.060  -0.013  -0.089
    1UNL     H1   22  -0.468   0.110   0.033
    1UNL     H2   23  -0.377   0.253   0.030
    1UNL     H3   24  -0.468   0.199  -0.119
    1UNL     H4   25  -0.254   0.142  -0.185
    1UNL     H5   26  -0.318  -0.008  -0.107
    1UNL     H6   27  -0.160   0.301   0.046
    1UNL     H7   28   0.066   0.340   0.012
    1UNL     H8   29   0.435  -0.176   0.040
    1UNL     H9   30   0.606  -0.005   0.113
    1UNL    H10   31   0.540   0.231   0.156
    1UNL    H11   32   0.314   0.310   0.107
    1UNL    H12   33   0.227  -0.283  -0.109
    1UNL    H13   34   0.126  -0.298   0.030
    1UNL    H14   35   0.035  -0.206  -0.252
    1UNL    H15   36  -0.015  -0.345  -0.169
    1UNL    H16   37  -0.040  -0.220   0.097
    1UNL    H17   38  -0.160  -0.318   0.027
    1UNL    H18   39  -0.295  -0.182   0.191
    1UNL    H19   40  -0.316  -0.144   0.030
    1UNL    H20   41  -0.262   0.065   0.192
    1UNL    H21   42  -0.095  -0.007   0.184
    1UNL    H22   43  -0.057   0.022  -0.196
   0.00000   0.00000   0.00000   0.00000   0.00000   0.00000   0.00000   0.00000   0.00000
Generated with MDTraj, t= 93.0
 43
    1UNL     C1    1  -0.414   0.185  -0.058
    1UNL     C2    2  -0.297   0.086  -0.103
    1UNL     C3    3  -0.167   0.084  -0.014
    1UNL     C4    4  -0.106   0.220   0.007
    1UNL     C5    5   0.027   0.230   0.034
    1UNL     N1    6   0.116   0.121   0.023
    1UNL     C6    7   0.071   0.000  -0.025
    1UNL     C7    8   0.177  -0.090  -0.036
    1UNL     C8    9   0.292  -0.030   0.023
    1UNL     C9   10   0.423  -0.073   0.038
    1UNL    C10   11   0.511   0.025   0.090
    1UNL    C11   12   0.475   0.157   0.110
    1UNL    C12   13   0.342   0.196   0.091
    1UNL    C13   14   0.249   0.102   0.060
    1UNL    C14   15   0.166  -0.230  -0.098
    1UNL    C15   16   0.020  -0.250  -0.152
    1UNL     N2   17  -0.086  -0.166  -0.087
    1UNL    C16   18  -0.126  -0.215   0.049
    1UNL    C17   19  -0.240  -0.130   0.119
    1UNL    C18   20  -0.204   0.021   0.121
    1UNL    C19   21  -0.061  -0.016  -0.088
    1UNL     H1   22  -0.390   0.248   0.030
    1UNL     H2   23  -0.433   0.262  -0.141
    1UNL     H3   24  -0.504   0.122  -0.044
    1UNL     H4   25  -0.267   0.107  -0.207
    1UNL     H5   26  -0.335  -0.015  -0.102
    1UNL     H6   27  -0.168   0.304   0.006
    1UNL     H7   28   0.059   0.328   0.049
    1UNL     H8   29   0.459  -0.167   0.004
    1UNL     H9   30   0.611  -0.007   0.110
    1UNL    H10   31   0.548   0.231   0.138
    1UNL    H11   32   0.306   0.293   0.126
    1UNL    H12   33   0.229  -0.245  -0.180
    1UNL    H13   34   0.199  -0.315  -0.029
    1UNL    H14   35   0.019  -0.227  -0.258
    1UNL    H15   36  -0.018  -0.351  -0.145
    1UNL    H16   37  -0.038  -0.219   0.120
    1UNL    H17   38  -0.155  -0.319   0.036
    1UNL    H18   39  -0.237  -0.178   0.222
    1UNL    H19   40  -0.342  -0.146   0.091
    1UNL    H20   41  -0.284   0.080   0.163
    1UNL    H21   42  -0.112   0.037   0.178
    1UNL    H22   43  -0.059   0.024  -0.194
   0.00000   0.00000   0.00000   0.00000   0.00000   0.00000   0.00000   0.00000   0.00000
Generated with MDTraj, t= 94.0
 43
    1UNL     C1    1  -0.441   0.147  -0.075
    1UNL     C2    2  -0.297   0.095  -0.118
    1UNL     C3    3  -0.171   0.085  -0.023
    1UNL     C4    4  -0.099   0.223  -0.002
    1UNL     C5    5   0.032   0.228   0.035
    1UNL     N1    6   0.117   0.117   0.029
    1UNL     C6    7   0.071   0.007  -0.037
    1UNL     C7    8   0.175  -0.082  -0.042
    1UNL     C8    9   0.301  -0.022  -0.001
    1UNL     C9   10   0.440  -0.057  -0.001
    1UNL    C10   11   0.522   0.018   0.076
    1UNL    C11   12   0.474   0.135   0.140
    1UNL    C12   13   0.344   0.182   0.128
    1UNL    C13   14   0.255   0.095   0.059
    1UNL    C14   15   0.162  -0.222  -0.094
    1UNL    C15   16   0.019  -0.247  -0.137
    1UNL     N2   17  -0.089  -0.163  -0.070
    1UNL    C16   18  -0.130  -0.206   0.063
    1UNL    C17   19  -0.231  -0.120   0.129
    1UNL    C18   20  -0.207   0.035   0.121
    1UNL    C19   21  -0.071  -0.017  -0.085
    1UNL     H1   22  -0.437   0.256  -0.061
    1UNL     H2   23  -0.521   0.137  -0.159
    1UNL     H3   24  -0.474   0.098   0.017
    1UNL     H4   25  -0.247   0.157  -0.194
    1UNL     H5   26  -0.299  -0.005  -0.162
    1UNL     H6   27  -0.166   0.308  -0.003
    1UNL     H7   28   0.080   0.323   0.063
    1UNL     H8   29   0.473  -0.154  -0.044
    1UNL     H9   30   0.630   0.004   0.070
    1UNL    H10   31   0.534   0.190   0.211
    1UNL    H11   32   0.309   0.268   0.177
    1UNL    H12   33   0.230  -0.243  -0.173
    1UNL    H13   34   0.184  -0.303  -0.018
    1UNL    H14   35   0.002  -0.223  -0.241
    1UNL    H15   36  -0.005  -0.352  -0.121
    1UNL    H16   37  -0.037  -0.226   0.126
    1UNL    H17   38  -0.182  -0.302   0.049
    1UNL    H18   39  -0.233  -0.139   0.239
    1UNL    H19   40  -0.327  -0.159   0.093
    1UNL    H20   41  -0.302   0.084   0.133
    1UNL    H21   42  -0.138   0.064   0.203
    1UNL    H22   43  -0.079   0.009  -0.196
   0.00000   0.00000   0.00000   0.00000   0.00000   0.00000   0.00000   0.00000   0.00000
Generated with MDTraj, t= 95.0
 43
    1UNL     C1    1  -0.409   0.159  -0.037
    1UNL     C2    2  -0.296   0.102  -0.110
    1UNL     C3    3  -0.166   0.079  -0.018
    1UNL     C4    4  -0.094   0.219   0.004
    1UNL     C5    5   0.033   0.240   0.019
    1UNL     N1    6   0.120   0.129   0.004
    1UNL     C6    7   0.081   0.003  -0.045
    1UNL     C7    8   0.178  -0.089  -0.044
    1UNL     C8    9   0.285  -0.027   0.018
    1UNL     C9   10   0.414  -0.075   0.051
    1UNL    C10   11   0.503   0.017   0.095
    1UNL    C11   12   0.464   0.149   0.137
    1UNL    C12   13   0.345   0.197   0.101
    1UNL    C13   14   0.250   0.110   0.049
    1UNL    C14   15   0.159  -0.224  -0.113
    1UNL    C15   16   0.014  -0.249  -0.154
    1UNL     N2   17  -0.084  -0.165  -0.072
    1UNL    C16   18  -0.126  -0.213   0.065
    1UNL    C17   19  -0.242  -0.134   0.122
    1UNL    C18   20  -0.204   0.020   0.119
    1UNL    C19   21  -0.059  -0.020  -0.088
    1UNL     H1   22  -0.393   0.263  -0.002
    1UNL     H2   23  -0.502   0.165  -0.107
    1UNL     H3   24  -0.430   0.089   0.044
    1UNL     H4   25  -0.260   0.162  -0.194
    1UNL     H5   26  -0.321   0.001  -0.146
    1UNL     H6   27  -0.161   0.305  -0.003
    1UNL     H7   28   0.068   0.336   0.038
    1UNL     H8   29   0.445  -0.169   0.023
    1UNL     H9   30   0.607  -0.008   0.095
    1UNL    H10   31   0.544   0.204   0.181
    1UNL    H11   32   0.316   0.303   0.109
    1UNL    H12   33   0.222  -0.232  -0.199
    1UNL    H13   34   0.200  -0.299  -0.041
    1UNL    H14   35   0.005  -0.218  -0.258
    1UNL    H15   36  -0.020  -0.353  -0.145
    1UNL    H16   37  -0.039  -0.207   0.140
    1UNL    H17   38  -0.155  -0.319   0.051
    1UNL    H18   39  -0.272  -0.174   0.219
    1UNL    H19   40  -0.339  -0.141   0.064
    1UNL    H20   41  -0.279   0.075   0.174
    1UNL    H21   42  -0.103   0.028   0.166
    1UNL    H22   43  -0.075   0.015  -0.196
   0.00000   0.00000   0.00000   0.00000   0.00000   0.00000   0.00000   0.00000   0.00000
Generated with MDTraj, t= 96.0
 43
    1UNL     C1    1  -0.385   0.163  -0.015
    1UNL     C2    2  -0.289   0.072  -0.093
    1UNL     C3    3  -0.158   0.073  -0.019
    1UNL     C4    4  -0.100   0.213   0.001
    1UNL     C5    5   0.028   0.242   0.013
    1UNL     N1    6   0.123   0.135  -0.013
    1UNL     C6    7   0.076   0.013  -0.054
    1UNL     C7    8   0.165  -0.089  -0.032
    1UNL     C8    9   0.283  -0.019   0.009
    1UNL     C9   10   0.401  -0.072   0.066
    1UNL    C10   11   0.495   0.010   0.123
    1UNL    C11   12   0.465   0.146   0.125
    1UNL    C12   13   0.347   0.203   0.089
    1UNL    C13   14   0.251   0.116   0.030
    1UNL    C14   15   0.144  -0.226  -0.075
    1UNL    C15   16   0.013  -0.231  -0.164
    1UNL     N2   17  -0.097  -0.163  -0.091
    1UNL    C16   18  -0.124  -0.218   0.046
    1UNL    C17   19  -0.231  -0.135   0.111
    1UNL    C18   20  -0.188   0.014   0.126
    1UNL    C19   21  -0.057  -0.019  -0.099
    1UNL     H1   22  -0.339   0.248   0.041
    1UNL     H2   23  -0.462   0.210  -0.081
    1UNL     H3   24  -0.433   0.093   0.056
    1UNL     H4   25  -0.264   0.111  -0.192
    1UNL     H5   26  -0.329  -0.032  -0.097
    1UNL     H6   27  -0.166   0.293   0.009
    1UNL     H7   28   0.076   0.336   0.047
    1UNL     H8   29   0.425  -0.180   0.050
    1UNL     H9   30   0.588  -0.022   0.173
    1UNL    H10   31   0.533   0.218   0.174
    1UNL    H11   32   0.325   0.305   0.109
    1UNL    H12   33   0.238  -0.250  -0.125
    1UNL    H13   34   0.139  -0.295   0.010
    1UNL    H14   35   0.026  -0.171  -0.254
    1UNL    H15   36  -0.015  -0.336  -0.187
    1UNL    H16   37  -0.027  -0.206   0.105
    1UNL    H17   38  -0.152  -0.326   0.042
    1UNL    H18   39  -0.266  -0.161   0.209
    1UNL    H19   40  -0.329  -0.148   0.051
    1UNL    H20   41  -0.260   0.082   0.173
    1UNL    H21   42  -0.095   0.007   0.190
    1UNL    H22   43  -0.072   0.008  -0.208
   0.00000   0.00000   0.00000   0.00000   0.00000   0.00000   0.00000   0.00000   0.00000
Generated with MDTraj, t= 97.0
 43
    1UNL     C1    1  -0.409   0.125  -0.014
    1UNL     C2    2  -0.295   0.079  -0.105
    1UNL     C3    3  -0.160   0.084  -0.027
    1UNL     C4    4  -0.091   0.222  -0.012
    1UNL     C5    5   0.033   0.234   0.025
    1UNL     N1    6   0.125   0.126  -0.002
    1UNL     C6    7   0.078   0.006  -0.052
    1UNL     C7    8   0.179  -0.082  -0.057
    1UNL     C8    9   0.293  -0.022   0.011
    1UNL     C9   10   0.419  -0.069   0.049
    1UNL    C10   11   0.505   0.019   0.113
    1UNL    C11   12   0.467   0.147   0.143
    1UNL    C12   13   0.341   0.191   0.111
    1UNL    C13   14   0.257   0.108   0.040
    1UNL    C14   15   0.159  -0.225  -0.100
    1UNL    C15   16   0.010  -0.249  -0.151
    1UNL     N2   17  -0.101  -0.164  -0.088
    1UNL    C16   18  -0.149  -0.205   0.050
    1UNL    C17   19  -0.246  -0.104   0.124
    1UNL    C18   20  -0.182   0.030   0.118
    1UNL    C19   21  -0.062  -0.018  -0.094
    1UNL     H1   22  -0.414   0.235   0.010
    1UNL     H2   23  -0.511   0.112  -0.054
    1UNL     H3   24  -0.409   0.070   0.084
    1UNL     H4   25  -0.289   0.140  -0.194
    1UNL     H5   26  -0.307  -0.029  -0.133
    1UNL     H6   27  -0.156   0.314  -0.005
    1UNL     H7   28   0.078   0.323   0.059
    1UNL     H8   29   0.457  -0.161   0.017
    1UNL     H9   30   0.607  -0.011   0.125
    1UNL    H10   31   0.521   0.199   0.216
    1UNL    H11   32   0.302   0.284   0.151
    1UNL    H12   33   0.237  -0.248  -0.174
    1UNL    H13   34   0.190  -0.282  -0.013
    1UNL    H14   35   0.009  -0.224  -0.258
    1UNL    H15   36  -0.019  -0.356  -0.135
    1UNL    H16   37  -0.056  -0.213   0.115
    1UNL    H17   38  -0.197  -0.305   0.037
    1UNL    H18   39  -0.274  -0.134   0.223
    1UNL    H19   40  -0.353  -0.092   0.081
    1UNL    H20   41  -0.252   0.095   0.172
    1UNL    H21   42  -0.078   0.043   0.163
    1UNL    H22   43  -0.076   0.012  -0.202
   0.00000   0.00000   0.00000   0.00000   0.00000   0.00000   0.00000   0.00000   0.00000
Generated with MDTraj, t= 98.0
 43
    1UNL     C1    1  -0.425   0.183  -0.064
    1UNL     C2    2  -0.302   0.099  -0.109
    1UNL     C3    3  -0.177   0.075  -0.021
    1UNL     C4    4  -0.109   0.209  -0.004
    1UNL     C5    5   0.019   0.230   0.008
    1UNL     N1    6   0.112   0.125   0.009
    1UNL     C6    7   0.075   0.002  -0.048
    1UNL     C7    8   0.172  -0.089  -0.033
    1UNL     C8    9   0.288  -0.025   0.022
    1UNL     C9   10   0.415  -0.071   0.034
    1UNL    C10   11   0.508   0.014   0.082
    1UNL    C11   12   0.473   0.139   0.137
    1UNL    C12   13   0.344   0.186   0.127
    1UNL    C13   14   0.248   0.106   0.061
    1UNL    C14   15   0.157  -0.225  -0.106
    1UNL    C15   16   0.021  -0.240  -0.156
    1UNL     N2   17  -0.083  -0.169  -0.078
    1UNL    C16   18  -0.094  -0.206   0.060
    1UNL    C17   19  -0.201  -0.125   0.147
    1UNL    C18   20  -0.209   0.026   0.125
    1UNL    C19   21  -0.068  -0.024  -0.096
    1UNL     H1   22  -0.402   0.292  -0.039
    1UNL     H2   23  -0.497   0.201  -0.143
    1UNL     H3   24  -0.485   0.142   0.024
    1UNL     H4   25  -0.260   0.154  -0.190
    1UNL     H5   26  -0.349   0.002  -0.146
    1UNL     H6   27  -0.178   0.285   0.010
    1UNL     H7   28   0.063   0.330   0.016
    1UNL     H8   29   0.442  -0.167  -0.011
    1UNL     H9   30   0.612  -0.019   0.080
    1UNL    H10   31   0.555   0.197   0.188
    1UNL    H11   32   0.310   0.262   0.196
    1UNL    H12   33   0.237  -0.232  -0.184
    1UNL    H13   34   0.180  -0.302  -0.036
    1UNL    H14   35   0.013  -0.196  -0.258
    1UNL    H15   36  -0.009  -0.350  -0.154
    1UNL    H16   37   0.008  -0.185   0.104
    1UNL    H17   38  -0.125  -0.316   0.061
    1UNL    H18   39  -0.193  -0.133   0.253
    1UNL    H19   40  -0.305  -0.172   0.130
    1UNL    H20   41  -0.306   0.077   0.138
    1UNL    H21   42  -0.137   0.071   0.201
    1UNL    H22   43  -0.067  -0.006  -0.207
   0.00000   0.00000   0.00000   0.00000   0.00000   0.00000   0.00000   0.00000   0.00000
Generated with MDTraj, t= 99.0
 43
    1UNL     C1    1  -0.393   0.203  -0.096
    1UNL     C2    2  -0.298   0.081  -0.105
    1UNL     C3    3  -0.169   0.075  -0.007
    1UNL     C4    4  -0.112   0.211   0.029
    1UNL     C5    5   0.022   0.227   0.038
    1UNL     N1    6   0.118   0.127   0.009
    1UNL     C6    7   0.075   0.003  -0.034
    1UNL     C7    8   0.178  -0.089  -0.054
    1UNL     C8    9   0.296  -0.019  -0.003
    1UNL     C9   10   0.423  -0.066   0.037
    1UNL    C10   11   0.506   0.019   0.102
    1UNL    C11   12   0.469   0.153   0.134
    1UNL    C12   13   0.345   0.199   0.099
    1UNL    C13   14   0.250   0.106   0.040
    1UNL    C14   15   0.161  -0.225  -0.116
    1UNL    C15   16   0.014  -0.255  -0.155
    1UNL     N2   17  -0.093  -0.170  -0.069
    1UNL    C16   18  -0.116  -0.212   0.069
    1UNL    C17   19  -0.239  -0.135   0.124
    1UNL    C18   20  -0.204   0.011   0.136
    1UNL    C19   21  -0.067  -0.022  -0.076
    1UNL     H1   22  -0.346   0.291  -0.153
    1UNL     H2   23  -0.489   0.196  -0.144
    1UNL     H3   24  -0.412   0.235   0.012
    1UNL     H4   25  -0.274   0.081  -0.209
    1UNL     H5   26  -0.364  -0.010  -0.091
    1UNL     H6   27  -0.184   0.285   0.061
    1UNL     H7   28   0.061   0.319   0.076
    1UNL     H8   29   0.451  -0.170   0.017
    1UNL     H9   30   0.609  -0.006   0.112
    1UNL    H10   31   0.539   0.220   0.171
    1UNL    H11   32   0.308   0.299   0.114
    1UNL    H12   33   0.229  -0.223  -0.206
    1UNL    H13   34   0.204  -0.300  -0.056
    1UNL    H14   35   0.001  -0.227  -0.263
    1UNL    H15   36  -0.008  -0.365  -0.141
    1UNL    H16   37  -0.026  -0.197   0.137
    1UNL    H17   38  -0.154  -0.319   0.058
    1UNL    H18   39  -0.272  -0.175   0.219
    1UNL    H19   40  -0.336  -0.137   0.063
    1UNL    H20   41  -0.278   0.070   0.193
    1UNL    H21   42  -0.104   0.022   0.189
    1UNL    H22   43  -0.074   0.009  -0.182
   0.00000   0.00000   0.00000   0.00000   0.00000   0.00000   0.00000   0.00000   0.00000
