[ moleculetype ]
; name        nrexcl
res           1

[ atoms ]
;    nr  type  resnr resid  atom  cgnr     charge       mass
      1 SC4       1 res   C1        1      0.000     54.000
      2 TN6a      1 res   C2        2      0.000     36.000
      3 TN6d      1 res   C3        3      0.000     36.000
      4 SN6a      1 res   C4        4      0.000     54.000

[ constraints ]
;  ai    aj   funct      b0(nm)
    1     2     1      0.25155
    2     3     1      0.19552
    1     4     1      0.37405
    3     4     1      0.25185

[ bonds ]
;  ai    aj   funct      b0(nm)          k(kJ/mol/nm^2)

[ angles ]
;  ai    aj    ak  funct     th0(deg)        k(kJ/mol/rad^2)
    1     2     3     1    115.17915          4315.90
    1     4     3     1     71.43947          4204.56
    2     1     4     1     66.85652         13448.11
    2     3     4     1    106.26709          3804.08

[ dihedrals ]
;  ai    aj    ak    al  funct   phi0(deg)        k(kJ/mol)   mult
    1     2     3     4     1   -179.76475       10.744      1
    1     4     3     2     1    179.82142        7.783      1
    2     1     4     3     1   -179.77423        6.262      1
    3     2     1     4     1    179.82486        7.796      1
