[ moleculetype ]
; name        nrexcl
res           1

[ atoms ]
;    nr  type resnr resid  atom  cgnr     charge       mass
      1 TC4       1 res   C1        1      0.000     36.000
      2 SN6a      1 res   C2        2      0.000     54.000
      3 TC5       1 res   C3        3      0.000     36.000
      4 TN4a      1 res   C4        4      0.000     36.000
      5 SN6a      1 res   C5        5      0.000     54.000
      6 SC3       1 res   C6        6      0.000     54.000
      7 TC4       1 res   C7        7      0.000     36.000
      8 TC3       1 res   C8        8      0.000     36.000
      9 TC3       1 res   C9        9      0.000     36.000
     10 TN4a      1 res   C10      10      0.000     36.000
     11 TN6a      1 res   C11      11      0.000     36.000

[ bonds ]
;  ai    aj   funct      b0(nm)        k
    1     2     1      0.32276    20000
    1     7     1      0.27702    20000
    2     3     1      0.29528    20000
    3     4     1      0.24411    20000
    3     5     1      0.33393    20000
    3     6     1      0.24482    20000
    3     7     1      0.28884    20000
    4     5     1      0.26274    20000
    5     6     1      0.34344    20000
    7     8     1      0.26205    20000
    8     9     1      0.22905    20000
    9    10     1      0.25220    20000
    9    11     1      0.23772    20000
   10    11     1      0.28880    20000
