[ moleculetype ]
; name        nrexcl
res           1

[ atoms ]
;    nr  type  resnr resid  atom  cgnr     charge       mass
      1 TC5       1 res   C1        1      0.000     36.000
      2 TP1d      1 res   C2        2      0.000     36.000
      3 SN4a      1 res   C3        3      0.000     54.000
      4 TP1       1 res   C4        4      0.000     36.000
      5 SP4       1 res   C5        5      0.000     54.000
      6 TN6       1 res   C6        6      0.000     36.000
      7 TC3       1 res   C7        7      0.000     36.000
      8 SC4       1 res   C8        8      0.000     54.000
      9 TC3       1 res   C9        9      0.000     36.000

[ constraints ]
;  ai    aj   funct      b0(nm)
    1     2     1      0.27082
    3     5     1      0.29479
    7     9     1      0.28211
    3     4     1      0.28713
    7     8     1      0.35208
    5     6     1      0.28228
    3     6     1      0.26527
    8     9     1      0.31217

[ bonds ]
;  ai    aj   funct      b0(nm)          k(kJ/mol/nm^2)
    2     3     1      0.22229          10440.9
    1     7     1      0.28941           5589.3

[ angles ]
;  ai    aj    ak  funct     th0(deg)        k(kJ/mol/rad^2)
    1     2     3     1    135.01444            11.54
    1     7     8     1    147.98571            59.32
    1     7     9     1     97.23454            63.89
    2     1     7     1     70.16327           101.69
    2     3     4     1    113.07761           102.09
    2     3     5     1    132.71187           167.49
    2     3     6     1     97.07665           202.08
    3     5     6     1     54.69811          1736.96
    3     6     5     1     65.05075          2539.58
    4     3     5     1     91.45400          1394.85
    4     3     6     1    147.91454           343.63
    5     3     6     1     60.25123          1854.73
    7     8     9     1     49.75377          4701.83
    7     9     8     1     72.52765           745.78
    8     7     9     1     57.71771          1159.34

[ dihedrals ]
;  ai    aj    ak    al  funct   phi0(deg)        k(kJ/mol)   mult
    1     2     3     4     1   -139.54797       10.305      1
    1     2     3     5     1     97.53446       13.746      1
    1     2     3     6     1     49.32665       11.977      1
    1     7     8     9     1   -161.53459       29.529      1
    1     7     9     8     1      2.86053       23.901      1
    2     1     7     8     1     87.96840       27.387      1
    2     1     7     9     1     99.49973       29.037      1
    2     3     5     6     1    110.74862       18.417      1
    2     3     6     5     1    -45.80606       14.322      1
    3     2     1     7     1    -63.10741        6.631      1
    4     3     5     6     1    -15.62897       13.649      1
    4     3     6     5     1    154.73727       19.022      1
