1TPCN00453
12
    1res  C1    1   -0.480  -0.029  -0.027
    1res  C2    2   -0.196  -0.081  -0.006
    1res  C3    3   -0.201  -0.239   0.170
    1res  C4    4   -0.020   0.076  -0.092
    1res  C5    5    0.124  -0.069  -0.028
    1res  C6    6    0.254  -0.089   0.252
    1res  C7    7    0.425  -0.097   0.021
    1res  C8    8    0.373   0.031  -0.183
    1res  C9    9    0.200  -0.159  -0.242
    1res  C10   10   -0.243   0.089  -0.221
    1res  C11   11   -0.384   0.275  -0.083
    1res  C12   12   -0.049   0.300   0.046
  10.00000  10.00000  10.00000
