[ moleculetype ]
; name        nrexcl
res           1

[ atoms ]
;    nr  type resnr resid  atom  cgnr     charge       mass
      1 TC4       1 res   C1        1      0.000     36.000
      2 TN4a      1 res   C2        2      0.000     36.000
      3 TN3r      1 res   C3        3      0.000     36.000
      4 TN6       1 res   C4        4      0.000     36.000
      5 SN4a      1 res   C5        5      0.000     54.000
      6 TP1       1 res   C6        6      0.000     36.000
      7 TN6       1 res   C7        7      0.000     36.000
      8 TN6       1 res   C8        8      0.000     36.000
      9 TN6       1 res   C9        9      0.000     36.000
     10 TC3       1 res   C10      10      0.000     36.000
     11 TN6a      1 res   C11      11      0.000     36.000
     12 SC4       1 res   C12      12      0.000     54.000

[ bonds ]
;  ai    aj   funct      b0(nm)        k
    1     2     1      0.28997    20000
    1    10     1      0.32832    20000
    2     3     1      0.23726    20000
    2     4     1      0.25049    20000
    4     5     1      0.21473    20000
    4    10     1      0.25796    20000
    4    12     1      0.26396    20000
    5     6     1      0.30945    20000
    5     7     1      0.30590    20000
    5     9     1      0.24438    20000
    7     8     1      0.24614    20000
    8     9     1      0.26369    20000
   10    11     1      0.27107    20000
   11    12     1      0.35959    20000
