[ moleculetype ]
; name        nrexcl
res           1

[ atoms ]
;    nr  type  resnr resid  atom  cgnr     charge       mass
      1 N4a       1 res   C1        1      0.000     72.000
      2 TC5       1 res   C2        2      0.000     36.000
      3 TC5       1 res   C3        3      0.000     36.000
      4 TC5       1 res   C4        4      0.000     36.000

[ constraints ]
;  ai    aj   funct      b0(nm)
    1     2     1      0.36605
    3     4     1      0.28776
    2     3     1      0.25611
    2     4     1      0.29743

[ bonds ]
;  ai    aj   funct      b0(nm)          k(kJ/mol/nm^2)

[ angles ]
;  ai    aj    ak  funct     th0(deg)        k(kJ/mol/rad^2)
    1     2     3     1    145.29673           449.63
    1     2     4     1     83.68940           513.39
    2     3     4     1     66.00486          9685.20
    2     4     3     1     51.87716          9626.24
    3     2     4     1     62.11799          8449.24

[ dihedrals ]
;  ai    aj    ak    al  funct   phi0(deg)        k(kJ/mol)   mult
    1     2     3     4     1    178.16000       17.694      1
    1     2     4     3     1      0.90630       12.895      1
