1TPCN03113
11
    1res  C1    1    0.294   0.126   0.197
    1res  C2    2    0.317  -0.047  -0.088
    1res  C3    3    0.154  -0.156   0.150
    1res  C4    4    0.084   0.248   0.031
    1res  C5    5    0.348   0.292   0.004
    1res  C6    6   -0.001   0.175  -0.183
    1res  C7    7   -0.078  -0.031   0.027
    1res  C8    8   -0.231  -0.048  -0.207
    1res  C9    9   -0.158  -0.261  -0.048
    1res  C10   10   -0.333   0.104  -0.004
    1res  C11   11   -0.459  -0.086   0.111
  10.00000  10.00000  10.00000
