1TPCN02583
11
    1res  C1    1    0.576   0.117  -0.141
    1res  C2    2    0.585  -0.126  -0.013
    1res  C3    3    0.308  -0.005  -0.118
    1res  C4    4    0.257   0.097   0.133
    1res  C5    5    0.101  -0.014  -0.028
    1res  C6    6    0.059  -0.172  -0.191
    1res  C7    7   -0.150  -0.143  -0.224
    1res  C8    8   -0.112  -0.050   0.163
    1res  C9    9   -0.403  -0.118   0.011
    1res  C10   10   -0.387   0.124  -0.100
    1res  C11   11   -0.183   0.206   0.060
  10.00000  10.00000  10.00000
