1TPCN00505
13
    1res  C1    1    0.408   0.113  -0.058
    1res  C2    2    0.309  -0.093   0.053
    1res  C3    3    0.073  -0.196   0.154
    1res  C4    4    0.051  -0.258  -0.060
    1res  C5    5   -0.228  -0.096   0.019
    1res  C6    6   -0.333  -0.301   0.118
    1res  C7    7   -0.478  -0.075  -0.000
    1res  C8    8   -0.109   0.038  -0.032
    1res  C9    9    0.063   0.223   0.005
    1res  C10   10   -0.142   0.236  -0.083
    1res  C11   11   -0.145   0.490  -0.155
    1res  C12   12   -0.309   0.223  -0.127
    1res  C13   13    0.109   0.037   0.228
  10.00000  10.00000  10.00000
