[ moleculetype ]
; name        nrexcl
res           1

[ atoms ]
;    nr  type  resnr resid  atom  cgnr     charge       mass
      1 TC3       1 res   C1        1      0.000     36.000
      2 TC5       1 res   C2        2      0.000     36.000
      3 TN6d      1 res   C3        3      0.000     36.000
      4 SC3       1 res   C4        4      0.000     54.000
      5 TC5       1 res   C5        5      0.000     36.000
      6 TC5       1 res   C6        6      0.000     36.000
      7 TC5       1 res   C7        7      0.000     36.000
      8 TN6a      1 res   C8        8      0.000     36.000
      9 TC5       1 res   C9        9      0.000     36.000
     10 TC5       1 res   C10      10      0.000     36.000
     11 SP2       1 res   C11      11      0.000     54.000
     12 SN6a      1 res   C12      12      0.000     54.000
     13 TC3       1 res   C13      13      0.000     36.000

[ constraints ]
;  ai    aj   funct      b0(nm)
    2    13     1      0.29344
   10    11     1      0.27240
    2     3     1      0.27394
    4     5     1      0.33370
    4     8     1      0.33385
    5     7     1      0.24889
    3     4     1      0.22677
    8    10     1      0.20876
    5     6     1      0.24789
    9    10     1      0.22276
    3    13     1      0.24853
    6     7     1      0.28979
    9    13     1      0.29443
   10    12     1      0.17456
    5     8     1      0.18997
    8     9     1      0.25430

[ bonds ]
;  ai    aj   funct      b0(nm)          k(kJ/mol/nm^2)
    1     2     1      0.26160          13474.9

[ angles ]
;  ai    aj    ak  funct     th0(deg)        k(kJ/mol/rad^2)
    1     2     3     1    140.67502           166.02
    1     2    13     1     95.20736           137.65
    2     3     4     1     81.57937           665.28
    2     3    13     1     68.12773          4547.36
    2    13     3     1     60.05560          3082.59
    2    13     9     1     88.54246           920.83
    3     2    13     1     51.81666          4680.86
    3     4     5     1     74.67164          1602.72
    3     4     8     1     74.25441          2530.85
    3    13     9     1    110.89493          1602.05
    4     3    13     1    122.71152          1429.56
    4     5     6     1     95.53016           675.93
    4     5     7     1    149.65883           237.06
    4     5     8     1     73.51410          2319.71
    4     8     5     1     73.42714          2360.93
    4     8     9     1    110.79683          1148.99
    4     8    10     1    153.63541           433.76
    5     4     8     1     33.05867         14563.76
    5     6     7     1     54.47514          8541.38
    5     7     6     1     54.15251          7609.56
    5     8     9     1    156.86674           403.82
    5     8    10     1    127.80658           993.57
    6     5     7     1     71.37234          5106.70
    6     5     8     1    162.41348           992.37
    7     5     8     1    123.69291          1447.49
    8     9    10     1     51.37531          9540.51
    8     9    13     1     75.32327          1714.84
    8    10     9     1     72.13932          3994.13
    8    10    11     1    155.89261           747.31
    8    10    12     1     97.36983          1691.83
    9     8    10     1     56.48534          4983.71
    9    10    11     1     84.57415           993.45
    9    10    12     1    166.47723          1095.60
   10     9    13     1    118.65180           772.14
   11    10    12     1    106.01315           699.81

[ dihedrals ]
;  ai    aj    ak    al  funct   phi0(deg)        k(kJ/mol)   mult
    1     2     3     4     1     68.70238       25.608      1
    1     2     3    13     1   -161.11801       25.281      1
    1     2    13     3     1     13.23780       21.608      1
    1     2    13     9     1    127.11128       21.552      1
    2     3     4     5     1    -51.95668        4.778      1
    2     3     4     8     1    -85.99078        4.759      1
    2     3    13     9     1    104.01961        6.311      1
    2    13     3     4     1   -115.86556        9.268      1
    2    13     9     8     1     88.06124        9.221      1
    2    13     9    10     1     61.10169       11.465      1
    3     2    13     9     1    -65.91944        4.771      1
    3     4     5     6     1    -94.31176       12.172      1
    3     4     5     7     1    -36.21796       13.627      1
    3     4     5     8     1     95.00830        5.544      1
    3     4     8     5     1    -93.99660        6.310      1
    3     4     8     9     1    110.90585        8.569      1
    3     4     8    10     1     57.56137       11.456      1
    3    13     9     8     1    146.16715        9.258      1
    3    13     9    10     1    117.99263       12.217      1
    4     3     2    13     1     49.99072        6.315      1
    4     3    13     9     1    167.74399       10.754      1
    4     5     6     7     1    -28.00229       10.797      1
    4     5     7     6     1    113.35082       14.322      1
    4     5     8     9     1    -79.59742       13.455      1
    4     5     8    10     1     17.84607       10.764      1
    4     8     5     6     1    137.15131       24.031      1
    4     8     5     7     1    -28.17802       13.629      1
    4     8     9    10     1     25.98105       10.711      1
    4     8     9    13     1   -122.96757        8.525      1
    4     8    10     9     1   -113.48625       12.920      1
    4     8    10    11     1   -116.32999       21.559      1
    4     8    10    12     1     58.98144       15.730      1
    5     4     3    13     1   -108.98416        7.085      1
    5     4     8     9     1     23.52889        8.553      1
    5     4     8    10     1    -29.79515       13.569      1
    5     8     9    10     1    -66.00756       14.095      1
    5     8     9    13     1    146.79798       14.869      1
    5     8    10     9     1     27.14252       11.440      1
    5     8    10    11     1     20.13435       21.714      1
    5     8    10    12     1   -161.86626       13.633      1
    6     5     4     8     1    -10.13888       12.146      1
    6     5     8     9     1   -121.65483       24.203      1
    6     5     8    10     1    -28.64502       23.366      1
    6     7     5     8     1     -2.63973       14.254      1
    7     5     4     8     1     46.45788       14.258      1
    7     5     8     9     1     75.67085       16.408      1
    7     5     8    10     1    170.17610       15.083      1
    7     6     5     8     1     10.16363       25.497      1
    8     4     3    13     1   -143.00101        7.079      1
    8     9    10    11     1     -3.16366       10.063      1
    8     9    10    12     1    152.90451       27.113      1
    8    10     9    13     1   -143.07214        8.556      1
    9     8    10    11     1    171.31778       19.777      1
    9     8    10    12     1     -5.12084       10.016      1
   10     8     9    13     1     33.10984        8.580      1
   11    10     9    13     1     32.17547       10.803      1
   12    10     9    13     1   -172.86246       28.922      1
