[ moleculetype ]
; name        nrexcl
res           1

[ atoms ]
;    nr  type resnr resid  atom  cgnr     charge       mass
      1 SN4a      1 res   C1        1      0.000     54.000
      2 P1        1 res   C2        2      0.000     72.000
      3 TC3       1 res   C3        3      0.000     36.000
      4 SP2       1 res   C4        4      0.000     54.000
      5 SC4       1 res   C5        5      0.000     54.000
      6 SN6       1 res   C6        6      0.000     54.000
      7 SC4       1 res   C7        7      0.000     54.000
      8 SC4       1 res   C8        8      0.000     54.000
      9 SN6       1 res   C9        9      0.000     54.000
     10 TN6       1 res   C10      10      0.000     36.000
     11 SN4a      1 res   C11      11      0.000     54.000
     12 TP1       1 res   C12      12      0.000     36.000
     13 TN6       1 res   C13      13      0.000     36.000
     14 TN6       1 res   C14      14      0.000     36.000
     15 TN6       1 res   C15      15      0.000     36.000
     16 SC4       1 res   C16      16      0.000     54.000
     17 TC3       1 res   C17      17      0.000     36.000
     18 TC3       1 res   C18      18      0.000     36.000

[ bonds ]
;  ai    aj   funct      b0(nm)        k
    1     2     1      0.31902    20000
    2     3     1      0.39406    20000
    3     4     1      0.26213    20000
    3     5     1      0.33599    20000
    3    18     1      0.29483    20000
    5     6     1      0.31406    20000
    5     7     1      0.34548    20000
    5    18     1      0.27310    20000
    6     7     1      0.34463    20000
    7     8     1      0.40444    20000
    7    17     1      0.26941    20000
    8     9     1      0.31674    20000
    8    16     1      0.38389    20000
    8    17     1      0.33956    20000
    9    10     1      0.26956    20000
   10    11     1      0.23881    20000
   10    16     1      0.24502    20000
   11    12     1      0.29449    20000
   11    13     1      0.29774    20000
   11    15     1      0.26647    20000
   13    14     1      0.24206    20000
   14    15     1      0.24071    20000
