[ moleculetype ]
; name        nrexcl
res           1

[ atoms ]
;    nr  type  resnr resid  atom  cgnr     charge       mass
      1 TN6a      1 res   C1        1      0.000     36.000
      2 TC4       1 res   C2        2      0.000     36.000
      3 TN6a      1 res   C3        3      0.000     36.000
      4 TX3       1 res   C4        4      0.000     36.000

[ constraints ]
;  ai    aj   funct      b0(nm)
    1     2     1      0.34152
    2     3     1      0.28229
    1     4     1      0.23550
    3     4     1      0.29250

[ bonds ]
;  ai    aj   funct      b0(nm)          k(kJ/mol/nm^2)

[ angles ]
;  ai    aj    ak  funct     th0(deg)        k(kJ/mol/rad^2)
    1     2     3     1     57.48312         11085.89
    1     4     3     1     69.46026          6690.77
    2     1     4     1    115.44690          2660.89
    2     3     4     1    117.39376          2191.30

[ dihedrals ]
;  ai    aj    ak    al  funct   phi0(deg)        k(kJ/mol)   mult
    1     2     3     4     1    179.99248        6.335      1
    1     4     3     2     1   -179.07012        8.554      1
    2     1     4     3     1    179.07965        7.067      1
    3     2     1     4     1   -179.06891        8.544      1
