[ moleculetype ]
; name        nrexcl
res           1

[ atoms ]
;    nr  type  resnr resid  atom  cgnr     charge       mass
      1 TN6a      1 res   C1        1      0.000     36.000
      2 TC5       1 res   C2        2      0.000     36.000
      3 TC6       1 res   C3        3      0.000     36.000
      4 TC5       1 res   C4        4      0.000     36.000

[ constraints ]
;  ai    aj   funct      b0(nm)
    1     2     1      0.29569
    2     3     1      0.35038
    1     4     1      0.25707
    2     4     1      0.25360

[ bonds ]
;  ai    aj   funct      b0(nm)          k(kJ/mol/nm^2)

[ angles ]
;  ai    aj    ak  funct     th0(deg)        k(kJ/mol/rad^2)
    1     2     3     1     71.20719          2321.15
    1     2     4     1     55.16563          5619.35
    1     4     2     1     70.75624          4035.61
    2     1     4     1     54.07812          3396.65
    3     2     4     1    125.51872          1771.56

[ dihedrals ]
;  ai    aj    ak    al  funct   phi0(deg)        k(kJ/mol)   mult
    1     4     2     3     1    179.88640       16.483      1
    3     2     1     4     1      0.84789       14.416      1
