1TPCN01877
10
    1res  C1    1    0.473   0.105   0.059
    1res  C2    2    0.163  -0.045   0.038
    1res  C3    3   -0.017  -0.181   0.255
    1res  C4    4   -0.370  -0.126   0.286
    1res  C5    5   -0.419  -0.216  -0.075
    1res  C6    6   -0.226  -0.079   0.037
    1res  C7    7   -0.215   0.055  -0.136
    1res  C8    8   -0.047   0.039  -0.339
    1res  C9    9    0.004   0.122  -0.099
    1res  C10   10    0.127   0.323  -0.272
  10.00000  10.00000  10.00000
