1TPCN05991
22
    1res  C1    1   -0.589   0.309   0.228
    1res  C2    2   -0.740   0.056   0.240
    1res  C3    3   -0.840  -0.024   0.036
    1res  C4    4   -0.689  -0.223  -0.097
    1res  C5    5   -0.550  -0.022  -0.162
    1res  C6    6   -0.344   0.108   0.037
    1res  C7    7   -0.331  -0.236  -0.122
    1res  C8    8   -0.075  -0.202  -0.057
    1res  C9    9    0.048  -0.032   0.167
    1res  C10   10    0.226  -0.095  -0.007
    1res  C11   11    0.483  -0.185  -0.083
    1res  C12   12    0.602  -0.238  -0.339
    1res  C13   13    0.776  -0.175  -0.091
    1res  C14   14    0.658  -0.189   0.150
    1res  C15   15    0.520  -0.013   0.111
    1res  C16   16    0.649   0.147   0.231
    1res  C17   17    0.811   0.297   0.419
    1res  C18   18    0.881   0.227   0.084
    1res  C19   19    0.724   0.418   0.034
    1res  C20   20    0.501   0.368   0.098
    1res  C21   21    0.161  -0.046  -0.238
    1res  C22   22   -0.202  -0.057  -0.295
  10.00000  10.00000  10.00000
