1TPCN05386
12
    1res  C1    1    0.532  -0.109   0.244
    1res  C2    2    0.570  -0.024  -0.034
    1res  C3    3    0.320  -0.003   0.097
    1res  C4    4    0.422   0.263  -0.106
    1res  C5    5    0.226  -0.038  -0.249
    1res  C6    6    0.060   0.145  -0.133
    1res  C7    7   -0.019   0.125   0.165
    1res  C8    8   -0.086  -0.137  -0.002
    1res  C9    9   -0.291   0.212  -0.087
    1res  C10   10   -0.509   0.131   0.139
    1res  C11   11   -0.506  -0.210  -0.007
    1res  C12   12   -0.281  -0.072  -0.201
  10.00000  10.00000  10.00000
