[ moleculetype ]
; name        nrexcl
res           1

[ atoms ]
;    nr  type  resnr resid  atom  cgnr     charge       mass
      1 TC5       1 res   C1        1      0.000     36.000
      2 TC3       1 res   C2        2      0.000     36.000
      3 TN4a      1 res   C3        3      0.000     36.000
      4 SP4       1 res   C4        4      0.000     54.000
      5 TN4a      1 res   C5        5      0.000     36.000
      6 TP1       1 res   C6        6      0.000     36.000
      7 SP4       1 res   C7        7      0.000     54.000
      8 TC5       1 res   C8        8      0.000     36.000
      9 SN4a      1 res   C9        9      0.000     54.000
     10 SC3       1 res   C10      10      0.000     54.000
     11 TC3       1 res   C11      11      0.000     36.000
     12 N4a       1 res   C12      12      0.000     72.000
     13 TN4a      1 res   C13      13      0.000     36.000
     14 TN6       1 res   C14      14      0.000     36.000
     15 SN4a      1 res   C15      15      0.000     54.000
     16 TP1       1 res   C16      16      0.000     36.000
     17 SP4       1 res   C17      17      0.000     54.000
     18 TN6       1 res   C18      18      0.000     36.000
     19 TC4       1 res   C19      19      0.000     36.000
     20 SN6d      1 res   C20      20      0.000     54.000
     21 SP2       1 res   C21      21      0.000     54.000
     22 TC5       1 res   C22      22      0.000     36.000
     23 TN6d      1 res   C23      23      0.000     36.000
     24 TC5       1 res   C24      24      0.000     36.000
     25 TC5       1 res   C25      25      0.000     36.000
     26 TC5       1 res   C26      26      0.000     36.000

[ constraints ]
;  ai    aj   funct      b0(nm)
    4     5     1      0.28724
    5     7     1      0.27876
   13    14     1      0.27763
   22    23     1      0.21968
   15    17     1      0.27083
   23    24     1      0.21793
    9    10     1      0.26554
   24    26     1      0.25032
   11    13     1      0.34148
   20    22     1      0.21540
   14    15     1      0.26059
    2    19     1      0.23816
   19    20     1      0.32547
    5     6     1      0.21789
    4     7     1      0.29564
   15    16     1      0.30860
   24    25     1      0.25018
    1     2     1      0.27074
   10    11     1      0.28762
    2     3     1      0.22602
   10    14     1      0.27502
   11    12     1      0.33977
    3     8     1      0.23575
   20    21     1      0.25640
   25    26     1      0.29102
   19    22     1      0.26345
   22    24     1      0.18333
   15    18     1      0.28327
    2     8     1      0.27290
    8     9     1      0.24010

[ bonds ]
;  ai    aj   funct      b0(nm)          k(kJ/mol/nm^2)
   17    18     1      0.29264          16957.0
    3     4     1      0.23889          15331.7

[ angles ]
;  ai    aj    ak  funct     th0(deg)        k(kJ/mol/rad^2)
    1     2     3     1     90.37414            89.04
    1     2     8     1    143.99960            83.03
    1     2    19     1    115.38450            65.92
    2     3     4     1    140.92437           219.03
    2     3     8     1     72.53051           756.71
    2     8     3     1     52.06050          2089.04
    2     8     9     1     90.85811          1405.47
    2    19    20     1    107.39719           297.01
    2    19    22     1    147.32783           255.43
    3     2     8     1     55.40909          1177.08
    3     2    19     1    153.43498           337.90
    3     4     5     1     92.40302           166.20
    3     4     7     1    112.34568           177.17
    3     8     9     1    135.35947           341.04
    4     3     8     1    127.04782           178.89
    4     5     6     1    137.19875           280.20
    4     5     7     1     62.97039          2081.96
    4     7     5     1     59.93447          2170.44
    5     4     7     1     57.09525          6029.30
    6     5     7     1     99.19378           867.83
    8     2    19     1     99.45410           735.48
    8     9    10     1    141.88574           157.94
    9    10    11     1     89.78212          1106.81
    9    10    14     1    142.10419           273.29
   10    11    12     1    169.28502           273.34
   10    11    13     1     92.47038          3026.72
   10    14    13     1    111.15702          1940.85
   10    14    15     1    133.32599            39.13
   11    10    14     1     79.99952          2043.58
   11    13    14     1     70.63498          3883.38
   12    11    13     1     81.52128          1163.80
   13    14    15     1    112.21696            56.40
   14    15    16     1    125.79332           503.97
   14    15    17     1    129.92795           302.20
   14    15    18     1     75.13698          1369.15
   15    17    18     1     60.26778          1253.48
   15    18    17     1     56.03889          3842.02
   16    15    17     1     78.68544           484.47
   16    15    18     1    139.04474           362.62
   17    15    18     1     63.69328          1296.28
   19    20    21     1    124.34069           312.64
   19    20    22     1     53.73671          2614.78
   19    22    20     1     85.01900          1372.06
   19    22    23     1     68.00093          1011.26
   19    22    24     1    131.81597          1112.70
   20    19    22     1     41.24410          4009.75
   20    22    23     1    151.87291           536.61
   20    22    24     1    140.73453           985.45
   21    20    22     1    170.56205           334.57
   22    23    24     1     49.53354          6422.72
   22    24    23     1     65.73195          3894.12
   22    24    25     1    160.95441          1149.10
   22    24    26     1    126.81809          1297.17
   23    22    24     1     64.73450          4257.07
   23    24    25     1     96.05419          1351.12
   23    24    26     1    166.32706          1125.93
   24    25    26     1     54.47252          5289.44
   24    26    25     1     54.42640          5723.14
   25    24    26     1     71.10110          6672.79

[ dihedrals ]
;  ai    aj    ak    al  funct   phi0(deg)        k(kJ/mol)   mult
    1     2     3     4     1    133.57693       27.840      1
    1     2     3     8     1     -1.95953       19.001      1
    1     2     8     3     1   -177.33928       25.111      1
    1     2     8     9     1    -25.92372       23.523      1
    1     2    19    20     1    157.37741       21.998      1
    1     2    19    22     1    168.63552       20.301      1
    2     3     4     5     1    -72.93117       26.270      1
    2     3     4     7     1    -17.32311       25.670      1
    2     3     8     9     1    143.15239       14.347      1
    2     8     3     4     1     32.14711       19.100      1
    2     8     9    10     1    -76.92076       12.927      1
    2    19    20    21     1    172.46965       19.647      1
    2    19    20    22     1    -10.78888       12.869      1
    2    19    22    20     1    163.49471       16.981      1
    2    19    22    23     1    -19.08303       15.555      1
    2    19    22    24     1    -29.05632       18.456      1
    3     2     8     9     1    -26.03436       12.260      1
    3     2    19    20     1    -32.32742       29.860      1
    3     2    19    22     1    -17.11839       28.624      1
    3     4     5     6     1   -137.02356       12.959      1
    3     4     5     7     1    -63.62528       10.748      1
    3     4     7     5     1    102.19217       13.538      1
    3     8     2    19     1     -0.67238       15.747      1
    3     8     9    10     1    -48.87851       17.096      1
    4     3     2     8     1    -46.88844       24.449      1
    4     3     2    19     1    -41.57267       29.381      1
    4     3     8     9     1     -4.28708       23.220      1
    4     7     5     6     1    -42.07797       10.732      1
    5     4     3     8     1     49.74221       21.288      1
    6     5     4     7     1    107.93663        9.346      1
    7     4     3     8     1    103.33415       22.202      1
    8     2    19    20     1    -27.20376       17.066      1
    8     2    19    22     1    -17.20368       20.910      1
    8     3     2    19     1   -176.53916       25.466      1
    8     9    10    11     1     33.84588       10.754      1
    8     9    10    14     1    107.01620       12.900      1
    9     8     2    19     1    153.90812       15.049      1
    9    10    11    12     1      0.64424       27.950      1
    9    10    11    13     1    -19.28755       10.019      1
    9    10    14    13     1     82.05727       12.246      1
    9    10    14    15     1   -112.84535       18.938      1
   10    11    13    14     1    164.89323        8.525      1
   10    14    13    11     1   -163.82717        9.259      1
   10    14    15    16     1    113.22923       21.486      1
   10    14    15    17     1   -137.95208       24.322      1
   10    14    15    18     1   -106.16084       21.616      1
   11    10    14    13     1    160.19080       10.723      1
   11    10    14    15     1    -35.48657       17.751      1
   11    13    14    15     1     36.01618       19.068      1
   12    11    10    14     1   -146.85424       28.318      1
   12    11    13    14     1    -11.06862       14.259      1
   13    11    10    14     1   -165.88280        7.789      1
   13    14    15    16     1    -80.84945       15.712      1
   13    14    15    17     1     26.02996       17.773      1
   13    14    15    18     1     60.20782       12.203      1
   14    15    17    18     1   -143.44222       14.999      1
   14    15    18    17     1     29.72404       14.281      1
   16    15    17    18     1    -14.90559       14.273      1
   16    15    18    17     1    161.04552       16.985      1
   19    20    22    23     1    176.43110       22.792      1
   19    20    22    24     1     14.06978       17.809      1
   19    22    20    21     1   -116.94352        8.304      1
   19    22    23    24     1      5.16614       10.051      1
   19    22    24    23     1   -173.17473       12.871      1
   19    22    24    25     1   -162.40597       25.287      1
   19    22    24    26     1      7.72147       15.046      1
   20    19    22    23     1     -2.34260       13.604      1
   20    19    22    24     1    -11.05164       17.107      1
   20    22    23    24     1     12.07259       22.718      1
   20    22    24    23     1     -9.22846       21.015      1
   20    22    24    25     1     -3.50147       25.814      1
   20    22    24    26     1    169.22658       20.231      1
   21    20    19    22     1      0.59624       17.030      1
   21    20    22    23     1   -120.83707        4.691      1
   21    20    22    24     1     72.79483        9.599      1
   22    23    24    25     1      4.84581       10.056      1
   22    23    24    26     1      3.89220       25.551      1
   22    24    25    26     1     -6.90586       24.025      1
   22    24    26    25     1      4.86964       12.925      1
   23    22    24    25     1   -170.75230       22.729      1
   23    22    24    26     1     -1.00651       11.531      1
   23    24    25    26     1     -0.93466        8.606      1
   23    24    26    25     1    179.77710       26.485      1
