1TPCN02905
18
    1res  C1    1    0.011   0.350   0.074
    1res  C2    2    0.347   0.245   0.038
    1res  C3    3    0.139   0.191  -0.165
    1res  C4    4    0.230  -0.028   0.182
    1res  C5    5    0.392  -0.156   0.022
    1res  C6    6    0.645  -0.246   0.072
    1res  C7    7    0.808  -0.378  -0.007
    1res  C8    8    0.558  -0.353  -0.146
    1res  C9    9    0.058  -0.239   0.029
    1res  C10   10   -0.040   0.019  -0.025
    1res  C11   11   -0.218  -0.133   0.100
    1res  C12   12   -0.376  -0.221  -0.068
    1res  C13   13   -0.604  -0.331  -0.116
    1res  C14   14   -0.553  -0.288   0.167
    1res  C15   15   -0.234   0.119  -0.135
    1res  C16   16   -0.362   0.276   0.008
    1res  C17   17   -0.589   0.386   0.057
    1res  C18   18   -0.556   0.191  -0.166
  10.00000  10.00000  10.00000
