[ moleculetype ]
; name        nrexcl
res           1

[ atoms ]
;    nr  type  resnr resid  atom  cgnr     charge       mass
      1 SN3r      1 res   C1        1      0.000     54.000
      2 TN3r      1 res   C2        2      0.000     36.000
      3 TC5       1 res   C3        3      0.000     36.000
      4 TN6a      1 res   C4        4      0.000     36.000
      5 SC2       1 res   C5        5      0.000     54.000
      6 SN4a      1 res   C6        6      0.000     54.000
      7 TC5       1 res   C7        7      0.000     36.000
      8 SC3       1 res   C8        8      0.000     54.000

[ bonds ]
;  ai    aj   funct      b0(nm)          k(kJ/mol/nm^2)
    1     3     1      0.30276           3185.6
    3     4     1      0.26926         204684.6
    3     7     1      0.25348         168311.1
    4     5     1      0.29560           4188.4
    4     7     1      0.21888         209641.3
    7     8     1      0.20285         120995.9

[ angles ]
;  ai    aj    ak  funct     th0(deg)        k(kJ/mol/rad^2)
    1     3     4     1    149.93681            46.16
    1     3     7     1    106.48283            87.54
    3     4     5     1     82.45984           147.37
    3     4     7     1     61.54485          5722.57
    3     7     4     1     69.06058          4699.49
    3     7     8     1    165.23879           260.57
    4     3     7     1     49.39453          6703.67
    4     7     8     1    117.42891           782.01
    5     4     7     1    138.96515           111.88
