1TPCN05048
17
    1res  C1    1   -0.520  -0.034   0.381
    1res  C2    2   -0.450   0.138   0.074
    1res  C3    3   -0.343  -0.166  -0.118
    1res  C4    4   -0.088   0.078   0.065
    1res  C5    5   -0.151   0.004  -0.300
    1res  C6    6    0.107   0.064  -0.293
    1res  C7    7    0.255   0.219  -0.150
    1res  C8    8    0.425   0.045  -0.111
    1res  C9    9    0.637   0.004   0.051
    1res  C10   10    0.729  -0.238   0.212
    1res  C11   11    0.828   0.092   0.197
    1res  C12   12    0.642   0.130   0.358
    1res  C13   13    0.446   0.151   0.205
    1res  C14   14    0.370  -0.136  -0.270
    1res  C15   15    0.015  -0.233  -0.234
    1res  C16   16   -0.499   0.087  -0.191
    1res  C17   17   -0.720   0.007   0.179
  10.00000  10.00000  10.00000
