[ moleculetype ]
; name        nrexcl
res           1

[ atoms ]
;    nr  type  resnr resid  atom  cgnr     charge       mass
      1 TC3       1 res   C1        1      0.000     36.000
      2 TC5       1 res   C2        2      0.000     36.000
      3 TC5       1 res   C3        3      0.000     36.000
      4 TC5       1 res   C4        4      0.000     36.000
      5 TC3       1 res   C5        5      0.000     36.000

[ constraints ]
;  ai    aj   funct      b0(nm)
    1     2     1      0.26347
    2     3     1      0.25576
    3     4     1      0.25575
    2     4     1      0.30127

[ bonds ]
;  ai    aj   funct      b0(nm)          k(kJ/mol/nm^2)
    4     5     1      0.25771          18570.5

[ angles ]
;  ai    aj    ak  funct     th0(deg)        k(kJ/mol/rad^2)
    1     2     3     1    146.45130           473.89
    1     2     4     1     97.33223           517.64
    2     3     4     1     72.17077          5786.79
    2     4     3     1     53.91545          8506.56
    2     4     5     1    100.37874           247.43
    3     2     4     1     53.91377          8651.22
    3     4     5     1    149.46587           186.86

[ dihedrals ]
;  ai    aj    ak    al  funct   phi0(deg)        k(kJ/mol)   mult
    1     2     3     4     1    146.03744       13.680      1
    1     2     4     3     1    -20.00723        9.261      1
    1     2     4     5     1    178.13487       12.153      1
    2     3     4     5     1   -147.37722       15.670      1
    3     2     4     5     1     15.10666       10.056      1
