[ moleculetype ]
; name        nrexcl
res           1

[ atoms ]
;    nr  type  resnr resid  atom  cgnr     charge       mass
      1 TN3r      1 res   C1        1      0.000     36.000
      2 TN4a      1 res   C2        2      0.000     36.000
      3 SC3       1 res   C3        3      0.000     54.000
      4 SN6a      1 res   C4        4      0.000     54.000
      5 TC3       1 res   C5        5      0.000     36.000
      6 SP4       1 res   C6        6      0.000     54.000
      7 TN4a      1 res   C7        7      0.000     36.000
      8 N4a       1 res   C8        8      0.000     72.000
      9 TC5       1 res   C9        9      0.000     36.000
     10 TC5       1 res   C10      10      0.000     36.000
     11 TC5       1 res   C11      11      0.000     36.000
     12 SP4       1 res   C12      12      0.000     54.000
     13 N4a       1 res   C13      13      0.000     72.000
     14 TC5       1 res   C14      14      0.000     36.000
     15 TC5       1 res   C15      15      0.000     36.000
     16 TC5       1 res   C16      16      0.000     36.000

[ constraints ]
;  ai    aj   funct      b0(nm)
    4     5     1      0.28475
   13    14     1      0.31608
    9    10     1      0.25584
    3     6     1      0.37598
   14    15     1      0.25614
    7    12     1      0.27871
    6     7     1      0.30308
   15    16     1      0.28776
    1     2     1      0.23941
   10    11     1      0.28777
    3     5     1      0.32450
    2     3     1      0.27121
    7     8     1      0.26688
    6    12     1      0.26638
    9    11     1      0.29774
    3     4     1      0.28166
   14    16     1      0.29760
    8     9     1      0.31519

[ bonds ]
;  ai    aj   funct      b0(nm)          k(kJ/mol/nm^2)
    3    13     1      0.47420          18751.0

[ angles ]
;  ai    aj    ak  funct     th0(deg)        k(kJ/mol/rad^2)
    1     2     3     1    123.44014           153.56
    2     3     4     1     75.10428          2069.77
    2     3     5     1     76.25088          3217.87
    2     3     6     1     70.87757           561.84
    2     3    13     1     39.80607           676.96
    3     4     5     1     69.90866          2110.21
    3     5     4     1     54.59808          3217.35
    3     6     7     1     58.64601           675.32
    3     6    12     1    111.29526           335.77
    3    13    14     1    121.34072           126.13
    4     3     5     1     55.49324          3363.76
    4     3     6     1    128.11673           912.55
    4     3    13     1     86.91577          1095.43
    5     3     6     1     79.10887          1242.26
    5     3    13     1     52.22626          2613.94
    6     3    13     1     42.76396          2296.45
    6     7     8     1    112.84380            46.84
    6     7    12     1     54.30423          1933.75
    6    12     7     1     67.52549          1384.61
    7     6    12     1     58.17033          2597.13
    7     8     9     1    121.04411           113.37
    8     7    12     1     86.76050           133.88
    8     9    10     1    160.89015           520.39
    8     9    11     1    100.13225           695.26
    9    10    11     1     66.12377          6288.80
    9    11    10     1     51.78107         11418.69
   10     9    11     1     62.09515          6998.47
   13    14    15     1    160.80353           469.71
   13    14    16     1    100.31521           615.22
   14    15    16     1     66.04579          6713.63
   14    16    15     1     51.86418          9211.33
   15    14    16     1     62.09003          6494.25

[ dihedrals ]
;  ai    aj    ak    al  funct   phi0(deg)        k(kJ/mol)   mult
    1     2     3     4     1    143.04461       14.259      1
    1     2     3     5     1     84.74474       13.529      1
    1     2     3     6     1      2.99286       14.243      1
    1     2     3    13     1     38.39177       14.956      1
    2     3     4     5     1     97.88451        4.736      1
    2     3     5     4     1    -96.87657        5.496      1
    2     3     6     7     1    103.86057       15.044      1
    2     3     6    12     1    119.59038       11.978      1
    2     3    13    14     1   -175.83189       27.572      1
    3     6     7     8     1     39.97059       17.702      1
    3     6     7    12     1    -21.69002       17.718      1
    3     6    12     7     1    162.87207       15.148      1
    3    13    14    15     1     62.59114       31.622      1
    3    13    14    16     1     70.89781       26.350      1
    4     3     6     7     1     51.71514       14.294      1
    4     3     6    12     1     69.21037       14.058      1
    4     3    13    14     1    113.61496       23.099      1
    4     5     3     6     1    -26.15750        9.313      1
    4     5     3    13     1    -62.97732        8.604      1
    5     3     6     7     1     22.90667       14.329      1
    5     3     6    12     1     40.92975       12.700      1
    5     3    13    14     1     67.17738       24.119      1
    5     4     3     6     1    146.03615       12.172      1
    5     4     3    13     1    135.93217        6.322      1
    6     3    13    14     1    -52.61303       25.231      1
    6     7     8     9     1     53.50408       20.788      1
    6    12     7     8     1     53.89175       21.621      1
    7     6     3    13     1     68.06236       13.632      1
    7     8     9    10     1    -28.20592       28.464      1
    7     8     9    11     1    -27.59709       23.218      1
    8     7     6    12     1   -116.37424       19.024      1
    8     9    10    11     1    177.23133       27.186      1
    8     9    11    10     1     -1.89829       13.635      1
    9     8     7    12     1    102.07459       22.745      1
   12     6     3    13     1     84.82474       13.441      1
   13    14    15    16     1   -172.08743       25.924      1
   13    14    16    15     1      0.76798       14.259      1
