[ moleculetype ]
; name        nrexcl
res           1

[ atoms ]
;    nr  type resnr resid  atom  cgnr     charge       mass
      1 SC4       1 res   C1        1      0.000     54.000
      2 TN4a      1 res   C2        2      0.000     36.000
      3 TC5       1 res   C3        3      0.000     36.000
      4 TN4a      1 res   C4        4      0.000     36.000
      5 SC4       1 res   C5        5      0.000     54.000
      6 TC4       1 res   C6        6      0.000     36.000
      7 TC3       1 res   C7        7      0.000     36.000
      8 TC5       1 res   C8        8      0.000     36.000
      9 TC3       1 res   C9        9      0.000     36.000
     10 SC4       1 res   C10      10      0.000     54.000
     11 SC4       1 res   C11      11      0.000     54.000
     12 TN6       1 res   C12      12      0.000     36.000
     13 SN4a      1 res   C13      13      0.000     54.000
     14 TN6       1 res   C14      14      0.000     36.000
     15 TN6       1 res   C15      15      0.000     36.000
     16 TN6       1 res   C16      16      0.000     36.000
     17 TC3       1 res   C17      17      0.000     36.000
     18 TC4       1 res   C18      18      0.000     36.000
     19 TN6       1 res   C19      19      0.000     36.000

[ bonds ]
;  ai    aj   funct      b0(nm)        k
    1     2     1      0.26487    20000
    2     3     1      0.26818    20000
    2     4     1      0.20137    20000
    3     4     1      0.27870    20000
    3     5     1      0.25957    20000
    3     6     1      0.26124    20000
    3    19     1      0.28615    20000
    4     5     1      0.32182    20000
    6     7     1      0.30772    20000
    6    18     1      0.39642    20000
    7     8     1      0.28400    20000
    8     9     1      0.25208    20000
    8    10     1      0.29534    20000
    8    18     1      0.31979    20000
    9    10     1      0.37133    20000
   10    11     1      0.38827    20000
   10    17     1      0.29013    20000
   11    12     1      0.24352    20000
   12    13     1      0.32666    20000
   12    17     1      0.25826    20000
   13    14     1      0.26552    20000
   13    16     1      0.32378    20000
   14    15     1      0.24979    20000
   15    16     1      0.25099    20000
   18    19     1      0.30734    20000
