Generated with MDTraj, t= 0.0
 65
    1UNL     C1    1  -0.098  -0.262   0.055
    1UNL     C2    2  -0.206  -0.245  -0.018
    1UNL     C3    3  -0.248  -0.113  -0.079
    1UNL     C4    4  -0.204   0.008   0.005
    1UNL     C5    5  -0.403  -0.111  -0.097
    1UNL     C6    6  -0.486  -0.144   0.027
    1UNL     C7    7  -0.477  -0.045   0.138
    1UNL     C8    8  -0.533   0.076   0.135
    1UNL     C9    9  -0.608   0.129   0.019
    1UNL     O1   10  -0.524   0.172  -0.087
    1UNL     O2   11  -0.193  -0.099  -0.213
    1UNL    C10   12  -0.054  -0.127  -0.223
    1UNL     O3   13   0.026  -0.074  -0.115
    1UNL    C11   14   0.168  -0.066  -0.141
    1UNL    C12   15   0.244  -0.080  -0.010
    1UNL     O4   16   0.201   0.017   0.083
    1UNL    C13   17   0.280   0.018   0.201
    1UNL     O5   18   0.215   0.083   0.312
    1UNL    C14   19   0.250   0.220   0.309
    1UNL    C15   20   0.385   0.237   0.233
    1UNL     O6   21   0.371   0.329   0.127
    1UNL    C16   22   0.496   0.287   0.326
    1UNL     O7   23   0.468   0.419   0.364
    1UNL    C17   24   0.414   0.094   0.177
    1UNL     O8   25   0.449   0.100   0.042
    1UNL    C18   26   0.212  -0.169  -0.249
    1UNL     O9   27   0.180  -0.302  -0.211
    1UNL    C19   28   0.142  -0.135  -0.385
    1UNL    O10   29   0.219  -0.045  -0.462
    1UNL    C20   30  -0.001  -0.078  -0.359
    1UNL    O11   31  -0.089  -0.113  -0.464
    1UNL     H1   32  -0.070  -0.358   0.094
    1UNL     H2   33  -0.031  -0.181   0.075
    1UNL     H3   34  -0.267  -0.330  -0.043
    1UNL     H4   35  -0.237  -0.002   0.108
    1UNL     H5   36  -0.096   0.018   0.005
    1UNL     H6   37  -0.246   0.099  -0.037
    1UNL     H7   38  -0.426  -0.183  -0.177
    1UNL     H8   39  -0.431  -0.014  -0.137
    1UNL     H9   40  -0.457  -0.243   0.065
    1UNL    H10   41  -0.591  -0.156  -0.001
    1UNL    H11   42  -0.422  -0.073   0.226
    1UNL    H12   43  -0.518   0.142   0.219
    1UNL    H13   44  -0.675   0.053  -0.022
    1UNL    H14   45  -0.673   0.213   0.048
    1UNL    H15   46  -0.465   0.244  -0.056
    1UNL    H16   47  -0.044  -0.236  -0.218
    1UNL    H17   48   0.184   0.036  -0.180
    1UNL    H18   49   0.226  -0.178   0.034
    1UNL    H19   50   0.352  -0.069  -0.026
    1UNL    H20   51   0.297  -0.086   0.231
    1UNL    H21   52   0.171   0.274   0.256
    1UNL    H22   53   0.256   0.258   0.411
    1UNL    H23   54   0.373   0.419   0.167
    1UNL    H24   55   0.505   0.223   0.414
    1UNL    H25   56   0.592   0.285   0.272
    1UNL    H26   57   0.539   0.454   0.423
    1UNL    H27   58   0.496   0.046   0.232
    1UNL    H28   59   0.393   0.169  -0.000
    1UNL    H29   60   0.321  -0.163  -0.265
    1UNL    H30   61   0.223  -0.324  -0.126
    1UNL    H31   62   0.131  -0.228  -0.442
    1UNL    H32   63   0.169  -0.021  -0.543
    1UNL    H33   64   0.006   0.032  -0.357
    1UNL    H34   65  -0.181  -0.101  -0.431
   0.00000   0.00000   0.00000   0.00000   0.00000   0.00000   0.00000   0.00000   0.00000
Generated with MDTraj, t= 1.0
 65
    1UNL     C1    1  -0.085  -0.272   0.047
    1UNL     C2    2  -0.200  -0.269  -0.017
    1UNL     C3    3  -0.255  -0.143  -0.076
    1UNL     C4    4  -0.214  -0.021   0.011
    1UNL     C5    5  -0.420  -0.153  -0.076
    1UNL     C6    6  -0.494  -0.148   0.054
    1UNL     C7    7  -0.483  -0.027   0.140
    1UNL     C8    8  -0.514   0.093   0.099
    1UNL     C9    9  -0.580   0.126  -0.036
    1UNL     O1   10  -0.477   0.137  -0.135
    1UNL     O2   11  -0.210  -0.126  -0.207
    1UNL    C10   12  -0.066  -0.142  -0.223
    1UNL     O3   13   0.004  -0.075  -0.121
    1UNL    C11   14   0.143  -0.047  -0.132
    1UNL    C12   15   0.217  -0.060  -0.004
    1UNL     O4   16   0.181   0.046   0.088
    1UNL    C13   17   0.263   0.040   0.204
    1UNL     O5   18   0.219   0.121   0.321
    1UNL    C14   19   0.272   0.253   0.307
    1UNL    C15   20   0.408   0.239   0.232
    1UNL     O6   21   0.411   0.342   0.130
    1UNL    C16   22   0.525   0.256   0.334
    1UNL     O7   23   0.509   0.371   0.411
    1UNL    C17   24   0.409   0.096   0.169
    1UNL     O8   25   0.436   0.100   0.033
    1UNL    C18   26   0.203  -0.137  -0.248
    1UNL     O9   27   0.216  -0.272  -0.204
    1UNL    C19   28   0.127  -0.115  -0.386
    1UNL    O10   29   0.189  -0.013  -0.448
    1UNL    C20   30  -0.031  -0.084  -0.362
    1UNL    O11   31  -0.112  -0.131  -0.469
    1UNL     H1   32  -0.033  -0.360   0.078
    1UNL     H2   33  -0.028  -0.183   0.056
    1UNL     H3   34  -0.264  -0.352  -0.019
    1UNL     H4   35  -0.251  -0.042   0.115
    1UNL     H5   36  -0.110   0.001   0.011
    1UNL     H6   37  -0.265   0.060  -0.029
    1UNL     H7   38  -0.453  -0.235  -0.145
    1UNL     H8   39  -0.439  -0.064  -0.126
    1UNL     H9   40  -0.484  -0.243   0.109
    1UNL    H10   41  -0.602  -0.157   0.030
    1UNL    H11   42  -0.438  -0.023   0.239
    1UNL    H12   43  -0.514   0.178   0.167
    1UNL    H13   44  -0.646   0.046  -0.067
    1UNL    H14   45  -0.644   0.217  -0.034
    1UNL    H15   46  -0.444   0.224  -0.117
    1UNL    H16   47  -0.047  -0.249  -0.228
    1UNL    H17   48   0.148   0.051  -0.180
    1UNL    H18   49   0.195  -0.157   0.036
    1UNL    H19   50   0.325  -0.058  -0.022
    1UNL    H20   51   0.273  -0.065   0.239
    1UNL    H21   52   0.214   0.316   0.236
    1UNL    H22   53   0.266   0.300   0.406
    1UNL    H23   54   0.439   0.432   0.171
    1UNL    H24   55   0.536   0.172   0.400
    1UNL    H25   56   0.621   0.265   0.285
    1UNL    H26   57   0.578   0.375   0.472
    1UNL    H27   58   0.478   0.029   0.222
    1UNL    H28   59   0.380   0.174   0.005
    1UNL    H29   60   0.306  -0.108  -0.264
    1UNL    H30   61   0.162  -0.276  -0.127
    1UNL    H31   62   0.154  -0.212  -0.439
    1UNL    H32   63   0.141   0.015  -0.523
    1UNL    H33   64  -0.052   0.025  -0.364
    1UNL    H34   65  -0.208  -0.131  -0.427
   0.00000   0.00000   0.00000   0.00000   0.00000   0.00000   0.00000   0.00000   0.00000
Generated with MDTraj, t= 2.0
 65
    1UNL     C1    1  -0.121  -0.306   0.090
    1UNL     C2    2  -0.219  -0.288   0.003
    1UNL     C3    3  -0.267  -0.158  -0.056
    1UNL     C4    4  -0.221  -0.043   0.034
    1UNL     C5    5  -0.425  -0.163  -0.071
    1UNL     C6    6  -0.497  -0.152   0.060
    1UNL     C7    7  -0.494  -0.012   0.123
    1UNL     C8    8  -0.527   0.100   0.063
    1UNL     C9    9  -0.570   0.105  -0.081
    1UNL     O1   10  -0.459   0.119  -0.173
    1UNL     O2   11  -0.213  -0.145  -0.194
    1UNL    C10   12  -0.071  -0.145  -0.214
    1UNL     O3   13   0.015  -0.103  -0.109
    1UNL    C11   14   0.132  -0.029  -0.139
    1UNL    C12   15   0.221  -0.028  -0.019
    1UNL     O4   16   0.178   0.061   0.088
    1UNL    C13   17   0.260   0.058   0.200
    1UNL     O5   18   0.209   0.144   0.302
    1UNL    C14   19   0.277   0.264   0.304
    1UNL    C15   20   0.427   0.230   0.251
    1UNL     O6   21   0.463   0.344   0.169
    1UNL    C16   22   0.533   0.217   0.360
    1UNL     O7   23   0.559   0.349   0.406
    1UNL    C17   24   0.409   0.105   0.166
    1UNL     O8   25   0.424   0.130   0.029
    1UNL    C18   26   0.206  -0.102  -0.264
    1UNL     O9   27   0.228  -0.231  -0.219
    1UNL    C19   28   0.117  -0.097  -0.392
    1UNL    O10   29   0.159   0.002  -0.478
    1UNL    C20   30  -0.043  -0.086  -0.352
    1UNL    O11   31  -0.123  -0.148  -0.450
    1UNL     H1   32  -0.088  -0.400   0.142
    1UNL     H2   33  -0.069  -0.214   0.122
    1UNL     H3   34  -0.267  -0.378  -0.048
    1UNL     H4   35  -0.224  -0.064   0.144
    1UNL     H5   36  -0.119  -0.027   0.013
    1UNL     H6   37  -0.267   0.045   0.003
    1UNL     H7   38  -0.431  -0.265  -0.118
    1UNL     H8   39  -0.452  -0.087  -0.137
    1UNL     H9   40  -0.453  -0.221   0.132
    1UNL    H10   41  -0.604  -0.182   0.064
    1UNL    H11   42  -0.491  -0.012   0.232
    1UNL    H12   43  -0.509   0.194   0.113
    1UNL    H13   44  -0.626   0.020  -0.119
    1UNL    H14   45  -0.632   0.189  -0.120
    1UNL    H15   46  -0.399   0.200  -0.163
    1UNL    H16   47  -0.054  -0.254  -0.219
    1UNL    H17   48   0.116   0.076  -0.163
    1UNL    H18   49   0.219  -0.126   0.020
    1UNL    H19   50   0.329  -0.008  -0.037
    1UNL    H20   51   0.275  -0.047   0.241
    1UNL    H21   52   0.207   0.338   0.251
    1UNL    H22   53   0.284   0.294   0.409
    1UNL    H23   54   0.520   0.413   0.220
    1UNL    H24   55   0.493   0.165   0.446
    1UNL    H25   56   0.625   0.171   0.331
    1UNL    H26   57   0.628   0.348   0.472
    1UNL    H27   58   0.481   0.027   0.196
    1UNL    H28   59   0.391   0.230   0.019
    1UNL    H29   60   0.303  -0.060  -0.275
    1UNL    H30   61   0.151  -0.277  -0.184
    1UNL    H31   62   0.128  -0.197  -0.451
    1UNL    H32   63   0.089   0.016  -0.535
    1UNL    H33   64  -0.068   0.025  -0.357
    1UNL    H34   65  -0.200  -0.173  -0.403
   0.00000   0.00000   0.00000   0.00000   0.00000   0.00000   0.00000   0.00000   0.00000
Generated with MDTraj, t= 3.0
 65
    1UNL     C1    1  -0.123  -0.322   0.103
    1UNL     C2    2  -0.223  -0.309   0.017
    1UNL     C3    3  -0.261  -0.169  -0.044
    1UNL     C4    4  -0.214  -0.048   0.030
    1UNL     C5    5  -0.411  -0.165  -0.068
    1UNL     C6    6  -0.509  -0.142   0.052
    1UNL     C7    7  -0.521  -0.003   0.100
    1UNL     C8    8  -0.556   0.102   0.034
    1UNL     C9    9  -0.586   0.120  -0.107
    1UNL     O1   10  -0.481   0.099  -0.199
    1UNL     O2   11  -0.206  -0.162  -0.182
    1UNL    C10   12  -0.068  -0.173  -0.204
    1UNL     O3   13   0.023  -0.134  -0.103
    1UNL    C11   14   0.128  -0.040  -0.139
    1UNL    C12   15   0.229  -0.020  -0.029
    1UNL     O4   16   0.190   0.089   0.060
    1UNL    C13   17   0.261   0.083   0.183
    1UNL     O5   18   0.208   0.167   0.293
    1UNL    C14   19   0.302   0.269   0.320
    1UNL    C15   20   0.439   0.243   0.261
    1UNL     O6   21   0.492   0.355   0.201
    1UNL    C16   22   0.534   0.196   0.373
    1UNL     O7   23   0.581   0.317   0.433
    1UNL    C17   24   0.415   0.118   0.164
    1UNL     O8   25   0.447   0.159   0.032
    1UNL    C18   26   0.204  -0.093  -0.271
    1UNL     O9   27   0.260  -0.214  -0.242
    1UNL    C19   28   0.093  -0.101  -0.384
    1UNL    O10   29   0.114  -0.001  -0.485
    1UNL    C20   30  -0.055  -0.095  -0.331
    1UNL    O11   31  -0.146  -0.138  -0.430
    1UNL     H1   32  -0.092  -0.409   0.147
    1UNL     H2   33  -0.080  -0.236   0.138
    1UNL     H3   34  -0.259  -0.390  -0.033
    1UNL     H4   35  -0.230  -0.053   0.135
    1UNL     H5   36  -0.106  -0.041   0.028
    1UNL     H6   37  -0.253   0.038  -0.020
    1UNL     H7   38  -0.442  -0.266  -0.112
    1UNL     H8   39  -0.427  -0.077  -0.134
    1UNL     H9   40  -0.487  -0.202   0.141
    1UNL    H10   41  -0.611  -0.180   0.028
    1UNL    H11   42  -0.471   0.018   0.192
    1UNL    H12   43  -0.546   0.199   0.081
    1UNL    H13   44  -0.662   0.051  -0.147
    1UNL    H14   45  -0.630   0.222  -0.130
    1UNL    H15   46  -0.412   0.172  -0.175
    1UNL    H16   47  -0.056  -0.284  -0.211
    1UNL    H17   48   0.088   0.063  -0.148
    1UNL    H18   49   0.245  -0.112   0.021
    1UNL    H19   50   0.332   0.007  -0.070
    1UNL    H20   51   0.250  -0.023   0.226
    1UNL    H21   52   0.259   0.359   0.260
    1UNL    H22   53   0.299   0.290   0.426
    1UNL    H23   54   0.526   0.411   0.267
    1UNL    H24   55   0.493   0.122   0.443
    1UNL    H25   56   0.621   0.154   0.325
    1UNL    H26   57   0.659   0.309   0.502
    1UNL    H27   58   0.469   0.024   0.189
    1UNL    H28   59   0.428   0.248   0.029
    1UNL    H29   60   0.276  -0.025  -0.305
    1UNL    H30   61   0.190  -0.284  -0.216
    1UNL    H31   62   0.111  -0.195  -0.452
    1UNL    H32   63   0.034   0.019  -0.533
    1UNL    H33   64  -0.071   0.016  -0.305
    1UNL    H34   65  -0.224  -0.172  -0.372
   0.00000   0.00000   0.00000   0.00000   0.00000   0.00000   0.00000   0.00000   0.00000
Generated with MDTraj, t= 4.0
 65
    1UNL     C1    1  -0.116  -0.335   0.093
    1UNL     C2    2  -0.234  -0.290   0.056
    1UNL     C3    3  -0.262  -0.174  -0.039
    1UNL     C4    4  -0.209  -0.043   0.016
    1UNL     C5    5  -0.418  -0.170  -0.062
    1UNL     C6    6  -0.501  -0.130   0.063
    1UNL     C7    7  -0.497   0.014   0.096
    1UNL     C8    8  -0.546   0.109   0.019
    1UNL     C9    9  -0.613   0.086  -0.114
    1UNL     O1   10  -0.518   0.088  -0.223
    1UNL     O2   11  -0.209  -0.202  -0.168
    1UNL    C10   12  -0.067  -0.167  -0.197
    1UNL     O3   13   0.019  -0.110  -0.093
    1UNL    C11   14   0.131  -0.029  -0.144
    1UNL    C12   15   0.230  -0.000  -0.036
    1UNL     O4   16   0.186   0.086   0.064
    1UNL    C13   17   0.269   0.096   0.180
    1UNL     O5   18   0.226   0.172   0.298
    1UNL    C14   19   0.319   0.281   0.317
    1UNL    C15   20   0.455   0.236   0.262
    1UNL     O6   21   0.522   0.348   0.199
    1UNL    C16   22   0.542   0.187   0.368
    1UNL     O7   23   0.545   0.281   0.474
    1UNL    C17   24   0.418   0.128   0.161
    1UNL     O8   25   0.440   0.165   0.026
    1UNL    C18   26   0.195  -0.089  -0.275
    1UNL     O9   27   0.265  -0.205  -0.248
    1UNL    C19   28   0.089  -0.101  -0.389
    1UNL    O10   29   0.111  -0.010  -0.493
    1UNL    C20   30  -0.053  -0.087  -0.335
    1UNL    O11   31  -0.142  -0.132  -0.440
    1UNL     H1   32  -0.091  -0.426   0.154
    1UNL     H2   33  -0.025  -0.288   0.044
    1UNL     H3   34  -0.324  -0.330   0.107
    1UNL     H4   35  -0.241  -0.031   0.111
    1UNL     H5   36  -0.103  -0.026   0.036
    1UNL     H6   37  -0.248   0.030  -0.055
    1UNL     H7   38  -0.456  -0.276  -0.084
    1UNL     H8   39  -0.447  -0.087  -0.140
    1UNL     H9   40  -0.475  -0.188   0.153
    1UNL    H10   41  -0.610  -0.158   0.056
    1UNL    H11   42  -0.437   0.044   0.186
    1UNL    H12   43  -0.554   0.215   0.042
    1UNL    H13   44  -0.655  -0.016  -0.112
    1UNL    H14   45  -0.701   0.155  -0.134
    1UNL    H15   46  -0.479   0.175  -0.226
    1UNL    H16   47  -0.022  -0.268  -0.219
    1UNL    H17   48   0.079   0.067  -0.165
    1UNL    H18   49   0.248  -0.092   0.011
    1UNL    H19   50   0.326   0.030  -0.088
    1UNL    H20   51   0.257  -0.007   0.233
    1UNL    H21   52   0.268   0.368   0.256
    1UNL    H22   53   0.332   0.311   0.421
    1UNL    H23   54   0.528   0.424   0.262
    1UNL    H24   55   0.489   0.099   0.407
    1UNL    H25   56   0.643   0.157   0.336
    1UNL    H26   57   0.606   0.242   0.549
    1UNL    H27   58   0.491   0.044   0.171
    1UNL    H28   59   0.438   0.270   0.014
    1UNL    H29   60   0.274  -0.027  -0.306
    1UNL    H30   61   0.233  -0.244  -0.158
    1UNL    H31   62   0.093  -0.213  -0.428
    1UNL    H32   63   0.023   0.009  -0.539
    1UNL    H33   64  -0.082   0.026  -0.330
    1UNL    H34   65  -0.209  -0.178  -0.387
   0.00000   0.00000   0.00000   0.00000   0.00000   0.00000   0.00000   0.00000   0.00000
Generated with MDTraj, t= 5.0
 65
    1UNL     C1    1  -0.071  -0.317   0.068
    1UNL     C2    2  -0.189  -0.257   0.069
    1UNL     C3    3  -0.238  -0.155  -0.026
    1UNL     C4    4  -0.201  -0.005   0.010
    1UNL     C5    5  -0.394  -0.166  -0.048
    1UNL     C6    6  -0.484  -0.123   0.057
    1UNL     C7    7  -0.490   0.034   0.081
    1UNL     C8    8  -0.564   0.118   0.006
    1UNL     C9    9  -0.641   0.072  -0.114
    1UNL     O1   10  -0.554   0.060  -0.231
    1UNL     O2   11  -0.198  -0.189  -0.162
    1UNL    C10   12  -0.063  -0.164  -0.197
    1UNL     O3   13   0.018  -0.109  -0.095
    1UNL    C11   14   0.125  -0.022  -0.138
    1UNL    C12   15   0.233  -0.002  -0.035
    1UNL     O4   16   0.190   0.072   0.067
    1UNL    C13   17   0.272   0.081   0.180
    1UNL     O5   18   0.220   0.161   0.289
    1UNL    C14   19   0.311   0.276   0.289
    1UNL    C15   20   0.450   0.230   0.251
    1UNL     O6   21   0.542   0.328   0.208
    1UNL    C16   22   0.509   0.164   0.383
    1UNL     O7   23   0.537   0.264   0.476
    1UNL    C17   24   0.417   0.121   0.147
    1UNL     O8   25   0.420   0.184   0.016
    1UNL    C18   26   0.189  -0.082  -0.267
    1UNL     O9   27   0.261  -0.204  -0.236
    1UNL    C19   28   0.082  -0.095  -0.381
    1UNL    O10   29   0.102  -0.000  -0.480
    1UNL    C20   30  -0.058  -0.091  -0.329
    1UNL    O11   31  -0.142  -0.161  -0.424
    1UNL     H1   32  -0.039  -0.400   0.118
    1UNL     H2   33  -0.005  -0.288  -0.006
    1UNL     H3   34  -0.257  -0.275   0.157
    1UNL     H4   35  -0.227   0.016   0.112
    1UNL     H5   36  -0.094   0.000   0.012
    1UNL     H6   37  -0.238   0.059  -0.069
    1UNL     H7   38  -0.407  -0.279  -0.071
    1UNL     H8   39  -0.420  -0.091  -0.135
    1UNL     H9   40  -0.470  -0.161   0.158
    1UNL    H10   41  -0.592  -0.147   0.041
    1UNL    H11   42  -0.468   0.059   0.180
    1UNL    H12   43  -0.567   0.223   0.027
    1UNL    H13   44  -0.699  -0.021  -0.100
    1UNL    H14   45  -0.717   0.154  -0.139
    1UNL    H15   46  -0.493   0.131  -0.249
    1UNL    H16   47  -0.022  -0.270  -0.213
    1UNL    H17   48   0.062   0.066  -0.163
    1UNL    H18   49   0.272  -0.094  -0.005
    1UNL    H19   50   0.317   0.052  -0.092
    1UNL    H20   51   0.263  -0.025   0.229
    1UNL    H21   52   0.274   0.360   0.213
    1UNL    H22   53   0.298   0.309   0.392
    1UNL    H23   54   0.544   0.393   0.289
    1UNL    H24   55   0.453   0.086   0.438
    1UNL    H25   56   0.604   0.115   0.353
    1UNL    H26   57   0.570   0.226   0.559
    1UNL    H27   58   0.491   0.036   0.147
    1UNL    H28   59   0.481   0.256   0.018
    1UNL    H29   60   0.264  -0.024  -0.307
    1UNL    H30   61   0.213  -0.230  -0.154
    1UNL    H31   62   0.097  -0.205  -0.419
    1UNL    H32   63   0.014   0.011  -0.535
    1UNL    H33   64  -0.099   0.018  -0.333
    1UNL    H34   65  -0.220  -0.201  -0.375
   0.00000   0.00000   0.00000   0.00000   0.00000   0.00000   0.00000   0.00000   0.00000
Generated with MDTraj, t= 6.0
 65
    1UNL     C1    1  -0.074  -0.267   0.119
    1UNL     C2    2  -0.196  -0.234   0.082
    1UNL     C3    3  -0.238  -0.140  -0.031
    1UNL     C4    4  -0.189   0.007  -0.006
    1UNL     C5    5  -0.395  -0.143  -0.032
    1UNL     C6    6  -0.475  -0.092   0.088
    1UNL     C7    7  -0.497   0.059   0.087
    1UNL     C8    8  -0.573   0.117  -0.002
    1UNL     C9    9  -0.647   0.046  -0.111
    1UNL     O1   10  -0.571   0.002  -0.214
    1UNL     O2   11  -0.194  -0.194  -0.159
    1UNL    C10   12  -0.064  -0.167  -0.201
    1UNL     O3   13   0.042  -0.124  -0.106
    1UNL    C11   14   0.142  -0.040  -0.155
    1UNL    C12   15   0.244   0.007  -0.047
    1UNL     O4   16   0.182   0.077   0.054
    1UNL    C13   17   0.255   0.083   0.174
    1UNL     O5   18   0.196   0.179   0.264
    1UNL    C14   19   0.293   0.269   0.315
    1UNL    C15   20   0.437   0.217   0.270
    1UNL     O6   21   0.519   0.327   0.221
    1UNL    C16   22   0.521   0.152   0.384
    1UNL     O7   23   0.561   0.241   0.486
    1UNL    C17   24   0.405   0.115   0.154
    1UNL     O8   25   0.419   0.177   0.023
    1UNL    C18   26   0.202  -0.097  -0.287
    1UNL     O9   27   0.268  -0.223  -0.282
    1UNL    C19   28   0.090  -0.087  -0.393
    1UNL    O10   29   0.118   0.023  -0.483
    1UNL    C20   30  -0.059  -0.092  -0.334
    1UNL    O11   31  -0.136  -0.162  -0.435
    1UNL     H1   32  -0.050  -0.348   0.197
    1UNL     H2   33   0.013  -0.217   0.076
    1UNL     H3   34  -0.270  -0.293   0.116
    1UNL     H4   35  -0.231   0.045   0.092
    1UNL     H5   36  -0.085   0.003   0.003
    1UNL     H6   37  -0.211   0.059  -0.096
    1UNL     H7   38  -0.431  -0.251  -0.055
    1UNL     H8   39  -0.413  -0.063  -0.114
    1UNL     H9   40  -0.434  -0.120   0.187
    1UNL    H10   41  -0.577  -0.136   0.104
    1UNL    H11   42  -0.441   0.129   0.156
    1UNL    H12   43  -0.592   0.224   0.005
    1UNL    H13   44  -0.685  -0.046  -0.062
    1UNL    H14   45  -0.739   0.106  -0.145
    1UNL    H15   46  -0.524   0.082  -0.254
    1UNL    H16   47  -0.026  -0.276  -0.215
    1UNL    H17   48   0.081   0.050  -0.183
    1UNL    H18   49   0.288  -0.074   0.003
    1UNL    H19   50   0.331   0.072  -0.088
    1UNL    H20   51   0.232  -0.019   0.227
    1UNL    H21   52   0.278   0.369   0.255
    1UNL    H22   53   0.282   0.289   0.419
    1UNL    H23   54   0.538   0.394   0.291
    1UNL    H24   55   0.448   0.077   0.424
    1UNL    H25   56   0.613   0.095   0.353
    1UNL    H26   57   0.609   0.196   0.551
    1UNL    H27   58   0.478   0.031   0.153
    1UNL    H28   59   0.439   0.273   0.044
    1UNL    H29   60   0.279  -0.034  -0.315
    1UNL    H30   61   0.219  -0.282  -0.226
    1UNL    H31   62   0.095  -0.181  -0.459
    1UNL    H32   63   0.028   0.037  -0.535
    1UNL    H33   64  -0.092   0.018  -0.318
    1UNL    H34   65  -0.220  -0.201  -0.398
   0.00000   0.00000   0.00000   0.00000   0.00000   0.00000   0.00000   0.00000   0.00000
Generated with MDTraj, t= 7.0
 65
    1UNL     C1    1  -0.059  -0.189   0.156
    1UNL     C2    2  -0.159  -0.224   0.078
    1UNL     C3    3  -0.215  -0.135  -0.035
    1UNL     C4    4  -0.166   0.008  -0.037
    1UNL     C5    5  -0.369  -0.131  -0.035
    1UNL     C6    6  -0.436  -0.061   0.086
    1UNL     C7    7  -0.476   0.083   0.059
    1UNL     C8    8  -0.577   0.118  -0.015
    1UNL     C9    9  -0.663   0.021  -0.086
    1UNL     O1   10  -0.611  -0.023  -0.209
    1UNL     O2   11  -0.185  -0.200  -0.165
    1UNL    C10   12  -0.057  -0.184  -0.210
    1UNL     O3   13   0.050  -0.138  -0.110
    1UNL    C11   14   0.136  -0.041  -0.156
    1UNL    C12   15   0.243  -0.008  -0.053
    1UNL     O4   16   0.179   0.085   0.038
    1UNL    C13   17   0.248   0.089   0.163
    1UNL     O5   18   0.193   0.185   0.253
    1UNL    C14   19   0.291   0.236   0.337
    1UNL    C15   20   0.433   0.207   0.277
    1UNL     O6   21   0.489   0.331   0.245
    1UNL    C16   22   0.522   0.134   0.386
    1UNL     O7   23   0.562   0.225   0.490
    1UNL    C17   24   0.404   0.117   0.155
    1UNL     O8   25   0.420   0.186   0.032
    1UNL    C18   26   0.197  -0.093  -0.289
    1UNL     O9   27   0.248  -0.226  -0.263
    1UNL    C19   28   0.086  -0.100  -0.400
    1UNL    O10   29   0.093   0.012  -0.488
    1UNL    C20   30  -0.059  -0.090  -0.339
    1UNL    O11   31  -0.154  -0.146  -0.435
    1UNL     H1   32  -0.021  -0.262   0.218
    1UNL     H2   33  -0.015  -0.098   0.151
    1UNL     H3   34  -0.189  -0.335   0.075
    1UNL     H4   35  -0.186   0.052   0.066
    1UNL     H5   36  -0.061   0.021  -0.054
    1UNL     H6   37  -0.208   0.056  -0.119
    1UNL     H7   38  -0.390  -0.246  -0.021
    1UNL     H8   39  -0.410  -0.077  -0.120
    1UNL     H9   40  -0.376  -0.072   0.178
    1UNL    H10   41  -0.521  -0.123   0.123
    1UNL    H11   42  -0.411   0.164   0.073
    1UNL    H12   43  -0.587   0.223  -0.041
    1UNL    H13   44  -0.685  -0.063  -0.019
    1UNL    H14   45  -0.768   0.064  -0.106
    1UNL    H15   46  -0.594   0.061  -0.267
    1UNL    H16   47  -0.020  -0.287  -0.246
    1UNL    H17   48   0.080   0.052  -0.173
    1UNL    H18   49   0.275  -0.087   0.008
    1UNL    H19   50   0.342   0.044  -0.089
    1UNL    H20   51   0.225  -0.020   0.196
    1UNL    H21   52   0.270   0.349   0.352
    1UNL    H22   53   0.280   0.189   0.431
    1UNL    H23   54   0.523   0.372   0.325
    1UNL    H24   55   0.481   0.041   0.435
    1UNL    H25   56   0.610   0.106   0.321
    1UNL    H26   57   0.611   0.182   0.564
    1UNL    H27   58   0.468   0.027   0.150
    1UNL    H28   59   0.437   0.284   0.060
    1UNL    H29   60   0.275  -0.032  -0.319
    1UNL    H30   61   0.213  -0.268  -0.180
    1UNL    H31   62   0.091  -0.186  -0.474
    1UNL    H32   63   0.010   0.013  -0.544
    1UNL    H33   64  -0.081   0.018  -0.306
    1UNL    H34   65  -0.226  -0.187  -0.384
   0.00000   0.00000   0.00000   0.00000   0.00000   0.00000   0.00000   0.00000   0.00000
Generated with MDTraj, t= 8.0
 65
    1UNL     C1    1  -0.048  -0.108   0.160
    1UNL     C2    2  -0.132  -0.175   0.083
    1UNL     C3    3  -0.212  -0.119  -0.032
    1UNL     C4    4  -0.191   0.033  -0.056
    1UNL     C5    5  -0.366  -0.138  -0.008
    1UNL     C6    6  -0.427  -0.050   0.098
    1UNL     C7    7  -0.461   0.091   0.048
    1UNL     C8    8  -0.565   0.111  -0.033
    1UNL     C9    9  -0.669   0.013  -0.066
    1UNL     O1   10  -0.655  -0.047  -0.199
    1UNL     O2   11  -0.185  -0.188  -0.155
    1UNL    C10   12  -0.054  -0.176  -0.206
    1UNL     O3   13   0.053  -0.127  -0.121
    1UNL    C11   14   0.148  -0.037  -0.172
    1UNL    C12   15   0.250  -0.004  -0.061
    1UNL     O4   16   0.174   0.074   0.045
    1UNL    C13   17   0.242   0.082   0.165
    1UNL     O5   18   0.182   0.160   0.268
    1UNL    C14   19   0.287   0.200   0.353
    1UNL    C15   20   0.422   0.197   0.281
    1UNL     O6   21   0.463   0.328   0.260
    1UNL    C16   22   0.530   0.129   0.373
    1UNL     O7   23   0.554   0.202   0.489
    1UNL    C17   24   0.388   0.121   0.148
    1UNL     O8   25   0.410   0.195   0.031
    1UNL    C18   26   0.206  -0.099  -0.304
    1UNL     O9   27   0.273  -0.228  -0.275
    1UNL    C19   28   0.093  -0.109  -0.408
    1UNL    O10   29   0.102  -0.006  -0.506
    1UNL    C20   30  -0.046  -0.102  -0.344
    1UNL    O11   31  -0.148  -0.151  -0.431
    1UNL     H1   32   0.002  -0.160   0.245
    1UNL     H2   33  -0.004  -0.008   0.130
    1UNL     H3   34  -0.163  -0.276   0.108
    1UNL     H4   35  -0.176   0.086   0.039
    1UNL     H5   36  -0.097   0.057  -0.114
    1UNL     H6   37  -0.255   0.087  -0.123
    1UNL     H7   38  -0.375  -0.244   0.043
    1UNL     H8   39  -0.418  -0.123  -0.099
    1UNL     H9   40  -0.353  -0.044   0.179
    1UNL    H10   41  -0.513  -0.090   0.155
    1UNL    H11   42  -0.387   0.169   0.079
    1UNL    H12   43  -0.569   0.202  -0.088
    1UNL    H13   44  -0.675  -0.075   0.001
    1UNL    H14   45  -0.776   0.052  -0.057
    1UNL    H15   46  -0.642   0.017  -0.272
    1UNL    H16   47  -0.028  -0.285  -0.236
    1UNL    H17   48   0.098   0.058  -0.196
    1UNL    H18   49   0.291  -0.091  -0.015
    1UNL    H19   50   0.343   0.060  -0.088
    1UNL    H20   51   0.236  -0.027   0.197
    1UNL    H21   52   0.274   0.310   0.376
    1UNL    H22   53   0.292   0.154   0.449
    1UNL    H23   54   0.522   0.366   0.337
    1UNL    H24   55   0.477   0.032   0.388
    1UNL    H25   56   0.633   0.108   0.330
    1UNL    H26   57   0.611   0.146   0.559
    1UNL    H27   58   0.459   0.036   0.143
    1UNL    H28   59   0.436   0.278   0.063
    1UNL    H29   60   0.281  -0.035  -0.338
    1UNL    H30   61   0.216  -0.287  -0.213
    1UNL    H31   62   0.106  -0.204  -0.465
    1UNL    H32   63   0.036  -0.002  -0.573
    1UNL    H33   64  -0.082   0.005  -0.326
    1UNL    H34   65  -0.218  -0.198  -0.372
   0.00000   0.00000   0.00000   0.00000   0.00000   0.00000   0.00000   0.00000   0.00000
Generated with MDTraj, t= 9.0
 65
    1UNL     C1    1  -0.047  -0.045   0.146
    1UNL     C2    2  -0.134  -0.125   0.084
    1UNL     C3    3  -0.212  -0.096  -0.043
    1UNL     C4    4  -0.194   0.052  -0.088
    1UNL     C5    5  -0.369  -0.119  -0.009
    1UNL     C6    6  -0.424  -0.026   0.098
    1UNL     C7    7  -0.482   0.109   0.057
    1UNL     C8    8  -0.599   0.113  -0.010
    1UNL     C9    9  -0.685  -0.002  -0.056
    1UNL     O1   10  -0.637  -0.066  -0.170
    1UNL     O2   11  -0.173  -0.188  -0.152
    1UNL    C10   12  -0.041  -0.180  -0.210
    1UNL     O3   13   0.056  -0.118  -0.124
    1UNL    C11   14   0.147  -0.023  -0.183
    1UNL    C12   15   0.253   0.019  -0.081
    1UNL     O4   16   0.181   0.067   0.036
    1UNL    C13   17   0.257   0.056   0.154
    1UNL     O5   18   0.187   0.093   0.283
    1UNL    C14   19   0.281   0.168   0.364
    1UNL    C15   20   0.417   0.186   0.289
    1UNL     O6   21   0.453   0.322   0.277
    1UNL    C16   22   0.526   0.122   0.374
    1UNL     O7   23   0.550   0.198   0.490
    1UNL    C17   24   0.393   0.129   0.147
    1UNL     O8   25   0.396   0.217   0.039
    1UNL    C18   26   0.209  -0.092  -0.305
    1UNL     O9   27   0.287  -0.213  -0.268
    1UNL    C19   28   0.098  -0.123  -0.411
    1UNL    O10   29   0.108  -0.038  -0.527
    1UNL    C20   30  -0.043  -0.120  -0.350
    1UNL    O11   31  -0.143  -0.185  -0.425
    1UNL     H1   32  -0.006  -0.092   0.225
    1UNL     H2   33  -0.010   0.049   0.125
    1UNL     H3   34  -0.149  -0.223   0.115
    1UNL     H4   35  -0.194   0.125  -0.012
    1UNL     H5   36  -0.099   0.066  -0.144
    1UNL     H6   37  -0.258   0.083  -0.174
    1UNL     H7   38  -0.394  -0.230   0.013
    1UNL     H8   39  -0.414  -0.087  -0.098
    1UNL     H9   40  -0.358  -0.006   0.182
    1UNL    H10   41  -0.509  -0.075   0.149
    1UNL    H11   42  -0.432   0.196   0.083
    1UNL    H12   43  -0.652   0.206  -0.038
    1UNL    H13   44  -0.694  -0.072   0.031
    1UNL    H14   45  -0.790   0.039  -0.074
    1UNL    H15   46  -0.612  -0.004  -0.238
    1UNL    H16   47  -0.004  -0.289  -0.219
    1UNL    H17   48   0.093   0.060  -0.232
    1UNL    H18   49   0.306  -0.071  -0.056
    1UNL    H19   50   0.329   0.099  -0.120
    1UNL    H20   51   0.277  -0.054   0.156
    1UNL    H21   52   0.239   0.268   0.381
    1UNL    H22   53   0.306   0.135   0.463
    1UNL    H23   54   0.487   0.344   0.362
    1UNL    H24   55   0.511   0.020   0.413
    1UNL    H25   56   0.607   0.124   0.300
    1UNL    H26   57   0.603   0.138   0.556
    1UNL    H27   58   0.474   0.059   0.126
    1UNL    H28   59   0.397   0.314   0.081
    1UNL    H29   60   0.277  -0.024  -0.350
    1UNL    H30   61   0.234  -0.256  -0.195
    1UNL    H31   62   0.113  -0.229  -0.440
    1UNL    H32   63   0.050  -0.059  -0.595
    1UNL    H33   64  -0.092  -0.016  -0.347
    1UNL    H34   65  -0.214  -0.222  -0.376
   0.00000   0.00000   0.00000   0.00000   0.00000   0.00000   0.00000   0.00000   0.00000
Generated with MDTraj, t= 10.0
 65
    1UNL     C1    1  -0.074  -0.006   0.137
    1UNL     C2    2  -0.129  -0.102   0.068
    1UNL     C3    3  -0.210  -0.069  -0.056
    1UNL     C4    4  -0.185   0.072  -0.116
    1UNL     C5    5  -0.363  -0.090  -0.033
    1UNL     C6    6  -0.424  -0.029   0.094
    1UNL     C7    7  -0.493   0.103   0.055
    1UNL     C8    8  -0.612   0.114  -0.004
    1UNL     C9    9  -0.692  -0.008  -0.044
    1UNL     O1   10  -0.629  -0.087  -0.138
    1UNL     O2   11  -0.180  -0.173  -0.151
    1UNL    C10   12  -0.046  -0.176  -0.201
    1UNL     O3   13   0.054  -0.103  -0.118
    1UNL    C11   14   0.145  -0.012  -0.186
    1UNL    C12   15   0.256   0.020  -0.086
    1UNL     O4   16   0.193   0.067   0.030
    1UNL    C13   17   0.277   0.046   0.140
    1UNL     O5   18   0.221   0.041   0.274
    1UNL    C14   19   0.274   0.141   0.351
    1UNL    C15   20   0.411   0.191   0.296
    1UNL     O6   21   0.442   0.332   0.305
    1UNL    C16   22   0.530   0.120   0.372
    1UNL     O7   23   0.544   0.173   0.497
    1UNL    C17   24   0.404   0.141   0.143
    1UNL     O8   25   0.394   0.249   0.055
    1UNL    C18   26   0.202  -0.090  -0.304
    1UNL     O9   27   0.287  -0.194  -0.252
    1UNL    C19   28   0.097  -0.148  -0.412
    1UNL    O10   29   0.102  -0.068  -0.536
    1UNL    C20   30  -0.048  -0.132  -0.353
    1UNL    O11   31  -0.136  -0.215  -0.421
    1UNL     H1   32  -0.008  -0.034   0.225
    1UNL     H2   33  -0.085   0.105   0.119
    1UNL     H3   34  -0.108  -0.210   0.098
    1UNL     H4   35  -0.226   0.139  -0.043
    1UNL     H5   36  -0.085   0.105  -0.138
    1UNL     H6   37  -0.236   0.091  -0.217
    1UNL     H7   38  -0.362  -0.203  -0.026
    1UNL     H8   39  -0.419  -0.067  -0.120
    1UNL     H9   40  -0.349  -0.015   0.174
    1UNL    H10   41  -0.498  -0.097   0.138
    1UNL    H11   42  -0.455   0.200   0.093
    1UNL    H12   43  -0.657   0.205  -0.026
    1UNL    H13   44  -0.706  -0.070   0.049
    1UNL    H14   45  -0.792   0.031  -0.070
    1UNL    H15   46  -0.623  -0.030  -0.218
    1UNL    H16   47   0.000  -0.280  -0.196
    1UNL    H17   48   0.094   0.077  -0.225
    1UNL    H18   49   0.311  -0.073  -0.075
    1UNL    H19   50   0.322   0.107  -0.128
    1UNL    H20   51   0.317  -0.054   0.130
    1UNL    H21   52   0.215   0.230   0.372
    1UNL    H22   53   0.296   0.093   0.444
    1UNL    H23   54   0.437   0.348   0.403
    1UNL    H24   55   0.502   0.016   0.373
    1UNL    H25   56   0.629   0.130   0.329
    1UNL    H26   57   0.614   0.132   0.547
    1UNL    H27   58   0.498   0.091   0.117
    1UNL    H28   59   0.346   0.317   0.101
    1UNL    H29   60   0.274  -0.032  -0.358
    1UNL    H30   61   0.227  -0.251  -0.204
    1UNL    H31   62   0.127  -0.252  -0.425
    1UNL    H32   63   0.035  -0.102  -0.596
    1UNL    H33   64  -0.074  -0.023  -0.358
    1UNL    H34   65  -0.212  -0.246  -0.357
   0.00000   0.00000   0.00000   0.00000   0.00000   0.00000   0.00000   0.00000   0.00000
Generated with MDTraj, t= 11.0
 65
    1UNL     C1    1  -0.090   0.031   0.140
    1UNL     C2    2  -0.123  -0.074   0.068
    1UNL     C3    3  -0.225  -0.077  -0.044
    1UNL     C4    4  -0.232   0.062  -0.119
    1UNL     C5    5  -0.362  -0.111   0.002
    1UNL     C6    6  -0.435  -0.013   0.106
    1UNL     C7    7  -0.491   0.107   0.036
    1UNL     C8    8  -0.611   0.112  -0.013
    1UNL     C9    9  -0.696   0.001  -0.017
    1UNL     O1   10  -0.662  -0.089  -0.124
    1UNL     O2   11  -0.174  -0.171  -0.151
    1UNL    C10   12  -0.039  -0.161  -0.201
    1UNL     O3   13   0.063  -0.091  -0.123
    1UNL    C11   14   0.155  -0.010  -0.204
    1UNL    C12   15   0.260   0.049  -0.105
    1UNL     O4   16   0.211   0.063   0.025
    1UNL    C13   17   0.304   0.035   0.131
    1UNL     O5   18   0.243   0.019   0.263
    1UNL    C14   19   0.270   0.125   0.347
    1UNL    C15   20   0.411   0.188   0.299
    1UNL     O6   21   0.424   0.334   0.313
    1UNL    C16   22   0.528   0.122   0.373
    1UNL     O7   23   0.521   0.147   0.516
    1UNL    C17   24   0.414   0.149   0.146
    1UNL     O8   25   0.375   0.255   0.060
    1UNL    C18   26   0.216  -0.098  -0.308
    1UNL     O9   27   0.294  -0.208  -0.261
    1UNL    C19   28   0.110  -0.149  -0.407
    1UNL    O10   29   0.120  -0.088  -0.538
    1UNL    C20   30  -0.038  -0.127  -0.355
    1UNL    O11   31  -0.118  -0.214  -0.429
    1UNL     H1   32  -0.009   0.031   0.206
    1UNL     H2   33  -0.139   0.118   0.124
    1UNL     H3   34  -0.073  -0.162   0.091
    1UNL     H4   35  -0.266   0.138  -0.048
    1UNL     H5   36  -0.136   0.090  -0.148
    1UNL     H6   37  -0.292   0.064  -0.216
    1UNL     H7   38  -0.340  -0.194   0.066
    1UNL     H8   39  -0.421  -0.136  -0.085
    1UNL     H9   40  -0.350   0.021   0.166
    1UNL    H10   41  -0.503  -0.060   0.177
    1UNL    H11   42  -0.425   0.187   0.017
    1UNL    H12   43  -0.636   0.204  -0.072
    1UNL    H13   44  -0.691  -0.056   0.079
    1UNL    H14   45  -0.802   0.018  -0.024
    1UNL    H15   46  -0.667  -0.045  -0.217
    1UNL    H16   47   0.012  -0.262  -0.205
    1UNL    H17   48   0.095   0.073  -0.244
    1UNL    H18   49   0.337  -0.025  -0.098
    1UNL    H19   50   0.300   0.154  -0.136
    1UNL    H20   51   0.352  -0.058   0.111
    1UNL    H21   52   0.193   0.198   0.333
    1UNL    H22   53   0.262   0.081   0.445
    1UNL    H23   54   0.487   0.359   0.233
    1UNL    H24   55   0.527   0.014   0.371
    1UNL    H25   56   0.615   0.157   0.324
    1UNL    H26   57   0.596   0.120   0.563
    1UNL    H27   58   0.512   0.118   0.111
    1UNL    H28   59   0.285   0.270   0.071
    1UNL    H29   60   0.285  -0.042  -0.370
    1UNL    H30   61   0.243  -0.250  -0.193
    1UNL    H31   62   0.118  -0.255  -0.418
    1UNL    H32   63   0.030  -0.111  -0.580
    1UNL    H33   64  -0.077  -0.024  -0.373
    1UNL    H34   65  -0.198  -0.224  -0.376
   0.00000   0.00000   0.00000   0.00000   0.00000   0.00000   0.00000   0.00000   0.00000
Generated with MDTraj, t= 12.0
 65
    1UNL     C1    1  -0.093   0.063   0.136
    1UNL     C2    2  -0.100  -0.039   0.051
    1UNL     C3    3  -0.201  -0.058  -0.061
    1UNL     C4    4  -0.197   0.067  -0.153
    1UNL     C5    5  -0.342  -0.112  -0.013
    1UNL     C6    6  -0.416  -0.026   0.092
    1UNL     C7    7  -0.477   0.101   0.041
    1UNL     C8    8  -0.598   0.111  -0.008
    1UNL     C9    9  -0.698   0.002  -0.011
    1UNL     O1   10  -0.668  -0.112  -0.099
    1UNL     O2   11  -0.171  -0.175  -0.145
    1UNL    C10   12  -0.038  -0.166  -0.195
    1UNL     O3   13   0.061  -0.092  -0.121
    1UNL    C11   14   0.156  -0.009  -0.198
    1UNL    C12   15   0.265   0.038  -0.100
    1UNL     O4   16   0.209   0.070   0.024
    1UNL    C13   17   0.297   0.036   0.128
    1UNL     O5   18   0.231   0.012   0.259
    1UNL    C14   19   0.267   0.124   0.344
    1UNL    C15   20   0.400   0.186   0.294
    1UNL     O6   21   0.400   0.330   0.313
    1UNL    C16   22   0.520   0.129   0.369
    1UNL     O7   23   0.500   0.123   0.515
    1UNL    C17   24   0.410   0.145   0.142
    1UNL     O8   25   0.387   0.252   0.052
    1UNL    C18   26   0.218  -0.097  -0.309
    1UNL     O9   27   0.287  -0.211  -0.250
    1UNL    C19   28   0.100  -0.147  -0.399
    1UNL    O10   29   0.111  -0.087  -0.528
    1UNL    C20   30  -0.041  -0.127  -0.340
    1UNL    O11   31  -0.138  -0.197  -0.411
    1UNL     H1   32  -0.007   0.062   0.207
    1UNL     H2   33  -0.165   0.145   0.144
    1UNL     H3   34  -0.019  -0.110   0.053
    1UNL     H4   35  -0.270   0.140  -0.103
    1UNL     H5   36  -0.097   0.110  -0.164
    1UNL     H6   37  -0.232   0.036  -0.252
    1UNL     H7   38  -0.326  -0.209   0.019
    1UNL     H8   39  -0.405  -0.124  -0.103
    1UNL     H9   40  -0.352  -0.010   0.179
    1UNL    H10   41  -0.492  -0.094   0.129
    1UNL    H11   42  -0.414   0.189   0.024
    1UNL    H12   43  -0.627   0.199  -0.054
    1UNL    H13   44  -0.711  -0.044   0.090
    1UNL    H14   45  -0.796   0.037  -0.030
    1UNL    H15   46  -0.643  -0.090  -0.194
    1UNL    H16   47  -0.002  -0.270  -0.188
    1UNL    H17   48   0.101   0.082  -0.232
    1UNL    H18   49   0.333  -0.042  -0.079
    1UNL    H19   50   0.315   0.134  -0.136
    1UNL    H20   51   0.341  -0.057   0.107
    1UNL    H21   52   0.194   0.200   0.348
    1UNL    H22   53   0.288   0.086   0.443
    1UNL    H23   54   0.419   0.365   0.228
    1UNL    H24   55   0.542   0.030   0.331
    1UNL    H25   56   0.607   0.188   0.352
    1UNL    H26   57   0.583   0.103   0.564
    1UNL    H27   58   0.509   0.105   0.123
    1UNL    H28   59   0.282   0.263   0.038
    1UNL    H29   60   0.292  -0.052  -0.378
    1UNL    H30   61   0.236  -0.296  -0.248
    1UNL    H31   62   0.118  -0.249  -0.416
    1UNL    H32   63   0.021  -0.083  -0.583
    1UNL    H33   64  -0.080  -0.024  -0.354
    1UNL    H34   65  -0.217  -0.209  -0.351
   0.00000   0.00000   0.00000   0.00000   0.00000   0.00000   0.00000   0.00000   0.00000
Generated with MDTraj, t= 13.0
 65
    1UNL     C1    1  -0.099   0.069   0.116
    1UNL     C2    2  -0.120  -0.050   0.059
    1UNL     C3    3  -0.208  -0.069  -0.060
    1UNL     C4    4  -0.215   0.050  -0.156
    1UNL     C5    5  -0.349  -0.111   0.002
    1UNL     C6    6  -0.412  -0.008   0.096
    1UNL     C7    7  -0.472   0.117   0.032
    1UNL     C8    8  -0.604   0.124   0.005
    1UNL     C9    9  -0.693  -0.000  -0.003
    1UNL     O1   10  -0.632  -0.113  -0.064
    1UNL     O2   11  -0.161  -0.184  -0.133
    1UNL    C10   12  -0.026  -0.170  -0.203
    1UNL     O3   13   0.084  -0.115  -0.121
    1UNL    C11   14   0.168  -0.029  -0.196
    1UNL    C12   15   0.276   0.032  -0.109
    1UNL     O4   16   0.208   0.062   0.018
    1UNL    C13   17   0.284   0.043   0.132
    1UNL     O5   18   0.210   0.032   0.250
    1UNL    C14   19   0.258   0.140   0.337
    1UNL    C15   20   0.401   0.179   0.301
    1UNL     O6   21   0.415   0.319   0.313
    1UNL    C16   22   0.499   0.113   0.391
    1UNL     O7   23   0.479   0.151   0.524
    1UNL    C17   24   0.407   0.136   0.146
    1UNL     O8   25   0.393   0.252   0.063
    1UNL    C18   26   0.222  -0.099  -0.324
    1UNL     O9   27   0.285  -0.216  -0.291
    1UNL    C19   28   0.100  -0.138  -0.417
    1UNL    O10   29   0.107  -0.061  -0.538
    1UNL    C20   30  -0.039  -0.124  -0.348
    1UNL    O11   31  -0.131  -0.208  -0.414
    1UNL     H1   32  -0.017   0.081   0.182
    1UNL     H2   33  -0.153   0.157   0.092
    1UNL     H3   34  -0.057  -0.141   0.084
    1UNL     H4   35  -0.283   0.129  -0.115
    1UNL     H5   36  -0.108   0.089  -0.180
    1UNL     H6   37  -0.251   0.012  -0.249
    1UNL     H7   38  -0.339  -0.207   0.032
    1UNL     H8   39  -0.417  -0.116  -0.086
    1UNL     H9   40  -0.348   0.010   0.185
    1UNL    H10   41  -0.502  -0.058   0.131
    1UNL    H11   42  -0.425   0.212   0.039
    1UNL    H12   43  -0.662   0.214  -0.029
    1UNL    H13   44  -0.723  -0.025   0.101
    1UNL    H14   45  -0.782   0.025  -0.051
    1UNL    H15   46  -0.617  -0.087  -0.154
    1UNL    H16   47  -0.002  -0.274  -0.202
    1UNL    H17   48   0.113   0.063  -0.228
    1UNL    H18   49   0.347  -0.045  -0.090
    1UNL    H19   50   0.317   0.128  -0.151
    1UNL    H20   51   0.320  -0.055   0.121
    1UNL    H21   52   0.190   0.221   0.333
    1UNL    H22   53   0.269   0.098   0.437
    1UNL    H23   54   0.496   0.335   0.271
    1UNL    H24   55   0.495   0.004   0.386
    1UNL    H25   56   0.601   0.140   0.368
    1UNL    H26   57   0.559   0.115   0.583
    1UNL    H27   58   0.495   0.078   0.115
    1UNL    H28   59   0.323   0.301   0.100
    1UNL    H29   60   0.297  -0.033  -0.375
    1UNL    H30   61   0.230  -0.256  -0.214
    1UNL    H31   62   0.112  -0.239  -0.442
    1UNL    H32   63   0.018  -0.066  -0.591
    1UNL    H33   64  -0.085  -0.024  -0.365
    1UNL    H34   65  -0.206  -0.233  -0.354
   0.00000   0.00000   0.00000   0.00000   0.00000   0.00000   0.00000   0.00000   0.00000
Generated with MDTraj, t= 14.0
 65
    1UNL     C1    1  -0.069   0.062   0.101
    1UNL     C2    2  -0.093  -0.051   0.035
    1UNL     C3    3  -0.200  -0.069  -0.066
    1UNL     C4    4  -0.217   0.060  -0.149
    1UNL     C5    5  -0.326  -0.114   0.012
    1UNL     C6    6  -0.388  -0.016   0.106
    1UNL     C7    7  -0.446   0.103   0.035
    1UNL     C8    8  -0.574   0.106  -0.012
    1UNL     C9    9  -0.680   0.005   0.008
    1UNL     O1   10  -0.653  -0.119  -0.053
    1UNL     O2   11  -0.166  -0.175  -0.150
    1UNL    C10   12  -0.038  -0.182  -0.208
    1UNL     O3   13   0.082  -0.142  -0.134
    1UNL    C11   14   0.153  -0.035  -0.191
    1UNL    C12   15   0.263   0.014  -0.096
    1UNL     O4   16   0.205   0.072   0.022
    1UNL    C13   17   0.277   0.044   0.147
    1UNL     O5   18   0.187   0.069   0.257
    1UNL    C14   19   0.241   0.183   0.332
    1UNL    C15   20   0.393   0.189   0.308
    1UNL     O6   21   0.432   0.321   0.306
    1UNL    C16   22   0.475   0.110   0.407
    1UNL     O7   23   0.466   0.155   0.537
    1UNL    C17   24   0.411   0.123   0.165
    1UNL     O8   25   0.432   0.216   0.058
    1UNL    C18   26   0.209  -0.092  -0.325
    1UNL     O9   27   0.287  -0.204  -0.295
    1UNL    C19   28   0.088  -0.129  -0.423
    1UNL    O10   29   0.083  -0.033  -0.531
    1UNL    C20   30  -0.050  -0.135  -0.354
    1UNL    O11   31  -0.134  -0.215  -0.433
    1UNL     H1   32   0.009   0.079   0.171
    1UNL     H2   33  -0.127   0.149   0.070
    1UNL     H3   34  -0.041  -0.132   0.063
    1UNL     H4   35  -0.204   0.158  -0.103
    1UNL     H5   36  -0.127   0.055  -0.221
    1UNL     H6   37  -0.300   0.065  -0.219
    1UNL     H7   38  -0.313  -0.210   0.052
    1UNL     H8   39  -0.397  -0.138  -0.070
    1UNL     H9   40  -0.304   0.029   0.164
    1UNL    H10   41  -0.461  -0.056   0.174
    1UNL    H11   42  -0.381   0.191   0.027
    1UNL    H12   43  -0.612   0.197  -0.042
    1UNL    H13   44  -0.697  -0.022   0.114
    1UNL    H14   45  -0.774   0.039  -0.022
    1UNL    H15   46  -0.640  -0.102  -0.148
    1UNL    H16   47  -0.024  -0.286  -0.226
    1UNL    H17   48   0.080   0.046  -0.214
    1UNL    H18   49   0.316  -0.071  -0.061
    1UNL    H19   50   0.318   0.093  -0.148
    1UNL    H20   51   0.296  -0.059   0.150
    1UNL    H21   52   0.195   0.266   0.288
    1UNL    H22   53   0.216   0.167   0.439
    1UNL    H23   54   0.398   0.365   0.219
    1UNL    H24   55   0.443   0.004   0.413
    1UNL    H25   56   0.580   0.107   0.374
    1UNL    H26   57   0.517   0.096   0.606
    1UNL    H27   58   0.497   0.055   0.166
    1UNL    H28   59   0.338   0.234   0.023
    1UNL    H29   60   0.277  -0.020  -0.380
    1UNL    H30   61   0.265  -0.241  -0.207
    1UNL    H31   62   0.106  -0.220  -0.469
    1UNL    H32   63   0.010  -0.063  -0.588
    1UNL    H33   64  -0.086  -0.030  -0.370
    1UNL    H34   65  -0.210  -0.229  -0.378
   0.00000   0.00000   0.00000   0.00000   0.00000   0.00000   0.00000   0.00000   0.00000
Generated with MDTraj, t= 15.0
 65
    1UNL     C1    1  -0.081   0.059   0.108
    1UNL     C2    2  -0.092  -0.052   0.037
    1UNL     C3    3  -0.198  -0.074  -0.068
    1UNL     C4    4  -0.208   0.036  -0.162
    1UNL     C5    5  -0.333  -0.106   0.005
    1UNL     C6    6  -0.380  -0.006   0.111
    1UNL     C7    7  -0.456   0.108   0.060
    1UNL     C8    8  -0.586   0.108   0.024
    1UNL     C9    9  -0.679  -0.005   0.022
    1UNL     O1   10  -0.621  -0.108  -0.054
    1UNL     O2   11  -0.159  -0.200  -0.148
    1UNL    C10   12  -0.042  -0.195  -0.221
    1UNL     O3   13   0.072  -0.143  -0.139
    1UNL    C11   14   0.156  -0.034  -0.187
    1UNL    C12   15   0.265   0.006  -0.081
    1UNL     O4   16   0.196   0.070   0.024
    1UNL    C13   17   0.256   0.042   0.154
    1UNL     O5   18   0.179   0.098   0.264
    1UNL    C14   19   0.253   0.206   0.317
    1UNL    C15   20   0.406   0.178   0.288
    1UNL     O6   21   0.469   0.309   0.270
    1UNL    C16   22   0.465   0.112   0.417
    1UNL     O7   23   0.410   0.172   0.539
    1UNL    C17   24   0.399   0.098   0.159
    1UNL     O8   25   0.422   0.184   0.053
    1UNL    C18   26   0.215  -0.084  -0.324
    1UNL     O9   27   0.307  -0.193  -0.303
    1UNL    C19   28   0.097  -0.114  -0.422
    1UNL    O10   29   0.090  -0.017  -0.522
    1UNL    C20   30  -0.048  -0.129  -0.362
    1UNL    O11   31  -0.134  -0.208  -0.445
    1UNL     H1   32  -0.013   0.069   0.192
    1UNL     H2   33  -0.146   0.145   0.088
    1UNL     H3   34  -0.010  -0.129   0.055
    1UNL     H4   35  -0.241   0.122  -0.105
    1UNL     H5   36  -0.121   0.079  -0.204
    1UNL     H6   37  -0.292   0.021  -0.233
    1UNL     H7   38  -0.310  -0.194   0.067
    1UNL     H8   39  -0.418  -0.137  -0.056
    1UNL     H9   40  -0.287   0.029   0.164
    1UNL    H10   41  -0.443  -0.066   0.178
    1UNL    H11   42  -0.400   0.192   0.027
    1UNL    H12   43  -0.628   0.205  -0.015
    1UNL    H13   44  -0.713  -0.045   0.119
    1UNL    H14   45  -0.770   0.013  -0.027
    1UNL    H15   46  -0.595  -0.082  -0.149
    1UNL    H16   47  -0.029  -0.296  -0.242
    1UNL    H17   48   0.083   0.046  -0.201
    1UNL    H18   49   0.311  -0.081  -0.039
    1UNL    H19   50   0.325   0.084  -0.126
    1UNL    H20   51   0.248  -0.062   0.172
    1UNL    H21   52   0.219   0.287   0.259
    1UNL    H22   53   0.232   0.206   0.428
    1UNL    H23   54   0.567   0.305   0.253
    1UNL    H24   55   0.450   0.001   0.409
    1UNL    H25   56   0.576   0.122   0.423
    1UNL    H26   57   0.438   0.132   0.622
    1UNL    H27   58   0.483   0.028   0.156
    1UNL    H28   59   0.343   0.246   0.048
    1UNL    H29   60   0.282  -0.005  -0.373
    1UNL    H30   61   0.279  -0.238  -0.224
    1UNL    H31   62   0.119  -0.203  -0.469
    1UNL    H32   63   0.037  -0.059  -0.586
    1UNL    H33   64  -0.086  -0.025  -0.354
    1UNL    H34   65  -0.219  -0.215  -0.391
   0.00000   0.00000   0.00000   0.00000   0.00000   0.00000   0.00000   0.00000   0.00000
Generated with MDTraj, t= 16.0
 65
    1UNL     C1    1  -0.085   0.072   0.102
    1UNL     C2    2  -0.108  -0.044   0.041
    1UNL     C3    3  -0.207  -0.067  -0.068
    1UNL     C4    4  -0.222   0.054  -0.156
    1UNL     C5    5  -0.339  -0.121  -0.009
    1UNL     C6    6  -0.383  -0.046   0.114
    1UNL     C7    7  -0.450   0.079   0.089
    1UNL     C8    8  -0.571   0.097   0.041
    1UNL     C9    9  -0.675  -0.011   0.023
    1UNL     O1   10  -0.645  -0.108  -0.077
    1UNL     O2   11  -0.166  -0.180  -0.151
    1UNL    C10   12  -0.037  -0.180  -0.213
    1UNL     O3   13   0.082  -0.150  -0.129
    1UNL    C11   14   0.160  -0.040  -0.176
    1UNL    C12   15   0.262   0.001  -0.071
    1UNL     O4   16   0.194   0.084   0.027
    1UNL    C13   17   0.245   0.045   0.158
    1UNL     O5   18   0.178   0.114   0.265
    1UNL    C14   19   0.250   0.231   0.294
    1UNL    C15   20   0.399   0.180   0.280
    1UNL     O6   21   0.480   0.293   0.254
    1UNL    C16   22   0.437   0.108   0.410
    1UNL     O7   23   0.422   0.191   0.519
    1UNL    C17   24   0.396   0.080   0.166
    1UNL     O8   25   0.442   0.143   0.049
    1UNL    C18   26   0.216  -0.086  -0.314
    1UNL     O9   27   0.310  -0.189  -0.304
    1UNL    C19   28   0.107  -0.111  -0.418
    1UNL    O10   29   0.106  -0.025  -0.529
    1UNL    C20   30  -0.038  -0.107  -0.352
    1UNL    O11   31  -0.127  -0.188  -0.435
    1UNL     H1   32   0.002   0.087   0.163
    1UNL     H2   33  -0.144   0.151   0.071
    1UNL     H3   34  -0.050  -0.134   0.068
    1UNL     H4   35  -0.266   0.145  -0.113
    1UNL     H5   36  -0.134   0.093  -0.188
    1UNL     H6   37  -0.295   0.023  -0.235
    1UNL     H7   38  -0.326  -0.233   0.013
    1UNL     H8   39  -0.417  -0.126  -0.082
    1UNL     H9   40  -0.286  -0.038   0.171
    1UNL    H10   41  -0.450  -0.112   0.170
    1UNL    H11   42  -0.404   0.177   0.109
    1UNL    H12   43  -0.597   0.196   0.016
    1UNL    H13   44  -0.696  -0.062   0.118
    1UNL    H14   45  -0.767   0.033   0.001
    1UNL    H15   46  -0.621  -0.065  -0.164
    1UNL    H16   47  -0.037  -0.284  -0.229
    1UNL    H17   48   0.084   0.037  -0.189
    1UNL    H18   49   0.302  -0.085  -0.024
    1UNL    H19   50   0.329   0.073  -0.117
    1UNL    H20   51   0.214  -0.058   0.174
    1UNL    H21   52   0.217   0.292   0.212
    1UNL    H22   53   0.217   0.259   0.402
    1UNL    H23   54   0.574   0.272   0.240
    1UNL    H24   55   0.379   0.013   0.430
    1UNL    H25   56   0.544   0.072   0.400
    1UNL    H26   57   0.443   0.148   0.598
    1UNL    H27   58   0.460  -0.007   0.185
    1UNL    H28   59   0.422   0.235   0.063
    1UNL    H29   60   0.285  -0.000  -0.352
    1UNL    H30   61   0.280  -0.251  -0.235
    1UNL    H31   62   0.123  -0.207  -0.452
    1UNL    H32   63   0.071  -0.060  -0.608
    1UNL    H33   64  -0.075  -0.002  -0.353
    1UNL    H34   65  -0.219  -0.209  -0.404
   0.00000   0.00000   0.00000   0.00000   0.00000   0.00000   0.00000   0.00000   0.00000
Generated with MDTraj, t= 17.0
 65
    1UNL     C1    1  -0.101   0.065   0.093
    1UNL     C2    2  -0.113  -0.050   0.025
    1UNL     C3    3  -0.217  -0.091  -0.080
    1UNL     C4    4  -0.273   0.031  -0.157
    1UNL     C5    5  -0.336  -0.151   0.003
    1UNL     C6    6  -0.396  -0.071   0.122
    1UNL     C7    7  -0.449   0.066   0.082
    1UNL     C8    8  -0.582   0.087   0.069
    1UNL     C9    9  -0.682  -0.019   0.028
    1UNL     O1   10  -0.655  -0.079  -0.099
    1UNL     O2   11  -0.165  -0.183  -0.170
    1UNL    C10   12  -0.037  -0.160  -0.220
    1UNL     O3   13   0.074  -0.126  -0.137
    1UNL    C11   14   0.162  -0.023  -0.190
    1UNL    C12   15   0.270   0.023  -0.087
    1UNL     O4   16   0.215   0.108   0.020
    1UNL    C13   17   0.242   0.060   0.151
    1UNL     O5   18   0.165   0.132   0.253
    1UNL    C14   19   0.258   0.232   0.317
    1UNL    C15   20   0.405   0.180   0.297
    1UNL     O6   21   0.480   0.288   0.251
    1UNL    C16   22   0.461   0.128   0.432
    1UNL     O7   23   0.461   0.226   0.527
    1UNL    C17   24   0.392   0.064   0.193
    1UNL     O8   25   0.475   0.098   0.084
    1UNL    C18   26   0.219  -0.092  -0.319
    1UNL     O9   27   0.295  -0.205  -0.280
    1UNL    C19   28   0.106  -0.124  -0.424
    1UNL    O10   29   0.112  -0.047  -0.546
    1UNL    C20   30  -0.034  -0.101  -0.362
    1UNL    O11   31  -0.129  -0.159  -0.446
    1UNL     H1   32  -0.014   0.075   0.163
    1UNL     H2   33  -0.170   0.146   0.074
    1UNL     H3   34  -0.045  -0.125   0.034
    1UNL     H4   35  -0.324   0.115  -0.106
    1UNL     H5   36  -0.180   0.080  -0.177
    1UNL     H6   37  -0.334  -0.006  -0.240
    1UNL     H7   38  -0.316  -0.267   0.015
    1UNL     H8   39  -0.411  -0.160  -0.074
    1UNL     H9   40  -0.316  -0.052   0.200
    1UNL    H10   41  -0.483  -0.123   0.164
    1UNL    H11   42  -0.387   0.150   0.099
    1UNL    H12   43  -0.611   0.194   0.076
    1UNL    H13   44  -0.677  -0.098   0.106
    1UNL    H14   45  -0.782   0.010   0.034
    1UNL    H15   46  -0.644  -0.009  -0.162
    1UNL    H16   47  -0.014  -0.264  -0.240
    1UNL    H17   48   0.104   0.066  -0.218
    1UNL    H18   49   0.308  -0.063  -0.040
    1UNL    H19   50   0.339   0.085  -0.146
    1UNL    H20   51   0.203  -0.044   0.151
    1UNL    H21   52   0.246   0.322   0.258
    1UNL    H22   53   0.230   0.240   0.432
    1UNL    H23   54   0.569   0.262   0.244
    1UNL    H24   55   0.399   0.040   0.464
    1UNL    H25   56   0.566   0.088   0.427
    1UNL    H26   57   0.532   0.210   0.591
    1UNL    H27   58   0.431  -0.032   0.232
    1UNL    H28   59   0.437   0.181   0.056
    1UNL    H29   60   0.292  -0.020  -0.372
    1UNL    H30   61   0.246  -0.252  -0.204
    1UNL    H31   62   0.109  -0.223  -0.454
    1UNL    H32   63   0.060  -0.084  -0.623
    1UNL    H33   64  -0.059   0.008  -0.362
    1UNL    H34   65  -0.208  -0.172  -0.396
   0.00000   0.00000   0.00000   0.00000   0.00000   0.00000   0.00000   0.00000   0.00000
Generated with MDTraj, t= 18.0
 65
    1UNL     C1    1  -0.105   0.088   0.067
    1UNL     C2    2  -0.142  -0.039   0.044
    1UNL     C3    3  -0.224  -0.075  -0.076
    1UNL     C4    4  -0.256   0.040  -0.172
    1UNL     C5    5  -0.355  -0.149  -0.031
    1UNL     C6    6  -0.398  -0.108   0.112
    1UNL     C7    7  -0.457   0.031   0.118
    1UNL     C8    8  -0.579   0.072   0.074
    1UNL     C9    9  -0.671  -0.031   0.021
    1UNL     O1   10  -0.645  -0.068  -0.109
    1UNL     O2   11  -0.167  -0.182  -0.158
    1UNL    C10   12  -0.035  -0.158  -0.208
    1UNL     O3   13   0.060  -0.086  -0.123
    1UNL    C11   14   0.164  -0.013  -0.189
    1UNL    C12   15   0.280   0.026  -0.099
    1UNL     O4   16   0.230   0.110   0.006
    1UNL    C13   17   0.241   0.059   0.137
    1UNL     O5   18   0.162   0.124   0.236
    1UNL    C14   19   0.251   0.218   0.303
    1UNL    C15   20   0.397   0.166   0.292
    1UNL     O6   21   0.474   0.271   0.237
    1UNL    C16   22   0.453   0.136   0.431
    1UNL     O7   23   0.489   0.255   0.496
    1UNL    C17   24   0.385   0.051   0.192
    1UNL     O8   25   0.486   0.059   0.096
    1UNL    C18   26   0.227  -0.092  -0.307
    1UNL     O9   27   0.295  -0.207  -0.243
    1UNL    C19   28   0.107  -0.118  -0.408
    1UNL    O10   29   0.118  -0.033  -0.519
    1UNL    C20   30  -0.038  -0.098  -0.358
    1UNL    O11   31  -0.141  -0.148  -0.434
    1UNL     H1   32  -0.023   0.107   0.128
    1UNL     H2   33  -0.147   0.176   0.022
    1UNL     H3   34  -0.087  -0.127   0.097
    1UNL     H4   35  -0.342   0.087  -0.130
    1UNL     H5   36  -0.169   0.115  -0.172
    1UNL     H6   37  -0.286  -0.007  -0.264
    1UNL     H7   38  -0.343  -0.266  -0.049
    1UNL     H8   39  -0.435  -0.133  -0.101
    1UNL     H9   40  -0.308  -0.125   0.180
    1UNL    H10   41  -0.479  -0.179   0.133
    1UNL    H11   42  -0.378   0.105   0.142
    1UNL    H12   43  -0.610   0.174   0.075
    1UNL    H13   44  -0.676  -0.125   0.083
    1UNL    H14   45  -0.769   0.006   0.029
    1UNL    H15   46  -0.676  -0.006  -0.176
    1UNL    H16   47   0.016  -0.254  -0.219
    1UNL    H17   48   0.125   0.084  -0.219
    1UNL    H18   49   0.314  -0.067  -0.062
    1UNL    H19   50   0.349   0.091  -0.157
    1UNL    H20   51   0.202  -0.048   0.135
    1UNL    H21   52   0.236   0.309   0.245
    1UNL    H22   53   0.224   0.227   0.419
    1UNL    H23   54   0.545   0.299   0.302
    1UNL    H24   55   0.387   0.075   0.495
    1UNL    H25   56   0.549   0.078   0.416
    1UNL    H26   57   0.554   0.238   0.577
    1UNL    H27   58   0.405  -0.046   0.241
    1UNL    H28   59   0.477   0.157   0.058
    1UNL    H29   60   0.311  -0.031  -0.357
    1UNL    H30   61   0.238  -0.260  -0.184
    1UNL    H31   62   0.112  -0.215  -0.445
    1UNL    H32   63   0.057  -0.064  -0.597
    1UNL    H33   64  -0.046   0.015  -0.362
    1UNL    H34   65  -0.194  -0.204  -0.363
   0.00000   0.00000   0.00000   0.00000   0.00000   0.00000   0.00000   0.00000   0.00000
Generated with MDTraj, t= 19.0
 65
    1UNL     C1    1  -0.105   0.093   0.073
    1UNL     C2    2  -0.143  -0.031   0.042
    1UNL     C3    3  -0.226  -0.082  -0.068
    1UNL     C4    4  -0.264   0.044  -0.155
    1UNL     C5    5  -0.358  -0.152  -0.022
    1UNL     C6    6  -0.422  -0.122   0.117
    1UNL     C7    7  -0.470   0.011   0.129
    1UNL     C8    8  -0.588   0.062   0.088
    1UNL     C9    9  -0.684  -0.015   0.002
    1UNL     O1   10  -0.629  -0.059  -0.119
    1UNL     O2   11  -0.139  -0.179  -0.139
    1UNL    C10   12  -0.015  -0.135  -0.193
    1UNL     O3   13   0.082  -0.058  -0.117
    1UNL    C11   14   0.185   0.000  -0.189
    1UNL    C12   15   0.292   0.044  -0.093
    1UNL     O4   16   0.235   0.119   0.010
    1UNL    C13   17   0.228   0.051   0.137
    1UNL     O5   18   0.153   0.127   0.229
    1UNL    C14   19   0.242   0.210   0.296
    1UNL    C15   20   0.390   0.166   0.272
    1UNL     O6   21   0.462   0.254   0.193
    1UNL    C16   22   0.463   0.140   0.403
    1UNL     O7   23   0.471   0.256   0.484
    1UNL    C17   24   0.372   0.034   0.199
    1UNL     O8   25   0.473   0.017   0.100
    1UNL    C18   26   0.230  -0.090  -0.307
    1UNL     O9   27   0.264  -0.220  -0.257
    1UNL    C19   28   0.111  -0.103  -0.412
    1UNL    O10   29   0.129  -0.003  -0.520
    1UNL    C20   30  -0.030  -0.095  -0.343
    1UNL    O11   31  -0.112  -0.183  -0.408
    1UNL     H1   32  -0.035   0.116   0.156
    1UNL     H2   33  -0.126   0.189   0.018
    1UNL     H3   34  -0.118  -0.099   0.118
    1UNL     H4   35  -0.350   0.088  -0.107
    1UNL     H5   36  -0.182   0.127  -0.172
    1UNL     H6   37  -0.300   0.007  -0.246
    1UNL     H7   38  -0.332  -0.265  -0.013
    1UNL     H8   39  -0.432  -0.159  -0.102
    1UNL     H9   40  -0.338  -0.140   0.188
    1UNL    H10   41  -0.494  -0.204   0.122
    1UNL    H11   42  -0.399   0.073   0.177
    1UNL    H12   43  -0.605   0.170   0.091
    1UNL    H13   44  -0.717  -0.108   0.060
    1UNL    H14   45  -0.775   0.038  -0.012
    1UNL    H15   46  -0.631   0.011  -0.193
    1UNL    H16   47   0.044  -0.230  -0.188
    1UNL    H17   48   0.150   0.093  -0.236
    1UNL    H18   49   0.328  -0.044  -0.047
    1UNL    H19   50   0.363   0.107  -0.157
    1UNL    H20   51   0.166  -0.046   0.132
    1UNL    H21   52   0.233   0.309   0.250
    1UNL    H22   53   0.215   0.210   0.413
    1UNL    H23   54   0.563   0.252   0.218
    1UNL    H24   55   0.409   0.072   0.466
    1UNL    H25   56   0.565   0.101   0.381
    1UNL    H26   57   0.506   0.238   0.581
    1UNL    H27   58   0.374  -0.051   0.270
    1UNL    H28   59   0.483   0.105   0.063
    1UNL    H29   60   0.318  -0.043  -0.363
    1UNL    H30   61   0.277  -0.221  -0.162
    1UNL    H31   62   0.116  -0.196  -0.460
    1UNL    H32   63   0.086  -0.025  -0.614
    1UNL    H33   64  -0.076   0.008  -0.344
    1UNL    H34   65  -0.170  -0.224  -0.345
   0.00000   0.00000   0.00000   0.00000   0.00000   0.00000   0.00000   0.00000   0.00000
Generated with MDTraj, t= 20.0
 65
    1UNL     C1    1  -0.114   0.065   0.094
    1UNL     C2    2  -0.134  -0.062   0.060
    1UNL     C3    3  -0.218  -0.093  -0.055
    1UNL     C4    4  -0.256   0.028  -0.143
    1UNL     C5    5  -0.345  -0.161  -0.011
    1UNL     C6    6  -0.402  -0.106   0.119
    1UNL     C7    7  -0.448   0.033   0.106
    1UNL     C8    8  -0.565   0.071   0.056
    1UNL     C9    9  -0.662  -0.021  -0.005
    1UNL     O1   10  -0.619  -0.058  -0.136
    1UNL     O2   11  -0.139  -0.182  -0.140
    1UNL    C10   12  -0.016  -0.140  -0.191
    1UNL     O3   13   0.056  -0.046  -0.119
    1UNL    C11   14   0.174   0.012  -0.189
    1UNL    C12   15   0.295   0.051  -0.102
    1UNL     O4   16   0.252   0.135   0.000
    1UNL    C13   17   0.224   0.064   0.121
    1UNL     O5   18   0.149   0.142   0.214
    1UNL    C14   19   0.241   0.210   0.294
    1UNL    C15   20   0.384   0.154   0.271
    1UNL     O6   21   0.475   0.241   0.196
    1UNL    C16   22   0.448   0.135   0.407
    1UNL     O7   23   0.469   0.260   0.480
    1UNL    C17   24   0.357   0.026   0.189
    1UNL     O8   25   0.467   0.003   0.101
    1UNL    C18   26   0.217  -0.082  -0.302
    1UNL     O9   27   0.248  -0.211  -0.252
    1UNL    C19   28   0.106  -0.092  -0.401
    1UNL    O10   29   0.114   0.015  -0.495
    1UNL    C20   30  -0.039  -0.099  -0.338
    1UNL    O11   31  -0.118  -0.200  -0.403
    1UNL     H1   32  -0.041   0.095   0.161
    1UNL     H2   33  -0.170   0.141   0.055
    1UNL     H3   34  -0.068  -0.132   0.105
    1UNL     H4   35  -0.326   0.100  -0.097
    1UNL     H5   36  -0.162   0.078  -0.167
    1UNL     H6   37  -0.298   0.000  -0.239
    1UNL     H7   38  -0.308  -0.268   0.001
    1UNL     H8   39  -0.411  -0.178  -0.101
    1UNL     H9   40  -0.313  -0.104   0.187
    1UNL    H10   41  -0.483  -0.168   0.159
    1UNL    H11   42  -0.380   0.104   0.158
    1UNL    H12   43  -0.590   0.174   0.081
    1UNL    H13   44  -0.686  -0.115   0.058
    1UNL    H14   45  -0.758   0.026  -0.011
    1UNL    H15   46  -0.634   0.026  -0.191
    1UNL    H16   47   0.051  -0.232  -0.192
    1UNL    H17   48   0.133   0.103  -0.236
    1UNL    H18   49   0.342  -0.037  -0.062
    1UNL    H19   50   0.361   0.123  -0.162
    1UNL    H20   51   0.166  -0.032   0.098
    1UNL    H21   52   0.248   0.318   0.275
    1UNL    H22   53   0.216   0.190   0.407
    1UNL    H23   54   0.540   0.289   0.256
    1UNL    H24   55   0.388   0.070   0.465
    1UNL    H25   56   0.549   0.093   0.398
    1UNL    H26   57   0.490   0.243   0.572
    1UNL    H27   58   0.352  -0.060   0.260
    1UNL    H28   59   0.494   0.099   0.070
    1UNL    H29   60   0.313  -0.044  -0.345
    1UNL    H30   61   0.300  -0.205  -0.172
    1UNL    H31   62   0.116  -0.189  -0.444
    1UNL    H32   63   0.074  -0.009  -0.585
    1UNL    H33   64  -0.094  -0.003  -0.350
    1UNL    H34   65  -0.177  -0.257  -0.343
   0.00000   0.00000   0.00000   0.00000   0.00000   0.00000   0.00000   0.00000   0.00000
Generated with MDTraj, t= 21.0
 65
    1UNL     C1    1  -0.120   0.057   0.146
    1UNL     C2    2  -0.106  -0.060   0.082
    1UNL     C3    3  -0.195  -0.097  -0.036
    1UNL     C4    4  -0.219   0.026  -0.113
    1UNL     C5    5  -0.329  -0.169   0.009
    1UNL     C6    6  -0.397  -0.092   0.124
    1UNL     C7    7  -0.444   0.048   0.097
    1UNL     C8    8  -0.555   0.080   0.030
    1UNL     C9    9  -0.649  -0.016  -0.038
    1UNL     O1   10  -0.602  -0.072  -0.155
    1UNL     O2   11  -0.138  -0.191  -0.128
    1UNL    C10   12  -0.017  -0.155  -0.191
    1UNL     O3   13   0.059  -0.058  -0.119
    1UNL    C11   14   0.167   0.004  -0.200
    1UNL    C12   15   0.277   0.046  -0.105
    1UNL     O4   16   0.224   0.142  -0.016
    1UNL    C13   17   0.220   0.082   0.119
    1UNL     O5   18   0.144   0.162   0.212
    1UNL    C14   19   0.238   0.242   0.288
    1UNL    C15   20   0.384   0.169   0.283
    1UNL     O6   21   0.489   0.248   0.222
    1UNL    C16   22   0.426   0.121   0.424
    1UNL     O7   23   0.493   0.222   0.494
    1UNL    C17   24   0.351   0.043   0.193
    1UNL     O8   25   0.456   0.020   0.097
    1UNL    C18   26   0.208  -0.087  -0.320
    1UNL     O9   27   0.259  -0.211  -0.281
    1UNL    C19   28   0.093  -0.101  -0.415
    1UNL    O10   29   0.082   0.012  -0.499
    1UNL    C20   30  -0.050  -0.111  -0.345
    1UNL    O11   31  -0.142  -0.198  -0.420
    1UNL     H1   32  -0.072   0.062   0.250
    1UNL     H2   33  -0.178   0.146   0.110
    1UNL     H3   34  -0.020  -0.130   0.106
    1UNL     H4   35  -0.269   0.108  -0.056
    1UNL     H5   36  -0.126   0.060  -0.139
    1UNL     H6   37  -0.279   0.012  -0.208
    1UNL     H7   38  -0.303  -0.276   0.017
    1UNL     H8   39  -0.382  -0.183  -0.092
    1UNL     H9   40  -0.328  -0.098   0.212
    1UNL    H10   41  -0.486  -0.146   0.157
    1UNL    H11   42  -0.402   0.130   0.150
    1UNL    H12   43  -0.586   0.182   0.040
    1UNL    H13   44  -0.669  -0.099   0.041
    1UNL    H14   45  -0.748   0.028  -0.056
    1UNL    H15   46  -0.583  -0.004  -0.221
    1UNL    H16   47   0.054  -0.245  -0.194
    1UNL    H17   48   0.112   0.087  -0.252
    1UNL    H18   49   0.317  -0.034  -0.042
    1UNL    H19   50   0.358   0.102  -0.164
    1UNL    H20   51   0.167  -0.015   0.096
    1UNL    H21   52   0.252   0.341   0.246
    1UNL    H22   53   0.203   0.253   0.396
    1UNL    H23   54   0.554   0.255   0.289
    1UNL    H24   55   0.348   0.095   0.489
    1UNL    H25   56   0.491   0.035   0.409
    1UNL    H26   57   0.536   0.182   0.566
    1UNL    H27   58   0.337  -0.052   0.247
    1UNL    H28   59   0.489   0.102   0.069
    1UNL    H29   60   0.288  -0.045  -0.381
    1UNL    H30   61   0.341  -0.199  -0.230
    1UNL    H31   62   0.114  -0.188  -0.474
    1UNL    H32   63   0.040  -0.009  -0.582
    1UNL    H33   64  -0.089  -0.007  -0.352
    1UNL    H34   65  -0.186  -0.261  -0.359
   0.00000   0.00000   0.00000   0.00000   0.00000   0.00000   0.00000   0.00000   0.00000
Generated with MDTraj, t= 22.0
 65
    1UNL     C1    1  -0.099  -0.009   0.179
    1UNL     C2    2  -0.116  -0.109   0.095
    1UNL     C3    3  -0.197  -0.101  -0.030
    1UNL     C4    4  -0.210   0.052  -0.086
    1UNL     C5    5  -0.338  -0.147   0.015
    1UNL     C6    6  -0.404  -0.062   0.126
    1UNL     C7    7  -0.473   0.064   0.093
    1UNL     C8    8  -0.577   0.079   0.013
    1UNL     C9    9  -0.639  -0.025  -0.073
    1UNL     O1   10  -0.552  -0.086  -0.167
    1UNL     O2   11  -0.145  -0.195  -0.118
    1UNL    C10   12  -0.022  -0.159  -0.183
    1UNL     O3   13   0.072  -0.077  -0.110
    1UNL    C11   14   0.162   0.004  -0.191
    1UNL    C12   15   0.281   0.060  -0.119
    1UNL     O4   16   0.249   0.166  -0.023
    1UNL    C13   17   0.219   0.107   0.107
    1UNL     O5   18   0.153   0.195   0.200
    1UNL    C14   19   0.252   0.249   0.277
    1UNL    C15   20   0.386   0.160   0.277
    1UNL     O6   21   0.505   0.236   0.238
    1UNL    C16   22   0.414   0.102   0.418
    1UNL     O7   23   0.462   0.198   0.509
    1UNL    C17   24   0.346   0.047   0.168
    1UNL     O8   25   0.463   0.036   0.077
    1UNL    C18   26   0.203  -0.069  -0.321
    1UNL     O9   27   0.267  -0.191  -0.295
    1UNL    C19   28   0.078  -0.101  -0.405
    1UNL    O10   29   0.049  -0.018  -0.519
    1UNL    C20   30  -0.057  -0.105  -0.322
    1UNL    O11   31  -0.138  -0.196  -0.390
    1UNL     H1   32  -0.016  -0.022   0.237
    1UNL     H2   33  -0.153   0.077   0.177
    1UNL     H3   34  -0.057  -0.193   0.101
    1UNL     H4   35  -0.239   0.121  -0.008
    1UNL     H5   36  -0.125   0.093  -0.134
    1UNL     H6   37  -0.298   0.055  -0.156
    1UNL     H7   38  -0.331  -0.254   0.032
    1UNL     H8   39  -0.397  -0.151  -0.085
    1UNL     H9   40  -0.339  -0.064   0.215
    1UNL    H10   41  -0.485  -0.134   0.148
    1UNL    H11   42  -0.439   0.159   0.138
    1UNL    H12   43  -0.589   0.184  -0.020
    1UNL    H13   44  -0.686  -0.113  -0.011
    1UNL    H14   45  -0.723   0.019  -0.131
    1UNL    H15   46  -0.522  -0.035  -0.241
    1UNL    H16   47   0.035  -0.259  -0.195
    1UNL    H17   48   0.100   0.092  -0.222
    1UNL    H18   49   0.336  -0.018  -0.063
    1UNL    H19   50   0.351   0.117  -0.191
    1UNL    H20   51   0.148   0.024   0.083
    1UNL    H21   52   0.276   0.349   0.243
    1UNL    H22   53   0.221   0.259   0.382
    1UNL    H23   54   0.560   0.260   0.323
    1UNL    H24   55   0.324   0.062   0.454
    1UNL    H25   56   0.487   0.023   0.413
    1UNL    H26   57   0.530   0.157   0.571
    1UNL    H27   58   0.331  -0.051   0.214
    1UNL    H28   59   0.499   0.134   0.062
    1UNL    H29   60   0.267  -0.005  -0.378
    1UNL    H30   61   0.339  -0.170  -0.229
    1UNL    H31   62   0.088  -0.204  -0.438
    1UNL    H32   63  -0.002  -0.067  -0.578
    1UNL    H33   64  -0.108  -0.008  -0.311
    1UNL    H34   65  -0.194  -0.240  -0.324
   0.00000   0.00000   0.00000   0.00000   0.00000   0.00000   0.00000   0.00000   0.00000
Generated with MDTraj, t= 23.0
 65
    1UNL     C1    1  -0.088  -0.049   0.241
    1UNL     C2    2  -0.086  -0.121   0.131
    1UNL     C3    3  -0.178  -0.100   0.015
    1UNL     C4    4  -0.177   0.048  -0.019
    1UNL     C5    5  -0.328  -0.144   0.036
    1UNL     C6    6  -0.417  -0.061   0.135
    1UNL     C7    7  -0.470   0.068   0.072
    1UNL     C8    8  -0.554   0.077  -0.033
    1UNL     C9    9  -0.625  -0.037  -0.103
    1UNL     O1   10  -0.556  -0.085  -0.222
    1UNL     O2   11  -0.126  -0.192  -0.092
    1UNL    C10   12  -0.018  -0.139  -0.170
    1UNL     O3   13   0.070  -0.040  -0.112
    1UNL    C11   14   0.157   0.025  -0.206
    1UNL    C12   15   0.276   0.082  -0.137
    1UNL     O4   16   0.242   0.179  -0.040
    1UNL    C13   17   0.223   0.111   0.090
    1UNL     O5   18   0.163   0.194   0.191
    1UNL    C14   19   0.264   0.249   0.260
    1UNL    C15   20   0.387   0.150   0.266
    1UNL     O6   21   0.508   0.218   0.236
    1UNL    C16   22   0.391   0.087   0.405
    1UNL     O7   23   0.410   0.179   0.509
    1UNL    C17   24   0.350   0.052   0.151
    1UNL     O8   25   0.452   0.042   0.051
    1UNL    C18   26   0.199  -0.066  -0.328
    1UNL     O9   27   0.264  -0.189  -0.283
    1UNL    C19   28   0.060  -0.104  -0.402
    1UNL    O10   29   0.050  -0.039  -0.529
    1UNL    C20   30  -0.066  -0.099  -0.306
    1UNL    O11   31  -0.163  -0.181  -0.362
    1UNL     H1   32  -0.028  -0.093   0.326
    1UNL     H2   33  -0.124   0.058   0.248
    1UNL     H3   34  -0.054  -0.229   0.132
    1UNL     H4   35  -0.197   0.106   0.067
    1UNL     H5   36  -0.071   0.076  -0.051
    1UNL     H6   37  -0.242   0.076  -0.101
    1UNL     H7   38  -0.334  -0.243   0.070
    1UNL     H8   39  -0.377  -0.147  -0.066
    1UNL     H9   40  -0.340  -0.043   0.213
    1UNL    H10   41  -0.498  -0.124   0.171
    1UNL    H11   42  -0.409   0.146   0.108
    1UNL    H12   43  -0.572   0.177  -0.063
    1UNL    H13   44  -0.640  -0.130  -0.031
    1UNL    H14   45  -0.731  -0.018  -0.135
    1UNL    H15   46  -0.561  -0.012  -0.291
    1UNL    H16   47   0.043  -0.235  -0.194
    1UNL    H17   48   0.101   0.116  -0.238
    1UNL    H18   49   0.321  -0.005  -0.082
    1UNL    H19   50   0.350   0.121  -0.217
    1UNL    H20   51   0.154   0.028   0.068
    1UNL    H21   52   0.296   0.342   0.213
    1UNL    H22   53   0.237   0.277   0.359
    1UNL    H23   54   0.559   0.226   0.319
    1UNL    H24   55   0.304   0.032   0.423
    1UNL    H25   56   0.472   0.013   0.396
    1UNL    H26   57   0.365   0.152   0.600
    1UNL    H27   58   0.329  -0.046   0.195
    1UNL    H28   59   0.510   0.113   0.062
    1UNL    H29   60   0.261  -0.023  -0.401
    1UNL    H30   61   0.346  -0.172  -0.225
    1UNL    H31   62   0.080  -0.210  -0.426
    1UNL    H32   63   0.001  -0.087  -0.594
    1UNL    H33   64  -0.099   0.005  -0.310
    1UNL    H34   65  -0.215  -0.218  -0.282
   0.00000   0.00000   0.00000   0.00000   0.00000   0.00000   0.00000   0.00000   0.00000
Generated with MDTraj, t= 24.0
 65
    1UNL     C1    1  -0.085  -0.071   0.272
    1UNL     C2    2  -0.069  -0.135   0.156
    1UNL     C3    3  -0.159  -0.094   0.037
    1UNL     C4    4  -0.154   0.056   0.002
    1UNL     C5    5  -0.305  -0.133   0.061
    1UNL     C6    6  -0.411  -0.041   0.134
    1UNL     C7    7  -0.457   0.073   0.052
    1UNL     C8    8  -0.532   0.073  -0.057
    1UNL     C9    9  -0.586  -0.054  -0.119
    1UNL     O1   10  -0.530  -0.092  -0.238
    1UNL     O2   11  -0.121  -0.176  -0.077
    1UNL    C10   12  -0.019  -0.134  -0.165
    1UNL     O3   13   0.075  -0.035  -0.111
    1UNL    C11   14   0.151   0.027  -0.212
    1UNL    C12   15   0.280   0.097  -0.164
    1UNL     O4   16   0.247   0.188  -0.061
    1UNL    C13   17   0.223   0.118   0.064
    1UNL     O5   18   0.155   0.199   0.163
    1UNL    C14   19   0.254   0.242   0.249
    1UNL    C15   20   0.370   0.141   0.259
    1UNL     O6   21   0.494   0.205   0.256
    1UNL    C16   22   0.359   0.073   0.395
    1UNL     O7   23   0.385   0.155   0.508
    1UNL    C17   24   0.346   0.054   0.132
    1UNL     O8   25   0.457   0.042   0.044
    1UNL    C18   26   0.183  -0.071  -0.326
    1UNL     O9   27   0.252  -0.181  -0.270
    1UNL    C19   28   0.052  -0.112  -0.402
    1UNL    O10   29   0.031  -0.024  -0.506
    1UNL    C20   30  -0.071  -0.105  -0.306
    1UNL    O11   31  -0.181  -0.180  -0.342
    1UNL     H1   32  -0.012  -0.081   0.343
    1UNL     H2   33  -0.163  -0.012   0.306
    1UNL     H3   34   0.017  -0.197   0.132
    1UNL     H4   35  -0.165   0.117   0.092
    1UNL     H5   36  -0.047   0.078  -0.031
    1UNL     H6   37  -0.214   0.089  -0.078
    1UNL     H7   38  -0.305  -0.225   0.113
    1UNL     H8   39  -0.351  -0.159  -0.033
    1UNL     H9   40  -0.359  -0.001   0.222
    1UNL    H10   41  -0.492  -0.109   0.161
    1UNL    H11   42  -0.439   0.171   0.103
    1UNL    H12   43  -0.566   0.166  -0.106
    1UNL    H13   44  -0.573  -0.137  -0.036
    1UNL    H14   45  -0.696  -0.036  -0.127
    1UNL    H15   46  -0.572  -0.032  -0.310
    1UNL    H16   47   0.035  -0.237  -0.162
    1UNL    H17   48   0.091   0.111  -0.251
    1UNL    H18   49   0.356   0.022  -0.125
    1UNL    H19   50   0.334   0.151  -0.250
    1UNL    H20   51   0.161   0.032   0.037
    1UNL    H21   52   0.308   0.327   0.210
    1UNL    H22   53   0.221   0.273   0.344
    1UNL    H23   54   0.520   0.216   0.345
    1UNL    H24   55   0.260   0.038   0.398
    1UNL    H25   56   0.420  -0.020   0.393
    1UNL    H26   57   0.373   0.106   0.593
    1UNL    H27   58   0.317  -0.045   0.167
    1UNL    H28   59   0.518   0.124   0.064
    1UNL    H29   60   0.242  -0.026  -0.399
    1UNL    H30   61   0.309  -0.154  -0.191
    1UNL    H31   62   0.060  -0.221  -0.429
    1UNL    H32   63  -0.024  -0.074  -0.574
    1UNL    H33   64  -0.103  -0.002  -0.307
    1UNL    H34   65  -0.227  -0.191  -0.259
   0.00000   0.00000   0.00000   0.00000   0.00000   0.00000   0.00000   0.00000   0.00000
Generated with MDTraj, t= 25.0
 65
    1UNL     C1    1  -0.070  -0.065   0.263
    1UNL     C2    2  -0.051  -0.101   0.138
    1UNL     C3    3  -0.152  -0.086   0.033
    1UNL     C4    4  -0.154   0.061  -0.015
    1UNL     C5    5  -0.305  -0.125   0.084
    1UNL     C6    6  -0.400  -0.015   0.138
    1UNL     C7    7  -0.441   0.091   0.046
    1UNL     C8    8  -0.512   0.073  -0.065
    1UNL     C9    9  -0.551  -0.063  -0.117
    1UNL     O1   10  -0.466  -0.121  -0.208
    1UNL     O2   11  -0.136  -0.166  -0.080
    1UNL    C10   12  -0.015  -0.146  -0.157
    1UNL     O3   13   0.090  -0.053  -0.109
    1UNL    C11   14   0.154   0.024  -0.212
    1UNL    C12   15   0.288   0.076  -0.149
    1UNL     O4   16   0.252   0.186  -0.065
    1UNL    C13   17   0.211   0.136   0.062
    1UNL     O5   18   0.148   0.226   0.151
    1UNL    C14   19   0.240   0.248   0.253
    1UNL    C15   20   0.351   0.141   0.261
    1UNL     O6   21   0.485   0.199   0.263
    1UNL    C16   22   0.339   0.054   0.389
    1UNL     O7   23   0.368   0.119   0.509
    1UNL    C17   24   0.329   0.058   0.131
    1UNL     O8   25   0.445   0.054   0.046
    1UNL    C18   26   0.177  -0.074  -0.332
    1UNL     O9   27   0.232  -0.196  -0.295
    1UNL    C19   28   0.038  -0.097  -0.404
    1UNL    O10   29   0.000   0.001  -0.497
    1UNL    C20   30  -0.079  -0.102  -0.297
    1UNL    O11   31  -0.172  -0.202  -0.336
    1UNL     H1   32  -0.005  -0.118   0.340
    1UNL     H2   33  -0.161  -0.021   0.307
    1UNL     H3   34   0.035  -0.153   0.117
    1UNL     H4   35  -0.163   0.140   0.065
    1UNL     H5   36  -0.068   0.082  -0.068
    1UNL     H6   37  -0.232   0.068  -0.088
    1UNL     H7   38  -0.291  -0.207   0.151
    1UNL     H8   39  -0.346  -0.182   0.008
    1UNL     H9   40  -0.368   0.034   0.231
    1UNL    H10   41  -0.497  -0.058   0.161
    1UNL    H11   42  -0.437   0.190   0.082
    1UNL    H12   43  -0.555   0.148  -0.123
    1UNL    H13   44  -0.545  -0.134  -0.025
    1UNL    H14   45  -0.658  -0.058  -0.145
    1UNL    H15   46  -0.460  -0.079  -0.298
    1UNL    H16   47   0.020  -0.255  -0.163
    1UNL    H17   48   0.090   0.107  -0.243
    1UNL    H18   49   0.351  -0.003  -0.097
    1UNL    H19   50   0.358   0.122  -0.228
    1UNL    H20   51   0.134   0.057   0.035
    1UNL    H21   52   0.284   0.345   0.247
    1UNL    H22   53   0.189   0.239   0.345
    1UNL    H23   54   0.504   0.218   0.362
    1UNL    H24   55   0.241   0.010   0.398
    1UNL    H25   56   0.407  -0.036   0.375
    1UNL    H26   57   0.415   0.062   0.566
    1UNL    H27   58   0.299  -0.044   0.156
    1UNL    H28   59   0.488   0.139   0.057
    1UNL    H29   60   0.245  -0.027  -0.396
    1UNL    H30   61   0.295  -0.180  -0.221
    1UNL    H31   62   0.046  -0.196  -0.460
    1UNL    H32   63  -0.059  -0.035  -0.576
    1UNL    H33   64  -0.124  -0.005  -0.303
    1UNL    H34   65  -0.237  -0.219  -0.257
   0.00000   0.00000   0.00000   0.00000   0.00000   0.00000   0.00000   0.00000   0.00000
Generated with MDTraj, t= 26.0
 65
    1UNL     C1    1  -0.053  -0.018   0.248
    1UNL     C2    2  -0.045  -0.090   0.140
    1UNL     C3    3  -0.153  -0.080   0.028
    1UNL     C4    4  -0.163   0.059  -0.041
    1UNL     C5    5  -0.284  -0.116   0.105
    1UNL     C6    6  -0.381   0.002   0.144
    1UNL     C7    7  -0.433   0.099   0.036
    1UNL     C8    8  -0.494   0.067  -0.075
    1UNL     C9    9  -0.531  -0.074  -0.108
    1UNL     O1   10  -0.415  -0.145  -0.169
    1UNL     O2   11  -0.125  -0.186  -0.073
    1UNL    C10   12  -0.025  -0.147  -0.166
    1UNL     O3   13   0.082  -0.061  -0.121
    1UNL    C11   14   0.152   0.021  -0.219
    1UNL    C12   15   0.282   0.089  -0.161
    1UNL     O4   16   0.242   0.187  -0.066
    1UNL    C13   17   0.207   0.125   0.064
    1UNL     O5   18   0.143   0.210   0.159
    1UNL    C14   19   0.234   0.254   0.258
    1UNL    C15   20   0.345   0.137   0.269
    1UNL     O6   21   0.484   0.179   0.277
    1UNL    C16   22   0.315   0.051   0.399
    1UNL     O7   23   0.360   0.121   0.513
    1UNL    C17   24   0.320   0.049   0.137
    1UNL     O8   25   0.434   0.040   0.057
    1UNL    C18   26   0.170  -0.070  -0.343
    1UNL     O9   27   0.221  -0.197  -0.313
    1UNL    C19   28   0.029  -0.086  -0.411
    1UNL    O10   29  -0.007   0.015  -0.506
    1UNL    C20   30  -0.085  -0.100  -0.303
    1UNL    O11   31  -0.189  -0.190  -0.339
    1UNL     H1   32   0.025  -0.027   0.317
    1UNL     H2   33  -0.133   0.040   0.277
    1UNL     H3   34   0.033  -0.178   0.140
    1UNL     H4   35  -0.176   0.145   0.026
    1UNL     H5   36  -0.069   0.077  -0.084
    1UNL     H6   37  -0.236   0.060  -0.121
    1UNL     H7   38  -0.257  -0.171   0.192
    1UNL     H8   39  -0.327  -0.188   0.042
    1UNL     H9   40  -0.341   0.058   0.230
    1UNL    H10   41  -0.471  -0.042   0.183
    1UNL    H11   42  -0.395   0.201   0.052
    1UNL    H12   43  -0.513   0.145  -0.152
    1UNL    H13   44  -0.578  -0.136  -0.021
    1UNL    H14   45  -0.603  -0.084  -0.189
    1UNL    H15   46  -0.351  -0.088  -0.206
    1UNL    H16   47   0.019  -0.251  -0.178
    1UNL    H17   48   0.077   0.094  -0.247
    1UNL    H18   49   0.355   0.016  -0.110
    1UNL    H19   50   0.347   0.138  -0.239
    1UNL    H20   51   0.130   0.047   0.031
    1UNL    H21   52   0.279   0.345   0.222
    1UNL    H22   53   0.183   0.269   0.348
    1UNL    H23   54   0.494   0.211   0.369
    1UNL    H24   55   0.210   0.039   0.411
    1UNL    H25   56   0.360  -0.055   0.393
    1UNL    H26   57   0.307   0.094   0.592
    1UNL    H27   58   0.289  -0.051   0.166
    1UNL    H28   59   0.489   0.118   0.079
    1UNL    H29   60   0.241  -0.033  -0.413
    1UNL    H30   61   0.302  -0.192  -0.263
    1UNL    H31   62   0.033  -0.191  -0.459
    1UNL    H32   63  -0.101  -0.014  -0.543
    1UNL    H33   64  -0.129  -0.004  -0.293
    1UNL    H34   65  -0.183  -0.269  -0.290
   0.00000   0.00000   0.00000   0.00000   0.00000   0.00000   0.00000   0.00000   0.00000
Generated with MDTraj, t= 27.0
 65
    1UNL     C1    1  -0.031   0.012   0.236
    1UNL     C2    2  -0.039  -0.075   0.139
    1UNL     C3    3  -0.147  -0.070   0.037
    1UNL     C4    4  -0.157   0.072  -0.028
    1UNL     C5    5  -0.286  -0.120   0.101
    1UNL     C6    6  -0.394  -0.011   0.140
    1UNL     C7    7  -0.428   0.076   0.030
    1UNL     C8    8  -0.492   0.050  -0.080
    1UNL     C9    9  -0.544  -0.084  -0.127
    1UNL     O1   10  -0.442  -0.180  -0.159
    1UNL     O2   11  -0.119  -0.172  -0.064
    1UNL    C10   12  -0.024  -0.138  -0.161
    1UNL     O3   13   0.085  -0.057  -0.114
    1UNL    C11   14   0.149   0.030  -0.212
    1UNL    C12   15   0.285   0.075  -0.161
    1UNL     O4   16   0.270   0.172  -0.062
    1UNL    C13   17   0.206   0.115   0.060
    1UNL     O5   18   0.144   0.210   0.153
    1UNL    C14   19   0.239   0.241   0.255
    1UNL    C15   20   0.345   0.124   0.263
    1UNL     O6   21   0.486   0.173   0.265
    1UNL    C16   22   0.318   0.054   0.399
    1UNL     O7   23   0.334   0.147   0.506
    1UNL    C17   24   0.313   0.033   0.137
    1UNL     O8   25   0.433   0.008   0.065
    1UNL    C18   26   0.162  -0.059  -0.343
    1UNL     O9   27   0.259  -0.157  -0.317
    1UNL    C19   28   0.017  -0.092  -0.404
    1UNL    O10   29  -0.008   0.003  -0.511
    1UNL    C20   30  -0.090  -0.087  -0.295
    1UNL    O11   31  -0.206  -0.156  -0.327
    1UNL     H1   32   0.016  -0.005   0.335
    1UNL     H2   33  -0.063   0.119   0.229
    1UNL     H3   34  -0.008  -0.171   0.161
    1UNL     H4   35  -0.151   0.148   0.044
    1UNL     H5   36  -0.058   0.094  -0.082
    1UNL     H6   37  -0.235   0.090  -0.101
    1UNL     H7   38  -0.268  -0.181   0.186
    1UNL     H8   39  -0.340  -0.174   0.015
    1UNL     H9   40  -0.339   0.042   0.217
    1UNL    H10   41  -0.472  -0.063   0.194
    1UNL    H11   42  -0.384   0.174   0.032
    1UNL    H12   43  -0.476   0.121  -0.157
    1UNL    H13   44  -0.596  -0.141  -0.042
    1UNL    H14   45  -0.616  -0.085  -0.206
    1UNL    H15   46  -0.384  -0.137  -0.231
    1UNL    H16   47   0.017  -0.240  -0.178
    1UNL    H17   48   0.080   0.114  -0.220
    1UNL    H18   49   0.342  -0.016  -0.118
    1UNL    H19   50   0.354   0.106  -0.242
    1UNL    H20   51   0.117   0.059   0.017
    1UNL    H21   52   0.287   0.333   0.218
    1UNL    H22   53   0.194   0.253   0.349
    1UNL    H23   54   0.505   0.204   0.352
    1UNL    H24   55   0.221   0.009   0.400
    1UNL    H25   56   0.401  -0.026   0.416
    1UNL    H26   57   0.296   0.108   0.596
    1UNL    H27   58   0.274  -0.063   0.173
    1UNL    H28   59   0.497   0.088   0.085
    1UNL    H29   60   0.209  -0.000  -0.419
    1UNL    H30   61   0.219  -0.216  -0.252
    1UNL    H31   62   0.017  -0.197  -0.452
    1UNL    H32   63  -0.103   0.017  -0.534
    1UNL    H33   64  -0.116   0.015  -0.284
    1UNL    H34   65  -0.185  -0.252  -0.343
   0.00000   0.00000   0.00000   0.00000   0.00000   0.00000   0.00000   0.00000   0.00000
Generated with MDTraj, t= 28.0
 65
    1UNL     C1    1  -0.077  -0.015   0.262
    1UNL     C2    2  -0.068  -0.085   0.152
    1UNL     C3    3  -0.159  -0.065   0.031
    1UNL     C4    4  -0.167   0.080  -0.033
    1UNL     C5    5  -0.300  -0.124   0.082
    1UNL     C6    6  -0.409  -0.024   0.119
    1UNL     C7    7  -0.454   0.067   0.009
    1UNL     C8    8  -0.531   0.039  -0.091
    1UNL     C9    9  -0.574  -0.098  -0.120
    1UNL     O1   10  -0.474  -0.191  -0.132
    1UNL     O2   11  -0.114  -0.159  -0.062
    1UNL    C10   12  -0.014  -0.129  -0.165
    1UNL     O3   13   0.107  -0.059  -0.117
    1UNL    C11   14   0.168   0.030  -0.208
    1UNL    C12   15   0.304   0.066  -0.160
    1UNL     O4   16   0.297   0.167  -0.058
    1UNL    C13   17   0.228   0.126   0.065
    1UNL     O5   18   0.170   0.226   0.148
    1UNL    C14   19   0.259   0.257   0.255
    1UNL    C15   20   0.358   0.135   0.267
    1UNL     O6   21   0.493   0.170   0.248
    1UNL    C16   22   0.338   0.062   0.402
    1UNL     O7   23   0.343   0.149   0.513
    1UNL    C17   24   0.315   0.040   0.153
    1UNL     O8   25   0.426  -0.019   0.084
    1UNL    C18   26   0.171  -0.042  -0.348
    1UNL     O9   27   0.266  -0.145  -0.349
    1UNL    C19   28   0.030  -0.085  -0.404
    1UNL    O10   29  -0.012  -0.020  -0.522
    1UNL    C20   30  -0.084  -0.072  -0.294
    1UNL    O11   31  -0.207  -0.136  -0.311
    1UNL     H1   32  -0.010  -0.031   0.339
    1UNL     H2   33  -0.145   0.061   0.284
    1UNL     H3   34   0.007  -0.164   0.144
    1UNL     H4   35  -0.167   0.152   0.044
    1UNL     H5   36  -0.079   0.106  -0.096
    1UNL     H6   37  -0.255   0.085  -0.098
    1UNL     H7   38  -0.267  -0.175   0.169
    1UNL     H8   39  -0.343  -0.205   0.008
    1UNL     H9   40  -0.375   0.026   0.211
    1UNL    H10   41  -0.499  -0.079   0.148
    1UNL    H11   42  -0.430   0.174   0.023
    1UNL    H12   43  -0.576   0.123  -0.147
    1UNL    H13   44  -0.650  -0.136  -0.042
    1UNL    H14   45  -0.621  -0.108  -0.213
    1UNL    H15   46  -0.398  -0.162  -0.182
    1UNL    H16   47   0.026  -0.228  -0.191
    1UNL    H17   48   0.107   0.121  -0.197
    1UNL    H18   49   0.361  -0.024  -0.123
    1UNL    H19   50   0.363   0.093  -0.245
    1UNL    H20   51   0.144   0.072   0.018
    1UNL    H21   52   0.310   0.353   0.221
    1UNL    H22   53   0.194   0.268   0.340
    1UNL    H23   54   0.529   0.200   0.334
    1UNL    H24   55   0.242   0.013   0.405
    1UNL    H25   56   0.427  -0.013   0.410
    1UNL    H26   57   0.397   0.119   0.590
    1UNL    H27   58   0.256  -0.041   0.197
    1UNL    H28   59   0.495   0.041   0.095
    1UNL    H29   60   0.211   0.033  -0.416
    1UNL    H30   61   0.231  -0.222  -0.296
    1UNL    H31   62   0.027  -0.200  -0.426
    1UNL    H32   63  -0.104  -0.013  -0.524
    1UNL    H33   64  -0.105   0.030  -0.285
    1UNL    H34   65  -0.186  -0.234  -0.285
   0.00000   0.00000   0.00000   0.00000   0.00000   0.00000   0.00000   0.00000   0.00000
Generated with MDTraj, t= 29.0
 65
    1UNL     C1    1  -0.103  -0.024   0.284
    1UNL     C2    2  -0.073  -0.065   0.161
    1UNL     C3    3  -0.167  -0.075   0.038
    1UNL     C4    4  -0.178   0.062  -0.034
    1UNL     C5    5  -0.313  -0.129   0.074
    1UNL     C6    6  -0.410  -0.021   0.111
    1UNL     C7    7  -0.459   0.064  -0.007
    1UNL     C8    8  -0.541   0.020  -0.100
    1UNL     C9    9  -0.594  -0.124  -0.120
    1UNL     O1   10  -0.497  -0.205  -0.183
    1UNL     O2   11  -0.120  -0.173  -0.057
    1UNL    C10   12  -0.023  -0.126  -0.154
    1UNL     O3   13   0.092  -0.041  -0.113
    1UNL    C11   14   0.170   0.037  -0.210
    1UNL    C12   15   0.310   0.066  -0.148
    1UNL     O4   16   0.298   0.168  -0.051
    1UNL    C13   17   0.230   0.125   0.068
    1UNL     O5   18   0.182   0.235   0.143
    1UNL    C14   19   0.289   0.257   0.241
    1UNL    C15   20   0.369   0.127   0.266
    1UNL     O6   21   0.509   0.152   0.258
    1UNL    C16   22   0.335   0.085   0.410
    1UNL     O7   23   0.409   0.163   0.504
    1UNL    C17   24   0.322   0.039   0.156
    1UNL     O8   25   0.433  -0.016   0.089
    1UNL    C18   26   0.169  -0.038  -0.346
    1UNL     O9   27   0.258  -0.148  -0.340
    1UNL    C19   28   0.028  -0.081  -0.394
    1UNL    O10   29  -0.015  -0.008  -0.507
    1UNL    C20   30  -0.082  -0.069  -0.283
    1UNL    O11   31  -0.201  -0.123  -0.329
    1UNL     H1   32  -0.037  -0.050   0.373
    1UNL     H2   33  -0.184   0.040   0.318
    1UNL     H3   34   0.028  -0.111   0.132
    1UNL     H4   35  -0.195   0.149   0.034
    1UNL     H5   36  -0.092   0.080  -0.086
    1UNL     H6   37  -0.257   0.045  -0.110
    1UNL     H7   38  -0.303  -0.192   0.160
    1UNL     H8   39  -0.331  -0.189  -0.013
    1UNL     H9   40  -0.375   0.053   0.182
    1UNL    H10   41  -0.504  -0.059   0.149
    1UNL    H11   42  -0.436   0.169  -0.000
    1UNL    H12   43  -0.582   0.096  -0.162
    1UNL    H13   44  -0.622  -0.169  -0.019
    1UNL    H14   45  -0.681  -0.118  -0.174
    1UNL    H15   46  -0.420  -0.159  -0.236
    1UNL    H16   47   0.023  -0.217  -0.187
    1UNL    H17   48   0.113   0.131  -0.213
    1UNL    H18   49   0.353  -0.027  -0.108
    1UNL    H19   50   0.377   0.089  -0.223
    1UNL    H20   51   0.152   0.068   0.028
    1UNL    H21   52   0.358   0.333   0.186
    1UNL    H22   53   0.242   0.295   0.333
    1UNL    H23   54   0.549   0.156   0.353
    1UNL    H24   55   0.231   0.106   0.423
    1UNL    H25   56   0.355  -0.026   0.440
    1UNL    H26   57   0.360   0.173   0.582
    1UNL    H27   58   0.267  -0.046   0.200
    1UNL    H28   59   0.492   0.068   0.066
    1UNL    H29   60   0.213   0.021  -0.430
    1UNL    H30   61   0.226  -0.227  -0.286
    1UNL    H31   62   0.035  -0.192  -0.428
    1UNL    H32   63  -0.106   0.017  -0.504
    1UNL    H33   64  -0.103   0.034  -0.277
    1UNL    H34   65  -0.197  -0.223  -0.341
   0.00000   0.00000   0.00000   0.00000   0.00000   0.00000   0.00000   0.00000   0.00000
Generated with MDTraj, t= 30.0
 65
    1UNL     C1    1  -0.089  -0.025   0.273
    1UNL     C2    2  -0.082  -0.083   0.157
    1UNL     C3    3  -0.176  -0.067   0.037
    1UNL     C4    4  -0.178   0.076  -0.030
    1UNL     C5    5  -0.316  -0.122   0.067
    1UNL     C6    6  -0.423  -0.016   0.107
    1UNL     C7    7  -0.482   0.051  -0.009
    1UNL     C8    8  -0.541  -0.006  -0.113
    1UNL     C9    9  -0.571  -0.154  -0.134
    1UNL     O1   10  -0.507  -0.204  -0.252
    1UNL     O2   11  -0.134  -0.166  -0.070
    1UNL    C10   12  -0.036  -0.124  -0.156
    1UNL     O3   13   0.072  -0.043  -0.101
    1UNL    C11   14   0.150   0.034  -0.196
    1UNL    C12   15   0.290   0.066  -0.138
    1UNL     O4   16   0.290   0.175  -0.053
    1UNL    C13   17   0.237   0.141   0.079
    1UNL     O5   18   0.208   0.255   0.159
    1UNL    C14   19   0.322   0.270   0.248
    1UNL    C15   20   0.388   0.136   0.267
    1UNL     O6   21   0.529   0.144   0.248
    1UNL    C16   22   0.361   0.089   0.409
    1UNL     O7   23   0.428   0.171   0.500
    1UNL    C17   24   0.330   0.045   0.159
    1UNL     O8   25   0.432  -0.022   0.087
    1UNL    C18   26   0.170  -0.047  -0.327
    1UNL     O9   27   0.231  -0.175  -0.310
    1UNL    C19   28   0.026  -0.074  -0.386
    1UNL    O10   29  -0.004   0.021  -0.490
    1UNL    C20   30  -0.097  -0.069  -0.283
    1UNL    O11   31  -0.213  -0.147  -0.321
    1UNL     H1   32  -0.001  -0.015   0.333
    1UNL     H2   33  -0.155   0.055   0.285
    1UNL     H3   34   0.002  -0.137   0.138
    1UNL     H4   35  -0.181   0.156   0.051
    1UNL     H5   36  -0.082   0.092  -0.071
    1UNL     H6   37  -0.249   0.097  -0.106
    1UNL     H7   38  -0.305  -0.201   0.140
    1UNL     H8   39  -0.354  -0.158  -0.021
    1UNL     H9   40  -0.381   0.060   0.171
    1UNL    H10   41  -0.505  -0.064   0.161
    1UNL    H11   42  -0.470   0.159  -0.007
    1UNL    H12   43  -0.560   0.051  -0.203
    1UNL    H13   44  -0.543  -0.205  -0.037
    1UNL    H14   45  -0.673  -0.161  -0.142
    1UNL    H15   46  -0.417  -0.178  -0.265
    1UNL    H16   47   0.008  -0.218  -0.178
    1UNL    H17   48   0.100   0.129  -0.223
    1UNL    H18   49   0.332  -0.023  -0.095
    1UNL    H19   50   0.359   0.086  -0.212
    1UNL    H20   51   0.144   0.097   0.054
    1UNL    H21   52   0.399   0.337   0.189
    1UNL    H22   53   0.288   0.313   0.344
    1UNL    H23   54   0.567   0.183   0.323
    1UNL    H24   55   0.261   0.080   0.443
    1UNL    H25   56   0.416  -0.012   0.422
    1UNL    H26   57   0.401   0.135   0.588
    1UNL    H27   58   0.264  -0.029   0.208
    1UNL    H28   59   0.493   0.046   0.063
    1UNL    H29   60   0.233   0.012  -0.401
    1UNL    H30   61   0.193  -0.204  -0.223
    1UNL    H31   62   0.035  -0.179  -0.435
    1UNL    H32   63  -0.103   0.036  -0.498
    1UNL    H33   64  -0.127   0.031  -0.267
    1UNL    H34   65  -0.222  -0.232  -0.281
   0.00000   0.00000   0.00000   0.00000   0.00000   0.00000   0.00000   0.00000   0.00000
Generated with MDTraj, t= 31.0
 65
    1UNL     C1    1  -0.069   0.012   0.262
    1UNL     C2    2  -0.073  -0.065   0.155
    1UNL     C3    3  -0.184  -0.070   0.047
    1UNL     C4    4  -0.192   0.071  -0.009
    1UNL     C5    5  -0.323  -0.132   0.105
    1UNL     C6    6  -0.456  -0.040   0.109
    1UNL     C7    7  -0.490   0.037  -0.020
    1UNL     C8    8  -0.526  -0.012  -0.139
    1UNL     C9    9  -0.547  -0.158  -0.172
    1UNL     O1   10  -0.504  -0.188  -0.301
    1UNL     O2   11  -0.150  -0.164  -0.056
    1UNL    C10   12  -0.040  -0.124  -0.143
    1UNL     O3   13   0.064  -0.033  -0.085
    1UNL    C11   14   0.143   0.026  -0.189
    1UNL    C12   15   0.284   0.063  -0.130
    1UNL     O4   16   0.286   0.174  -0.045
    1UNL    C13   17   0.237   0.136   0.086
    1UNL     O5   18   0.211   0.246   0.168
    1UNL    C14   19   0.328   0.277   0.239
    1UNL    C15   20   0.398   0.140   0.262
    1UNL     O6   21   0.536   0.152   0.233
    1UNL    C16   22   0.387   0.085   0.405
    1UNL     O7   23   0.452   0.173   0.497
    1UNL    C17   24   0.330   0.039   0.161
    1UNL     O8   25   0.431  -0.025   0.084
    1UNL    C18   26   0.148  -0.060  -0.319
    1UNL     O9   27   0.209  -0.183  -0.288
    1UNL    C19   28   0.009  -0.072  -0.391
    1UNL    O10   29   0.001   0.039  -0.484
    1UNL    C20   30  -0.100  -0.068  -0.280
    1UNL    O11   31  -0.206  -0.153  -0.327
    1UNL     H1   32   0.013   0.007   0.331
    1UNL     H2   33  -0.141   0.097   0.279
    1UNL     H3   34   0.024  -0.116   0.123
    1UNL     H4   35  -0.215   0.143   0.070
    1UNL     H5   36  -0.095   0.105  -0.058
    1UNL     H6   37  -0.267   0.081  -0.081
    1UNL     H7   38  -0.313  -0.170   0.207
    1UNL     H8   39  -0.344  -0.210   0.041
    1UNL     H9   40  -0.446   0.021   0.197
    1UNL    H10   41  -0.539  -0.105   0.134
    1UNL    H11   42  -0.460   0.141  -0.004
    1UNL    H12   43  -0.539   0.056  -0.222
    1UNL    H13   44  -0.497  -0.226  -0.095
    1UNL    H14   45  -0.646  -0.183  -0.170
    1UNL    H15   46  -0.406  -0.161  -0.300
    1UNL    H16   47   0.010  -0.213  -0.167
    1UNL    H17   48   0.097   0.120  -0.226
    1UNL    H18   49   0.323  -0.020  -0.077
    1UNL    H19   50   0.360   0.083  -0.196
    1UNL    H20   51   0.141   0.094   0.068
    1UNL    H21   52   0.393   0.347   0.169
    1UNL    H22   53   0.298   0.328   0.333
    1UNL    H23   54   0.582   0.211   0.301
    1UNL    H24   55   0.287   0.094   0.435
    1UNL    H25   56   0.426  -0.021   0.425
    1UNL    H26   57   0.487   0.125   0.584
    1UNL    H27   58   0.265  -0.033   0.215
    1UNL    H28   59   0.508   0.039   0.089
    1UNL    H29   60   0.219  -0.015  -0.400
    1UNL    H30   61   0.303  -0.189  -0.312
    1UNL    H31   62   0.003  -0.169  -0.451
    1UNL    H32   63  -0.098   0.072  -0.486
    1UNL    H33   64  -0.127   0.033  -0.269
    1UNL    H34   65  -0.192  -0.242  -0.294
   0.00000   0.00000   0.00000   0.00000   0.00000   0.00000   0.00000   0.00000   0.00000
Generated with MDTraj, t= 32.0
 65
    1UNL     C1    1  -0.080   0.032   0.250
    1UNL     C2    2  -0.081  -0.068   0.166
    1UNL     C3    3  -0.188  -0.067   0.056
    1UNL     C4    4  -0.199   0.079  -0.001
    1UNL     C5    5  -0.326  -0.127   0.117
    1UNL     C6    6  -0.455  -0.048   0.095
    1UNL     C7    7  -0.480   0.033  -0.024
    1UNL     C8    8  -0.509  -0.018  -0.141
    1UNL     C9    9  -0.510  -0.163  -0.185
    1UNL     O1   10  -0.491  -0.180  -0.325
    1UNL     O2   11  -0.141  -0.158  -0.046
    1UNL    C10   12  -0.047  -0.109  -0.146
    1UNL     O3   13   0.044  -0.007  -0.100
    1UNL    C11   14   0.142   0.031  -0.198
    1UNL    C12   15   0.280   0.052  -0.137
    1UNL     O4   16   0.286   0.154  -0.041
    1UNL    C13   17   0.225   0.115   0.089
    1UNL     O5   18   0.196   0.226   0.179
    1UNL    C14   19   0.315   0.263   0.247
    1UNL    C15   20   0.396   0.134   0.266
    1UNL     O6   21   0.533   0.163   0.218
    1UNL    C16   22   0.401   0.091   0.416
    1UNL     O7   23   0.489   0.183   0.488
    1UNL    C17   24   0.331   0.025   0.171
    1UNL     O8   25   0.435  -0.017   0.085
    1UNL    C18   26   0.153  -0.062  -0.323
    1UNL     O9   27   0.197  -0.199  -0.279
    1UNL    C19   28   0.015  -0.058  -0.387
    1UNL    O10   29  -0.014   0.044  -0.481
    1UNL    C20   30  -0.103  -0.068  -0.283
    1UNL    O11   31  -0.212  -0.156  -0.312
    1UNL     H1   32   0.011   0.051   0.300
    1UNL     H2   33  -0.156   0.109   0.242
    1UNL     H3   34   0.010  -0.119   0.141
    1UNL     H4   35  -0.248   0.146   0.065
    1UNL     H5   36  -0.096   0.118  -0.028
    1UNL     H6   37  -0.263   0.078  -0.091
    1UNL     H7   38  -0.311  -0.148   0.222
    1UNL     H8   39  -0.329  -0.223   0.070
    1UNL     H9   40  -0.474   0.011   0.182
    1UNL    H10   41  -0.538  -0.119   0.107
    1UNL    H11   42  -0.493   0.137  -0.006
    1UNL    H12   43  -0.545   0.051  -0.216
    1UNL    H13   44  -0.432  -0.229  -0.133
    1UNL    H14   45  -0.596  -0.212  -0.159
    1UNL    H15   46  -0.394  -0.162  -0.330
    1UNL    H16   47   0.011  -0.191  -0.172
    1UNL    H17   48   0.107   0.126  -0.242
    1UNL    H18   49   0.323  -0.033  -0.090
    1UNL    H19   50   0.349   0.085  -0.206
    1UNL    H20   51   0.137   0.059   0.069
    1UNL    H21   52   0.371   0.339   0.178
    1UNL    H22   53   0.296   0.311   0.344
    1UNL    H23   54   0.581   0.215   0.287
    1UNL    H24   55   0.310   0.090   0.466
    1UNL    H25   56   0.448  -0.012   0.417
    1UNL    H26   57   0.515   0.162   0.582
    1UNL    H27   58   0.281  -0.059   0.226
    1UNL    H28   59   0.488   0.066   0.060
    1UNL    H29   60   0.232  -0.026  -0.402
    1UNL    H30   61   0.205  -0.198  -0.184
    1UNL    H31   62  -0.004  -0.154  -0.442
    1UNL    H32   63  -0.116   0.058  -0.486
    1UNL    H33   64  -0.141   0.030  -0.279
    1UNL    H34   65  -0.195  -0.248  -0.269
   0.00000   0.00000   0.00000   0.00000   0.00000   0.00000   0.00000   0.00000   0.00000
Generated with MDTraj, t= 33.0
 65
    1UNL     C1    1  -0.092   0.018   0.256
    1UNL     C2    2  -0.084  -0.056   0.147
    1UNL     C3    3  -0.192  -0.060   0.044
    1UNL     C4    4  -0.187   0.087  -0.004
    1UNL     C5    5  -0.331  -0.113   0.105
    1UNL     C6    6  -0.454  -0.018   0.106
    1UNL     C7    7  -0.486   0.038  -0.029
    1UNL     C8    8  -0.513  -0.023  -0.142
    1UNL     C9    9  -0.521  -0.173  -0.167
    1UNL     O1   10  -0.490  -0.198  -0.306
    1UNL     O2   11  -0.158  -0.146  -0.071
    1UNL    C10   12  -0.045  -0.118  -0.144
    1UNL     O3   13   0.058  -0.025  -0.088
    1UNL    C11   14   0.147   0.031  -0.191
    1UNL    C12   15   0.284   0.062  -0.132
    1UNL     O4   16   0.276   0.158  -0.028
    1UNL    C13   17   0.229   0.111   0.098
    1UNL     O5   18   0.188   0.222   0.186
    1UNL    C14   19   0.293   0.250   0.273
    1UNL    C15   20   0.402   0.138   0.262
    1UNL     O6   21   0.517   0.185   0.191
    1UNL    C16   22   0.440   0.077   0.400
    1UNL     O7   23   0.484   0.182   0.485
    1UNL    C17   24   0.336   0.026   0.176
    1UNL     O8   25   0.431  -0.034   0.087
    1UNL    C18   26   0.156  -0.058  -0.320
    1UNL     O9   27   0.198  -0.192  -0.280
    1UNL    C19   28   0.013  -0.061  -0.388
    1UNL    O10   29  -0.009   0.045  -0.479
    1UNL    C20   30  -0.097  -0.070  -0.281
    1UNL    O11   31  -0.193  -0.163  -0.328
    1UNL     H1   32  -0.010   0.027   0.329
    1UNL     H2   33  -0.156   0.102   0.252
    1UNL     H3   34  -0.003  -0.117   0.125
    1UNL     H4   35  -0.226   0.154   0.069
    1UNL     H5   36  -0.080   0.111  -0.020
    1UNL     H6   37  -0.243   0.113  -0.101
    1UNL     H7   38  -0.297  -0.131   0.206
    1UNL     H8   39  -0.358  -0.212   0.062
    1UNL     H9   40  -0.432   0.063   0.171
    1UNL    H10   41  -0.550  -0.050   0.151
    1UNL    H11   42  -0.488   0.148  -0.041
    1UNL    H12   43  -0.532   0.032  -0.234
    1UNL    H13   44  -0.458  -0.229  -0.090
    1UNL    H14   45  -0.616  -0.208  -0.151
    1UNL    H15   46  -0.392  -0.183  -0.321
    1UNL    H16   47   0.009  -0.206  -0.156
    1UNL    H17   48   0.091   0.120  -0.220
    1UNL    H18   49   0.328  -0.025  -0.087
    1UNL    H19   50   0.348   0.103  -0.204
    1UNL    H20   51   0.143   0.053   0.077
    1UNL    H21   52   0.339   0.347   0.237
    1UNL    H22   53   0.253   0.268   0.372
    1UNL    H23   54   0.561   0.252   0.242
    1UNL    H24   55   0.353   0.035   0.437
    1UNL    H25   56   0.517  -0.005   0.396
    1UNL    H26   57   0.478   0.157   0.574
    1UNL    H27   58   0.280  -0.045   0.241
    1UNL    H28   59   0.501   0.025   0.079
    1UNL    H29   60   0.235  -0.022  -0.399
    1UNL    H30   61   0.295  -0.185  -0.261
    1UNL    H31   62  -0.003  -0.154  -0.443
    1UNL    H32   63  -0.104   0.068  -0.494
    1UNL    H33   64  -0.139   0.025  -0.265
    1UNL    H34   65  -0.165  -0.251  -0.296
   0.00000   0.00000   0.00000   0.00000   0.00000   0.00000   0.00000   0.00000   0.00000
Generated with MDTraj, t= 34.0
 65
    1UNL     C1    1  -0.072  -0.004   0.260
    1UNL     C2    2  -0.072  -0.077   0.152
    1UNL     C3    3  -0.182  -0.052   0.041
    1UNL     C4    4  -0.177   0.087  -0.017
    1UNL     C5    5  -0.327  -0.092   0.089
    1UNL     C6    6  -0.447   0.012   0.089
    1UNL     C7    7  -0.477   0.056  -0.050
    1UNL     C8    8  -0.522  -0.013  -0.152
    1UNL     C9    9  -0.559  -0.158  -0.151
    1UNL     O1   10  -0.482  -0.241  -0.238
    1UNL     O2   11  -0.163  -0.147  -0.064
    1UNL    C10   12  -0.053  -0.120  -0.148
    1UNL     O3   13   0.059  -0.045  -0.093
    1UNL    C11   14   0.140   0.021  -0.187
    1UNL    C12   15   0.271   0.064  -0.122
    1UNL     O4   16   0.250   0.161  -0.019
    1UNL    C13   17   0.218   0.104   0.101
    1UNL     O5   18   0.174   0.205   0.193
    1UNL    C14   19   0.281   0.235   0.276
    1UNL    C15   20   0.396   0.133   0.263
    1UNL     O6   21   0.509   0.197   0.207
    1UNL    C16   22   0.432   0.083   0.400
    1UNL     O7   23   0.506   0.178   0.466
    1UNL    C17   24   0.333   0.028   0.169
    1UNL     O8   25   0.437  -0.019   0.079
    1UNL    C18   26   0.165  -0.051  -0.313
    1UNL     O9   27   0.225  -0.173  -0.289
    1UNL    C19   28   0.027  -0.069  -0.392
    1UNL    O10   29   0.005   0.048  -0.469
    1UNL    C20   30  -0.095  -0.072  -0.293
    1UNL    O11   31  -0.195  -0.152  -0.349
    1UNL     H1   32   0.019   0.033   0.311
    1UNL     H2   33  -0.169   0.036   0.281
    1UNL     H3   34   0.026  -0.124   0.113
    1UNL     H4   35  -0.221   0.170   0.047
    1UNL     H5   36  -0.077   0.109  -0.047
    1UNL     H6   37  -0.233   0.090  -0.114
    1UNL     H7   38  -0.331  -0.122   0.192
    1UNL     H8   39  -0.351  -0.179   0.021
    1UNL     H9   40  -0.422   0.102   0.139
    1UNL    H10   41  -0.539  -0.024   0.136
    1UNL    H11   42  -0.441   0.153  -0.077
    1UNL    H12   43  -0.530   0.040  -0.244
    1UNL    H13   44  -0.548  -0.206  -0.048
    1UNL    H14   45  -0.658  -0.167  -0.174
    1UNL    H15   46  -0.385  -0.212  -0.250
    1UNL    H16   47  -0.010  -0.213  -0.168
    1UNL    H17   48   0.077   0.108  -0.206
    1UNL    H18   49   0.312  -0.028  -0.081
    1UNL    H19   50   0.336   0.110  -0.195
    1UNL    H20   51   0.137   0.043   0.076
    1UNL    H21   52   0.309   0.340   0.257
    1UNL    H22   53   0.246   0.235   0.377
    1UNL    H23   54   0.549   0.252   0.283
    1UNL    H24   55   0.348   0.055   0.453
    1UNL    H25   56   0.492  -0.010   0.385
    1UNL    H26   57   0.509   0.140   0.557
    1UNL    H27   58   0.292  -0.052   0.232
    1UNL    H28   59   0.489   0.066   0.046
    1UNL    H29   60   0.245   0.006  -0.378
    1UNL    H30   61   0.152  -0.225  -0.246
    1UNL    H31   62   0.026  -0.155  -0.455
    1UNL    H32   63  -0.057   0.046  -0.539
    1UNL    H33   64  -0.143   0.022  -0.290
    1UNL    H34   65  -0.166  -0.238  -0.373
   0.00000   0.00000   0.00000   0.00000   0.00000   0.00000   0.00000   0.00000   0.00000
Generated with MDTraj, t= 35.0
 65
    1UNL     C1    1  -0.042  -0.041   0.268
    1UNL     C2    2  -0.084  -0.097   0.152
    1UNL     C3    3  -0.187  -0.060   0.035
    1UNL     C4    4  -0.145   0.083  -0.002
    1UNL     C5    5  -0.339  -0.080   0.075
    1UNL     C6    6  -0.434   0.049   0.049
    1UNL     C7    7  -0.463   0.073  -0.091
    1UNL     C8    8  -0.512  -0.016  -0.174
    1UNL     C9    9  -0.554  -0.150  -0.137
    1UNL     O1   10  -0.459  -0.251  -0.165
    1UNL     O2   11  -0.159  -0.156  -0.070
    1UNL    C10   12  -0.048  -0.125  -0.153
    1UNL     O3   13   0.065  -0.051  -0.096
    1UNL    C11   14   0.134   0.029  -0.196
    1UNL    C12   15   0.267   0.075  -0.128
    1UNL     O4   16   0.233   0.161  -0.016
    1UNL    C13   17   0.219   0.095   0.104
    1UNL     O5   18   0.163   0.185   0.205
    1UNL    C14   19   0.272   0.233   0.287
    1UNL    C15   20   0.389   0.140   0.270
    1UNL     O6   21   0.501   0.212   0.224
    1UNL    C16   22   0.432   0.081   0.406
    1UNL     O7   23   0.506   0.170   0.482
    1UNL    C17   24   0.339   0.032   0.171
    1UNL     O8   25   0.440  -0.001   0.076
    1UNL    C18   26   0.160  -0.041  -0.328
    1UNL     O9   27   0.220  -0.174  -0.312
    1UNL    C19   28   0.017  -0.069  -0.392
    1UNL    O10   29  -0.008   0.017  -0.502
    1UNL    C20   30  -0.103  -0.061  -0.288
    1UNL    O11   31  -0.217  -0.126  -0.341
    1UNL     H1   32   0.026  -0.092   0.332
    1UNL     H2   33  -0.101   0.041   0.305
    1UNL     H3   34  -0.034  -0.180   0.122
    1UNL     H4   35  -0.192   0.156   0.076
    1UNL     H5   36  -0.037   0.097  -0.017
    1UNL     H6   37  -0.193   0.113  -0.093
    1UNL     H7   38  -0.344  -0.093   0.180
    1UNL     H8   39  -0.394  -0.170   0.034
    1UNL     H9   40  -0.396   0.133   0.100
    1UNL    H10   41  -0.532   0.035   0.096
    1UNL    H11   42  -0.450   0.179  -0.120
    1UNL    H12   43  -0.517   0.012  -0.280
    1UNL    H13   44  -0.577  -0.155  -0.026
    1UNL    H14   45  -0.640  -0.184  -0.182
    1UNL    H15   46  -0.389  -0.220  -0.221
    1UNL    H16   47   0.002  -0.215  -0.171
    1UNL    H17   48   0.075   0.121  -0.206
    1UNL    H18   49   0.329  -0.009  -0.093
    1UNL    H19   50   0.316   0.138  -0.208
    1UNL    H20   51   0.151   0.020   0.074
    1UNL    H21   52   0.302   0.332   0.262
    1UNL    H22   53   0.239   0.243   0.389
    1UNL    H23   54   0.537   0.252   0.305
    1UNL    H24   55   0.348   0.045   0.454
    1UNL    H25   56   0.497  -0.005   0.379
    1UNL    H26   57   0.564   0.126   0.557
    1UNL    H27   58   0.311  -0.058   0.226
    1UNL    H28   59   0.490   0.074   0.056
    1UNL    H29   60   0.229   0.013  -0.406
    1UNL    H30   61   0.258  -0.184  -0.221
    1UNL    H31   62   0.007  -0.170  -0.424
    1UNL    H32   63  -0.065  -0.030  -0.563
    1UNL    H33   64  -0.129   0.039  -0.268
    1UNL    H34   65  -0.193  -0.217  -0.361
   0.00000   0.00000   0.00000   0.00000   0.00000   0.00000   0.00000   0.00000   0.00000
Generated with MDTraj, t= 36.0
 65
    1UNL     C1    1  -0.055  -0.080   0.272
    1UNL     C2    2  -0.081  -0.122   0.147
    1UNL     C3    3  -0.176  -0.038   0.060
    1UNL     C4    4  -0.123   0.108   0.032
    1UNL     C5    5  -0.325  -0.044   0.108
    1UNL     C6    6  -0.437   0.044   0.036
    1UNL     C7    7  -0.421   0.065  -0.109
    1UNL     C8    8  -0.468  -0.018  -0.199
    1UNL     C9    9  -0.523  -0.157  -0.162
    1UNL     O1   10  -0.420  -0.226  -0.097
    1UNL     O2   11  -0.185  -0.114  -0.067
    1UNL    C10   12  -0.068  -0.124  -0.155
    1UNL     O3   13   0.055  -0.067  -0.104
    1UNL    C11   14   0.118   0.023  -0.196
    1UNL    C12   15   0.257   0.066  -0.140
    1UNL     O4   16   0.241   0.154  -0.021
    1UNL    C13   17   0.216   0.082   0.100
    1UNL     O5   18   0.156   0.164   0.204
    1UNL    C14   19   0.258   0.217   0.286
    1UNL    C15   20   0.388   0.136   0.267
    1UNL     O6   21   0.496   0.223   0.222
    1UNL    C16   22   0.438   0.069   0.400
    1UNL     O7   23   0.457   0.166   0.500
    1UNL    C17   24   0.351   0.032   0.156
    1UNL     O8   25   0.448   0.025   0.049
    1UNL    C18   26   0.143  -0.041  -0.329
    1UNL     O9   27   0.222  -0.154  -0.305
    1UNL    C19   28   0.007  -0.074  -0.391
    1UNL    O10   29  -0.014  -0.006  -0.513
    1UNL    C20   30  -0.111  -0.062  -0.294
    1UNL    O11   31  -0.222  -0.129  -0.351
    1UNL     H1   32   0.017  -0.120   0.341
    1UNL     H2   33  -0.115   0.004   0.311
    1UNL     H3   34  -0.044  -0.216   0.099
    1UNL     H4   35  -0.160   0.175   0.113
    1UNL     H5   36  -0.010   0.115   0.014
    1UNL     H6   37  -0.182   0.143  -0.053
    1UNL     H7   38  -0.333  -0.032   0.214
    1UNL     H8   39  -0.358  -0.153   0.095
    1UNL     H9   40  -0.443   0.136   0.088
    1UNL    H10   41  -0.539   0.006   0.056
    1UNL    H11   42  -0.375   0.153  -0.142
    1UNL    H12   43  -0.461   0.005  -0.302
    1UNL    H13   44  -0.612  -0.163  -0.093
    1UNL    H14   45  -0.549  -0.210  -0.246
    1UNL    H15   46  -0.335  -0.214  -0.135
    1UNL    H16   47  -0.046  -0.226  -0.164
    1UNL    H17   48   0.058   0.115  -0.203
    1UNL    H18   49   0.310  -0.031  -0.116
    1UNL    H19   50   0.316   0.134  -0.213
    1UNL    H20   51   0.148   0.004   0.081
    1UNL    H21   52   0.269   0.318   0.258
    1UNL    H22   53   0.227   0.225   0.388
    1UNL    H23   54   0.521   0.272   0.304
    1UNL    H24   55   0.361   0.004   0.428
    1UNL    H25   56   0.529   0.009   0.375
    1UNL    H26   57   0.519   0.149   0.577
    1UNL    H27   58   0.348  -0.064   0.205
    1UNL    H28   59   0.483   0.122   0.026
    1UNL    H29   60   0.201   0.024  -0.407
    1UNL    H30   61   0.181  -0.203  -0.231
    1UNL    H31   62   0.013  -0.173  -0.425
    1UNL    H32   63  -0.115   0.002  -0.528
    1UNL    H33   64  -0.130   0.043  -0.289
    1UNL    H34   65  -0.201  -0.226  -0.376
   0.00000   0.00000   0.00000   0.00000   0.00000   0.00000   0.00000   0.00000   0.00000
Generated with MDTraj, t= 37.0
 65
    1UNL     C1    1  -0.075  -0.107   0.270
    1UNL     C2    2  -0.087  -0.117   0.138
    1UNL     C3    3  -0.169  -0.020   0.056
    1UNL     C4    4  -0.098   0.117   0.059
    1UNL     C5    5  -0.313  -0.020   0.123
    1UNL     C6    6  -0.413   0.069   0.049
    1UNL     C7    7  -0.405   0.066  -0.105
    1UNL     C8    8  -0.433  -0.031  -0.192
    1UNL     C9    9  -0.499  -0.163  -0.156
    1UNL     O1   10  -0.423  -0.242  -0.064
    1UNL     O2   11  -0.189  -0.068  -0.083
    1UNL    C10   12  -0.070  -0.098  -0.162
    1UNL     O3   13   0.043  -0.041  -0.108
    1UNL    C11   14   0.114   0.039  -0.204
    1UNL    C12   15   0.247   0.083  -0.145
    1UNL     O4   16   0.222   0.150  -0.022
    1UNL    C13   17   0.221   0.056   0.088
    1UNL     O5   18   0.150   0.112   0.202
    1UNL    C14   19   0.236   0.192   0.273
    1UNL    C15   20   0.380   0.134   0.263
    1UNL     O6   21   0.485   0.236   0.236
    1UNL    C16   22   0.419   0.060   0.401
    1UNL     O7   23   0.432   0.165   0.496
    1UNL    C17   24   0.366   0.031   0.143
    1UNL     O8   25   0.456   0.053   0.040
    1UNL    C18   26   0.142  -0.050  -0.333
    1UNL     O9   27   0.227  -0.159  -0.307
    1UNL    C19   28   0.008  -0.096  -0.403
    1UNL    O10   29  -0.011  -0.011  -0.514
    1UNL    C20   30  -0.108  -0.067  -0.308
    1UNL    O11   31  -0.218  -0.151  -0.344
    1UNL     H1   32  -0.019  -0.170   0.339
    1UNL     H2   33  -0.120  -0.019   0.311
    1UNL     H3   34  -0.064  -0.218   0.095
    1UNL     H4   35  -0.076   0.145   0.160
    1UNL     H5   36   0.000   0.100   0.007
    1UNL     H6   37  -0.153   0.210   0.019
    1UNL     H7   38  -0.318   0.005   0.229
    1UNL     H8   39  -0.346  -0.129   0.133
    1UNL     H9   40  -0.406   0.170   0.079
    1UNL    H10   41  -0.516   0.046   0.078
    1UNL    H11   42  -0.361   0.159  -0.148
    1UNL    H12   43  -0.409  -0.017  -0.298
    1UNL    H13   44  -0.603  -0.149  -0.115
    1UNL    H14   45  -0.512  -0.235  -0.231
    1UNL    H15   46  -0.332  -0.196  -0.053
    1UNL    H16   47  -0.064  -0.204  -0.148
    1UNL    H17   48   0.057   0.130  -0.234
    1UNL    H18   49   0.318  -0.002  -0.112
    1UNL    H19   50   0.300   0.156  -0.220
    1UNL    H20   51   0.168  -0.034   0.070
    1UNL    H21   52   0.226   0.287   0.227
    1UNL    H22   53   0.203   0.211   0.372
    1UNL    H23   54   0.488   0.287   0.326
    1UNL    H24   55   0.347  -0.008   0.434
    1UNL    H25   56   0.516   0.004   0.383
    1UNL    H26   57   0.455   0.131   0.579
    1UNL    H27   58   0.381  -0.065   0.192
    1UNL    H28   59   0.466   0.145   0.030
    1UNL    H29   60   0.200   0.015  -0.410
    1UNL    H30   61   0.182  -0.223  -0.252
    1UNL    H31   62   0.006  -0.199  -0.428
    1UNL    H32   63  -0.110   0.024  -0.516
    1UNL    H33   64  -0.148   0.033  -0.316
    1UNL    H34   65  -0.195  -0.250  -0.358
   0.00000   0.00000   0.00000   0.00000   0.00000   0.00000   0.00000   0.00000   0.00000
Generated with MDTraj, t= 38.0
 65
    1UNL     C1    1  -0.067  -0.120   0.252
    1UNL     C2    2  -0.085  -0.127   0.122
    1UNL     C3    3  -0.168  -0.021   0.048
    1UNL     C4    4  -0.102   0.113   0.053
    1UNL     C5    5  -0.309  -0.014   0.111
    1UNL     C6    6  -0.396   0.096   0.036
    1UNL     C7    7  -0.430   0.080  -0.107
    1UNL     C8    8  -0.493  -0.022  -0.162
    1UNL     C9    9  -0.528  -0.149  -0.097
    1UNL     O1   10  -0.424  -0.236  -0.050
    1UNL     O2   11  -0.189  -0.057  -0.094
    1UNL    C10   12  -0.067  -0.106  -0.155
    1UNL     O3   13   0.059  -0.044  -0.110
    1UNL    C11   14   0.124   0.038  -0.204
    1UNL    C12   15   0.247   0.102  -0.149
    1UNL     O4   16   0.230   0.162  -0.025
    1UNL    C13   17   0.227   0.060   0.075
    1UNL     O5   18   0.143   0.089   0.190
    1UNL    C14   19   0.216   0.162   0.286
    1UNL    C15   20   0.365   0.136   0.260
    1UNL     O6   21   0.444   0.255   0.249
    1UNL    C16   22   0.430   0.058   0.386
    1UNL     O7   23   0.429   0.140   0.498
    1UNL    C17   24   0.372   0.041   0.134
    1UNL     O8   25   0.473   0.078   0.044
    1UNL    C18   26   0.162  -0.053  -0.327
    1UNL     O9   27   0.235  -0.170  -0.298
    1UNL    C19   28   0.025  -0.092  -0.401
    1UNL    O10   29   0.006  -0.031  -0.532
    1UNL    C20   30  -0.099  -0.081  -0.302
    1UNL    O11   31  -0.206  -0.162  -0.345
    1UNL     H1   32  -0.002  -0.193   0.303
    1UNL     H2   33  -0.111  -0.047   0.315
    1UNL     H3   34  -0.046  -0.210   0.079
    1UNL     H4   35  -0.097   0.161   0.150
    1UNL     H5   36  -0.004   0.122   0.005
    1UNL     H6   37  -0.175   0.186  -0.001
    1UNL     H7   38  -0.291   0.012   0.217
    1UNL     H8   39  -0.363  -0.112   0.104
    1UNL     H9   40  -0.350   0.190   0.053
    1UNL    H10   41  -0.493   0.115   0.082
    1UNL    H11   42  -0.396   0.152  -0.174
    1UNL    H12   43  -0.490  -0.027  -0.269
    1UNL    H13   44  -0.590  -0.132  -0.005
    1UNL    H14   45  -0.591  -0.206  -0.160
    1UNL    H15   46  -0.340  -0.221  -0.094
    1UNL    H16   47  -0.069  -0.214  -0.145
    1UNL    H17   48   0.046   0.111  -0.238
    1UNL    H18   49   0.331   0.025  -0.144
    1UNL    H19   50   0.283   0.191  -0.214
    1UNL    H20   51   0.202  -0.039   0.044
    1UNL    H21   52   0.193   0.264   0.266
    1UNL    H22   53   0.184   0.148   0.388
    1UNL    H23   54   0.446   0.279   0.341
    1UNL    H24   55   0.377  -0.032   0.406
    1UNL    H25   56   0.541   0.029   0.376
    1UNL    H26   57   0.428   0.080   0.577
    1UNL    H27   58   0.390  -0.062   0.163
    1UNL    H28   59   0.473   0.178   0.030
    1UNL    H29   60   0.237   0.006  -0.392
    1UNL    H30   61   0.200  -0.214  -0.214
    1UNL    H31   62   0.042  -0.193  -0.430
    1UNL    H32   63  -0.090   0.007  -0.538
    1UNL    H33   64  -0.130   0.022  -0.314
    1UNL    H34   65  -0.169  -0.253  -0.337
   0.00000   0.00000   0.00000   0.00000   0.00000   0.00000   0.00000   0.00000   0.00000
Generated with MDTraj, t= 39.0
 65
    1UNL     C1    1  -0.048  -0.107   0.240
    1UNL     C2    2  -0.099  -0.117   0.119
    1UNL     C3    3  -0.168  -0.013   0.040
    1UNL     C4    4  -0.098   0.126   0.040
    1UNL     C5    5  -0.298   0.010   0.118
    1UNL     C6    6  -0.398   0.108   0.056
    1UNL     C7    7  -0.436   0.081  -0.089
    1UNL     C8    8  -0.505  -0.024  -0.130
    1UNL     C9    9  -0.551  -0.138  -0.045
    1UNL     O1   10  -0.487  -0.263  -0.068
    1UNL     O2   11  -0.194  -0.055  -0.097
    1UNL    C10   12  -0.072  -0.094  -0.173
    1UNL     O3   13   0.054  -0.053  -0.121
    1UNL    C11   14   0.126   0.038  -0.210
    1UNL    C12   15   0.252   0.096  -0.142
    1UNL     O4   16   0.217   0.151  -0.013
    1UNL    C13   17   0.232   0.059   0.083
    1UNL     O5   18   0.149   0.078   0.193
    1UNL    C14   19   0.224   0.138   0.302
    1UNL    C15   20   0.374   0.128   0.266
    1UNL     O6   21   0.421   0.260   0.267
    1UNL    C16   22   0.450   0.059   0.380
    1UNL     O7   23   0.428   0.126   0.499
    1UNL    C17   24   0.378   0.054   0.134
    1UNL     O8   25   0.460   0.123   0.045
    1UNL    C18   26   0.162  -0.052  -0.334
    1UNL     O9   27   0.245  -0.155  -0.290
    1UNL    C19   28   0.044  -0.111  -0.418
    1UNL    O10   29   0.031  -0.062  -0.549
    1UNL    C20   30  -0.084  -0.083  -0.331
    1UNL    O11   31  -0.181  -0.171  -0.383
    1UNL     H1   32  -0.003  -0.185   0.295
    1UNL     H2   33  -0.069  -0.016   0.292
    1UNL     H3   34  -0.073  -0.210   0.058
    1UNL     H4   35  -0.073   0.158   0.145
    1UNL     H5   36  -0.005   0.117  -0.013
    1UNL     H6   37  -0.153   0.215   0.003
    1UNL     H7   38  -0.262   0.058   0.215
    1UNL     H8   39  -0.348  -0.085   0.138
    1UNL     H9   40  -0.362   0.208   0.061
    1UNL    H10   41  -0.482   0.116   0.125
    1UNL    H11   42  -0.403   0.152  -0.168
    1UNL    H12   43  -0.535  -0.027  -0.235
    1UNL    H13   44  -0.539  -0.114   0.062
    1UNL    H14   45  -0.656  -0.157  -0.055
    1UNL    H15   46  -0.403  -0.242  -0.104
    1UNL    H16   47  -0.074  -0.203  -0.169
    1UNL    H17   48   0.050   0.117  -0.242
    1UNL    H18   49   0.328   0.017  -0.124
    1UNL    H19   50   0.300   0.170  -0.213
    1UNL    H20   51   0.207  -0.041   0.047
    1UNL    H21   52   0.191   0.238   0.312
    1UNL    H22   53   0.197   0.092   0.399
    1UNL    H23   54   0.466   0.273   0.351
    1UNL    H24   55   0.424  -0.043   0.402
    1UNL    H25   56   0.563   0.069   0.358
    1UNL    H26   57   0.457   0.068   0.583
    1UNL    H27   58   0.409  -0.049   0.152
    1UNL    H28   59   0.451   0.224   0.054
    1UNL    H29   60   0.219   0.017  -0.403
    1UNL    H30   61   0.216  -0.184  -0.200
    1UNL    H31   62   0.056  -0.219  -0.424
    1UNL    H32   63  -0.041  -0.117  -0.589
    1UNL    H33   64  -0.133   0.015  -0.356
    1UNL    H34   65  -0.164  -0.261  -0.362
   0.00000   0.00000   0.00000   0.00000   0.00000   0.00000   0.00000   0.00000   0.00000
Generated with MDTraj, t= 40.0
 65
    1UNL     C1    1  -0.054  -0.132   0.221
    1UNL     C2    2  -0.074  -0.123   0.092
    1UNL     C3    3  -0.163  -0.013   0.028
    1UNL     C4    4  -0.101   0.126   0.044
    1UNL     C5    5  -0.307  -0.014   0.088
    1UNL     C6    6  -0.399   0.088   0.041
    1UNL     C7    7  -0.442   0.068  -0.102
    1UNL     C8    8  -0.539  -0.020  -0.135
    1UNL     C9    9  -0.595  -0.121  -0.045
    1UNL     O1   10  -0.505  -0.230  -0.049
    1UNL     O2   11  -0.172  -0.037  -0.110
    1UNL    C10   12  -0.065  -0.109  -0.174
    1UNL     O3   13   0.060  -0.066  -0.120
    1UNL    C11   14   0.123   0.034  -0.207
    1UNL    C12   15   0.241   0.104  -0.136
    1UNL     O4   16   0.200   0.146  -0.004
    1UNL    C13   17   0.234   0.051   0.094
    1UNL     O5   18   0.153   0.061   0.213
    1UNL    C14   19   0.227   0.151   0.303
    1UNL    C15   20   0.379   0.137   0.274
    1UNL     O6   21   0.433   0.264   0.273
    1UNL    C16   22   0.462   0.056   0.377
    1UNL     O7   23   0.456   0.125   0.500
    1UNL    C17   24   0.382   0.067   0.140
    1UNL     O8   25   0.460   0.146   0.048
    1UNL    C18   26   0.169  -0.045  -0.336
    1UNL     O9   27   0.279  -0.129  -0.293
    1UNL    C19   28   0.043  -0.122  -0.403
    1UNL    O10   29   0.026  -0.101  -0.545
    1UNL    C20   30  -0.087  -0.089  -0.324
    1UNL    O11   31  -0.200  -0.159  -0.371
    1UNL     H1   32  -0.014  -0.225   0.263
    1UNL     H2   33  -0.079  -0.045   0.286
    1UNL     H3   34  -0.030  -0.195   0.024
    1UNL     H4   35  -0.102   0.154   0.155
    1UNL     H5   36   0.004   0.123   0.005
    1UNL     H6   37  -0.161   0.200  -0.001
    1UNL     H7   38  -0.295  -0.005   0.203
    1UNL     H8   39  -0.338  -0.113   0.059
    1UNL     H9   40  -0.361   0.187   0.052
    1UNL    H10   41  -0.490   0.093   0.099
    1UNL    H11   42  -0.408   0.139  -0.172
    1UNL    H12   43  -0.575  -0.020  -0.237
    1UNL    H13   44  -0.602  -0.082   0.057
    1UNL    H14   45  -0.697  -0.149  -0.074
    1UNL    H15   46  -0.497  -0.244  -0.148
    1UNL    H16   47  -0.082  -0.217  -0.154
    1UNL    H17   48   0.039   0.109  -0.219
    1UNL    H18   49   0.327   0.039  -0.142
    1UNL    H19   50   0.266   0.197  -0.189
    1UNL    H20   51   0.208  -0.053   0.058
    1UNL    H21   52   0.201   0.251   0.277
    1UNL    H22   53   0.196   0.138   0.412
    1UNL    H23   54   0.482   0.287   0.360
    1UNL    H24   55   0.425  -0.045   0.382
    1UNL    H25   56   0.577   0.061   0.357
    1UNL    H26   57   0.506   0.085   0.577
    1UNL    H27   58   0.428  -0.031   0.160
    1UNL    H28   59   0.438   0.236   0.048
    1UNL    H29   60   0.209   0.028  -0.413
    1UNL    H30   61   0.263  -0.169  -0.208
    1UNL    H31   62   0.072  -0.229  -0.397
    1UNL    H32   63  -0.021  -0.021  -0.562
    1UNL    H33   64  -0.098   0.024  -0.320
    1UNL    H34   65  -0.191  -0.250  -0.346
   0.00000   0.00000   0.00000   0.00000   0.00000   0.00000   0.00000   0.00000   0.00000
Generated with MDTraj, t= 41.0
 65
    1UNL     C1    1  -0.104  -0.161   0.244
    1UNL     C2    2  -0.113  -0.143   0.114
    1UNL     C3    3  -0.171  -0.024   0.047
    1UNL     C4    4  -0.107   0.102   0.085
    1UNL     C5    5  -0.321  -0.025   0.100
    1UNL     C6    6  -0.418   0.079   0.048
    1UNL     C7    7  -0.434   0.060  -0.098
    1UNL     C8    8  -0.525  -0.015  -0.162
    1UNL     C9    9  -0.615  -0.115  -0.091
    1UNL     O1   10  -0.544  -0.198   0.000
    1UNL     O2   11  -0.187  -0.045  -0.103
    1UNL    C10   12  -0.074  -0.103  -0.179
    1UNL     O3   13   0.057  -0.062  -0.125
    1UNL    C11   14   0.126   0.035  -0.207
    1UNL    C12   15   0.241   0.100  -0.132
    1UNL     O4   16   0.202   0.145  -0.005
    1UNL    C13   17   0.231   0.053   0.101
    1UNL     O5   18   0.160   0.079   0.221
    1UNL    C14   19   0.242   0.164   0.304
    1UNL    C15   20   0.393   0.142   0.272
    1UNL     O6   21   0.463   0.267   0.257
    1UNL    C16   22   0.475   0.059   0.375
    1UNL     O7   23   0.475   0.135   0.499
    1UNL    C17   24   0.384   0.061   0.141
    1UNL     O8   25   0.458   0.140   0.046
    1UNL    C18   26   0.171  -0.022  -0.347
    1UNL     O9   27   0.296  -0.080  -0.341
    1UNL    C19   28   0.061  -0.126  -0.396
    1UNL    O10   29   0.048  -0.127  -0.538
    1UNL    C20   30  -0.078  -0.093  -0.332
    1UNL    O11   31  -0.182  -0.171  -0.394
    1UNL     H1   32  -0.040  -0.238   0.275
    1UNL     H2   33  -0.123  -0.086   0.313
    1UNL     H3   34  -0.079  -0.211   0.047
    1UNL     H4   35  -0.119   0.129   0.193
    1UNL     H5   36   0.002   0.096   0.060
    1UNL     H6   37  -0.160   0.177   0.031
    1UNL     H7   38  -0.319  -0.024   0.217
    1UNL     H8   39  -0.365  -0.117   0.062
    1UNL     H9   40  -0.380   0.179   0.066
    1UNL    H10   41  -0.514   0.070   0.096
    1UNL    H11   42  -0.358   0.107  -0.162
    1UNL    H12   43  -0.516  -0.029  -0.269
    1UNL    H13   44  -0.693  -0.068  -0.033
    1UNL    H14   45  -0.662  -0.175  -0.171
    1UNL    H15   46  -0.479  -0.261  -0.050
    1UNL    H16   47  -0.076  -0.217  -0.173
    1UNL    H17   48   0.049   0.116  -0.220
    1UNL    H18   49   0.314   0.026  -0.119
    1UNL    H19   50   0.282   0.172  -0.199
    1UNL    H20   51   0.194  -0.052   0.073
    1UNL    H21   52   0.201   0.259   0.270
    1UNL    H22   53   0.210   0.146   0.414
    1UNL    H23   54   0.480   0.307   0.343
    1UNL    H24   55   0.436  -0.039   0.397
    1UNL    H25   56   0.581   0.046   0.331
    1UNL    H26   57   0.531   0.097   0.562
    1UNL    H27   58   0.432  -0.038   0.155
    1UNL    H28   59   0.422   0.239   0.039
    1UNL    H29   60   0.171   0.064  -0.420
    1UNL    H30   61   0.292  -0.165  -0.295
    1UNL    H31   62   0.095  -0.229  -0.369
    1UNL    H32   63   0.061  -0.043  -0.575
    1UNL    H33   64  -0.108   0.016  -0.345
    1UNL    H34   65  -0.200  -0.157  -0.494
   0.00000   0.00000   0.00000   0.00000   0.00000   0.00000   0.00000   0.00000   0.00000
Generated with MDTraj, t= 42.0
 65
    1UNL     C1    1  -0.088  -0.184   0.230
    1UNL     C2    2  -0.105  -0.168   0.103
    1UNL     C3    3  -0.174  -0.044   0.050
    1UNL     C4    4  -0.095   0.075   0.085
    1UNL     C5    5  -0.319  -0.033   0.092
    1UNL     C6    6  -0.387   0.076   0.005
    1UNL     C7    7  -0.415   0.038  -0.142
    1UNL     C8    8  -0.514  -0.037  -0.197
    1UNL     C9    9  -0.625  -0.093  -0.117
    1UNL     O1   10  -0.599  -0.167   0.002
    1UNL     O2   11  -0.180  -0.055  -0.094
    1UNL    C10   12  -0.067  -0.105  -0.160
    1UNL     O3   13   0.061  -0.060  -0.113
    1UNL    C11   14   0.104   0.050  -0.189
    1UNL    C12   15   0.222   0.124  -0.114
    1UNL     O4   16   0.206   0.163   0.016
    1UNL    C13   17   0.231   0.062   0.109
    1UNL     O5   18   0.167   0.085   0.235
    1UNL    C14   19   0.250   0.174   0.307
    1UNL    C15   20   0.395   0.140   0.265
    1UNL     O6   21   0.481   0.252   0.235
    1UNL    C16   22   0.481   0.066   0.373
    1UNL     O7   23   0.485   0.156   0.482
    1UNL    C17   24   0.382   0.043   0.144
    1UNL     O8   25   0.463   0.103   0.042
    1UNL    C18   26   0.143   0.001  -0.338
    1UNL     O9   27   0.279  -0.028  -0.349
    1UNL    C19   28   0.052  -0.119  -0.379
    1UNL    O10   29   0.048  -0.117  -0.518
    1UNL    C20   30  -0.083  -0.104  -0.314
    1UNL    O11   31  -0.182  -0.190  -0.368
    1UNL     H1   32  -0.040  -0.279   0.268
    1UNL     H2   33  -0.109  -0.107   0.307
    1UNL     H3   34  -0.083  -0.248   0.028
    1UNL     H4   35  -0.088   0.095   0.191
    1UNL     H5   36   0.005   0.052   0.052
    1UNL     H6   37  -0.127   0.173   0.043
    1UNL     H7   38  -0.319   0.005   0.202
    1UNL     H8   39  -0.370  -0.127   0.074
    1UNL     H9   40  -0.331   0.169   0.007
    1UNL    H10   41  -0.481   0.094   0.053
    1UNL    H11   42  -0.330   0.055  -0.205
    1UNL    H12   43  -0.509  -0.064  -0.303
    1UNL    H13   44  -0.684  -0.008  -0.084
    1UNL    H14   45  -0.695  -0.159  -0.171
    1UNL    H15   46  -0.553  -0.254  -0.006
    1UNL    H16   47  -0.052  -0.218  -0.147
    1UNL    H17   48   0.023   0.125  -0.196
    1UNL    H18   49   0.301   0.056  -0.121
    1UNL    H19   50   0.251   0.210  -0.166
    1UNL    H20   51   0.189  -0.038   0.068
    1UNL    H21   52   0.213   0.271   0.274
    1UNL    H22   53   0.231   0.153   0.421
    1UNL    H23   54   0.482   0.311   0.311
    1UNL    H24   55   0.443  -0.031   0.400
    1UNL    H25   56   0.590   0.043   0.344
    1UNL    H26   57   0.539   0.115   0.553
    1UNL    H27   58   0.417  -0.063   0.158
    1UNL    H28   59   0.446   0.194   0.036
    1UNL    H29   60   0.123   0.087  -0.407
    1UNL    H30   61   0.303  -0.121  -0.326
    1UNL    H31   62   0.102  -0.216  -0.345
    1UNL    H32   63  -0.039  -0.095  -0.548
    1UNL    H33   64  -0.121   0.002  -0.339
    1UNL    H34   65  -0.183  -0.283  -0.327
   0.00000   0.00000   0.00000   0.00000   0.00000   0.00000   0.00000   0.00000   0.00000
Generated with MDTraj, t= 43.0
 65
    1UNL     C1    1  -0.063  -0.170   0.245
    1UNL     C2    2  -0.145  -0.175   0.142
    1UNL     C3    3  -0.187  -0.064   0.050
    1UNL     C4    4  -0.114   0.062   0.083
    1UNL     C5    5  -0.333  -0.032   0.088
    1UNL     C6    6  -0.404   0.065  -0.013
    1UNL     C7    7  -0.415   0.003  -0.151
    1UNL     C8    8  -0.527  -0.040  -0.208
    1UNL     C9    9  -0.648  -0.060  -0.128
    1UNL     O1   10  -0.637  -0.136  -0.007
    1UNL     O2   11  -0.169  -0.076  -0.087
    1UNL    C10   12  -0.051  -0.126  -0.146
    1UNL     O3   13   0.077  -0.065  -0.102
    1UNL    C11   14   0.118   0.052  -0.182
    1UNL    C12   15   0.235   0.132  -0.113
    1UNL     O4   16   0.209   0.158   0.020
    1UNL    C13   17   0.224   0.055   0.109
    1UNL     O5   18   0.163   0.080   0.246
    1UNL    C14   19   0.258   0.170   0.314
    1UNL    C15   20   0.396   0.135   0.260
    1UNL     O6   21   0.466   0.251   0.221
    1UNL    C16   22   0.491   0.072   0.363
    1UNL     O7   23   0.512   0.162   0.462
    1UNL    C17   24   0.376   0.036   0.142
    1UNL     O8   25   0.464   0.084   0.041
    1UNL    C18   26   0.142   0.030  -0.338
    1UNL     O9   27   0.274   0.016  -0.377
    1UNL    C19   28   0.060  -0.097  -0.379
    1UNL    O10   29   0.041  -0.090  -0.519
    1UNL    C20   30  -0.068  -0.120  -0.302
    1UNL    O11   31  -0.139  -0.228  -0.348
    1UNL     H1   32  -0.040  -0.249   0.309
    1UNL     H2   33  -0.030  -0.079   0.277
    1UNL     H3   34  -0.175  -0.279   0.113
    1UNL     H4   35  -0.137   0.087   0.182
    1UNL     H5   36  -0.010   0.060   0.067
    1UNL     H6   37  -0.154   0.154   0.029
    1UNL     H7   38  -0.330   0.005   0.195
    1UNL     H8   39  -0.381  -0.131   0.080
    1UNL     H9   40  -0.347   0.157  -0.023
    1UNL    H10   41  -0.501   0.095   0.020
    1UNL    H11   42  -0.327   0.005  -0.214
    1UNL    H12   43  -0.521  -0.061  -0.311
    1UNL    H13   44  -0.690   0.033  -0.092
    1UNL    H14   45  -0.728  -0.098  -0.194
    1UNL    H15   46  -0.614  -0.223  -0.034
    1UNL    H16   47  -0.037  -0.233  -0.111
    1UNL    H17   48   0.034   0.121  -0.186
    1UNL    H18   49   0.328   0.081  -0.115
    1UNL    H19   50   0.254   0.228  -0.158
    1UNL    H20   51   0.167  -0.037   0.069
    1UNL    H21   52   0.234   0.272   0.283
    1UNL    H22   53   0.246   0.158   0.430
    1UNL    H23   54   0.509   0.291   0.304
    1UNL    H24   55   0.461  -0.016   0.414
    1UNL    H25   56   0.588   0.046   0.311
    1UNL    H26   57   0.579   0.125   0.535
    1UNL    H27   58   0.394  -0.070   0.173
    1UNL    H28   59   0.486   0.184   0.056
    1UNL    H29   60   0.101   0.111  -0.399
    1UNL    H30   61   0.329  -0.038  -0.311
    1UNL    H31   62   0.123  -0.192  -0.366
    1UNL    H32   63  -0.060  -0.065  -0.536
    1UNL    H33   64  -0.130  -0.025  -0.316
    1UNL    H34   65  -0.080  -0.304  -0.361
   0.00000   0.00000   0.00000   0.00000   0.00000   0.00000   0.00000   0.00000   0.00000
Generated with MDTraj, t= 44.0
 65
    1UNL     C1    1  -0.020  -0.151   0.198
    1UNL     C2    2  -0.120  -0.163   0.114
    1UNL     C3    3  -0.186  -0.046   0.046
    1UNL     C4    4  -0.119   0.088   0.080
    1UNL     C5    5  -0.337  -0.043   0.079
    1UNL     C6    6  -0.417   0.044  -0.012
    1UNL     C7    7  -0.433  -0.006  -0.148
    1UNL     C8    8  -0.548  -0.033  -0.210
    1UNL     C9    9  -0.682  -0.040  -0.144
    1UNL     O1   10  -0.679  -0.099  -0.011
    1UNL     O2   11  -0.172  -0.059  -0.099
    1UNL    C10   12  -0.058  -0.130  -0.150
    1UNL     O3   13   0.074  -0.071  -0.104
    1UNL    C11   14   0.099   0.054  -0.167
    1UNL    C12   15   0.215   0.133  -0.106
    1UNL     O4   16   0.201   0.160   0.036
    1UNL    C13   17   0.232   0.057   0.115
    1UNL     O5   18   0.170   0.076   0.242
    1UNL    C14   19   0.265   0.141   0.326
    1UNL    C15   20   0.409   0.122   0.269
    1UNL     O6   21   0.451   0.252   0.229
    1UNL    C16   22   0.520   0.071   0.360
    1UNL     O7   23   0.538   0.169   0.457
    1UNL    C17   24   0.386   0.037   0.147
    1UNL     O8   25   0.463   0.083   0.037
    1UNL    C18   26   0.116   0.035  -0.321
    1UNL     O9   27   0.251   0.041  -0.346
    1UNL    C19   28   0.070  -0.102  -0.371
    1UNL    O10   29   0.058  -0.103  -0.516
    1UNL    C20   30  -0.060  -0.150  -0.308
    1UNL    O11   31  -0.083  -0.286  -0.332
    1UNL     H1   32   0.007  -0.238   0.262
    1UNL     H2   33   0.026  -0.054   0.226
    1UNL     H3   34  -0.171  -0.249   0.110
    1UNL     H4   35  -0.130   0.116   0.180
    1UNL     H5   36  -0.013   0.080   0.051
    1UNL     H6   37  -0.172   0.163   0.022
    1UNL     H7   38  -0.334  -0.014   0.186
    1UNL     H8   39  -0.375  -0.148   0.078
    1UNL     H9   40  -0.384   0.149  -0.014
    1UNL    H10   41  -0.513   0.049   0.033
    1UNL    H11   42  -0.347  -0.014  -0.215
    1UNL    H12   43  -0.548  -0.069  -0.317
    1UNL    H13   44  -0.713   0.063  -0.137
    1UNL    H14   45  -0.760  -0.090  -0.205
    1UNL    H15   46  -0.654  -0.195  -0.023
    1UNL    H16   47  -0.048  -0.237  -0.108
    1UNL    H17   48   0.013   0.117  -0.158
    1UNL    H18   49   0.311   0.085  -0.122
    1UNL    H19   50   0.227   0.236  -0.143
    1UNL    H20   51   0.185  -0.040   0.076
    1UNL    H21   52   0.235   0.244   0.335
    1UNL    H22   53   0.259   0.089   0.431
    1UNL    H23   54   0.507   0.293   0.294
    1UNL    H24   55   0.497  -0.023   0.401
    1UNL    H25   56   0.617   0.062   0.306
    1UNL    H26   57   0.603   0.147   0.533
    1UNL    H27   58   0.413  -0.066   0.180
    1UNL    H28   59   0.452   0.179   0.034
    1UNL    H29   60   0.059   0.108  -0.376
    1UNL    H30   61   0.275   0.070  -0.439
    1UNL    H31   62   0.153  -0.179  -0.346
    1UNL    H32   63  -0.035  -0.062  -0.533
    1UNL    H33   64  -0.148  -0.097  -0.356
    1UNL    H34   65  -0.003  -0.337  -0.337
   0.00000   0.00000   0.00000   0.00000   0.00000   0.00000   0.00000   0.00000   0.00000
Generated with MDTraj, t= 45.0
 65
    1UNL     C1    1  -0.014  -0.152   0.184
    1UNL     C2    2  -0.125  -0.162   0.115
    1UNL     C3    3  -0.186  -0.051   0.039
    1UNL     C4    4  -0.130   0.084   0.079
    1UNL     C5    5  -0.342  -0.060   0.068
    1UNL     C6    6  -0.424   0.034  -0.018
    1UNL     C7    7  -0.444  -0.015  -0.158
    1UNL     C8    8  -0.569  -0.037  -0.208
    1UNL     C9    9  -0.697   0.004  -0.145
    1UNL     O1   10  -0.722  -0.064  -0.022
    1UNL     O2   11  -0.165  -0.068  -0.105
    1UNL    C10   12  -0.044  -0.125  -0.144
    1UNL     O3   13   0.072  -0.067  -0.098
    1UNL    C11   14   0.092   0.056  -0.165
    1UNL    C12   15   0.213   0.119  -0.105
    1UNL     O4   16   0.186   0.137   0.042
    1UNL    C13   17   0.237   0.036   0.120
    1UNL     O5   18   0.183   0.050   0.257
    1UNL    C14   19   0.278   0.128   0.333
    1UNL    C15   20   0.419   0.135   0.261
    1UNL     O6   21   0.451   0.269   0.245
    1UNL    C16   22   0.536   0.073   0.343
    1UNL     O7   23   0.558   0.154   0.467
    1UNL    C17   24   0.394   0.053   0.135
    1UNL     O8   25   0.452   0.119   0.021
    1UNL    C18   26   0.103   0.047  -0.322
    1UNL     O9   27   0.228   0.104  -0.376
    1UNL    C19   28   0.085  -0.110  -0.354
    1UNL    O10   29   0.096  -0.144  -0.501
    1UNL    C20   30  -0.045  -0.161  -0.297
    1UNL    O11   31  -0.061  -0.300  -0.306
    1UNL     H1   32   0.021  -0.238   0.224
    1UNL     H2   33   0.045  -0.065   0.190
    1UNL     H3   34  -0.179  -0.261   0.090
    1UNL     H4   35  -0.150   0.102   0.184
    1UNL     H5   36  -0.021   0.081   0.061
    1UNL     H6   37  -0.175   0.159   0.027
    1UNL     H7   38  -0.366  -0.045   0.173
    1UNL     H8   39  -0.370  -0.169   0.048
    1UNL     H9   40  -0.372   0.130  -0.016
    1UNL    H10   41  -0.520   0.052   0.025
    1UNL    H11   42  -0.363  -0.056  -0.213
    1UNL    H12   43  -0.581  -0.077  -0.304
    1UNL    H13   44  -0.715   0.107  -0.121
    1UNL    H14   45  -0.780  -0.027  -0.210
    1UNL    H15   46  -0.750  -0.164  -0.025
    1UNL    H16   47  -0.041  -0.231  -0.099
    1UNL    H17   48   0.011   0.120  -0.141
    1UNL    H18   49   0.310   0.066  -0.119
    1UNL    H19   50   0.230   0.220  -0.151
    1UNL    H20   51   0.212  -0.061   0.069
    1UNL    H21   52   0.234   0.224   0.334
    1UNL    H22   53   0.278   0.092   0.443
    1UNL    H23   54   0.470   0.305   0.337
    1UNL    H24   55   0.521  -0.029   0.362
    1UNL    H25   56   0.629   0.078   0.284
    1UNL    H26   57   0.610   0.115   0.534
    1UNL    H27   58   0.438  -0.048   0.142
    1UNL    H28   59   0.409   0.207   0.012
    1UNL    H29   60   0.020   0.095  -0.367
    1UNL    H30   61   0.234   0.088  -0.472
    1UNL    H31   62   0.174  -0.153  -0.293
    1UNL    H32   63   0.017  -0.195  -0.525
    1UNL    H33   64  -0.135  -0.112  -0.342
    1UNL    H34   65   0.024  -0.335  -0.282
   0.00000   0.00000   0.00000   0.00000   0.00000   0.00000   0.00000   0.00000   0.00000
Generated with MDTraj, t= 46.0
 65
    1UNL     C1    1  -0.059  -0.187   0.220
    1UNL     C2    2  -0.161  -0.193   0.135
    1UNL     C3    3  -0.201  -0.078   0.042
    1UNL     C4    4  -0.127   0.051   0.085
    1UNL     C5    5  -0.350  -0.058   0.061
    1UNL     C6    6  -0.430   0.034  -0.028
    1UNL     C7    7  -0.463  -0.035  -0.157
    1UNL     C8    8  -0.583  -0.025  -0.216
    1UNL     C9    9  -0.701   0.037  -0.156
    1UNL     O1   10  -0.741  -0.025  -0.039
    1UNL     O2   11  -0.179  -0.107  -0.094
    1UNL    C10   12  -0.044  -0.153  -0.123
    1UNL     O3   13   0.066  -0.069  -0.082
    1UNL    C11   14   0.073   0.056  -0.161
    1UNL    C12   15   0.189   0.146  -0.112
    1UNL     O4   16   0.196   0.169   0.032
    1UNL    C13   17   0.264   0.057   0.090
    1UNL     O5   18   0.223   0.034   0.224
    1UNL    C14   19   0.292   0.112   0.314
    1UNL    C15   20   0.436   0.138   0.259
    1UNL     O6   21   0.463   0.276   0.263
    1UNL    C16   22   0.548   0.071   0.336
    1UNL     O7   23   0.553   0.139   0.462
    1UNL    C17   24   0.417   0.083   0.113
    1UNL     O8   25   0.461   0.172   0.013
    1UNL    C18   26   0.089   0.044  -0.314
    1UNL     O9   27   0.198   0.108  -0.377
    1UNL    C19   28   0.096  -0.105  -0.338
    1UNL    O10   29   0.137  -0.141  -0.472
    1UNL    C20   30  -0.026  -0.176  -0.280
    1UNL    O11   31  -0.038  -0.314  -0.315
    1UNL     H1   32  -0.033  -0.270   0.291
    1UNL     H2   33   0.021  -0.109   0.213
    1UNL     H3   34  -0.226  -0.274   0.122
    1UNL     H4   35  -0.157   0.085   0.185
    1UNL     H5   36  -0.022   0.035   0.083
    1UNL     H6   37  -0.139   0.136   0.025
    1UNL     H7   38  -0.373  -0.031   0.163
    1UNL     H8   39  -0.403  -0.160   0.048
    1UNL     H9   40  -0.374   0.127  -0.046
    1UNL    H10   41  -0.519   0.058   0.025
    1UNL    H11   42  -0.378  -0.074  -0.214
    1UNL    H12   43  -0.589  -0.064  -0.320
    1UNL    H13   44  -0.672   0.134  -0.121
    1UNL    H14   45  -0.790   0.054  -0.217
    1UNL    H15   46  -0.789  -0.107  -0.067
    1UNL    H16   47  -0.032  -0.259  -0.077
    1UNL    H17   48  -0.023   0.095  -0.139
    1UNL    H18   49   0.288   0.102  -0.151
    1UNL    H19   50   0.185   0.248  -0.162
    1UNL    H20   51   0.243  -0.034   0.030
    1UNL    H21   52   0.235   0.199   0.321
    1UNL    H22   53   0.294   0.065   0.417
    1UNL    H23   54   0.478   0.303   0.361
    1UNL    H24   55   0.540  -0.034   0.347
    1UNL    H25   56   0.646   0.088   0.290
    1UNL    H26   57   0.598   0.081   0.523
    1UNL    H27   58   0.479  -0.006   0.098
    1UNL    H28   59   0.420   0.263   0.041
    1UNL    H29   60   0.002   0.068  -0.366
    1UNL    H30   61   0.276   0.054  -0.369
    1UNL    H31   62   0.185  -0.128  -0.267
    1UNL    H32   63   0.072  -0.108  -0.529
    1UNL    H33   64  -0.120  -0.134  -0.322
    1UNL    H34   65   0.054  -0.342  -0.339
   0.00000   0.00000   0.00000   0.00000   0.00000   0.00000   0.00000   0.00000   0.00000
Generated with MDTraj, t= 47.0
 65
    1UNL     C1    1  -0.054  -0.231   0.199
    1UNL     C2    2  -0.161  -0.221   0.124
    1UNL     C3    3  -0.203  -0.093   0.052
    1UNL     C4    4  -0.128   0.026   0.116
    1UNL     C5    5  -0.355  -0.081   0.068
    1UNL     C6    6  -0.431   0.024  -0.026
    1UNL     C7    7  -0.454  -0.037  -0.160
    1UNL     C8    8  -0.565  -0.019  -0.231
    1UNL     C9    9  -0.679   0.067  -0.185
    1UNL     O1   10  -0.718   0.027  -0.055
    1UNL     O2   11  -0.174  -0.104  -0.088
    1UNL    C10   12  -0.041  -0.139  -0.113
    1UNL     O3   13   0.063  -0.041  -0.068
    1UNL    C11   14   0.059   0.074  -0.158
    1UNL    C12   15   0.173   0.170  -0.104
    1UNL     O4   16   0.183   0.176   0.034
    1UNL    C13   17   0.256   0.066   0.084
    1UNL     O5   18   0.223   0.018   0.222
    1UNL    C14   19   0.294   0.099   0.313
    1UNL    C15   20   0.428   0.145   0.244
    1UNL     O6   21   0.445   0.282   0.270
    1UNL    C16   22   0.553   0.077   0.309
    1UNL     O7   23   0.555   0.101   0.444
    1UNL    C17   24   0.404   0.106   0.089
    1UNL     O8   25   0.442   0.210   0.002
    1UNL    C18   26   0.086   0.032  -0.308
    1UNL     O9   27   0.196   0.089  -0.384
    1UNL    C19   28   0.104  -0.115  -0.315
    1UNL    O10   29   0.113  -0.147  -0.453
    1UNL    C20   30  -0.018  -0.184  -0.260
    1UNL    O11   31  -0.000  -0.322  -0.266
    1UNL     H1   32  -0.028  -0.326   0.236
    1UNL     H2   33   0.009  -0.156   0.220
    1UNL     H3   34  -0.220  -0.309   0.107
    1UNL     H4   35  -0.170   0.056   0.211
    1UNL     H5   36  -0.025   0.029   0.116
    1UNL     H6   37  -0.153   0.112   0.051
    1UNL     H7   38  -0.369  -0.060   0.172
    1UNL     H8   39  -0.413  -0.180   0.058
    1UNL     H9   40  -0.365   0.111  -0.036
    1UNL    H10   41  -0.522   0.054   0.020
    1UNL    H11   42  -0.374  -0.091  -0.206
    1UNL    H12   43  -0.571  -0.065  -0.325
    1UNL    H13   44  -0.658   0.170  -0.188
    1UNL    H14   45  -0.762   0.046  -0.253
    1UNL    H15   46  -0.748  -0.062  -0.060
    1UNL    H16   47  -0.022  -0.231  -0.045
    1UNL    H17   48  -0.037   0.116  -0.143
    1UNL    H18   49   0.277   0.148  -0.146
    1UNL    H19   50   0.151   0.274  -0.145
    1UNL    H20   51   0.235  -0.020   0.020
    1UNL    H21   52   0.242   0.184   0.342
    1UNL    H22   53   0.318   0.042   0.404
    1UNL    H23   54   0.472   0.287   0.362
    1UNL    H24   55   0.554  -0.028   0.298
    1UNL    H25   56   0.647   0.121   0.267
    1UNL    H26   57   0.628   0.043   0.488
    1UNL    H27   58   0.474   0.029   0.058
    1UNL    H28   59   0.426   0.286   0.052
    1UNL    H29   60   0.003   0.056  -0.366
    1UNL    H30   61   0.208   0.052  -0.477
    1UNL    H31   62   0.205  -0.143  -0.270
    1UNL    H32   63   0.033  -0.131  -0.502
    1UNL    H33   64  -0.107  -0.166  -0.322
    1UNL    H34   65   0.032  -0.339  -0.362
   0.00000   0.00000   0.00000   0.00000   0.00000   0.00000   0.00000   0.00000   0.00000
Generated with MDTraj, t= 48.0
 65
    1UNL     C1    1  -0.025  -0.253   0.180
    1UNL     C2    2  -0.144  -0.227   0.137
    1UNL     C3    3  -0.199  -0.098   0.073
    1UNL     C4    4  -0.128   0.020   0.145
    1UNL     C5    5  -0.355  -0.085   0.079
    1UNL     C6    6  -0.409   0.023  -0.016
    1UNL     C7    7  -0.421  -0.032  -0.154
    1UNL     C8    8  -0.525  -0.009  -0.236
    1UNL     C9    9  -0.630   0.093  -0.211
    1UNL     O1   10  -0.695   0.066  -0.087
    1UNL     O2   11  -0.161  -0.096  -0.074
    1UNL    C10   12  -0.035  -0.145  -0.106
    1UNL     O3   13   0.064  -0.047  -0.066
    1UNL    C11   14   0.059   0.060  -0.157
    1UNL    C12   15   0.141   0.179  -0.100
    1UNL     O4   16   0.145   0.175   0.037
    1UNL    C13   17   0.233   0.071   0.084
    1UNL     O5   18   0.196   0.028   0.216
    1UNL    C14   19   0.285   0.086   0.311
    1UNL    C15   20   0.414   0.137   0.239
    1UNL     O6   21   0.430   0.279   0.275
    1UNL    C16   22   0.548   0.066   0.274
    1UNL     O7   23   0.576   0.095   0.409
    1UNL    C17   24   0.377   0.121   0.088
    1UNL     O8   25   0.396   0.231   0.009
    1UNL    C18   26   0.080   0.029  -0.302
    1UNL     O9   27   0.192   0.091  -0.363
    1UNL    C19   28   0.096  -0.121  -0.324
    1UNL    O10   29   0.090  -0.156  -0.463
    1UNL    C20   30  -0.014  -0.198  -0.251
    1UNL    O11   31   0.027  -0.332  -0.250
    1UNL     H1   32   0.003  -0.350   0.231
    1UNL     H2   33   0.051  -0.170   0.184
    1UNL     H3   34  -0.215  -0.312   0.155
    1UNL     H4   35  -0.144   0.007   0.247
    1UNL     H5   36  -0.026   0.007   0.124
    1UNL     H6   37  -0.155   0.126   0.119
    1UNL     H7   38  -0.388  -0.069   0.180
    1UNL     H8   39  -0.402  -0.190   0.063
    1UNL     H9   40  -0.339   0.107  -0.010
    1UNL    H10   41  -0.506   0.058   0.012
    1UNL    H11   42  -0.349  -0.109  -0.179
    1UNL    H12   43  -0.536  -0.069  -0.328
    1UNL    H13   44  -0.580   0.182  -0.201
    1UNL    H14   45  -0.701   0.100  -0.293
    1UNL    H15   46  -0.741  -0.020  -0.068
    1UNL    H16   47  -0.013  -0.230  -0.031
    1UNL    H17   48  -0.044   0.092  -0.149
    1UNL    H18   49   0.245   0.171  -0.139
    1UNL    H19   50   0.104   0.279  -0.133
    1UNL    H20   51   0.232  -0.017   0.022
    1UNL    H21   52   0.248   0.170   0.359
    1UNL    H22   53   0.312   0.015   0.389
    1UNL    H23   54   0.488   0.277   0.353
    1UNL    H24   55   0.541  -0.040   0.265
    1UNL    H25   56   0.629   0.112   0.210
    1UNL    H26   57   0.667   0.060   0.446
    1UNL    H27   58   0.448   0.057   0.037
    1UNL    H28   59   0.371   0.308   0.075
    1UNL    H29   60  -0.002   0.065  -0.355
    1UNL    H30   61   0.197   0.072  -0.461
    1UNL    H31   62   0.194  -0.162  -0.289
    1UNL    H32   63  -0.003  -0.144  -0.499
    1UNL    H33   64  -0.111  -0.210  -0.298
    1UNL    H34   65   0.049  -0.362  -0.343
   0.00000   0.00000   0.00000   0.00000   0.00000   0.00000   0.00000   0.00000   0.00000
Generated with MDTraj, t= 49.0
 65
    1UNL     C1    1  -0.017  -0.236   0.234
    1UNL     C2    2  -0.136  -0.225   0.181
    1UNL     C3    3  -0.174  -0.116   0.073
    1UNL     C4    4  -0.108   0.018   0.107
    1UNL     C5    5  -0.334  -0.090   0.097
    1UNL     C6    6  -0.401   0.013   0.002
    1UNL     C7    7  -0.396  -0.026  -0.146
    1UNL     C8    8  -0.472   0.021  -0.243
    1UNL     C9    9  -0.563   0.126  -0.213
    1UNL     O1   10  -0.666   0.083  -0.124
    1UNL     O2   11  -0.161  -0.149  -0.069
    1UNL    C10   12  -0.034  -0.179  -0.111
    1UNL     O3   13   0.058  -0.075  -0.070
    1UNL    C11   14   0.033   0.043  -0.152
    1UNL    C12   15   0.111   0.167  -0.094
    1UNL     O4   16   0.124   0.162   0.047
    1UNL    C13   17   0.219   0.071   0.091
    1UNL     O5   18   0.190   0.036   0.220
    1UNL    C14   19   0.282   0.091   0.310
    1UNL    C15   20   0.412   0.144   0.236
    1UNL     O6   21   0.438   0.281   0.266
    1UNL    C16   22   0.540   0.068   0.263
    1UNL     O7   23   0.586   0.099   0.395
    1UNL    C17   24   0.360   0.133   0.089
    1UNL     O8   25   0.363   0.258   0.024
    1UNL    C18   26   0.059   0.029  -0.305
    1UNL     O9   27   0.172   0.115  -0.336
    1UNL    C19   28   0.086  -0.123  -0.338
    1UNL    O10   29   0.084  -0.148  -0.478
    1UNL    C20   30  -0.023  -0.209  -0.261
    1UNL    O11   31  -0.006  -0.346  -0.284
    1UNL     H1   32   0.007  -0.302   0.305
    1UNL     H2   33   0.057  -0.165   0.214
    1UNL     H3   34  -0.212  -0.278   0.224
    1UNL     H4   35  -0.134   0.052   0.201
    1UNL     H5   36   0.001  -0.006   0.107
    1UNL     H6   37  -0.126   0.098   0.037
    1UNL     H7   38  -0.358  -0.078   0.203
    1UNL     H8   39  -0.388  -0.191   0.090
    1UNL     H9   40  -0.353   0.109   0.009
    1UNL    H10   41  -0.503   0.027   0.035
    1UNL    H11   42  -0.321  -0.100  -0.170
    1UNL    H12   43  -0.456  -0.020  -0.339
    1UNL    H13   44  -0.509   0.204  -0.176
    1UNL    H14   45  -0.606   0.160  -0.307
    1UNL    H15   46  -0.701  -0.005  -0.165
    1UNL    H16   47   0.002  -0.264  -0.042
    1UNL    H17   48  -0.075   0.064  -0.148
    1UNL    H18   49   0.213   0.183  -0.129
    1UNL    H19   50   0.061   0.259  -0.120
    1UNL    H20   51   0.220  -0.023   0.038
    1UNL    H21   52   0.241   0.173   0.362
    1UNL    H22   53   0.307   0.017   0.386
    1UNL    H23   54   0.478   0.277   0.359
    1UNL    H24   55   0.519  -0.038   0.255
    1UNL    H25   56   0.619   0.102   0.188
    1UNL    H26   57   0.670   0.061   0.418
    1UNL    H27   58   0.422   0.076   0.022
    1UNL    H28   59   0.321   0.312   0.092
    1UNL    H29   60  -0.024   0.057  -0.360
    1UNL    H30   61   0.175   0.125  -0.431
    1UNL    H31   62   0.186  -0.143  -0.299
    1UNL    H32   63  -0.018  -0.155  -0.502
    1UNL    H33   64  -0.114  -0.176  -0.306
    1UNL    H34   65   0.021  -0.353  -0.376
   0.00000   0.00000   0.00000   0.00000   0.00000   0.00000   0.00000   0.00000   0.00000
Generated with MDTraj, t= 50.0
 65
    1UNL     C1    1  -0.008  -0.225   0.246
    1UNL     C2    2  -0.117  -0.237   0.169
    1UNL     C3    3  -0.178  -0.129   0.079
    1UNL     C4    4  -0.121   0.011   0.121
    1UNL     C5    5  -0.333  -0.139   0.090
    1UNL     C6    6  -0.418  -0.036   0.005
    1UNL     C7    7  -0.373  -0.027  -0.136
    1UNL     C8    8  -0.405   0.064  -0.229
    1UNL     C9    9  -0.516   0.163  -0.212
    1UNL     O1   10  -0.633   0.108  -0.154
    1UNL     O2   11  -0.158  -0.143  -0.066
    1UNL    C10   12  -0.033  -0.179  -0.105
    1UNL     O3   13   0.070  -0.080  -0.082
    1UNL    C11   14   0.034   0.037  -0.149
    1UNL    C12   15   0.116   0.153  -0.087
    1UNL     O4   16   0.117   0.143   0.057
    1UNL    C13   17   0.225   0.059   0.097
    1UNL     O5   18   0.212   0.020   0.236
    1UNL    C14   19   0.282   0.122   0.317
    1UNL    C15   20   0.407   0.169   0.234
    1UNL     O6   21   0.430   0.299   0.256
    1UNL    C16   22   0.532   0.085   0.253
    1UNL     O7   23   0.569   0.081   0.390
    1UNL    C17   24   0.358   0.147   0.089
    1UNL     O8   25   0.332   0.280   0.030
    1UNL    C18   26   0.050   0.022  -0.306
    1UNL     O9   27   0.150   0.105  -0.363
    1UNL    C19   28   0.065  -0.131  -0.337
    1UNL    O10   29   0.065  -0.152  -0.476
    1UNL    C20   30  -0.044  -0.204  -0.264
    1UNL    O11   31  -0.036  -0.346  -0.283
    1UNL     H1   32   0.022  -0.294   0.327
    1UNL     H2   33   0.073  -0.146   0.234
    1UNL     H3   34  -0.189  -0.322   0.189
    1UNL     H4   35  -0.150   0.051   0.216
    1UNL     H5   36  -0.010   0.018   0.119
    1UNL     H6   37  -0.156   0.083   0.055
    1UNL     H7   38  -0.357  -0.130   0.196
    1UNL     H8   39  -0.366  -0.243   0.072
    1UNL     H9   40  -0.413   0.052   0.064
    1UNL    H10   41  -0.523  -0.063   0.013
    1UNL    H11   42  -0.307  -0.103  -0.169
    1UNL    H12   43  -0.372   0.043  -0.330
    1UNL    H13   44  -0.486   0.229  -0.140
    1UNL    H14   45  -0.534   0.226  -0.302
    1UNL    H15   46  -0.666   0.036  -0.211
    1UNL    H16   47  -0.006  -0.282  -0.059
    1UNL    H17   48  -0.075   0.048  -0.128
    1UNL    H18   49   0.215   0.165  -0.121
    1UNL    H19   50   0.069   0.246  -0.099
    1UNL    H20   51   0.227  -0.032   0.042
    1UNL    H21   52   0.224   0.203   0.351
    1UNL    H22   53   0.325   0.078   0.408
    1UNL    H23   54   0.465   0.309   0.343
    1UNL    H24   55   0.523  -0.014   0.208
    1UNL    H25   56   0.613   0.143   0.196
    1UNL    H26   57   0.644   0.024   0.394
    1UNL    H27   58   0.434   0.102   0.028
    1UNL    H28   59   0.318   0.334   0.109
    1UNL    H29   60  -0.039   0.054  -0.350
    1UNL    H30   61   0.215   0.044  -0.400
    1UNL    H31   62   0.157  -0.165  -0.293
    1UNL    H32   63  -0.018  -0.109  -0.520
    1UNL    H33   64  -0.140  -0.181  -0.302
    1UNL    H34   65  -0.023  -0.372  -0.378
   0.00000   0.00000   0.00000   0.00000   0.00000   0.00000   0.00000   0.00000   0.00000
Generated with MDTraj, t= 51.0
 65
    1UNL     C1    1   0.002  -0.241   0.192
    1UNL     C2    2  -0.129  -0.248   0.168
    1UNL     C3    3  -0.196  -0.145   0.077
    1UNL     C4    4  -0.143  -0.007   0.125
    1UNL     C5    5  -0.345  -0.171   0.082
    1UNL     C6    6  -0.416  -0.054   0.011
    1UNL     C7    7  -0.382  -0.045  -0.135
    1UNL     C8    8  -0.392   0.069  -0.205
    1UNL     C9    9  -0.473   0.185  -0.161
    1UNL     O1   10  -0.614   0.162  -0.164
    1UNL     O2   11  -0.172  -0.161  -0.068
    1UNL    C10   12  -0.036  -0.188  -0.107
    1UNL     O3   13   0.060  -0.084  -0.072
    1UNL    C11   14   0.029   0.037  -0.143
    1UNL    C12   15   0.104   0.165  -0.099
    1UNL     O4   16   0.117   0.182   0.042
    1UNL    C13   17   0.213   0.092   0.092
    1UNL     O5   18   0.204   0.041   0.225
    1UNL    C14   19   0.286   0.116   0.315
    1UNL    C15   20   0.411   0.167   0.230
    1UNL     O6   21   0.423   0.304   0.268
    1UNL    C16   22   0.535   0.091   0.259
    1UNL     O7   23   0.564   0.107   0.400
    1UNL    C17   24   0.355   0.151   0.086
    1UNL     O8   25   0.358   0.281   0.027
    1UNL    C18   26   0.048   0.014  -0.299
    1UNL     O9   27   0.160   0.070  -0.357
    1UNL    C19   28   0.051  -0.135  -0.335
    1UNL    O10   29   0.040  -0.151  -0.473
    1UNL    C20   30  -0.039  -0.223  -0.263
    1UNL    O11   31   0.006  -0.359  -0.291
    1UNL     H1   32   0.051  -0.304   0.260
    1UNL     H2   33   0.068  -0.183   0.136
    1UNL     H3   34  -0.189  -0.325   0.209
    1UNL     H4   35  -0.176   0.011   0.228
    1UNL     H5   36  -0.041   0.007   0.121
    1UNL     H6   37  -0.184   0.069   0.064
    1UNL     H7   38  -0.376  -0.178   0.188
    1UNL     H8   39  -0.371  -0.267   0.042
    1UNL     H9   40  -0.387   0.031   0.067
    1UNL    H10   41  -0.521  -0.061   0.041
    1UNL    H11   42  -0.349  -0.140  -0.177
    1UNL    H12   43  -0.357   0.074  -0.308
    1UNL    H13   44  -0.443   0.227  -0.072
    1UNL    H14   45  -0.468   0.274  -0.233
    1UNL    H15   46  -0.658   0.150  -0.246
    1UNL    H16   47  -0.012  -0.280  -0.042
    1UNL    H17   48  -0.082   0.042  -0.131
    1UNL    H18   49   0.206   0.160  -0.127
    1UNL    H19   50   0.064   0.253  -0.141
    1UNL    H20   51   0.200   0.004   0.036
    1UNL    H21   52   0.233   0.202   0.347
    1UNL    H22   53   0.319   0.064   0.407
    1UNL    H23   54   0.476   0.314   0.349
    1UNL    H24   55   0.527  -0.013   0.226
    1UNL    H25   56   0.622   0.135   0.199
    1UNL    H26   57   0.644   0.047   0.421
    1UNL    H27   58   0.418   0.093   0.017
    1UNL    H28   59   0.296   0.337   0.089
    1UNL    H29   60  -0.032   0.064  -0.347
    1UNL    H30   61   0.199   0.002  -0.421
    1UNL    H31   62   0.149  -0.168  -0.311
    1UNL    H32   63  -0.036  -0.118  -0.518
    1UNL    H33   64  -0.138  -0.211  -0.298
    1UNL    H34   65   0.025  -0.372  -0.390
   0.00000   0.00000   0.00000   0.00000   0.00000   0.00000   0.00000   0.00000   0.00000
Generated with MDTraj, t= 52.0
 65
    1UNL     C1    1  -0.005  -0.270   0.187
    1UNL     C2    2  -0.131  -0.268   0.154
    1UNL     C3    3  -0.186  -0.154   0.065
    1UNL     C4    4  -0.129  -0.017   0.113
    1UNL     C5    5  -0.340  -0.168   0.085
    1UNL     C6    6  -0.426  -0.063   0.027
    1UNL     C7    7  -0.415  -0.053  -0.123
    1UNL     C8    8  -0.423   0.062  -0.188
    1UNL     C9    9  -0.451   0.199  -0.137
    1UNL     O1   10  -0.588   0.234  -0.129
    1UNL     O2   11  -0.167  -0.167  -0.073
    1UNL    C10   12  -0.026  -0.184  -0.107
    1UNL     O3   13   0.056  -0.075  -0.079
    1UNL    C11   14   0.034   0.046  -0.153
    1UNL    C12   15   0.109   0.163  -0.097
    1UNL     O4   16   0.113   0.168   0.041
    1UNL    C13   17   0.207   0.072   0.094
    1UNL     O5   18   0.187   0.033   0.227
    1UNL    C14   19   0.254   0.129   0.306
    1UNL    C15   20   0.390   0.171   0.232
    1UNL     O6   21   0.410   0.309   0.252
    1UNL    C16   22   0.511   0.085   0.279
    1UNL     O7   23   0.567   0.147   0.393
    1UNL    C17   24   0.349   0.137   0.085
    1UNL     O8   25   0.349   0.256   0.009
    1UNL    C18   26   0.055   0.017  -0.316
    1UNL     O9   27   0.168   0.095  -0.374
    1UNL    C19   28   0.073  -0.141  -0.340
    1UNL    O10   29   0.055  -0.170  -0.475
    1UNL    C20   30  -0.015  -0.227  -0.254
    1UNL    O11   31   0.034  -0.361  -0.272
    1UNL     H1   32   0.041  -0.352   0.247
    1UNL     H2   33   0.058  -0.201   0.137
    1UNL     H3   34  -0.195  -0.346   0.190
    1UNL     H4   35  -0.137  -0.016   0.220
    1UNL     H5   36  -0.030  -0.019   0.085
    1UNL     H6   37  -0.182   0.065   0.065
    1UNL     H7   38  -0.368  -0.192   0.191
    1UNL     H8   39  -0.366  -0.258   0.038
    1UNL     H9   40  -0.408   0.030   0.078
    1UNL    H10   41  -0.529  -0.089   0.054
    1UNL    H11   42  -0.381  -0.143  -0.169
    1UNL    H12   43  -0.395   0.055  -0.290
    1UNL    H13   44  -0.420   0.210  -0.040
    1UNL    H14   45  -0.389   0.275  -0.198
    1UNL    H15   46  -0.613   0.238  -0.225
    1UNL    H16   47   0.013  -0.267  -0.038
    1UNL    H17   48  -0.075   0.059  -0.138
    1UNL    H18   49   0.212   0.154  -0.134
    1UNL    H19   50   0.069   0.257  -0.130
    1UNL    H20   51   0.200  -0.013   0.033
    1UNL    H21   52   0.197   0.222   0.319
    1UNL    H22   53   0.267   0.079   0.405
    1UNL    H23   54   0.461   0.325   0.338
    1UNL    H24   55   0.488  -0.018   0.301
    1UNL    H25   56   0.594   0.082   0.200
    1UNL    H26   57   0.644   0.099   0.444
    1UNL    H27   58   0.424   0.078   0.028
    1UNL    H28   59   0.301   0.317   0.059
    1UNL    H29   60  -0.037   0.051  -0.361
    1UNL    H30   61   0.192   0.070  -0.469
    1UNL    H31   62   0.170  -0.171  -0.314
    1UNL    H32   63  -0.034  -0.155  -0.498
    1UNL    H33   64  -0.112  -0.229  -0.298
    1UNL    H34   65   0.042  -0.375  -0.371
   0.00000   0.00000   0.00000   0.00000   0.00000   0.00000   0.00000   0.00000   0.00000
Generated with MDTraj, t= 53.0
 65
    1UNL     C1    1  -0.020  -0.271   0.226
    1UNL     C2    2  -0.112  -0.267   0.133
    1UNL     C3    3  -0.176  -0.153   0.060
    1UNL     C4    4  -0.115  -0.024   0.121
    1UNL     C5    5  -0.328  -0.168   0.090
    1UNL     C6    6  -0.424  -0.057   0.044
    1UNL     C7    7  -0.410  -0.038  -0.102
    1UNL     C8    8  -0.429   0.069  -0.176
    1UNL     C9    9  -0.420   0.212  -0.136
    1UNL     O1   10  -0.536   0.260  -0.074
    1UNL     O2   11  -0.167  -0.163  -0.084
    1UNL    C10   12  -0.032  -0.199  -0.128
    1UNL     O3   13   0.059  -0.095  -0.094
    1UNL    C11   14   0.034   0.028  -0.161
    1UNL    C12   15   0.104   0.142  -0.101
    1UNL     O4   16   0.099   0.150   0.035
    1UNL    C13   17   0.197   0.065   0.096
    1UNL     O5   18   0.165   0.051   0.236
    1UNL    C14   19   0.252   0.127   0.316
    1UNL    C15   20   0.376   0.172   0.225
    1UNL     O6   21   0.384   0.313   0.224
    1UNL    C16   22   0.506   0.123   0.279
    1UNL     O7   23   0.521   0.162   0.410
    1UNL    C17   24   0.341   0.123   0.080
    1UNL     O8   25   0.356   0.213  -0.021
    1UNL    C18   26   0.046   0.013  -0.318
    1UNL     O9   27   0.131   0.114  -0.367
    1UNL    C19   28   0.095  -0.138  -0.343
    1UNL    O10   29   0.122  -0.162  -0.479
    1UNL    C20   30  -0.015  -0.229  -0.280
    1UNL    O11   31   0.019  -0.372  -0.284
    1UNL     H1   32   0.001  -0.367   0.274
    1UNL     H2   33   0.042  -0.186   0.241
    1UNL     H3   34  -0.162  -0.366   0.111
    1UNL     H4   35  -0.129  -0.022   0.223
    1UNL     H5   36  -0.004  -0.013   0.099
    1UNL     H6   37  -0.166   0.058   0.072
    1UNL     H7   38  -0.337  -0.193   0.199
    1UNL     H8   39  -0.360  -0.256   0.046
    1UNL     H9   40  -0.406   0.036   0.095
    1UNL    H10   41  -0.530  -0.078   0.061
    1UNL    H11   42  -0.380  -0.129  -0.157
    1UNL    H12   43  -0.430   0.053  -0.283
    1UNL    H13   44  -0.337   0.218  -0.071
    1UNL    H14   45  -0.407   0.277  -0.233
    1UNL    H15   46  -0.625   0.237  -0.123
    1UNL    H16   47  -0.000  -0.289  -0.064
    1UNL    H17   48  -0.071   0.051  -0.137
    1UNL    H18   49   0.213   0.128  -0.125
    1UNL    H19   50   0.073   0.236  -0.151
    1UNL    H20   51   0.181  -0.030   0.053
    1UNL    H21   52   0.201   0.217   0.358
    1UNL    H22   53   0.295   0.066   0.400
    1UNL    H23   54   0.421   0.348   0.305
    1UNL    H24   55   0.517   0.016   0.278
    1UNL    H25   56   0.596   0.160   0.221
    1UNL    H26   57   0.597   0.123   0.455
    1UNL    H27   58   0.416   0.047   0.049
    1UNL    H28   59   0.312   0.297   0.012
    1UNL    H29   60  -0.056   0.021  -0.355
    1UNL    H30   61   0.153   0.109  -0.461
    1UNL    H31   62   0.184  -0.161  -0.294
    1UNL    H32   63   0.039  -0.156  -0.528
    1UNL    H33   64  -0.108  -0.212  -0.333
    1UNL    H34   65   0.035  -0.401  -0.373
   0.00000   0.00000   0.00000   0.00000   0.00000   0.00000   0.00000   0.00000   0.00000
Generated with MDTraj, t= 54.0
 65
    1UNL     C1    1  -0.022  -0.267   0.231
    1UNL     C2    2  -0.130  -0.282   0.152
    1UNL     C3    3  -0.185  -0.167   0.067
    1UNL     C4    4  -0.124  -0.035   0.108
    1UNL     C5    5  -0.333  -0.173   0.077
    1UNL     C6    6  -0.408  -0.046   0.026
    1UNL     C7    7  -0.403  -0.027  -0.125
    1UNL     C8    8  -0.396   0.088  -0.190
    1UNL     C9    9  -0.391   0.223  -0.117
    1UNL     O1   10  -0.474   0.220   0.000
    1UNL     O2   11  -0.166  -0.188  -0.077
    1UNL    C10   12  -0.033  -0.199  -0.130
    1UNL     O3   13   0.042  -0.088  -0.089
    1UNL    C11   14   0.022   0.033  -0.163
    1UNL    C12   15   0.120   0.141  -0.115
    1UNL     O4   16   0.118   0.148   0.022
    1UNL    C13   17   0.200   0.058   0.086
    1UNL     O5   18   0.161   0.042   0.221
    1UNL    C14   19   0.240   0.130   0.300
    1UNL    C15   20   0.366   0.182   0.225
    1UNL     O6   21   0.362   0.323   0.217
    1UNL    C16   22   0.490   0.144   0.301
    1UNL     O7   23   0.497   0.208   0.425
    1UNL    C17   24   0.345   0.107   0.083
    1UNL     O8   25   0.379   0.188  -0.017
    1UNL    C18   26   0.043   0.014  -0.316
    1UNL     O9   27   0.131   0.104  -0.381
    1UNL    C19   28   0.081  -0.136  -0.345
    1UNL    O10   29   0.107  -0.160  -0.481
    1UNL    C20   30  -0.029  -0.224  -0.285
    1UNL    O11   31   0.007  -0.366  -0.304
    1UNL     H1   32  -0.004  -0.347   0.297
    1UNL     H2   33   0.043  -0.179   0.240
    1UNL     H3   34  -0.188  -0.366   0.159
    1UNL     H4   35  -0.127  -0.012   0.211
    1UNL     H5   36  -0.016  -0.024   0.089
    1UNL     H6   37  -0.171   0.048   0.053
    1UNL     H7   38  -0.360  -0.185   0.184
    1UNL     H8   39  -0.366  -0.260   0.028
    1UNL     H9   40  -0.372   0.049   0.065
    1UNL    H10   41  -0.512  -0.053   0.056
    1UNL    H11   42  -0.422  -0.115  -0.182
    1UNL    H12   43  -0.402   0.092  -0.296
    1UNL    H13   44  -0.293   0.242  -0.084
    1UNL    H14   45  -0.431   0.304  -0.192
    1UNL    H15   46  -0.568   0.192  -0.006
    1UNL    H16   47   0.011  -0.291  -0.079
    1UNL    H17   48  -0.070   0.083  -0.136
    1UNL    H18   49   0.224   0.119  -0.158
    1UNL    H19   50   0.097   0.245  -0.152
    1UNL    H20   51   0.186  -0.033   0.035
    1UNL    H21   52   0.175   0.221   0.320
    1UNL    H22   53   0.274   0.077   0.393
    1UNL    H23   54   0.400   0.359   0.301
    1UNL    H24   55   0.510   0.039   0.312
    1UNL    H25   56   0.583   0.174   0.246
    1UNL    H26   57   0.579   0.191   0.466
    1UNL    H27   58   0.410   0.017   0.070
    1UNL    H28   59   0.365   0.281   0.019
    1UNL    H29   60  -0.058   0.019  -0.366
    1UNL    H30   61   0.220   0.074  -0.366
    1UNL    H31   62   0.174  -0.146  -0.300
    1UNL    H32   63   0.036  -0.111  -0.535
    1UNL    H33   64  -0.127  -0.199  -0.328
    1UNL    H34   65   0.027  -0.393  -0.399
   0.00000   0.00000   0.00000   0.00000   0.00000   0.00000   0.00000   0.00000   0.00000
Generated with MDTraj, t= 55.0
 65
    1UNL     C1    1  -0.014  -0.274   0.186
    1UNL     C2    2  -0.127  -0.275   0.114
    1UNL     C3    3  -0.195  -0.162   0.048
    1UNL     C4    4  -0.158  -0.029   0.114
    1UNL     C5    5  -0.344  -0.183   0.065
    1UNL     C6    6  -0.428  -0.067   0.011
    1UNL     C7    7  -0.384  -0.019  -0.131
    1UNL     C8    8  -0.343   0.100  -0.165
    1UNL     C9    9  -0.391   0.220  -0.095
    1UNL     O1   10  -0.403   0.208   0.046
    1UNL     O2   11  -0.165  -0.151  -0.090
    1UNL    C10   12  -0.030  -0.186  -0.121
    1UNL     O3   13   0.064  -0.093  -0.094
    1UNL    C11   14   0.042   0.027  -0.167
    1UNL    C12   15   0.137   0.141  -0.122
    1UNL     O4   16   0.130   0.153   0.019
    1UNL    C13   17   0.208   0.051   0.089
    1UNL     O5   18   0.165   0.023   0.223
    1UNL    C14   19   0.215   0.132   0.306
    1UNL    C15   20   0.352   0.189   0.243
    1UNL     O6   21   0.342   0.321   0.214
    1UNL    C16   22   0.478   0.163   0.320
    1UNL     O7   23   0.480   0.252   0.430
    1UNL    C17   24   0.357   0.114   0.107
    1UNL     O8   25   0.391   0.186  -0.011
    1UNL    C18   26   0.039  -0.002  -0.322
    1UNL     O9   27   0.132   0.069  -0.403
    1UNL    C19   28   0.062  -0.149  -0.353
    1UNL    O10   29   0.033  -0.169  -0.487
    1UNL    C20   30  -0.030  -0.232  -0.267
    1UNL    O11   31   0.005  -0.368  -0.301
    1UNL     H1   32   0.023  -0.363   0.231
    1UNL     H2   33   0.050  -0.187   0.211
    1UNL     H3   34  -0.184  -0.374   0.105
    1UNL     H4   35  -0.166  -0.036   0.224
    1UNL     H5   36  -0.057  -0.009   0.108
    1UNL     H6   37  -0.217   0.057   0.080
    1UNL     H7   38  -0.376  -0.201   0.169
    1UNL     H8   39  -0.371  -0.264   0.000
    1UNL     H9   40  -0.423   0.017   0.081
    1UNL    H10   41  -0.531  -0.097   0.002
    1UNL    H11   42  -0.375  -0.102  -0.201
    1UNL    H12   43  -0.292   0.116  -0.261
    1UNL    H13   44  -0.327   0.302  -0.116
    1UNL    H14   45  -0.502   0.240  -0.131
    1UNL    H15   46  -0.459   0.281   0.067
    1UNL    H16   47  -0.002  -0.280  -0.065
    1UNL    H17   48  -0.052   0.064  -0.130
    1UNL    H18   49   0.246   0.128  -0.158
    1UNL    H19   50   0.109   0.241  -0.170
    1UNL    H20   51   0.203  -0.035   0.028
    1UNL    H21   52   0.133   0.212   0.303
    1UNL    H22   53   0.237   0.091   0.408
    1UNL    H23   54   0.367   0.372   0.296
    1UNL    H24   55   0.488   0.061   0.346
    1UNL    H25   56   0.571   0.180   0.261
    1UNL    H26   57   0.570   0.253   0.474
    1UNL    H27   58   0.433   0.033   0.112
    1UNL    H28   59   0.340   0.266  -0.007
    1UNL    H29   60  -0.064   0.012  -0.370
    1UNL    H30   61   0.225   0.054  -0.371
    1UNL    H31   62   0.164  -0.168  -0.340
    1UNL    H32   63   0.098  -0.120  -0.552
    1UNL    H33   64  -0.136  -0.218  -0.302
    1UNL    H34   65  -0.004  -0.385  -0.401
   0.00000   0.00000   0.00000   0.00000   0.00000   0.00000   0.00000   0.00000   0.00000
Generated with MDTraj, t= 56.0
 65
    1UNL     C1    1   0.009  -0.278   0.155
    1UNL     C2    2  -0.121  -0.271   0.129
    1UNL     C3    3  -0.189  -0.164   0.046
    1UNL     C4    4  -0.153  -0.027   0.103
    1UNL     C5    5  -0.348  -0.166   0.059
    1UNL     C6    6  -0.432  -0.052   0.001
    1UNL     C7    7  -0.389   0.001  -0.134
    1UNL     C8    8  -0.371   0.127  -0.163
    1UNL     C9    9  -0.391   0.234  -0.060
    1UNL     O1   10  -0.324   0.204   0.070
    1UNL     O2   11  -0.159  -0.163  -0.090
    1UNL    C10   12  -0.027  -0.219  -0.128
    1UNL     O3   13   0.080  -0.124  -0.100
    1UNL    C11   14   0.052   0.005  -0.168
    1UNL    C12   15   0.147   0.112  -0.128
    1UNL     O4   16   0.132   0.152   0.010
    1UNL    C13   17   0.197   0.063   0.095
    1UNL     O5   18   0.152   0.044   0.226
    1UNL    C14   19   0.226   0.129   0.316
    1UNL    C15   20   0.350   0.195   0.244
    1UNL     O6   21   0.318   0.335   0.216
    1UNL    C16   22   0.474   0.189   0.329
    1UNL     O7   23   0.450   0.270   0.450
    1UNL    C17   24   0.347   0.112   0.111
    1UNL     O8   25   0.382   0.191   0.007
    1UNL    C18   26   0.045  -0.012  -0.327
    1UNL     O9   27   0.137   0.055  -0.404
    1UNL    C19   28   0.052  -0.159  -0.377
    1UNL    O10   29   0.002  -0.158  -0.500
    1UNL    C20   30  -0.037  -0.251  -0.285
    1UNL    O11   31   0.004  -0.382  -0.313
    1UNL     H1   32   0.052  -0.354   0.220
    1UNL     H2   33   0.080  -0.208   0.123
    1UNL     H3   34  -0.179  -0.354   0.164
    1UNL     H4   35  -0.203  -0.005   0.203
    1UNL     H5   36  -0.052  -0.026   0.122
    1UNL     H6   37  -0.189   0.040   0.028
    1UNL     H7   38  -0.366  -0.173   0.165
    1UNL     H8   39  -0.384  -0.256   0.009
    1UNL     H9   40  -0.435   0.032   0.072
    1UNL    H10   41  -0.536  -0.080  -0.006
    1UNL    H11   42  -0.345  -0.076  -0.195
    1UNL    H12   43  -0.319   0.160  -0.249
    1UNL    H13   44  -0.359   0.334  -0.085
    1UNL    H14   45  -0.506   0.226  -0.035
    1UNL    H15   46  -0.230   0.243   0.062
    1UNL    H16   47  -0.015  -0.314  -0.070
    1UNL    H17   48  -0.048   0.030  -0.132
    1UNL    H18   49   0.251   0.068  -0.142
    1UNL    H19   50   0.144   0.203  -0.191
    1UNL    H20   51   0.182  -0.033   0.050
    1UNL    H21   52   0.149   0.210   0.345
    1UNL    H22   53   0.254   0.060   0.401
    1UNL    H23   54   0.327   0.386   0.298
    1UNL    H24   55   0.500   0.090   0.353
    1UNL    H25   56   0.555   0.228   0.266
    1UNL    H26   57   0.536   0.289   0.507
    1UNL    H27   58   0.415   0.027   0.120
    1UNL    H28   59   0.312   0.270   0.012
    1UNL    H29   60  -0.056   0.030  -0.363
    1UNL    H30   61   0.235   0.034  -0.385
    1UNL    H31   62   0.153  -0.191  -0.369
    1UNL    H32   63   0.048  -0.110  -0.572
    1UNL    H33   64  -0.144  -0.234  -0.319
    1UNL    H34   65  -0.016  -0.403  -0.407
   0.00000   0.00000   0.00000   0.00000   0.00000   0.00000   0.00000   0.00000   0.00000
Generated with MDTraj, t= 57.0
 65
    1UNL     C1    1   0.009  -0.296   0.174
    1UNL     C2    2  -0.104  -0.301   0.107
    1UNL     C3    3  -0.178  -0.183   0.049
    1UNL     C4    4  -0.117  -0.050   0.098
    1UNL     C5    5  -0.334  -0.177   0.074
    1UNL     C6    6  -0.408  -0.045   0.035
    1UNL     C7    7  -0.373   0.027  -0.097
    1UNL     C8    8  -0.370   0.152  -0.128
    1UNL     C9    9  -0.390   0.262  -0.030
    1UNL     O1   10  -0.270   0.286   0.047
    1UNL     O2   11  -0.168  -0.194  -0.102
    1UNL    C10   12  -0.039  -0.223  -0.153
    1UNL     O3   13   0.064  -0.133  -0.119
    1UNL    C11   14   0.044  -0.006  -0.180
    1UNL    C12   15   0.135   0.097  -0.126
    1UNL     O4   16   0.112   0.122   0.009
    1UNL    C13   17   0.201   0.051   0.095
    1UNL     O5   18   0.151   0.030   0.234
    1UNL    C14   19   0.192   0.143   0.319
    1UNL    C15   20   0.320   0.204   0.252
    1UNL     O6   21   0.306   0.343   0.217
    1UNL    C16   22   0.445   0.200   0.337
    1UNL     O7   23   0.438   0.286   0.449
    1UNL    C17   24   0.344   0.124   0.117
    1UNL     O8   25   0.379   0.204   0.010
    1UNL    C18   26   0.046  -0.013  -0.342
    1UNL     O9   27   0.148   0.071  -0.395
    1UNL    C19   28   0.051  -0.165  -0.398
    1UNL    O10   29   0.026  -0.182  -0.531
    1UNL    C20   30  -0.039  -0.256  -0.303
    1UNL    O11   31  -0.010  -0.392  -0.314
    1UNL     H1   32   0.053  -0.392   0.212
    1UNL     H2   33   0.063  -0.207   0.190
    1UNL     H3   34  -0.136  -0.400   0.087
    1UNL     H4   35  -0.142  -0.038   0.204
    1UNL     H5   36  -0.005  -0.046   0.090
    1UNL     H6   37  -0.167   0.023   0.041
    1UNL     H7   38  -0.342  -0.194   0.177
    1UNL     H8   39  -0.368  -0.270   0.024
    1UNL     H9   40  -0.402   0.033   0.114
    1UNL    H10   41  -0.514  -0.065   0.044
    1UNL    H11   42  -0.356  -0.043  -0.178
    1UNL    H12   43  -0.347   0.191  -0.228
    1UNL    H13   44  -0.409   0.356  -0.080
    1UNL    H14   45  -0.465   0.234   0.058
    1UNL    H15   46  -0.188   0.291  -0.014
    1UNL    H16   47  -0.010  -0.322  -0.109
    1UNL    H17   48  -0.062   0.013  -0.155
    1UNL    H18   49   0.243   0.073  -0.143
    1UNL    H19   50   0.112   0.190  -0.176
    1UNL    H20   51   0.211  -0.047   0.050
    1UNL    H21   52   0.108   0.223   0.320
    1UNL    H22   53   0.213   0.099   0.418
    1UNL    H23   54   0.327   0.398   0.300
    1UNL    H24   55   0.459   0.099   0.362
    1UNL    H25   56   0.528   0.242   0.277
    1UNL    H26   57   0.518   0.282   0.508
    1UNL    H27   58   0.425   0.054   0.133
    1UNL    H28   59   0.332   0.283   0.026
    1UNL    H29   60  -0.060   0.021  -0.377
    1UNL    H30   61   0.237   0.028  -0.374
    1UNL    H31   62   0.154  -0.192  -0.383
    1UNL    H32   63  -0.000  -0.103  -0.572
    1UNL    H33   64  -0.145  -0.245  -0.346
    1UNL    H34   65  -0.029  -0.417  -0.403
   0.00000   0.00000   0.00000   0.00000   0.00000   0.00000   0.00000   0.00000   0.00000
Generated with MDTraj, t= 58.0
 65
    1UNL     C1    1  -0.029  -0.348   0.177
    1UNL     C2    2  -0.134  -0.319   0.103
    1UNL     C3    3  -0.169  -0.179   0.053
    1UNL     C4    4  -0.076  -0.068   0.097
    1UNL     C5    5  -0.313  -0.155   0.107
    1UNL     C6    6  -0.365  -0.017   0.079
    1UNL     C7    7  -0.345   0.022  -0.065
    1UNL     C8    8  -0.355   0.146  -0.097
    1UNL     C9    9  -0.375   0.268  -0.012
    1UNL     O1   10  -0.248   0.308   0.034
    1UNL     O2   11  -0.165  -0.196  -0.094
    1UNL    C10   12  -0.040  -0.222  -0.154
    1UNL     O3   13   0.072  -0.133  -0.122
    1UNL    C11   14   0.051  -0.007  -0.186
    1UNL    C12   15   0.132   0.104  -0.129
    1UNL     O4   16   0.108   0.112   0.009
    1UNL    C13   17   0.202   0.045   0.086
    1UNL     O5   18   0.147   0.021   0.216
    1UNL    C14   19   0.174   0.135   0.290
    1UNL    C15   20   0.304   0.208   0.234
    1UNL     O6   21   0.285   0.347   0.206
    1UNL    C16   22   0.419   0.200   0.337
    1UNL     O7   23   0.396   0.284   0.442
    1UNL    C17   24   0.332   0.133   0.102
    1UNL     O8   25   0.345   0.221   0.000
    1UNL    C18   26   0.056  -0.018  -0.342
    1UNL     O9   27   0.156   0.076  -0.392
    1UNL    C19   28   0.066  -0.168  -0.386
    1UNL    O10   29   0.079  -0.199  -0.524
    1UNL    C20   30  -0.051  -0.239  -0.309
    1UNL    O11   31  -0.044  -0.381  -0.338
    1UNL     H1   32  -0.003  -0.449   0.192
    1UNL     H2   33   0.046  -0.275   0.203
    1UNL     H3   34  -0.201  -0.407   0.073
    1UNL     H4   35  -0.073  -0.064   0.203
    1UNL     H5   36   0.033  -0.096   0.082
    1UNL     H6   37  -0.083   0.034   0.054
    1UNL     H7   38  -0.311  -0.177   0.208
    1UNL     H8   39  -0.378  -0.229   0.052
    1UNL     H9   40  -0.308   0.055   0.143
    1UNL    H10   41  -0.468  -0.002   0.106
    1UNL    H11   42  -0.343  -0.059  -0.138
    1UNL    H12   43  -0.345   0.170  -0.200
    1UNL    H13   44  -0.410   0.360  -0.064
    1UNL    H14   45  -0.431   0.240   0.089
    1UNL    H15   46  -0.193   0.323  -0.046
    1UNL    H16   47  -0.012  -0.322  -0.115
    1UNL    H17   48  -0.057   0.020  -0.166
    1UNL    H18   49   0.238   0.081  -0.139
    1UNL    H19   50   0.108   0.200  -0.166
    1UNL    H20   51   0.225  -0.053   0.040
    1UNL    H21   52   0.075   0.192   0.281
    1UNL    H22   53   0.195   0.096   0.388
    1UNL    H23   54   0.301   0.395   0.288
    1UNL    H24   55   0.426   0.102   0.375
    1UNL    H25   56   0.509   0.234   0.279
    1UNL    H26   57   0.452   0.259   0.511
    1UNL    H27   58   0.419   0.068   0.097
    1UNL    H28   59   0.274   0.295   0.024
    1UNL    H29   60  -0.042   0.028  -0.385
    1UNL    H30   61   0.246   0.041  -0.382
    1UNL    H31   62   0.162  -0.207  -0.344
    1UNL    H32   63   0.093  -0.120  -0.588
    1UNL    H33   64  -0.155  -0.205  -0.340
    1UNL    H34   65  -0.007  -0.405  -0.427
   0.00000   0.00000   0.00000   0.00000   0.00000   0.00000   0.00000   0.00000   0.00000
Generated with MDTraj, t= 59.0
 65
    1UNL     C1    1  -0.062  -0.414   0.168
    1UNL     C2    2  -0.154  -0.357   0.091
    1UNL     C3    3  -0.160  -0.210   0.052
    1UNL     C4    4  -0.054  -0.119   0.119
    1UNL     C5    5  -0.303  -0.154   0.097
    1UNL     C6    6  -0.325  -0.000   0.080
    1UNL     C7    7  -0.333   0.038  -0.064
    1UNL     C8    8  -0.357   0.157  -0.105
    1UNL     C9    9  -0.348   0.283  -0.027
    1UNL     O1   10  -0.234   0.295   0.062
    1UNL     O2   11  -0.153  -0.192  -0.087
    1UNL    C10   12  -0.032  -0.217  -0.145
    1UNL     O3   13   0.069  -0.109  -0.119
    1UNL    C11   14   0.043   0.012  -0.195
    1UNL    C12   15   0.116   0.136  -0.136
    1UNL     O4   16   0.106   0.144   0.006
    1UNL    C13   17   0.203   0.063   0.074
    1UNL     O5   18   0.154   0.018   0.205
    1UNL    C14   19   0.191   0.126   0.290
    1UNL    C15   20   0.296   0.222   0.231
    1UNL     O6   21   0.244   0.350   0.200
    1UNL    C16   22   0.421   0.236   0.327
    1UNL     O7   23   0.372   0.260   0.456
    1UNL    C17   24   0.331   0.152   0.093
    1UNL     O8   25   0.347   0.248  -0.003
    1UNL    C18   26   0.062  -0.017  -0.348
    1UNL     O9   27   0.193   0.018  -0.397
    1UNL    C19   28   0.052  -0.168  -0.373
    1UNL    O10   29   0.058  -0.209  -0.510
    1UNL    C20   30  -0.061  -0.232  -0.294
    1UNL    O11   31  -0.066  -0.372  -0.336
    1UNL     H1   32  -0.044  -0.519   0.168
    1UNL     H2   33   0.012  -0.351   0.224
    1UNL     H3   34  -0.221  -0.409   0.034
    1UNL     H4   35  -0.054  -0.106   0.226
    1UNL     H5   36   0.045  -0.156   0.103
    1UNL     H6   37  -0.042  -0.020   0.063
    1UNL     H7   38  -0.321  -0.174   0.198
    1UNL     H8   39  -0.382  -0.199   0.033
    1UNL     H9   40  -0.242   0.058   0.127
    1UNL    H10   41  -0.422   0.026   0.119
    1UNL    H11   42  -0.323  -0.045  -0.130
    1UNL    H12   43  -0.385   0.176  -0.208
    1UNL    H13   44  -0.335   0.370  -0.098
    1UNL    H14   45  -0.440   0.288   0.048
    1UNL    H15   46  -0.165   0.239   0.032
    1UNL    H16   47   0.007  -0.307  -0.097
    1UNL    H17   48  -0.067   0.041  -0.179
    1UNL    H18   49   0.222   0.122  -0.150
    1UNL    H19   50   0.087   0.228  -0.176
    1UNL    H20   51   0.223  -0.028   0.010
    1UNL    H21   52   0.095   0.184   0.293
    1UNL    H22   53   0.224   0.084   0.381
    1UNL    H23   54   0.244   0.407   0.279
    1UNL    H24   55   0.475   0.144   0.321
    1UNL    H25   56   0.480   0.329   0.297
    1UNL    H26   57   0.444   0.240   0.516
    1UNL    H27   58   0.420   0.092   0.094
    1UNL    H28   59   0.283   0.312   0.018
    1UNL    H29   60  -0.020   0.030  -0.415
    1UNL    H30   61   0.255  -0.034  -0.348
    1UNL    H31   62   0.152  -0.208  -0.337
    1UNL    H32   63   0.116  -0.145  -0.567
    1UNL    H33   64  -0.153  -0.175  -0.327
    1UNL    H34   65  -0.026  -0.388  -0.426
   0.00000   0.00000   0.00000   0.00000   0.00000   0.00000   0.00000   0.00000   0.00000
Generated with MDTraj, t= 60.0
 65
    1UNL     C1    1  -0.137  -0.450   0.145
    1UNL     C2    2  -0.184  -0.363   0.056
    1UNL     C3    3  -0.169  -0.211   0.061
    1UNL     C4    4  -0.042  -0.167   0.140
    1UNL     C5    5  -0.298  -0.154   0.126
    1UNL     C6    6  -0.309  -0.001   0.090
    1UNL     C7    7  -0.309   0.033  -0.059
    1UNL     C8    8  -0.298   0.151  -0.115
    1UNL     C9    9  -0.289   0.276  -0.030
    1UNL     O1   10  -0.214   0.252   0.097
    1UNL     O2   11  -0.149  -0.169  -0.080
    1UNL    C10   12  -0.028  -0.207  -0.142
    1UNL     O3   13   0.076  -0.103  -0.124
    1UNL    C11   14   0.047   0.009  -0.203
    1UNL    C12   15   0.115   0.138  -0.151
    1UNL     O4   16   0.088   0.157  -0.014
    1UNL    C13   17   0.190   0.087   0.060
    1UNL     O5   18   0.152   0.025   0.189
    1UNL    C14   19   0.181   0.121   0.292
    1UNL    C15   20   0.286   0.221   0.235
    1UNL     O6   21   0.225   0.351   0.229
    1UNL    C16   22   0.416   0.237   0.307
    1UNL     O7   23   0.382   0.294   0.437
    1UNL    C17   24   0.313   0.180   0.087
    1UNL     O8   25   0.314   0.290  -0.001
    1UNL    C18   26   0.080  -0.023  -0.348
    1UNL     O9   27   0.223  -0.024  -0.375
    1UNL    C19   28   0.048  -0.172  -0.380
    1UNL    O10   29   0.025  -0.185  -0.517
    1UNL    C20   30  -0.056  -0.234  -0.291
    1UNL    O11   31  -0.059  -0.377  -0.323
    1UNL     H1   32  -0.175  -0.548   0.140
    1UNL     H2   33  -0.075  -0.422   0.224
    1UNL     H3   34  -0.250  -0.393  -0.029
    1UNL     H4   35  -0.060  -0.179   0.248
    1UNL     H5   36   0.044  -0.211   0.107
    1UNL     H6   37  -0.032  -0.059   0.105
    1UNL     H7   38  -0.293  -0.161   0.233
    1UNL     H8   39  -0.383  -0.217   0.094
    1UNL     H9   40  -0.222   0.057   0.131
    1UNL    H10   41  -0.402   0.039   0.126
    1UNL    H11   42  -0.308  -0.057  -0.122
    1UNL    H12   43  -0.298   0.169  -0.221
    1UNL    H13   44  -0.232   0.350  -0.092
    1UNL    H14   45  -0.401   0.301   0.001
    1UNL    H15   46  -0.119   0.261   0.081
    1UNL    H16   47  -0.005  -0.300  -0.094
    1UNL    H17   48  -0.061   0.034  -0.178
    1UNL    H18   49   0.221   0.141  -0.168
    1UNL    H19   50   0.071   0.220  -0.200
    1UNL    H20   51   0.218   0.001  -0.010
    1UNL    H21   52   0.086   0.172   0.315
    1UNL    H22   53   0.223   0.074   0.373
    1UNL    H23   54   0.226   0.389   0.323
    1UNL    H24   55   0.461   0.139   0.315
    1UNL    H25   56   0.474   0.317   0.249
    1UNL    H26   57   0.467   0.290   0.498
    1UNL    H27   58   0.408   0.128   0.080
    1UNL    H28   59   0.232   0.348   0.021
    1UNL    H29   60   0.021   0.045  -0.418
    1UNL    H30   61   0.266  -0.094  -0.325
    1UNL    H31   62   0.143  -0.230  -0.347
    1UNL    H32   63   0.100  -0.136  -0.555
    1UNL    H33   64  -0.154  -0.193  -0.324
    1UNL    H34   65  -0.049  -0.395  -0.417
   0.00000   0.00000   0.00000   0.00000   0.00000   0.00000   0.00000   0.00000   0.00000
Generated with MDTraj, t= 61.0
 65
    1UNL     C1    1  -0.213  -0.459   0.145
    1UNL     C2    2  -0.183  -0.390   0.040
    1UNL     C3    3  -0.162  -0.237   0.044
    1UNL     C4    4  -0.048  -0.190   0.135
    1UNL     C5    5  -0.291  -0.173   0.099
    1UNL     C6    6  -0.296  -0.019   0.093
    1UNL     C7    7  -0.294   0.046  -0.050
    1UNL     C8    8  -0.267   0.167  -0.089
    1UNL     C9    9  -0.225   0.277   0.003
    1UNL     O1   10  -0.122   0.253   0.099
    1UNL     O2   11  -0.141  -0.185  -0.089
    1UNL    C10   12  -0.013  -0.215  -0.143
    1UNL     O3   13   0.077  -0.098  -0.127
    1UNL    C11   14   0.040   0.002  -0.218
    1UNL    C12   15   0.098   0.134  -0.161
    1UNL     O4   16   0.066   0.130  -0.022
    1UNL    C13   17   0.166   0.086   0.068
    1UNL     O5   18   0.136   0.046   0.202
    1UNL    C14   19   0.171   0.146   0.293
    1UNL    C15   20   0.273   0.241   0.230
    1UNL     O6   21   0.216   0.372   0.240
    1UNL    C16   22   0.409   0.251   0.296
    1UNL     O7   23   0.403   0.321   0.424
    1UNL    C17   24   0.284   0.186   0.082
    1UNL     O8   25   0.267   0.301   0.001
    1UNL    C18   26   0.099  -0.029  -0.347
    1UNL     O9   27   0.239  -0.012  -0.349
    1UNL    C19   28   0.057  -0.177  -0.390
    1UNL    O10   29  -0.003  -0.170  -0.514
    1UNL    C20   30  -0.044  -0.240  -0.294
    1UNL    O11   31  -0.077  -0.382  -0.316
    1UNL     H1   32  -0.217  -0.573   0.153
    1UNL     H2   33  -0.240  -0.400   0.230
    1UNL     H3   34  -0.158  -0.442  -0.052
    1UNL     H4   35  -0.081  -0.230   0.233
    1UNL     H5   36   0.040  -0.244   0.105
    1UNL     H6   37  -0.026  -0.085   0.128
    1UNL     H7   38  -0.303  -0.215   0.202
    1UNL     H8   39  -0.376  -0.213   0.045
    1UNL     H9   40  -0.205   0.024   0.141
    1UNL    H10   41  -0.384   0.022   0.141
    1UNL    H11   42  -0.321  -0.023  -0.125
    1UNL    H12   43  -0.258   0.190  -0.194
    1UNL    H13   44  -0.197   0.369  -0.049
    1UNL    H14   45  -0.319   0.285   0.076
    1UNL    H15   46  -0.031   0.229   0.059
    1UNL    H16   47   0.017  -0.307  -0.097
    1UNL    H17   48  -0.070   0.006  -0.227
    1UNL    H18   49   0.207   0.129  -0.173
    1UNL    H19   50   0.065   0.225  -0.208
    1UNL    H20   51   0.196  -0.009   0.010
    1UNL    H21   52   0.084   0.205   0.321
    1UNL    H22   53   0.205   0.092   0.374
    1UNL    H23   54   0.219   0.392   0.334
    1UNL    H24   55   0.439   0.149   0.318
    1UNL    H25   56   0.477   0.311   0.224
    1UNL    H26   57   0.494   0.341   0.466
    1UNL    H27   58   0.378   0.134   0.064
    1UNL    H28   59   0.212   0.363   0.044
    1UNL    H29   60   0.060   0.038  -0.429
    1UNL    H30   61   0.286  -0.082  -0.295
    1UNL    H31   62   0.145  -0.253  -0.387
    1UNL    H32   63   0.055  -0.135  -0.576
    1UNL    H33   64  -0.138  -0.193  -0.325
    1UNL    H34   65  -0.091  -0.395  -0.411
   0.00000   0.00000   0.00000   0.00000   0.00000   0.00000   0.00000   0.00000   0.00000
Generated with MDTraj, t= 62.0
 65
    1UNL     C1    1  -0.260  -0.438   0.145
    1UNL     C2    2  -0.194  -0.378   0.050
    1UNL     C3    3  -0.165  -0.232   0.038
    1UNL     C4    4  -0.037  -0.204   0.115
    1UNL     C5    5  -0.287  -0.152   0.099
    1UNL     C6    6  -0.267   0.001   0.109
    1UNL     C7    7  -0.240   0.063  -0.029
    1UNL     C8    8  -0.232   0.190  -0.046
    1UNL     C9    9  -0.251   0.281   0.069
    1UNL     O1   10  -0.186   0.242   0.186
    1UNL     O2   11  -0.157  -0.201  -0.104
    1UNL    C10   12  -0.034  -0.234  -0.164
    1UNL     O3   13   0.070  -0.136  -0.141
    1UNL    C11   14   0.044  -0.018  -0.216
    1UNL    C12   15   0.104   0.107  -0.147
    1UNL     O4   16   0.071   0.107  -0.013
    1UNL    C13   17   0.181   0.084   0.077
    1UNL     O5   18   0.140   0.058   0.215
    1UNL    C14   19   0.160   0.181   0.287
    1UNL    C15   20   0.274   0.262   0.220
    1UNL     O6   21   0.229   0.396   0.208
    1UNL    C16   22   0.403   0.268   0.304
    1UNL     O7   23   0.374   0.321   0.428
    1UNL    C17   24   0.292   0.200   0.077
    1UNL     O8   25   0.266   0.292  -0.033
    1UNL    C18   26   0.101  -0.041  -0.357
    1UNL     O9   27   0.245  -0.020  -0.361
    1UNL    C19   28   0.065  -0.190  -0.406
    1UNL    O10   29   0.020  -0.171  -0.537
    1UNL    C20   30  -0.048  -0.260  -0.320
    1UNL    O11   31  -0.050  -0.397  -0.358
    1UNL     H1   32  -0.277  -0.539   0.147
    1UNL     H2   33  -0.304  -0.387   0.223
    1UNL     H3   34  -0.164  -0.442  -0.027
    1UNL     H4   35  -0.038  -0.226   0.223
    1UNL     H5   36   0.060  -0.249   0.075
    1UNL     H6   37  -0.016  -0.104   0.100
    1UNL     H7   38  -0.306  -0.192   0.204
    1UNL     H8   39  -0.371  -0.180   0.041
    1UNL     H9   40  -0.184   0.023   0.180
    1UNL    H10   41  -0.356   0.047   0.153
    1UNL    H11   42  -0.208  -0.010  -0.104
    1UNL    H12   43  -0.207   0.231  -0.143
    1UNL    H13   44  -0.214   0.380   0.051
    1UNL    H14   45  -0.366   0.289   0.100
    1UNL    H15   46  -0.098   0.216   0.164
    1UNL    H16   47  -0.006  -0.325  -0.120
    1UNL    H17   48  -0.065  -0.011  -0.226
    1UNL    H18   49   0.217   0.112  -0.159
    1UNL    H19   50   0.073   0.207  -0.182
    1UNL    H20   51   0.232  -0.008   0.033
    1UNL    H21   52   0.074   0.249   0.286
    1UNL    H22   53   0.184   0.162   0.385
    1UNL    H23   54   0.222   0.433   0.300
    1UNL    H24   55   0.449   0.171   0.315
    1UNL    H25   56   0.476   0.343   0.254
    1UNL    H26   57   0.450   0.322   0.482
    1UNL    H27   58   0.394   0.159   0.068
    1UNL    H28   59   0.237   0.384   0.004
    1UNL    H29   60   0.064   0.028  -0.435
    1UNL    H30   61   0.293  -0.081  -0.296
    1UNL    H31   62   0.156  -0.264  -0.408
    1UNL    H32   63   0.083  -0.129  -0.597
    1UNL    H33   64  -0.133  -0.209  -0.362
    1UNL    H34   65  -0.108  -0.400  -0.441
   0.00000   0.00000   0.00000   0.00000   0.00000   0.00000   0.00000   0.00000   0.00000
Generated with MDTraj, t= 63.0
 65
    1UNL     C1    1  -0.223  -0.445   0.154
    1UNL     C2    2  -0.214  -0.382   0.038
    1UNL     C3    3  -0.174  -0.237   0.022
    1UNL     C4    4  -0.044  -0.226   0.099
    1UNL     C5    5  -0.290  -0.144   0.064
    1UNL     C6    6  -0.248  -0.000   0.101
    1UNL     C7    7  -0.248   0.096  -0.016
    1UNL     C8    8  -0.243   0.224  -0.000
    1UNL     C9    9  -0.264   0.301   0.133
    1UNL     O1   10  -0.184   0.254   0.239
    1UNL     O2   11  -0.158  -0.211  -0.123
    1UNL    C10   12  -0.036  -0.250  -0.182
    1UNL     O3   13   0.068  -0.159  -0.142
    1UNL    C11   14   0.053  -0.031  -0.205
    1UNL    C12   15   0.117   0.089  -0.133
    1UNL     O4   16   0.079   0.112  -0.002
    1UNL    C13   17   0.179   0.083   0.092
    1UNL     O5   18   0.119   0.083   0.226
    1UNL    C14   19   0.145   0.209   0.278
    1UNL    C15   20   0.273   0.274   0.209
    1UNL     O6   21   0.237   0.409   0.180
    1UNL    C16   22   0.394   0.272   0.308
    1UNL     O7   23   0.364   0.351   0.419
    1UNL    C17   24   0.294   0.185   0.084
    1UNL     O8   25   0.281   0.260  -0.032
    1UNL    C18   26   0.098  -0.049  -0.353
    1UNL     O9   27   0.238  -0.026  -0.381
    1UNL    C19   28   0.070  -0.193  -0.411
    1UNL    O10   29   0.055  -0.194  -0.551
    1UNL    C20   30  -0.053  -0.261  -0.341
    1UNL    O11   31  -0.066  -0.396  -0.385
    1UNL     H1   32  -0.242  -0.554   0.165
    1UNL     H2   33  -0.211  -0.399   0.259
    1UNL     H3   34  -0.229  -0.436  -0.060
    1UNL     H4   35  -0.048  -0.224   0.206
    1UNL     H5   36   0.024  -0.314   0.074
    1UNL     H6   37   0.014  -0.145   0.063
    1UNL     H7   38  -0.335  -0.195   0.156
    1UNL     H8   39  -0.364  -0.144  -0.012
    1UNL     H9   40  -0.156  -0.004   0.161
    1UNL    H10   41  -0.325   0.026   0.174
    1UNL    H11   42  -0.241   0.048  -0.111
    1UNL    H12   43  -0.241   0.290  -0.085
    1UNL    H13   44  -0.252   0.407   0.126
    1UNL    H14   45  -0.378   0.296   0.167
    1UNL    H15   46  -0.103   0.229   0.200
    1UNL    H16   47  -0.015  -0.347  -0.148
    1UNL    H17   48  -0.054  -0.014  -0.201
    1UNL    H18   49   0.231   0.078  -0.122
    1UNL    H19   50   0.116   0.187  -0.190
    1UNL    H20   51   0.222  -0.018   0.075
    1UNL    H21   52   0.058   0.269   0.258
    1UNL    H22   53   0.158   0.211   0.382
    1UNL    H23   54   0.255   0.466   0.260
    1UNL    H24   55   0.417   0.171   0.340
    1UNL    H25   56   0.488   0.307   0.253
    1UNL    H26   57   0.442   0.345   0.474
    1UNL    H27   58   0.391   0.130   0.084
    1UNL    H28   59   0.193   0.307  -0.030
    1UNL    H29   60   0.039   0.026  -0.407
    1UNL    H30   61   0.288  -0.049  -0.298
    1UNL    H31   62   0.159  -0.256  -0.366
    1UNL    H32   63   0.134  -0.145  -0.589
    1UNL    H33   64  -0.146  -0.219  -0.368
    1UNL    H34   65   0.007  -0.463  -0.371
   0.00000   0.00000   0.00000   0.00000   0.00000   0.00000   0.00000   0.00000   0.00000
Generated with MDTraj, t= 64.0
 65
    1UNL     C1    1  -0.163  -0.463   0.086
    1UNL     C2    2  -0.222  -0.369   0.011
    1UNL     C3    3  -0.183  -0.226   0.011
    1UNL     C4    4  -0.054  -0.201   0.089
    1UNL     C5    5  -0.300  -0.143   0.077
    1UNL     C6    6  -0.269  -0.002   0.120
    1UNL     C7    7  -0.263   0.093   0.007
    1UNL     C8    8  -0.258   0.220   0.024
    1UNL     C9    9  -0.255   0.289   0.150
    1UNL     O1   10  -0.179   0.227   0.248
    1UNL     O2   11  -0.166  -0.182  -0.124
    1UNL    C10   12  -0.049  -0.246  -0.185
    1UNL     O3   13   0.067  -0.167  -0.142
    1UNL    C11   14   0.069  -0.040  -0.202
    1UNL    C12   15   0.151   0.061  -0.128
    1UNL     O4   16   0.081   0.111  -0.015
    1UNL    C13   17   0.149   0.090   0.108
    1UNL     O5   18   0.078   0.130   0.227
    1UNL    C14   19   0.146   0.227   0.296
    1UNL    C15   20   0.266   0.274   0.215
    1UNL     O6   21   0.242   0.400   0.163
    1UNL    C16   22   0.391   0.281   0.309
    1UNL     O7   23   0.384   0.392   0.388
    1UNL    C17   24   0.287   0.159   0.109
    1UNL     O8   25   0.314   0.223  -0.016
    1UNL    C18   26   0.100  -0.053  -0.356
    1UNL     O9   27   0.233  -0.012  -0.400
    1UNL    C19   28   0.070  -0.201  -0.402
    1UNL    O10   29   0.075  -0.227  -0.543
    1UNL    C20   30  -0.061  -0.261  -0.339
    1UNL    O11   31  -0.071  -0.396  -0.380
    1UNL     H1   32  -0.198  -0.557   0.101
    1UNL     H2   33  -0.080  -0.444   0.144
    1UNL     H3   34  -0.305  -0.383  -0.049
    1UNL     H4   35  -0.078  -0.204   0.192
    1UNL     H5   36   0.018  -0.283   0.073
    1UNL     H6   37  -0.006  -0.105   0.053
    1UNL     H7   38  -0.352  -0.210   0.152
    1UNL     H8   39  -0.373  -0.137  -0.003
    1UNL     H9   40  -0.169   0.005   0.166
    1UNL    H10   41  -0.336   0.033   0.201
    1UNL    H11   42  -0.282   0.049  -0.090
    1UNL    H12   43  -0.244   0.282  -0.063
    1UNL    H13   44  -0.231   0.393   0.136
    1UNL    H14   45  -0.365   0.310   0.189
    1UNL    H15   46  -0.087   0.230   0.220
    1UNL    H16   47  -0.025  -0.341  -0.147
    1UNL    H17   48  -0.033  -0.011  -0.180
    1UNL    H18   49   0.258   0.031  -0.100
    1UNL    H19   50   0.172   0.151  -0.193
    1UNL    H20   51   0.172  -0.015   0.123
    1UNL    H21   52   0.082   0.315   0.313
    1UNL    H22   53   0.164   0.183   0.393
    1UNL    H23   54   0.242   0.466   0.234
    1UNL    H24   55   0.401   0.186   0.359
    1UNL    H25   56   0.483   0.287   0.243
    1UNL    H26   57   0.462   0.399   0.456
    1UNL    H27   58   0.374   0.092   0.136
    1UNL    H28   59   0.245   0.287  -0.030
    1UNL    H29   60   0.029   0.006  -0.410
    1UNL    H30   61   0.290  -0.040  -0.329
    1UNL    H31   62   0.162  -0.257  -0.359
    1UNL    H32   63   0.164  -0.185  -0.580
    1UNL    H33   64  -0.133  -0.195  -0.382
    1UNL    H34   65  -0.097  -0.408  -0.471
   0.00000   0.00000   0.00000   0.00000   0.00000   0.00000   0.00000   0.00000   0.00000
Generated with MDTraj, t= 65.0
 65
    1UNL     C1    1  -0.128  -0.470   0.033
    1UNL     C2    2  -0.219  -0.382   0.009
    1UNL     C3    3  -0.198  -0.230   0.014
    1UNL     C4    4  -0.080  -0.193   0.108
    1UNL     C5    5  -0.328  -0.170   0.067
    1UNL     C6    6  -0.321  -0.025   0.106
    1UNL     C7    7  -0.254   0.063   0.008
    1UNL     C8    8  -0.217   0.186   0.025
    1UNL     C9    9  -0.256   0.279   0.136
    1UNL     O1   10  -0.225   0.214   0.258
    1UNL     O2   11  -0.176  -0.176  -0.118
    1UNL    C10   12  -0.053  -0.226  -0.175
    1UNL     O3   13   0.067  -0.153  -0.139
    1UNL    C11   14   0.069  -0.028  -0.206
    1UNL    C12   15   0.156   0.076  -0.139
    1UNL     O4   16   0.098   0.134  -0.018
    1UNL    C13   17   0.155   0.102   0.106
    1UNL     O5   18   0.082   0.146   0.224
    1UNL    C14   19   0.163   0.227   0.307
    1UNL    C15   20   0.285   0.266   0.218
    1UNL     O6   21   0.247   0.386   0.144
    1UNL    C16   22   0.400   0.305   0.305
    1UNL     O7   23   0.375   0.428   0.364
    1UNL    C17   24   0.303   0.151   0.127
    1UNL     O8   25   0.369   0.182   0.002
    1UNL    C18   26   0.103  -0.056  -0.356
    1UNL     O9   27   0.237  -0.016  -0.386
    1UNL    C19   28   0.070  -0.205  -0.394
    1UNL    O10   29   0.062  -0.219  -0.535
    1UNL    C20   30  -0.065  -0.241  -0.334
    1UNL    O11   31  -0.108  -0.373  -0.360
    1UNL     H1   32  -0.156  -0.578   0.007
    1UNL     H2   33  -0.027  -0.443   0.066
    1UNL     H3   34  -0.315  -0.419  -0.033
    1UNL     H4   35  -0.114  -0.204   0.211
    1UNL     H5   36   0.005  -0.251   0.093
    1UNL     H6   37  -0.067  -0.082   0.077
    1UNL     H7   38  -0.374  -0.231   0.149
    1UNL     H8   39  -0.398  -0.186  -0.018
    1UNL     H9   40  -0.277  -0.018   0.206
    1UNL    H10   41  -0.423   0.019   0.112
    1UNL    H11   42  -0.217   0.015  -0.081
    1UNL    H12   43  -0.146   0.229  -0.045
    1UNL    H13   44  -0.229   0.384   0.123
    1UNL    H14   45  -0.373   0.300   0.124
    1UNL    H15   46  -0.125   0.197   0.265
    1UNL    H16   47  -0.042  -0.321  -0.133
    1UNL    H17   48  -0.031   0.009  -0.190
    1UNL    H18   49   0.261   0.039  -0.115
    1UNL    H19   50   0.181   0.155  -0.213
    1UNL    H20   51   0.160  -0.004   0.112
    1UNL    H21   52   0.108   0.314   0.345
    1UNL    H22   53   0.195   0.171   0.399
    1UNL    H23   54   0.243   0.462   0.209
    1UNL    H24   55   0.417   0.231   0.379
    1UNL    H25   56   0.491   0.299   0.236
    1UNL    H26   57   0.448   0.457   0.433
    1UNL    H27   58   0.366   0.070   0.174
    1UNL    H28   59   0.363   0.282  -0.021
    1UNL    H29   60   0.049   0.006  -0.422
    1UNL    H30   61   0.299  -0.088  -0.402
    1UNL    H31   62   0.144  -0.277  -0.345
    1UNL    H32   63   0.144  -0.181  -0.584
    1UNL    H33   64  -0.138  -0.163  -0.353
    1UNL    H34   65  -0.037  -0.439  -0.356
   0.00000   0.00000   0.00000   0.00000   0.00000   0.00000   0.00000   0.00000   0.00000
Generated with MDTraj, t= 66.0
 65
    1UNL     C1    1  -0.130  -0.490   0.035
    1UNL     C2    2  -0.224  -0.400   0.035
    1UNL     C3    3  -0.211  -0.250   0.031
    1UNL     C4    4  -0.107  -0.207   0.136
    1UNL     C5    5  -0.344  -0.182   0.056
    1UNL     C6    6  -0.354  -0.024   0.067
    1UNL     C7    7  -0.256   0.056  -0.017
    1UNL     C8    8  -0.219   0.178   0.008
    1UNL     C9    9  -0.249   0.250   0.141
    1UNL     O1   10  -0.204   0.183   0.256
    1UNL     O2   11  -0.177  -0.203  -0.101
    1UNL    C10   12  -0.046  -0.214  -0.150
    1UNL     O3   13   0.051  -0.120  -0.113
    1UNL    C11   14   0.067  -0.003  -0.201
    1UNL    C12   15   0.163   0.100  -0.145
    1UNL     O4   16   0.114   0.149  -0.018
    1UNL    C13   17   0.172   0.088   0.096
    1UNL     O5   18   0.096   0.114   0.219
    1UNL    C14   19   0.141   0.246   0.258
    1UNL    C15   20   0.280   0.274   0.193
    1UNL     O6   21   0.264   0.387   0.111
    1UNL    C16   22   0.385   0.299   0.303
    1UNL     O7   23   0.368   0.427   0.351
    1UNL    C17   24   0.314   0.142   0.120
    1UNL     O8   25   0.392   0.171   0.007
    1UNL    C18   26   0.125  -0.043  -0.339
    1UNL     O9   27   0.264  -0.035  -0.350
    1UNL    C19   28   0.064  -0.178  -0.388
    1UNL    O10   29   0.048  -0.168  -0.530
    1UNL    C20   30  -0.066  -0.217  -0.310
    1UNL    O11   31  -0.115  -0.347  -0.355
    1UNL     H1   32  -0.154  -0.593   0.045
    1UNL     H2   33  -0.035  -0.462   0.016
    1UNL     H3   34  -0.325  -0.442   0.042
    1UNL     H4   35  -0.137  -0.234   0.241
    1UNL     H5   36  -0.013  -0.252   0.126
    1UNL     H6   37  -0.094  -0.098   0.130
    1UNL     H7   38  -0.385  -0.220   0.151
    1UNL     H8   39  -0.419  -0.211  -0.023
    1UNL     H9   40  -0.343   0.013   0.169
    1UNL    H10   41  -0.459   0.001   0.034
    1UNL    H11   42  -0.220   0.012  -0.106
    1UNL    H12   43  -0.163   0.234  -0.064
    1UNL    H13   44  -0.203   0.351   0.142
    1UNL    H14   45  -0.362   0.285   0.151
    1UNL    H15   46  -0.111   0.141   0.234
    1UNL    H16   47  -0.013  -0.311  -0.132
    1UNL    H17   48  -0.032   0.038  -0.209
    1UNL    H18   49   0.259   0.045  -0.135
    1UNL    H19   50   0.186   0.182  -0.212
    1UNL    H20   51   0.168  -0.018   0.089
    1UNL    H21   52   0.083   0.337   0.235
    1UNL    H22   53   0.151   0.255   0.372
    1UNL    H23   54   0.267   0.467   0.164
    1UNL    H24   55   0.375   0.222   0.376
    1UNL    H25   56   0.489   0.287   0.264
    1UNL    H26   57   0.436   0.457   0.413
    1UNL    H27   58   0.374   0.075   0.188
    1UNL    H28   59   0.357   0.244  -0.042
    1UNL    H29   60   0.098   0.027  -0.413
    1UNL    H30   61   0.305  -0.127  -0.356
    1UNL    H31   62   0.136  -0.263  -0.371
    1UNL    H32   63   0.130  -0.135  -0.572
    1UNL    H33   64  -0.139  -0.141  -0.342
    1UNL    H34   65  -0.051  -0.399  -0.413
   0.00000   0.00000   0.00000   0.00000   0.00000   0.00000   0.00000   0.00000   0.00000
Generated with MDTraj, t= 67.0
 65
    1UNL     C1    1  -0.122  -0.462   0.047
    1UNL     C2    2  -0.208  -0.378  -0.006
    1UNL     C3    3  -0.203  -0.227   0.024
    1UNL     C4    4  -0.102  -0.184   0.121
    1UNL     C5    5  -0.343  -0.188   0.080
    1UNL     C6    6  -0.344  -0.040   0.109
    1UNL     C7    7  -0.295   0.044  -0.012
    1UNL     C8    8  -0.243   0.162  -0.010
    1UNL     C9    9  -0.209   0.221   0.125
    1UNL     O1   10  -0.166   0.135   0.220
    1UNL     O2   11  -0.177  -0.161  -0.104
    1UNL    C10   12  -0.051  -0.204  -0.163
    1UNL     O3   13   0.051  -0.119  -0.116
    1UNL    C11   14   0.060  -0.003  -0.195
    1UNL    C12   15   0.139   0.113  -0.136
    1UNL     O4   16   0.090   0.151  -0.008
    1UNL    C13   17   0.157   0.095   0.106
    1UNL     O5   18   0.097   0.140   0.225
    1UNL    C14   19   0.146   0.268   0.252
    1UNL    C15   20   0.294   0.278   0.194
    1UNL     O6   21   0.303   0.387   0.106
    1UNL    C16   22   0.380   0.295   0.314
    1UNL     O7   23   0.343   0.419   0.364
    1UNL    C17   24   0.309   0.139   0.117
    1UNL     O8   25   0.365   0.156  -0.013
    1UNL    C18   26   0.132  -0.050  -0.332
    1UNL     O9   27   0.269  -0.079  -0.312
    1UNL    C19   28   0.069  -0.184  -0.394
    1UNL    O10   29   0.043  -0.166  -0.529
    1UNL    C20   30  -0.065  -0.216  -0.318
    1UNL    O11   31  -0.113  -0.347  -0.357
    1UNL     H1   32  -0.126  -0.570   0.026
    1UNL     H2   33  -0.029  -0.435   0.103
    1UNL     H3   34  -0.277  -0.411  -0.076
    1UNL     H4   35  -0.104  -0.233   0.223
    1UNL     H5   36  -0.003  -0.214   0.085
    1UNL     H6   37  -0.091  -0.082   0.130
    1UNL     H7   38  -0.363  -0.247   0.168
    1UNL     H8   39  -0.435  -0.204   0.012
    1UNL     H9   40  -0.278  -0.013   0.191
    1UNL    H10   41  -0.444  -0.001   0.144
    1UNL    H11   42  -0.310  -0.004  -0.109
    1UNL    H12   43  -0.205   0.209  -0.100
    1UNL    H13   44  -0.144   0.312   0.124
    1UNL    H14   45  -0.307   0.266   0.170
    1UNL    H15   46  -0.076   0.101   0.189
    1UNL    H16   47  -0.038  -0.301  -0.125
    1UNL    H17   48  -0.040   0.030  -0.219
    1UNL    H18   49   0.242   0.081  -0.134
    1UNL    H19   50   0.126   0.197  -0.200
    1UNL    H20   51   0.148  -0.011   0.098
    1UNL    H21   52   0.076   0.334   0.194
    1UNL    H22   53   0.139   0.306   0.362
    1UNL    H23   54   0.301   0.471   0.161
    1UNL    H24   55   0.365   0.222   0.390
    1UNL    H25   56   0.486   0.288   0.282
    1UNL    H26   57   0.407   0.443   0.427
    1UNL    H27   58   0.379   0.070   0.169
    1UNL    H28   59   0.326   0.238  -0.061
    1UNL    H29   60   0.128   0.031  -0.399
    1UNL    H30   61   0.270  -0.159  -0.249
    1UNL    H31   62   0.137  -0.272  -0.384
    1UNL    H32   63   0.123  -0.153  -0.573
    1UNL    H33   64  -0.137  -0.138  -0.354
    1UNL    H34   65  -0.031  -0.400  -0.383
   0.00000   0.00000   0.00000   0.00000   0.00000   0.00000   0.00000   0.00000   0.00000
Generated with MDTraj, t= 68.0
 65
    1UNL     C1    1  -0.118  -0.464   0.081
    1UNL     C2    2  -0.206  -0.386   0.022
    1UNL     C3    3  -0.206  -0.238   0.014
    1UNL     C4    4  -0.102  -0.165   0.101
    1UNL     C5    5  -0.345  -0.202   0.070
    1UNL     C6    6  -0.362  -0.053   0.101
    1UNL     C7    7  -0.342   0.046  -0.014
    1UNL     C8    8  -0.292   0.167  -0.014
    1UNL     C9    9  -0.256   0.231   0.118
    1UNL     O1   10  -0.200   0.147   0.219
    1UNL     O2   11  -0.184  -0.189  -0.124
    1UNL    C10   12  -0.050  -0.218  -0.177
    1UNL     O3   13   0.048  -0.121  -0.119
    1UNL    C11   14   0.069  -0.014  -0.204
    1UNL    C12   15   0.157   0.097  -0.135
    1UNL     O4   16   0.106   0.137  -0.009
    1UNL    C13   17   0.182   0.104   0.110
    1UNL     O5   18   0.116   0.149   0.231
    1UNL    C14   19   0.158   0.275   0.262
    1UNL    C15   20   0.298   0.296   0.197
    1UNL     O6   21   0.304   0.414   0.127
    1UNL    C16   22   0.409   0.289   0.308
    1UNL     O7   23   0.395   0.394   0.407
    1UNL    C17   24   0.323   0.164   0.111
    1UNL     O8   25   0.365   0.203  -0.015
    1UNL    C18   26   0.137  -0.066  -0.335
    1UNL     O9   27   0.273  -0.095  -0.307
    1UNL    C19   28   0.070  -0.191  -0.403
    1UNL    O10   29   0.045  -0.170  -0.536
    1UNL    C20   30  -0.062  -0.218  -0.328
    1UNL    O11   31  -0.123  -0.336  -0.373
    1UNL     H1   32  -0.129  -0.566   0.081
    1UNL     H2   33  -0.025  -0.429   0.121
    1UNL     H3   34  -0.307  -0.427  -0.018
    1UNL     H4   35  -0.123  -0.179   0.207
    1UNL     H5   36   0.005  -0.201   0.093
    1UNL     H6   37  -0.100  -0.062   0.077
    1UNL     H7   38  -0.375  -0.255   0.158
    1UNL     H8   39  -0.419  -0.239  -0.011
    1UNL     H9   40  -0.307  -0.022   0.189
    1UNL    H10   41  -0.466  -0.027   0.140
    1UNL    H11   42  -0.364   0.001  -0.107
    1UNL    H12   43  -0.281   0.227  -0.103
    1UNL    H13   44  -0.186   0.316   0.094
    1UNL    H14   45  -0.345   0.291   0.158
    1UNL    H15   46  -0.100   0.144   0.202
    1UNL    H16   47  -0.034  -0.315  -0.141
    1UNL    H17   48  -0.030   0.028  -0.229
    1UNL    H18   49   0.251   0.052  -0.113
    1UNL    H19   50   0.159   0.183  -0.194
    1UNL    H20   51   0.183  -0.005   0.113
    1UNL    H21   52   0.087   0.352   0.224
    1UNL    H22   53   0.165   0.290   0.378
    1UNL    H23   54   0.294   0.487   0.194
    1UNL    H24   55   0.413   0.195   0.355
    1UNL    H25   56   0.507   0.310   0.264
    1UNL    H26   57   0.480   0.403   0.458
    1UNL    H27   58   0.406   0.099   0.144
    1UNL    H28   59   0.314   0.274  -0.052
    1UNL    H29   60   0.135   0.021  -0.395
    1UNL    H30   61   0.292  -0.184  -0.268
    1UNL    H31   62   0.128  -0.283  -0.390
    1UNL    H32   63   0.121  -0.185  -0.587
    1UNL    H33   64  -0.139  -0.141  -0.358
    1UNL    H34   65  -0.173  -0.376  -0.300
   0.00000   0.00000   0.00000   0.00000   0.00000   0.00000   0.00000   0.00000   0.00000
Generated with MDTraj, t= 69.0
 65
    1UNL     C1    1  -0.100  -0.449   0.121
    1UNL     C2    2  -0.174  -0.390   0.029
    1UNL     C3    3  -0.197  -0.236   0.020
    1UNL     C4    4  -0.104  -0.158   0.116
    1UNL     C5    5  -0.342  -0.209   0.059
    1UNL     C6    6  -0.386  -0.059   0.056
    1UNL     C7    7  -0.328   0.033  -0.038
    1UNL     C8    8  -0.307   0.163  -0.022
    1UNL     C9    9  -0.320   0.228   0.115
    1UNL     O1   10  -0.218   0.196   0.213
    1UNL     O2   11  -0.190  -0.200  -0.114
    1UNL    C10   12  -0.064  -0.225  -0.174
    1UNL     O3   13   0.045  -0.142  -0.114
    1UNL    C11   14   0.072  -0.032  -0.199
    1UNL    C12   15   0.176   0.065  -0.133
    1UNL     O4   16   0.118   0.127  -0.022
    1UNL    C13   17   0.193   0.110   0.101
    1UNL     O5   18   0.117   0.148   0.217
    1UNL    C14   19   0.181   0.254   0.288
    1UNL    C15   20   0.315   0.290   0.213
    1UNL     O6   21   0.304   0.424   0.172
    1UNL    C16   22   0.430   0.274   0.313
    1UNL     O7   23   0.430   0.384   0.405
    1UNL    C17   24   0.330   0.191   0.094
    1UNL     O8   25   0.339   0.263  -0.023
    1UNL    C18   26   0.133  -0.074  -0.337
    1UNL     O9   27   0.274  -0.104  -0.318
    1UNL    C19   28   0.059  -0.194  -0.397
    1UNL    O10   29   0.051  -0.174  -0.538
    1UNL    C20   30  -0.080  -0.210  -0.325
    1UNL    O11   31  -0.142  -0.321  -0.394
    1UNL     H1   32  -0.108  -0.559   0.128
    1UNL     H2   33  -0.046  -0.401   0.202
    1UNL     H3   34  -0.232  -0.446  -0.034
    1UNL     H4   35  -0.136  -0.190   0.211
    1UNL     H5   36   0.002  -0.193   0.100
    1UNL     H6   37  -0.120  -0.049   0.099
    1UNL     H7   38  -0.363  -0.247   0.158
    1UNL     H8   39  -0.405  -0.273  -0.012
    1UNL     H9   40  -0.378  -0.016   0.157
    1UNL    H10   41  -0.500  -0.053   0.049
    1UNL    H11   42  -0.296  -0.023  -0.128
    1UNL    H12   43  -0.267   0.227  -0.098
    1UNL    H13   44  -0.339   0.339   0.111
    1UNL    H14   45  -0.416   0.192   0.164
    1UNL    H15   46  -0.130   0.183   0.185
    1UNL    H16   47  -0.049  -0.326  -0.152
    1UNL    H17   48  -0.027   0.014  -0.215
    1UNL    H18   49   0.258   0.007  -0.094
    1UNL    H19   50   0.196   0.145  -0.197
    1UNL    H20   51   0.201   0.001   0.119
    1UNL    H21   52   0.121   0.346   0.293
    1UNL    H22   53   0.204   0.230   0.399
    1UNL    H23   54   0.327   0.485   0.243
    1UNL    H24   55   0.422   0.190   0.377
    1UNL    H25   56   0.524   0.278   0.257
    1UNL    H26   57   0.524   0.392   0.452
    1UNL    H27   58   0.423   0.140   0.113
    1UNL    H28   59   0.270   0.341  -0.019
    1UNL    H29   60   0.116   0.006  -0.407
    1UNL    H30   61   0.291  -0.193  -0.287
    1UNL    H31   62   0.122  -0.282  -0.391
    1UNL    H32   63   0.142  -0.172  -0.574
    1UNL    H33   64  -0.144  -0.119  -0.349
    1UNL    H34   65  -0.236  -0.313  -0.387
   0.00000   0.00000   0.00000   0.00000   0.00000   0.00000   0.00000   0.00000   0.00000
Generated with MDTraj, t= 70.0
 65
    1UNL     C1    1  -0.110  -0.422   0.152
    1UNL     C2    2  -0.157  -0.369   0.042
    1UNL     C3    3  -0.185  -0.228   0.021
    1UNL     C4    4  -0.091  -0.127   0.098
    1UNL     C5    5  -0.330  -0.209   0.069
    1UNL     C6    6  -0.368  -0.062   0.075
    1UNL     C7    7  -0.327   0.019  -0.037
    1UNL     C8    8  -0.300   0.145  -0.033
    1UNL     C9    9  -0.310   0.234   0.085
    1UNL     O1   10  -0.247   0.195   0.199
    1UNL     O2   11  -0.184  -0.197  -0.125
    1UNL    C10   12  -0.059  -0.216  -0.185
    1UNL     O3   13   0.055  -0.146  -0.125
    1UNL    C11   14   0.082  -0.034  -0.211
    1UNL    C12   15   0.158   0.076  -0.127
    1UNL     O4   16   0.097   0.104   0.004
    1UNL    C13   17   0.182   0.112   0.118
    1UNL     O5   18   0.120   0.141   0.237
    1UNL    C14   19   0.189   0.247   0.306
    1UNL    C15   20   0.313   0.292   0.222
    1UNL     O6   21   0.305   0.433   0.185
    1UNL    C16   22   0.440   0.266   0.305
    1UNL     O7   23   0.440   0.352   0.412
    1UNL    C17   24   0.309   0.204   0.095
    1UNL     O8   25   0.303   0.280  -0.026
    1UNL    C18   26   0.145  -0.079  -0.346
    1UNL     O9   27   0.278  -0.128  -0.348
    1UNL    C19   28   0.062  -0.201  -0.409
    1UNL    O10   29   0.043  -0.180  -0.549
    1UNL    C20   30  -0.076  -0.206  -0.336
    1UNL    O11   31  -0.157  -0.317  -0.380
    1UNL     H1   32  -0.086  -0.526   0.162
    1UNL     H2   33  -0.111  -0.369   0.240
    1UNL     H3   34  -0.168  -0.432  -0.047
    1UNL     H4   35  -0.094  -0.152   0.201
    1UNL     H5   36   0.005  -0.157   0.058
    1UNL     H6   37  -0.119  -0.017   0.072
    1UNL     H7   38  -0.347  -0.263   0.164
    1UNL     H8   39  -0.401  -0.249  -0.007
    1UNL     H9   40  -0.317  -0.021   0.163
    1UNL    H10   41  -0.474  -0.042   0.111
    1UNL    H11   42  -0.316  -0.038  -0.126
    1UNL    H12   43  -0.267   0.185  -0.128
    1UNL    H13   44  -0.263   0.334   0.064
    1UNL    H14   45  -0.416   0.261   0.110
    1UNL    H15   46  -0.152   0.194   0.189
    1UNL    H16   47  -0.042  -0.316  -0.161
    1UNL    H17   48  -0.020   0.006  -0.232
    1UNL    H18   49   0.255   0.035  -0.099
    1UNL    H19   50   0.154   0.169  -0.178
    1UNL    H20   51   0.211   0.004   0.135
    1UNL    H21   52   0.124   0.333   0.308
    1UNL    H22   53   0.215   0.222   0.413
    1UNL    H23   54   0.333   0.483   0.267
    1UNL    H24   55   0.436   0.167   0.344
    1UNL    H25   56   0.530   0.291   0.246
    1UNL    H26   57   0.527   0.354   0.460
    1UNL    H27   58   0.399   0.146   0.091
    1UNL    H28   59   0.265   0.363  -0.009
    1UNL    H29   60   0.142   0.011  -0.409
    1UNL    H30   61   0.275  -0.217  -0.315
    1UNL    H31   62   0.123  -0.288  -0.402
    1UNL    H32   63   0.130  -0.202  -0.600
    1UNL    H33   64  -0.134  -0.113  -0.363
    1UNL    H34   65  -0.240  -0.303  -0.332
   0.00000   0.00000   0.00000   0.00000   0.00000   0.00000   0.00000   0.00000   0.00000
Generated with MDTraj, t= 71.0
 65
    1UNL     C1    1  -0.119  -0.406   0.190
    1UNL     C2    2  -0.144  -0.373   0.067
    1UNL     C3    3  -0.170  -0.225   0.031
    1UNL     C4    4  -0.060  -0.134   0.087
    1UNL     C5    5  -0.313  -0.188   0.085
    1UNL     C6    6  -0.346  -0.038   0.086
    1UNL     C7    7  -0.340   0.029  -0.041
    1UNL     C8    8  -0.311   0.159  -0.052
    1UNL     C9    9  -0.281   0.250   0.075
    1UNL     O1   10  -0.198   0.198   0.176
    1UNL     O2   11  -0.172  -0.208  -0.116
    1UNL    C10   12  -0.053  -0.237  -0.186
    1UNL     O3   13   0.058  -0.165  -0.129
    1UNL    C11   14   0.071  -0.041  -0.195
    1UNL    C12   15   0.167   0.044  -0.112
    1UNL     O4   16   0.096   0.093  -0.002
    1UNL    C13   17   0.178   0.103   0.108
    1UNL     O5   18   0.098   0.142   0.217
    1UNL    C14   19   0.173   0.238   0.296
    1UNL    C15   20   0.295   0.285   0.214
    1UNL     O6   21   0.301   0.422   0.190
    1UNL    C16   22   0.425   0.240   0.293
    1UNL     O7   23   0.433   0.322   0.408
    1UNL    C17   24   0.291   0.210   0.082
    1UNL     O8   25   0.249   0.293  -0.026
    1UNL    C18   26   0.133  -0.064  -0.334
    1UNL     O9   27   0.273  -0.098  -0.324
    1UNL    C19   28   0.059  -0.178  -0.415
    1UNL    O10   29   0.045  -0.146  -0.553
    1UNL    C20   30  -0.072  -0.213  -0.339
    1UNL    O11   31  -0.136  -0.327  -0.393
    1UNL     H1   32  -0.132  -0.508   0.228
    1UNL     H2   33  -0.095  -0.337   0.273
    1UNL     H3   34  -0.187  -0.458   0.006
    1UNL     H4   35  -0.050  -0.127   0.199
    1UNL     H5   36   0.032  -0.168   0.051
    1UNL     H6   37  -0.079  -0.031   0.046
    1UNL     H7   38  -0.335  -0.222   0.189
    1UNL     H8   39  -0.380  -0.245   0.021
    1UNL     H9   40  -0.292   0.020   0.162
    1UNL    H10   41  -0.451  -0.024   0.126
    1UNL    H11   42  -0.387  -0.030  -0.120
    1UNL    H12   43  -0.325   0.196  -0.152
    1UNL    H13   44  -0.244   0.352   0.044
    1UNL    H14   45  -0.378   0.280   0.122
    1UNL    H15   46  -0.100   0.193   0.143
    1UNL    H16   47  -0.042  -0.340  -0.172
    1UNL    H17   48  -0.031   0.004  -0.199
    1UNL    H18   49   0.250  -0.023  -0.077
    1UNL    H19   50   0.191   0.134  -0.169
    1UNL    H20   51   0.226   0.003   0.127
    1UNL    H21   52   0.104   0.314   0.326
    1UNL    H22   53   0.209   0.189   0.388
    1UNL    H23   54   0.330   0.454   0.276
    1UNL    H24   55   0.415   0.135   0.314
    1UNL    H25   56   0.514   0.259   0.230
    1UNL    H26   57   0.513   0.309   0.453
    1UNL    H27   58   0.386   0.167   0.058
    1UNL    H28   59   0.190   0.367   0.016
    1UNL    H29   60   0.133   0.039  -0.378
    1UNL    H30   61   0.275  -0.188  -0.280
    1UNL    H31   62   0.112  -0.270  -0.408
    1UNL    H32   63   0.132  -0.162  -0.610
    1UNL    H33   64  -0.147  -0.133  -0.370
    1UNL    H34   65  -0.228  -0.337  -0.351
   0.00000   0.00000   0.00000   0.00000   0.00000   0.00000   0.00000   0.00000   0.00000
Generated with MDTraj, t= 72.0
 65
    1UNL     C1    1  -0.121  -0.424   0.186
    1UNL     C2    2  -0.148  -0.374   0.066
    1UNL     C3    3  -0.162  -0.230   0.030
    1UNL     C4    4  -0.055  -0.140   0.095
    1UNL     C5    5  -0.301  -0.187   0.083
    1UNL     C6    6  -0.332  -0.038   0.075
    1UNL     C7    7  -0.311   0.036  -0.047
    1UNL     C8    8  -0.254   0.158  -0.060
    1UNL     C9    9  -0.246   0.260   0.056
    1UNL     O1   10  -0.138   0.243   0.137
    1UNL     O2   11  -0.169  -0.212  -0.115
    1UNL    C10   12  -0.054  -0.253  -0.185
    1UNL     O3   13   0.065  -0.181  -0.138
    1UNL    C11   14   0.072  -0.051  -0.197
    1UNL    C12   15   0.157   0.049  -0.108
    1UNL     O4   16   0.073   0.083   0.006
    1UNL    C13   17   0.151   0.114   0.118
    1UNL     O5   18   0.083   0.169   0.235
    1UNL    C14   19   0.174   0.246   0.316
    1UNL    C15   20   0.288   0.292   0.223
    1UNL     O6   21   0.291   0.433   0.211
    1UNL    C16   22   0.422   0.239   0.289
    1UNL     O7   23   0.448   0.290   0.420
    1UNL    C17   24   0.260   0.223   0.088
    1UNL     O8   25   0.200   0.320   0.002
    1UNL    C18   26   0.121  -0.073  -0.342
    1UNL     O9   27   0.259  -0.101  -0.342
    1UNL    C19   28   0.042  -0.184  -0.424
    1UNL    O10   29   0.000  -0.135  -0.557
    1UNL    C20   30  -0.075  -0.232  -0.341
    1UNL    O11   31  -0.115  -0.356  -0.390
    1UNL     H1   32  -0.107  -0.523   0.211
    1UNL     H2   33  -0.091  -0.367   0.273
    1UNL     H3   34  -0.176  -0.436  -0.010
    1UNL     H4   35  -0.053  -0.160   0.210
    1UNL     H5   36   0.049  -0.148   0.069
    1UNL     H6   37  -0.070  -0.036   0.092
    1UNL     H7   38  -0.318  -0.216   0.192
    1UNL     H8   39  -0.377  -0.240   0.032
    1UNL     H9   40  -0.273   0.014   0.153
    1UNL    H10   41  -0.438  -0.016   0.104
    1UNL    H11   42  -0.326  -0.023  -0.134
    1UNL    H12   43  -0.202   0.184  -0.153
    1UNL    H13   44  -0.231   0.359   0.005
    1UNL    H14   45  -0.344   0.270   0.108
    1UNL    H15   46  -0.068   0.200   0.087
    1UNL    H16   47  -0.042  -0.354  -0.160
    1UNL    H17   48  -0.032  -0.014  -0.206
    1UNL    H18   49   0.246  -0.013  -0.072
    1UNL    H19   50   0.180   0.143  -0.165
    1UNL    H20   51   0.205   0.023   0.154
    1UNL    H21   52   0.104   0.317   0.352
    1UNL    H22   53   0.217   0.190   0.396
    1UNL    H23   54   0.327   0.463   0.296
    1UNL    H24   55   0.415   0.131   0.290
    1UNL    H25   56   0.501   0.264   0.214
    1UNL    H26   57   0.540   0.267   0.442
    1UNL    H27   58   0.353   0.183   0.049
    1UNL    H28   59   0.185   0.396   0.058
    1UNL    H29   60   0.114   0.017  -0.412
    1UNL    H30   61   0.278  -0.186  -0.289
    1UNL    H31   62   0.102  -0.269  -0.430
    1UNL    H32   63   0.077  -0.151  -0.623
    1UNL    H33   64  -0.158  -0.161  -0.356
    1UNL    H34   65  -0.214  -0.360  -0.372
   0.00000   0.00000   0.00000   0.00000   0.00000   0.00000   0.00000   0.00000   0.00000
Generated with MDTraj, t= 73.0
 65
    1UNL     C1    1  -0.128  -0.456   0.166
    1UNL     C2    2  -0.186  -0.395   0.064
    1UNL     C3    3  -0.171  -0.239   0.035
    1UNL     C4    4  -0.054  -0.176   0.107
    1UNL     C5    5  -0.294  -0.160   0.084
    1UNL     C6    6  -0.276  -0.009   0.071
    1UNL     C7    7  -0.250   0.037  -0.062
    1UNL     C8    8  -0.225   0.159  -0.108
    1UNL     C9    9  -0.236   0.267  -0.005
    1UNL     O1   10  -0.171   0.242   0.115
    1UNL     O2   11  -0.178  -0.228  -0.109
    1UNL    C10   12  -0.054  -0.257  -0.168
    1UNL     O3   13   0.053  -0.169  -0.126
    1UNL    C11   14   0.054  -0.042  -0.197
    1UNL    C12   15   0.127   0.074  -0.123
    1UNL     O4   16   0.078   0.097   0.011
    1UNL    C13   17   0.183   0.117   0.102
    1UNL     O5   18   0.146   0.112   0.248
    1UNL    C14   19   0.170   0.235   0.315
    1UNL    C15   20   0.283   0.294   0.232
    1UNL     O6   21   0.286   0.438   0.241
    1UNL    C16   22   0.421   0.242   0.291
    1UNL     O7   23   0.450   0.282   0.417
    1UNL    C17   24   0.255   0.253   0.086
    1UNL     O8   25   0.173   0.341   0.015
    1UNL    C18   26   0.111  -0.066  -0.340
    1UNL     O9   27   0.253  -0.077  -0.346
    1UNL    C19   28   0.035  -0.183  -0.412
    1UNL    O10   29  -0.032  -0.127  -0.534
    1UNL    C20   30  -0.076  -0.243  -0.321
    1UNL    O11   31  -0.103  -0.376  -0.365
    1UNL     H1   32  -0.151  -0.559   0.199
    1UNL     H2   33  -0.059  -0.410   0.237
    1UNL     H3   34  -0.249  -0.450  -0.013
    1UNL     H4   35  -0.074  -0.186   0.218
    1UNL     H5   36   0.039  -0.231   0.089
    1UNL     H6   37  -0.039  -0.073   0.086
    1UNL     H7   38  -0.321  -0.187   0.191
    1UNL     H8   39  -0.377  -0.183   0.025
    1UNL     H9   40  -0.191   0.024   0.135
    1UNL    H10   41  -0.364   0.048   0.110
    1UNL    H11   42  -0.243  -0.042  -0.133
    1UNL    H12   43  -0.215   0.175  -0.213
    1UNL    H13   44  -0.208   0.370  -0.042
    1UNL    H14   45  -0.340   0.280   0.032
    1UNL    H15   46  -0.086   0.188   0.081
    1UNL    H16   47  -0.017  -0.353  -0.147
    1UNL    H17   48  -0.052  -0.011  -0.204
    1UNL    H18   49   0.239   0.050  -0.123
    1UNL    H19   50   0.104   0.174  -0.173
    1UNL    H20   51   0.247   0.028   0.107
    1UNL    H21   52   0.086   0.293   0.294
    1UNL    H22   53   0.181   0.225   0.419
    1UNL    H23   54   0.330   0.464   0.328
    1UNL    H24   55   0.418   0.133   0.280
    1UNL    H25   56   0.507   0.278   0.228
    1UNL    H26   57   0.546   0.251   0.447
    1UNL    H27   58   0.349   0.229   0.036
    1UNL    H28   59   0.094   0.354   0.062
    1UNL    H29   60   0.091   0.018  -0.417
    1UNL    H30   61   0.285  -0.138  -0.276
    1UNL    H31   62   0.099  -0.262  -0.433
    1UNL    H32   63   0.029  -0.129  -0.609
    1UNL    H33   64  -0.161  -0.180  -0.348
    1UNL    H34   65  -0.198  -0.396  -0.354
   0.00000   0.00000   0.00000   0.00000   0.00000   0.00000   0.00000   0.00000   0.00000
Generated with MDTraj, t= 74.0
 65
    1UNL     C1    1  -0.171  -0.483   0.144
    1UNL     C2    2  -0.214  -0.387   0.072
    1UNL     C3    3  -0.168  -0.244   0.058
    1UNL     C4    4  -0.027  -0.220   0.129
    1UNL     C5    5  -0.277  -0.146   0.111
    1UNL     C6    6  -0.258   0.010   0.075
    1UNL     C7    7  -0.291   0.044  -0.060
    1UNL     C8    8  -0.255   0.156  -0.126
    1UNL     C9    9  -0.198   0.275  -0.047
    1UNL     O1   10  -0.125   0.251   0.069
    1UNL     O2   11  -0.163  -0.220  -0.092
    1UNL    C10   12  -0.042  -0.236  -0.166
    1UNL     O3   13   0.059  -0.148  -0.130
    1UNL    C11   14   0.038  -0.026  -0.195
    1UNL    C12   15   0.113   0.082  -0.121
    1UNL     O4   16   0.077   0.086   0.010
    1UNL    C13   17   0.185   0.100   0.097
    1UNL     O5   18   0.145   0.081   0.233
    1UNL    C14   19   0.192   0.190   0.314
    1UNL    C15   20   0.280   0.287   0.229
    1UNL     O6   21   0.242   0.422   0.254
    1UNL    C16   22   0.432   0.268   0.275
    1UNL     O7   23   0.443   0.292   0.411
    1UNL    C17   24   0.248   0.245   0.088
    1UNL     O8   25   0.164   0.335   0.024
    1UNL    C18   26   0.093  -0.043  -0.337
    1UNL     O9   27   0.234  -0.054  -0.332
    1UNL    C19   28   0.031  -0.167  -0.407
    1UNL    O10   29  -0.036  -0.134  -0.535
    1UNL    C20   30  -0.069  -0.247  -0.319
    1UNL    O11   31  -0.063  -0.386  -0.343
    1UNL     H1   32  -0.208  -0.584   0.124
    1UNL     H2   33  -0.099  -0.463   0.215
    1UNL     H3   34  -0.290  -0.407  -0.000
    1UNL     H4   35  -0.027  -0.245   0.232
    1UNL     H5   36   0.052  -0.280   0.076
    1UNL     H6   37  -0.012  -0.111   0.116
    1UNL     H7   38  -0.286  -0.151   0.223
    1UNL     H8   39  -0.369  -0.184   0.074
    1UNL     H9   40  -0.152   0.042   0.088
    1UNL    H10   41  -0.321   0.078   0.138
    1UNL    H11   42  -0.318  -0.040  -0.123
    1UNL    H12   43  -0.277   0.164  -0.235
    1UNL    H13   44  -0.130   0.340  -0.109
    1UNL    H14   45  -0.283   0.338  -0.018
    1UNL    H15   46  -0.043   0.215   0.042
    1UNL    H16   47   0.001  -0.326  -0.129
    1UNL    H17   48  -0.068   0.004  -0.187
    1UNL    H18   49   0.227   0.065  -0.117
    1UNL    H19   50   0.092   0.183  -0.168
    1UNL    H20   51   0.264   0.026   0.087
    1UNL    H21   52   0.105   0.229   0.361
    1UNL    H22   53   0.248   0.140   0.388
    1UNL    H23   54   0.272   0.446   0.343
    1UNL    H24   55   0.471   0.165   0.268
    1UNL    H25   56   0.501   0.335   0.215
    1UNL    H26   57   0.535   0.298   0.456
    1UNL    H27   58   0.351   0.250   0.042
    1UNL    H28   59   0.151   0.425   0.071
    1UNL    H29   60   0.069   0.055  -0.394
    1UNL    H30   61   0.250  -0.124  -0.270
    1UNL    H31   62   0.106  -0.237  -0.417
    1UNL    H32   63   0.027  -0.121  -0.601
    1UNL    H33   64  -0.165  -0.207  -0.347
    1UNL    H34   65  -0.143  -0.427  -0.313
   0.00000   0.00000   0.00000   0.00000   0.00000   0.00000   0.00000   0.00000   0.00000
Generated with MDTraj, t= 75.0
 65
    1UNL     C1    1  -0.200  -0.456   0.149
    1UNL     C2    2  -0.217  -0.367   0.057
    1UNL     C3    3  -0.158  -0.224   0.046
    1UNL     C4    4  -0.014  -0.221   0.101
    1UNL     C5    5  -0.257  -0.130   0.123
    1UNL     C6    6  -0.237   0.017   0.092
    1UNL     C7    7  -0.282   0.050  -0.044
    1UNL     C8    8  -0.267   0.156  -0.126
    1UNL     C9    9  -0.217   0.293  -0.073
    1UNL     O1   10  -0.150   0.295   0.044
    1UNL     O2   11  -0.156  -0.196  -0.096
    1UNL    C10   12  -0.032  -0.241  -0.161
    1UNL     O3   13   0.084  -0.159  -0.142
    1UNL    C11   14   0.049  -0.033  -0.195
    1UNL    C12   15   0.119   0.069  -0.107
    1UNL     O4   16   0.078   0.070   0.029
    1UNL    C13   17   0.188   0.079   0.115
    1UNL     O5   18   0.176   0.048   0.250
    1UNL    C14   19   0.200   0.165   0.328
    1UNL    C15   20   0.269   0.271   0.245
    1UNL     O6   21   0.220   0.405   0.269
    1UNL    C16   22   0.424   0.272   0.274
    1UNL     O7   23   0.448   0.338   0.400
    1UNL    C17   24   0.245   0.228   0.100
    1UNL     O8   25   0.152   0.315   0.039
    1UNL    C18   26   0.086  -0.036  -0.348
    1UNL     O9   27   0.228  -0.036  -0.364
    1UNL    C19   28   0.023  -0.172  -0.415
    1UNL    O10   29  -0.044  -0.150  -0.539
    1UNL    C20   30  -0.070  -0.263  -0.317
    1UNL    O11   31  -0.058  -0.401  -0.338
    1UNL     H1   32  -0.237  -0.557   0.135
    1UNL     H2   33  -0.127  -0.433   0.226
    1UNL     H3   34  -0.290  -0.382  -0.018
    1UNL     H4   35  -0.013  -0.228   0.204
    1UNL     H5   36   0.044  -0.310   0.067
    1UNL     H6   37   0.042  -0.129   0.065
    1UNL     H7   38  -0.255  -0.152   0.232
    1UNL     H8   39  -0.356  -0.159   0.092
    1UNL     H9   40  -0.131   0.054   0.100
    1UNL    H10   41  -0.296   0.084   0.159
    1UNL    H11   42  -0.348  -0.026  -0.084
    1UNL    H12   43  -0.302   0.142  -0.225
    1UNL    H13   44  -0.152   0.340  -0.152
    1UNL    H14   45  -0.300   0.361  -0.055
    1UNL    H15   46  -0.081   0.214   0.044
    1UNL    H16   47  -0.005  -0.334  -0.115
    1UNL    H17   48  -0.061  -0.024  -0.179
    1UNL    H18   49   0.229   0.042  -0.111
    1UNL    H19   50   0.120   0.176  -0.142
    1UNL    H20   51   0.264   0.008   0.080
    1UNL    H21   52   0.097   0.195   0.349
    1UNL    H22   53   0.251   0.139   0.418
    1UNL    H23   54   0.257   0.430   0.355
    1UNL    H24   55   0.473   0.173   0.275
    1UNL    H25   56   0.486   0.333   0.202
    1UNL    H26   57   0.539   0.350   0.418
    1UNL    H27   58   0.340   0.234   0.038
    1UNL    H28   59   0.076   0.346   0.091
    1UNL    H29   60   0.048   0.056  -0.407
    1UNL    H30   61   0.258  -0.124  -0.337
    1UNL    H31   62   0.102  -0.233  -0.436
    1UNL    H32   63   0.021  -0.124  -0.601
    1UNL    H33   64  -0.171  -0.235  -0.334
    1UNL    H34   65  -0.122  -0.446  -0.282
   0.00000   0.00000   0.00000   0.00000   0.00000   0.00000   0.00000   0.00000   0.00000
Generated with MDTraj, t= 76.0
 65
    1UNL     C1    1  -0.212  -0.415   0.207
    1UNL     C2    2  -0.198  -0.375   0.081
    1UNL     C3    3  -0.151  -0.229   0.044
    1UNL     C4    4  -0.019  -0.200   0.102
    1UNL     C5    5  -0.250  -0.126   0.098
    1UNL     C6    6  -0.214   0.016   0.054
    1UNL     C7    7  -0.259   0.053  -0.080
    1UNL     C8    8  -0.263   0.174  -0.138
    1UNL     C9    9  -0.234   0.293  -0.053
    1UNL     O1   10  -0.147   0.273   0.051
    1UNL     O2   11  -0.152  -0.213  -0.100
    1UNL    C10   12  -0.034  -0.256  -0.164
    1UNL     O3   13   0.081  -0.180  -0.146
    1UNL    C11   14   0.056  -0.047  -0.191
    1UNL    C12   15   0.147   0.053  -0.118
    1UNL     O4   16   0.107   0.047   0.021
    1UNL    C13   17   0.211   0.079   0.112
    1UNL     O5   18   0.182   0.048   0.251
    1UNL    C14   19   0.196   0.167   0.337
    1UNL    C15   20   0.269   0.270   0.251
    1UNL     O6   21   0.215   0.394   0.274
    1UNL    C16   22   0.419   0.281   0.289
    1UNL     O7   23   0.434   0.350   0.414
    1UNL    C17   24   0.247   0.232   0.100
    1UNL     O8   25   0.134   0.311   0.046
    1UNL    C18   26   0.062  -0.041  -0.343
    1UNL     O9   27   0.193  -0.001  -0.377
    1UNL    C19   28   0.022  -0.177  -0.411
    1UNL    O10   29  -0.039  -0.152  -0.534
    1UNL    C20   30  -0.074  -0.260  -0.321
    1UNL    O11   31  -0.090  -0.391  -0.367
    1UNL     H1   32  -0.251  -0.509   0.238
    1UNL     H2   33  -0.191  -0.350   0.293
    1UNL     H3   34  -0.208  -0.443  -0.010
    1UNL     H4   35  -0.020  -0.183   0.212
    1UNL     H5   36   0.060  -0.272   0.084
    1UNL     H6   37   0.024  -0.111   0.058
    1UNL     H7   38  -0.249  -0.131   0.205
    1UNL     H8   39  -0.348  -0.152   0.057
    1UNL     H9   40  -0.104   0.040   0.064
    1UNL    H10   41  -0.261   0.089   0.128
    1UNL    H11   42  -0.285  -0.033  -0.142
    1UNL    H12   43  -0.280   0.176  -0.247
    1UNL    H13   44  -0.183   0.376  -0.112
    1UNL    H14   45  -0.325   0.334  -0.012
    1UNL    H15   46  -0.060   0.248   0.017
    1UNL    H16   47  -0.010  -0.359  -0.136
    1UNL    H17   48  -0.049  -0.032  -0.160
    1UNL    H18   49   0.254   0.022  -0.120
    1UNL    H19   50   0.156   0.153  -0.160
    1UNL    H20   51   0.286   0.002   0.087
    1UNL    H21   52   0.087   0.195   0.346
    1UNL    H22   53   0.240   0.156   0.436
    1UNL    H23   54   0.256   0.429   0.359
    1UNL    H24   55   0.469   0.182   0.296
    1UNL    H25   56   0.481   0.339   0.215
    1UNL    H26   57   0.530   0.351   0.428
    1UNL    H27   58   0.345   0.252   0.044
    1UNL    H28   59   0.083   0.351   0.123
    1UNL    H29   60  -0.001   0.039  -0.396
    1UNL    H30   61   0.262  -0.074  -0.374
    1UNL    H31   62   0.105  -0.234  -0.431
    1UNL    H32   63   0.030  -0.109  -0.591
    1UNL    H33   64  -0.170  -0.219  -0.337
    1UNL    H34   65  -0.160  -0.440  -0.316
   0.00000   0.00000   0.00000   0.00000   0.00000   0.00000   0.00000   0.00000   0.00000
Generated with MDTraj, t= 77.0
 65
    1UNL     C1    1  -0.214  -0.404   0.240
    1UNL     C2    2  -0.196  -0.374   0.113
    1UNL     C3    3  -0.162  -0.242   0.057
    1UNL     C4    4  -0.024  -0.194   0.106
    1UNL     C5    5  -0.267  -0.138   0.107
    1UNL     C6    6  -0.241   0.007   0.058
    1UNL     C7    7  -0.239   0.035  -0.082
    1UNL     C8    8  -0.218   0.159  -0.136
    1UNL     C9    9  -0.218   0.287  -0.051
    1UNL     O1   10  -0.135   0.274   0.066
    1UNL     O2   11  -0.158  -0.240  -0.098
    1UNL    C10   12  -0.043  -0.269  -0.182
    1UNL     O3   13   0.069  -0.190  -0.153
    1UNL    C11   14   0.058  -0.056  -0.191
    1UNL    C12   15   0.156   0.039  -0.120
    1UNL     O4   16   0.126   0.033   0.022
    1UNL    C13   17   0.221   0.093   0.110
    1UNL     O5   18   0.205   0.061   0.248
    1UNL    C14   19   0.189   0.185   0.327
    1UNL    C15   20   0.264   0.296   0.245
    1UNL     O6   21   0.202   0.419   0.277
    1UNL    C16   22   0.414   0.298   0.298
    1UNL     O7   23   0.419   0.314   0.438
    1UNL    C17   24   0.248   0.244   0.100
    1UNL     O8   25   0.147   0.321   0.039
    1UNL    C18   26   0.050  -0.043  -0.343
    1UNL     O9   27   0.167   0.009  -0.399
    1UNL    C19   28   0.029  -0.180  -0.413
    1UNL    O10   29  -0.014  -0.153  -0.545
    1UNL    C20   30  -0.086  -0.252  -0.335
    1UNL    O11   31  -0.109  -0.372  -0.407
    1UNL     H1   32  -0.246  -0.496   0.281
    1UNL     H2   33  -0.202  -0.325   0.314
    1UNL     H3   34  -0.200  -0.447   0.042
    1UNL     H4   35  -0.004  -0.225   0.216
    1UNL     H5   36   0.058  -0.224   0.046
    1UNL     H6   37  -0.020  -0.090   0.098
    1UNL     H7   38  -0.264  -0.135   0.213
    1UNL     H8   39  -0.361  -0.174   0.060
    1UNL     H9   40  -0.146   0.032   0.110
    1UNL    H10   41  -0.317   0.068   0.116
    1UNL    H11   42  -0.228  -0.051  -0.144
    1UNL    H12   43  -0.210   0.166  -0.241
    1UNL    H13   44  -0.185   0.381  -0.105
    1UNL    H14   45  -0.312   0.314  -0.008
    1UNL    H15   46  -0.044   0.281   0.049
    1UNL    H16   47  -0.018  -0.374  -0.154
    1UNL    H17   48  -0.043  -0.037  -0.148
    1UNL    H18   49   0.260   0.026  -0.145
    1UNL    H19   50   0.141   0.139  -0.150
    1UNL    H20   51   0.310   0.032   0.081
    1UNL    H21   52   0.075   0.203   0.338
    1UNL    H22   53   0.233   0.176   0.431
    1UNL    H23   54   0.224   0.439   0.369
    1UNL    H24   55   0.471   0.205   0.277
    1UNL    H25   56   0.464   0.387   0.255
    1UNL    H26   57   0.515   0.309   0.481
    1UNL    H27   58   0.348   0.267   0.053
    1UNL    H28   59   0.166   0.411   0.070
    1UNL    H29   60  -0.029   0.032  -0.374
    1UNL    H30   61   0.230  -0.069  -0.418
    1UNL    H31   62   0.109  -0.245  -0.410
    1UNL    H32   63   0.052  -0.097  -0.602
    1UNL    H33   64  -0.174  -0.190  -0.330
    1UNL    H34   65  -0.186  -0.423  -0.364
   0.00000   0.00000   0.00000   0.00000   0.00000   0.00000   0.00000   0.00000   0.00000
Generated with MDTraj, t= 78.0
 65
    1UNL     C1    1  -0.178  -0.438   0.176
    1UNL     C2    2  -0.188  -0.378   0.061
    1UNL     C3    3  -0.163  -0.229   0.042
    1UNL     C4    4  -0.028  -0.190   0.101
    1UNL     C5    5  -0.278  -0.142   0.113
    1UNL     C6    6  -0.261   0.003   0.073
    1UNL     C7    7  -0.266   0.036  -0.066
    1UNL     C8    8  -0.234   0.154  -0.125
    1UNL     C9    9  -0.177   0.266  -0.049
    1UNL     O1   10  -0.121   0.245   0.077
    1UNL     O2   11  -0.165  -0.196  -0.096
    1UNL    C10   12  -0.052  -0.256  -0.165
    1UNL     O3   13   0.062  -0.179  -0.130
    1UNL    C11   14   0.047  -0.044  -0.179
    1UNL    C12   15   0.153   0.047  -0.112
    1UNL     O4   16   0.122   0.054   0.023
    1UNL    C13   17   0.233   0.088   0.104
    1UNL     O5   18   0.199   0.060   0.238
    1UNL    C14   19   0.186   0.177   0.311
    1UNL    C15   20   0.268   0.289   0.235
    1UNL     O6   21   0.208   0.425   0.245
    1UNL    C16   22   0.406   0.295   0.306
    1UNL     O7   23   0.386   0.328   0.437
    1UNL    C17   24   0.270   0.240   0.095
    1UNL     O8   25   0.174   0.309   0.010
    1UNL    C18   26   0.054  -0.036  -0.336
    1UNL     O9   27   0.181   0.010  -0.391
    1UNL    C19   28   0.029  -0.180  -0.398
    1UNL    O10   29  -0.003  -0.161  -0.533
    1UNL    C20   30  -0.089  -0.248  -0.315
    1UNL    O11   31  -0.125  -0.377  -0.365
    1UNL     H1   32  -0.181  -0.545   0.200
    1UNL     H2   33  -0.152  -0.377   0.258
    1UNL     H3   34  -0.221  -0.446  -0.023
    1UNL     H4   35  -0.038  -0.193   0.213
    1UNL     H5   36   0.046  -0.256   0.064
    1UNL     H6   37  -0.009  -0.085   0.061
    1UNL     H7   38  -0.271  -0.162   0.214
    1UNL     H8   39  -0.373  -0.185   0.072
    1UNL     H9   40  -0.164   0.038   0.111
    1UNL    H10   41  -0.344   0.056   0.131
    1UNL    H11   42  -0.326  -0.036  -0.122
    1UNL    H12   43  -0.270   0.173  -0.228
    1UNL    H13   44  -0.099   0.324  -0.108
    1UNL    H14   45  -0.254   0.337  -0.028
    1UNL    H15   46  -0.022   0.211   0.074
    1UNL    H16   47  -0.033  -0.364  -0.140
    1UNL    H17   48  -0.057  -0.023  -0.145
    1UNL    H18   49   0.251   0.005  -0.119
    1UNL    H19   50   0.170   0.141  -0.155
    1UNL    H20   51   0.318   0.023   0.071
    1UNL    H21   52   0.075   0.213   0.309
    1UNL    H22   53   0.217   0.160   0.419
    1UNL    H23   54   0.211   0.442   0.340
    1UNL    H24   55   0.446   0.194   0.301
    1UNL    H25   56   0.472   0.376   0.270
    1UNL    H26   57   0.462   0.319   0.503
    1UNL    H27   58   0.370   0.257   0.049
    1UNL    H28   59   0.139   0.389   0.065
    1UNL    H29   60  -0.019   0.042  -0.364
    1UNL    H30   61   0.231  -0.073  -0.407
    1UNL    H31   62   0.115  -0.235  -0.390
    1UNL    H32   63   0.067  -0.099  -0.579
    1UNL    H33   64  -0.172  -0.180  -0.338
    1UNL    H34   65  -0.185  -0.428  -0.302
   0.00000   0.00000   0.00000   0.00000   0.00000   0.00000   0.00000   0.00000   0.00000
Generated with MDTraj, t= 79.0
 65
    1UNL     C1    1  -0.140  -0.463   0.109
    1UNL     C2    2  -0.216  -0.369   0.054
    1UNL     C3    3  -0.178  -0.222   0.051
    1UNL     C4    4  -0.044  -0.203   0.128
    1UNL     C5    5  -0.298  -0.144   0.116
    1UNL     C6    6  -0.294   0.008   0.105
    1UNL     C7    7  -0.309   0.047  -0.034
    1UNL     C8    8  -0.262   0.163  -0.089
    1UNL     C9    9  -0.176   0.265  -0.009
    1UNL     O1   10  -0.071   0.219   0.066
    1UNL     O2   11  -0.174  -0.185  -0.092
    1UNL    C10   12  -0.052  -0.232  -0.163
    1UNL     O3   13   0.067  -0.159  -0.138
    1UNL    C11   14   0.065  -0.031  -0.200
    1UNL    C12   15   0.164   0.061  -0.121
    1UNL     O4   16   0.122   0.053   0.014
    1UNL    C13   17   0.228   0.073   0.111
    1UNL     O5   18   0.184   0.057   0.247
    1UNL    C14   19   0.168   0.181   0.310
    1UNL    C15   20   0.260   0.283   0.237
    1UNL     O6   21   0.200   0.409   0.222
    1UNL    C16   22   0.397   0.303   0.313
    1UNL     O7   23   0.378   0.385   0.427
    1UNL    C17   24   0.285   0.220   0.098
    1UNL     O8   25   0.219   0.291  -0.006
    1UNL    C18   26   0.075  -0.040  -0.352
    1UNL     O9   27   0.212  -0.014  -0.392
    1UNL    C19   28   0.023  -0.179  -0.407
    1UNL    O10   29  -0.018  -0.170  -0.538
    1UNL    C20   30  -0.085  -0.240  -0.313
    1UNL    O11   31  -0.103  -0.376  -0.353
    1UNL     H1   32  -0.159  -0.570   0.103
    1UNL     H2   33  -0.051  -0.442   0.160
    1UNL     H3   34  -0.309  -0.401   0.009
    1UNL     H4   35  -0.068  -0.203   0.232
    1UNL     H5   36   0.037  -0.279   0.112
    1UNL     H6   37   0.003  -0.103   0.101
    1UNL     H7   38  -0.296  -0.180   0.214
    1UNL     H8   39  -0.386  -0.192   0.069
    1UNL     H9   40  -0.198   0.043   0.145
    1UNL    H10   41  -0.382   0.059   0.157
    1UNL    H11   42  -0.366  -0.018  -0.097
    1UNL    H12   43  -0.276   0.171  -0.194
    1UNL    H13   44  -0.133   0.338  -0.083
    1UNL    H14   45  -0.236   0.326   0.055
    1UNL    H15   46  -0.031   0.132   0.034
    1UNL    H16   47  -0.029  -0.335  -0.123
    1UNL    H17   48  -0.041  -0.000  -0.178
    1UNL    H18   49   0.267   0.030  -0.129
    1UNL    H19   50   0.174   0.159  -0.158
    1UNL    H20   51   0.311   0.002   0.087
    1UNL    H21   52   0.059   0.212   0.287
    1UNL    H22   53   0.183   0.180   0.422
    1UNL    H23   54   0.232   0.464   0.301
    1UNL    H24   55   0.440   0.207   0.345
    1UNL    H25   56   0.460   0.350   0.238
    1UNL    H26   57   0.460   0.385   0.472
    1UNL    H27   58   0.394   0.227   0.084
    1UNL    H28   59   0.129   0.261   0.019
    1UNL    H29   60   0.010   0.037  -0.393
    1UNL    H30   61   0.268  -0.091  -0.392
    1UNL    H31   62   0.100  -0.248  -0.401
    1UNL    H32   63   0.055  -0.124  -0.592
    1UNL    H33   64  -0.183  -0.188  -0.321
    1UNL    H34   65  -0.142  -0.418  -0.275
   0.00000   0.00000   0.00000   0.00000   0.00000   0.00000   0.00000   0.00000   0.00000
Generated with MDTraj, t= 80.0
 65
    1UNL     C1    1  -0.109  -0.455   0.048
    1UNL     C2    2  -0.208  -0.363   0.053
    1UNL     C3    3  -0.176  -0.218   0.047
    1UNL     C4    4  -0.041  -0.191   0.123
    1UNL     C5    5  -0.298  -0.148   0.112
    1UNL     C6    6  -0.302   0.009   0.103
    1UNL     C7    7  -0.306   0.062  -0.032
    1UNL     C8    8  -0.255   0.181  -0.067
    1UNL     C9    9  -0.206   0.284   0.035
    1UNL     O1   10  -0.132   0.231   0.138
    1UNL     O2   11  -0.173  -0.175  -0.097
    1UNL    C10   12  -0.068  -0.244  -0.174
    1UNL     O3   13   0.059  -0.190  -0.143
    1UNL    C11   14   0.066  -0.057  -0.190
    1UNL    C12   15   0.174   0.026  -0.113
    1UNL     O4   16   0.136   0.054   0.026
    1UNL    C13   17   0.245   0.073   0.110
    1UNL     O5   18   0.208   0.059   0.251
    1UNL    C14   19   0.175   0.186   0.299
    1UNL    C15   20   0.258   0.288   0.223
    1UNL     O6   21   0.191   0.412   0.200
    1UNL    C16   22   0.383   0.326   0.315
    1UNL     O7   23   0.344   0.409   0.426
    1UNL    C17   24   0.305   0.214   0.094
    1UNL     O8   25   0.269   0.285  -0.022
    1UNL    C18   26   0.089  -0.057  -0.342
    1UNL     O9   27   0.230  -0.058  -0.370
    1UNL    C19   28   0.020  -0.184  -0.411
    1UNL    O10   29  -0.025  -0.163  -0.545
    1UNL    C20   30  -0.099  -0.240  -0.323
    1UNL    O11   31  -0.123  -0.378  -0.373
    1UNL     H1   32  -0.125  -0.559   0.049
    1UNL     H2   33  -0.006  -0.418   0.051
    1UNL     H3   34  -0.307  -0.385   0.032
    1UNL     H4   35  -0.034  -0.218   0.228
    1UNL     H5   36   0.050  -0.252   0.082
    1UNL     H6   37  -0.005  -0.088   0.114
    1UNL     H7   38  -0.308  -0.173   0.216
    1UNL     H8   39  -0.384  -0.189   0.060
    1UNL     H9   40  -0.213   0.050   0.151
    1UNL    H10   41  -0.401   0.038   0.154
    1UNL    H11   42  -0.325  -0.009  -0.114
    1UNL    H12   43  -0.257   0.200  -0.177
    1UNL    H13   44  -0.142   0.360  -0.017
    1UNL    H14   45  -0.286   0.342   0.073
    1UNL    H15   46  -0.046   0.191   0.106
    1UNL    H16   47  -0.061  -0.353  -0.144
    1UNL    H17   48  -0.034  -0.009  -0.169
    1UNL    H18   49   0.276  -0.012  -0.129
    1UNL    H19   50   0.192   0.121  -0.162
    1UNL    H20   51   0.310  -0.013   0.088
    1UNL    H21   52   0.064   0.205   0.287
    1UNL    H22   53   0.204   0.209   0.403
    1UNL    H23   54   0.205   0.468   0.278
    1UNL    H24   55   0.423   0.232   0.351
    1UNL    H25   56   0.455   0.376   0.253
    1UNL    H26   57   0.428   0.432   0.478
    1UNL    H27   58   0.413   0.200   0.096
    1UNL    H28   59   0.215   0.360   0.019
    1UNL    H29   60   0.048   0.030  -0.388
    1UNL    H30   61   0.277  -0.143  -0.359
    1UNL    H31   62   0.088  -0.260  -0.412
    1UNL    H32   63   0.048  -0.128  -0.597
    1UNL    H33   64  -0.194  -0.184  -0.344
    1UNL    H34   65  -0.201  -0.412  -0.331
   0.00000   0.00000   0.00000   0.00000   0.00000   0.00000   0.00000   0.00000   0.00000
Generated with MDTraj, t= 81.0
 65
    1UNL     C1    1  -0.084  -0.456   0.065
    1UNL     C2    2  -0.191  -0.379   0.085
    1UNL     C3    3  -0.182  -0.232   0.033
    1UNL     C4    4  -0.054  -0.166   0.086
    1UNL     C5    5  -0.314  -0.158   0.081
    1UNL     C6    6  -0.305   0.001   0.084
    1UNL     C7    7  -0.258   0.062  -0.036
    1UNL     C8    8  -0.217   0.189  -0.042
    1UNL     C9    9  -0.212   0.264   0.084
    1UNL     O1   10  -0.111   0.222   0.170
    1UNL     O2   11  -0.187  -0.224  -0.108
    1UNL    C10   12  -0.068  -0.247  -0.179
    1UNL     O3   13   0.051  -0.184  -0.129
    1UNL    C11   14   0.064  -0.056  -0.186
    1UNL    C12   15   0.167   0.024  -0.106
    1UNL     O4   16   0.122   0.064   0.020
    1UNL    C13   17   0.227   0.075   0.115
    1UNL     O5   18   0.185   0.065   0.250
    1UNL    C14   19   0.187   0.194   0.310
    1UNL    C15   20   0.260   0.297   0.217
    1UNL     O6   21   0.176   0.394   0.154
    1UNL    C16   22   0.376   0.366   0.295
    1UNL     O7   23   0.324   0.407   0.412
    1UNL    C17   24   0.315   0.208   0.103
    1UNL     O8   25   0.290   0.260  -0.031
    1UNL    C18   26   0.111  -0.066  -0.335
    1UNL     O9   27   0.250  -0.086  -0.353
    1UNL    C19   28   0.026  -0.185  -0.411
    1UNL    O10   29  -0.012  -0.136  -0.542
    1UNL    C20   30  -0.102  -0.216  -0.325
    1UNL    O11   31  -0.178  -0.329  -0.378
    1UNL     H1   32  -0.087  -0.561   0.082
    1UNL     H2   33   0.001  -0.412   0.012
    1UNL     H3   34  -0.291  -0.408   0.136
    1UNL     H4   35  -0.065  -0.123   0.189
    1UNL     H5   36   0.026  -0.244   0.103
    1UNL     H6   37  -0.019  -0.090   0.020
    1UNL     H7   38  -0.342  -0.192   0.183
    1UNL     H8   39  -0.394  -0.181   0.016
    1UNL     H9   40  -0.224   0.020   0.155
    1UNL    H10   41  -0.405   0.043   0.120
    1UNL    H11   42  -0.276   0.011  -0.129
    1UNL    H12   43  -0.206   0.226  -0.140
    1UNL    H13   44  -0.205   0.374   0.072
    1UNL    H14   45  -0.299   0.258   0.141
    1UNL    H15   46  -0.033   0.200   0.115
    1UNL    H16   47  -0.045  -0.355  -0.166
    1UNL    H17   48  -0.027   0.007  -0.183
    1UNL    H18   49   0.255  -0.045  -0.096
    1UNL    H19   50   0.226   0.105  -0.157
    1UNL    H20   51   0.290  -0.009   0.087
    1UNL    H21   52   0.085   0.230   0.323
    1UNL    H22   53   0.237   0.192   0.405
    1UNL    H23   54   0.139   0.447   0.224
    1UNL    H24   55   0.447   0.290   0.321
    1UNL    H25   56   0.413   0.448   0.235
    1UNL    H26   57   0.373   0.475   0.475
    1UNL    H27   58   0.421   0.195   0.112
    1UNL    H28   59   0.309   0.357  -0.022
    1UNL    H29   60   0.089   0.025  -0.383
    1UNL    H30   61   0.270  -0.180  -0.324
    1UNL    H31   62   0.083  -0.270  -0.420
    1UNL    H32   63   0.063  -0.110  -0.589
    1UNL    H33   64  -0.169  -0.124  -0.335
    1UNL    H34   65  -0.272  -0.325  -0.351
   0.00000   0.00000   0.00000   0.00000   0.00000   0.00000   0.00000   0.00000   0.00000
Generated with MDTraj, t= 82.0
 65
    1UNL     C1    1  -0.072  -0.447   0.093
    1UNL     C2    2  -0.179  -0.376   0.053
    1UNL     C3    3  -0.185  -0.226   0.048
    1UNL     C4    4  -0.058  -0.168   0.121
    1UNL     C5    5  -0.319  -0.168   0.105
    1UNL     C6    6  -0.323  -0.012   0.102
    1UNL     C7    7  -0.274   0.045  -0.020
    1UNL     C8    8  -0.192   0.153  -0.029
    1UNL     C9    9  -0.150   0.241   0.083
    1UNL     O1   10  -0.084   0.172   0.185
    1UNL     O2   11  -0.188  -0.191  -0.100
    1UNL    C10   12  -0.078  -0.229  -0.184
    1UNL     O3   13   0.049  -0.172  -0.142
    1UNL    C11   14   0.072  -0.045  -0.199
    1UNL    C12   15   0.166   0.046  -0.114
    1UNL     O4   16   0.113   0.068   0.016
    1UNL    C13   17   0.205   0.060   0.122
    1UNL     O5   18   0.155   0.062   0.260
    1UNL    C14   19   0.173   0.193   0.311
    1UNL    C15   20   0.253   0.283   0.210
    1UNL     O6   21   0.168   0.384   0.143
    1UNL    C16   22   0.363   0.363   0.288
    1UNL     O7   23   0.306   0.474   0.361
    1UNL    C17   24   0.304   0.179   0.106
    1UNL     O8   25   0.296   0.241  -0.024
    1UNL    C18   26   0.124  -0.070  -0.343
    1UNL     O9   27   0.250  -0.129  -0.343
    1UNL    C19   28   0.026  -0.173  -0.419
    1UNL    O10   29   0.015  -0.122  -0.549
    1UNL    C20   30  -0.100  -0.189  -0.338
    1UNL    O11   31  -0.186  -0.282  -0.394
    1UNL     H1   32  -0.082  -0.555   0.103
    1UNL     H2   33   0.022  -0.401   0.096
    1UNL     H3   34  -0.270  -0.422   0.056
    1UNL     H4   35  -0.049  -0.221   0.222
    1UNL     H5   36   0.030  -0.190   0.069
    1UNL     H6   37  -0.073  -0.059   0.134
    1UNL     H7   38  -0.346  -0.210   0.207
    1UNL     H8   39  -0.394  -0.215   0.049
    1UNL     H9   40  -0.271   0.027   0.188
    1UNL    H10   41  -0.430   0.030   0.109
    1UNL    H11   42  -0.288  -0.009  -0.113
    1UNL    H12   43  -0.138   0.169  -0.124
    1UNL    H13   44  -0.082   0.320   0.047
    1UNL    H14   45  -0.230   0.294   0.118
    1UNL    H15   46  -0.003   0.123   0.145
    1UNL    H16   47  -0.066  -0.341  -0.173
    1UNL    H17   48  -0.020   0.012  -0.197
    1UNL    H18   49   0.269  -0.001  -0.100
    1UNL    H19   50   0.200   0.146  -0.156
    1UNL    H20   51   0.250  -0.035   0.098
    1UNL    H21   52   0.082   0.243   0.332
    1UNL    H22   53   0.233   0.189   0.398
    1UNL    H23   54   0.138   0.438   0.219
    1UNL    H24   55   0.421   0.303   0.357
    1UNL    H25   56   0.434   0.400   0.215
    1UNL    H26   57   0.374   0.535   0.387
    1UNL    H27   58   0.405   0.159   0.134
    1UNL    H28   59   0.266   0.330  -0.007
    1UNL    H29   60   0.133   0.022  -0.392
    1UNL    H30   61   0.245  -0.194  -0.265
    1UNL    H31   62   0.071  -0.265  -0.428
    1UNL    H32   63   0.099  -0.118  -0.591
    1UNL    H33   64  -0.151  -0.088  -0.350
    1UNL    H34   65  -0.278  -0.253  -0.363
   0.00000   0.00000   0.00000   0.00000   0.00000   0.00000   0.00000   0.00000   0.00000
Generated with MDTraj, t= 83.0
 65
    1UNL     C1    1  -0.095  -0.455   0.075
    1UNL     C2    2  -0.186  -0.375   0.021
    1UNL     C3    3  -0.180  -0.222   0.023
    1UNL     C4    4  -0.061  -0.164   0.097
    1UNL     C5    5  -0.307  -0.178   0.102
    1UNL     C6    6  -0.331  -0.026   0.116
    1UNL     C7    7  -0.322   0.057  -0.009
    1UNL     C8    8  -0.239   0.168  -0.025
    1UNL     C9    9  -0.144   0.229   0.083
    1UNL     O1   10  -0.124   0.148   0.198
    1UNL     O2   11  -0.178  -0.164  -0.111
    1UNL    C10   12  -0.073  -0.218  -0.184
    1UNL     O3   13   0.055  -0.163  -0.136
    1UNL    C11   14   0.091  -0.045  -0.193
    1UNL    C12   15   0.202   0.014  -0.103
    1UNL     O4   16   0.143   0.072   0.014
    1UNL    C13   17   0.230   0.071   0.124
    1UNL     O5   18   0.168   0.070   0.258
    1UNL    C14   19   0.188   0.188   0.329
    1UNL    C15   20   0.250   0.286   0.219
    1UNL     O6   21   0.148   0.348   0.143
    1UNL    C16   22   0.352   0.390   0.263
    1UNL     O7   23   0.299   0.505   0.330
    1UNL    C17   24   0.327   0.189   0.127
    1UNL     O8   25   0.341   0.237  -0.006
    1UNL    C18   26   0.129  -0.075  -0.336
    1UNL     O9   27   0.247  -0.149  -0.338
    1UNL    C19   28   0.022  -0.166  -0.411
    1UNL    O10   29  -0.004  -0.118  -0.541
    1UNL    C20   30  -0.106  -0.184  -0.335
    1UNL    O11   31  -0.193  -0.290  -0.386
    1UNL     H1   32  -0.099  -0.563   0.063
    1UNL     H2   33  -0.014  -0.419   0.133
    1UNL     H3   34  -0.258  -0.429  -0.044
    1UNL     H4   35  -0.070  -0.179   0.208
    1UNL     H5   36   0.033  -0.200   0.066
    1UNL     H6   37  -0.059  -0.054   0.072
    1UNL     H7   38  -0.310  -0.232   0.203
    1UNL     H8   39  -0.385  -0.223   0.049
    1UNL     H9   40  -0.264   0.019   0.191
    1UNL    H10   41  -0.433  -0.006   0.162
    1UNL    H11   42  -0.383   0.029  -0.094
    1UNL    H12   43  -0.239   0.221  -0.118
    1UNL    H13   44  -0.047   0.240   0.033
    1UNL    H14   45  -0.164   0.323   0.117
    1UNL    H15   46  -0.027   0.115   0.202
    1UNL    H16   47  -0.070  -0.331  -0.176
    1UNL    H17   48   0.005   0.018  -0.182
    1UNL    H18   49   0.291  -0.053  -0.073
    1UNL    H19   50   0.259   0.102  -0.148
    1UNL    H20   51   0.278  -0.027   0.114
    1UNL    H21   52   0.098   0.233   0.356
    1UNL    H22   53   0.252   0.181   0.412
    1UNL    H23   54   0.108   0.408   0.212
    1UNL    H24   55   0.431   0.340   0.319
    1UNL    H25   56   0.410   0.428   0.177
    1UNL    H26   57   0.376   0.560   0.345
    1UNL    H27   58   0.415   0.161   0.183
    1UNL    H28   59   0.251   0.278  -0.029
    1UNL    H29   60   0.143   0.011  -0.394
    1UNL    H30   61   0.256  -0.199  -0.254
    1UNL    H31   62   0.063  -0.261  -0.413
    1UNL    H32   63   0.078  -0.112  -0.596
    1UNL    H33   64  -0.170  -0.090  -0.345
    1UNL    H34   65  -0.289  -0.261  -0.378
   0.00000   0.00000   0.00000   0.00000   0.00000   0.00000   0.00000   0.00000   0.00000
Generated with MDTraj, t= 84.0
 65
    1UNL     C1    1  -0.122  -0.456   0.078
    1UNL     C2    2  -0.208  -0.371   0.019
    1UNL     C3    3  -0.204  -0.224   0.026
    1UNL     C4    4  -0.087  -0.162   0.106
    1UNL     C5    5  -0.333  -0.176   0.098
    1UNL     C6    6  -0.341  -0.032   0.137
    1UNL     C7    7  -0.343   0.063   0.026
    1UNL     C8    8  -0.255   0.161  -0.003
    1UNL     C9    9  -0.138   0.191   0.076
    1UNL     O1   10  -0.118   0.135   0.203
    1UNL     O2   11  -0.187  -0.172  -0.108
    1UNL    C10   12  -0.077  -0.224  -0.180
    1UNL     O3   13   0.059  -0.191  -0.134
    1UNL    C11   14   0.106  -0.064  -0.182
    1UNL    C12   15   0.215  -0.005  -0.090
    1UNL     O4   16   0.151   0.038   0.028
    1UNL    C13   17   0.241   0.063   0.128
    1UNL     O5   18   0.174   0.090   0.251
    1UNL    C14   19   0.203   0.214   0.300
    1UNL    C15   20   0.275   0.299   0.192
    1UNL     O6   21   0.172   0.360   0.124
    1UNL    C16   22   0.348   0.409   0.273
    1UNL     O7   23   0.258   0.495   0.337
    1UNL    C17   24   0.344   0.190   0.102
    1UNL     O8   25   0.337   0.243  -0.034
    1UNL    C18   26   0.146  -0.078  -0.335
    1UNL     O9   27   0.272  -0.138  -0.353
    1UNL    C19   28   0.035  -0.160  -0.411
    1UNL    O10   29   0.009  -0.083  -0.530
    1UNL    C20   30  -0.099  -0.177  -0.332
    1UNL    O11   31  -0.185  -0.270  -0.407
    1UNL     H1   32  -0.142  -0.559   0.099
    1UNL     H2   33  -0.029  -0.424   0.130
    1UNL     H3   34  -0.295  -0.414  -0.034
    1UNL     H4   35  -0.095  -0.175   0.211
    1UNL     H5   36   0.010  -0.212   0.078
    1UNL     H6   37  -0.066  -0.056   0.080
    1UNL     H7   38  -0.329  -0.234   0.195
    1UNL     H8   39  -0.427  -0.197   0.053
    1UNL     H9   40  -0.255  -0.005   0.202
    1UNL    H10   41  -0.432  -0.013   0.202
    1UNL    H11   42  -0.429   0.059  -0.038
    1UNL    H12   43  -0.284   0.227  -0.086
    1UNL    H13   44  -0.043   0.179   0.022
    1UNL    H14   45  -0.143   0.288   0.105
    1UNL    H15   46  -0.029   0.110   0.214
    1UNL    H16   47  -0.083  -0.337  -0.174
    1UNL    H17   48   0.016  -0.005  -0.182
    1UNL    H18   49   0.287  -0.086  -0.059
    1UNL    H19   50   0.286   0.077  -0.125
    1UNL    H20   51   0.310  -0.023   0.135
    1UNL    H21   52   0.114   0.262   0.324
    1UNL    H22   53   0.262   0.205   0.387
    1UNL    H23   54   0.140   0.429   0.183
    1UNL    H24   55   0.424   0.372   0.343
    1UNL    H25   56   0.402   0.476   0.204
    1UNL    H26   57   0.287   0.550   0.422
    1UNL    H27   58   0.443   0.182   0.147
    1UNL    H28   59   0.249   0.278  -0.051
    1UNL    H29   60   0.147   0.014  -0.386
    1UNL    H30   61   0.290  -0.207  -0.290
    1UNL    H31   62   0.077  -0.254  -0.422
    1UNL    H32   63   0.097  -0.070  -0.581
    1UNL    H33   64  -0.149  -0.076  -0.332
    1UNL    H34   65  -0.276  -0.276  -0.370
   0.00000   0.00000   0.00000   0.00000   0.00000   0.00000   0.00000   0.00000   0.00000
Generated with MDTraj, t= 85.0
 65
    1UNL     C1    1  -0.139  -0.469   0.084
    1UNL     C2    2  -0.198  -0.377   0.004
    1UNL     C3    3  -0.195  -0.226   0.028
    1UNL     C4    4  -0.079  -0.194   0.120
    1UNL     C5    5  -0.325  -0.178   0.088
    1UNL     C6    6  -0.322  -0.034   0.134
    1UNL     C7    7  -0.331   0.070   0.031
    1UNL     C8    8  -0.243   0.166   0.003
    1UNL     C9    9  -0.105   0.168   0.063
    1UNL     O1   10  -0.080   0.088   0.179
    1UNL     O2   11  -0.182  -0.157  -0.101
    1UNL    C10   12  -0.090  -0.213  -0.192
    1UNL     O3   13   0.041  -0.201  -0.143
    1UNL    C11   14   0.093  -0.072  -0.168
    1UNL    C12   15   0.197  -0.029  -0.062
    1UNL     O4   16   0.144   0.021   0.063
    1UNL    C13   17   0.242   0.075   0.141
    1UNL     O5   18   0.189   0.096   0.281
    1UNL    C14   19   0.168   0.234   0.299
    1UNL    C15   20   0.246   0.311   0.182
    1UNL     O6   21   0.148   0.375   0.104
    1UNL    C16   22   0.352   0.415   0.241
    1UNL     O7   23   0.302   0.503   0.334
    1UNL    C17   24   0.313   0.208   0.099
    1UNL     O8   25   0.304   0.229  -0.044
    1UNL    C18   26   0.144  -0.066  -0.320
    1UNL     O9   27   0.260  -0.139  -0.337
    1UNL    C19   28   0.035  -0.141  -0.406
    1UNL    O10   29   0.029  -0.082  -0.529
    1UNL    C20   30  -0.101  -0.160  -0.341
    1UNL    O11   31  -0.183  -0.244  -0.417
    1UNL     H1   32  -0.132  -0.565   0.042
    1UNL     H2   33  -0.095  -0.456   0.182
    1UNL     H3   34  -0.245  -0.412  -0.080
    1UNL     H4   35  -0.093  -0.217   0.223
    1UNL     H5   36   0.013  -0.251   0.079
    1UNL     H6   37  -0.059  -0.092   0.101
    1UNL     H7   38  -0.359  -0.233   0.179
    1UNL     H8   39  -0.400  -0.186   0.008
    1UNL     H9   40  -0.237  -0.020   0.205
    1UNL    H10   41  -0.413  -0.012   0.200
    1UNL    H11   42  -0.421   0.077  -0.031
    1UNL    H12   43  -0.270   0.240  -0.072
    1UNL    H13   44  -0.031   0.127  -0.009
    1UNL    H14   45  -0.082   0.266   0.081
    1UNL    H15   46   0.015   0.089   0.218
    1UNL    H16   47  -0.104  -0.327  -0.193
    1UNL    H17   48   0.004  -0.009  -0.167
    1UNL    H18   49   0.270  -0.108  -0.038
    1UNL    H19   50   0.263   0.050  -0.102
    1UNL    H20   51   0.320  -0.005   0.158
    1UNL    H21   52   0.066   0.259   0.290
    1UNL    H22   53   0.190   0.273   0.397
    1UNL    H23   54   0.115   0.449   0.162
    1UNL    H24   55   0.432   0.358   0.295
    1UNL    H25   56   0.411   0.468   0.161
    1UNL    H26   57   0.368   0.557   0.390
    1UNL    H27   58   0.419   0.192   0.130
    1UNL    H28   59   0.242   0.304  -0.073
    1UNL    H29   60   0.155   0.036  -0.347
    1UNL    H30   61   0.264  -0.213  -0.275
    1UNL    H31   62   0.071  -0.237  -0.420
    1UNL    H32   63   0.123  -0.070  -0.575
    1UNL    H33   64  -0.143  -0.058  -0.348
    1UNL    H34   65  -0.269  -0.254  -0.378
   0.00000   0.00000   0.00000   0.00000   0.00000   0.00000   0.00000   0.00000   0.00000
Generated with MDTraj, t= 86.0
 65
    1UNL     C1    1  -0.190  -0.487   0.073
    1UNL     C2    2  -0.229  -0.387  -0.002
    1UNL     C3    3  -0.208  -0.248   0.018
    1UNL     C4    4  -0.072  -0.222   0.086
    1UNL     C5    5  -0.321  -0.187   0.104
    1UNL     C6    6  -0.311  -0.037   0.130
    1UNL     C7    7  -0.302   0.036   0.002
    1UNL     C8    8  -0.216   0.138  -0.022
    1UNL     C9    9  -0.106   0.173   0.080
    1UNL     O1   10  -0.093   0.103   0.210
    1UNL     O2   11  -0.203  -0.186  -0.111
    1UNL    C10   12  -0.091  -0.218  -0.193
    1UNL     O3   13   0.039  -0.200  -0.128
    1UNL    C11   14   0.100  -0.074  -0.157
    1UNL    C12   15   0.209  -0.054  -0.054
    1UNL     O4   16   0.154   0.012   0.061
    1UNL    C13   17   0.247   0.074   0.144
    1UNL     O5   18   0.191   0.106   0.276
    1UNL    C14   19   0.206   0.242   0.305
    1UNL    C15   20   0.250   0.321   0.184
    1UNL     O6   21   0.141   0.387   0.122
    1UNL    C16   22   0.365   0.423   0.229
    1UNL     O7   23   0.312   0.536   0.290
    1UNL    C17   24   0.306   0.208   0.087
    1UNL     O8   25   0.248   0.236  -0.042
    1UNL    C18   26   0.153  -0.066  -0.306
    1UNL     O9   27   0.276  -0.126  -0.314
    1UNL    C19   28   0.041  -0.136  -0.398
    1UNL    O10   29   0.031  -0.066  -0.513
    1UNL    C20   30  -0.102  -0.139  -0.329
    1UNL    O11   31  -0.191  -0.207  -0.414
    1UNL     H1   32  -0.218  -0.590   0.040
    1UNL     H2   33  -0.146  -0.466   0.167
    1UNL     H3   34  -0.283  -0.410  -0.101
    1UNL     H4   35  -0.083  -0.249   0.191
    1UNL     H5   36   0.004  -0.287   0.042
    1UNL     H6   37  -0.046  -0.118   0.071
    1UNL     H7   38  -0.350  -0.243   0.194
    1UNL     H8   39  -0.408  -0.193   0.032
    1UNL     H9   40  -0.218  -0.010   0.182
    1UNL    H10   41  -0.386   0.008   0.204
    1UNL    H11   42  -0.372   0.012  -0.073
    1UNL    H12   43  -0.213   0.181  -0.120
    1UNL    H13   44  -0.015   0.153   0.016
    1UNL    H14   45  -0.106   0.271   0.107
    1UNL    H15   46   0.007   0.080   0.220
    1UNL    H16   47  -0.096  -0.332  -0.210
    1UNL    H17   48   0.018  -0.002  -0.141
    1UNL    H18   49   0.257  -0.145  -0.024
    1UNL    H19   50   0.287   0.010  -0.098
    1UNL    H20   51   0.334   0.005   0.163
    1UNL    H21   52   0.111   0.281   0.340
    1UNL    H22   53   0.272   0.255   0.395
    1UNL    H23   54   0.101   0.456   0.182
    1UNL    H24   55   0.442   0.376   0.295
    1UNL    H25   56   0.433   0.446   0.141
    1UNL    H26   57   0.382   0.596   0.301
    1UNL    H27   58   0.416   0.236   0.081
    1UNL    H28   59   0.158   0.260  -0.024
    1UNL    H29   60   0.164   0.040  -0.322
    1UNL    H30   61   0.283  -0.195  -0.243
    1UNL    H31   62   0.071  -0.235  -0.416
    1UNL    H32   63   0.119  -0.038  -0.555
    1UNL    H33   64  -0.133  -0.038  -0.307
    1UNL    H34   65  -0.176  -0.171  -0.503
   0.00000   0.00000   0.00000   0.00000   0.00000   0.00000   0.00000   0.00000   0.00000
Generated with MDTraj, t= 87.0
 65
    1UNL     C1    1  -0.250  -0.505   0.068
    1UNL     C2    2  -0.236  -0.408  -0.023
    1UNL     C3    3  -0.208  -0.262   0.014
    1UNL     C4    4  -0.086  -0.252   0.103
    1UNL     C5    5  -0.330  -0.197   0.077
    1UNL     C6    6  -0.304  -0.052   0.111
    1UNL     C7    7  -0.288   0.037  -0.003
    1UNL     C8    8  -0.197   0.134  -0.017
    1UNL     C9    9  -0.116   0.185   0.092
    1UNL     O1   10  -0.090   0.117   0.213
    1UNL     O2   11  -0.184  -0.194  -0.111
    1UNL    C10   12  -0.075  -0.233  -0.195
    1UNL     O3   13   0.053  -0.215  -0.133
    1UNL    C11   14   0.099  -0.079  -0.154
    1UNL    C12   15   0.203  -0.036  -0.047
    1UNL     O4   16   0.142   0.010   0.077
    1UNL    C13   17   0.233   0.079   0.162
    1UNL     O5   18   0.194   0.129   0.294
    1UNL    C14   19   0.259   0.250   0.321
    1UNL    C15   20   0.259   0.318   0.187
    1UNL     O6   21   0.133   0.374   0.151
    1UNL    C16   22   0.362   0.440   0.176
    1UNL     O7   23   0.323   0.548   0.259
    1UNL    C17   24   0.297   0.207   0.091
    1UNL     O8   25   0.237   0.235  -0.042
    1UNL    C18   26   0.153  -0.058  -0.300
    1UNL     O9   27   0.272  -0.123  -0.313
    1UNL    C19   28   0.049  -0.127  -0.404
    1UNL    O10   29   0.039  -0.044  -0.516
    1UNL    C20   30  -0.091  -0.146  -0.325
    1UNL    O11   31  -0.209  -0.187  -0.397
    1UNL     H1   32  -0.261  -0.603   0.024
    1UNL     H2   33  -0.255  -0.490   0.172
    1UNL     H3   34  -0.247  -0.436  -0.125
    1UNL     H4   35  -0.095  -0.319   0.191
    1UNL     H5   36  -0.007  -0.284   0.048
    1UNL     H6   37  -0.066  -0.147   0.133
    1UNL     H7   38  -0.348  -0.258   0.165
    1UNL     H8   39  -0.421  -0.208   0.007
    1UNL     H9   40  -0.231  -0.028   0.190
    1UNL    H10   41  -0.395  -0.005   0.163
    1UNL    H11   42  -0.339  -0.006  -0.091
    1UNL    H12   43  -0.188   0.180  -0.116
    1UNL    H13   44  -0.016   0.218   0.052
    1UNL    H14   45  -0.163   0.273   0.119
    1UNL    H15   46  -0.001   0.100   0.226
    1UNL    H16   47  -0.085  -0.342  -0.232
    1UNL    H17   48   0.004  -0.024  -0.135
    1UNL    H18   49   0.259  -0.122  -0.024
    1UNL    H19   50   0.272   0.036  -0.090
    1UNL    H20   51   0.309  -0.001   0.184
    1UNL    H21   52   0.205   0.299   0.404
    1UNL    H22   53   0.366   0.236   0.360
    1UNL    H23   54   0.123   0.453   0.204
    1UNL    H24   55   0.466   0.409   0.196
    1UNL    H25   56   0.372   0.466   0.066
    1UNL    H26   57   0.360   0.634   0.228
    1UNL    H27   58   0.406   0.188   0.059
    1UNL    H28   59   0.144   0.273  -0.035
    1UNL    H29   60   0.161   0.048  -0.323
    1UNL    H30   61   0.282  -0.188  -0.236
    1UNL    H31   62   0.095  -0.217  -0.434
    1UNL    H32   63   0.125  -0.022  -0.549
    1UNL    H33   64  -0.119  -0.047  -0.296
    1UNL    H34   65  -0.192  -0.265  -0.457
   0.00000   0.00000   0.00000   0.00000   0.00000   0.00000   0.00000   0.00000   0.00000
Generated with MDTraj, t= 88.0
 65
    1UNL     C1    1  -0.297  -0.504   0.062
    1UNL     C2    2  -0.256  -0.409  -0.022
    1UNL     C3    3  -0.213  -0.276   0.013
    1UNL     C4    4  -0.095  -0.280   0.103
    1UNL     C5    5  -0.326  -0.203   0.095
    1UNL     C6    6  -0.301  -0.049   0.115
    1UNL     C7    7  -0.275   0.035  -0.008
    1UNL     C8    8  -0.203   0.148   0.000
    1UNL     C9    9  -0.164   0.194   0.144
    1UNL     O1   10  -0.079   0.102   0.207
    1UNL     O2   11  -0.192  -0.191  -0.105
    1UNL    C10   12  -0.079  -0.216  -0.193
    1UNL     O3   13   0.042  -0.207  -0.128
    1UNL    C11   14   0.095  -0.078  -0.141
    1UNL    C12   15   0.215  -0.048  -0.037
    1UNL     O4   16   0.167   0.004   0.084
    1UNL    C13   17   0.264   0.082   0.151
    1UNL     O5   18   0.220   0.114   0.284
    1UNL    C14   19   0.240   0.256   0.312
    1UNL    C15   20   0.254   0.328   0.174
    1UNL     O6   21   0.136   0.391   0.123
    1UNL    C16   22   0.368   0.432   0.179
    1UNL     O7   23   0.320   0.546   0.250
    1UNL    C17   24   0.298   0.214   0.076
    1UNL     O8   25   0.235   0.228  -0.047
    1UNL    C18   26   0.137  -0.048  -0.290
    1UNL     O9   27   0.269  -0.100  -0.303
    1UNL    C19   28   0.045  -0.114  -0.398
    1UNL    O10   29   0.052  -0.035  -0.512
    1UNL    C20   30  -0.091  -0.148  -0.335
    1UNL    O11   31  -0.156  -0.227  -0.436
    1UNL     H1   32  -0.327  -0.598   0.022
    1UNL     H2   33  -0.312  -0.485   0.170
    1UNL     H3   34  -0.249  -0.432  -0.124
    1UNL     H4   35  -0.107  -0.345   0.189
    1UNL     H5   36  -0.011  -0.319   0.054
    1UNL     H6   37  -0.061  -0.181   0.140
    1UNL     H7   38  -0.339  -0.252   0.191
    1UNL     H8   39  -0.421  -0.212   0.029
    1UNL     H9   40  -0.220  -0.044   0.190
    1UNL    H10   41  -0.374   0.001   0.188
    1UNL    H11   42  -0.303  -0.003  -0.101
    1UNL    H12   43  -0.176   0.202  -0.086
    1UNL    H13   44  -0.125   0.301   0.145
    1UNL    H14   45  -0.248   0.200   0.207
    1UNL    H15   46   0.023   0.105   0.176
    1UNL    H16   47  -0.089  -0.329  -0.216
    1UNL    H17   48   0.011  -0.012  -0.108
    1UNL    H18   49   0.273  -0.131  -0.016
    1UNL    H19   50   0.276   0.025  -0.087
    1UNL    H20   51   0.353   0.019   0.162
    1UNL    H21   52   0.147   0.285   0.366
    1UNL    H22   53   0.324   0.271   0.392
    1UNL    H23   54   0.126   0.487   0.146
    1UNL    H24   55   0.456   0.396   0.233
    1UNL    H25   56   0.398   0.451   0.073
    1UNL    H26   57   0.373   0.637   0.240
    1UNL    H27   58   0.409   0.232   0.065
    1UNL    H28   59   0.153   0.275  -0.030
    1UNL    H29   60   0.144   0.060  -0.315
    1UNL    H30   61   0.274  -0.180  -0.244
    1UNL    H31   62   0.091  -0.208  -0.417
    1UNL    H32   63   0.140  -0.013  -0.530
    1UNL    H33   64  -0.148  -0.061  -0.315
    1UNL    H34   65  -0.210  -0.176  -0.506
   0.00000   0.00000   0.00000   0.00000   0.00000   0.00000   0.00000   0.00000   0.00000
Generated with MDTraj, t= 89.0
 65
    1UNL     C1    1  -0.305  -0.502   0.038
    1UNL     C2    2  -0.272  -0.406  -0.050
    1UNL     C3    3  -0.230  -0.262  -0.010
    1UNL     C4    4  -0.108  -0.272   0.082
    1UNL     C5    5  -0.340  -0.191   0.066
    1UNL     C6    6  -0.302  -0.058   0.125
    1UNL     C7    7  -0.266   0.042   0.029
    1UNL     C8    8  -0.198   0.152   0.053
    1UNL     C9    9  -0.153   0.209   0.182
    1UNL     O1   10  -0.074   0.125   0.261
    1UNL     O2   11  -0.191  -0.185  -0.124
    1UNL    C10   12  -0.073  -0.244  -0.197
    1UNL     O3   13   0.051  -0.219  -0.117
    1UNL    C11   14   0.101  -0.085  -0.130
    1UNL    C12   15   0.208  -0.056  -0.018
    1UNL     O4   16   0.161   0.030   0.084
    1UNL    C13   17   0.278   0.088   0.145
    1UNL     O5   18   0.260   0.120   0.284
    1UNL    C14   19   0.210   0.254   0.282
    1UNL    C15   20   0.250   0.328   0.150
    1UNL     O6   21   0.137   0.400   0.090
    1UNL    C16   22   0.362   0.423   0.187
    1UNL     O7   23   0.304   0.524   0.264
    1UNL    C17   24   0.303   0.219   0.058
    1UNL     O8   25   0.237   0.221  -0.063
    1UNL    C18   26   0.138  -0.046  -0.279
    1UNL     O9   27   0.276  -0.058  -0.311
    1UNL    C19   28   0.058  -0.128  -0.388
    1UNL    O10   29   0.027  -0.060  -0.511
    1UNL    C20   30  -0.076  -0.172  -0.330
    1UNL    O11   31  -0.141  -0.251  -0.431
    1UNL     H1   32  -0.334  -0.597   0.007
    1UNL     H2   33  -0.302  -0.487   0.145
    1UNL     H3   34  -0.276  -0.429  -0.162
    1UNL     H4   35  -0.133  -0.275   0.184
    1UNL     H5   36  -0.050  -0.368   0.064
    1UNL     H6   37  -0.041  -0.189   0.066
    1UNL     H7   38  -0.372  -0.253   0.151
    1UNL     H8   39  -0.423  -0.175  -0.012
    1UNL     H9   40  -0.233  -0.058   0.210
    1UNL    H10   41  -0.394  -0.032   0.190
    1UNL    H11   42  -0.305   0.032  -0.074
    1UNL    H12   43  -0.171   0.212  -0.035
    1UNL    H13   44  -0.083   0.300   0.171
    1UNL    H14   45  -0.236   0.248   0.239
    1UNL    H15   46  -0.001   0.102   0.209
    1UNL    H16   47  -0.088  -0.356  -0.217
    1UNL    H17   48   0.015  -0.020  -0.103
    1UNL    H18   49   0.239  -0.148   0.023
    1UNL    H19   50   0.294  -0.008  -0.063
    1UNL    H20   51   0.356   0.012   0.147
    1UNL    H21   52   0.102   0.254   0.312
    1UNL    H22   53   0.265   0.310   0.368
    1UNL    H23   54   0.139   0.492   0.123
    1UNL    H24   55   0.439   0.368   0.240
    1UNL    H25   56   0.404   0.485   0.103
    1UNL    H26   57   0.369   0.596   0.289
    1UNL    H27   58   0.413   0.230   0.043
    1UNL    H28   59   0.142   0.245  -0.044
    1UNL    H29   60   0.118   0.063  -0.305
    1UNL    H30   61   0.318  -0.118  -0.248
    1UNL    H31   62   0.110  -0.218  -0.414
    1UNL    H32   63   0.099  -0.019  -0.559
    1UNL    H33   64  -0.130  -0.083  -0.310
    1UNL    H34   65  -0.173  -0.196  -0.502
   0.00000   0.00000   0.00000   0.00000   0.00000   0.00000   0.00000   0.00000   0.00000
Generated with MDTraj, t= 90.0
 65
    1UNL     C1    1  -0.290  -0.493  -0.003
    1UNL     C2    2  -0.300  -0.372  -0.058
    1UNL     C3    3  -0.228  -0.253  -0.000
    1UNL     C4    4  -0.101  -0.288   0.083
    1UNL     C5    5  -0.333  -0.170   0.081
    1UNL     C6    6  -0.293  -0.034   0.123
    1UNL     C7    7  -0.231   0.057   0.025
    1UNL     C8    8  -0.164   0.163   0.070
    1UNL     C9    9  -0.134   0.191   0.214
    1UNL     O1   10  -0.075   0.077   0.272
    1UNL     O2   11  -0.189  -0.179  -0.115
    1UNL    C10   12  -0.082  -0.238  -0.195
    1UNL     O3   13   0.046  -0.229  -0.128
    1UNL    C11   14   0.085  -0.090  -0.128
    1UNL    C12   15   0.202  -0.053  -0.033
    1UNL     O4   16   0.158   0.027   0.077
    1UNL    C13   17   0.263   0.094   0.141
    1UNL     O5   18   0.239   0.128   0.274
    1UNL    C14   19   0.205   0.266   0.287
    1UNL    C15   20   0.245   0.336   0.149
    1UNL     O6   21   0.137   0.388   0.080
    1UNL    C16   22   0.348   0.436   0.177
    1UNL     O7   23   0.296   0.527   0.270
    1UNL    C17   24   0.305   0.219   0.059
    1UNL     O8   25   0.255   0.223  -0.069
    1UNL    C18   26   0.111  -0.043  -0.273
    1UNL     O9   27   0.249  -0.032  -0.306
    1UNL    C19   28   0.057  -0.143  -0.382
    1UNL    O10   29   0.064  -0.085  -0.513
    1UNL    C20   30  -0.084  -0.181  -0.337
    1UNL    O11   31  -0.138  -0.274  -0.430
    1UNL     H1   32  -0.339  -0.584  -0.043
    1UNL     H2   33  -0.224  -0.513   0.079
    1UNL     H3   34  -0.363  -0.354  -0.136
    1UNL     H4   35  -0.136  -0.336   0.170
    1UNL     H5   36  -0.025  -0.357   0.030
    1UNL     H6   37  -0.063  -0.193   0.109
    1UNL     H7   38  -0.360  -0.235   0.167
    1UNL     H8   39  -0.421  -0.150   0.012
    1UNL     H9   40  -0.222  -0.047   0.204
    1UNL    H10   41  -0.368   0.028   0.184
    1UNL    H11   42  -0.259   0.048  -0.076
    1UNL    H12   43  -0.120   0.229  -0.000
    1UNL    H13   44  -0.071   0.286   0.229
    1UNL    H14   45  -0.221   0.204   0.282
    1UNL    H15   46   0.018   0.069   0.225
    1UNL    H16   47  -0.102  -0.350  -0.213
    1UNL    H17   48  -0.003  -0.035  -0.090
    1UNL    H18   49   0.245  -0.143   0.005
    1UNL    H19   50   0.282   0.007  -0.081
    1UNL    H20   51   0.343   0.023   0.138
    1UNL    H21   52   0.098   0.262   0.318
    1UNL    H22   53   0.263   0.300   0.380
    1UNL    H23   54   0.123   0.467   0.134
    1UNL    H24   55   0.437   0.398   0.224
    1UNL    H25   56   0.366   0.490   0.082
    1UNL    H26   57   0.365   0.587   0.287
    1UNL    H27   58   0.414   0.219   0.052
    1UNL    H28   59   0.160   0.244  -0.060
    1UNL    H29   60   0.063   0.059  -0.292
    1UNL    H30   61   0.300  -0.100  -0.261
    1UNL    H31   62   0.122  -0.230  -0.376
    1UNL    H32   63   0.160  -0.048  -0.519
    1UNL    H33   64  -0.146  -0.094  -0.343
    1UNL    H34   65  -0.085  -0.353  -0.434
   0.00000   0.00000   0.00000   0.00000   0.00000   0.00000   0.00000   0.00000   0.00000
Generated with MDTraj, t= 91.0
 65
    1UNL     C1    1  -0.283  -0.500  -0.016
    1UNL     C2    2  -0.302  -0.378  -0.064
    1UNL     C3    3  -0.244  -0.252  -0.010
    1UNL     C4    4  -0.133  -0.284   0.096
    1UNL     C5    5  -0.355  -0.168   0.061
    1UNL     C6    6  -0.307  -0.038   0.127
    1UNL     C7    7  -0.220   0.047   0.041
    1UNL     C8    8  -0.147   0.154   0.078
    1UNL     C9    9  -0.123   0.189   0.223
    1UNL     O1   10  -0.040   0.089   0.278
    1UNL     O2   11  -0.198  -0.169  -0.125
    1UNL    C10   12  -0.086  -0.228  -0.192
    1UNL     O3   13   0.039  -0.209  -0.125
    1UNL    C11   14   0.073  -0.067  -0.141
    1UNL    C12   15   0.196  -0.033  -0.056
    1UNL     O4   16   0.158   0.019   0.070
    1UNL    C13   17   0.262   0.080   0.153
    1UNL     O5   18   0.229   0.119   0.288
    1UNL    C14   19   0.243   0.266   0.304
    1UNL    C15   20   0.258   0.330   0.165
    1UNL     O6   21   0.128   0.365   0.121
    1UNL    C16   22   0.347   0.449   0.165
    1UNL     O7   23   0.278   0.563   0.228
    1UNL    C17   24   0.313   0.210   0.081
    1UNL     O8   25   0.268   0.227  -0.044
    1UNL    C18   26   0.103  -0.034  -0.292
    1UNL     O9   27   0.247  -0.025  -0.311
    1UNL    C19   28   0.054  -0.145  -0.386
    1UNL    O10   29   0.075  -0.115  -0.524
    1UNL    C20   30  -0.086  -0.194  -0.345
    1UNL    O11   31  -0.118  -0.306  -0.423
    1UNL     H1   32  -0.326  -0.592  -0.050
    1UNL     H2   33  -0.218  -0.509   0.064
    1UNL     H3   34  -0.372  -0.370  -0.149
    1UNL     H4   35  -0.164  -0.358   0.171
    1UNL     H5   36  -0.053  -0.332   0.037
    1UNL     H6   37  -0.100  -0.196   0.145
    1UNL     H7   38  -0.400  -0.230   0.145
    1UNL     H8   39  -0.432  -0.146  -0.015
    1UNL     H9   40  -0.257  -0.046   0.223
    1UNL    H10   41  -0.397   0.027   0.153
    1UNL    H11   42  -0.217   0.021  -0.065
    1UNL    H12   43  -0.103   0.226   0.009
    1UNL    H13   44  -0.070   0.287   0.227
    1UNL    H14   45  -0.223   0.210   0.274
    1UNL    H15   46   0.033   0.067   0.225
    1UNL    H16   47  -0.105  -0.341  -0.190
    1UNL    H17   48  -0.011  -0.009  -0.104
    1UNL    H18   49   0.261  -0.119  -0.035
    1UNL    H19   50   0.261   0.048  -0.100
    1UNL    H20   51   0.338   0.005   0.164
    1UNL    H21   52   0.153   0.306   0.354
    1UNL    H22   53   0.332   0.286   0.369
    1UNL    H23   54   0.106   0.451   0.169
    1UNL    H24   55   0.437   0.421   0.215
    1UNL    H25   56   0.366   0.497   0.068
    1UNL    H26   57   0.342   0.635   0.234
    1UNL    H27   58   0.418   0.230   0.079
    1UNL    H28   59   0.171   0.240  -0.040
    1UNL    H29   60   0.048   0.063  -0.320
    1UNL    H30   61   0.280  -0.118  -0.322
    1UNL    H31   62   0.111  -0.235  -0.361
    1UNL    H32   63   0.115  -0.018  -0.531
    1UNL    H33   64  -0.161  -0.120  -0.367
    1UNL    H34   65  -0.148  -0.279  -0.511
   0.00000   0.00000   0.00000   0.00000   0.00000   0.00000   0.00000   0.00000   0.00000
Generated with MDTraj, t= 92.0
 65
    1UNL     C1    1  -0.281  -0.493  -0.007
    1UNL     C2    2  -0.311  -0.377  -0.061
    1UNL     C3    3  -0.244  -0.242  -0.019
    1UNL     C4    4  -0.137  -0.264   0.085
    1UNL     C5    5  -0.361  -0.157   0.040
    1UNL     C6    6  -0.309  -0.037   0.128
    1UNL     C7    7  -0.223   0.054   0.041
    1UNL     C8    8  -0.158   0.163   0.076
    1UNL     C9    9  -0.136   0.187   0.221
    1UNL     O1   10  -0.095   0.064   0.284
    1UNL     O2   11  -0.193  -0.170  -0.134
    1UNL    C10   12  -0.078  -0.233  -0.183
    1UNL     O3   13   0.046  -0.202  -0.118
    1UNL    C11   14   0.080  -0.064  -0.151
    1UNL    C12   15   0.191  -0.028  -0.058
    1UNL     O4   16   0.158   0.037   0.068
    1UNL    C13   17   0.276   0.087   0.138
    1UNL     O5   18   0.264   0.098   0.281
    1UNL    C14   19   0.279   0.241   0.315
    1UNL    C15   20   0.266   0.327   0.178
    1UNL     O6   21   0.129   0.343   0.164
    1UNL    C16   22   0.345   0.458   0.169
    1UNL     O7   23   0.256   0.568   0.202
    1UNL    C17   24   0.318   0.225   0.076
    1UNL     O8   25   0.267   0.239  -0.050
    1UNL    C18   26   0.118  -0.045  -0.298
    1UNL     O9   27   0.254  -0.009  -0.315
    1UNL    C19   28   0.065  -0.158  -0.386
    1UNL    O10   29   0.059  -0.131  -0.529
    1UNL    C20   30  -0.077  -0.203  -0.335
    1UNL    O11   31  -0.131  -0.310  -0.400
    1UNL     H1   32  -0.322  -0.590  -0.031
    1UNL     H2   33  -0.202  -0.496   0.072
    1UNL     H3   34  -0.384  -0.380  -0.143
    1UNL     H4   35  -0.184  -0.311   0.175
    1UNL     H5   36  -0.067  -0.333   0.054
    1UNL     H6   37  -0.093  -0.171   0.118
    1UNL     H7   38  -0.419  -0.220   0.117
    1UNL     H8   39  -0.429  -0.125  -0.037
    1UNL     H9   40  -0.244  -0.062   0.211
    1UNL    H10   41  -0.394   0.027   0.167
    1UNL    H11   42  -0.207   0.020  -0.059
    1UNL    H12   43  -0.097   0.215   0.005
    1UNL    H13   44  -0.071   0.274   0.243
    1UNL    H14   45  -0.234   0.210   0.278
    1UNL    H15   46   0.004   0.047   0.257
    1UNL    H16   47  -0.095  -0.343  -0.163
    1UNL    H17   48  -0.006   0.001  -0.137
    1UNL    H18   49   0.257  -0.113  -0.033
    1UNL    H19   50   0.253   0.054  -0.106
    1UNL    H20   51   0.344   0.001   0.136
    1UNL    H21   52   0.204   0.269   0.387
    1UNL    H22   53   0.378   0.257   0.356
    1UNL    H23   54   0.112   0.431   0.199
    1UNL    H24   55   0.430   0.472   0.230
    1UNL    H25   56   0.360   0.477   0.060
    1UNL    H26   57   0.304   0.661   0.206
    1UNL    H27   58   0.424   0.230   0.068
    1UNL    H28   59   0.169   0.249  -0.041
    1UNL    H29   60   0.071   0.052  -0.339
    1UNL    H30   61   0.315  -0.089  -0.322
    1UNL    H31   62   0.132  -0.245  -0.371
    1UNL    H32   63   0.092  -0.041  -0.556
    1UNL    H33   64  -0.137  -0.113  -0.356
    1UNL    H34   65  -0.131  -0.291  -0.500
   0.00000   0.00000   0.00000   0.00000   0.00000   0.00000   0.00000   0.00000   0.00000
Generated with MDTraj, t= 93.0
 65
    1UNL     C1    1  -0.298  -0.480   0.012
    1UNL     C2    2  -0.290  -0.367  -0.057
    1UNL     C3    3  -0.238  -0.234  -0.002
    1UNL     C4    4  -0.118  -0.251   0.096
    1UNL     C5    5  -0.366  -0.158   0.044
    1UNL     C6    6  -0.341  -0.016   0.111
    1UNL     C7    7  -0.253   0.075   0.033
    1UNL     C8    8  -0.171   0.161   0.084
    1UNL     C9    9  -0.141   0.166   0.224
    1UNL     O1   10  -0.050   0.075   0.275
    1UNL     O2   11  -0.184  -0.165  -0.120
    1UNL    C10   12  -0.082  -0.229  -0.183
    1UNL     O3   13   0.049  -0.207  -0.126
    1UNL    C11   14   0.090  -0.066  -0.146
    1UNL    C12   15   0.215  -0.034  -0.061
    1UNL     O4   16   0.183   0.009   0.069
    1UNL    C13   17   0.284   0.081   0.132
    1UNL     O5   18   0.264   0.101   0.262
    1UNL    C14   19   0.256   0.240   0.299
    1UNL    C15   20   0.251   0.328   0.168
    1UNL     O6   21   0.118   0.363   0.147
    1UNL    C16   22   0.332   0.460   0.180
    1UNL     O7   23   0.267   0.550   0.269
    1UNL    C17   24   0.310   0.225   0.058
    1UNL     O8   25   0.237   0.234  -0.061
    1UNL    C18   26   0.119  -0.043  -0.300
    1UNL     O9   27   0.254  -0.021  -0.331
    1UNL    C19   28   0.069  -0.167  -0.381
    1UNL    O10   29   0.061  -0.141  -0.524
    1UNL    C20   30  -0.075  -0.199  -0.340
    1UNL    O11   31  -0.123  -0.309  -0.408
    1UNL     H1   32  -0.332  -0.572  -0.020
    1UNL     H2   33  -0.255  -0.481   0.109
    1UNL     H3   34  -0.332  -0.358  -0.150
    1UNL     H4   35  -0.142  -0.281   0.200
    1UNL     H5   36  -0.047  -0.322   0.073
    1UNL     H6   37  -0.072  -0.152   0.107
    1UNL     H7   38  -0.422  -0.229   0.118
    1UNL     H8   39  -0.429  -0.137  -0.039
    1UNL     H9   40  -0.294  -0.038   0.207
    1UNL    H10   41  -0.435   0.047   0.128
    1UNL    H11   42  -0.261   0.076  -0.074
    1UNL    H12   43  -0.105   0.220   0.021
    1UNL    H13   44  -0.098   0.261   0.261
    1UNL    H14   45  -0.242   0.160   0.284
    1UNL    H15   46   0.012   0.053   0.195
    1UNL    H16   47  -0.108  -0.337  -0.172
    1UNL    H17   48   0.005  -0.006  -0.116
    1UNL    H18   49   0.287  -0.122  -0.064
    1UNL    H19   50   0.262   0.056  -0.114
    1UNL    H20   51   0.377   0.021   0.121
    1UNL    H21   52   0.162   0.245   0.349
    1UNL    H22   53   0.334   0.269   0.366
    1UNL    H23   54   0.093   0.446   0.201
    1UNL    H24   55   0.427   0.436   0.221
    1UNL    H25   56   0.332   0.526   0.087
    1UNL    H26   57   0.326   0.630   0.293
    1UNL    H27   58   0.407   0.248   0.022
    1UNL    H28   59   0.147   0.248  -0.029
    1UNL    H29   60   0.061   0.044  -0.349
    1UNL    H30   61   0.304  -0.107  -0.314
    1UNL    H31   62   0.134  -0.255  -0.353
    1UNL    H32   63   0.145  -0.143  -0.563
    1UNL    H33   64  -0.141  -0.117  -0.381
    1UNL    H34   65  -0.108  -0.295  -0.506
   0.00000   0.00000   0.00000   0.00000   0.00000   0.00000   0.00000   0.00000   0.00000
Generated with MDTraj, t= 94.0
 65
    1UNL     C1    1  -0.318  -0.466   0.052
    1UNL     C2    2  -0.275  -0.370  -0.028
    1UNL     C3    3  -0.227  -0.226   0.005
    1UNL     C4    4  -0.108  -0.233   0.101
    1UNL     C5    5  -0.355  -0.148   0.054
    1UNL     C6    6  -0.330  -0.014   0.121
    1UNL     C7    7  -0.259   0.085   0.029
    1UNL     C8    8  -0.158   0.158   0.067
    1UNL     C9    9  -0.103   0.167   0.212
    1UNL     O1   10  -0.035   0.049   0.255
    1UNL     O2   11  -0.182  -0.167  -0.124
    1UNL    C10   12  -0.077  -0.231  -0.183
    1UNL     O3   13   0.048  -0.194  -0.118
    1UNL    C11   14   0.093  -0.063  -0.159
    1UNL    C12   15   0.211  -0.018  -0.071
    1UNL     O4   16   0.173   0.011   0.056
    1UNL    C13   17   0.278   0.089   0.120
    1UNL     O5   18   0.265   0.107   0.261
    1UNL    C14   19   0.211   0.237   0.295
    1UNL    C15   20   0.223   0.325   0.167
    1UNL     O6   21   0.093   0.370   0.127
    1UNL    C16   22   0.312   0.454   0.193
    1UNL     O7   23   0.296   0.512   0.325
    1UNL    C17   24   0.291   0.235   0.058
    1UNL     O8   25   0.226   0.241  -0.060
    1UNL    C18   26   0.133  -0.056  -0.307
    1UNL     O9   27   0.266  -0.055  -0.350
    1UNL    C19   28   0.060  -0.164  -0.388
    1UNL    O10   29   0.075  -0.138  -0.526
    1UNL    C20   30  -0.079  -0.197  -0.344
    1UNL    O11   31  -0.125  -0.306  -0.416
    1UNL     H1   32  -0.354  -0.570   0.027
    1UNL     H2   33  -0.323  -0.441   0.158
    1UNL     H3   34  -0.267  -0.388  -0.140
    1UNL     H4   35  -0.126  -0.247   0.205
    1UNL     H5   36  -0.054  -0.324   0.072
    1UNL     H6   37  -0.040  -0.147   0.084
    1UNL     H7   38  -0.424  -0.211   0.122
    1UNL     H8   39  -0.411  -0.134  -0.038
    1UNL     H9   40  -0.273  -0.019   0.213
    1UNL    H10   41  -0.431   0.022   0.155
    1UNL    H11   42  -0.288   0.095  -0.077
    1UNL    H12   43  -0.106   0.228   0.002
    1UNL    H13   44  -0.051   0.263   0.221
    1UNL    H14   45  -0.192   0.181   0.291
    1UNL    H15   46   0.030   0.024   0.189
    1UNL    H16   47  -0.092  -0.339  -0.167
    1UNL    H17   48   0.008   0.003  -0.135
    1UNL    H18   49   0.283  -0.101  -0.063
    1UNL    H19   50   0.264   0.068  -0.125
    1UNL    H20   51   0.372   0.024   0.119
    1UNL    H21   52   0.112   0.219   0.326
    1UNL    H22   53   0.262   0.288   0.371
    1UNL    H23   54   0.061   0.440   0.191
    1UNL    H24   55   0.416   0.437   0.179
    1UNL    H25   56   0.266   0.530   0.121
    1UNL    H26   57   0.359   0.581   0.326
    1UNL    H27   58   0.392   0.251   0.029
    1UNL    H28   59   0.131   0.255  -0.027
    1UNL    H29   60   0.100   0.045  -0.344
    1UNL    H30   61   0.311  -0.137  -0.320
    1UNL    H31   62   0.114  -0.259  -0.357
    1UNL    H32   63   0.168  -0.112  -0.538
    1UNL    H33   64  -0.153  -0.116  -0.374
    1UNL    H34   65  -0.082  -0.304  -0.502
   0.00000   0.00000   0.00000   0.00000   0.00000   0.00000   0.00000   0.00000   0.00000
Generated with MDTraj, t= 95.0
 65
    1UNL     C1    1  -0.309  -0.455   0.083
    1UNL     C2    2  -0.269  -0.387  -0.019
    1UNL     C3    3  -0.223  -0.241  -0.003
    1UNL     C4    4  -0.101  -0.238   0.091
    1UNL     C5    5  -0.349  -0.148   0.040
    1UNL     C6    6  -0.305  -0.024   0.110
    1UNL     C7    7  -0.236   0.069   0.011
    1UNL     C8    8  -0.150   0.158   0.048
    1UNL     C9    9  -0.121   0.180   0.188
    1UNL     O1   10  -0.057   0.063   0.245
    1UNL     O2   11  -0.195  -0.182  -0.126
    1UNL    C10   12  -0.080  -0.233  -0.182
    1UNL     O3   13   0.049  -0.190  -0.126
    1UNL    C11   14   0.092  -0.066  -0.172
    1UNL    C12   15   0.205  -0.004  -0.081
    1UNL     O4   16   0.160   0.042   0.043
    1UNL    C13   17   0.271   0.101   0.108
    1UNL     O5   18   0.282   0.092   0.251
    1UNL    C14   19   0.228   0.216   0.302
    1UNL    C15   20   0.241   0.331   0.188
    1UNL     O6   21   0.121   0.390   0.159
    1UNL    C16   22   0.333   0.448   0.236
    1UNL     O7   23   0.258   0.520   0.332
    1UNL    C17   24   0.285   0.250   0.063
    1UNL     O8   25   0.211   0.274  -0.053
    1UNL    C18   26   0.138  -0.071  -0.322
    1UNL     O9   27   0.280  -0.093  -0.340
    1UNL    C19   28   0.058  -0.183  -0.394
    1UNL    O10   29   0.059  -0.142  -0.530
    1UNL    C20   30  -0.080  -0.199  -0.336
    1UNL    O11   31  -0.156  -0.293  -0.405
    1UNL     H1   32  -0.353  -0.552   0.074
    1UNL     H2   33  -0.315  -0.413   0.176
    1UNL     H3   34  -0.270  -0.423  -0.117
    1UNL     H4   35  -0.133  -0.267   0.186
    1UNL     H5   36  -0.014  -0.303   0.055
    1UNL     H6   37  -0.071  -0.134   0.085
    1UNL     H7   38  -0.406  -0.217   0.107
    1UNL     H8   39  -0.410  -0.131  -0.048
    1UNL     H9   40  -0.237  -0.045   0.192
    1UNL    H10   41  -0.388   0.030   0.163
    1UNL    H11   42  -0.260   0.057  -0.092
    1UNL    H12   43  -0.097   0.223  -0.021
    1UNL    H13   44  -0.051   0.262   0.207
    1UNL    H14   45  -0.218   0.221   0.247
    1UNL    H15   46   0.030   0.048   0.199
    1UNL    H16   47  -0.085  -0.339  -0.154
    1UNL    H17   48   0.003   0.000  -0.160
    1UNL    H18   49   0.289  -0.071  -0.069
    1UNL    H19   50   0.233   0.087  -0.139
    1UNL    H20   51   0.361   0.039   0.078
    1UNL    H21   52   0.124   0.205   0.324
    1UNL    H22   53   0.282   0.236   0.391
    1UNL    H23   54   0.085   0.435   0.235
    1UNL    H24   55   0.421   0.405   0.279
    1UNL    H25   56   0.346   0.516   0.143
    1UNL    H26   57   0.316   0.588   0.365
    1UNL    H27   58   0.386   0.278   0.032
    1UNL    H28   59   0.124   0.259  -0.016
    1UNL    H29   60   0.118   0.017  -0.386
    1UNL    H30   61   0.306  -0.168  -0.288
    1UNL    H31   62   0.110  -0.284  -0.383
    1UNL    H32   63   0.153  -0.116  -0.565
    1UNL    H33   64  -0.127  -0.096  -0.355
    1UNL    H34   65  -0.098  -0.348  -0.460
   0.00000   0.00000   0.00000   0.00000   0.00000   0.00000   0.00000   0.00000   0.00000
Generated with MDTraj, t= 96.0
 65
    1UNL     C1    1  -0.284  -0.483   0.069
    1UNL     C2    2  -0.269  -0.389  -0.020
    1UNL     C3    3  -0.224  -0.245   0.004
    1UNL     C4    4  -0.099  -0.248   0.099
    1UNL     C5    5  -0.342  -0.169   0.066
    1UNL     C6    6  -0.322  -0.026   0.100
    1UNL     C7    7  -0.245   0.051  -0.004
    1UNL     C8    8  -0.169   0.149   0.024
    1UNL     C9    9  -0.141   0.201   0.156
    1UNL     O1   10  -0.035   0.140   0.222
    1UNL     O2   11  -0.191  -0.176  -0.121
    1UNL    C10   12  -0.079  -0.227  -0.192
    1UNL     O3   13   0.049  -0.175  -0.135
    1UNL    C11   14   0.090  -0.058  -0.188
    1UNL    C12   15   0.193   0.013  -0.098
    1UNL     O4   16   0.162   0.045   0.038
    1UNL    C13   17   0.271   0.096   0.113
    1UNL     O5   18   0.270   0.086   0.256
    1UNL    C14   19   0.237   0.212   0.316
    1UNL    C15   20   0.245   0.329   0.212
    1UNL     O6   21   0.115   0.386   0.195
    1UNL    C16   22   0.339   0.444   0.251
    1UNL     O7   23   0.278   0.532   0.337
    1UNL    C17   24   0.297   0.251   0.092
    1UNL     O8   25   0.234   0.306  -0.023
    1UNL    C18   26   0.143  -0.085  -0.334
    1UNL     O9   27   0.280  -0.129  -0.336
    1UNL    C19   28   0.051  -0.192  -0.399
    1UNL    O10   29   0.032  -0.166  -0.538
    1UNL    C20   30  -0.088  -0.199  -0.344
    1UNL    O11   31  -0.163  -0.300  -0.414
    1UNL     H1   32  -0.303  -0.587   0.044
    1UNL     H2   33  -0.273  -0.455   0.176
    1UNL     H3   34  -0.289  -0.408  -0.124
    1UNL     H4   35  -0.115  -0.316   0.181
    1UNL     H5   36  -0.002  -0.277   0.045
    1UNL     H6   37  -0.082  -0.151   0.135
    1UNL     H7   38  -0.371  -0.224   0.154
    1UNL     H8   39  -0.422  -0.174  -0.010
    1UNL     H9   40  -0.274  -0.025   0.198
    1UNL    H10   41  -0.422   0.021   0.120
    1UNL    H11   42  -0.258   0.017  -0.109
    1UNL    H12   43  -0.115   0.194  -0.058
    1UNL    H13   44  -0.137   0.312   0.166
    1UNL    H14   45  -0.227   0.177   0.236
    1UNL    H15   46   0.039   0.111   0.158
    1UNL    H16   47  -0.077  -0.335  -0.185
    1UNL    H17   48  -0.003   0.005  -0.196
    1UNL    H18   49   0.265  -0.064  -0.092
    1UNL    H19   50   0.241   0.101  -0.141
    1UNL    H20   51   0.357   0.032   0.078
    1UNL    H21   52   0.135   0.204   0.355
    1UNL    H22   53   0.308   0.227   0.394
    1UNL    H23   54   0.081   0.432   0.278
    1UNL    H24   55   0.420   0.392   0.297
    1UNL    H25   56   0.357   0.501   0.152
    1UNL    H26   57   0.341   0.608   0.371
    1UNL    H27   58   0.400   0.282   0.063
    1UNL    H28   59   0.152   0.351   0.015
    1UNL    H29   60   0.145   0.003  -0.398
    1UNL    H30   61   0.289  -0.201  -0.274
    1UNL    H31   62   0.108  -0.291  -0.380
    1UNL    H32   63   0.125  -0.169  -0.587
    1UNL    H33   64  -0.143  -0.101  -0.366
    1UNL    H34   65  -0.124  -0.307  -0.506
   0.00000   0.00000   0.00000   0.00000   0.00000   0.00000   0.00000   0.00000   0.00000
Generated with MDTraj, t= 97.0
 65
    1UNL     C1    1  -0.259  -0.492   0.050
    1UNL     C2    2  -0.244  -0.390  -0.027
    1UNL     C3    3  -0.208  -0.251   0.020
    1UNL     C4    4  -0.083  -0.246   0.104
    1UNL     C5    5  -0.330  -0.182   0.090
    1UNL     C6    6  -0.294  -0.027   0.121
    1UNL     C7    7  -0.270   0.062  -0.008
    1UNL     C8    8  -0.218   0.180  -0.003
    1UNL     C9    9  -0.152   0.234   0.122
    1UNL     O1   10  -0.103   0.135   0.208
    1UNL     O2   11  -0.184  -0.178  -0.103
    1UNL    C10   12  -0.067  -0.222  -0.180
    1UNL     O3   13   0.052  -0.163  -0.128
    1UNL    C11   14   0.088  -0.039  -0.186
    1UNL    C12   15   0.201   0.025  -0.109
    1UNL     O4   16   0.155   0.055   0.020
    1UNL    C13   17   0.258   0.096   0.104
    1UNL     O5   18   0.209   0.088   0.245
    1UNL    C14   19   0.245   0.207   0.313
    1UNL    C15   20   0.256   0.321   0.204
    1UNL     O6   21   0.133   0.375   0.174
    1UNL    C16   22   0.351   0.434   0.246
    1UNL     O7   23   0.295   0.482   0.371
    1UNL    C17   24   0.305   0.241   0.080
    1UNL     O8   25   0.244   0.292  -0.039
    1UNL    C18   26   0.146  -0.073  -0.334
    1UNL     O9   27   0.283  -0.117  -0.313
    1UNL    C19   28   0.054  -0.190  -0.393
    1UNL    O10   29   0.037  -0.167  -0.532
    1UNL    C20   30  -0.084  -0.201  -0.331
    1UNL    O11   31  -0.172  -0.304  -0.393
    1UNL     H1   32  -0.294  -0.581   0.012
    1UNL     H2   33  -0.246  -0.488   0.157
    1UNL     H3   34  -0.264  -0.400  -0.138
    1UNL     H4   35  -0.103  -0.234   0.215
    1UNL     H5   36  -0.028  -0.339   0.100
    1UNL     H6   37  -0.014  -0.174   0.072
    1UNL     H7   38  -0.360  -0.234   0.177
    1UNL     H8   39  -0.412  -0.175   0.014
    1UNL     H9   40  -0.200  -0.032   0.175
    1UNL    H10   41  -0.372   0.010   0.190
    1UNL    H11   42  -0.308   0.025  -0.098
    1UNL    H12   43  -0.205   0.245  -0.087
    1UNL    H13   44  -0.063   0.294   0.094
    1UNL    H14   45  -0.219   0.312   0.178
    1UNL    H15   46  -0.006   0.121   0.208
    1UNL    H16   47  -0.055  -0.329  -0.176
    1UNL    H17   48  -0.002   0.029  -0.181
    1UNL    H18   49   0.273  -0.047  -0.085
    1UNL    H19   50   0.250   0.108  -0.155
    1UNL    H20   51   0.331   0.013   0.100
    1UNL    H21   52   0.162   0.238   0.381
    1UNL    H22   53   0.338   0.196   0.367
    1UNL    H23   54   0.105   0.439   0.240
    1UNL    H24   55   0.453   0.406   0.255
    1UNL    H25   56   0.331   0.508   0.159
    1UNL    H26   57   0.366   0.521   0.436
    1UNL    H27   58   0.417   0.246   0.062
    1UNL    H28   59   0.159   0.324  -0.011
    1UNL    H29   60   0.146   0.013  -0.398
    1UNL    H30   61   0.273  -0.205  -0.269
    1UNL    H31   62   0.105  -0.293  -0.374
    1UNL    H32   63   0.128  -0.165  -0.579
    1UNL    H33   64  -0.145  -0.105  -0.336
    1UNL    H34   65  -0.162  -0.293  -0.492
   0.00000   0.00000   0.00000   0.00000   0.00000   0.00000   0.00000   0.00000   0.00000
Generated with MDTraj, t= 98.0
 65
    1UNL     C1    1  -0.252  -0.482   0.076
    1UNL     C2    2  -0.244  -0.387  -0.012
    1UNL     C3    3  -0.196  -0.248   0.020
    1UNL     C4    4  -0.071  -0.236   0.107
    1UNL     C5    5  -0.310  -0.179   0.095
    1UNL     C6    6  -0.294  -0.034   0.131
    1UNL     C7    7  -0.279   0.052   0.011
    1UNL     C8    8  -0.246   0.179   0.002
    1UNL     C9    9  -0.179   0.251   0.113
    1UNL     O1   10  -0.076   0.176   0.176
    1UNL     O2   11  -0.172  -0.181  -0.102
    1UNL    C10   12  -0.059  -0.231  -0.186
    1UNL     O3   13   0.068  -0.182  -0.146
    1UNL    C11   14   0.100  -0.054  -0.196
    1UNL    C12   15   0.192   0.034  -0.112
    1UNL     O4   16   0.126   0.073   0.011
    1UNL    C13   17   0.216   0.085   0.119
    1UNL     O5   18   0.174   0.084   0.261
    1UNL    C14   19   0.204   0.206   0.324
    1UNL    C15   20   0.257   0.308   0.217
    1UNL     O6   21   0.142   0.382   0.171
    1UNL    C16   22   0.363   0.413   0.253
    1UNL     O7   23   0.336   0.483   0.375
    1UNL    C17   24   0.298   0.219   0.096
    1UNL     O8   25   0.261   0.289  -0.025
    1UNL    C18   26   0.146  -0.077  -0.341
    1UNL     O9   27   0.282  -0.104  -0.347
    1UNL    C19   28   0.050  -0.185  -0.410
    1UNL    O10   29   0.046  -0.155  -0.547
    1UNL    C20   30  -0.085  -0.211  -0.335
    1UNL    O11   31  -0.174  -0.312  -0.388
    1UNL     H1   32  -0.279  -0.584   0.040
    1UNL     H2   33  -0.235  -0.484   0.182
    1UNL     H3   34  -0.264  -0.404  -0.109
    1UNL     H4   35  -0.078  -0.279   0.211
    1UNL     H5   36   0.009  -0.284   0.062
    1UNL     H6   37  -0.034  -0.132   0.107
    1UNL     H7   38  -0.312  -0.234   0.184
    1UNL     H8   39  -0.408  -0.201   0.044
    1UNL     H9   40  -0.214  -0.012   0.206
    1UNL    H10   41  -0.392   0.002   0.167
    1UNL    H11   42  -0.300  -0.008  -0.080
    1UNL    H12   43  -0.245   0.227  -0.095
    1UNL    H13   44  -0.153   0.355   0.083
    1UNL    H14   45  -0.254   0.264   0.199
    1UNL    H15   46  -0.007   0.143   0.112
    1UNL    H16   47  -0.043  -0.333  -0.164
    1UNL    H17   48   0.003   0.001  -0.192
    1UNL    H18   49   0.284  -0.012  -0.089
    1UNL    H19   50   0.207   0.131  -0.154
    1UNL    H20   51   0.282   0.000   0.109
    1UNL    H21   52   0.104   0.242   0.367
    1UNL    H22   53   0.282   0.198   0.401
    1UNL    H23   54   0.109   0.448   0.233
    1UNL    H24   55   0.453   0.357   0.264
    1UNL    H25   56   0.379   0.490   0.169
    1UNL    H26   57   0.408   0.542   0.380
    1UNL    H27   58   0.410   0.203   0.086
    1UNL    H28   59   0.165   0.312  -0.009
    1UNL    H29   60   0.136   0.014  -0.395
    1UNL    H30   61   0.299  -0.194  -0.302
    1UNL    H31   62   0.106  -0.287  -0.406
    1UNL    H32   63   0.134  -0.134  -0.581
    1UNL    H33   64  -0.130  -0.109  -0.333
    1UNL    H34   65  -0.126  -0.396  -0.386
   0.00000   0.00000   0.00000   0.00000   0.00000   0.00000   0.00000   0.00000   0.00000
Generated with MDTraj, t= 99.0
 65
    1UNL     C1    1  -0.225  -0.473   0.127
    1UNL     C2    2  -0.217  -0.398   0.021
    1UNL     C3    3  -0.189  -0.253   0.013
    1UNL     C4    4  -0.053  -0.225   0.082
    1UNL     C5    5  -0.292  -0.179   0.097
    1UNL     C6    6  -0.278  -0.026   0.111
    1UNL     C7    7  -0.239   0.054  -0.011
    1UNL     C8    8  -0.228   0.185  -0.015
    1UNL     C9    9  -0.204   0.267   0.106
    1UNL     O1   10  -0.118   0.198   0.196
    1UNL     O2   11  -0.181  -0.199  -0.116
    1UNL    C10   12  -0.063  -0.243  -0.189
    1UNL     O3   13   0.065  -0.187  -0.149
    1UNL    C11   14   0.080  -0.045  -0.195
    1UNL    C12   15   0.185   0.026  -0.102
    1UNL     O4   16   0.121   0.057   0.020
    1UNL    C13   17   0.212   0.079   0.123
    1UNL     O5   18   0.152   0.092   0.255
    1UNL    C14   19   0.175   0.216   0.311
    1UNL    C15   20   0.265   0.304   0.222
    1UNL     O6   21   0.184   0.401   0.164
    1UNL    C16   22   0.383   0.373   0.297
    1UNL     O7   23   0.322   0.477   0.369
    1UNL    C17   24   0.307   0.207   0.103
    1UNL     O8   25   0.271   0.271  -0.016
    1UNL    C18   26   0.120  -0.056  -0.345
    1UNL     O9   27   0.256  -0.075  -0.359
    1UNL    C19   28   0.042  -0.179  -0.413
    1UNL    O10   29   0.027  -0.160  -0.551
    1UNL    C20   30  -0.095  -0.213  -0.338
    1UNL    O11   31  -0.143  -0.336  -0.400
    1UNL     H1   32  -0.266  -0.572   0.119
    1UNL     H2   33  -0.200  -0.454   0.225
    1UNL     H3   34  -0.261  -0.434  -0.078
    1UNL     H4   35  -0.063  -0.272   0.179
    1UNL     H5   36   0.027  -0.269   0.030
    1UNL     H6   37  -0.028  -0.115   0.082
    1UNL     H7   38  -0.312  -0.233   0.184
    1UNL     H8   39  -0.382  -0.203   0.032
    1UNL     H9   40  -0.198   0.003   0.186
    1UNL    H10   41  -0.372   0.018   0.145
    1UNL    H11   42  -0.232  -0.002  -0.099
    1UNL    H12   43  -0.222   0.241  -0.108
    1UNL    H13   44  -0.152   0.359   0.076
    1UNL    H14   45  -0.302   0.301   0.151
    1UNL    H15   46  -0.041   0.173   0.150
    1UNL    H16   47  -0.050  -0.348  -0.190
    1UNL    H17   48  -0.016   0.006  -0.186
    1UNL    H18   49   0.260  -0.048  -0.074
    1UNL    H19   50   0.226   0.116  -0.148
    1UNL    H20   51   0.278  -0.004   0.123
    1UNL    H21   52   0.079   0.279   0.325
    1UNL    H22   53   0.224   0.190   0.408
    1UNL    H23   54   0.178   0.480   0.229
    1UNL    H24   55   0.436   0.315   0.367
    1UNL    H25   56   0.451   0.411   0.214
    1UNL    H26   57   0.381   0.550   0.392
    1UNL    H27   58   0.416   0.171   0.093
    1UNL    H28   59   0.214   0.342   0.013
    1UNL    H29   60   0.092   0.030  -0.400
    1UNL    H30   61   0.291  -0.143  -0.294
    1UNL    H31   62   0.108  -0.275  -0.404
    1UNL    H32   63   0.104  -0.121  -0.584
    1UNL    H33   64  -0.177  -0.140  -0.346
    1UNL    H34   65  -0.175  -0.326  -0.491
   0.00000   0.00000   0.00000   0.00000   0.00000   0.00000   0.00000   0.00000   0.00000
