[ moleculetype ]
; name        nrexcl
res           1

[ atoms ]
;    nr  type  resnr resid  atom  cgnr     charge       mass
      1 TC5       1 res   C1        1      0.000     36.000
      2 N3r       1 res   C2        2      0.000     72.000
      3 TC5       1 res   C3        3      0.000     36.000
      4 TP1d      1 res   C4        4      0.000     36.000
      5 SN4a      1 res   C5        5      0.000     54.000
      6 TN3r      1 res   C6        6      0.000     36.000
      7 SN4a      1 res   C7        7      0.000     54.000
      8 SP4       1 res   C8        8      0.000     54.000
      9 TP1       1 res   C9        9      0.000     36.000
     10 SP4       1 res   C10      10      0.000     54.000
     11 TN6       1 res   C11      11      0.000     36.000

[ constraints ]
;  ai    aj   funct      b0(nm)
    3     4     1      0.26329
    7     8     1      0.23459
    5     6     1      0.29714
    6     7     1      0.34884

[ bonds ]
;  ai    aj   funct      b0(nm)          k(kJ/mol/nm^2)
    1     2     1      0.30369           6464.1
    5    11     1      0.26452          15790.3
   10    11     1      0.29212           8883.8
    2     3     1      0.31012           5403.8
    5    10     1      0.26402           3369.5
    2     5     1      0.35967           2165.6
    8     9     1      0.28428          18496.8

[ angles ]
;  ai    aj    ak  funct     th0(deg)        k(kJ/mol/rad^2)
    1     2     3     1    136.05105            31.23
    1     2     5     1     73.66175            59.13
    2     3     4     1     88.39197           128.70
    2     5     6     1    109.43053            57.60
    2     5    10     1    150.81652            55.90
    2     5    11     1     93.26202            24.56
    3     2     5     1     96.22743             9.85
    5     6     7     1    108.11414            30.82
    5    10    11     1     56.47104           655.40
    5    11    10     1     56.21718           304.40
    6     5    10     1     85.38732           217.41
    6     5    11     1    146.89407           138.67
    6     7     8     1     67.70610           517.58
    7     8     9     1     83.44560           208.43
   10     5    11     1     67.31706           269.78

[ dihedrals ]
;  ai    aj    ak    al  funct   phi0(deg)        k(kJ/mol)   mult
    1     2     3     4     1     -4.00470       20.908      1
    1     2     5     6     1     93.39691       27.464      1
    1     2     5    10     1    -35.87487       29.486      1
    1     2     5    11     1    -68.34867       28.031      1
    2     5     6     7     1   -157.91336       31.239      1
    2     5    10    11     1    137.85038       29.539      1
    2     5    11    10     1    -16.27461       20.674      1
    3     2     5     6     1    -92.63850       28.533      1
    3     2     5    10     1    141.07052       25.981      1
    3     2     5    11     1    110.32638       31.513      1
    4     3     2     5     1      5.94633       18.266      1
    5     6     7     8     1      7.21485       30.950      1
    6     5    10    11     1      9.59790       17.705      1
    6     5    11    10     1   -153.64557       26.017      1
    6     7     8     9     1     28.91581       19.766      1
    7     6     5    10     1     -1.41856       26.680      1
    7     6     5    11     1    -25.53009       31.820      1
