[ moleculetype ]
; name        nrexcl
res           1

[ atoms ]
;    nr  type  resnr resid  atom  cgnr     charge       mass
      1 TC4       1 res   C1        1      0.000     36.000
      2 SN6       1 res   C2        2      0.000     54.000
      3 SN5a      1 res   C3        3      0.000     54.000
      4 SC5       1 res   C4        4      0.000     54.000
      5 N4a       1 res   C5        5      0.000     72.000
      6 TC5       1 res   C6        6      0.000     36.000
      7 SN6       1 res   C7        7      0.000     54.000
      8 TC5       1 res   C8        8      0.000     36.000
      9 TN6       1 res   C9        9      0.000     36.000
     10 SN4a      1 res   C10      10      0.000     54.000
     11 N4a       1 res   C11      11      0.000     72.000
     12 TC5       1 res   C12      12      0.000     36.000
     13 SP4       1 res   C13      13      0.000     54.000
     14 SN6       1 res   C14      14      0.000     54.000
     15 SP4       1 res   C15      15      0.000     54.000
     16 TN6       1 res   C16      16      0.000     36.000

[ constraints ]
;  ai    aj   funct      b0(nm)
   13    14     1      0.36333
    6     8     1      0.29779
    1     3     1      0.35729
    9    10     1      0.28667
   10    15     1      0.27058
    1     9     1      0.26869
    2     4     1      0.28441
    5     6     1      0.34818
    6     7     1      0.29627
   15    16     1      0.30581
    1     2     1      0.36430
    2     3     1      0.28657
   11    12     1      0.34123
   12    14     1      0.33893
    7     8     1      0.31005
    4     9     1      0.22469
   10    16     1      0.30332
    3     4     1      0.31795
   12    13     1      0.28243

[ bonds ]
;  ai    aj   funct      b0(nm)          k(kJ/mol/nm^2)
    4     5     1      0.27903          12237.6
   10    11     1      0.32253           7566.2

[ angles ]
;  ai    aj    ak  funct     th0(deg)        k(kJ/mol/rad^2)
    1     2     3     1     65.32163          3516.34
    1     2     4     1     74.44293          3641.77
    1     3     2     1     67.89551          3240.87
    1     3     4     1     71.89251          2309.29
    1     9     4     1    107.09087          1368.85
    1     9    10     1     71.94332           370.72
    2     1     3     1     46.78280          5721.97
    2     1     9     1     74.86520          2240.92
    2     3     4     1     55.83599          2263.60
    2     4     3     1     56.47629          4295.18
    2     4     5     1    132.74643           738.84
    2     4     9     1    100.13248          1618.99
    3     1     9     1     58.83453          3330.87
    3     2     4     1     67.68789          2838.35
    3     4     5     1     79.64112          1396.37
    3     4     9     1     69.08502          2292.78
    4     5     6     1     91.68798            46.18
    4     9    10     1    113.02571           247.07
    5     4     9     1     76.52492           709.32
    5     6     7     1    146.30986           732.19
    5     6     8     1     84.34954           695.94
    6     7     8     1     58.77625         11288.38
    6     8     7     1     58.29987          8895.69
    7     6     8     1     62.92389          9211.38
    9    10    11     1    103.46359           448.67
    9    10    15     1    120.69040          1814.22
    9    10    16     1     58.14650          2435.74
   10    11    12     1    126.49503            57.44
   10    15    16     1     63.15399          2998.91
   10    16    15     1     52.74014          3732.92
   11    10    15     1     81.45524           304.58
   11    10    16     1     86.39969           143.20
   11    12    13     1    156.59277           878.33
   11    12    14     1     86.71652          1390.46
   12    13    14     1     61.82244          8448.46
   12    14    13     1     47.26950          8667.70
   13    12    14     1     70.90801          5389.24
   15    10    16     1     64.10590          3013.38

[ dihedrals ]
;  ai    aj    ak    al  funct   phi0(deg)        k(kJ/mol)   mult
    1     2     3     4     1     97.95818        4.764      1
    1     2     4     3     1   -110.97424        4.027      1
    1     2     4     5     1    -85.06981        9.971      1
    1     2     4     9     1   -167.92344        6.302      1
    1     3     2     4     1    -97.95818        4.764      1
    1     3     4     2     1    104.07175        4.753      1
    1     3     4     5     1    -55.26927        8.461      1
    1     3     4     9     1   -136.00384        4.770      1
    1     9     4     2     1    162.93415        8.544      1
    1     9     4     3     1    114.93371        7.036      1
    1     9     4     5     1     30.02826        7.811      1
    1     9    10    11     1     75.27703       19.718      1
    1     9    10    15     1     -9.67212       17.737      1
    1     9    10    16     1     -4.84863       17.117      1
    2     1     3     4     1   -121.89113        4.764      1
    2     1     9     4     1   -166.00432        7.744      1
    2     1     9    10     1    -55.90049       10.789      1
    2     3     1     9     1     81.06501        6.982      1
    2     3     4     5     1     19.16777        7.094      1
    2     3     4     9     1    -61.00659        5.580      1
    2     4     5     6     1    -54.33710       20.400      1
    2     4     9    10     1     84.18886       10.771      1
    3     1     2     4     1    107.06304        4.018      1
    3     1     9     4     1   -118.92531        5.547      1
    3     1     9    10     1     -8.01957       10.791      1
    3     2     1     9     1   -118.03387        6.240      1
    3     2     4     5     1   -153.03397        9.955      1
    3     2     4     9     1    123.04660        5.555      1
    3     4     5     6     1    -33.53652       18.433      1
    3     4     9    10     1     37.13999       10.043      1
    4     2     1     9     1    169.91669        6.272      1
    4     3     1     9     1    141.00794        4.017      1
    4     5     6     7     1     70.10401       28.975      1
    4     5     6     8     1     72.70857       30.821      1
    4     9    10    11     1    176.78513       18.338      1
    4     9    10    15     1     89.94079       15.664      1
    4     9    10    16     1     97.09650       15.697      1
    5     4     9    10     1    -46.99669       10.013      1
    5     6     7     8     1    178.19385       22.818      1
    5     6     8     7     1     -1.96387       15.034      1
    6     5     4     9     1     36.99697       19.828      1
    9    10    11    12     1    144.51630       23.018      1
    9    10    15    16     1   -174.07731       16.358      1
    9    10    16    15     1      5.93424       16.372      1
   10    11    12    13     1    138.46738       27.270      1
   10    11    12    14     1    141.02140       31.586      1
   11    10    15    16     1     82.85669       14.253      1
   11    10    16    15     1   -100.39313       13.575      1
   11    12    13    14     1   -176.07030       22.418      1
   11    12    14    13     1      3.22197       14.232      1
   12    11    10    15     1    -96.28959       24.363      1
   12    11    10    16     1   -158.17899       23.691      1
