[ moleculetype ]
; name        nrexcl
res           1

[ atoms ]
;    nr  type resnr resid  atom  cgnr     charge       mass
      1 C1        1 res   C1        1      0.000     72.000
      2 C1        1 res   C2        2      0.000     72.000
      3 C1        1 res   C3        3      0.000     72.000
      4 SC2       1 res   C4        4      0.000     54.000
      5 SN4a      1 res   C5        5      0.000     54.000
      6 SC3       1 res   C6        6      0.000     54.000
      7 SC4       1 res   C7        7      0.000     54.000
      8 TC3       1 res   C8        8      0.000     36.000
      9 SC4       1 res   C9        9      0.000     54.000
     10 SN6       1 res   C10      10      0.000     54.000
     11 SC4       1 res   C11      11      0.000     54.000
     12 SC4       1 res   C12      12      0.000     54.000
     13 SC4       1 res   C13      13      0.000     54.000
     14 TC3       1 res   C14      14      0.000     36.000
     15 TC3       1 res   C15      15      0.000     36.000
     16 SC4       1 res   C16      16      0.000     54.000

[ bonds ]
;  ai    aj   funct      b0(nm)        k
    1     2     1      0.39048    20000
    2     3     1      0.44195    20000
    3     4     1      0.38601    20000
    4     5     1      0.26369    20000
    5     6     1      0.30312    20000
    6     7     1      0.28444    20000
    6    16     1      0.36015    20000
    7     8     1      0.37356    20000
    7     9     1      0.37217    20000
    7    16     1      0.33982    20000
    8     9     1      0.27915    20000
    9    10     1      0.40089    20000
    9    11     1      0.31060    20000
   10    11     1      0.42155    20000
   11    12     1      0.27736    20000
   11    15     1      0.30864    20000
   12    13     1      0.33820    20000
   12    14     1      0.25029    20000
   12    15     1      0.31205    20000
   13    14     1      0.29962    20000
