[ moleculetype ]
; name        nrexcl
res           1

[ atoms ]
;    nr  type  resnr resid  atom  cgnr     charge       mass
      1 SN6       1 res   C1        1      0.000     54.000
      2 SX3       1 res   C2        2      0.000     54.000
      3 SX3       1 res   C3        3      0.000     54.000

[ constraints ]
;  ai    aj   funct      b0(nm)
    1     3     1      0.34723
    2     3     1      0.30491

[ bonds ]
;  ai    aj   funct      b0(nm)          k(kJ/mol/nm^2)
    1     2     1      0.31557          14894.5

[ angles ]
;  ai    aj    ak  funct     th0(deg)        k(kJ/mol/rad^2)
    1     2     3     1     68.03636          2028.29
    1     3     2     1     57.46418          1042.95
    2     1     3     1     54.49954          4581.24

[ dihedrals ]
;  ai    aj    ak    al  funct   phi0(deg)        k(kJ/mol)   mult
