[ moleculetype ]
; name        nrexcl
res           1

[ atoms ]
;    nr  type  resnr resid  atom  cgnr     charge       mass
      1 C1        1 res   C1        1      0.000     72.000
      2 N4a       1 res   C2        2      0.000     72.000
      3 C1        1 res   C3        3      0.000     72.000
      4 SC2       1 res   C4        4      0.000     54.000
      5 SN1       1 res   C5        5      0.000     54.000

[ constraints ]
;  ai    aj   funct      b0(nm)
    2     4     1      0.36679

[ bonds ]
;  ai    aj   funct      b0(nm)          k(kJ/mol/nm^2)
    1     2     1      0.34827            939.0
    2     3     1      0.32351           2518.2
    4     5     1      0.32218          12742.9

[ angles ]
;  ai    aj    ak  funct     th0(deg)        k(kJ/mol/rad^2)
    1     2     3     1    113.81820            11.69
    1     2     4     1    120.07043            15.54
    2     4     5     1    136.97374            67.86
    3     2     4     1    117.56788            26.64

[ dihedrals ]
;  ai    aj    ak    al  funct   phi0(deg)        k(kJ/mol)   mult
    1     2     4     5     1    102.19254        0.841      1
    3     2     4     5     1   -165.67703        7.385      1
