1TPCN00169
14
    1res  C1    1   -0.333  -0.292  -0.020
    1res  C2    2   -0.060  -0.215   0.036
    1res  C3    3    0.014  -0.116  -0.216
    1res  C4    4    0.243  -0.236  -0.144
    1res  C5    5    0.200   0.000  -0.087
    1res  C6    6    0.118   0.204  -0.083
    1res  C7    7    0.308   0.120  -0.015
    1res  C8    8    0.393   0.339   0.068
    1res  C9    9    0.542   0.127   0.090
    1res  C10   10    0.658  -0.098   0.096
    1res  C11   11   -0.125   0.036  -0.092
    1res  C12   12   -0.267   0.070   0.153
    1res  C13   13   -0.433   0.169   0.355
    1res  C14   14   -0.528   0.183  -0.111
  10.00000  10.00000  10.00000
