[ moleculetype ]
; name        nrexcl
res           1

[ atoms ]
;    nr  type  resnr resid  atom  cgnr     charge       mass
      1 TN6a      1 res   C1        1      0.000     36.000
      2 SX3       1 res   C2        2      0.000     54.000
      3 TC5       1 res   C3        3      0.000     36.000
      4 TN6a      1 res   C4        4      0.000     36.000
      5 TX3       1 res   C5        5      0.000     36.000

[ constraints ]
;  ai    aj   funct      b0(nm)
    1     2     1      0.21451
    4     5     1      0.21301
    1     4     1      0.20220
    3     4     1      0.23754
    1     3     1      0.24472

[ bonds ]
;  ai    aj   funct      b0(nm)          k(kJ/mol/nm^2)

[ angles ]
;  ai    aj    ak  funct     th0(deg)        k(kJ/mol/rad^2)
    1     3     4     1     49.54589         11130.48
    1     4     3     1     67.08103          3535.37
    1     4     5     1    102.02380          7436.26
    2     1     3     1     99.17137          4748.51
    2     1     4     1    162.00777          2726.91
    3     1     4     1     63.37306          5550.29
    3     4     5     1    168.22888          2998.52

[ dihedrals ]
;  ai    aj    ak    al  funct   phi0(deg)        k(kJ/mol)   mult
    1     3     4     5     1    179.10613       28.352      1
    2     1     3     4     1      0.01860        9.294      1
    2     1     4     3     1    179.11748       20.975      1
    2     1     4     5     1     -1.77865       19.075      1
    3     1     4     5     1     -0.01818        9.304      1
