[ moleculetype ]
; name        nrexcl
res           1

[ atoms ]
;    nr  type resnr resid  atom  cgnr     charge       mass
      1 N4a       1 res   C1        1      0.000     72.000
      2 C1        1 res   C2        2      0.000     72.000
      3 SN3r      1 res   C3        3      0.000     54.000
      4 SN4a      1 res   C4        4      0.000     54.000
      5 C1        1 res   C5        5      0.000     72.000
      6 N3r       1 res   C6        6      0.000     72.000

[ bonds ]
;  ai    aj   funct      b0(nm)        k
    1     2     1      0.45449    20000
    1     3     1      0.31278    20000
    3     4     1      0.25534    20000
    3     6     1      0.34658    20000
    4     5     1      0.32269    20000
