[ moleculetype ]
; name        nrexcl
res           1

[ atoms ]
;    nr  type  resnr resid  atom  cgnr     charge       mass
      1 TN6a      1 res   C1        1      0.000     36.000
      2 TN6a      1 res   C2        2      0.000     36.000
      3 TC6       1 res   C3        3      0.000     36.000
      4 TC5       1 res   C4        4      0.000     36.000

[ constraints ]
;  ai    aj   funct      b0(nm)
    1     2     1      0.22172
    2     3     1      0.26040
    1     4     1      0.28375
    2     4     1      0.23714

[ bonds ]
;  ai    aj   funct      b0(nm)          k(kJ/mol/nm^2)

[ angles ]
;  ai    aj    ak  funct     th0(deg)        k(kJ/mol/rad^2)
    1     2     3     1    121.80865           232.02
    1     2     4     1     76.32884          4187.79
    1     4     2     1     49.39228          7656.35
    2     1     4     1     54.27890         19321.32
    3     2     4     1    152.86553           506.36

[ dihedrals ]
;  ai    aj    ak    al  funct   phi0(deg)        k(kJ/mol)   mult
    1     4     2     3     1      1.99484       29.675      1
    3     2     1     4     1      1.73699       23.861      1
