[ moleculetype ]
; name        nrexcl
res           1

[ atoms ]
;    nr  type  resnr resid  atom  cgnr     charge       mass
      1 SN3a      1 res   C1        1      0.000     54.000
      2 TC5       1 res   C2        2      0.000     36.000
      3 TN6d      1 res   C3        3      0.000     36.000
      4 TN6a      1 res   C4        4      0.000     36.000

[ constraints ]
;  ai    aj   funct      b0(nm)
    1     2     1      0.25164
    3     4     1      0.21035
    2     3     1      0.20767
    2     4     1      0.25942

[ bonds ]
;  ai    aj   funct      b0(nm)          k(kJ/mol/nm^2)

[ angles ]
;  ai    aj    ak  funct     th0(deg)        k(kJ/mol/rad^2)
    1     2     3     1    149.18830          1097.90
    1     2     4     1     98.29226          1599.67
    2     3     4     1     76.73630          2777.68
    2     4     3     1     51.17351          3958.17
    3     2     4     1     52.09016          5408.28

[ dihedrals ]
;  ai    aj    ak    al  funct   phi0(deg)        k(kJ/mol)   mult
    1     2     3     4     1   -179.15193       23.489      1
    1     2     4     3     1     -0.00655       15.106      1
