[ moleculetype ]
; name        nrexcl
res           1

[ atoms ]
;    nr  type  resnr resid  atom  cgnr     charge       mass
      1 SC3       1 res   C1        1      0.000     54.000
      2 SN4a      1 res   C2        2      0.000     54.000
      3 TC5       1 res   C3        3      0.000     36.000
      4 TC5       1 res   C4        4      0.000     36.000
      5 TC5       1 res   C5        5      0.000     36.000
      6 SN4a      1 res   C6        6      0.000     54.000
      7 TC5       1 res   C7        7      0.000     36.000
      8 TC5       1 res   C8        8      0.000     36.000
      9 SN6       1 res   C9        9      0.000     54.000
     10 SN4a      1 res   C10      10      0.000     54.000
     11 TP1       1 res   C11      11      0.000     36.000
     12 SP4       1 res   C12      12      0.000     54.000
     13 TN6       1 res   C13      13      0.000     36.000
     14 SC3       1 res   C14      14      0.000     54.000
     15 TC5       1 res   C15      15      0.000     36.000
     16 SP2       1 res   C16      16      0.000     54.000
     17 TN4a      1 res   C17      17      0.000     36.000
     18 SP4       1 res   C18      18      0.000     54.000
     19 TN4a      1 res   C19      19      0.000     36.000
     20 TP1       1 res   C20      20      0.000     36.000
     21 SP4       1 res   C21      21      0.000     54.000

[ constraints ]
;  ai    aj   funct      b0(nm)
    4     5     1      0.29807
   15    17     1      0.23073
    9    10     1      0.34728
   14    15     1      0.29282
    7     9     1      0.26077
   19    20     1      0.21331
    5     6     1      0.20644
    6     7     1      0.23734
   15    16     1      0.25738
    3     5     1      0.27048
    2     3     1      0.24720
   18    21     1      0.30838
    1    14     1      0.24413
    7     8     1      0.29707
    3     4     1      0.25617
    8     9     1      0.29760

[ bonds ]
;  ai    aj   funct      b0(nm)          k(kJ/mol/nm^2)
   19    21     1      0.28118          15739.9
   17    18     1      0.25364          15509.8
   10    12     1      0.26242          14534.1
   18    19     1      0.28145          13953.3
    1     2     1      0.24376           5733.0
   10    11     1      0.27451          13872.8
   14    17     1      0.27641          15391.3
   10    13     1      0.25399           4635.2
   12    13     1      0.28496          17408.4

[ angles ]
;  ai    aj    ak  funct     th0(deg)        k(kJ/mol/rad^2)
    1     2     3     1    138.62726            74.40
    1    14    15     1    134.43321           563.61
    1    14    17     1     88.70438           655.78
    2     1    14     1    103.43256           277.22
    2     3     4     1    144.87810          1283.39
    2     3     5     1     76.34959          1682.82
    3     4     5     1     57.83203          8043.76
    3     5     4     1     53.28990         11040.92
    3     5     6     1    160.74598           314.99
    4     3     5     1     68.87808          7189.52
    4     5     6     1    109.39969           720.52
    5     6     7     1    143.91397           311.49
    6     7     8     1     87.01525          1208.70
    6     7     9     1    150.31106           805.84
    7     8     9     1     52.01521         11455.94
    7     9     8     1     63.88380          9044.64
    7     9    10     1     60.27229          1276.65
    8     7     9     1     64.10098          7145.00
    8     9    10     1    122.07219           868.63
    9    10    11     1     81.86784           142.57
    9    10    12     1    107.43722            66.67
    9    10    13     1     96.40843           242.00
   10    12    13     1     55.31557           185.74
   10    13    12     1     58.00685           333.17
   11    10    12     1     95.24806           506.70
   11    10    13     1    155.61752           101.98
   12    10    13     1     66.67230           803.61
   14    15    16     1     84.53976           834.75
   14    15    17     1     62.38425          1208.27
   14    17    15     1     69.85034          1770.13
   14    17    18     1    144.80731           379.24
   15    14    17     1     47.76531          1238.95
   15    17    18     1    143.68423           388.39
   16    15    17     1    141.78357           367.66
   17    18    19     1     89.69712           507.25
   17    18    21     1    104.38841            11.01
   18    19    20     1    140.20690            10.82
   18    19    21     1     66.49858          1513.17
   18    21    19     1     56.77891          1462.54
   19    18    21     1     56.72320          1244.83
   20    19    21     1    106.87733           123.59

[ dihedrals ]
;  ai    aj    ak    al  funct   phi0(deg)        k(kJ/mol)   mult
    1     2     3     4     1    -97.30549       26.328      1
    1     2     3     5     1   -101.11340       29.560      1
    1    14    15    16     1     -1.47816       22.685      1
    1    14    15    17     1   -163.73644       19.129      1
    1    14    17    15     1     11.09075       14.329      1
    1    14    17    18     1   -165.64997       22.464      1
    2     1    14    15     1     59.69370       21.641      1
    2     1    14    17     1     71.42446       16.324      1
    2     3     4     5     1   -179.52003       13.503      1
    2     3     5     4     1      0.26011       10.666      1
    2     3     5     6     1      9.31572       26.589      1
    3     2     1    14     1     22.18255       14.217      1
    3     4     5     6     1      4.39100       15.074      1
    3     5     6     7     1    160.72796       26.720      1
    4     3     5     6     1   -171.71822       26.247      1
    4     5     6     7     1    168.24804       29.282      1
    5     6     7     8     1     21.38795       27.644      1
    5     6     7     9     1     27.78845       29.425      1
    6     7     8     9     1     -6.71373       11.407      1
    6     7     9     8     1    171.84773       18.343      1
    6     7     9    10     1    -20.41960       23.365      1
    7     8     9    10     1    164.11219       15.042      1
    7     9    10    11     1    108.90324       20.579      1
    7     9    10    12     1     17.29415       20.099      1
    7     9    10    13     1    -43.14847       16.998      1
    8     7     9    10     1    -15.87871       15.050      1
    8     9    10    11     1    122.96231       17.611      1
    8     9    10    12     1     30.93922       19.704      1
    8     9    10    13     1    -29.36781       14.261      1
    9    10    12    13     1     97.78052       18.340      1
    9    10    13    12     1    -64.30372       18.863      1
   11    10    12    13     1     14.08979       22.489      1
   11    10    13    12     1   -162.92770       32.357      1
   14    15    17    18     1     -2.97885       22.056      1
   14    17    15    16     1    152.68664       20.136      1
   14    17    18    19     1   -132.29746       22.332      1
   14    17    18    21     1    -90.16110       27.453      1
   15    14    17    18     1      3.18286       21.497      1
   15    17    18    19     1     46.20437       19.719      1
   15    17    18    21     1     93.15851       26.074      1
   16    15    14    17     1    -17.28640       14.963      1
   16    15    17    18     1    -28.55924       23.848      1
   17    18    19    20     1   -170.07331       25.198      1
   17    18    19    21     1    -60.06044       23.313      1
   17    18    21    19     1    121.18799       20.553      1
   18    21    19    20     1    -47.41532       20.798      1
   20    19    18    21     1     82.39197       19.503      1
