1TPCN00476
12
    1res  C1    1    0.421   0.073  -0.040
    1res  C2    2    0.279  -0.146  -0.077
    1res  C3    3    0.064  -0.291  -0.034
    1res  C4    4    0.013  -0.070  -0.215
    1res  C5    5   -0.039  -0.019   0.049
    1res  C6    6   -0.143  -0.229   0.018
    1res  C7    7    0.138  -0.174   0.174
    1res  C8    8    0.012   0.317   0.024
    1res  C9    9   -0.098   0.008   0.271
    1res  C10   10   -0.253   0.027   0.061
    1res  C11   11   -0.488   0.110   0.108
    1res  C12   12   -0.392   0.017  -0.150
  10.00000  10.00000  10.00000
