[ moleculetype ]
; name        nrexcl
res           1

[ atoms ]
;    nr  type resnr resid  atom  cgnr     charge       mass
      1 TN6a      1 res   C1        1      0.000     36.000
      2 TX3       1 res   C2        2      0.000     36.000
      3 TC5       1 res   C3        3      0.000     36.000
      4 TX3       1 res   C4        4      0.000     36.000
      5 TX3       1 res   C5        5      0.000     36.000
      6 TC5       1 res   C6        6      0.000     36.000
      7 TX3       1 res   C7        7      0.000     36.000
      8 TX3       1 res   C8        8      0.000     36.000

[ bonds ]
;  ai    aj   funct      b0(nm)        k
    1     2     1      0.21652    20000
    1     3     1      0.20842    20000
    1     6     1      0.20709    20000
    3     4     1      0.22065    20000
    3     5     1      0.22029    20000
    3     6     1      0.20950    20000
    6     7     1      0.22029    20000
    6     8     1      0.22056    20000
