1TPCN04597
28
    1res  C1    1   -0.929  -0.042   0.332
    1res  C2    2   -1.092  -0.048   0.099
    1res  C3    3   -0.880  -0.138  -0.071
    1res  C4    4   -0.786   0.122  -0.165
    1res  C5    5   -0.631   0.157   0.057
    1res  C6    6   -0.501  -0.211  -0.039
    1res  C7    7   -0.426   0.133  -0.178
    1res  C8    8   -0.196   0.001  -0.211
    1res  C9    9   -0.132  -0.252  -0.245
    1res  C10   10    0.089  -0.111  -0.207
    1res  C11   11    0.346  -0.034  -0.293
    1res  C12   12    0.455  -0.065  -0.601
    1res  C13   13    0.608  -0.136  -0.342
    1res  C14   14    0.514  -0.265  -0.160
    1res  C15   15    0.402  -0.101  -0.061
    1res  C16   16    0.354   0.056   0.183
    1res  C17   17    0.216   0.304   0.327
    1res  C18   18    0.493   0.219   0.379
    1res  C19   19    0.606  -0.017   0.365
    1res  C20   20    0.608   0.002   0.138
    1res  C21   21    0.885  -0.001   0.129
    1res  C22   22    1.001  -0.226   0.093
    1res  C23   23    1.147   0.062   0.069
    1res  C24   24    1.030   0.135  -0.134
    1res  C25   25    0.838   0.222   0.000
    1res  C26   26    0.072   0.060  -0.016
    1res  C27   27    0.029  -0.187   0.125
    1res  C28   28   -0.277   0.120   0.064
  10.00000  10.00000  10.00000
