[ moleculetype ]
; name        nrexcl
res           1

[ atoms ]
;    nr  type resnr resid  atom  cgnr     charge       mass
      1 P2        1 res   C1        1      0.000     72.000
      2 SC3       1 res   C2        2      0.000     54.000
      3 SC4       1 res   C3        3      0.000     54.000
      4 TC4       1 res   C4        4      0.000     36.000
      5 TC3       1 res   C5        5      0.000     36.000
      6 TN6       1 res   C6        6      0.000     36.000
      7 TN6       1 res   C7        7      0.000     36.000

[ bonds ]
;  ai    aj   funct      b0(nm)        k
    1     2     1      0.26396    20000
    2     3     1      0.30285    20000
    2     7     1      0.27601    20000
    3     4     1      0.32446    20000
    3     6     1      0.30024    20000
    3     7     1      0.29460    20000
    4     5     1      0.28356    20000
    5     6     1      0.27097    20000
