[ moleculetype ]
; name        nrexcl
res           1

[ atoms ]
;    nr  type  resnr resid  atom  cgnr     charge       mass
      1 TC5       1 res   C1        1      0.000     36.000
      2 TN2a      1 res   C2        2      0.000     36.000
      3 TN6a      1 res   C3        3      0.000     36.000
      4 TC5       1 res   C4        4      0.000     36.000

[ bonds ]
;  ai    aj   funct      b0(nm)          k(kJ/mol/nm^2)
    1     2     1      0.31727          55717.7
    1     3     1      0.29437         154158.2
    1     4     1      0.25255         195223.3
    3     4     1      0.25504         177043.9

[ angles ]
;  ai    aj    ak  funct     th0(deg)        k(kJ/mol/rad^2)
    1     3     4     1     54.16076          6075.01
    1     4     3     1     70.88967          5088.49
    2     1     3     1     73.66980           874.01
    2     1     4     1    127.80615           765.41
    3     1     4     1     54.94953          5881.76

[ dihedrals ]
;  ai    aj    ak    al  funct   phi0(deg)        k(kJ/mol)   mult
    2     1     3     4     1     -2.82581       15.760      1
    2     1     3     4     1    174.35668       14.732      2
    2     1     3     4     1     -8.44198       13.108      3
    2     1     4     3     1    178.79991       18.471      1
    2     1     4     3     1    177.69079       16.683      2
    2     1     4     3     1    176.79311       13.950      3
