[ moleculetype ]
; name        nrexcl
res           1

[ atoms ]
;    nr  type  resnr resid  atom  cgnr     charge       mass
      1 SC2       1 res   C1        1      0.000     54.000
      2 TC5       1 res   C2        2      0.000     36.000
      3 TC6       1 res   C3        3      0.000     36.000
      4 TN6a      1 res   C4        4      0.000     36.000

[ constraints ]
;  ai    aj   funct      b0(nm)
    3     4     1      0.26695
    2     3     1      0.24105
    2     4     1      0.29065

[ bonds ]
;  ai    aj   funct      b0(nm)          k(kJ/mol/nm^2)
    1     2     1      0.30608           3538.4

[ angles ]
;  ai    aj    ak  funct     th0(deg)        k(kJ/mol/rad^2)
    1     2     3     1    117.73822            93.92
    1     2     4     1     64.72640            99.34
    2     3     4     1     69.58461          4399.79
    2     4     3     1     51.00738          6184.89
    3     2     4     1     59.40799          3619.25

[ dihedrals ]
;  ai    aj    ak    al  funct   phi0(deg)        k(kJ/mol)   mult
    1     2     3     4     1    155.93901       19.143      1
    1     2     4     3     1    -24.05119       19.131      1
