[ moleculetype ]
; name        nrexcl
res           1

[ atoms ]
;    nr  type  resnr resid  atom  cgnr     charge       mass
      1 TN6d      1 res   C1        1      0.000     36.000
      2 TX4e      1 res   C2        2      0.000     36.000
      3 TC5       1 res   C3        3      0.000     36.000
      4 SX4e      1 res   C4        4      0.000     54.000

[ constraints ]
;  ai    aj   funct      b0(nm)
    1     2     1      0.24401
    2     3     1      0.26440
    1     4     1      0.31611
    3     4     1      0.29525

[ bonds ]
;  ai    aj   funct      b0(nm)          k(kJ/mol/nm^2)

[ angles ]
;  ai    aj    ak  funct     th0(deg)        k(kJ/mol/rad^2)
    1     2     3     1    111.08393          1153.71
    1     4     3     1     86.52990          1942.95
    2     1     4     1     80.32549          5166.24
    2     3     4     1     81.38122          5186.82

[ dihedrals ]
;  ai    aj    ak    al  funct   phi0(deg)        k(kJ/mol)   mult
    1     2     3     4     1   -178.01890       13.625      1
    1     4     3     2     1    179.72281       10.707      1
    2     1     4     3     1   -178.92409       11.466      1
    3     2     1     4     1    178.93280       12.925      1
