[ moleculetype ]
; name        nrexcl
res           1

[ atoms ]
;    nr  type resnr resid  atom  cgnr     charge       mass
      1 SC4       1 res   C1        1      0.000     54.000
      2 SC5       1 res   C2        2      0.000     54.000
      3 SC4       1 res   C3        3      0.000     54.000
      4 TC3       1 res   C4        4      0.000     36.000
      5 SC4       1 res   C5        5      0.000     54.000
      6 SC4       1 res   C6        6      0.000     54.000
      7 SN6       1 res   C7        7      0.000     54.000
      8 TN6       1 res   C8        8      0.000     36.000
      9 SN4a      1 res   C9        9      0.000     54.000
     10 TP1       1 res   C10      10      0.000     36.000
     11 TN6       1 res   C11      11      0.000     36.000
     12 SN4a      1 res   C12      12      0.000     54.000
     13 TN6       1 res   C13      13      0.000     36.000
     14 TN6       1 res   C14      14      0.000     36.000
     15 TN6       1 res   C15      15      0.000     36.000
     16 TN6       1 res   C16      16      0.000     36.000
     17 TN6       1 res   C17      17      0.000     36.000
     18 SC4       1 res   C18      18      0.000     54.000
     19 TC3       1 res   C19      19      0.000     36.000
     20 TC3       1 res   C20      20      0.000     36.000
     21 SP2       1 res   C21      21      0.000     54.000
     22 SN6       1 res   C22      22      0.000     54.000

[ bonds ]
;  ai    aj   funct      b0(nm)        k
    1     2     1      0.27690    20000
    1    22     1      0.30751    20000
    2     3     1      0.33166    20000
    2    20     1      0.36715    20000
    2    21     1      0.35053    20000
    2    22     1      0.29165    20000
    3     4     1      0.39294    20000
    3     5     1      0.31634    20000
    3    20     1      0.27545    20000
    4     5     1      0.37585    20000
    5     6     1      0.37768    20000
    5    19     1      0.27945    20000
    6     7     1      0.28586    20000
    6    18     1      0.35964    20000
    6    19     1      0.36252    20000
    7     8     1      0.26066    20000
    8     9     1      0.23934    20000
    8    18     1      0.24407    20000
    9    10     1      0.29160    20000
    9    11     1      0.26902    20000
    9    17     1      0.25512    20000
   11    12     1      0.27842    20000
   11    16     1      0.22166    20000
   12    13     1      0.25779    20000
   12    15     1      0.28971    20000
   13    14     1      0.24256    20000
   14    15     1      0.20676    20000
   16    17     1      0.24826    20000
