1TPCN03875
26
    1res  C1    1   -0.857   0.036   0.250
    1res  C2    2   -0.880   0.114  -0.032
    1res  C3    3   -0.901  -0.096  -0.157
    1res  C4    4   -1.013  -0.318  -0.195
    1res  C5    5   -1.002  -0.573  -0.157
    1res  C6    6   -0.771  -0.429  -0.052
    1res  C7    7   -0.625   0.102   0.109
    1res  C8    8   -0.633   0.343  -0.087
    1res  C9    9   -0.499   0.063  -0.249
    1res  C10   10   -0.351  -0.051  -0.040
    1res  C11   11   -0.288   0.200   0.219
    1res  C12   12   -0.187   0.219  -0.030
    1res  C13   13    0.065   0.219   0.155
    1res  C14   14    0.163  -0.046   0.150
    1res  C15   15    0.341   0.013  -0.017
    1res  C16   16    0.513  -0.097  -0.215
    1res  C17   17    0.668  -0.276  -0.264
    1res  C18   18    0.796  -0.130  -0.118
    1res  C19   19    0.993  -0.156   0.125
    1res  C20   20    0.951   0.019   0.308
    1res  C21   21    1.218  -0.029   0.141
    1res  C22   22    1.285  -0.213   0.022
    1res  C23   23    1.112  -0.180  -0.152
    1res  C24   24    0.660  -0.083   0.073
    1res  C25   25    0.325   0.258  -0.045
    1res  C26   26   -0.022   0.085  -0.189
  10.00000  10.00000  10.00000
