1TPCN03844
11
    1res  C1    1    0.682  -0.019   0.089
    1res  C2    2    0.504   0.134  -0.078
    1res  C3    3    0.324  -0.027  -0.138
    1res  C4    4    0.207   0.076   0.194
    1res  C5    5    0.084   0.178  -0.042
    1res  C6    6   -0.013  -0.178  -0.073
    1res  C7    7   -0.144   0.080   0.158
    1res  C8    8   -0.368  -0.049   0.104
    1res  C9    9   -0.482  -0.262  -0.021
    1res  C10   10   -0.609   0.029  -0.105
    1res  C11   11   -0.268   0.174  -0.082
  10.00000  10.00000  10.00000
