1TPCN04126
33
    1res  C1    1    0.757  -0.388  -0.053
    1res  C2    2    0.762  -0.099  -0.170
    1res  C3    3    0.593  -0.077   0.074
    1res  C4    4    0.799   0.032   0.130
    1res  C5    5    1.095   0.059   0.067
    1res  C6    6    1.359   0.192   0.046
    1res  C7    7    1.052   0.251  -0.124
    1res  C8    8    1.019   0.390   0.114
    1res  C9    9    0.981   0.217   0.277
    1res  C10   10    0.532   0.193   0.015
    1res  C11   11    0.341   0.034  -0.090
    1res  C12   12    0.233  -0.164   0.207
    1res  C13   13    0.209   0.100   0.185
    1res  C14   14   -0.086   0.096   0.180
    1res  C15   15   -0.196  -0.140   0.120
    1res  C16   16   -0.292  -0.124  -0.097
    1res  C17   17   -0.408  -0.184  -0.373
    1res  C18   18   -0.544  -0.381  -0.454
    1res  C19   19   -0.722  -0.281  -0.352
    1res  C20   20   -0.598  -0.239  -0.154
    1res  C21   21   -0.756  -0.222   0.061
    1res  C22   22   -0.993  -0.415   0.111
    1res  C23   23   -0.855  -0.206   0.307
    1res  C24   24   -0.669  -0.045   0.302
    1res  C25   25   -0.676  -0.009   0.082
    1res  C26   26   -0.772   0.205   0.050
    1res  C27   27   -0.869   0.413   0.263
    1res  C28   28   -1.006   0.385  -0.023
    1res  C29   29   -0.993   0.220  -0.194
    1res  C30   30   -0.742   0.222  -0.191
    1res  C31   31   -0.188   0.064  -0.213
    1res  C32   32    0.086   0.239  -0.035
    1res  C33   33    0.505  -0.295  -0.056
  10.00000  10.00000  10.00000
