1TPCN03872
18
    1res  C1    1    0.656  -0.255  -0.208
    1res  C2    2    0.740  -0.096   0.113
    1res  C3    3    0.497   0.061   0.075
    1res  C4    4    0.234   0.217  -0.049
    1res  C5    5    0.152  -0.010  -0.198
    1res  C6    6   -0.066  -0.167   0.035
    1res  C7    7   -0.103  -0.109  -0.242
    1res  C8    8   -0.214   0.207  -0.069
    1res  C9    9   -0.353  -0.012  -0.272
    1res  C10   10   -0.465   0.053   0.093
    1res  C11   11   -0.546   0.160   0.342
    1res  C12   12   -0.677  -0.068   0.211
    1res  C13   13   -0.716  -0.065  -0.157
    1res  C14   14   -0.437  -0.237  -0.075
    1res  C15   15    0.260  -0.086   0.188
    1res  C16   16    0.087   0.129   0.256
    1res  C17   17    0.694   0.232   0.036
    1res  C18   18    0.901   0.128   0.019
  10.00000  10.00000  10.00000
