1TPCN01504
11
    1res  C1    1   -0.206   0.318   0.054
    1res  C2    2   -0.216   0.032  -0.127
    1res  C3    3   -0.180   0.228  -0.252
    1res  C4    4   -0.473   0.191  -0.248
    1res  C5    5   -0.503  -0.030  -0.133
    1res  C6    6   -0.170  -0.091   0.033
    1res  C7    7   -0.315  -0.198   0.035
    1res  C8    8   -0.102  -0.297   0.192
    1res  C9    9   -0.006   0.083   0.004
    1res  C10   10    0.331   0.077   0.188
    1res  C11   11    0.425  -0.134  -0.078
  10.00000  10.00000  10.00000
