1TPCN04412
16
    1res  C1    1   -0.556   0.267  -0.021
    1res  C2    2   -0.758   0.091   0.116
    1res  C3    3   -0.658  -0.175   0.131
    1res  C4    4   -0.484   0.003   0.147
    1res  C5    5   -0.310  -0.056   0.032
    1res  C6    6   -0.108  -0.075  -0.071
    1res  C7    7    0.041  -0.142   0.122
    1res  C8    8    0.023  -0.180  -0.185
    1res  C9    9    0.349  -0.269  -0.085
    1res  C10   10    0.401  -0.023  -0.084
    1res  C11   11    0.564   0.003   0.172
    1res  C12   12    0.751   0.159   0.313
    1res  C13   13    0.771   0.243   0.086
    1res  C14   14    0.606   0.189  -0.037
    1res  C15   15    0.208   0.067  -0.220
    1res  C16   16   -0.200   0.144  -0.200
  10.00000  10.00000  10.00000
