[ moleculetype ]
; name        nrexcl
res           1

[ atoms ]
;    nr  type resnr resid  atom  cgnr     charge       mass
      1 SC4       1 res   C1        1      0.000     54.000
      2 TC3       1 res   C2        2      0.000     36.000
      3 TC5       1 res   C3        3      0.000     36.000
      4 SN4a      1 res   C4        4      0.000     54.000
      5 SN4a      1 res   C5        5      0.000     54.000
      6 TN3r      1 res   C6        6      0.000     36.000
      7 SN4a      1 res   C7        7      0.000     54.000
      8 TN6       1 res   C8        8      0.000     36.000
      9 SN4a      1 res   C9        9      0.000     54.000
     10 TN6       1 res   C10      10      0.000     36.000
     11 TP1       1 res   C11      11      0.000     36.000
     12 TN6       1 res   C12      12      0.000     36.000
     13 TN6       1 res   C13      13      0.000     36.000
     14 TN6       1 res   C14      14      0.000     36.000
     15 TN6       1 res   C15      15      0.000     36.000
     16 TN6       1 res   C16      16      0.000     36.000
     17 TN6       1 res   C17      17      0.000     36.000
     18 TC3       1 res   C18      18      0.000     36.000
     19 SC4       1 res   C19      19      0.000     54.000
     20 TC3       1 res   C20      20      0.000     36.000
     21 SC4       1 res   C21      21      0.000     54.000
     22 SC4       1 res   C22      22      0.000     54.000
     23 SC3       1 res   C23      23      0.000     54.000
     24 TN6       1 res   C24      24      0.000     36.000
     25 TN4a      1 res   C25      25      0.000     36.000
     26 TN6       1 res   C26      26      0.000     36.000
     27 TN6       1 res   C27      27      0.000     36.000
     28 SN4a      1 res   C28      28      0.000     54.000
     29 TP1       1 res   C29      29      0.000     36.000
     30 TN6       1 res   C30      30      0.000     36.000
     31 TN6       1 res   C31      31      0.000     36.000
     32 TN6       1 res   C32      32      0.000     36.000
     33 TN6       1 res   C33      33      0.000     36.000
     34 SC4       1 res   C34      34      0.000     54.000
     35 TC3       1 res   C35      35      0.000     36.000

[ bonds ]
;  ai    aj   funct      b0(nm)        k
    1     2     1      0.31241    20000
    1     3     1      0.30481    20000
    2     3     1      0.26142    20000
    3     4     1      0.28974    20000
    3    18     1      0.27093    20000
    3    19     1      0.28532    20000
    4     5     1      0.32241    20000
    5     6     1      0.28648    20000
    5    15     1      0.29806    20000
    5    17     1      0.27032    20000
    6     7     1      0.34811    20000
    7     8     1      0.22619    20000
    7    14     1      0.32878    20000
    8     9     1      0.33983    20000
    8    13     1      0.22676    20000
    9    10     1      0.24851    20000
    9    12     1      0.25691    20000
   10    11     1      0.27909    20000
   10    12     1      0.21959    20000
   13    14     1      0.22055    20000
   15    16     1      0.24443    20000
   16    17     1      0.23797    20000
   18    19     1      0.27656    20000
   19    20     1      0.34543    20000
   19    21     1      0.26821    20000
   20    21     1      0.37379    20000
   21    22     1      0.26414    20000
   21    35     1      0.30353    20000
   22    23     1      0.27904    20000
   22    34     1      0.36263    20000
   22    35     1      0.36723    20000
   23    24     1      0.29496    20000
   23    34     1      0.34473    20000
   24    25     1      0.26728    20000
   24    33     1      0.22324    20000
   25    26     1      0.25172    20000
   26    27     1      0.22640    20000
   27    28     1      0.29290    20000
   27    33     1      0.24017    20000
   28    29     1      0.28640    20000
   28    30     1      0.30248    20000
   28    32     1      0.26907    20000
   30    31     1      0.22632    20000
   31    32     1      0.28019    20000
