[ moleculetype ]
; name        nrexcl
res           1

[ atoms ]
;    nr  type resnr resid  atom  cgnr     charge       mass
      1 SN4a      1 res   C1        1      0.000     54.000
      2 SC3       1 res   C2        2      0.000     54.000
      3 SC4       1 res   C3        3      0.000     54.000
      4 TC3       1 res   C4        4      0.000     36.000
      5 SC4       1 res   C5        5      0.000     54.000
      6 TC3       1 res   C6        6      0.000     36.000
      7 SC4       1 res   C7        7      0.000     54.000
      8 SC3       1 res   C8        8      0.000     54.000
      9 SN4a      1 res   C9        9      0.000     54.000
     10 SC3       1 res   C10      10      0.000     54.000
     11 P1        1 res   C11      11      0.000     72.000
     12 SC4       1 res   C12      12      0.000     54.000

[ bonds ]
;  ai    aj   funct      b0(nm)        k
    1     2     1      0.45579    20000
    2     3     1      0.25989    20000
    2    12     1      0.33237    20000
    3     4     1      0.36275    20000
    3     5     1      0.25841    20000
    3    12     1      0.38391    20000
    4     5     1      0.30420    20000
    5     6     1      0.37853    20000
    5     7     1      0.26045    20000
    6     7     1      0.29047    20000
    7     8     1      0.24073    20000
    8     9     1      0.34116    20000
    9    10     1      0.24738    20000
   10    11     1      0.33592    20000
