Generated with MDTraj, t= 0.0
 52
    1UNL     C1    1   0.605   0.136  -0.120
    1UNL     O1    2   0.476   0.086  -0.138
    1UNL     C2    3   0.434   0.027  -0.022
    1UNL     O2    4   0.502   0.020   0.079
    1UNL     N1    5   0.306  -0.026  -0.022
    1UNL     C3    6   0.221  -0.015  -0.143
    1UNL     C4    7   0.095   0.068  -0.112
    1UNL     C5    8   0.074   0.074   0.041
    1UNL     C6    9  -0.058   0.121   0.104
    1UNL     C7   10  -0.064   0.275   0.108
    1UNL     O3   11  -0.072   0.330  -0.022
    1UNL     C8   12  -0.041   0.066   0.248
    1UNL     O4   13  -0.111   0.104   0.338
    1UNL     O5   14   0.063  -0.024   0.254
    1UNL     C9   15   0.101  -0.059   0.118
    1UNL    C10   16   0.253  -0.087   0.102
    1UNL    C11   17   0.007  -0.183   0.085
    1UNL    C12   18   0.081  -0.317   0.079
    1UNL    C13   19  -0.087  -0.168  -0.036
    1UNL    C14   20  -0.191  -0.062  -0.022
    1UNL    C15   21  -0.179   0.063   0.036
    1UNL     N2   22  -0.299   0.130   0.023
    1UNL    C16   23  -0.388   0.050  -0.045
    1UNL    C17   24  -0.521   0.071  -0.084
    1UNL    C18   25  -0.586  -0.028  -0.152
    1UNL    C19   26  -0.521  -0.149  -0.182
    1UNL    C20   27  -0.391  -0.172  -0.145
    1UNL    C21   28  -0.323  -0.071  -0.074
    1UNL     H1   29   0.671   0.054  -0.090
    1UNL     H2   30   0.603   0.211  -0.041
    1UNL     H3   31   0.640   0.180  -0.214
    1UNL     H4   32   0.195  -0.116  -0.175
    1UNL     H5   33   0.280   0.029  -0.223
    1UNL     H6   34   0.107   0.170  -0.150
    1UNL     H7   35   0.006   0.031  -0.163
    1UNL     H8   36   0.152   0.143   0.078
    1UNL     H9   37  -0.151   0.306   0.167
    1UNL    H10   38   0.025   0.314   0.158
    1UNL    H11   39  -0.076   0.428  -0.018
    1UNL    H12   40   0.306  -0.041   0.186
    1UNL    H13   41   0.278  -0.193   0.104
    1UNL    H14   42  -0.060  -0.188   0.173
    1UNL    H15   43   0.148  -0.321  -0.006
    1UNL    H16   44   0.011  -0.400   0.069
    1UNL    H17   45   0.139  -0.335   0.170
    1UNL    H18   46  -0.139  -0.264  -0.051
    1UNL    H19   47  -0.029  -0.155  -0.127
    1UNL    H20   48  -0.318   0.225   0.054
    1UNL    H21   49  -0.570   0.164  -0.060
    1UNL    H22   50  -0.688  -0.014  -0.183
    1UNL    H23   51  -0.575  -0.226  -0.236
    1UNL    H24   52  -0.342  -0.264  -0.168
   0.00000   0.00000   0.00000   0.00000   0.00000   0.00000   0.00000   0.00000   0.00000
Generated with MDTraj, t= 1.0
 52
    1UNL     C1    1   0.591   0.139  -0.147
    1UNL     O1    2   0.454   0.087  -0.140
    1UNL     C2    3   0.435   0.022  -0.021
    1UNL     O2    4   0.516   0.002   0.067
    1UNL     N1    5   0.306  -0.030  -0.012
    1UNL     C3    6   0.223  -0.034  -0.130
    1UNL     C4    7   0.102   0.059  -0.112
    1UNL     C5    8   0.076   0.074   0.038
    1UNL     C6    9  -0.054   0.115   0.104
    1UNL     C7   10  -0.060   0.273   0.111
    1UNL     O3   11  -0.109   0.326  -0.025
    1UNL     C8   12  -0.043   0.068   0.253
    1UNL     O4   13  -0.120   0.103   0.338
    1UNL     O5   14   0.057  -0.026   0.256
    1UNL     C9   15   0.106  -0.051   0.119
    1UNL    C10   16   0.258  -0.078   0.119
    1UNL    C11   17   0.011  -0.175   0.084
    1UNL    C12   18   0.081  -0.313   0.114
    1UNL    C13   19  -0.077  -0.160  -0.043
    1UNL    C14   20  -0.184  -0.053  -0.032
    1UNL    C15   21  -0.175   0.067   0.041
    1UNL     N2   22  -0.303   0.124   0.039
    1UNL    C16   23  -0.390   0.042  -0.032
    1UNL    C17   24  -0.524   0.066  -0.066
    1UNL    C18   25  -0.582  -0.023  -0.150
    1UNL    C19   26  -0.505  -0.129  -0.210
    1UNL    C20   27  -0.376  -0.159  -0.180
    1UNL    C21   28  -0.315  -0.063  -0.087
    1UNL     H1   29   0.635   0.085  -0.230
    1UNL     H2   30   0.653   0.116  -0.061
    1UNL     H3   31   0.594   0.248  -0.137
    1UNL     H4   32   0.199  -0.137  -0.156
    1UNL     H5   33   0.277   0.002  -0.217
    1UNL     H6   34   0.138   0.147  -0.165
    1UNL     H7   35   0.016   0.024  -0.167
    1UNL     H8   36   0.160   0.137   0.068
    1UNL     H9   37  -0.134   0.299   0.184
    1UNL    H10   38   0.035   0.319   0.130
    1UNL    H11   39  -0.084   0.411  -0.053
    1UNL    H12   40   0.318  -0.031   0.194
    1UNL    H13   41   0.280  -0.188   0.128
    1UNL    H14   42  -0.073  -0.157   0.152
    1UNL    H15   43   0.168  -0.318   0.044
    1UNL    H16   44   0.009  -0.393   0.091
    1UNL    H17   45   0.108  -0.321   0.214
    1UNL    H18   46  -0.122  -0.256  -0.058
    1UNL    H19   47  -0.013  -0.146  -0.126
    1UNL    H20   48  -0.334   0.202   0.104
    1UNL    H21   49  -0.583   0.138  -0.012
    1UNL    H22   50  -0.681  -0.027  -0.186
    1UNL    H23   51  -0.556  -0.194  -0.284
    1UNL    H24   52  -0.329  -0.258  -0.181
   0.00000   0.00000   0.00000   0.00000   0.00000   0.00000   0.00000   0.00000   0.00000
Generated with MDTraj, t= 2.0
 52
    1UNL     C1    1   0.597   0.128  -0.132
    1UNL     O1    2   0.472   0.066  -0.151
    1UNL     C2    3   0.435   0.019  -0.034
    1UNL     O2    4   0.496   0.016   0.069
    1UNL     N1    5   0.303  -0.023  -0.033
    1UNL     C3    6   0.213  -0.013  -0.147
    1UNL     C4    7   0.088   0.083  -0.103
    1UNL     C5    8   0.072   0.076   0.050
    1UNL     C6    9  -0.059   0.123   0.115
    1UNL     C7   10  -0.079   0.273   0.117
    1UNL     O3   11  -0.082   0.325  -0.016
    1UNL     C8   12  -0.034   0.074   0.263
    1UNL     O4   13  -0.097   0.121   0.351
    1UNL     O5   14   0.066  -0.025   0.261
    1UNL     C9   15   0.099  -0.055   0.122
    1UNL    C10   16   0.249  -0.087   0.095
    1UNL    C11   17   0.008  -0.182   0.096
    1UNL    C12   18   0.081  -0.323   0.102
    1UNL    C13   19  -0.079  -0.166  -0.024
    1UNL    C14   20  -0.186  -0.061  -0.013
    1UNL    C15   21  -0.181   0.057   0.051
    1UNL     N2   22  -0.304   0.124   0.031
    1UNL    C16   23  -0.393   0.050  -0.047
    1UNL    C17   24  -0.521   0.062  -0.093
    1UNL    C18   25  -0.575  -0.033  -0.172
    1UNL    C19   26  -0.499  -0.145  -0.216
    1UNL    C20   27  -0.377  -0.161  -0.164
    1UNL    C21   28  -0.317  -0.062  -0.082
    1UNL     H1   29   0.604   0.194  -0.218
    1UNL     H2   30   0.683   0.064  -0.127
    1UNL     H3   31   0.589   0.177  -0.034
    1UNL     H4   32   0.193  -0.107  -0.202
    1UNL     H5   33   0.265   0.036  -0.228
    1UNL     H6   34   0.098   0.186  -0.135
    1UNL     H7   35   0.008   0.049  -0.166
    1UNL     H8   36   0.143   0.156   0.076
    1UNL     H9   37  -0.172   0.299   0.164
    1UNL    H10   38   0.005   0.321   0.161
    1UNL    H11   39  -0.109   0.420  -0.005
    1UNL    H12   40   0.302  -0.045   0.178
    1UNL    H13   41   0.288  -0.196   0.100
    1UNL    H14   42  -0.064  -0.176   0.177
    1UNL    H15   43   0.146  -0.322   0.009
    1UNL    H16   44  -0.003  -0.394   0.096
    1UNL    H17   45   0.129  -0.342   0.191
    1UNL    H18   46  -0.128  -0.260  -0.042
    1UNL    H19   47  -0.014  -0.139  -0.105
    1UNL    H20   48  -0.321   0.221   0.075
    1UNL    H21   49  -0.590   0.133  -0.051
    1UNL    H22   50  -0.683  -0.018  -0.211
    1UNL    H23   51  -0.530  -0.221  -0.285
    1UNL    H24   52  -0.316  -0.251  -0.168
   0.00000   0.00000   0.00000   0.00000   0.00000   0.00000   0.00000   0.00000   0.00000
Generated with MDTraj, t= 3.0
 52
    1UNL     C1    1   0.621   0.099  -0.144
    1UNL     O1    2   0.471   0.101  -0.145
    1UNL     C2    3   0.427   0.039  -0.029
    1UNL     O2    4   0.496   0.020   0.067
    1UNL     N1    5   0.296  -0.008  -0.028
    1UNL     C3    6   0.214   0.005  -0.145
    1UNL     C4    7   0.084   0.075  -0.110
    1UNL     C5    8   0.066   0.065   0.044
    1UNL     C6    9  -0.069   0.122   0.111
    1UNL     C7   10  -0.081   0.277   0.119
    1UNL     O3   11  -0.061   0.335   0.000
    1UNL     C8   12  -0.033   0.072   0.256
    1UNL     O4   13  -0.102   0.107   0.346
    1UNL     O5   14   0.079  -0.016   0.261
    1UNL     C9   15   0.098  -0.060   0.122
    1UNL    C10   16   0.249  -0.091   0.089
    1UNL    C11   17   0.014  -0.188   0.099
    1UNL    C12   18   0.081  -0.328   0.090
    1UNL    C13   19  -0.091  -0.180  -0.011
    1UNL    C14   20  -0.197  -0.072   0.003
    1UNL    C15   21  -0.190   0.063   0.051
    1UNL     N2   22  -0.303   0.129   0.026
    1UNL    C16   23  -0.386   0.051  -0.054
    1UNL    C17   24  -0.507   0.076  -0.116
    1UNL    C18   25  -0.564  -0.025  -0.198
    1UNL    C19   26  -0.510  -0.151  -0.199
    1UNL    C20   27  -0.391  -0.180  -0.133
    1UNL    C21   28  -0.328  -0.078  -0.066
    1UNL     H1   29   0.660   0.177  -0.206
    1UNL     H2   30   0.660   0.000  -0.167
    1UNL     H3   31   0.646   0.143  -0.042
    1UNL     H4   32   0.203  -0.094  -0.189
    1UNL     H5   33   0.251   0.045  -0.239
    1UNL     H6   34   0.077   0.171  -0.158
    1UNL     H7   35   0.006   0.025  -0.168
    1UNL     H8   36   0.133   0.143   0.081
    1UNL     H9   37  -0.180   0.299   0.157
    1UNL    H10   38  -0.003   0.318   0.179
    1UNL    H11   39  -0.107   0.429   0.006
    1UNL    H12   40   0.321  -0.071   0.167
    1UNL    H13   41   0.264  -0.201   0.070
    1UNL    H14   42  -0.034  -0.183   0.198
    1UNL    H15   43   0.132  -0.331  -0.011
    1UNL    H16   44   0.008  -0.405   0.116
    1UNL    H17   45   0.149  -0.341   0.170
    1UNL    H18   46  -0.147  -0.272  -0.013
    1UNL    H19   47  -0.045  -0.164  -0.108
    1UNL    H20   48  -0.323   0.233   0.042
    1UNL    H21   49  -0.547   0.176  -0.113
    1UNL    H22   50  -0.651  -0.010  -0.245
    1UNL    H23   51  -0.552  -0.227  -0.267
    1UNL    H24   52  -0.324  -0.259  -0.155
   0.00000   0.00000   0.00000   0.00000   0.00000   0.00000   0.00000   0.00000   0.00000
Generated with MDTraj, t= 4.0
 52
    1UNL     C1    1   0.612   0.126  -0.143
    1UNL     O1    2   0.479   0.081  -0.154
    1UNL     C2    3   0.442   0.034  -0.033
    1UNL     O2    4   0.519   0.006   0.055
    1UNL     N1    5   0.302   0.009  -0.018
    1UNL     C3    6   0.216   0.009  -0.134
    1UNL     C4    7   0.073   0.050  -0.101
    1UNL     C5    8   0.067   0.067   0.052
    1UNL     C6    9  -0.065   0.118   0.114
    1UNL     C7   10  -0.070   0.267   0.123
    1UNL     O3   11  -0.091   0.326  -0.009
    1UNL     C8   12  -0.047   0.058   0.253
    1UNL     O4   13  -0.119   0.072   0.347
    1UNL     O5   14   0.071  -0.013   0.263
    1UNL     C9   15   0.105  -0.056   0.132
    1UNL    C10   16   0.258  -0.071   0.103
    1UNL    C11   17   0.014  -0.185   0.105
    1UNL    C12   18   0.089  -0.316   0.096
    1UNL    C13   19  -0.089  -0.182  -0.009
    1UNL    C14   20  -0.197  -0.072  -0.007
    1UNL    C15   21  -0.183   0.062   0.033
    1UNL     N2   22  -0.289   0.139  -0.002
    1UNL    C16   23  -0.377   0.057  -0.071
    1UNL    C17   24  -0.503   0.091  -0.125
    1UNL    C18   25  -0.577  -0.013  -0.184
    1UNL    C19   26  -0.527  -0.144  -0.175
    1UNL    C20   27  -0.404  -0.179  -0.127
    1UNL    C21   28  -0.328  -0.074  -0.077
    1UNL     H1   29   0.638   0.159  -0.243
    1UNL     H2   30   0.675   0.040  -0.110
    1UNL     H3   31   0.615   0.232  -0.091
    1UNL     H4   32   0.207  -0.089  -0.181
    1UNL     H5   33   0.271   0.059  -0.213
    1UNL     H6   34   0.057   0.138  -0.160
    1UNL     H7   35  -0.005  -0.006  -0.156
    1UNL     H8   36   0.144   0.141   0.083
    1UNL     H9   37  -0.161   0.290   0.182
    1UNL    H10   38   0.021   0.295   0.178
    1UNL    H11   39  -0.080   0.425  -0.016
    1UNL    H12   40   0.306  -0.037   0.195
    1UNL    H13   41   0.291  -0.173   0.094
    1UNL    H14   42  -0.040  -0.187   0.203
    1UNL    H15   43   0.150  -0.309   0.006
    1UNL    H16   44   0.032  -0.407   0.116
    1UNL    H17   45   0.160  -0.338   0.179
    1UNL    H18   46  -0.150  -0.270  -0.007
    1UNL    H19   47  -0.037  -0.180  -0.104
    1UNL    H20   48  -0.304   0.246   0.008
    1UNL    H21   49  -0.532   0.195  -0.129
    1UNL    H22   50  -0.684   0.007  -0.219
    1UNL    H23   51  -0.577  -0.226  -0.219
    1UNL    H24   52  -0.349  -0.272  -0.153
   0.00000   0.00000   0.00000   0.00000   0.00000   0.00000   0.00000   0.00000   0.00000
Generated with MDTraj, t= 5.0
 52
    1UNL     C1    1   0.599   0.129  -0.134
    1UNL     O1    2   0.471   0.077  -0.155
    1UNL     C2    3   0.437   0.020  -0.031
    1UNL     O2    4   0.507   0.020   0.068
    1UNL     N1    5   0.305  -0.043  -0.021
    1UNL     C3    6   0.208  -0.026  -0.137
    1UNL     C4    7   0.100   0.081  -0.112
    1UNL     C5    8   0.078   0.081   0.046
    1UNL     C6    9  -0.057   0.125   0.108
    1UNL     C7   10  -0.069   0.274   0.122
    1UNL     O3   11  -0.112   0.358   0.005
    1UNL     C8   12  -0.043   0.061   0.247
    1UNL     O4   13  -0.122   0.083   0.338
    1UNL     O5   14   0.069  -0.020   0.259
    1UNL     C9   15   0.110  -0.059   0.128
    1UNL    C10   16   0.256  -0.075   0.105
    1UNL    C11   17   0.013  -0.180   0.094
    1UNL    C12   18   0.087  -0.311   0.087
    1UNL    C13   19  -0.082  -0.166  -0.025
    1UNL    C14   20  -0.190  -0.064  -0.016
    1UNL    C15   21  -0.175   0.063   0.033
    1UNL     N2   22  -0.291   0.135  -0.003
    1UNL    C16   23  -0.388   0.051  -0.046
    1UNL    C17   24  -0.507   0.078  -0.115
    1UNL    C18   25  -0.574  -0.022  -0.178
    1UNL    C19   26  -0.517  -0.157  -0.187
    1UNL    C20   27  -0.400  -0.178  -0.122
    1UNL    C21   28  -0.329  -0.077  -0.058
    1UNL     H1   29   0.636   0.157  -0.231
    1UNL     H2   30   0.661   0.040  -0.111
    1UNL     H3   31   0.611   0.201  -0.044
    1UNL     H4   32   0.177  -0.128  -0.157
    1UNL     H5   33   0.268   0.012  -0.219
    1UNL     H6   34   0.135   0.175  -0.147
    1UNL     H7   35   0.009   0.060  -0.170
    1UNL     H8   36   0.163   0.145   0.080
    1UNL     H9   37  -0.141   0.290   0.209
    1UNL    H10   38   0.026   0.313   0.165
    1UNL    H11   39  -0.079   0.445   0.007
    1UNL    H12   40   0.306  -0.008   0.178
    1UNL    H13   41   0.287  -0.172   0.127
    1UNL    H14   42  -0.051  -0.181   0.187
    1UNL    H15   43   0.163  -0.304   0.015
    1UNL    H16   44   0.033  -0.406   0.084
    1UNL    H17   45   0.140  -0.352   0.181
    1UNL    H18   46  -0.121  -0.264  -0.042
    1UNL    H19   47  -0.028  -0.139  -0.118
    1UNL    H20   48  -0.286   0.241  -0.007
    1UNL    H21   49  -0.551   0.177  -0.113
    1UNL    H22   50  -0.668  -0.005  -0.224
    1UNL    H23   51  -0.565  -0.240  -0.244
    1UNL    H24   52  -0.354  -0.271  -0.117
   0.00000   0.00000   0.00000   0.00000   0.00000   0.00000   0.00000   0.00000   0.00000
Generated with MDTraj, t= 6.0
 52
    1UNL     C1    1   0.596   0.131  -0.136
    1UNL     O1    2   0.471   0.073  -0.152
    1UNL     C2    3   0.433   0.027  -0.028
    1UNL     O2    4   0.493   0.030   0.076
    1UNL     N1    5   0.304  -0.035  -0.017
    1UNL     C3    6   0.219  -0.017  -0.140
    1UNL     C4    7   0.092   0.062  -0.107
    1UNL     C5    8   0.069   0.075   0.052
    1UNL     C6    9  -0.060   0.127   0.102
    1UNL     C7   10  -0.067   0.279   0.107
    1UNL     O3   11  -0.082   0.339  -0.015
    1UNL     C8   12  -0.040   0.073   0.252
    1UNL     O4   13  -0.105   0.117   0.351
    1UNL     O5   14   0.059  -0.030   0.259
    1UNL     C9   15   0.096  -0.060   0.124
    1UNL    C10   16   0.245  -0.082   0.116
    1UNL    C11   17   0.005  -0.193   0.090
    1UNL    C12   18   0.085  -0.328   0.070
    1UNL    C13   19  -0.098  -0.171  -0.028
    1UNL    C14   20  -0.184  -0.053  -0.022
    1UNL    C15   21  -0.180   0.070   0.041
    1UNL     N2   22  -0.300   0.133   0.020
    1UNL    C16   23  -0.384   0.053  -0.051
    1UNL    C17   24  -0.520   0.067  -0.084
    1UNL    C18   25  -0.580  -0.040  -0.145
    1UNL    C19   26  -0.506  -0.156  -0.191
    1UNL    C20   27  -0.368  -0.166  -0.169
    1UNL    C21   28  -0.308  -0.058  -0.093
    1UNL     H1   29   0.625   0.150  -0.237
    1UNL     H2   30   0.667   0.053  -0.109
    1UNL     H3   31   0.609   0.200  -0.047
    1UNL     H4   32   0.192  -0.122  -0.154
    1UNL     H5   33   0.291   0.023  -0.213
    1UNL     H6   34   0.106   0.164  -0.131
    1UNL     H7   35   0.003   0.016  -0.153
    1UNL     H8   36   0.156   0.134   0.087
    1UNL     H9   37  -0.153   0.319   0.171
    1UNL    H10   38   0.018   0.323   0.167
    1UNL    H11   39  -0.052   0.433  -0.001
    1UNL    H12   40   0.287  -0.027   0.203
    1UNL    H13   41   0.273  -0.183   0.120
    1UNL    H14   42  -0.056  -0.199   0.183
    1UNL    H15   43   0.160  -0.311   0.000
    1UNL    H16   44   0.032  -0.419   0.049
    1UNL    H17   45   0.145  -0.363   0.161
    1UNL    H18   46  -0.153  -0.260  -0.045
    1UNL    H19   47  -0.030  -0.167  -0.115
    1UNL    H20   48  -0.325   0.223   0.073
    1UNL    H21   49  -0.577   0.140  -0.030
    1UNL    H22   50  -0.683  -0.049  -0.170
    1UNL    H23   51  -0.556  -0.232  -0.240
    1UNL    H24   52  -0.313  -0.263  -0.163
   0.00000   0.00000   0.00000   0.00000   0.00000   0.00000   0.00000   0.00000   0.00000
Generated with MDTraj, t= 7.0
 52
    1UNL     C1    1   0.607   0.131  -0.127
    1UNL     O1    2   0.474   0.088  -0.137
    1UNL     C2    3   0.437   0.031  -0.016
    1UNL     O2    4   0.498   0.027   0.088
    1UNL     N1    5   0.311  -0.030  -0.019
    1UNL     C3    6   0.228  -0.010  -0.149
    1UNL     C4    7   0.107   0.077  -0.120
    1UNL     C5    8   0.070   0.075   0.041
    1UNL     C6    9  -0.062   0.118   0.096
    1UNL     C7   10  -0.076   0.272   0.089
    1UNL     O3   11  -0.044   0.311  -0.046
    1UNL     C8   12  -0.044   0.075   0.246
    1UNL     O4   13  -0.115   0.115   0.343
    1UNL     O5   14   0.064  -0.022   0.256
    1UNL     C9   15   0.104  -0.059   0.118
    1UNL    C10   16   0.255  -0.081   0.106
    1UNL    C11   17   0.005  -0.177   0.081
    1UNL    C12   18   0.070  -0.321   0.088
    1UNL    C13   19  -0.081  -0.163  -0.043
    1UNL    C14   20  -0.187  -0.060  -0.031
    1UNL    C15   21  -0.183   0.050   0.045
    1UNL     N2   22  -0.310   0.100   0.067
    1UNL    C16   23  -0.394   0.037  -0.023
    1UNL    C17   24  -0.529   0.062  -0.063
    1UNL    C18   25  -0.589  -0.018  -0.157
    1UNL    C19   26  -0.521  -0.131  -0.201
    1UNL    C20   27  -0.391  -0.166  -0.160
    1UNL    C21   28  -0.322  -0.071  -0.079
    1UNL     H1   29   0.642   0.140  -0.225
    1UNL     H2   30   0.666   0.058  -0.078
    1UNL     H3   31   0.618   0.221  -0.065
    1UNL     H4   32   0.195  -0.112  -0.177
    1UNL     H5   33   0.305   0.034  -0.215
    1UNL     H6   34   0.128   0.180  -0.138
    1UNL     H7   35   0.013   0.047  -0.167
    1UNL     H8   36   0.146   0.140   0.086
    1UNL     H9   37  -0.175   0.315   0.123
    1UNL    H10   38  -0.010   0.321   0.164
    1UNL    H11   39  -0.058   0.412  -0.067
    1UNL    H12   40   0.312  -0.030   0.187
    1UNL    H13   41   0.278  -0.186   0.117
    1UNL    H14   42  -0.068  -0.172   0.167
    1UNL    H15   43   0.154  -0.326   0.026
    1UNL    H16   44   0.001  -0.398   0.067
    1UNL    H17   45   0.110  -0.337   0.194
    1UNL    H18   46  -0.124  -0.259  -0.063
    1UNL    H19   47  -0.025  -0.149  -0.137
    1UNL    H20   48  -0.333   0.171   0.144
    1UNL    H21   49  -0.586   0.145  -0.020
    1UNL    H22   50  -0.693   0.011  -0.195
    1UNL    H23   51  -0.556  -0.201  -0.282
    1UNL    H24   52  -0.342  -0.252  -0.197
   0.00000   0.00000   0.00000   0.00000   0.00000   0.00000   0.00000   0.00000   0.00000
Generated with MDTraj, t= 8.0
 52
    1UNL     C1    1   0.616   0.142  -0.092
    1UNL     O1    2   0.490   0.090  -0.123
    1UNL     C2    3   0.436   0.026  -0.011
    1UNL     O2    4   0.500   0.010   0.092
    1UNL     N1    5   0.306  -0.016  -0.027
    1UNL     C3    6   0.229  -0.007  -0.156
    1UNL     C4    7   0.096   0.059  -0.129
    1UNL     C5    8   0.072   0.070   0.028
    1UNL     C6    9  -0.057   0.125   0.097
    1UNL     C7   10  -0.049   0.271   0.105
    1UNL     O3   11  -0.065   0.320  -0.037
    1UNL     C8   12  -0.040   0.072   0.239
    1UNL     O4   13  -0.099   0.121   0.334
    1UNL     O5   14   0.065  -0.018   0.246
    1UNL     C9   15   0.103  -0.059   0.117
    1UNL    C10   16   0.247  -0.084   0.091
    1UNL    C11   17   0.004  -0.181   0.084
    1UNL    C12   18   0.076  -0.323   0.088
    1UNL    C13   19  -0.094  -0.174  -0.030
    1UNL    C14   20  -0.190  -0.059  -0.032
    1UNL    C15   21  -0.181   0.065   0.028
    1UNL     N2   22  -0.303   0.123   0.028
    1UNL    C16   23  -0.398   0.044  -0.030
    1UNL    C17   24  -0.537   0.047  -0.044
    1UNL    C18   25  -0.598  -0.038  -0.139
    1UNL    C19   26  -0.528  -0.144  -0.194
    1UNL    C20   27  -0.395  -0.160  -0.154
    1UNL    C21   28  -0.328  -0.068  -0.081
    1UNL     H1   29   0.631   0.216  -0.167
    1UNL     H2   30   0.694   0.067  -0.089
    1UNL     H3   31   0.601   0.206  -0.002
    1UNL     H4   32   0.225  -0.110  -0.196
    1UNL     H5   33   0.283   0.063  -0.224
    1UNL     H6   34   0.077   0.157  -0.164
    1UNL     H7   35   0.008   0.008  -0.169
    1UNL     H8   36   0.146   0.141   0.066
    1UNL     H9   37  -0.123   0.306   0.182
    1UNL    H10   38   0.045   0.303   0.148
    1UNL    H11   39  -0.073   0.416  -0.056
    1UNL    H12   40   0.290  -0.031   0.176
    1UNL    H13   41   0.285  -0.189   0.102
    1UNL    H14   42  -0.061  -0.185   0.174
    1UNL    H15   43   0.145  -0.333   0.006
    1UNL    H16   44  -0.007  -0.387   0.076
    1UNL    H17   45   0.143  -0.338   0.179
    1UNL    H18   46  -0.153  -0.264  -0.048
    1UNL    H19   47  -0.033  -0.177  -0.121
    1UNL    H20   48  -0.331   0.213   0.074
    1UNL    H21   49  -0.593   0.129  -0.008
    1UNL    H22   50  -0.696  -0.025  -0.162
    1UNL    H23   51  -0.574  -0.207  -0.265
    1UNL    H24   52  -0.334  -0.222  -0.223
   0.00000   0.00000   0.00000   0.00000   0.00000   0.00000   0.00000   0.00000   0.00000
Generated with MDTraj, t= 9.0
 52
    1UNL     C1    1   0.625   0.144  -0.082
    1UNL     O1    2   0.484   0.108  -0.108
    1UNL     C2    3   0.430   0.032  -0.008
    1UNL     O2    4   0.498  -0.003   0.087
    1UNL     N1    5   0.304  -0.016  -0.025
    1UNL     C3    6   0.233  -0.004  -0.145
    1UNL     C4    7   0.108   0.081  -0.123
    1UNL     C5    8   0.079   0.075   0.028
    1UNL     C6    9  -0.052   0.129   0.093
    1UNL     C7   10  -0.061   0.277   0.100
    1UNL     O3   11  -0.087   0.321  -0.029
    1UNL     C8   12  -0.042   0.071   0.236
    1UNL     O4   13  -0.098   0.116   0.334
    1UNL     O5   14   0.067  -0.027   0.236
    1UNL     C9   15   0.094  -0.067   0.107
    1UNL    C10   16   0.246  -0.101   0.091
    1UNL    C11   17  -0.005  -0.185   0.073
    1UNL    C12   18   0.058  -0.332   0.074
    1UNL    C13   19  -0.082  -0.166  -0.054
    1UNL    C14   20  -0.187  -0.057  -0.037
    1UNL    C15   21  -0.171   0.071   0.021
    1UNL     N2   22  -0.289   0.137   0.001
    1UNL    C16   23  -0.385   0.049  -0.047
    1UNL    C17   24  -0.523   0.071  -0.074
    1UNL    C18   25  -0.591  -0.036  -0.130
    1UNL    C19   26  -0.535  -0.161  -0.142
    1UNL    C20   27  -0.405  -0.190  -0.112
    1UNL    C21   28  -0.326  -0.076  -0.071
    1UNL     H1   29   0.646   0.217  -0.161
    1UNL     H2   30   0.695   0.057  -0.076
    1UNL     H3   31   0.612   0.217   0.003
    1UNL     H4   32   0.194  -0.101  -0.180
    1UNL     H5   33   0.299   0.039  -0.221
    1UNL     H6   34   0.110   0.185  -0.146
    1UNL     H7   35   0.022   0.049  -0.179
    1UNL     H8   36   0.149   0.135   0.090
    1UNL     H9   37  -0.144   0.313   0.162
    1UNL    H10   38   0.029   0.319   0.139
    1UNL    H11   39  -0.119   0.409  -0.035
    1UNL    H12   40   0.316  -0.085   0.174
    1UNL    H13   41   0.255  -0.215   0.083
    1UNL    H14   42  -0.074  -0.182   0.158
    1UNL    H15   43   0.123  -0.349  -0.016
    1UNL    H16   44  -0.023  -0.398   0.076
    1UNL    H17   45   0.136  -0.343   0.154
    1UNL    H18   46  -0.139  -0.257  -0.071
    1UNL    H19   47  -0.025  -0.157  -0.145
    1UNL    H20   48  -0.304   0.231   0.032
    1UNL    H21   49  -0.563   0.171  -0.060
    1UNL    H22   50  -0.704  -0.029  -0.144
    1UNL    H23   51  -0.607  -0.241  -0.169
    1UNL    H24   52  -0.361  -0.284  -0.134
   0.00000   0.00000   0.00000   0.00000   0.00000   0.00000   0.00000   0.00000   0.00000
Generated with MDTraj, t= 10.0
 52
    1UNL     C1    1   0.620   0.165  -0.078
    1UNL     O1    2   0.495   0.098  -0.111
    1UNL     C2    3   0.446   0.023  -0.005
    1UNL     O2    4   0.513   0.003   0.098
    1UNL     N1    5   0.318  -0.021  -0.025
    1UNL     C3    6   0.244  -0.014  -0.147
    1UNL     C4    7   0.109   0.068  -0.133
    1UNL     C5    8   0.078   0.071   0.023
    1UNL     C6    9  -0.057   0.125   0.085
    1UNL     C7   10  -0.065   0.274   0.094
    1UNL     O3   11  -0.081   0.338  -0.028
    1UNL     C8   12  -0.049   0.063   0.232
    1UNL     O4   13  -0.127   0.090   0.317
    1UNL     O5   14   0.070  -0.017   0.234
    1UNL     C9   15   0.100  -0.057   0.106
    1UNL    C10   16   0.251  -0.095   0.089
    1UNL    C11   17   0.006  -0.191   0.081
    1UNL    C12   18   0.074  -0.324   0.058
    1UNL    C13   19  -0.098  -0.177  -0.030
    1UNL    C14   20  -0.195  -0.062  -0.036
    1UNL    C15   21  -0.176   0.065   0.020
    1UNL     N2   22  -0.293   0.134   0.007
    1UNL    C16   23  -0.391   0.056  -0.051
    1UNL    C17   24  -0.526   0.078  -0.089
    1UNL    C18   25  -0.601  -0.028  -0.114
    1UNL    C19   26  -0.541  -0.156  -0.129
    1UNL    C20   27  -0.411  -0.178  -0.113
    1UNL    C21   28  -0.332  -0.069  -0.072
    1UNL     H1   29   0.636   0.234  -0.162
    1UNL     H2   30   0.700   0.087  -0.062
    1UNL     H3   31   0.602   0.226   0.017
    1UNL     H4   32   0.220  -0.114  -0.184
    1UNL     H5   33   0.294   0.035  -0.233
    1UNL     H6   34   0.116   0.164  -0.179
    1UNL     H7   35   0.021   0.021  -0.172
    1UNL     H8   36   0.147   0.135   0.081
    1UNL     H9   37  -0.142   0.301   0.166
    1UNL    H10   38   0.026   0.314   0.126
    1UNL    H11   39  -0.112   0.430  -0.002
    1UNL    H12   40   0.304  -0.058   0.178
    1UNL    H13   41   0.280  -0.205   0.095
    1UNL    H14   42  -0.050  -0.196   0.174
    1UNL    H15   43   0.136  -0.340  -0.039
    1UNL    H16   44   0.005  -0.403   0.063
    1UNL    H17   45   0.164  -0.338   0.122
    1UNL    H18   46  -0.151  -0.273  -0.038
    1UNL    H19   47  -0.034  -0.171  -0.115
    1UNL    H20   48  -0.306   0.225   0.045
    1UNL    H21   49  -0.575   0.172  -0.072
    1UNL    H22   50  -0.705  -0.021  -0.116
    1UNL    H23   51  -0.603  -0.241  -0.147
    1UNL    H24   52  -0.376  -0.277  -0.095
   0.00000   0.00000   0.00000   0.00000   0.00000   0.00000   0.00000   0.00000   0.00000
Generated with MDTraj, t= 11.0
 52
    1UNL     C1    1   0.619   0.151  -0.094
    1UNL     O1    2   0.488   0.103  -0.114
    1UNL     C2    3   0.443   0.039  -0.005
    1UNL     O2    4   0.497   0.038   0.106
    1UNL     N1    5   0.318  -0.024  -0.017
    1UNL     C3    6   0.239  -0.020  -0.144
    1UNL     C4    7   0.102   0.058  -0.128
    1UNL     C5    8   0.073   0.062   0.024
    1UNL     C6    9  -0.059   0.116   0.087
    1UNL     C7   10  -0.051   0.267   0.092
    1UNL     O3   11  -0.054   0.338  -0.042
    1UNL     C8   12  -0.052   0.065   0.231
    1UNL     O4   13  -0.127   0.099   0.316
    1UNL     O5   14   0.054  -0.028   0.239
    1UNL     C9   15   0.100  -0.066   0.111
    1UNL    C10   16   0.252  -0.088   0.103
    1UNL    C11   17   0.013  -0.197   0.077
    1UNL    C12   18   0.098  -0.321   0.049
    1UNL    C13   19  -0.101  -0.181  -0.031
    1UNL    C14   20  -0.202  -0.067  -0.024
    1UNL    C15   21  -0.177   0.062   0.018
    1UNL     N2   22  -0.296   0.132   0.016
    1UNL    C16   23  -0.393   0.050  -0.035
    1UNL    C17   24  -0.522   0.076  -0.067
    1UNL    C18   25  -0.600  -0.021  -0.119
    1UNL    C19   26  -0.547  -0.145  -0.146
    1UNL    C20   27  -0.415  -0.172  -0.129
    1UNL    C21   28  -0.336  -0.073  -0.071
    1UNL     H1   29   0.650   0.187  -0.193
    1UNL     H2   30   0.673   0.059  -0.057
    1UNL     H3   31   0.642   0.209  -0.002
    1UNL     H4   32   0.215  -0.108  -0.206
    1UNL     H5   33   0.296   0.035  -0.220
    1UNL     H6   34   0.110   0.161  -0.159
    1UNL     H7   35   0.034   0.005  -0.194
    1UNL     H8   36   0.149   0.134   0.058
    1UNL     H9   37  -0.134   0.304   0.152
    1UNL    H10   38   0.041   0.292   0.138
    1UNL    H11   39  -0.043   0.440  -0.026
    1UNL    H12   40   0.307  -0.033   0.185
    1UNL    H13   41   0.287  -0.190   0.116
    1UNL    H14   42  -0.043  -0.206   0.169
    1UNL    H15   43   0.166  -0.304  -0.042
    1UNL    H16   44   0.045  -0.413   0.025
    1UNL    H17   45   0.183  -0.348   0.111
    1UNL    H18   46  -0.156  -0.275  -0.011
    1UNL    H19   47  -0.053  -0.181  -0.128
    1UNL    H20   48  -0.310   0.224   0.044
    1UNL    H21   49  -0.564   0.167  -0.033
    1UNL    H22   50  -0.697   0.003  -0.166
    1UNL    H23   51  -0.614  -0.219  -0.188
    1UNL    H24   52  -0.374  -0.277  -0.134
   0.00000   0.00000   0.00000   0.00000   0.00000   0.00000   0.00000   0.00000   0.00000
Generated with MDTraj, t= 12.0
 52
    1UNL     C1    1   0.608   0.152  -0.104
    1UNL     O1    2   0.482   0.088  -0.126
    1UNL     C2    3   0.432   0.037  -0.007
    1UNL     O2    4   0.481   0.054   0.105
    1UNL     N1    5   0.312  -0.034  -0.015
    1UNL     C3    6   0.230  -0.018  -0.136
    1UNL     C4    7   0.107   0.069  -0.113
    1UNL     C5    8   0.070   0.064   0.042
    1UNL     C6    9  -0.056   0.126   0.097
    1UNL     C7   10  -0.047   0.278   0.088
    1UNL     O3   11  -0.039   0.307  -0.054
    1UNL     C8   12  -0.039   0.068   0.242
    1UNL     O4   13  -0.084   0.117   0.341
    1UNL     O5   14   0.045  -0.042   0.249
    1UNL     C9   15   0.093  -0.068   0.110
    1UNL    C10   16   0.243  -0.091   0.112
    1UNL    C11   17  -0.004  -0.193   0.062
    1UNL    C12   18   0.088  -0.312   0.037
    1UNL    C13   19  -0.091  -0.166  -0.052
    1UNL    C14   20  -0.191  -0.054  -0.024
    1UNL    C15   21  -0.178   0.073   0.029
    1UNL     N2   22  -0.303   0.130   0.027
    1UNL    C16   23  -0.399   0.046  -0.038
    1UNL    C17   24  -0.537   0.068  -0.065
    1UNL    C18   25  -0.597  -0.034  -0.139
    1UNL    C19   26  -0.533  -0.154  -0.164
    1UNL    C20   27  -0.400  -0.180  -0.126
    1UNL    C21   28  -0.331  -0.071  -0.064
    1UNL     H1   29   0.647   0.171  -0.200
    1UNL     H2   30   0.669   0.069  -0.064
    1UNL     H3   31   0.615   0.226  -0.029
    1UNL     H4   32   0.218  -0.119  -0.176
    1UNL     H5   33   0.285   0.018  -0.226
    1UNL     H6   34   0.134   0.164  -0.152
    1UNL     H7   35   0.030   0.036  -0.183
    1UNL     H8   36   0.156   0.125   0.077
    1UNL     H9   37  -0.140   0.324   0.126
    1UNL    H10   38   0.039   0.309   0.145
    1UNL    H11   39  -0.000   0.395  -0.077
    1UNL    H12   40   0.289  -0.042   0.203
    1UNL    H13   41   0.273  -0.192   0.110
    1UNL    H14   42  -0.064  -0.218   0.150
    1UNL    H15   43   0.174  -0.284  -0.030
    1UNL    H16   44   0.034  -0.398  -0.013
    1UNL    H17   45   0.137  -0.341   0.126
    1UNL    H18   46  -0.144  -0.257  -0.085
    1UNL    H19   47  -0.021  -0.134  -0.133
    1UNL    H20   48  -0.324   0.222   0.051
    1UNL    H21   49  -0.585   0.166  -0.048
    1UNL    H22   50  -0.691  -0.011  -0.188
    1UNL    H23   51  -0.580  -0.220  -0.235
    1UNL    H24   52  -0.357  -0.267  -0.158
   0.00000   0.00000   0.00000   0.00000   0.00000   0.00000   0.00000   0.00000   0.00000
Generated with MDTraj, t= 13.0
 52
    1UNL     C1    1   0.587   0.163  -0.094
    1UNL     O1    2   0.472   0.082  -0.123
    1UNL     C2    3   0.429   0.019  -0.012
    1UNL     O2    4   0.482   0.021   0.099
    1UNL     N1    5   0.304  -0.043  -0.024
    1UNL     C3    6   0.226  -0.032  -0.149
    1UNL     C4    7   0.100   0.055  -0.122
    1UNL     C5    8   0.085   0.071   0.032
    1UNL     C6    9  -0.051   0.125   0.087
    1UNL     C7   10  -0.062   0.283   0.092
    1UNL     O3   11  -0.063   0.339  -0.027
    1UNL     C8   12  -0.037   0.078   0.239
    1UNL     O4   13  -0.098   0.128   0.334
    1UNL     O5   14   0.056  -0.024   0.255
    1UNL     C9   15   0.099  -0.067   0.113
    1UNL    C10   16   0.242  -0.094   0.103
    1UNL    C11   17   0.003  -0.181   0.078
    1UNL    C12   18   0.083  -0.317   0.062
    1UNL    C13   19  -0.088  -0.167  -0.046
    1UNL    C14   20  -0.184  -0.056  -0.041
    1UNL    C15   21  -0.173   0.066   0.025
    1UNL     N2   22  -0.294   0.124   0.037
    1UNL    C16   23  -0.387   0.045  -0.032
    1UNL    C17   24  -0.523   0.053  -0.048
    1UNL    C18   25  -0.588  -0.038  -0.129
    1UNL    C19   26  -0.522  -0.147  -0.184
    1UNL    C20   27  -0.390  -0.165  -0.151
    1UNL    C21   28  -0.319  -0.069  -0.081
    1UNL     H1   29   0.643   0.186  -0.181
    1UNL     H2   30   0.673   0.103  -0.053
    1UNL     H3   31   0.555   0.244  -0.033
    1UNL     H4   32   0.214  -0.135  -0.188
    1UNL     H5   33   0.301  -0.004  -0.226
    1UNL     H6   34   0.103   0.147  -0.176
    1UNL     H7   35   0.013   0.016  -0.180
    1UNL     H8   36   0.165   0.143   0.053
    1UNL     H9   37  -0.160   0.298   0.147
    1UNL    H10   38   0.016   0.334   0.152
    1UNL    H11   39  -0.068   0.433  -0.021
    1UNL    H12   40   0.296  -0.035   0.185
    1UNL    H13   41   0.270  -0.195   0.110
    1UNL    H14   42  -0.058  -0.183   0.172
    1UNL    H15   43   0.164  -0.294  -0.007
    1UNL    H16   44   0.008  -0.387   0.010
    1UNL    H17   45   0.125  -0.349   0.153
    1UNL    H18   46  -0.145  -0.263  -0.059
    1UNL    H19   47  -0.038  -0.164  -0.147
    1UNL    H20   48  -0.319   0.197   0.102
    1UNL    H21   49  -0.571   0.143  -0.020
    1UNL    H22   50  -0.694  -0.018  -0.133
    1UNL    H23   51  -0.573  -0.221  -0.243
    1UNL    H24   52  -0.336  -0.245  -0.209
   0.00000   0.00000   0.00000   0.00000   0.00000   0.00000   0.00000   0.00000   0.00000
Generated with MDTraj, t= 14.0
 52
    1UNL     C1    1   0.594   0.165  -0.116
    1UNL     O1    2   0.469   0.108  -0.122
    1UNL     C2    3   0.440   0.027  -0.019
    1UNL     O2    4   0.510   0.010   0.080
    1UNL     N1    5   0.322  -0.039  -0.020
    1UNL     C3    6   0.241  -0.020  -0.144
    1UNL     C4    7   0.117   0.066  -0.112
    1UNL     C5    8   0.092   0.069   0.045
    1UNL     C6    9  -0.053   0.119   0.098
    1UNL     C7   10  -0.065   0.272   0.095
    1UNL     O3   11  -0.086   0.321  -0.038
    1UNL     C8   12  -0.041   0.069   0.238
    1UNL     O4   13  -0.127   0.099   0.322
    1UNL     O5   14   0.065  -0.020   0.256
    1UNL     C9   15   0.109  -0.063   0.120
    1UNL    C10   16   0.258  -0.110   0.093
    1UNL    C11   17  -0.004  -0.175   0.089
    1UNL    C12   18   0.041  -0.317   0.098
    1UNL    C13   19  -0.086  -0.168  -0.041
    1UNL    C14   20  -0.182  -0.056  -0.044
    1UNL    C15   21  -0.176   0.060   0.028
    1UNL     N2   22  -0.296   0.131   0.027
    1UNL    C16   23  -0.389   0.047  -0.035
    1UNL    C17   24  -0.528   0.068  -0.058
    1UNL    C18   25  -0.591  -0.026  -0.134
    1UNL    C19   26  -0.523  -0.145  -0.178
    1UNL    C20   27  -0.391  -0.166  -0.154
    1UNL    C21   28  -0.316  -0.065  -0.085
    1UNL     H1   29   0.615   0.234  -0.196
    1UNL     H2   30   0.683   0.092  -0.107
    1UNL     H3   31   0.583   0.237  -0.035
    1UNL     H4   32   0.212  -0.120  -0.175
    1UNL     H5   33   0.306   0.017  -0.224
    1UNL     H6   34   0.141   0.158  -0.160
    1UNL     H7   35   0.031   0.022  -0.164
    1UNL     H8   36   0.160   0.147   0.078
    1UNL     H9   37  -0.149   0.305   0.166
    1UNL    H10   38   0.027   0.305   0.151
    1UNL    H11   39  -0.114   0.414  -0.033
    1UNL    H12   40   0.301  -0.086   0.196
    1UNL    H13   41   0.274  -0.216   0.075
    1UNL    H14   42  -0.075  -0.152   0.172
    1UNL    H15   43   0.110  -0.337   0.021
    1UNL    H16   44  -0.054  -0.381   0.084
    1UNL    H17   45   0.087  -0.335   0.195
    1UNL    H18   46  -0.148  -0.261  -0.056
    1UNL    H19   47  -0.018  -0.171  -0.130
    1UNL    H20   48  -0.322   0.215   0.085
    1UNL    H21   49  -0.573   0.156  -0.010
    1UNL    H22   50  -0.698  -0.023  -0.144
    1UNL    H23   51  -0.594  -0.225  -0.200
    1UNL    H24   52  -0.338  -0.255  -0.178
   0.00000   0.00000   0.00000   0.00000   0.00000   0.00000   0.00000   0.00000   0.00000
Generated with MDTraj, t= 15.0
 52
    1UNL     C1    1   0.611   0.146  -0.097
    1UNL     O1    2   0.480   0.109  -0.123
    1UNL     C2    3   0.428   0.032  -0.026
    1UNL     O2    4   0.493   0.006   0.076
    1UNL     N1    5   0.300  -0.023  -0.030
    1UNL     C3    6   0.215  -0.004  -0.154
    1UNL     C4    7   0.088   0.068  -0.117
    1UNL     C5    8   0.078   0.073   0.039
    1UNL     C6    9  -0.058   0.119   0.106
    1UNL     C7   10  -0.058   0.275   0.113
    1UNL     O3   11  -0.067   0.330  -0.021
    1UNL     C8   12  -0.030   0.068   0.246
    1UNL     O4   13  -0.103   0.104   0.338
    1UNL     O5   14   0.070  -0.025   0.251
    1UNL     C9   15   0.095  -0.063   0.114
    1UNL    C10   16   0.252  -0.093   0.082
    1UNL    C11   17   0.002  -0.189   0.094
    1UNL    C12   18   0.075  -0.319   0.103
    1UNL    C13   19  -0.092  -0.180  -0.031
    1UNL    C14   20  -0.190  -0.066  -0.031
    1UNL    C15   21  -0.172   0.062   0.029
    1UNL     N2   22  -0.291   0.133   0.010
    1UNL    C16   23  -0.382   0.055  -0.055
    1UNL    C17   24  -0.517   0.076  -0.093
    1UNL    C18   25  -0.589  -0.028  -0.146
    1UNL    C19   26  -0.530  -0.159  -0.176
    1UNL    C20   27  -0.400  -0.177  -0.143
    1UNL    C21   28  -0.323  -0.072  -0.077
    1UNL     H1   29   0.643   0.241  -0.147
    1UNL     H2   30   0.684   0.055  -0.099
    1UNL     H3   31   0.613   0.199   0.004
    1UNL     H4   32   0.183  -0.098  -0.198
    1UNL     H5   33   0.266   0.057  -0.228
    1UNL     H6   34   0.108   0.167  -0.156
    1UNL     H7   35   0.005   0.011  -0.166
    1UNL     H8   36   0.162   0.134   0.076
    1UNL     H9   37  -0.154   0.294   0.172
    1UNL    H10   38   0.023   0.308   0.184
    1UNL    H11   39  -0.061   0.433  -0.026
    1UNL    H12   40   0.314  -0.071   0.173
    1UNL    H13   41   0.257  -0.202   0.077
    1UNL    H14   42  -0.070  -0.162   0.176
    1UNL    H15   43   0.141  -0.339   0.025
    1UNL    H16   44   0.014  -0.412   0.120
    1UNL    H17   45   0.137  -0.318   0.195
    1UNL    H18   46  -0.150  -0.279  -0.033
    1UNL    H19   47  -0.035  -0.182  -0.125
    1UNL    H20   48  -0.301   0.239   0.028
    1UNL    H21   49  -0.562   0.166  -0.057
    1UNL    H22   50  -0.693  -0.022  -0.164
    1UNL    H23   51  -0.589  -0.235  -0.224
    1UNL    H24   52  -0.367  -0.281  -0.133
   0.00000   0.00000   0.00000   0.00000   0.00000   0.00000   0.00000   0.00000   0.00000
Generated with MDTraj, t= 16.0
 52
    1UNL     C1    1   0.609   0.145  -0.111
    1UNL     O1    2   0.487   0.091  -0.130
    1UNL     C2    3   0.437   0.031  -0.017
    1UNL     O2    4   0.509   0.009   0.083
    1UNL     N1    5   0.301  -0.002  -0.023
    1UNL     C3    6   0.221   0.002  -0.145
    1UNL     C4    7   0.076   0.069  -0.123
    1UNL     C5    8   0.063   0.072   0.032
    1UNL     C6    9  -0.059   0.125   0.108
    1UNL     C7   10  -0.057   0.278   0.109
    1UNL     O3   11  -0.052   0.333  -0.014
    1UNL     C8   12  -0.029   0.063   0.246
    1UNL     O4   13  -0.089   0.100   0.346
    1UNL     O5   14   0.073  -0.029   0.238
    1UNL     C9   15   0.095  -0.060   0.102
    1UNL    C10   16   0.249  -0.086   0.085
    1UNL    C11   17   0.007  -0.189   0.089
    1UNL    C12   18   0.087  -0.317   0.075
    1UNL    C13   19  -0.111  -0.180  -0.012
    1UNL    C14   20  -0.211  -0.068   0.006
    1UNL    C15   21  -0.190   0.061   0.043
    1UNL     N2   22  -0.308   0.134   0.015
    1UNL    C16   23  -0.399   0.050  -0.048
    1UNL    C17   24  -0.516   0.076  -0.121
    1UNL    C18   25  -0.575  -0.028  -0.187
    1UNL    C19   26  -0.520  -0.161  -0.182
    1UNL    C20   27  -0.400  -0.181  -0.114
    1UNL    C21   28  -0.341  -0.075  -0.049
    1UNL     H1   29   0.657   0.174  -0.203
    1UNL     H2   30   0.671   0.069  -0.056
    1UNL     H3   31   0.627   0.223  -0.032
    1UNL     H4   32   0.217  -0.103  -0.175
    1UNL     H5   33   0.278   0.066  -0.212
    1UNL     H6   34   0.072   0.171  -0.157
    1UNL     H7   35   0.002   0.011  -0.177
    1UNL     H8   36   0.148   0.136   0.059
    1UNL     H9   37  -0.141   0.314   0.174
    1UNL    H10   38   0.037   0.309   0.157
    1UNL    H11   39  -0.019   0.429  -0.009
    1UNL    H12   40   0.285  -0.066   0.189
    1UNL    H13   41   0.282  -0.196   0.074
    1UNL    H14   42  -0.049  -0.182   0.186
    1UNL    H15   43   0.136  -0.321  -0.020
    1UNL    H16   44   0.018  -0.398   0.080
    1UNL    H17   45   0.167  -0.345   0.151
    1UNL    H18   46  -0.163  -0.283  -0.011
    1UNL    H19   47  -0.066  -0.177  -0.111
    1UNL    H20   48  -0.324   0.235   0.042
    1UNL    H21   49  -0.560   0.175  -0.132
    1UNL    H22   50  -0.639   0.004  -0.271
    1UNL    H23   51  -0.557  -0.245  -0.242
    1UNL    H24   52  -0.353  -0.280  -0.115
   0.00000   0.00000   0.00000   0.00000   0.00000   0.00000   0.00000   0.00000   0.00000
Generated with MDTraj, t= 17.0
 52
    1UNL     C1    1   0.607   0.130  -0.133
    1UNL     O1    2   0.476   0.089  -0.141
    1UNL     C2    3   0.433   0.037  -0.021
    1UNL     O2    4   0.508   0.033   0.078
    1UNL     N1    5   0.304  -0.013  -0.018
    1UNL     C3    6   0.212  -0.008  -0.136
    1UNL     C4    7   0.081   0.068  -0.106
    1UNL     C5    8   0.064   0.071   0.047
    1UNL     C6    9  -0.060   0.115   0.111
    1UNL     C7   10  -0.069   0.267   0.102
    1UNL     O3   11  -0.083   0.310  -0.027
    1UNL     C8   12  -0.046   0.060   0.256
    1UNL     O4   13  -0.117   0.102   0.344
    1UNL     O5   14   0.063  -0.026   0.255
    1UNL     C9   15   0.100  -0.063   0.118
    1UNL    C10   16   0.255  -0.081   0.105
    1UNL    C11   17   0.017  -0.188   0.086
    1UNL    C12   18   0.108  -0.317   0.066
    1UNL    C13   19  -0.095  -0.188  -0.007
    1UNL    C14   20  -0.199  -0.073  -0.002
    1UNL    C15   21  -0.181   0.057   0.039
    1UNL     N2   22  -0.293   0.135   0.016
    1UNL    C16   23  -0.375   0.056  -0.060
    1UNL    C17   24  -0.504   0.092  -0.104
    1UNL    C18   25  -0.579  -0.008  -0.171
    1UNL    C19   26  -0.528  -0.137  -0.182
    1UNL    C20   27  -0.398  -0.178  -0.136
    1UNL    C21   28  -0.324  -0.078  -0.072
    1UNL     H1   29   0.652   0.158  -0.224
    1UNL     H2   30   0.661   0.039  -0.110
    1UNL     H3   31   0.642   0.185  -0.046
    1UNL     H4   32   0.204  -0.115  -0.153
    1UNL     H5   33   0.271   0.034  -0.218
    1UNL     H6   34   0.069   0.168  -0.148
    1UNL     H7   35  -0.008   0.028  -0.152
    1UNL     H8   36   0.139   0.145   0.080
    1UNL     H9   37  -0.148   0.304   0.168
    1UNL    H10   38   0.026   0.309   0.130
    1UNL    H11   39  -0.075   0.405  -0.029
    1UNL    H12   40   0.320  -0.035   0.183
    1UNL    H13   41   0.291  -0.191   0.111
    1UNL    H14   42  -0.026  -0.208   0.186
    1UNL    H15   43   0.170  -0.304  -0.024
    1UNL    H16   44   0.044  -0.399   0.060
    1UNL    H17   45   0.174  -0.335   0.156
    1UNL    H18   46  -0.148  -0.289   0.010
    1UNL    H19   47  -0.063  -0.199  -0.109
    1UNL    H20   48  -0.309   0.237   0.017
    1UNL    H21   49  -0.521   0.198  -0.102
    1UNL    H22   50  -0.670   0.014  -0.219
    1UNL    H23   51  -0.587  -0.205  -0.238
    1UNL    H24   52  -0.366  -0.271  -0.166
   0.00000   0.00000   0.00000   0.00000   0.00000   0.00000   0.00000   0.00000   0.00000
Generated with MDTraj, t= 18.0
 52
    1UNL     C1    1   0.595   0.130  -0.149
    1UNL     O1    2   0.470   0.073  -0.148
    1UNL     C2    3   0.434   0.027  -0.026
    1UNL     O2    4   0.506   0.047   0.071
    1UNL     N1    5   0.316  -0.046  -0.017
    1UNL     C3    6   0.219  -0.040  -0.129
    1UNL     C4    7   0.111   0.057  -0.105
    1UNL     C5    8   0.083   0.075   0.045
    1UNL     C6    9  -0.053   0.122   0.109
    1UNL     C7   10  -0.067   0.278   0.132
    1UNL     O3   11  -0.110   0.340   0.003
    1UNL     C8   12  -0.046   0.071   0.253
    1UNL     O4   13  -0.127   0.107   0.331
    1UNL     O5   14   0.061  -0.018   0.260
    1UNL     C9   15   0.101  -0.053   0.128
    1UNL    C10   16   0.253  -0.092   0.112
    1UNL    C11   17   0.008  -0.179   0.086
    1UNL    C12   18   0.084  -0.315   0.079
    1UNL    C13   19  -0.083  -0.168  -0.032
    1UNL    C14   20  -0.190  -0.064  -0.020
    1UNL    C15   21  -0.173   0.066   0.034
    1UNL     N2   22  -0.293   0.128   0.020
    1UNL    C16   23  -0.383   0.054  -0.052
    1UNL    C17   24  -0.520   0.071  -0.095
    1UNL    C18   25  -0.578  -0.028  -0.169
    1UNL    C19   26  -0.511  -0.148  -0.199
    1UNL    C20   27  -0.386  -0.165  -0.147
    1UNL    C21   28  -0.322  -0.067  -0.078
    1UNL     H1   29   0.622   0.185  -0.238
    1UNL     H2   30   0.671   0.057  -0.167
    1UNL     H3   31   0.603   0.193  -0.060
    1UNL     H4   32   0.170  -0.137  -0.134
    1UNL     H5   33   0.279  -0.025  -0.219
    1UNL     H6   34   0.129   0.155  -0.150
    1UNL     H7   35   0.016   0.032  -0.150
    1UNL     H8   36   0.162   0.142   0.084
    1UNL     H9   37  -0.147   0.294   0.203
    1UNL    H10   38   0.023   0.315   0.171
    1UNL    H11   39  -0.117   0.434   0.006
    1UNL    H12   40   0.312  -0.034   0.187
    1UNL    H13   41   0.294  -0.196   0.138
    1UNL    H14   42  -0.056  -0.200   0.173
    1UNL    H15   43   0.160  -0.314  -0.006
    1UNL    H16   44   0.011  -0.387   0.061
    1UNL    H17   45   0.129  -0.343   0.175
    1UNL    H18   46  -0.140  -0.268  -0.039
    1UNL    H19   47  -0.019  -0.164  -0.121
    1UNL    H20   48  -0.316   0.230   0.037
    1UNL    H21   49  -0.563   0.169  -0.083
    1UNL    H22   50  -0.687  -0.011  -0.183
    1UNL    H23   51  -0.568  -0.231  -0.247
    1UNL    H24   52  -0.332  -0.263  -0.169
   0.00000   0.00000   0.00000   0.00000   0.00000   0.00000   0.00000   0.00000   0.00000
Generated with MDTraj, t= 19.0
 52
    1UNL     C1    1   0.587   0.134  -0.132
    1UNL     O1    2   0.473   0.060  -0.150
    1UNL     C2    3   0.426   0.016  -0.030
    1UNL     O2    4   0.493   0.011   0.073
    1UNL     N1    5   0.296  -0.029  -0.023
    1UNL     C3    6   0.216  -0.015  -0.145
    1UNL     C4    7   0.091   0.072  -0.108
    1UNL     C5    8   0.077   0.084   0.041
    1UNL     C6    9  -0.054   0.129   0.113
    1UNL     C7   10  -0.070   0.282   0.129
    1UNL     O3   11  -0.089   0.337  -0.005
    1UNL     C8   12  -0.042   0.069   0.255
    1UNL     O4   13  -0.118   0.096   0.342
    1UNL     O5   14   0.065  -0.015   0.262
    1UNL     C9   15   0.103  -0.053   0.127
    1UNL    C10   16   0.251  -0.092   0.098
    1UNL    C11   17   0.007  -0.171   0.091
    1UNL    C12   18   0.069  -0.305   0.102
    1UNL    C13   19  -0.078  -0.165  -0.040
    1UNL    C14   20  -0.178  -0.050  -0.033
    1UNL    C15   21  -0.174   0.064   0.042
    1UNL     N2   22  -0.292   0.133   0.016
    1UNL    C16   23  -0.383   0.048  -0.046
    1UNL    C17   24  -0.515   0.059  -0.088
    1UNL    C18   25  -0.573  -0.039  -0.157
    1UNL    C19   26  -0.502  -0.158  -0.201
    1UNL    C20   27  -0.372  -0.174  -0.161
    1UNL    C21   28  -0.308  -0.066  -0.084
    1UNL     H1   29   0.635   0.165  -0.227
    1UNL     H2   30   0.651   0.094  -0.053
    1UNL     H3   31   0.541   0.237  -0.121
    1UNL     H4   32   0.181  -0.114  -0.178
    1UNL     H5   33   0.271   0.041  -0.221
    1UNL     H6   34   0.100   0.171  -0.151
    1UNL     H7   35  -0.000   0.029  -0.145
    1UNL     H8   36   0.162   0.141   0.082
    1UNL     H9   37  -0.159   0.306   0.184
    1UNL    H10   38   0.016   0.323   0.175
    1UNL    H11   39  -0.102   0.437  -0.004
    1UNL    H12   40   0.322  -0.047   0.175
    1UNL    H13   41   0.281  -0.198   0.104
    1UNL    H14   42  -0.069  -0.165   0.171
    1UNL    H15   43   0.146  -0.329   0.021
    1UNL    H16   44  -0.010  -0.377   0.090
    1UNL    H17   45   0.105  -0.330   0.199
    1UNL    H18   46  -0.133  -0.265  -0.044
    1UNL    H19   47  -0.014  -0.156  -0.131
    1UNL    H20   48  -0.304   0.217   0.078
    1UNL    H21   49  -0.565   0.147  -0.050
    1UNL    H22   50  -0.674  -0.029  -0.181
    1UNL    H23   51  -0.559  -0.236  -0.240
    1UNL    H24   52  -0.331  -0.268  -0.175
   0.00000   0.00000   0.00000   0.00000   0.00000   0.00000   0.00000   0.00000   0.00000
Generated with MDTraj, t= 20.0
 52
    1UNL     C1    1   0.618   0.119  -0.135
    1UNL     O1    2   0.475   0.106  -0.132
    1UNL     C2    3   0.438   0.033  -0.023
    1UNL     O2    4   0.517  -0.007   0.063
    1UNL     N1    5   0.302  -0.005  -0.024
    1UNL     C3    6   0.223   0.006  -0.146
    1UNL     C4    7   0.085   0.072  -0.104
    1UNL     C5    8   0.074   0.078   0.044
    1UNL     C6    9  -0.066   0.119   0.102
    1UNL     C7   10  -0.067   0.270   0.102
    1UNL     O3   11  -0.056   0.320  -0.023
    1UNL     C8   12  -0.041   0.068   0.253
    1UNL     O4   13  -0.102   0.103   0.351
    1UNL     O5   14   0.063  -0.025   0.262
    1UNL     C9   15   0.102  -0.053   0.122
    1UNL    C10   16   0.255  -0.084   0.094
    1UNL    C11   17   0.000  -0.178   0.098
    1UNL    C12   18   0.070  -0.308   0.113
    1UNL    C13   19  -0.088  -0.165  -0.029
    1UNL    C14   20  -0.196  -0.064  -0.025
    1UNL    C15   21  -0.187   0.056   0.041
    1UNL     N2   22  -0.307   0.123   0.027
    1UNL    C16   23  -0.395   0.040  -0.043
    1UNL    C17   24  -0.526   0.066  -0.090
    1UNL    C18   25  -0.584  -0.029  -0.168
    1UNL    C19   26  -0.516  -0.148  -0.202
    1UNL    C20   27  -0.385  -0.173  -0.161
    1UNL    C21   28  -0.327  -0.079  -0.075
    1UNL     H1   29   0.648   0.164  -0.237
    1UNL     H2   30   0.671   0.031  -0.091
    1UNL     H3   31   0.635   0.210  -0.066
    1UNL     H4   32   0.201  -0.093  -0.190
    1UNL     H5   33   0.278   0.069  -0.218
    1UNL     H6   34   0.080   0.176  -0.133
    1UNL     H7   35  -0.008   0.025  -0.137
    1UNL     H8   36   0.148   0.145   0.090
    1UNL     H9   37  -0.164   0.306   0.139
    1UNL    H10   38   0.012   0.312   0.161
    1UNL    H11   39  -0.061   0.423  -0.014
    1UNL    H12   40   0.316  -0.071   0.190
    1UNL    H13   41   0.270  -0.182   0.057
    1UNL    H14   42  -0.073  -0.162   0.179
    1UNL    H15   43   0.146  -0.333   0.036
    1UNL    H16   44  -0.005  -0.391   0.116
    1UNL    H17   45   0.113  -0.316   0.208
    1UNL    H18   46  -0.145  -0.263  -0.023
    1UNL    H19   47  -0.022  -0.175  -0.121
    1UNL    H20   48  -0.315   0.223   0.046
    1UNL    H21   49  -0.587   0.143  -0.050
    1UNL    H22   50  -0.686  -0.019  -0.212
    1UNL    H23   51  -0.570  -0.210  -0.279
    1UNL    H24   52  -0.335  -0.270  -0.174
   0.00000   0.00000   0.00000   0.00000   0.00000   0.00000   0.00000   0.00000   0.00000
Generated with MDTraj, t= 21.0
 52
    1UNL     C1    1   0.638   0.116  -0.121
    1UNL     O1    2   0.495   0.107  -0.125
    1UNL     C2    3   0.441   0.030  -0.022
    1UNL     O2    4   0.505  -0.001   0.076
    1UNL     N1    5   0.307  -0.011  -0.026
    1UNL     C3    6   0.226   0.015  -0.151
    1UNL     C4    7   0.084   0.066  -0.117
    1UNL     C5    8   0.064   0.074   0.036
    1UNL     C6    9  -0.062   0.123   0.103
    1UNL     C7   10  -0.077   0.277   0.102
    1UNL     O3   11  -0.073   0.333  -0.032
    1UNL     C8   12  -0.038   0.071   0.247
    1UNL     O4   13  -0.105   0.111   0.341
    1UNL     O5   14   0.065  -0.023   0.256
    1UNL     C9   15   0.098  -0.061   0.112
    1UNL    C10   16   0.247  -0.090   0.089
    1UNL    C11   17   0.001  -0.190   0.095
    1UNL    C12   18   0.091  -0.312   0.088
    1UNL    C13   19  -0.103  -0.179  -0.019
    1UNL    C14   20  -0.198  -0.067  -0.008
    1UNL    C15   21  -0.185   0.059   0.047
    1UNL     N2   22  -0.308   0.121   0.033
    1UNL    C16   23  -0.393   0.043  -0.042
    1UNL    C17   24  -0.519   0.068  -0.094
    1UNL    C18   25  -0.584  -0.031  -0.168
    1UNL    C19   26  -0.518  -0.150  -0.190
    1UNL    C20   27  -0.392  -0.170  -0.146
    1UNL    C21   28  -0.330  -0.077  -0.063
    1UNL     H1   29   0.654   0.225  -0.152
    1UNL     H2   30   0.687   0.044  -0.188
    1UNL     H3   31   0.660   0.072  -0.021
    1UNL     H4   32   0.224  -0.077  -0.211
    1UNL     H5   33   0.276   0.089  -0.215
    1UNL     H6   34   0.073   0.174  -0.139
    1UNL     H7   35  -0.007   0.031  -0.166
    1UNL     H8   36   0.134   0.155   0.066
    1UNL     H9   37  -0.164   0.317   0.162
    1UNL    H10   38   0.007   0.316   0.162
    1UNL    H11   39  -0.076   0.432  -0.032
    1UNL    H12   40   0.300  -0.054   0.183
    1UNL    H13   41   0.264  -0.192   0.069
    1UNL    H14   42  -0.058  -0.183   0.189
    1UNL    H15   43   0.148  -0.314  -0.006
    1UNL    H16   44   0.019  -0.400   0.098
    1UNL    H17   45   0.150  -0.312   0.175
    1UNL    H18   46  -0.160  -0.276  -0.033
    1UNL    H19   47  -0.045  -0.169  -0.115
    1UNL    H20   48  -0.331   0.213   0.061
    1UNL    H21   49  -0.567   0.164  -0.070
    1UNL    H22   50  -0.670  -0.008  -0.220
    1UNL    H23   51  -0.553  -0.227  -0.251
    1UNL    H24   52  -0.340  -0.258  -0.193
   0.00000   0.00000   0.00000   0.00000   0.00000   0.00000   0.00000   0.00000   0.00000
Generated with MDTraj, t= 22.0
 52
    1UNL     C1    1   0.627   0.132  -0.114
    1UNL     O1    2   0.498   0.075  -0.133
    1UNL     C2    3   0.444   0.019  -0.015
    1UNL     O2    4   0.504   0.007   0.090
    1UNL     N1    5   0.314  -0.023  -0.021
    1UNL     C3    6   0.224  -0.006  -0.135
    1UNL     C4    7   0.101   0.076  -0.114
    1UNL     C5    8   0.065   0.078   0.040
    1UNL     C6    9  -0.064   0.121   0.103
    1UNL     C7   10  -0.077   0.277   0.106
    1UNL     O3   11  -0.116   0.338  -0.026
    1UNL     C8   12  -0.042   0.063   0.244
    1UNL     O4   13  -0.102   0.110   0.342
    1UNL     O5   14   0.066  -0.021   0.248
    1UNL     C9   15   0.097  -0.057   0.110
    1UNL    C10   16   0.249  -0.084   0.094
    1UNL    C11   17   0.006  -0.188   0.082
    1UNL    C12   18   0.094  -0.311   0.068
    1UNL    C13   19  -0.089  -0.171  -0.040
    1UNL    C14   20  -0.196  -0.065  -0.015
    1UNL    C15   21  -0.182   0.063   0.033
    1UNL     N2   22  -0.296   0.129   0.021
    1UNL    C16   23  -0.385   0.054  -0.056
    1UNL    C17   24  -0.519   0.075  -0.094
    1UNL    C18   25  -0.586  -0.031  -0.147
    1UNL    C19   26  -0.528  -0.154  -0.164
    1UNL    C20   27  -0.394  -0.179  -0.133
    1UNL    C21   28  -0.325  -0.074  -0.076
    1UNL     H1   29   0.636   0.235  -0.151
    1UNL     H2   30   0.679   0.054  -0.166
    1UNL     H3   31   0.625   0.127  -0.008
    1UNL     H4   32   0.207  -0.098  -0.194
    1UNL     H5   33   0.288   0.051  -0.205
    1UNL     H6   34   0.095   0.179  -0.152
    1UNL     H7   35   0.012   0.033  -0.162
    1UNL     H8   36   0.132   0.156   0.080
    1UNL     H9   37  -0.147   0.300   0.194
    1UNL    H10   38   0.017   0.324   0.148
    1UNL    H11   39  -0.117   0.431  -0.038
    1UNL    H12   40   0.289  -0.039   0.190
    1UNL    H13   41   0.277  -0.187   0.082
    1UNL    H14   42  -0.052  -0.196   0.178
    1UNL    H15   43   0.150  -0.289  -0.019
    1UNL    H16   44   0.030  -0.404   0.056
    1UNL    H17   45   0.153  -0.312   0.158
    1UNL    H18   46  -0.148  -0.266  -0.058
    1UNL    H19   47  -0.048  -0.150  -0.142
    1UNL    H20   48  -0.311   0.226   0.035
    1UNL    H21   49  -0.566   0.170  -0.099
    1UNL    H22   50  -0.696  -0.015  -0.171
    1UNL    H23   51  -0.591  -0.238  -0.200
    1UNL    H24   52  -0.338  -0.258  -0.168
   0.00000   0.00000   0.00000   0.00000   0.00000   0.00000   0.00000   0.00000   0.00000
Generated with MDTraj, t= 23.0
 52
    1UNL     C1    1   0.617   0.132  -0.129
    1UNL     O1    2   0.481   0.083  -0.123
    1UNL     C2    3   0.443   0.024  -0.009
    1UNL     O2    4   0.514   0.018   0.086
    1UNL     N1    5   0.317  -0.029  -0.013
    1UNL     C3    6   0.230  -0.027  -0.129
    1UNL     C4    7   0.107   0.068  -0.118
    1UNL     C5    8   0.078   0.076   0.036
    1UNL     C6    9  -0.056   0.123   0.097
    1UNL     C7   10  -0.061   0.278   0.099
    1UNL     O3   11  -0.115   0.348  -0.007
    1UNL     C8   12  -0.054   0.059   0.238
    1UNL     O4   13  -0.134   0.099   0.325
    1UNL     O5   14   0.054  -0.024   0.252
    1UNL     C9   15   0.102  -0.055   0.118
    1UNL    C10   16   0.253  -0.092   0.115
    1UNL    C11   17   0.014  -0.180   0.072
    1UNL    C12   18   0.090  -0.310   0.056
    1UNL    C13   19  -0.085  -0.159  -0.046
    1UNL    C14   20  -0.186  -0.059  -0.030
    1UNL    C15   21  -0.175   0.067   0.023
    1UNL     N2   22  -0.295   0.133   0.008
    1UNL    C16   23  -0.387   0.053  -0.048
    1UNL    C17   24  -0.521   0.072  -0.076
    1UNL    C18   25  -0.591  -0.032  -0.136
    1UNL    C19   26  -0.526  -0.155  -0.161
    1UNL    C20   27  -0.397  -0.182  -0.130
    1UNL    C21   28  -0.325  -0.071  -0.074
    1UNL     H1   29   0.662   0.115  -0.228
    1UNL     H2   30   0.651   0.052  -0.066
    1UNL     H3   31   0.599   0.232  -0.096
    1UNL     H4   32   0.184  -0.125  -0.143
    1UNL     H5   33   0.286  -0.011  -0.224
    1UNL     H6   34   0.135   0.169  -0.150
    1UNL     H7   35   0.020   0.035  -0.175
    1UNL     H8   36   0.156   0.145   0.075
    1UNL     H9   37  -0.116   0.311   0.194
    1UNL    H10   38   0.042   0.317   0.119
    1UNL    H11   39  -0.103   0.446  -0.001
    1UNL    H12   40   0.305  -0.038   0.196
    1UNL    H13   41   0.276  -0.200   0.131
    1UNL    H14   42  -0.041  -0.182   0.170
    1UNL    H15   43   0.163  -0.304  -0.018
    1UNL    H16   44   0.037  -0.406   0.035
    1UNL    H17   45   0.139  -0.325   0.155
    1UNL    H18   46  -0.137  -0.255  -0.078
    1UNL    H19   47  -0.026  -0.127  -0.133
    1UNL    H20   48  -0.295   0.237   0.016
    1UNL    H21   49  -0.563   0.173  -0.073
    1UNL    H22   50  -0.695  -0.028  -0.145
    1UNL    H23   51  -0.594  -0.225  -0.200
    1UNL    H24   52  -0.352  -0.287  -0.141
   0.00000   0.00000   0.00000   0.00000   0.00000   0.00000   0.00000   0.00000   0.00000
Generated with MDTraj, t= 24.0
 52
    1UNL     C1    1   0.616   0.141  -0.113
    1UNL     O1    2   0.493   0.065  -0.132
    1UNL     C2    3   0.436   0.026  -0.016
    1UNL     O2    4   0.494   0.030   0.089
    1UNL     N1    5   0.305  -0.020  -0.025
    1UNL     C3    6   0.223  -0.024  -0.144
    1UNL     C4    7   0.096   0.069  -0.111
    1UNL     C5    8   0.080   0.077   0.040
    1UNL     C6    9  -0.060   0.128   0.103
    1UNL     C7   10  -0.065   0.280   0.106
    1UNL     O3   11  -0.056   0.329  -0.016
    1UNL     C8   12  -0.052   0.067   0.242
    1UNL     O4   13  -0.137   0.094   0.327
    1UNL     O5   14   0.054  -0.019   0.251
    1UNL     C9   15   0.101  -0.053   0.119
    1UNL    C10   16   0.249  -0.082   0.104
    1UNL    C11   17   0.005  -0.184   0.077
    1UNL    C12   18   0.090  -0.311   0.062
    1UNL    C13   19  -0.083  -0.159  -0.045
    1UNL    C14   20  -0.194  -0.061  -0.029
    1UNL    C15   21  -0.176   0.064   0.031
    1UNL     N2   22  -0.292   0.133   0.007
    1UNL    C16   23  -0.387   0.049  -0.046
    1UNL    C17   24  -0.526   0.061  -0.065
    1UNL    C18   25  -0.593  -0.038  -0.122
    1UNL    C19   26  -0.526  -0.153  -0.170
    1UNL    C20   27  -0.394  -0.173  -0.145
    1UNL    C21   28  -0.321  -0.068  -0.083
    1UNL     H1   29   0.686   0.092  -0.188
    1UNL     H2   30   0.624   0.113  -0.005
    1UNL     H3   31   0.595   0.247  -0.110
    1UNL     H4   32   0.204  -0.130  -0.169
    1UNL     H5   33   0.269   0.024  -0.233
    1UNL     H6   34   0.112   0.168  -0.156
    1UNL     H7   35   0.009   0.021  -0.155
    1UNL     H8   36   0.162   0.138   0.082
    1UNL     H9   37  -0.156   0.326   0.156
    1UNL    H10   38   0.025   0.314   0.162
    1UNL    H11   39  -0.046   0.431  -0.007
    1UNL    H12   40   0.308  -0.030   0.181
    1UNL    H13   41   0.287  -0.188   0.118
    1UNL    H14   42  -0.055  -0.192   0.170
    1UNL    H15   43   0.152  -0.305  -0.024
    1UNL    H16   44   0.045  -0.404   0.034
    1UNL    H17   45   0.151  -0.345   0.152
    1UNL    H18   46  -0.137  -0.259  -0.047
    1UNL    H19   47  -0.034  -0.151  -0.143
    1UNL    H20   48  -0.319   0.227   0.034
    1UNL    H21   49  -0.589   0.136  -0.026
    1UNL    H22   50  -0.699  -0.027  -0.151
    1UNL    H23   51  -0.577  -0.241  -0.213
    1UNL    H24   52  -0.342  -0.264  -0.155
   0.00000   0.00000   0.00000   0.00000   0.00000   0.00000   0.00000   0.00000   0.00000
Generated with MDTraj, t= 25.0
 52
    1UNL     C1    1   0.618   0.131  -0.120
    1UNL     O1    2   0.483   0.081  -0.128
    1UNL     C2    3   0.437   0.041  -0.009
    1UNL     O2    4   0.497   0.044   0.095
    1UNL     N1    5   0.304  -0.012  -0.016
    1UNL     C3    6   0.230  -0.011  -0.140
    1UNL     C4    7   0.104   0.074  -0.116
    1UNL     C5    8   0.070   0.075   0.033
    1UNL     C6    9  -0.063   0.120   0.104
    1UNL     C7   10  -0.070   0.276   0.104
    1UNL     O3   11  -0.010   0.325  -0.023
    1UNL     C8   12  -0.041   0.071   0.241
    1UNL     O4   13  -0.103   0.119   0.331
    1UNL     O5   14   0.052  -0.023   0.247
    1UNL     C9   15   0.098  -0.059   0.115
    1UNL    C10   16   0.246  -0.095   0.101
    1UNL    C11   17   0.002  -0.182   0.068
    1UNL    C12   18   0.070  -0.321   0.069
    1UNL    C13   19  -0.089  -0.165  -0.052
    1UNL    C14   20  -0.191  -0.058  -0.029
    1UNL    C15   21  -0.184   0.062   0.042
    1UNL     N2   22  -0.309   0.125   0.035
    1UNL    C16   23  -0.397   0.042  -0.038
    1UNL    C17   24  -0.530   0.060  -0.077
    1UNL    C18   25  -0.598  -0.044  -0.146
    1UNL    C19   26  -0.528  -0.160  -0.181
    1UNL    C20   27  -0.401  -0.178  -0.143
    1UNL    C21   28  -0.331  -0.078  -0.068
    1UNL     H1   29   0.631   0.179  -0.224
    1UNL     H2   30   0.665   0.029  -0.097
    1UNL     H3   31   0.629   0.185  -0.023
    1UNL     H4   32   0.212  -0.110  -0.186
    1UNL     H5   33   0.299   0.040  -0.210
    1UNL     H6   34   0.128   0.176  -0.152
    1UNL     H7   35   0.025   0.042  -0.185
    1UNL     H8   36   0.148   0.136   0.083
    1UNL     H9   37  -0.171   0.315   0.125
    1UNL    H10   38  -0.009   0.312   0.185
    1UNL    H11   39  -0.033   0.422  -0.036
    1UNL    H12   40   0.315  -0.082   0.184
    1UNL    H13   41   0.266  -0.202   0.070
    1UNL    H14   42  -0.060  -0.180   0.160
    1UNL    H15   43   0.126  -0.348  -0.021
    1UNL    H16   44  -0.010  -0.387   0.056
    1UNL    H17   45   0.116  -0.345   0.170
    1UNL    H18   46  -0.127  -0.266  -0.088
    1UNL    H19   47  -0.019  -0.142  -0.131
    1UNL    H20   48  -0.333   0.198   0.096
    1UNL    H21   49  -0.581   0.144  -0.028
    1UNL    H22   50  -0.699  -0.039  -0.186
    1UNL    H23   51  -0.572  -0.227  -0.253
    1UNL    H24   52  -0.352  -0.270  -0.163
   0.00000   0.00000   0.00000   0.00000   0.00000   0.00000   0.00000   0.00000   0.00000
Generated with MDTraj, t= 26.0
 52
    1UNL     C1    1   0.613   0.141  -0.095
    1UNL     O1    2   0.472   0.101  -0.119
    1UNL     C2    3   0.435   0.029  -0.012
    1UNL     O2    4   0.497   0.004   0.088
    1UNL     N1    5   0.304  -0.022  -0.025
    1UNL     C3    6   0.213  -0.014  -0.149
    1UNL     C4    7   0.091   0.063  -0.121
    1UNL     C5    8   0.068   0.070   0.032
    1UNL     C6    9  -0.058   0.118   0.095
    1UNL     C7   10  -0.050   0.277   0.101
    1UNL     O3   11  -0.045   0.326  -0.036
    1UNL     C8   12  -0.044   0.075   0.244
    1UNL     O4   13  -0.109   0.119   0.334
    1UNL     O5   14   0.054  -0.022   0.247
    1UNL     C9   15   0.099  -0.058   0.114
    1UNL    C10   16   0.251  -0.085   0.094
    1UNL    C11   17   0.006  -0.184   0.083
    1UNL    C12   18   0.095  -0.321   0.080
    1UNL    C13   19  -0.088  -0.173  -0.034
    1UNL    C14   20  -0.190  -0.061  -0.026
    1UNL    C15   21  -0.183   0.065   0.028
    1UNL     N2   22  -0.307   0.128   0.031
    1UNL    C16   23  -0.395   0.045  -0.042
    1UNL    C17   24  -0.532   0.060  -0.063
    1UNL    C18   25  -0.592  -0.039  -0.135
    1UNL    C19   26  -0.520  -0.151  -0.177
    1UNL    C20   27  -0.384  -0.162  -0.158
    1UNL    C21   28  -0.321  -0.069  -0.082
    1UNL     H1   29   0.620   0.244  -0.130
    1UNL     H2   30   0.658   0.072  -0.171
    1UNL     H3   31   0.632   0.132   0.012
    1UNL     H4   32   0.204  -0.117  -0.188
    1UNL     H5   33   0.273   0.040  -0.226
    1UNL     H6   34   0.109   0.163  -0.163
    1UNL     H7   35   0.001   0.028  -0.170
    1UNL     H8   36   0.151   0.135   0.066
    1UNL     H9   37  -0.143   0.314   0.144
    1UNL    H10   38   0.033   0.320   0.151
    1UNL    H11   39  -0.060   0.419  -0.040
    1UNL    H12   40   0.312  -0.056   0.180
    1UNL    H13   41   0.279  -0.191   0.072
    1UNL    H14   42  -0.050  -0.197   0.176
    1UNL    H15   43   0.154  -0.326  -0.014
    1UNL    H16   44   0.020  -0.390   0.067
    1UNL    H17   45   0.147  -0.327   0.179
    1UNL    H18   46  -0.152  -0.265  -0.028
    1UNL    H19   47  -0.041  -0.174  -0.133
    1UNL    H20   48  -0.327   0.213   0.073
    1UNL    H21   49  -0.586   0.138  -0.016
    1UNL    H22   50  -0.697  -0.034  -0.147
    1UNL    H23   51  -0.565  -0.231  -0.232
    1UNL    H24   52  -0.309  -0.233  -0.206
   0.00000   0.00000   0.00000   0.00000   0.00000   0.00000   0.00000   0.00000   0.00000
Generated with MDTraj, t= 27.0
 52
    1UNL     C1    1   0.602   0.168  -0.094
    1UNL     O1    2   0.471   0.099  -0.123
    1UNL     C2    3   0.451   0.019  -0.018
    1UNL     O2    4   0.524  -0.006   0.073
    1UNL     N1    5   0.321  -0.041  -0.019
    1UNL     C3    6   0.233  -0.013  -0.141
    1UNL     C4    7   0.115   0.085  -0.108
    1UNL     C5    8   0.084   0.075   0.041
    1UNL     C6    9  -0.054   0.123   0.095
    1UNL     C7   10  -0.063   0.276   0.088
    1UNL     O3   11  -0.107   0.318  -0.033
    1UNL     C8   12  -0.039   0.069   0.245
    1UNL     O4   13  -0.113   0.106   0.329
    1UNL     O5   14   0.064  -0.027   0.249
    1UNL     C9   15   0.099  -0.067   0.110
    1UNL    C10   16   0.251  -0.102   0.097
    1UNL    C11   17  -0.001  -0.184   0.079
    1UNL    C12   18   0.073  -0.322   0.103
    1UNL    C13   19  -0.084  -0.159  -0.049
    1UNL    C14   20  -0.186  -0.059  -0.031
    1UNL    C15   21  -0.177   0.067   0.027
    1UNL     N2   22  -0.300   0.130   0.027
    1UNL    C16   23  -0.394   0.050  -0.036
    1UNL    C17   24  -0.524   0.073  -0.079
    1UNL    C18   25  -0.592  -0.026  -0.147
    1UNL    C19   26  -0.534  -0.153  -0.172
    1UNL    C20   27  -0.401  -0.176  -0.140
    1UNL    C21   28  -0.328  -0.069  -0.074
    1UNL     H1   29   0.624   0.216  -0.189
    1UNL     H2   30   0.684   0.102  -0.068
    1UNL     H3   31   0.569   0.243  -0.026
    1UNL     H4   32   0.190  -0.113  -0.154
    1UNL     H5   33   0.304   0.006  -0.224
    1UNL     H6   34   0.143   0.189  -0.125
    1UNL     H7   35   0.026   0.072  -0.172
    1UNL     H8   36   0.164   0.137   0.087
    1UNL     H9   37  -0.140   0.315   0.153
    1UNL    H10   38   0.032   0.321   0.094
    1UNL    H11   39  -0.100   0.413  -0.038
    1UNL    H12   40   0.291  -0.049   0.184
    1UNL    H13   41   0.277  -0.207   0.107
    1UNL    H14   42  -0.070  -0.176   0.164
    1UNL    H15   43   0.143  -0.345   0.018
    1UNL    H16   44  -0.009  -0.387   0.089
    1UNL    H17   45   0.109  -0.323   0.207
    1UNL    H18   46  -0.131  -0.253  -0.091
    1UNL    H19   47  -0.022  -0.120  -0.132
    1UNL    H20   48  -0.316   0.227   0.032
    1UNL    H21   49  -0.564   0.175  -0.073
    1UNL    H22   50  -0.698   0.001  -0.176
    1UNL    H23   51  -0.588  -0.242  -0.210
    1UNL    H24   52  -0.350  -0.251  -0.188
   0.00000   0.00000   0.00000   0.00000   0.00000   0.00000   0.00000   0.00000   0.00000
Generated with MDTraj, t= 28.0
 52
    1UNL     C1    1   0.613   0.151  -0.092
    1UNL     O1    2   0.479   0.098  -0.128
    1UNL     C2    3   0.431   0.033  -0.015
    1UNL     O2    4   0.489   0.021   0.090
    1UNL     N1    5   0.304  -0.033  -0.022
    1UNL     C3    6   0.224  -0.020  -0.149
    1UNL     C4    7   0.090   0.048  -0.125
    1UNL     C5    8   0.075   0.069   0.028
    1UNL     C6    9  -0.054   0.123   0.096
    1UNL     C7   10  -0.061   0.277   0.112
    1UNL     O3   11  -0.109   0.346  -0.008
    1UNL     C8   12  -0.031   0.069   0.243
    1UNL     O4   13  -0.099   0.106   0.332
    1UNL     O5   14   0.077  -0.021   0.247
    1UNL     C9   15   0.095  -0.066   0.106
    1UNL    C10   16   0.249  -0.103   0.091
    1UNL    C11   17   0.002  -0.192   0.092
    1UNL    C12   18   0.078  -0.321   0.088
    1UNL    C13   19  -0.087  -0.176  -0.031
    1UNL    C14   20  -0.183  -0.065  -0.031
    1UNL    C15   21  -0.172   0.061   0.024
    1UNL     N2   22  -0.292   0.135   0.008
    1UNL    C16   23  -0.383   0.056  -0.053
    1UNL    C17   24  -0.518   0.080  -0.087
    1UNL    C18   25  -0.590  -0.028  -0.138
    1UNL    C19   26  -0.525  -0.151  -0.172
    1UNL    C20   27  -0.391  -0.175  -0.140
    1UNL    C21   28  -0.318  -0.069  -0.082
    1UNL     H1   29   0.664   0.143  -0.189
    1UNL     H2   30   0.658   0.117   0.000
    1UNL     H3   31   0.591   0.253  -0.064
    1UNL     H4   32   0.221  -0.127  -0.174
    1UNL     H5   33   0.291   0.037  -0.215
    1UNL     H6   34   0.079   0.136  -0.188
    1UNL     H7   35   0.008  -0.016  -0.162
    1UNL     H8   36   0.155   0.137   0.059
    1UNL     H9   37  -0.142   0.305   0.181
    1UNL    H10   38   0.034   0.317   0.136
    1UNL    H11   39  -0.098   0.445   0.009
    1UNL    H12   40   0.287  -0.064   0.185
    1UNL    H13   41   0.271  -0.208   0.089
    1UNL    H14   42  -0.058  -0.182   0.182
    1UNL    H15   43   0.139  -0.336  -0.005
    1UNL    H16   44   0.010  -0.408   0.087
    1UNL    H17   45   0.125  -0.333   0.182
    1UNL    H18   46  -0.151  -0.268  -0.033
    1UNL    H19   47  -0.028  -0.188  -0.125
    1UNL    H20   48  -0.303   0.228   0.032
    1UNL    H21   49  -0.562   0.178  -0.085
    1UNL    H22   50  -0.691  -0.024  -0.152
    1UNL    H23   51  -0.587  -0.218  -0.224
    1UNL    H24   52  -0.330  -0.269  -0.154
   0.00000   0.00000   0.00000   0.00000   0.00000   0.00000   0.00000   0.00000   0.00000
Generated with MDTraj, t= 29.0
 52
    1UNL     C1    1   0.616   0.142  -0.113
    1UNL     O1    2   0.490   0.080  -0.134
    1UNL     C2    3   0.429   0.052  -0.014
    1UNL     O2    4   0.478   0.073   0.094
    1UNL     N1    5   0.308  -0.024  -0.030
    1UNL     C3    6   0.218  -0.013  -0.151
    1UNL     C4    7   0.095   0.055  -0.112
    1UNL     C5    8   0.076   0.062   0.039
    1UNL     C6    9  -0.054   0.112   0.107
    1UNL     C7   10  -0.067   0.266   0.106
    1UNL     O3   11  -0.066   0.329  -0.034
    1UNL     C8   12  -0.037   0.058   0.249
    1UNL     O4   13  -0.105   0.094   0.341
    1UNL     O5   14   0.069  -0.027   0.255
    1UNL     C9   15   0.108  -0.067   0.119
    1UNL    C10   16   0.261  -0.097   0.085
    1UNL    C11   17   0.006  -0.187   0.091
    1UNL    C12   18   0.063  -0.323   0.078
    1UNL    C13   19  -0.095  -0.176  -0.030
    1UNL    C14   20  -0.200  -0.070  -0.010
    1UNL    C15   21  -0.181   0.059   0.032
    1UNL     N2   22  -0.294   0.136   0.014
    1UNL    C16   23  -0.387   0.051  -0.042
    1UNL    C17   24  -0.512   0.082  -0.096
    1UNL    C18   25  -0.575  -0.012  -0.169
    1UNL    C19   26  -0.525  -0.147  -0.181
    1UNL    C20   27  -0.405  -0.179  -0.128
    1UNL    C21   28  -0.330  -0.076  -0.063
    1UNL     H1   29   0.613   0.215  -0.197
    1UNL     H2   30   0.700   0.071  -0.103
    1UNL     H3   31   0.611   0.190  -0.011
    1UNL     H4   32   0.206  -0.115  -0.185
    1UNL     H5   33   0.283   0.042  -0.221
    1UNL     H6   34   0.100   0.158  -0.149
    1UNL     H7   35   0.013   0.017  -0.173
    1UNL     H8   36   0.147   0.141   0.071
    1UNL     H9   37  -0.165   0.289   0.152
    1UNL    H10   38   0.013   0.313   0.163
    1UNL    H11   39  -0.049   0.430  -0.025
    1UNL    H12   40   0.312  -0.078   0.179
    1UNL    H13   41   0.271  -0.201   0.072
    1UNL    H14   42  -0.054  -0.173   0.182
    1UNL    H15   43   0.119  -0.341  -0.015
    1UNL    H16   44  -0.009  -0.410   0.071
    1UNL    H17   45   0.114  -0.358   0.160
    1UNL    H18   46  -0.149  -0.272  -0.048
    1UNL    H19   47  -0.043  -0.152  -0.126
    1UNL    H20   48  -0.311   0.227   0.044
    1UNL    H21   49  -0.560   0.173  -0.071
    1UNL    H22   50  -0.670   0.006  -0.226
    1UNL    H23   51  -0.574  -0.234  -0.235
    1UNL    H24   52  -0.376  -0.279  -0.113
   0.00000   0.00000   0.00000   0.00000   0.00000   0.00000   0.00000   0.00000   0.00000
Generated with MDTraj, t= 30.0
 52
    1UNL     C1    1   0.596   0.153  -0.132
    1UNL     O1    2   0.465   0.102  -0.139
    1UNL     C2    3   0.424   0.044  -0.021
    1UNL     O2    4   0.491   0.045   0.078
    1UNL     N1    5   0.304  -0.028  -0.017
    1UNL     C3    6   0.220  -0.032  -0.139
    1UNL     C4    7   0.086   0.046  -0.108
    1UNL     C5    8   0.072   0.063   0.046
    1UNL     C6    9  -0.057   0.114   0.107
    1UNL     C7   10  -0.061   0.270   0.101
    1UNL     O3   11  -0.046   0.320  -0.027
    1UNL     C8   12  -0.038   0.064   0.250
    1UNL     O4   13  -0.113   0.106   0.338
    1UNL     O5   14   0.057  -0.031   0.265
    1UNL     C9   15   0.104  -0.063   0.133
    1UNL    C10   16   0.258  -0.089   0.112
    1UNL    C11   17   0.012  -0.191   0.094
    1UNL    C12   18   0.092  -0.317   0.069
    1UNL    C13   19  -0.091  -0.184  -0.021
    1UNL    C14   20  -0.191  -0.068  -0.019
    1UNL    C15   21  -0.179   0.059   0.041
    1UNL     N2   22  -0.294   0.129   0.015
    1UNL    C16   23  -0.382   0.053  -0.052
    1UNL    C17   24  -0.519   0.080  -0.093
    1UNL    C18   25  -0.586  -0.015  -0.168
    1UNL    C19   26  -0.521  -0.138  -0.194
    1UNL    C20   27  -0.400  -0.164  -0.142
    1UNL    C21   28  -0.324  -0.071  -0.076
    1UNL     H1   29   0.600   0.233  -0.209
    1UNL     H2   30   0.667   0.066  -0.131
    1UNL     H3   31   0.592   0.204  -0.031
    1UNL     H4   32   0.217  -0.132  -0.181
    1UNL     H5   33   0.282   0.024  -0.210
    1UNL     H6   34   0.098   0.146  -0.150
    1UNL     H7   35  -0.005   0.009  -0.153
    1UNL     H8   36   0.153   0.135   0.064
    1UNL     H9   37  -0.154   0.313   0.148
    1UNL    H10   38   0.029   0.306   0.156
    1UNL    H11   39  -0.016   0.413  -0.027
    1UNL    H12   40   0.308  -0.043   0.196
    1UNL    H13   41   0.274  -0.192   0.122
    1UNL    H14   42  -0.048  -0.203   0.187
    1UNL    H15   43   0.155  -0.301  -0.017
    1UNL    H16   44   0.042  -0.417   0.044
    1UNL    H17   45   0.138  -0.343   0.159
    1UNL    H18   46  -0.152  -0.277  -0.023
    1UNL    H19   47  -0.039  -0.185  -0.120
    1UNL    H20   48  -0.310   0.226   0.041
    1UNL    H21   49  -0.577   0.159  -0.040
    1UNL    H22   50  -0.679   0.008  -0.214
    1UNL    H23   51  -0.571  -0.206  -0.255
    1UNL    H24   52  -0.358  -0.261  -0.157
   0.00000   0.00000   0.00000   0.00000   0.00000   0.00000   0.00000   0.00000   0.00000
Generated with MDTraj, t= 31.0
 52
    1UNL     C1    1   0.562   0.178  -0.126
    1UNL     O1    2   0.444   0.100  -0.135
    1UNL     C2    3   0.428   0.017  -0.024
    1UNL     O2    4   0.509   0.002   0.065
    1UNL     N1    5   0.305  -0.050  -0.020
    1UNL     C3    6   0.217  -0.039  -0.139
    1UNL     C4    7   0.100   0.060  -0.103
    1UNL     C5    8   0.082   0.067   0.048
    1UNL     C6    9  -0.051   0.127   0.105
    1UNL     C7   10  -0.056   0.280   0.104
    1UNL     O3   11  -0.067   0.334  -0.014
    1UNL     C8   12  -0.038   0.072   0.245
    1UNL     O4   13  -0.112   0.107   0.339
    1UNL     O5   14   0.059  -0.025   0.257
    1UNL     C9   15   0.102  -0.065   0.128
    1UNL    C10   16   0.254  -0.092   0.116
    1UNL    C11   17   0.003  -0.191   0.093
    1UNL    C12   18   0.093  -0.322   0.079
    1UNL    C13   19  -0.090  -0.167  -0.028
    1UNL    C14   20  -0.190  -0.052  -0.020
    1UNL    C15   21  -0.178   0.073   0.036
    1UNL     N2   22  -0.299   0.135   0.026
    1UNL    C16   23  -0.384   0.056  -0.053
    1UNL    C17   24  -0.515   0.069  -0.098
    1UNL    C18   25  -0.574  -0.031  -0.171
    1UNL    C19   26  -0.509  -0.149  -0.193
    1UNL    C20   27  -0.381  -0.172  -0.144
    1UNL    C21   28  -0.319  -0.065  -0.077
    1UNL     H1   29   0.610   0.209  -0.218
    1UNL     H2   30   0.620   0.115  -0.057
    1UNL     H3   31   0.527   0.276  -0.083
    1UNL     H4   32   0.178  -0.137  -0.156
    1UNL     H5   33   0.277  -0.014  -0.227
    1UNL     H6   34   0.109   0.158  -0.150
    1UNL     H7   35   0.009   0.018  -0.140
    1UNL     H8   36   0.166   0.131   0.075
    1UNL     H9   37  -0.144   0.319   0.164
    1UNL    H10   38   0.038   0.313   0.156
    1UNL    H11   39  -0.037   0.423  -0.011
    1UNL    H12   40   0.305  -0.021   0.179
    1UNL    H13   41   0.276  -0.192   0.145
    1UNL    H14   42  -0.059  -0.208   0.184
    1UNL    H15   43   0.163  -0.294   0.005
    1UNL    H16   44   0.039  -0.414   0.046
    1UNL    H17   45   0.123  -0.339   0.182
    1UNL    H18   46  -0.150  -0.258  -0.047
    1UNL    H19   47  -0.029  -0.163  -0.119
    1UNL    H20   48  -0.330   0.230   0.062
    1UNL    H21   49  -0.559   0.160  -0.073
    1UNL    H22   50  -0.678  -0.027  -0.196
    1UNL    H23   51  -0.558  -0.225  -0.257
    1UNL    H24   52  -0.320  -0.260  -0.177
   0.00000   0.00000   0.00000   0.00000   0.00000   0.00000   0.00000   0.00000   0.00000
Generated with MDTraj, t= 32.0
 52
    1UNL     C1    1   0.568   0.171  -0.118
    1UNL     O1    2   0.463   0.090  -0.136
    1UNL     C2    3   0.432   0.021  -0.023
    1UNL     O2    4   0.495   0.025   0.082
    1UNL     N1    5   0.308  -0.045  -0.036
    1UNL     C3    6   0.216  -0.014  -0.143
    1UNL     C4    7   0.102   0.083  -0.110
    1UNL     C5    8   0.080   0.071   0.041
    1UNL     C6    9  -0.055   0.117   0.106
    1UNL     C7   10  -0.065   0.273   0.109
    1UNL     O3   11  -0.081   0.330  -0.024
    1UNL     C8   12  -0.034   0.056   0.249
    1UNL     O4   13  -0.101   0.103   0.341
    1UNL     O5   14   0.072  -0.027   0.258
    1UNL     C9   15   0.106  -0.061   0.119
    1UNL    C10   16   0.250  -0.106   0.098
    1UNL    C11   17   0.004  -0.186   0.097
    1UNL    C12   18   0.069  -0.329   0.115
    1UNL    C13   19  -0.090  -0.182  -0.029
    1UNL    C14   20  -0.183  -0.061  -0.027
    1UNL    C15   21  -0.173   0.060   0.036
    1UNL     N2   22  -0.293   0.133   0.013
    1UNL    C16   23  -0.389   0.054  -0.048
    1UNL    C17   24  -0.515   0.080  -0.102
    1UNL    C18   25  -0.575  -0.021  -0.166
    1UNL    C19   26  -0.513  -0.145  -0.181
    1UNL    C20   27  -0.381  -0.173  -0.147
    1UNL    C21   28  -0.318  -0.066  -0.083
    1UNL     H1   29   0.571   0.241  -0.198
    1UNL     H2   30   0.647   0.097  -0.124
    1UNL     H3   31   0.554   0.230  -0.026
    1UNL     H4   32   0.171  -0.108  -0.170
    1UNL     H5   33   0.272   0.026  -0.227
    1UNL     H6   34   0.129   0.185  -0.136
    1UNL     H7   35   0.016   0.060  -0.171
    1UNL     H8   36   0.156   0.139   0.081
    1UNL     H9   37  -0.146   0.299   0.183
    1UNL    H10   38   0.027   0.311   0.160
    1UNL    H11   39  -0.093   0.426  -0.017
    1UNL    H12   40   0.315  -0.050   0.160
    1UNL    H13   41   0.272  -0.212   0.100
    1UNL    H14   42  -0.064  -0.178   0.185
    1UNL    H15   43   0.133  -0.345   0.033
    1UNL    H16   44  -0.005  -0.408   0.117
    1UNL    H17   45   0.107  -0.331   0.220
    1UNL    H18   46  -0.142  -0.279  -0.039
    1UNL    H19   47  -0.020  -0.190  -0.113
    1UNL    H20   48  -0.312   0.224   0.067
    1UNL    H21   49  -0.557   0.184  -0.106
    1UNL    H22   50  -0.680   0.003  -0.191
    1UNL    H23   51  -0.567  -0.228  -0.222
    1UNL    H24   52  -0.332  -0.255  -0.191
   0.00000   0.00000   0.00000   0.00000   0.00000   0.00000   0.00000   0.00000   0.00000
Generated with MDTraj, t= 33.0
 52
    1UNL     C1    1   0.612   0.144  -0.108
    1UNL     O1    2   0.475   0.122  -0.130
    1UNL     C2    3   0.424   0.051  -0.020
    1UNL     O2    4   0.484   0.045   0.087
    1UNL     N1    5   0.306  -0.018  -0.031
    1UNL     C3    6   0.224  -0.019  -0.148
    1UNL     C4    7   0.084   0.047  -0.122
    1UNL     C5    8   0.074   0.060   0.027
    1UNL     C6    9  -0.055   0.108   0.097
    1UNL     C7   10  -0.058   0.263   0.115
    1UNL     O3   11  -0.080   0.322  -0.021
    1UNL     C8   12  -0.034   0.057   0.242
    1UNL     O4   13  -0.094   0.096   0.342
    1UNL     O5   14   0.082  -0.015   0.243
    1UNL     C9   15   0.106  -0.067   0.111
    1UNL    C10   16   0.254  -0.097   0.088
    1UNL    C11   17  -0.000  -0.193   0.102
    1UNL    C12   18   0.064  -0.331   0.122
    1UNL    C13   19  -0.103  -0.190  -0.015
    1UNL    C14   20  -0.196  -0.072  -0.017
    1UNL    C15   21  -0.172   0.057   0.030
    1UNL     N2   22  -0.292   0.133   0.021
    1UNL    C16   23  -0.386   0.055  -0.045
    1UNL    C17   24  -0.510   0.083  -0.097
    1UNL    C18   25  -0.577  -0.014  -0.164
    1UNL    C19   26  -0.522  -0.138  -0.196
    1UNL    C20   27  -0.396  -0.165  -0.149
    1UNL    C21   28  -0.326  -0.066  -0.077
    1UNL     H1   29   0.659   0.203  -0.182
    1UNL     H2   30   0.656   0.046  -0.130
    1UNL     H3   31   0.619   0.186  -0.005
    1UNL     H4   32   0.217  -0.119  -0.188
    1UNL     H5   33   0.274   0.044  -0.221
    1UNL     H6   34   0.067   0.136  -0.179
    1UNL     H7   35   0.000  -0.014  -0.156
    1UNL     H8   36   0.145   0.138   0.057
    1UNL     H9   37  -0.142   0.280   0.185
    1UNL    H10   38   0.026   0.309   0.170
    1UNL    H11   39  -0.086   0.425  -0.020
    1UNL    H12   40   0.321  -0.055   0.158
    1UNL    H13   41   0.282  -0.200   0.063
    1UNL    H14   42  -0.066  -0.178   0.190
    1UNL    H15   43   0.118  -0.363   0.037
    1UNL    H16   44  -0.004  -0.410   0.143
    1UNL    H17   45   0.119  -0.330   0.221
    1UNL    H18   46  -0.156  -0.285   0.007
    1UNL    H19   47  -0.056  -0.214  -0.110
    1UNL    H20   48  -0.294   0.240   0.031
    1UNL    H21   49  -0.556   0.175  -0.075
    1UNL    H22   50  -0.676   0.002  -0.191
    1UNL    H23   51  -0.589  -0.205  -0.250
    1UNL    H24   52  -0.351  -0.266  -0.168
   0.00000   0.00000   0.00000   0.00000   0.00000   0.00000   0.00000   0.00000   0.00000
Generated with MDTraj, t= 34.0
 52
    1UNL     C1    1   0.602   0.169  -0.096
    1UNL     O1    2   0.487   0.089  -0.132
    1UNL     C2    3   0.430   0.031  -0.020
    1UNL     O2    4   0.495   0.028   0.084
    1UNL     N1    5   0.304  -0.012  -0.027
    1UNL     C3    6   0.226  -0.004  -0.156
    1UNL     C4    7   0.087   0.062  -0.118
    1UNL     C5    8   0.070   0.071   0.034
    1UNL     C6    9  -0.056   0.120   0.106
    1UNL     C7   10  -0.065   0.272   0.104
    1UNL     O3   11  -0.070   0.307  -0.029
    1UNL     C8   12  -0.027   0.069   0.250
    1UNL     O4   13  -0.100   0.106   0.340
    1UNL     O5   14   0.083  -0.027   0.249
    1UNL     C9   15   0.100  -0.064   0.115
    1UNL    C10   16   0.246  -0.093   0.092
    1UNL    C11   17   0.000  -0.191   0.091
    1UNL    C12   18   0.064  -0.326   0.084
    1UNL    C13   19  -0.101  -0.182  -0.027
    1UNL    C14   20  -0.197  -0.067  -0.006
    1UNL    C15   21  -0.178   0.057   0.046
    1UNL     N2   22  -0.293   0.129   0.019
    1UNL    C16   23  -0.390   0.045  -0.041
    1UNL    C17   24  -0.512   0.080  -0.106
    1UNL    C18   25  -0.573  -0.012  -0.179
    1UNL    C19   26  -0.521  -0.143  -0.186
    1UNL    C20   27  -0.405  -0.179  -0.125
    1UNL    C21   28  -0.324  -0.079  -0.056
    1UNL     H1   29   0.659   0.194  -0.185
    1UNL     H2   30   0.679   0.111  -0.038
    1UNL     H3   31   0.553   0.252  -0.037
    1UNL     H4   32   0.197  -0.099  -0.198
    1UNL     H5   33   0.281   0.050  -0.233
    1UNL     H6   34   0.086   0.163  -0.150
    1UNL     H7   35  -0.002   0.019  -0.165
    1UNL     H8   36   0.149   0.141   0.065
    1UNL     H9   37  -0.142   0.321   0.163
    1UNL    H10   38   0.027   0.318   0.139
    1UNL    H11   39  -0.078   0.406  -0.047
    1UNL    H12   40   0.304  -0.066   0.176
    1UNL    H13   41   0.277  -0.196   0.071
    1UNL    H14   42  -0.063  -0.189   0.181
    1UNL    H15   43   0.106  -0.352  -0.013
    1UNL    H16   44  -0.012  -0.395   0.100
    1UNL    H17   45   0.127  -0.356   0.173
    1UNL    H18   46  -0.168  -0.268  -0.037
    1UNL    H19   47  -0.043  -0.173  -0.119
    1UNL    H20   48  -0.311   0.232   0.023
    1UNL    H21   49  -0.552   0.178  -0.081
    1UNL    H22   50  -0.664   0.006  -0.244
    1UNL    H23   51  -0.559  -0.210  -0.264
    1UNL    H24   52  -0.381  -0.280  -0.125
   0.00000   0.00000   0.00000   0.00000   0.00000   0.00000   0.00000   0.00000   0.00000
Generated with MDTraj, t= 35.0
 52
    1UNL     C1    1   0.583   0.154  -0.109
    1UNL     O1    2   0.451   0.107  -0.116
    1UNL     C2    3   0.426   0.024  -0.013
    1UNL     O2    4   0.506   0.005   0.079
    1UNL     N1    5   0.303  -0.028  -0.016
    1UNL     C3    6   0.217  -0.030  -0.143
    1UNL     C4    7   0.096   0.060  -0.115
    1UNL     C5    8   0.079   0.076   0.038
    1UNL     C6    9  -0.054   0.122   0.096
    1UNL     C7   10  -0.052   0.271   0.106
    1UNL     O3   11  -0.073   0.330  -0.019
    1UNL     C8   12  -0.037   0.074   0.250
    1UNL     O4   13  -0.098   0.122   0.341
    1UNL     O5   14   0.061  -0.025   0.253
    1UNL     C9   15   0.104  -0.059   0.119
    1UNL    C10   16   0.259  -0.086   0.113
    1UNL    C11   17   0.010  -0.188   0.089
    1UNL    C12   18   0.086  -0.318   0.056
    1UNL    C13   19  -0.091  -0.170  -0.028
    1UNL    C14   20  -0.194  -0.069  -0.024
    1UNL    C15   21  -0.177   0.060   0.026
    1UNL     N2   22  -0.286   0.131   0.010
    1UNL    C16   23  -0.378   0.050  -0.054
    1UNL    C17   24  -0.517   0.072  -0.088
    1UNL    C18   25  -0.587  -0.030  -0.156
    1UNL    C19   26  -0.525  -0.155  -0.178
    1UNL    C20   27  -0.399  -0.174  -0.142
    1UNL    C21   28  -0.320  -0.073  -0.087
    1UNL     H1   29   0.608   0.187  -0.210
    1UNL     H2   30   0.661   0.076  -0.081
    1UNL     H3   31   0.578   0.229  -0.023
    1UNL     H4   32   0.185  -0.130  -0.170
    1UNL     H5   33   0.267   0.018  -0.228
    1UNL     H6   34   0.116   0.155  -0.155
    1UNL     H7   35  -0.001   0.030  -0.157
    1UNL     H8   36   0.157   0.144   0.076
    1UNL     H9   37  -0.129   0.308   0.171
    1UNL    H10   38   0.039   0.307   0.147
    1UNL    H11   39  -0.063   0.424  -0.014
    1UNL    H12   40   0.313  -0.043   0.194
    1UNL    H13   41   0.281  -0.195   0.117
    1UNL    H14   42  -0.053  -0.201   0.176
    1UNL    H15   43   0.137  -0.316  -0.043
    1UNL    H16   44   0.014  -0.393   0.053
    1UNL    H17   45   0.151  -0.350   0.137
    1UNL    H18   46  -0.146  -0.265  -0.027
    1UNL    H19   47  -0.047  -0.157  -0.127
    1UNL    H20   48  -0.311   0.211   0.067
    1UNL    H21   49  -0.573   0.157  -0.046
    1UNL    H22   50  -0.683  -0.005  -0.186
    1UNL    H23   51  -0.583  -0.217  -0.240
    1UNL    H24   52  -0.362  -0.275  -0.170
   0.00000   0.00000   0.00000   0.00000   0.00000   0.00000   0.00000   0.00000   0.00000
Generated with MDTraj, t= 36.0
 52
    1UNL     C1    1   0.587   0.161  -0.127
    1UNL     O1    2   0.467   0.083  -0.135
    1UNL     C2    3   0.434   0.023  -0.020
    1UNL     O2    4   0.503   0.030   0.084
    1UNL     N1    5   0.311  -0.041  -0.011
    1UNL     C3    6   0.230  -0.036  -0.126
    1UNL     C4    7   0.122   0.068  -0.110
    1UNL     C5    8   0.084   0.073   0.043
    1UNL     C6    9  -0.051   0.125   0.103
    1UNL     C7   10  -0.045   0.276   0.107
    1UNL     O3   11  -0.068   0.334  -0.031
    1UNL     C8   12  -0.058   0.063   0.238
    1UNL     O4   13  -0.135   0.098   0.320
    1UNL     O5   14   0.043  -0.030   0.254
    1UNL     C9   15   0.100  -0.059   0.117
    1UNL    C10   16   0.256  -0.085   0.120
    1UNL    C11   17   0.011  -0.185   0.077
    1UNL    C12   18   0.079  -0.319   0.069
    1UNL    C13   19  -0.086  -0.168  -0.042
    1UNL    C14   20  -0.184  -0.053  -0.037
    1UNL    C15   21  -0.180   0.072   0.026
    1UNL     N2   22  -0.301   0.128   0.028
    1UNL    C16   23  -0.390   0.051  -0.045
    1UNL    C17   24  -0.525   0.072  -0.071
    1UNL    C18   25  -0.584  -0.033  -0.139
    1UNL    C19   26  -0.521  -0.148  -0.178
    1UNL    C20   27  -0.389  -0.175  -0.137
    1UNL    C21   28  -0.314  -0.068  -0.082
    1UNL     H1   29   0.563   0.260  -0.161
    1UNL     H2   30   0.670   0.122  -0.187
    1UNL     H3   31   0.626   0.142  -0.022
    1UNL     H4   32   0.192  -0.134  -0.154
    1UNL     H5   33   0.297  -0.005  -0.206
    1UNL     H6   34   0.148   0.166  -0.140
    1UNL     H7   35   0.036   0.049  -0.176
    1UNL     H8   36   0.159   0.136   0.095
    1UNL     H9   37  -0.117   0.320   0.173
    1UNL    H10   38   0.052   0.306   0.145
    1UNL    H11   39  -0.058   0.429  -0.025
    1UNL    H12   40   0.307  -0.025   0.193
    1UNL    H13   41   0.276  -0.194   0.129
    1UNL    H14   42  -0.056  -0.186   0.163
    1UNL    H15   43   0.142  -0.334  -0.021
    1UNL    H16   44  -0.002  -0.392   0.071
    1UNL    H17   45   0.140  -0.333   0.153
    1UNL    H18   46  -0.148  -0.257  -0.059
    1UNL    H19   47  -0.020  -0.144  -0.125
    1UNL    H20   48  -0.320   0.208   0.082
    1UNL    H21   49  -0.572   0.156  -0.031
    1UNL    H22   50  -0.696  -0.028  -0.139
    1UNL    H23   51  -0.579  -0.224  -0.233
    1UNL    H24   52  -0.337  -0.256  -0.184
   0.00000   0.00000   0.00000   0.00000   0.00000   0.00000   0.00000   0.00000   0.00000
Generated with MDTraj, t= 37.0
 52
    1UNL     C1    1   0.608   0.140  -0.108
    1UNL     O1    2   0.492   0.068  -0.131
    1UNL     C2    3   0.438   0.026  -0.019
    1UNL     O2    4   0.482   0.055   0.094
    1UNL     N1    5   0.310  -0.037  -0.022
    1UNL     C3    6   0.229  -0.017  -0.143
    1UNL     C4    7   0.112   0.076  -0.118
    1UNL     C5    8   0.076   0.072   0.037
    1UNL     C6    9  -0.057   0.123   0.103
    1UNL     C7   10  -0.063   0.278   0.105
    1UNL     O3   11  -0.046   0.331  -0.025
    1UNL     C8   12  -0.047   0.060   0.245
    1UNL     O4   13  -0.122   0.092   0.332
    1UNL     O5   14   0.058  -0.029   0.247
    1UNL     C9   15   0.092  -0.061   0.111
    1UNL    C10   16   0.247  -0.079   0.106
    1UNL    C11   17  -0.000  -0.187   0.079
    1UNL    C12   18   0.083  -0.319   0.088
    1UNL    C13   19  -0.090  -0.171  -0.052
    1UNL    C14   20  -0.190  -0.057  -0.034
    1UNL    C15   21  -0.174   0.065   0.024
    1UNL     N2   22  -0.294   0.134   0.019
    1UNL    C16   23  -0.389   0.052  -0.042
    1UNL    C17   24  -0.527   0.064  -0.065
    1UNL    C18   25  -0.596  -0.039  -0.134
    1UNL    C19   26  -0.531  -0.158  -0.169
    1UNL    C20   27  -0.394  -0.166  -0.151
    1UNL    C21   28  -0.321  -0.059  -0.090
    1UNL     H1   29   0.576   0.216  -0.042
    1UNL     H2   30   0.641   0.179  -0.202
    1UNL     H3   31   0.684   0.068  -0.078
    1UNL     H4   32   0.197  -0.119  -0.168
    1UNL     H5   33   0.288   0.013  -0.231
    1UNL     H6   34   0.126   0.177  -0.143
    1UNL     H7   35   0.022   0.060  -0.177
    1UNL     H8   36   0.150   0.136   0.089
    1UNL     H9   37  -0.166   0.306   0.124
    1UNL    H10   38   0.012   0.326   0.170
    1UNL    H11   39  -0.064   0.431  -0.025
    1UNL    H12   40   0.281  -0.008   0.181
    1UNL    H13   41   0.279  -0.184   0.122
    1UNL    H14   42  -0.074  -0.185   0.161
    1UNL    H15   43   0.154  -0.317   0.003
    1UNL    H16   44   0.024  -0.413   0.087
    1UNL    H17   45   0.152  -0.322   0.165
    1UNL    H18   46  -0.146  -0.263  -0.048
    1UNL    H19   47  -0.028  -0.161  -0.142
    1UNL    H20   48  -0.318   0.218   0.062
    1UNL    H21   49  -0.592   0.153  -0.032
    1UNL    H22   50  -0.701  -0.044  -0.123
    1UNL    H23   51  -0.582  -0.239  -0.212
    1UNL    H24   52  -0.345  -0.252  -0.190
   0.00000   0.00000   0.00000   0.00000   0.00000   0.00000   0.00000   0.00000   0.00000
Generated with MDTraj, t= 38.0
 52
    1UNL     C1    1   0.620   0.111  -0.106
    1UNL     O1    2   0.481   0.102  -0.114
    1UNL     C2    3   0.435   0.035  -0.006
    1UNL     O2    4   0.491   0.034   0.107
    1UNL     N1    5   0.306  -0.022  -0.018
    1UNL     C3    6   0.234   0.003  -0.149
    1UNL     C4    7   0.098   0.072  -0.128
    1UNL     C5    8   0.073   0.070   0.028
    1UNL     C6    9  -0.059   0.121   0.092
    1UNL     C7   10  -0.064   0.277   0.095
    1UNL     O3   11  -0.050   0.338  -0.022
    1UNL     C8   12  -0.040   0.071   0.238
    1UNL     O4   13  -0.097   0.111   0.336
    1UNL     O5   14   0.060  -0.021   0.241
    1UNL     C9   15   0.096  -0.064   0.106
    1UNL    C10   16   0.244  -0.091   0.091
    1UNL    C11   17   0.001  -0.188   0.075
    1UNL    C12   18   0.069  -0.322   0.067
    1UNL    C13   19  -0.095  -0.173  -0.039
    1UNL    C14   20  -0.193  -0.064  -0.028
    1UNL    C15   21  -0.177   0.064   0.027
    1UNL     N2   22  -0.306   0.130   0.022
    1UNL    C16   23  -0.398   0.043  -0.031
    1UNL    C17   24  -0.527   0.067  -0.077
    1UNL    C18   25  -0.591  -0.038  -0.139
    1UNL    C19   26  -0.518  -0.160  -0.169
    1UNL    C20   27  -0.388  -0.178  -0.135
    1UNL    C21   28  -0.326  -0.072  -0.071
    1UNL     H1   29   0.634   0.151  -0.008
    1UNL     H2   30   0.662   0.165  -0.191
    1UNL     H3   31   0.669   0.014  -0.120
    1UNL     H4   32   0.209  -0.096  -0.190
    1UNL     H5   33   0.300   0.051  -0.223
    1UNL     H6   34   0.100   0.172  -0.159
    1UNL     H7   35   0.010   0.027  -0.168
    1UNL     H8   36   0.153   0.135   0.067
    1UNL     H9   37  -0.157   0.312   0.142
    1UNL    H10   38   0.033   0.305   0.148
    1UNL    H11   39  -0.070   0.440  -0.019
    1UNL    H12   40   0.275  -0.039   0.183
    1UNL    H13   41   0.268  -0.200   0.094
    1UNL    H14   42  -0.066  -0.191   0.163
    1UNL    H15   43   0.147  -0.326  -0.009
    1UNL    H16   44  -0.001  -0.410   0.061
    1UNL    H17   45   0.134  -0.337   0.147
    1UNL    H18   46  -0.138  -0.273  -0.045
    1UNL    H19   47  -0.026  -0.143  -0.118
    1UNL    H20   48  -0.328   0.223   0.046
    1UNL    H21   49  -0.580   0.154  -0.057
    1UNL    H22   50  -0.693  -0.031  -0.180
    1UNL    H23   51  -0.569  -0.234  -0.233
    1UNL    H24   52  -0.338  -0.275  -0.160
   0.00000   0.00000   0.00000   0.00000   0.00000   0.00000   0.00000   0.00000   0.00000
Generated with MDTraj, t= 39.0
 52
    1UNL     C1    1   0.634   0.145  -0.081
    1UNL     O1    2   0.503   0.105  -0.120
    1UNL     C2    3   0.449   0.020  -0.025
    1UNL     O2    4   0.518  -0.017   0.074
    1UNL     N1    5   0.312  -0.013  -0.019
    1UNL     C3    6   0.232   0.011  -0.142
    1UNL     C4    7   0.093   0.068  -0.115
    1UNL     C5    8   0.064   0.071   0.039
    1UNL     C6    9  -0.063   0.114   0.104
    1UNL     C7   10  -0.066   0.271   0.091
    1UNL     O3   11  -0.082   0.308  -0.047
    1UNL     C8   12  -0.045   0.074   0.244
    1UNL     O4   13  -0.109   0.117   0.336
    1UNL     O5   14   0.057  -0.018   0.256
    1UNL     C9   15   0.101  -0.058   0.119
    1UNL    C10   16   0.257  -0.078   0.102
    1UNL    C11   17   0.009  -0.180   0.082
    1UNL    C12   18   0.074  -0.316   0.062
    1UNL    C13   19  -0.091  -0.167  -0.040
    1UNL    C14   20  -0.197  -0.064  -0.028
    1UNL    C15   21  -0.185   0.060   0.029
    1UNL     N2   22  -0.305   0.129   0.022
    1UNL    C16   23  -0.395   0.041  -0.040
    1UNL    C17   24  -0.522   0.073  -0.085
    1UNL    C18   25  -0.595  -0.025  -0.136
    1UNL    C19   26  -0.540  -0.153  -0.168
    1UNL    C20   27  -0.410  -0.184  -0.136
    1UNL    C21   28  -0.329  -0.077  -0.075
    1UNL     H1   29   0.622   0.215   0.003
    1UNL     H2   30   0.682   0.178  -0.177
    1UNL     H3   31   0.700   0.060  -0.048
    1UNL     H4   32   0.229  -0.083  -0.200
    1UNL     H5   33   0.294   0.083  -0.197
    1UNL     H6   34   0.085   0.170  -0.141
    1UNL     H7   35   0.017   0.018  -0.168
    1UNL     H8   36   0.143   0.133   0.085
    1UNL     H9   37  -0.156   0.295   0.151
    1UNL    H10   38   0.028   0.318   0.139
    1UNL    H11   39  -0.098   0.404  -0.053
    1UNL    H12   40   0.309  -0.051   0.196
    1UNL    H13   41   0.272  -0.189   0.097
    1UNL    H14   42  -0.053  -0.190   0.174
    1UNL    H15   43   0.149  -0.296  -0.012
    1UNL    H16   44   0.002  -0.397   0.031
    1UNL    H17   45   0.147  -0.349   0.133
    1UNL    H18   46  -0.146  -0.259  -0.031
    1UNL    H19   47  -0.026  -0.162  -0.129
    1UNL    H20   48  -0.341   0.220   0.050
    1UNL    H21   49  -0.555   0.174  -0.058
    1UNL    H22   50  -0.691  -0.002  -0.179
    1UNL    H23   51  -0.589  -0.212  -0.243
    1UNL    H24   52  -0.360  -0.274  -0.150
   0.00000   0.00000   0.00000   0.00000   0.00000   0.00000   0.00000   0.00000   0.00000
Generated with MDTraj, t= 40.0
 52
    1UNL     C1    1   0.623   0.135  -0.087
    1UNL     O1    2   0.490   0.100  -0.113
    1UNL     C2    3   0.443   0.018  -0.017
    1UNL     O2    4   0.515  -0.021   0.079
    1UNL     N1    5   0.310  -0.015  -0.020
    1UNL     C3    6   0.230  -0.007  -0.145
    1UNL     C4    7   0.103   0.061  -0.119
    1UNL     C5    8   0.079   0.077   0.033
    1UNL     C6    9  -0.053   0.128   0.091
    1UNL     C7   10  -0.065   0.288   0.098
    1UNL     O3   11  -0.109   0.337  -0.027
    1UNL     C8   12  -0.034   0.076   0.238
    1UNL     O4   13  -0.116   0.106   0.319
    1UNL     O5   14   0.063  -0.012   0.248
    1UNL     C9   15   0.101  -0.053   0.114
    1UNL    C10   16   0.253  -0.078   0.100
    1UNL    C11   17   0.004  -0.183   0.084
    1UNL    C12   18   0.075  -0.315   0.069
    1UNL    C13   19  -0.086  -0.169  -0.036
    1UNL    C14   20  -0.189  -0.064  -0.019
    1UNL    C15   21  -0.172   0.067   0.028
    1UNL     N2   22  -0.298   0.123   0.018
    1UNL    C16   23  -0.396   0.044  -0.033
    1UNL    C17   24  -0.531   0.059  -0.070
    1UNL    C18   25  -0.596  -0.033  -0.153
    1UNL    C19   26  -0.533  -0.157  -0.177
    1UNL    C20   27  -0.404  -0.173  -0.139
    1UNL    C21   28  -0.329  -0.077  -0.069
    1UNL     H1   29   0.638   0.183   0.012
    1UNL     H2   30   0.641   0.198  -0.179
    1UNL     H3   31   0.695   0.046  -0.093
    1UNL     H4   32   0.227  -0.112  -0.179
    1UNL     H5   33   0.293   0.056  -0.211
    1UNL     H6   34   0.103   0.162  -0.151
    1UNL     H7   35   0.025   0.023  -0.180
    1UNL     H8   36   0.161   0.133   0.079
    1UNL     H9   37  -0.128   0.308   0.186
    1UNL    H10   38   0.039   0.321   0.127
    1UNL    H11   39  -0.102   0.430  -0.020
    1UNL    H12   40   0.304  -0.053   0.197
    1UNL    H13   41   0.274  -0.186   0.096
    1UNL    H14   42  -0.060  -0.200   0.174
    1UNL    H15   43   0.147  -0.301  -0.007
    1UNL    H16   44  -0.000  -0.392   0.047
    1UNL    H17   45   0.140  -0.340   0.154
    1UNL    H18   46  -0.121  -0.266  -0.062
    1UNL    H19   47  -0.024  -0.128  -0.117
    1UNL    H20   48  -0.310   0.223   0.051
    1UNL    H21   49  -0.583   0.147  -0.028
    1UNL    H22   50  -0.700  -0.012  -0.167
    1UNL    H23   51  -0.587  -0.229  -0.240
    1UNL    H24   52  -0.350  -0.267  -0.162
   0.00000   0.00000   0.00000   0.00000   0.00000   0.00000   0.00000   0.00000   0.00000
Generated with MDTraj, t= 41.0
 52
    1UNL     C1    1   0.620   0.118  -0.115
    1UNL     O1    2   0.483   0.069  -0.130
    1UNL     C2    3   0.432   0.026  -0.011
    1UNL     O2    4   0.488   0.031   0.099
    1UNL     N1    5   0.303  -0.019  -0.012
    1UNL     C3    6   0.227  -0.006  -0.146
    1UNL     C4    7   0.105   0.081  -0.114
    1UNL     C5    8   0.075   0.083   0.036
    1UNL     C6    9  -0.055   0.125   0.101
    1UNL     C7   10  -0.067   0.281   0.100
    1UNL     O3   11  -0.093   0.342  -0.016
    1UNL     C8   12  -0.038   0.067   0.244
    1UNL     O4   13  -0.104   0.104   0.341
    1UNL     O5   14   0.063  -0.033   0.248
    1UNL     C9   15   0.100  -0.059   0.111
    1UNL    C10   16   0.249  -0.092   0.100
    1UNL    C11   17   0.005  -0.178   0.073
    1UNL    C12   18   0.065  -0.322   0.091
    1UNL    C13   19  -0.080  -0.159  -0.050
    1UNL    C14   20  -0.183  -0.052  -0.044
    1UNL    C15   21  -0.179   0.065   0.025
    1UNL     N2   22  -0.300   0.131   0.016
    1UNL    C16   23  -0.386   0.047  -0.057
    1UNL    C17   24  -0.524   0.060  -0.076
    1UNL    C18   25  -0.593  -0.045  -0.131
    1UNL    C19   26  -0.522  -0.159  -0.174
    1UNL    C20   27  -0.386  -0.177  -0.141
    1UNL    C21   28  -0.319  -0.068  -0.091
    1UNL     H1   29   0.641   0.164  -0.017
    1UNL     H2   30   0.638   0.190  -0.196
    1UNL     H3   31   0.691   0.032  -0.110
    1UNL     H4   32   0.206  -0.108  -0.182
    1UNL     H5   33   0.304   0.046  -0.205
    1UNL     H6   34   0.122   0.178  -0.150
    1UNL     H7   35   0.015   0.057  -0.169
    1UNL     H8   36   0.152   0.148   0.078
    1UNL     H9   37  -0.151   0.304   0.165
    1UNL    H10   38   0.026   0.322   0.149
    1UNL    H11   39  -0.092   0.442  -0.008
    1UNL    H12   40   0.311  -0.052   0.187
    1UNL    H13   41   0.288  -0.193   0.109
    1UNL    H14   42  -0.068  -0.173   0.157
    1UNL    H15   43   0.141  -0.334   0.021
    1UNL    H16   44  -0.013  -0.394   0.082
    1UNL    H17   45   0.120  -0.337   0.190
    1UNL    H18   46  -0.144  -0.243  -0.063
    1UNL    H19   47  -0.009  -0.152  -0.136
    1UNL    H20   48  -0.320   0.228   0.057
    1UNL    H21   49  -0.579   0.137  -0.036
    1UNL    H22   50  -0.701  -0.056  -0.125
    1UNL    H23   51  -0.565  -0.248  -0.214
    1UNL    H24   52  -0.334  -0.254  -0.192
   0.00000   0.00000   0.00000   0.00000   0.00000   0.00000   0.00000   0.00000   0.00000
Generated with MDTraj, t= 42.0
 52
    1UNL     C1    1   0.622   0.123  -0.124
    1UNL     O1    2   0.489   0.071  -0.139
    1UNL     C2    3   0.438   0.033  -0.022
    1UNL     O2    4   0.494   0.041   0.087
    1UNL     N1    5   0.313  -0.025  -0.022
    1UNL     C3    6   0.222  -0.013  -0.143
    1UNL     C4    7   0.100   0.080  -0.103
    1UNL     C5    8   0.078   0.076   0.045
    1UNL     C6    9  -0.065   0.121   0.104
    1UNL     C7   10  -0.069   0.275   0.103
    1UNL     O3   11  -0.047   0.336  -0.024
    1UNL     C8   12  -0.057   0.060   0.245
    1UNL     O4   13  -0.129   0.101   0.336
    1UNL     O5   14   0.051  -0.028   0.248
    1UNL     C9   15   0.101  -0.058   0.114
    1UNL    C10   16   0.252  -0.080   0.102
    1UNL    C11   17   0.008  -0.183   0.079
    1UNL    C12   18   0.079  -0.320   0.096
    1UNL    C13   19  -0.084  -0.168  -0.042
    1UNL    C14   20  -0.193  -0.058  -0.032
    1UNL    C15   21  -0.185   0.062   0.036
    1UNL     N2   22  -0.309   0.126   0.032
    1UNL    C16   23  -0.393   0.052  -0.042
    1UNL    C17   24  -0.531   0.067  -0.072
    1UNL    C18   25  -0.586  -0.039  -0.145
    1UNL    C19   26  -0.516  -0.155  -0.182
    1UNL    C20   27  -0.382  -0.173  -0.155
    1UNL    C21   28  -0.323  -0.064  -0.088
    1UNL     H1   29   0.632   0.228  -0.116
    1UNL     H2   30   0.668   0.102  -0.220
    1UNL     H3   31   0.662   0.083  -0.030
    1UNL     H4   32   0.186  -0.116  -0.157
    1UNL     H5   33   0.283   0.030  -0.223
    1UNL     H6   34   0.125   0.176  -0.136
    1UNL     H7   35   0.005   0.062  -0.151
    1UNL     H8   36   0.150   0.150   0.082
    1UNL     H9   37  -0.158   0.314   0.149
    1UNL    H10   38   0.018   0.305   0.164
    1UNL    H11   39  -0.045   0.440  -0.029
    1UNL    H12   40   0.309  -0.037   0.191
    1UNL    H13   41   0.299  -0.177   0.110
    1UNL    H14   42  -0.067  -0.183   0.161
    1UNL    H15   43   0.147  -0.343   0.018
    1UNL    H16   44   0.007  -0.397   0.092
    1UNL    H17   45   0.143  -0.342   0.188
    1UNL    H18   46  -0.125  -0.262  -0.068
    1UNL    H19   47  -0.031  -0.134  -0.134
    1UNL    H20   48  -0.336   0.198   0.106
    1UNL    H21   49  -0.595   0.157  -0.044
    1UNL    H22   50  -0.690  -0.054  -0.173
    1UNL    H23   51  -0.563  -0.238  -0.234
    1UNL    H24   52  -0.321  -0.254  -0.196
   0.00000   0.00000   0.00000   0.00000   0.00000   0.00000   0.00000   0.00000   0.00000
Generated with MDTraj, t= 43.0
 52
    1UNL     C1    1   0.611   0.136  -0.132
    1UNL     O1    2   0.477   0.086  -0.133
    1UNL     C2    3   0.437   0.026  -0.018
    1UNL     O2    4   0.511   0.013   0.080
    1UNL     N1    5   0.302  -0.024  -0.015
    1UNL     C3    6   0.218  -0.016  -0.138
    1UNL     C4    7   0.088   0.065  -0.117
    1UNL     C5    8   0.069   0.075   0.039
    1UNL     C6    9  -0.060   0.126   0.104
    1UNL     C7   10  -0.066   0.278   0.115
    1UNL     O3   11  -0.042   0.332  -0.025
    1UNL     C8   12  -0.048   0.065   0.247
    1UNL     O4   13  -0.132   0.102   0.327
    1UNL     O5   14   0.063  -0.013   0.258
    1UNL     C9   15   0.096  -0.059   0.120
    1UNL    C10   16   0.252  -0.076   0.118
    1UNL    C11   17   0.013  -0.189   0.089
    1UNL    C12   18   0.104  -0.311   0.067
    1UNL    C13   19  -0.091  -0.175  -0.027
    1UNL    C14   20  -0.191  -0.066  -0.009
    1UNL    C15   21  -0.184   0.064   0.039
    1UNL     N2   22  -0.306   0.126   0.027
    1UNL    C16   23  -0.396   0.049  -0.038
    1UNL    C17   24  -0.531   0.062  -0.086
    1UNL    C18   25  -0.588  -0.032  -0.161
    1UNL    C19   26  -0.516  -0.151  -0.196
    1UNL    C20   27  -0.391  -0.163  -0.154
    1UNL    C21   28  -0.326  -0.069  -0.073
    1UNL     H1   29   0.622   0.240  -0.144
    1UNL     H2   30   0.656   0.099  -0.223
    1UNL     H3   31   0.649   0.101  -0.036
    1UNL     H4   32   0.189  -0.120  -0.159
    1UNL     H5   33   0.276   0.025  -0.221
    1UNL     H6   34   0.098   0.156  -0.167
    1UNL     H7   35   0.011   0.009  -0.167
    1UNL     H8   36   0.145   0.148   0.066
    1UNL     H9   37  -0.165   0.306   0.141
    1UNL    H10   38  -0.004   0.321   0.193
    1UNL    H11   39  -0.040   0.429  -0.026
    1UNL    H12   40   0.311  -0.024   0.203
    1UNL    H13   41   0.296  -0.172   0.130
    1UNL    H14   42  -0.045  -0.198   0.182
    1UNL    H15   43   0.171  -0.306  -0.019
    1UNL    H16   44   0.049  -0.400   0.061
    1UNL    H17   45   0.178  -0.320   0.149
    1UNL    H18   46  -0.147  -0.267  -0.028
    1UNL    H19   47  -0.041  -0.186  -0.126
    1UNL    H20   48  -0.325   0.221   0.061
    1UNL    H21   49  -0.588   0.146  -0.064
    1UNL    H22   50  -0.689  -0.020  -0.203
    1UNL    H23   51  -0.553  -0.215  -0.273
    1UNL    H24   52  -0.337  -0.254  -0.163
   0.00000   0.00000   0.00000   0.00000   0.00000   0.00000   0.00000   0.00000   0.00000
Generated with MDTraj, t= 44.0
 52
    1UNL     C1    1   0.596   0.137  -0.130
    1UNL     O1    2   0.473   0.079  -0.137
    1UNL     C2    3   0.434   0.022  -0.017
    1UNL     O2    4   0.508   0.009   0.081
    1UNL     N1    5   0.300  -0.016  -0.011
    1UNL     C3    6   0.214  -0.006  -0.130
    1UNL     C4    7   0.086   0.075  -0.100
    1UNL     C5    8   0.073   0.078   0.053
    1UNL     C6    9  -0.065   0.121   0.107
    1UNL     C7   10  -0.073   0.272   0.113
    1UNL     O3   11  -0.085   0.317  -0.020
    1UNL     C8   12  -0.043   0.067   0.251
    1UNL     O4   13  -0.100   0.117   0.347
    1UNL     O5   14   0.070  -0.023   0.265
    1UNL     C9   15   0.102  -0.057   0.122
    1UNL    C10   16   0.253  -0.086   0.106
    1UNL    C11   17   0.009  -0.184   0.081
    1UNL    C12   18   0.087  -0.316   0.065
    1UNL    C13   19  -0.081  -0.168  -0.039
    1UNL    C14   20  -0.188  -0.066  -0.017
    1UNL    C15   21  -0.182   0.064   0.032
    1UNL     N2   22  -0.297   0.137   0.008
    1UNL    C16   23  -0.382   0.051  -0.058
    1UNL    C17   24  -0.507   0.072  -0.116
    1UNL    C18   25  -0.580  -0.028  -0.165
    1UNL    C19   26  -0.521  -0.151  -0.182
    1UNL    C20   27  -0.396  -0.181  -0.134
    1UNL    C21   28  -0.319  -0.078  -0.073
    1UNL     H1   29   0.583   0.223  -0.064
    1UNL     H2   30   0.616   0.183  -0.229
    1UNL     H3   31   0.661   0.053  -0.097
    1UNL     H4   32   0.187  -0.107  -0.161
    1UNL     H5   33   0.259   0.038  -0.219
    1UNL     H6   34   0.092   0.170  -0.142
    1UNL     H7   35   0.008   0.032  -0.160
    1UNL     H8   36   0.155   0.146   0.083
    1UNL     H9   37  -0.148   0.311   0.177
    1UNL    H10   38   0.019   0.319   0.148
    1UNL    H11   39  -0.093   0.410  -0.016
    1UNL    H12   40   0.306  -0.039   0.196
    1UNL    H13   41   0.279  -0.190   0.108
    1UNL    H14   42  -0.050  -0.198   0.172
    1UNL    H15   43   0.156  -0.318  -0.022
    1UNL    H16   44   0.007  -0.388   0.059
    1UNL    H17   45   0.147  -0.331   0.152
    1UNL    H18   46  -0.124  -0.261  -0.076
    1UNL    H19   47  -0.028  -0.142  -0.133
    1UNL    H20   48  -0.298   0.237  -0.008
    1UNL    H21   49  -0.542   0.174  -0.096
    1UNL    H22   50  -0.669  -0.008  -0.218
    1UNL    H23   51  -0.576  -0.231  -0.235
    1UNL    H24   52  -0.351  -0.277  -0.122
   0.00000   0.00000   0.00000   0.00000   0.00000   0.00000   0.00000   0.00000   0.00000
Generated with MDTraj, t= 45.0
 52
    1UNL     C1    1   0.622   0.130  -0.119
    1UNL     O1    2   0.487   0.095  -0.137
    1UNL     C2    3   0.429   0.031  -0.025
    1UNL     O2    4   0.493   0.025   0.078
    1UNL     N1    5   0.307  -0.028  -0.027
    1UNL     C3    6   0.216  -0.027  -0.148
    1UNL     C4    7   0.082   0.062  -0.116
    1UNL     C5    8   0.077   0.076   0.040
    1UNL     C6    9  -0.057   0.120   0.098
    1UNL     C7   10  -0.063   0.272   0.113
    1UNL     O3   11  -0.119   0.341   0.007
    1UNL     C8   12  -0.040   0.065   0.251
    1UNL     O4   13  -0.115   0.109   0.336
    1UNL     O5   14   0.066  -0.021   0.256
    1UNL     C9   15   0.114  -0.056   0.124
    1UNL    C10   16   0.263  -0.089   0.096
    1UNL    C11   17   0.009  -0.179   0.095
    1UNL    C12   18   0.075  -0.324   0.097
    1UNL    C13   19  -0.090  -0.174  -0.024
    1UNL    C14   20  -0.192  -0.069  -0.012
    1UNL    C15   21  -0.179   0.060   0.038
    1UNL     N2   22  -0.291   0.136   0.010
    1UNL    C16   23  -0.387   0.048  -0.048
    1UNL    C17   24  -0.510   0.078  -0.108
    1UNL    C18   25  -0.569  -0.021  -0.185
    1UNL    C19   26  -0.512  -0.148  -0.185
    1UNL    C20   27  -0.389  -0.181  -0.135
    1UNL    C21   28  -0.329  -0.076  -0.070
    1UNL     H1   29   0.624   0.148  -0.009
    1UNL     H2   30   0.641   0.234  -0.157
    1UNL     H3   31   0.685   0.049  -0.169
    1UNL     H4   32   0.176  -0.126  -0.170
    1UNL     H5   33   0.268  -0.007  -0.242
    1UNL     H6   34   0.087   0.151  -0.172
    1UNL     H7   35  -0.008   0.028  -0.165
    1UNL     H8   36   0.156   0.151   0.060
    1UNL     H9   37  -0.124   0.292   0.199
    1UNL    H10   38   0.035   0.319   0.135
    1UNL    H11   39  -0.115   0.438   0.022
    1UNL    H12   40   0.323  -0.051   0.185
    1UNL    H13   41   0.275  -0.198   0.081
    1UNL    H14   42  -0.050  -0.173   0.187
    1UNL    H15   43   0.139  -0.332   0.006
    1UNL    H16   44  -0.009  -0.394   0.090
    1UNL    H17   45   0.144  -0.345   0.174
    1UNL    H18   46  -0.141  -0.268  -0.040
    1UNL    H19   47  -0.045  -0.176  -0.126
    1UNL    H20   48  -0.318   0.235   0.036
    1UNL    H21   49  -0.553   0.175  -0.116
    1UNL    H22   50  -0.664   0.001  -0.235
    1UNL    H23   51  -0.567  -0.224  -0.232
    1UNL    H24   52  -0.344  -0.280  -0.152
   0.00000   0.00000   0.00000   0.00000   0.00000   0.00000   0.00000   0.00000   0.00000
Generated with MDTraj, t= 46.0
 52
    1UNL     C1    1   0.608   0.141  -0.136
    1UNL     O1    2   0.482   0.090  -0.140
    1UNL     C2    3   0.438   0.029  -0.020
    1UNL     O2    4   0.510   0.022   0.077
    1UNL     N1    5   0.311  -0.021  -0.025
    1UNL     C3    6   0.225  -0.008  -0.145
    1UNL     C4    7   0.087   0.058  -0.110
    1UNL     C5    8   0.077   0.077   0.043
    1UNL     C6    9  -0.056   0.119   0.110
    1UNL     C7   10  -0.077   0.274   0.116
    1UNL     O3   11  -0.098   0.329  -0.017
    1UNL     C8   12  -0.035   0.068   0.248
    1UNL     O4   13  -0.114   0.081   0.337
    1UNL     O5   14   0.079  -0.019   0.256
    1UNL     C9   15   0.102  -0.060   0.123
    1UNL    C10   16   0.259  -0.089   0.098
    1UNL    C11   17  -0.003  -0.183   0.107
    1UNL    C12   18   0.073  -0.319   0.119
    1UNL    C13   19  -0.101  -0.185  -0.010
    1UNL    C14   20  -0.192  -0.063  -0.020
    1UNL    C15   21  -0.176   0.059   0.043
    1UNL     N2   22  -0.296   0.130   0.019
    1UNL    C16   23  -0.387   0.056  -0.061
    1UNL    C17   24  -0.517   0.076  -0.098
    1UNL    C18   25  -0.580  -0.025  -0.172
    1UNL    C19   26  -0.518  -0.141  -0.208
    1UNL    C20   27  -0.392  -0.164  -0.159
    1UNL    C21   28  -0.324  -0.070  -0.078
    1UNL     H1   29   0.578   0.243  -0.100
    1UNL     H2   30   0.655   0.145  -0.237
    1UNL     H3   31   0.672   0.078  -0.070
    1UNL     H4   32   0.203  -0.104  -0.192
    1UNL     H5   33   0.280   0.050  -0.218
    1UNL     H6   34   0.093   0.144  -0.169
    1UNL     H7   35   0.000   0.010  -0.151
    1UNL     H8   36   0.157   0.150   0.069
    1UNL     H9   37  -0.159   0.297   0.185
    1UNL    H10   38   0.014   0.318   0.165
    1UNL    H11   39  -0.099   0.432  -0.024
    1UNL    H12   40   0.326  -0.047   0.181
    1UNL    H13   41   0.279  -0.198   0.079
    1UNL    H14   42  -0.056  -0.171   0.203
    1UNL    H15   43   0.142  -0.347   0.037
    1UNL    H16   44   0.013  -0.410   0.140
    1UNL    H17   45   0.142  -0.314   0.197
    1UNL    H18   46  -0.158  -0.274  -0.025
    1UNL    H19   47  -0.042  -0.189  -0.103
    1UNL    H20   48  -0.290   0.237   0.013
    1UNL    H21   49  -0.568   0.171  -0.085
    1UNL    H22   50  -0.687  -0.019  -0.172
    1UNL    H23   51  -0.566  -0.226  -0.263
    1UNL    H24   52  -0.337  -0.246  -0.194
   0.00000   0.00000   0.00000   0.00000   0.00000   0.00000   0.00000   0.00000   0.00000
Generated with MDTraj, t= 47.0
 52
    1UNL     C1    1   0.596   0.140  -0.139
    1UNL     O1    2   0.461   0.101  -0.142
    1UNL     C2    3   0.425   0.026  -0.023
    1UNL     O2    4   0.500   0.009   0.072
    1UNL     N1    5   0.297  -0.031  -0.025
    1UNL     C3    6   0.214  -0.000  -0.138
    1UNL     C4    7   0.089   0.079  -0.100
    1UNL     C5    8   0.073   0.076   0.051
    1UNL     C6    9  -0.063   0.126   0.112
    1UNL     C7   10  -0.068   0.278   0.106
    1UNL     O3   11  -0.059   0.324  -0.028
    1UNL     C8   12  -0.039   0.065   0.256
    1UNL     O4   13  -0.102   0.103   0.348
    1UNL     O5   14   0.062  -0.029   0.258
    1UNL     C9   15   0.097  -0.057   0.122
    1UNL    C10   16   0.243  -0.089   0.107
    1UNL    C11   17  -0.000  -0.184   0.087
    1UNL    C12   18   0.074  -0.314   0.111
    1UNL    C13   19  -0.083  -0.171  -0.039
    1UNL    C14   20  -0.185  -0.065  -0.020
    1UNL    C15   21  -0.184   0.057   0.046
    1UNL     N2   22  -0.301   0.122   0.032
    1UNL    C16   23  -0.380   0.046  -0.050
    1UNL    C17   24  -0.505   0.073  -0.107
    1UNL    C18   25  -0.569  -0.023  -0.180
    1UNL    C19   26  -0.507  -0.149  -0.197
    1UNL    C20   27  -0.383  -0.176  -0.150
    1UNL    C21   28  -0.314  -0.076  -0.075
    1UNL     H1   29   0.602   0.237  -0.182
    1UNL     H2   30   0.654   0.062  -0.188
    1UNL     H3   31   0.621   0.142  -0.034
    1UNL     H4   32   0.191  -0.096  -0.185
    1UNL     H5   33   0.275   0.063  -0.202
    1UNL     H6   34   0.099   0.178  -0.134
    1UNL     H7   35   0.011   0.032  -0.154
    1UNL     H8   36   0.145   0.151   0.087
    1UNL     H9   37  -0.167   0.300   0.149
    1UNL    H10   38   0.007   0.316   0.184
    1UNL    H11   39  -0.052   0.424  -0.027
    1UNL    H12   40   0.307  -0.030   0.179
    1UNL    H13   41   0.272  -0.199   0.102
    1UNL    H14   42  -0.073  -0.173   0.170
    1UNL    H15   43   0.152  -0.337   0.038
    1UNL    H16   44   0.012  -0.405   0.096
    1UNL    H17   45   0.118  -0.336   0.205
    1UNL    H18   46  -0.136  -0.264  -0.045
    1UNL    H19   47  -0.024  -0.161  -0.128
    1UNL    H20   48  -0.332   0.203   0.093
    1UNL    H21   49  -0.554   0.168  -0.076
    1UNL    H22   50  -0.665  -0.011  -0.229
    1UNL    H23   51  -0.573  -0.226  -0.223
    1UNL    H24   52  -0.324  -0.264  -0.179
   0.00000   0.00000   0.00000   0.00000   0.00000   0.00000   0.00000   0.00000   0.00000
Generated with MDTraj, t= 48.0
 52
    1UNL     C1    1   0.597   0.145  -0.125
    1UNL     O1    2   0.469   0.091  -0.141
    1UNL     C2    3   0.431   0.023  -0.024
    1UNL     O2    4   0.508   0.013   0.072
    1UNL     N1    5   0.307  -0.035  -0.025
    1UNL     C3    6   0.211  -0.026  -0.144
    1UNL     C4    7   0.078   0.056  -0.110
    1UNL     C5    8   0.071   0.067   0.042
    1UNL     C6    9  -0.062   0.121   0.106
    1UNL     C7   10  -0.059   0.278   0.113
    1UNL     O3   11  -0.049   0.346  -0.005
    1UNL     C8   12  -0.048   0.068   0.254
    1UNL     O4   13  -0.100   0.122   0.349
    1UNL     O5   14   0.054  -0.028   0.260
    1UNL     C9   15   0.098  -0.055   0.124
    1UNL    C10   16   0.250  -0.080   0.111
    1UNL    C11   17   0.013  -0.178   0.086
    1UNL    C12   18   0.080  -0.309   0.076
    1UNL    C13   19  -0.098  -0.171  -0.020
    1UNL    C14   20  -0.195  -0.060  -0.016
    1UNL    C15   21  -0.184   0.068   0.041
    1UNL     N2   22  -0.305   0.130   0.023
    1UNL    C16   23  -0.390   0.048  -0.047
    1UNL    C17   24  -0.528   0.059  -0.091
    1UNL    C18   25  -0.581  -0.041  -0.168
    1UNL    C19   26  -0.498  -0.155  -0.204
    1UNL    C20   27  -0.370  -0.168  -0.170
    1UNL    C21   28  -0.319  -0.073  -0.077
    1UNL     H1   29   0.641   0.145  -0.221
    1UNL     H2   30   0.648   0.085  -0.051
    1UNL     H3   31   0.587   0.248  -0.098
    1UNL     H4   32   0.184  -0.131  -0.153
    1UNL     H5   33   0.274   0.007  -0.225
    1UNL     H6   34   0.080   0.153  -0.149
    1UNL     H7   35  -0.005   0.008  -0.152
    1UNL     H8   36   0.156   0.132   0.070
    1UNL     H9   37  -0.150   0.308   0.167
    1UNL    H10   38   0.032   0.297   0.179
    1UNL    H11   39  -0.032   0.438   0.010
    1UNL    H12   40   0.314  -0.007   0.170
    1UNL    H13   41   0.281  -0.190   0.127
    1UNL    H14   42  -0.052  -0.177   0.178
    1UNL    H15   43   0.158  -0.305   0.004
    1UNL    H16   44   0.006  -0.381   0.035
    1UNL    H17   45   0.114  -0.353   0.170
    1UNL    H18   46  -0.158  -0.259  -0.010
    1UNL    H19   47  -0.051  -0.171  -0.115
    1UNL    H20   48  -0.324   0.217   0.078
    1UNL    H21   49  -0.588   0.140  -0.072
    1UNL    H22   50  -0.679  -0.025  -0.213
    1UNL    H23   51  -0.536  -0.227  -0.282
    1UNL    H24   52  -0.319  -0.261  -0.180
   0.00000   0.00000   0.00000   0.00000   0.00000   0.00000   0.00000   0.00000   0.00000
Generated with MDTraj, t= 49.0
 52
    1UNL     C1    1   0.597   0.141  -0.131
    1UNL     O1    2   0.482   0.064  -0.147
    1UNL     C2    3   0.433   0.030  -0.017
    1UNL     O2    4   0.501   0.041   0.085
    1UNL     N1    5   0.313  -0.029  -0.015
    1UNL     C3    6   0.222  -0.009  -0.138
    1UNL     C4    7   0.100   0.073  -0.096
    1UNL     C5    8   0.076   0.079   0.053
    1UNL     C6    9  -0.052   0.119   0.108
    1UNL     C7   10  -0.072   0.275   0.108
    1UNL     O3   11  -0.073   0.312  -0.032
    1UNL     C8   12  -0.045   0.063   0.247
    1UNL     O4   13  -0.133   0.087   0.330
    1UNL     O5   14   0.064  -0.024   0.259
    1UNL     C9   15   0.098  -0.055   0.126
    1UNL    C10   16   0.254  -0.085   0.113
    1UNL    C11   17   0.009  -0.177   0.082
    1UNL    C12   18   0.081  -0.313   0.079
    1UNL    C13   19  -0.078  -0.162  -0.039
    1UNL    C14   20  -0.190  -0.067  -0.022
    1UNL    C15   21  -0.171   0.054   0.032
    1UNL     N2   22  -0.289   0.121   0.020
    1UNL    C16   23  -0.386   0.046  -0.047
    1UNL    C17   24  -0.514   0.079  -0.082
    1UNL    C18   25  -0.584  -0.018  -0.151
    1UNL    C19   26  -0.527  -0.141  -0.194
    1UNL    C20   27  -0.399  -0.173  -0.148
    1UNL    C21   28  -0.326  -0.076  -0.072
    1UNL     H1   29   0.636   0.152  -0.232
    1UNL     H2   30   0.664   0.088  -0.060
    1UNL     H3   31   0.568   0.245  -0.106
    1UNL     H4   32   0.198  -0.110  -0.166
    1UNL     H5   33   0.293   0.035  -0.207
    1UNL     H6   34   0.116   0.169  -0.136
    1UNL     H7   35   0.006   0.050  -0.142
    1UNL     H8   36   0.161   0.136   0.094
    1UNL     H9   37  -0.168   0.300   0.154
    1UNL    H10   38   0.017   0.320   0.162
    1UNL    H11   39  -0.074   0.406  -0.047
    1UNL    H12   40   0.304  -0.020   0.188
    1UNL    H13   41   0.290  -0.191   0.125
    1UNL    H14   42  -0.072  -0.186   0.159
    1UNL    H15   43   0.156  -0.296   0.008
    1UNL    H16   44   0.010  -0.390   0.048
    1UNL    H17   45   0.117  -0.327   0.182
    1UNL    H18   46  -0.128  -0.257  -0.044
    1UNL    H19   47  -0.025  -0.147  -0.131
    1UNL    H20   48  -0.296   0.221   0.026
    1UNL    H21   49  -0.552   0.185  -0.066
    1UNL    H22   50  -0.675   0.004  -0.204
    1UNL    H23   51  -0.574  -0.201  -0.266
    1UNL    H24   52  -0.369  -0.279  -0.152
   0.00000   0.00000   0.00000   0.00000   0.00000   0.00000   0.00000   0.00000   0.00000
Generated with MDTraj, t= 50.0
 52
    1UNL     C1    1   0.624   0.117  -0.119
    1UNL     O1    2   0.486   0.085  -0.134
    1UNL     C2    3   0.429   0.044  -0.011
    1UNL     O2    4   0.497   0.049   0.093
    1UNL     N1    5   0.311  -0.027  -0.010
    1UNL     C3    6   0.227  -0.023  -0.138
    1UNL     C4    7   0.100   0.046  -0.117
    1UNL     C5    8   0.073   0.073   0.029
    1UNL     C6    9  -0.053   0.121   0.099
    1UNL     C7   10  -0.067   0.271   0.117
    1UNL     O3   11  -0.097   0.337  -0.009
    1UNL     C8   12  -0.034   0.065   0.243
    1UNL     O4   13  -0.123   0.098   0.323
    1UNL     O5   14   0.066  -0.020   0.249
    1UNL     C9   15   0.099  -0.059   0.115
    1UNL    C10   16   0.249  -0.087   0.108
    1UNL    C11   17   0.011  -0.182   0.079
    1UNL    C12   18   0.079  -0.318   0.070
    1UNL    C13   19  -0.096  -0.171  -0.035
    1UNL    C14   20  -0.194  -0.060  -0.024
    1UNL    C15   21  -0.174   0.063   0.036
    1UNL     N2   22  -0.291   0.133   0.009
    1UNL    C16   23  -0.384   0.056  -0.055
    1UNL    C17   24  -0.518   0.075  -0.085
    1UNL    C18   25  -0.588  -0.032  -0.142
    1UNL    C19   26  -0.529  -0.154  -0.171
    1UNL    C20   27  -0.391  -0.172  -0.145
    1UNL    C21   28  -0.323  -0.068  -0.082
    1UNL     H1   29   0.642   0.194  -0.196
    1UNL     H2   30   0.678   0.019  -0.136
    1UNL     H3   31   0.643   0.170  -0.020
    1UNL     H4   32   0.214  -0.128  -0.166
    1UNL     H5   33   0.295   0.036  -0.200
    1UNL     H6   34   0.095   0.143  -0.156
    1UNL     H7   35   0.020  -0.005  -0.170
    1UNL     H8   36   0.152   0.141   0.058
    1UNL     H9   37  -0.145   0.282   0.190
    1UNL    H10   38   0.030   0.307   0.156
    1UNL    H11   39  -0.099   0.437   0.011
    1UNL    H12   40   0.303  -0.037   0.195
    1UNL    H13   41   0.273  -0.193   0.105
    1UNL    H14   42  -0.058  -0.189   0.167
    1UNL    H15   43   0.139  -0.308  -0.017
    1UNL    H16   44   0.001  -0.389   0.054
    1UNL    H17   45   0.135  -0.341   0.164
    1UNL    H18   46  -0.141  -0.267  -0.043
    1UNL    H19   47  -0.037  -0.165  -0.126
    1UNL    H20   48  -0.313   0.227   0.027
    1UNL    H21   49  -0.563   0.168  -0.073
    1UNL    H22   50  -0.687  -0.007  -0.173
    1UNL    H23   51  -0.596  -0.240  -0.185
    1UNL    H24   52  -0.346  -0.266  -0.170
   0.00000   0.00000   0.00000   0.00000   0.00000   0.00000   0.00000   0.00000   0.00000
Generated with MDTraj, t= 51.0
 52
    1UNL     C1    1   0.620   0.134  -0.084
    1UNL     O1    2   0.494   0.089  -0.121
    1UNL     C2    3   0.441   0.031  -0.013
    1UNL     O2    4   0.512   0.002   0.087
    1UNL     N1    5   0.313  -0.019  -0.027
    1UNL     C3    6   0.224  -0.008  -0.149
    1UNL     C4    7   0.091   0.076  -0.117
    1UNL     C5    8   0.068   0.072   0.032
    1UNL     C6    9  -0.058   0.120   0.097
    1UNL     C7   10  -0.062   0.272   0.097
    1UNL     O3   11  -0.089   0.343  -0.021
    1UNL     C8   12  -0.043   0.071   0.238
    1UNL     O4   13  -0.110   0.117   0.333
    1UNL     O5   14   0.055  -0.029   0.247
    1UNL     C9   15   0.100  -0.059   0.103
    1UNL    C10   16   0.258  -0.081   0.092
    1UNL    C11   17   0.013  -0.186   0.076
    1UNL    C12   18   0.083  -0.318   0.065
    1UNL    C13   19  -0.092  -0.171  -0.034
    1UNL    C14   20  -0.201  -0.067  -0.015
    1UNL    C15   21  -0.183   0.060   0.035
    1UNL     N2   22  -0.300   0.133   0.021
    1UNL    C16   23  -0.387   0.053  -0.057
    1UNL    C17   24  -0.522   0.072  -0.101
    1UNL    C18   25  -0.591  -0.031  -0.152
    1UNL    C19   26  -0.525  -0.156  -0.163
    1UNL    C20   27  -0.394  -0.185  -0.125
    1UNL    C21   28  -0.334  -0.077  -0.056
    1UNL     H1   29   0.656   0.183  -0.176
    1UNL     H2   30   0.674   0.038  -0.056
    1UNL     H3   31   0.610   0.217  -0.008
    1UNL     H4   32   0.200  -0.113  -0.166
    1UNL     H5   33   0.283   0.056  -0.216
    1UNL     H6   34   0.098   0.176  -0.144
    1UNL     H7   35   0.001   0.034  -0.162
    1UNL     H8   36   0.140   0.139   0.080
    1UNL     H9   37  -0.140   0.292   0.165
    1UNL    H10   38   0.033   0.313   0.132
    1UNL    H11   39  -0.090   0.442   0.005
    1UNL    H12   40   0.303  -0.032   0.186
    1UNL    H13   41   0.290  -0.182   0.092
    1UNL    H14   42  -0.038  -0.203   0.173
    1UNL    H15   43   0.145  -0.317  -0.023
    1UNL    H16   44   0.019  -0.399   0.047
    1UNL    H17   45   0.143  -0.349   0.154
    1UNL    H18   46  -0.140  -0.266  -0.039
    1UNL    H19   47  -0.037  -0.160  -0.129
    1UNL    H20   48  -0.325   0.227   0.036
    1UNL    H21   49  -0.554   0.177  -0.101
    1UNL    H22   50  -0.700  -0.018  -0.152
    1UNL    H23   51  -0.585  -0.243  -0.192
    1UNL    H24   52  -0.351  -0.281  -0.156
   0.00000   0.00000   0.00000   0.00000   0.00000   0.00000   0.00000   0.00000   0.00000
Generated with MDTraj, t= 52.0
 52
    1UNL     C1    1   0.620   0.147  -0.089
    1UNL     O1    2   0.483   0.101  -0.113
    1UNL     C2    3   0.441   0.028  -0.008
    1UNL     O2    4   0.521  -0.021   0.074
    1UNL     N1    5   0.309  -0.019  -0.014
    1UNL     C3    6   0.238   0.013  -0.136
    1UNL     C4    7   0.101   0.086  -0.112
    1UNL     C5    8   0.073   0.079   0.037
    1UNL     C6    9  -0.059   0.127   0.095
    1UNL     C7   10  -0.065   0.280   0.082
    1UNL     O3   11  -0.077   0.311  -0.052
    1UNL     C8   12  -0.032   0.070   0.240
    1UNL     O4   13  -0.104   0.105   0.330
    1UNL     O5   14   0.060  -0.026   0.249
    1UNL     C9   15   0.099  -0.063   0.109
    1UNL    C10   16   0.251  -0.093   0.101
    1UNL    C11   17   0.006  -0.186   0.077
    1UNL    C12   18   0.087  -0.317   0.073
    1UNL    C13   19  -0.091  -0.167  -0.036
    1UNL    C14   20  -0.206  -0.066  -0.012
    1UNL    C15   21  -0.187   0.062   0.041
    1UNL     N2   22  -0.305   0.130   0.021
    1UNL    C16   23  -0.396   0.050  -0.048
    1UNL    C17   24  -0.533   0.072  -0.079
    1UNL    C18   25  -0.594  -0.034  -0.142
    1UNL    C19   26  -0.533  -0.160  -0.174
    1UNL    C20   27  -0.401  -0.171  -0.144
    1UNL    C21   28  -0.336  -0.076  -0.064
    1UNL     H1   29   0.669   0.183  -0.177
    1UNL     H2   30   0.659   0.052  -0.053
    1UNL     H3   31   0.620   0.230  -0.017
    1UNL     H4   32   0.211  -0.079  -0.188
    1UNL     H5   33   0.301   0.074  -0.200
    1UNL     H6   34   0.121   0.186  -0.132
    1UNL     H7   35   0.017   0.060  -0.176
    1UNL     H8   36   0.147   0.144   0.084
    1UNL     H9   37  -0.136   0.331   0.140
    1UNL    H10   38   0.032   0.315   0.116
    1UNL    H11   39  -0.093   0.405  -0.071
    1UNL    H12   40   0.296  -0.046   0.196
    1UNL    H13   41   0.280  -0.195   0.096
    1UNL    H14   42  -0.054  -0.196   0.169
    1UNL    H15   43   0.155  -0.324  -0.012
    1UNL    H16   44   0.045  -0.412   0.069
    1UNL    H17   45   0.152  -0.329   0.161
    1UNL    H18   46  -0.135  -0.260  -0.058
    1UNL    H19   47  -0.036  -0.143  -0.128
    1UNL    H20   48  -0.320   0.224   0.047
    1UNL    H21   49  -0.568   0.172  -0.053
    1UNL    H22   50  -0.695  -0.022  -0.171
    1UNL    H23   51  -0.597  -0.232  -0.212
    1UNL    H24   52  -0.353  -0.259  -0.179
   0.00000   0.00000   0.00000   0.00000   0.00000   0.00000   0.00000   0.00000   0.00000
Generated with MDTraj, t= 53.0
 52
    1UNL     C1    1   0.619   0.130  -0.093
    1UNL     O1    2   0.487   0.097  -0.119
    1UNL     C2    3   0.435   0.039  -0.008
    1UNL     O2    4   0.501   0.015   0.096
    1UNL     N1    5   0.311  -0.021  -0.019
    1UNL     C3    6   0.236  -0.014  -0.148
    1UNL     C4    7   0.102   0.058  -0.128
    1UNL     C5    8   0.075   0.069   0.026
    1UNL     C6    9  -0.058   0.125   0.094
    1UNL     C7   10  -0.054   0.282   0.101
    1UNL     O3   11  -0.066   0.344  -0.028
    1UNL     C8   12  -0.038   0.072   0.233
    1UNL     O4   13  -0.109   0.114   0.320
    1UNL     O5   14   0.059  -0.022   0.245
    1UNL     C9   15   0.097  -0.061   0.110
    1UNL    C10   16   0.247  -0.089   0.100
    1UNL    C11   17  -0.002  -0.185   0.081
    1UNL    C12   18   0.076  -0.312   0.091
    1UNL    C13   19  -0.089  -0.177  -0.046
    1UNL    C14   20  -0.189  -0.057  -0.039
    1UNL    C15   21  -0.180   0.063   0.028
    1UNL     N2   22  -0.304   0.120   0.038
    1UNL    C16   23  -0.393   0.041  -0.035
    1UNL    C17   24  -0.534   0.055  -0.055
    1UNL    C18   25  -0.599  -0.046  -0.122
    1UNL    C19   26  -0.528  -0.155  -0.183
    1UNL    C20   27  -0.394  -0.158  -0.164
    1UNL    C21   28  -0.323  -0.068  -0.084
    1UNL     H1   29   0.640   0.229  -0.123
    1UNL     H2   30   0.668   0.051  -0.148
    1UNL     H3   31   0.638   0.123   0.014
    1UNL     H4   32   0.213  -0.113  -0.188
    1UNL     H5   33   0.279   0.030  -0.239
    1UNL     H6   34   0.093   0.149  -0.180
    1UNL     H7   35   0.019   0.006  -0.174
    1UNL     H8   36   0.162   0.129   0.054
    1UNL     H9   37  -0.140   0.308   0.160
    1UNL    H10   38   0.024   0.333   0.159
    1UNL    H11   39  -0.089   0.436  -0.031
    1UNL    H12   40   0.291  -0.040   0.193
    1UNL    H13   41   0.281  -0.193   0.093
    1UNL    H14   42  -0.079  -0.181   0.159
    1UNL    H15   43   0.142  -0.329   0.001
    1UNL    H16   44   0.011  -0.394   0.081
    1UNL    H17   45   0.138  -0.319   0.177
    1UNL    H18   46  -0.144  -0.267  -0.061
    1UNL    H19   47  -0.035  -0.180  -0.141
    1UNL    H20   48  -0.319   0.215   0.069
    1UNL    H21   49  -0.583   0.143  -0.020
    1UNL    H22   50  -0.694  -0.017  -0.171
    1UNL    H23   51  -0.589  -0.232  -0.242
    1UNL    H24   52  -0.347  -0.250  -0.195
   0.00000   0.00000   0.00000   0.00000   0.00000   0.00000   0.00000   0.00000   0.00000
Generated with MDTraj, t= 54.0
 52
    1UNL     C1    1   0.610   0.138  -0.100
    1UNL     O1    2   0.499   0.065  -0.132
    1UNL     C2    3   0.435   0.035  -0.017
    1UNL     O2    4   0.485   0.051   0.097
    1UNL     N1    5   0.313  -0.033  -0.025
    1UNL     C3    6   0.227  -0.016  -0.144
    1UNL     C4    7   0.109   0.080  -0.116
    1UNL     C5    8   0.089   0.077   0.044
    1UNL     C6    9  -0.055   0.114   0.097
    1UNL     C7   10  -0.059   0.269   0.095
    1UNL     O3   11  -0.057   0.325  -0.037
    1UNL     C8   12  -0.055   0.063   0.246
    1UNL     O4   13  -0.118   0.105   0.337
    1UNL     O5   14   0.051  -0.026   0.257
    1UNL     C9   15   0.101  -0.057   0.117
    1UNL    C10   16   0.247  -0.100   0.097
    1UNL    C11   17  -0.001  -0.167   0.072
    1UNL    C12   18   0.046  -0.311   0.077
    1UNL    C13   19  -0.072  -0.154  -0.063
    1UNL    C14   20  -0.183  -0.053  -0.043
    1UNL    C15   21  -0.178   0.069   0.021
    1UNL     N2   22  -0.302   0.130   0.032
    1UNL    C16   23  -0.391   0.044  -0.037
    1UNL    C17   24  -0.527   0.056  -0.064
    1UNL    C18   25  -0.595  -0.045  -0.127
    1UNL    C19   26  -0.522  -0.159  -0.165
    1UNL    C20   27  -0.383  -0.175  -0.148
    1UNL    C21   28  -0.317  -0.071  -0.076
    1UNL     H1   29   0.589   0.241  -0.122
    1UNL     H2   30   0.702   0.107  -0.149
    1UNL     H3   31   0.635   0.131   0.008
    1UNL     H4   32   0.186  -0.107  -0.191
    1UNL     H5   33   0.280   0.019  -0.234
    1UNL     H6   34   0.115   0.175  -0.162
    1UNL     H7   35   0.018   0.049  -0.164
    1UNL     H8   36   0.167   0.144   0.084
    1UNL     H9   37  -0.148   0.318   0.139
    1UNL    H10   38   0.015   0.311   0.167
    1UNL    H11   39  -0.090   0.420  -0.030
    1UNL    H12   40   0.317  -0.068   0.178
    1UNL    H13   41   0.255  -0.213   0.086
    1UNL    H14   42  -0.085  -0.157   0.141
    1UNL    H15   43   0.099  -0.339  -0.018
    1UNL    H16   44  -0.047  -0.362   0.069
    1UNL    H17   45   0.101  -0.327   0.167
    1UNL    H18   46  -0.127  -0.242  -0.089
    1UNL    H19   47  -0.011  -0.143  -0.151
    1UNL    H20   48  -0.325   0.215   0.088
    1UNL    H21   49  -0.569   0.159  -0.051
    1UNL    H22   50  -0.692  -0.026  -0.163
    1UNL    H23   51  -0.571  -0.236  -0.212
    1UNL    H24   52  -0.351  -0.278  -0.141
   0.00000   0.00000   0.00000   0.00000   0.00000   0.00000   0.00000   0.00000   0.00000
Generated with MDTraj, t= 55.0
 52
    1UNL     C1    1   0.600   0.132  -0.112
    1UNL     O1    2   0.468   0.087  -0.127
    1UNL     C2    3   0.427   0.035  -0.008
    1UNL     O2    4   0.495   0.033   0.097
    1UNL     N1    5   0.309  -0.029  -0.016
    1UNL     C3    6   0.238  -0.021  -0.134
    1UNL     C4    7   0.101   0.058  -0.114
    1UNL     C5    8   0.085   0.074   0.042
    1UNL     C6    9  -0.057   0.126   0.096
    1UNL     C7   10  -0.062   0.284   0.104
    1UNL     O3   11  -0.055   0.339  -0.023
    1UNL     C8   12  -0.047   0.067   0.245
    1UNL     O4   13  -0.121   0.112   0.325
    1UNL     O5   14   0.055  -0.022   0.256
    1UNL     C9   15   0.096  -0.061   0.119
    1UNL    C10   16   0.252  -0.095   0.110
    1UNL    C11   17   0.002  -0.187   0.077
    1UNL    C12   18   0.090  -0.317   0.056
    1UNL    C13   19  -0.092  -0.172  -0.046
    1UNL    C14   20  -0.187  -0.062  -0.032
    1UNL    C15   21  -0.174   0.070   0.014
    1UNL     N2   22  -0.292   0.137  -0.004
    1UNL    C16   23  -0.383   0.048  -0.050
    1UNL    C17   24  -0.522   0.061  -0.056
    1UNL    C18   25  -0.591  -0.042  -0.121
    1UNL    C19   26  -0.531  -0.155  -0.177
    1UNL    C20   27  -0.396  -0.174  -0.149
    1UNL    C21   28  -0.322  -0.073  -0.080
    1UNL     H1   29   0.595   0.201  -0.025
    1UNL     H2   30   0.654   0.200  -0.183
    1UNL     H3   31   0.675   0.051  -0.089
    1UNL     H4   32   0.214  -0.126  -0.157
    1UNL     H5   33   0.295   0.020  -0.221
    1UNL     H6   34   0.111   0.151  -0.162
    1UNL     H7   35   0.019   0.018  -0.169
    1UNL     H8   36   0.155   0.152   0.079
    1UNL     H9   37  -0.154   0.313   0.160
    1UNL    H10   38   0.020   0.333   0.164
    1UNL    H11   39  -0.065   0.442  -0.021
    1UNL    H12   40   0.306  -0.045   0.192
    1UNL    H13   41   0.294  -0.203   0.113
    1UNL    H14   42  -0.070  -0.199   0.159
    1UNL    H15   43   0.138  -0.324  -0.041
    1UNL    H16   44   0.021  -0.402   0.055
    1UNL    H17   45   0.156  -0.318   0.139
    1UNL    H18   46  -0.147  -0.263  -0.056
    1UNL    H19   47  -0.030  -0.161  -0.133
    1UNL    H20   48  -0.322   0.232   0.034
    1UNL    H21   49  -0.571   0.150  -0.036
    1UNL    H22   50  -0.699  -0.021  -0.127
    1UNL    H23   51  -0.606  -0.236  -0.199
    1UNL    H24   52  -0.351  -0.269  -0.166
   0.00000   0.00000   0.00000   0.00000   0.00000   0.00000   0.00000   0.00000   0.00000
Generated with MDTraj, t= 56.0
 52
    1UNL     C1    1   0.599   0.158  -0.106
    1UNL     O1    2   0.480   0.099  -0.117
    1UNL     C2    3   0.441   0.027  -0.009
    1UNL     O2    4   0.523   0.006   0.081
    1UNL     N1    5   0.319  -0.034  -0.014
    1UNL     C3    6   0.240  -0.021  -0.137
    1UNL     C4    7   0.100   0.057  -0.123
    1UNL     C5    8   0.074   0.073   0.028
    1UNL     C6    9  -0.056   0.125   0.102
    1UNL     C7   10  -0.063   0.279   0.094
    1UNL     O3   11  -0.061   0.330  -0.037
    1UNL     C8   12  -0.049   0.069   0.242
    1UNL     O4   13  -0.128   0.099   0.325
    1UNL     O5   14   0.052  -0.031   0.246
    1UNL     C9   15   0.097  -0.059   0.113
    1UNL    C10   16   0.255  -0.081   0.115
    1UNL    C11   17   0.007  -0.191   0.083
    1UNL    C12   18   0.101  -0.310   0.057
    1UNL    C13   19  -0.093  -0.171  -0.038
    1UNL    C14   20  -0.198  -0.065  -0.017
    1UNL    C15   21  -0.181   0.061   0.038
    1UNL     N2   22  -0.302   0.133   0.023
    1UNL    C16   23  -0.395   0.057  -0.050
    1UNL    C17   24  -0.527   0.075  -0.087
    1UNL    C18   25  -0.588  -0.024  -0.160
    1UNL    C19   26  -0.532  -0.154  -0.170
    1UNL    C20   27  -0.411  -0.179  -0.112
    1UNL    C21   28  -0.333  -0.073  -0.055
    1UNL     H1   29   0.632   0.165  -0.001
    1UNL     H2   30   0.599   0.267  -0.127
    1UNL     H3   31   0.682   0.107  -0.166
    1UNL     H4   32   0.227  -0.123  -0.176
    1UNL     H5   33   0.298   0.030  -0.217
    1UNL     H6   34   0.105   0.149  -0.175
    1UNL     H7   35   0.025   0.004  -0.179
    1UNL     H8   36   0.141   0.157   0.055
    1UNL     H9   37  -0.151   0.321   0.149
    1UNL    H10   38   0.035   0.318   0.134
    1UNL    H11   39  -0.037   0.422  -0.054
    1UNL    H12   40   0.306  -0.030   0.199
    1UNL    H13   41   0.280  -0.190   0.119
    1UNL    H14   42  -0.057  -0.210   0.171
    1UNL    H15   43   0.161  -0.307  -0.029
    1UNL    H16   44   0.044  -0.404   0.034
    1UNL    H17   45   0.167  -0.328   0.137
    1UNL    H18   46  -0.145  -0.266  -0.041
    1UNL    H19   47  -0.038  -0.150  -0.129
    1UNL    H20   48  -0.314   0.240   0.026
    1UNL    H21   49  -0.570   0.178  -0.083
    1UNL    H22   50  -0.683  -0.011  -0.203
    1UNL    H23   51  -0.590  -0.241  -0.196
    1UNL    H24   52  -0.357  -0.273  -0.136
   0.00000   0.00000   0.00000   0.00000   0.00000   0.00000   0.00000   0.00000   0.00000
Generated with MDTraj, t= 57.0
 52
    1UNL     C1    1   0.608   0.151  -0.090
    1UNL     O1    2   0.487   0.105  -0.115
    1UNL     C2    3   0.434   0.031  -0.012
    1UNL     O2    4   0.511   0.014   0.086
    1UNL     N1    5   0.307  -0.026  -0.027
    1UNL     C3    6   0.220  -0.006  -0.153
    1UNL     C4    7   0.091   0.068  -0.114
    1UNL     C5    8   0.069   0.068   0.037
    1UNL     C6    9  -0.063   0.115   0.100
    1UNL     C7   10  -0.060   0.264   0.093
    1UNL     O3   11  -0.080   0.324  -0.038
    1UNL     C8   12  -0.040   0.068   0.248
    1UNL     O4   13  -0.098   0.111   0.345
    1UNL     O5   14   0.056  -0.028   0.246
    1UNL     C9   15   0.102  -0.064   0.110
    1UNL    C10   16   0.256  -0.091   0.089
    1UNL    C11   17   0.013  -0.195   0.087
    1UNL    C12   18   0.092  -0.318   0.073
    1UNL    C13   19  -0.101  -0.180  -0.025
    1UNL    C14   20  -0.201  -0.069  -0.013
    1UNL    C15   21  -0.187   0.063   0.039
    1UNL     N2   22  -0.299   0.140   0.011
    1UNL    C16   23  -0.376   0.056  -0.069
    1UNL    C17   24  -0.514   0.082  -0.102
    1UNL    C18   25  -0.587  -0.022  -0.159
    1UNL    C19   26  -0.530  -0.152  -0.158
    1UNL    C20   27  -0.404  -0.183  -0.122
    1UNL    C21   28  -0.330  -0.074  -0.067
    1UNL     H1   29   0.604   0.208   0.001
    1UNL     H2   30   0.641   0.229  -0.158
    1UNL     H3   31   0.681   0.067  -0.087
    1UNL     H4   32   0.207  -0.091  -0.221
    1UNL     H5   33   0.286   0.065  -0.207
    1UNL     H6   34   0.097   0.164  -0.158
    1UNL     H7   35   0.004   0.025  -0.164
    1UNL     H8   36   0.147   0.140   0.069
    1UNL     H9   37  -0.141   0.298   0.163
    1UNL    H10   38   0.043   0.291   0.127
    1UNL    H11   39  -0.056   0.417  -0.036
    1UNL    H12   40   0.306  -0.037   0.175
    1UNL    H13   41   0.282  -0.196   0.096
    1UNL    H14   42  -0.045  -0.209   0.180
    1UNL    H15   43   0.156  -0.331  -0.007
    1UNL    H16   44   0.022  -0.405   0.058
    1UNL    H17   45   0.155  -0.337   0.158
    1UNL    H18   46  -0.159  -0.270  -0.033
    1UNL    H19   47  -0.044  -0.159  -0.116
    1UNL    H20   48  -0.317   0.243   0.034
    1UNL    H21   49  -0.558   0.177  -0.093
    1UNL    H22   50  -0.692  -0.012  -0.193
    1UNL    H23   51  -0.592  -0.233  -0.187
    1UNL    H24   52  -0.364  -0.279  -0.132
   0.00000   0.00000   0.00000   0.00000   0.00000   0.00000   0.00000   0.00000   0.00000
Generated with MDTraj, t= 58.0
 52
    1UNL     C1    1   0.612   0.145  -0.104
    1UNL     O1    2   0.483   0.100  -0.120
    1UNL     C2    3   0.429   0.035  -0.009
    1UNL     O2    4   0.495   0.040   0.095
    1UNL     N1    5   0.311  -0.036  -0.025
    1UNL     C3    6   0.230  -0.007  -0.155
    1UNL     C4    7   0.098   0.061  -0.116
    1UNL     C5    8   0.073   0.066   0.027
    1UNL     C6    9  -0.059   0.118   0.097
    1UNL     C7   10  -0.062   0.280   0.111
    1UNL     O3   11  -0.100   0.337  -0.016
    1UNL     C8   12  -0.027   0.069   0.240
    1UNL     O4   13  -0.094   0.112   0.335
    1UNL     O5   14   0.078  -0.023   0.240
    1UNL     C9   15   0.099  -0.068   0.104
    1UNL    C10   16   0.250  -0.107   0.086
    1UNL    C11   17  -0.000  -0.189   0.094
    1UNL    C12   18   0.066  -0.329   0.100
    1UNL    C13   19  -0.093  -0.185  -0.026
    1UNL    C14   20  -0.195  -0.069  -0.013
    1UNL    C15   21  -0.182   0.061   0.034
    1UNL     N2   22  -0.292   0.130  -0.000
    1UNL    C16   23  -0.389   0.049  -0.050
    1UNL    C17   24  -0.518   0.077  -0.091
    1UNL    C18   25  -0.587  -0.027  -0.151
    1UNL    C19   26  -0.523  -0.145  -0.185
    1UNL    C20   27  -0.394  -0.170  -0.146
    1UNL    C21   28  -0.327  -0.076  -0.066
    1UNL     H1   29   0.608   0.244  -0.069
    1UNL     H2   30   0.666   0.159  -0.196
    1UNL     H3   31   0.667   0.082  -0.034
    1UNL     H4   32   0.219  -0.107  -0.197
    1UNL     H5   33   0.300   0.045  -0.222
    1UNL     H6   34   0.104   0.164  -0.145
    1UNL     H7   35   0.005   0.042  -0.175
    1UNL     H8   36   0.161   0.126   0.059
    1UNL     H9   37  -0.136   0.303   0.192
    1UNL    H10   38   0.037   0.314   0.143
    1UNL    H11   39  -0.076   0.436  -0.001
    1UNL    H12   40   0.304  -0.087   0.184
    1UNL    H13   41   0.261  -0.211   0.073
    1UNL    H14   42  -0.064  -0.191   0.185
    1UNL    H15   43   0.123  -0.351   0.015
    1UNL    H16   44  -0.003  -0.416   0.111
    1UNL    H17   45   0.137  -0.321   0.180
    1UNL    H18   46  -0.153  -0.275  -0.026
    1UNL    H19   47  -0.044  -0.183  -0.125
    1UNL    H20   48  -0.307   0.228   0.039
    1UNL    H21   49  -0.557   0.180  -0.079
    1UNL    H22   50  -0.681  -0.005  -0.196
    1UNL    H23   51  -0.584  -0.225  -0.238
    1UNL    H24   52  -0.354  -0.274  -0.148
   0.00000   0.00000   0.00000   0.00000   0.00000   0.00000   0.00000   0.00000   0.00000
Generated with MDTraj, t= 59.0
 52
    1UNL     C1    1   0.598   0.159  -0.108
    1UNL     O1    2   0.486   0.083  -0.139
    1UNL     C2    3   0.432   0.027  -0.024
    1UNL     O2    4   0.491   0.037   0.085
    1UNL     N1    5   0.304  -0.034  -0.025
    1UNL     C3    6   0.222  -0.028  -0.151
    1UNL     C4    7   0.090   0.060  -0.115
    1UNL     C5    8   0.073   0.075   0.033
    1UNL     C6    9  -0.051   0.122   0.106
    1UNL     C7   10  -0.070   0.279   0.105
    1UNL     O3   11  -0.085   0.311  -0.029
    1UNL     C8   12  -0.038   0.063   0.247
    1UNL     O4   13  -0.114   0.089   0.343
    1UNL     O5   14   0.075  -0.015   0.256
    1UNL     C9   15   0.102  -0.057   0.116
    1UNL    C10   16   0.248  -0.092   0.093
    1UNL    C11   17   0.001  -0.177   0.092
    1UNL    C12   18   0.057  -0.319   0.115
    1UNL    C13   19  -0.075  -0.169  -0.038
    1UNL    C14   20  -0.181  -0.060  -0.030
    1UNL    C15   21  -0.169   0.058   0.034
    1UNL     N2   22  -0.289   0.120   0.040
    1UNL    C16   23  -0.386   0.052  -0.039
    1UNL    C17   24  -0.513   0.080  -0.086
    1UNL    C18   25  -0.577  -0.023  -0.151
    1UNL    C19   26  -0.522  -0.144  -0.198
    1UNL    C20   27  -0.390  -0.164  -0.164
    1UNL    C21   28  -0.321  -0.068  -0.082
    1UNL     H1   29   0.578   0.224  -0.026
    1UNL     H2   30   0.633   0.222  -0.188
    1UNL     H3   31   0.676   0.092  -0.066
    1UNL     H4   32   0.196  -0.134  -0.158
    1UNL     H5   33   0.294   0.003  -0.228
    1UNL     H6   34   0.094   0.159  -0.156
    1UNL     H7   35  -0.002   0.023  -0.163
    1UNL     H8   36   0.156   0.142   0.055
    1UNL     H9   37  -0.157   0.310   0.163
    1UNL    H10   38   0.020   0.315   0.148
    1UNL    H11   39  -0.135   0.397  -0.038
    1UNL    H12   40   0.299  -0.061   0.190
    1UNL    H13   41   0.261  -0.196   0.096
    1UNL    H14   42  -0.075  -0.170   0.173
    1UNL    H15   43   0.132  -0.349   0.041
    1UNL    H16   44  -0.021  -0.391   0.107
    1UNL    H17   45   0.107  -0.320   0.210
    1UNL    H18   46  -0.128  -0.262  -0.060
    1UNL    H19   47  -0.004  -0.164  -0.123
    1UNL    H20   48  -0.300   0.225   0.058
    1UNL    H21   49  -0.558   0.176  -0.064
    1UNL    H22   50  -0.673   0.008  -0.195
    1UNL    H23   51  -0.574  -0.218  -0.245
    1UNL    H24   52  -0.353  -0.262  -0.159
   0.00000   0.00000   0.00000   0.00000   0.00000   0.00000   0.00000   0.00000   0.00000
Generated with MDTraj, t= 60.0
 52
    1UNL     C1    1   0.575   0.148  -0.142
    1UNL     O1    2   0.451   0.107  -0.134
    1UNL     C2    3   0.431   0.034  -0.022
    1UNL     O2    4   0.505   0.014   0.077
    1UNL     N1    5   0.299  -0.022  -0.011
    1UNL     C3    6   0.223  -0.027  -0.133
    1UNL     C4    7   0.095   0.054  -0.111
    1UNL     C5    8   0.076   0.064   0.041
    1UNL     C6    9  -0.053   0.120   0.104
    1UNL     C7   10  -0.050   0.276   0.107
    1UNL     O3   11  -0.047   0.327  -0.021
    1UNL     C8   12  -0.040   0.072   0.257
    1UNL     O4   13  -0.108   0.126   0.347
    1UNL     O5   14   0.053  -0.026   0.264
    1UNL     C9   15   0.101  -0.065   0.124
    1UNL    C10   16   0.250  -0.090   0.107
    1UNL    C11   17   0.009  -0.184   0.088
    1UNL    C12   18   0.066  -0.324   0.091
    1UNL    C13   19  -0.085  -0.164  -0.032
    1UNL    C14   20  -0.185  -0.056  -0.026
    1UNL    C15   21  -0.176   0.067   0.041
    1UNL     N2   22  -0.305   0.122   0.023
    1UNL    C16   23  -0.389   0.039  -0.043
    1UNL    C17   24  -0.525   0.059  -0.079
    1UNL    C18   25  -0.583  -0.031  -0.165
    1UNL    C19   26  -0.504  -0.141  -0.200
    1UNL    C20   27  -0.372  -0.165  -0.173
    1UNL    C21   28  -0.318  -0.074  -0.082
    1UNL     H1   29   0.606   0.202  -0.051
    1UNL     H2   30   0.580   0.211  -0.232
    1UNL     H3   31   0.641   0.054  -0.142
    1UNL     H4   32   0.193  -0.133  -0.134
    1UNL     H5   33   0.288   0.021  -0.209
    1UNL     H6   34   0.110   0.151  -0.154
    1UNL     H7   35   0.008   0.000  -0.151
    1UNL     H8   36   0.155   0.134   0.068
    1UNL     H9   37  -0.143   0.293   0.161
    1UNL    H10   38   0.037   0.308   0.156
    1UNL    H11   39  -0.059   0.419  -0.034
    1UNL    H12   40   0.301  -0.047   0.197
    1UNL    H13   41   0.271  -0.196   0.122
    1UNL    H14   42  -0.056  -0.188   0.177
    1UNL    H15   43   0.138  -0.346   0.008
    1UNL    H16   44  -0.010  -0.391   0.071
    1UNL    H17   45   0.116  -0.360   0.179
    1UNL    H18   46  -0.142  -0.258  -0.037
    1UNL    H19   47  -0.036  -0.177  -0.130
    1UNL    H20   48  -0.338   0.215   0.057
    1UNL    H21   49  -0.567   0.153  -0.059
    1UNL    H22   50  -0.677  -0.010  -0.210
    1UNL    H23   51  -0.551  -0.212  -0.276
    1UNL    H24   52  -0.316  -0.248  -0.217
   0.00000   0.00000   0.00000   0.00000   0.00000   0.00000   0.00000   0.00000   0.00000
Generated with MDTraj, t= 61.0
 52
    1UNL     C1    1   0.581   0.153  -0.124
    1UNL     O1    2   0.461   0.089  -0.144
    1UNL     C2    3   0.427   0.018  -0.033
    1UNL     O2    4   0.490   0.012   0.075
    1UNL     N1    5   0.298  -0.040  -0.027
    1UNL     C3    6   0.212  -0.016  -0.140
    1UNL     C4    7   0.103   0.077  -0.101
    1UNL     C5    8   0.075   0.075   0.051
    1UNL     C6    9  -0.055   0.118   0.110
    1UNL     C7   10  -0.064   0.271   0.108
    1UNL     O3   11  -0.032   0.324  -0.022
    1UNL     C8   12  -0.042   0.076   0.254
    1UNL     O4   13  -0.110   0.112   0.348
    1UNL     O5   14   0.055  -0.018   0.264
    1UNL     C9   15   0.100  -0.055   0.131
    1UNL    C10   16   0.253  -0.082   0.104
    1UNL    C11   17   0.015  -0.183   0.092
    1UNL    C12   18   0.093  -0.315   0.078
    1UNL    C13   19  -0.083  -0.163  -0.022
    1UNL    C14   20  -0.196  -0.065  -0.008
    1UNL    C15   21  -0.179   0.061   0.040
    1UNL     N2   22  -0.302   0.127   0.022
    1UNL    C16   23  -0.387   0.047  -0.058
    1UNL    C17   24  -0.520   0.064  -0.099
    1UNL    C18   25  -0.580  -0.028  -0.175
    1UNL    C19   26  -0.516  -0.149  -0.206
    1UNL    C20   27  -0.390  -0.176  -0.149
    1UNL    C21   28  -0.326  -0.076  -0.070
    1UNL     H1   29   0.585   0.202  -0.025
    1UNL     H2   30   0.599   0.222  -0.210
    1UNL     H3   31   0.659   0.070  -0.113
    1UNL     H4   32   0.168  -0.115  -0.158
    1UNL     H5   33   0.269   0.033  -0.222
    1UNL     H6   34   0.131   0.179  -0.125
    1UNL     H7   35   0.014   0.048  -0.159
    1UNL     H8   36   0.141   0.154   0.088
    1UNL     H9   37  -0.164   0.299   0.141
    1UNL    H10   38   0.004   0.301   0.183
    1UNL    H11   39  -0.039   0.421  -0.023
    1UNL    H12   40   0.311  -0.033   0.186
    1UNL    H13   41   0.295  -0.185   0.122
    1UNL    H14   42  -0.040  -0.203   0.184
    1UNL    H15   43   0.170  -0.319  -0.004
    1UNL    H16   44   0.031  -0.397   0.062
    1UNL    H17   45   0.146  -0.337   0.169
    1UNL    H18   46  -0.126  -0.263  -0.039
    1UNL    H19   47  -0.030  -0.148  -0.116
    1UNL    H20   48  -0.329   0.218   0.058
    1UNL    H21   49  -0.570   0.161  -0.074
    1UNL    H22   50  -0.684  -0.031  -0.207
    1UNL    H23   51  -0.567  -0.231  -0.252
    1UNL    H24   52  -0.326  -0.251  -0.195
   0.00000   0.00000   0.00000   0.00000   0.00000   0.00000   0.00000   0.00000   0.00000
Generated with MDTraj, t= 62.0
 52
    1UNL     C1    1   0.611   0.145  -0.134
    1UNL     O1    2   0.481   0.085  -0.141
    1UNL     C2    3   0.439   0.029  -0.023
    1UNL     O2    4   0.506   0.029   0.081
    1UNL     N1    5   0.310  -0.021  -0.019
    1UNL     C3    6   0.228  -0.024  -0.142
    1UNL     C4    7   0.090   0.055  -0.118
    1UNL     C5    8   0.062   0.065   0.037
    1UNL     C6    9  -0.060   0.123   0.109
    1UNL     C7   10  -0.070   0.281   0.115
    1UNL     O3   11  -0.085   0.339  -0.009
    1UNL     C8   12  -0.041   0.062   0.244
    1UNL     O4   13  -0.123   0.088   0.324
    1UNL     O5   14   0.058  -0.029   0.255
    1UNL     C9   15   0.096  -0.061   0.125
    1UNL    C10   16   0.254  -0.073   0.105
    1UNL    C11   17   0.008  -0.194   0.096
    1UNL    C12   18   0.083  -0.326   0.084
    1UNL    C13   19  -0.093  -0.179  -0.022
    1UNL    C14   20  -0.190  -0.061  -0.015
    1UNL    C15   21  -0.180   0.062   0.045
    1UNL     N2   22  -0.297   0.137   0.016
    1UNL    C16   23  -0.382   0.067  -0.060
    1UNL    C17   24  -0.515   0.082  -0.109
    1UNL    C18   25  -0.575  -0.026  -0.167
    1UNL    C19   26  -0.516  -0.155  -0.180
    1UNL    C20   27  -0.392  -0.173  -0.129
    1UNL    C21   28  -0.322  -0.064  -0.074
    1UNL     H1   29   0.604   0.243  -0.091
    1UNL     H2   30   0.655   0.143  -0.234
    1UNL     H3   31   0.677   0.086  -0.062
    1UNL     H4   32   0.218  -0.128  -0.170
    1UNL     H5   33   0.280   0.022  -0.228
    1UNL     H6   34   0.103   0.161  -0.145
    1UNL     H7   35   0.003   0.039  -0.183
    1UNL     H8   36   0.144   0.127   0.072
    1UNL     H9   37  -0.149   0.308   0.190
    1UNL    H10   38   0.021   0.320   0.157
    1UNL    H11   39  -0.086   0.441   0.010
    1UNL    H12   40   0.315  -0.030   0.185
    1UNL    H13   41   0.282  -0.184   0.105
    1UNL    H14   42  -0.052  -0.199   0.188
    1UNL    H15   43   0.146  -0.324  -0.006
    1UNL    H16   44   0.012  -0.406   0.088
    1UNL    H17   45   0.150  -0.332   0.169
    1UNL    H18   46  -0.155  -0.271  -0.030
    1UNL    H19   47  -0.039  -0.184  -0.116
    1UNL    H20   48  -0.309   0.230   0.042
    1UNL    H21   49  -0.565   0.174  -0.106
    1UNL    H22   50  -0.680  -0.014  -0.186
    1UNL    H23   51  -0.573  -0.245  -0.205
    1UNL    H24   52  -0.346  -0.267  -0.141
   0.00000   0.00000   0.00000   0.00000   0.00000   0.00000   0.00000   0.00000   0.00000
Generated with MDTraj, t= 63.0
 52
    1UNL     C1    1   0.623   0.119  -0.127
    1UNL     O1    2   0.489   0.081  -0.134
    1UNL     C2    3   0.440   0.034  -0.016
    1UNL     O2    4   0.499   0.038   0.093
    1UNL     N1    5   0.308  -0.014  -0.017
    1UNL     C3    6   0.222  -0.015  -0.139
    1UNL     C4    7   0.091   0.064  -0.117
    1UNL     C5    8   0.073   0.072   0.034
    1UNL     C6    9  -0.059   0.117   0.097
    1UNL     C7   10  -0.077   0.273   0.107
    1UNL     O3   11  -0.122   0.340   0.001
    1UNL     C8   12  -0.040   0.060   0.238
    1UNL     O4   13  -0.107   0.083   0.331
    1UNL     O5   14   0.070  -0.020   0.244
    1UNL     C9   15   0.107  -0.057   0.111
    1UNL    C10   16   0.256  -0.083   0.107
    1UNL    C11   17   0.012  -0.188   0.090
    1UNL    C12   18   0.092  -0.320   0.096
    1UNL    C13   19  -0.089  -0.175  -0.028
    1UNL    C14   20  -0.195  -0.073  -0.022
    1UNL    C15   21  -0.182   0.057   0.028
    1UNL     N2   22  -0.292   0.134   0.007
    1UNL    C16   23  -0.378   0.053  -0.058
    1UNL    C17   24  -0.511   0.084  -0.099
    1UNL    C18   25  -0.581  -0.013  -0.161
    1UNL    C19   26  -0.533  -0.143  -0.169
    1UNL    C20   27  -0.402  -0.176  -0.131
    1UNL    C21   28  -0.324  -0.075  -0.082
    1UNL     H1   29   0.633   0.198  -0.057
    1UNL     H2   30   0.648   0.137  -0.229
    1UNL     H3   31   0.682   0.034  -0.090
    1UNL     H4   32   0.208  -0.111  -0.189
    1UNL     H5   33   0.287   0.029  -0.217
    1UNL     H6   34   0.107   0.169  -0.149
    1UNL     H7   35   0.001   0.048  -0.176
    1UNL     H8   36   0.154   0.132   0.078
    1UNL     H9   37  -0.165   0.288   0.180
    1UNL    H10   38   0.009   0.325   0.151
    1UNL    H11   39  -0.104   0.439   0.012
    1UNL    H12   40   0.303  -0.035   0.194
    1UNL    H13   41   0.287  -0.192   0.108
    1UNL    H14   42  -0.052  -0.186   0.179
    1UNL    H15   43   0.149  -0.330   0.007
    1UNL    H16   44   0.012  -0.395   0.105
    1UNL    H17   45   0.157  -0.330   0.182
    1UNL    H18   46  -0.135  -0.277  -0.039
    1UNL    H19   47  -0.046  -0.156  -0.127
    1UNL    H20   48  -0.306   0.235   0.012
    1UNL    H21   49  -0.552   0.186  -0.082
    1UNL    H22   50  -0.681   0.007  -0.197
    1UNL    H23   51  -0.602  -0.222  -0.207
    1UNL    H24   52  -0.376  -0.281  -0.099
   0.00000   0.00000   0.00000   0.00000   0.00000   0.00000   0.00000   0.00000   0.00000
Generated with MDTraj, t= 64.0
 52
    1UNL     C1    1   0.631   0.122  -0.112
    1UNL     O1    2   0.495   0.080  -0.134
    1UNL     C2    3   0.441   0.020  -0.021
    1UNL     O2    4   0.504   0.013   0.085
    1UNL     N1    5   0.304  -0.020  -0.026
    1UNL     C3    6   0.207   0.003  -0.140
    1UNL     C4    7   0.091   0.083  -0.105
    1UNL     C5    8   0.073   0.077   0.047
    1UNL     C6    9  -0.063   0.118   0.111
    1UNL     C7   10  -0.065   0.271   0.104
    1UNL     O3   11  -0.084   0.334  -0.026
    1UNL     C8   12  -0.040   0.065   0.255
    1UNL     O4   13  -0.108   0.106   0.340
    1UNL     O5   14   0.070  -0.019   0.255
    1UNL     C9   15   0.102  -0.059   0.117
    1UNL    C10   16   0.251  -0.082   0.099
    1UNL    C11   17   0.008  -0.181   0.089
    1UNL    C12   18   0.080  -0.316   0.064
    1UNL    C13   19  -0.088  -0.163  -0.028
    1UNL    C14   20  -0.191  -0.058  -0.019
    1UNL    C15   21  -0.186   0.068   0.032
    1UNL     N2   22  -0.307   0.133   0.010
    1UNL    C16   23  -0.397   0.046  -0.046
    1UNL    C17   24  -0.534   0.064  -0.089
    1UNL    C18   25  -0.593  -0.043  -0.157
    1UNL    C19   26  -0.517  -0.155  -0.190
    1UNL    C20   27  -0.388  -0.178  -0.139
    1UNL    C21   28  -0.323  -0.077  -0.068
    1UNL     H1   29   0.631   0.172  -0.018
    1UNL     H2   30   0.660   0.179  -0.197
    1UNL     H3   31   0.699   0.036  -0.106
    1UNL     H4   32   0.183  -0.087  -0.199
    1UNL     H5   33   0.258   0.049  -0.228
    1UNL     H6   34   0.107   0.185  -0.140
    1UNL     H7   35   0.002   0.044  -0.154
    1UNL     H8   36   0.147   0.145   0.090
    1UNL     H9   37  -0.146   0.324   0.166
    1UNL    H10   38   0.030   0.313   0.143
    1UNL    H11   39  -0.055   0.423  -0.036
    1UNL    H12   40   0.307  -0.037   0.184
    1UNL    H13   41   0.280  -0.187   0.084
    1UNL    H14   42  -0.047  -0.179   0.186
    1UNL    H15   43   0.141  -0.320  -0.020
    1UNL    H16   44   0.010  -0.404   0.074
    1UNL    H17   45   0.149  -0.333   0.145
    1UNL    H18   46  -0.149  -0.256  -0.046
    1UNL    H19   47  -0.025  -0.138  -0.114
    1UNL    H20   48  -0.317   0.233   0.015
    1UNL    H21   49  -0.585   0.153  -0.060
    1UNL    H22   50  -0.681  -0.023  -0.219
    1UNL    H23   51  -0.546  -0.221  -0.264
    1UNL    H24   52  -0.349  -0.273  -0.154
   0.00000   0.00000   0.00000   0.00000   0.00000   0.00000   0.00000   0.00000   0.00000
Generated with MDTraj, t= 65.0
 52
    1UNL     C1    1   0.626   0.118  -0.126
    1UNL     O1    2   0.483   0.101  -0.122
    1UNL     C2    3   0.438   0.022  -0.020
    1UNL     O2    4   0.508  -0.014   0.071
    1UNL     N1    5   0.306  -0.014  -0.012
    1UNL     C3    6   0.223  -0.004  -0.131
    1UNL     C4    7   0.082   0.070  -0.108
    1UNL     C5    8   0.070   0.077   0.048
    1UNL     C6    9  -0.067   0.125   0.110
    1UNL     C7   10  -0.073   0.280   0.106
    1UNL     O3   11  -0.041   0.331  -0.029
    1UNL     C8   12  -0.050   0.080   0.253
    1UNL     O4   13  -0.118   0.136   0.331
    1UNL     O5   14   0.051  -0.017   0.260
    1UNL     C9   15   0.096  -0.055   0.118
    1UNL    C10   16   0.247  -0.079   0.111
    1UNL    C11   17   0.003  -0.185   0.078
    1UNL    C12   18   0.088  -0.314   0.067
    1UNL    C13   19  -0.078  -0.160  -0.056
    1UNL    C14   20  -0.183  -0.057  -0.039
    1UNL    C15   21  -0.179   0.064   0.028
    1UNL     N2   22  -0.307   0.111   0.047
    1UNL    C16   23  -0.395   0.033  -0.029
    1UNL    C17   24  -0.533   0.054  -0.065
    1UNL    C18   25  -0.588  -0.040  -0.152
    1UNL    C19   26  -0.521  -0.161  -0.193
    1UNL    C20   27  -0.391  -0.170  -0.161
    1UNL    C21   28  -0.322  -0.074  -0.085
    1UNL     H1   29   0.655   0.197  -0.056
    1UNL     H2   30   0.643   0.137  -0.232
    1UNL     H3   31   0.680   0.020  -0.107
    1UNL     H4   32   0.207  -0.105  -0.169
    1UNL     H5   33   0.277   0.037  -0.218
    1UNL     H6   34   0.088   0.173  -0.145
    1UNL     H7   35   0.000   0.014  -0.148
    1UNL     H8   36   0.134   0.160   0.083
    1UNL     H9   37  -0.174   0.325   0.134
    1UNL    H10   38  -0.007   0.335   0.176
    1UNL    H11   39  -0.030   0.427  -0.034
    1UNL    H12   40   0.285  -0.017   0.198
    1UNL    H13   41   0.286  -0.179   0.115
    1UNL    H14   42  -0.069  -0.189   0.163
    1UNL    H15   43   0.155  -0.310  -0.014
    1UNL    H16   44   0.023  -0.407   0.061
    1UNL    H17   45   0.150  -0.341   0.149
    1UNL    H18   46  -0.123  -0.262  -0.066
    1UNL    H19   47  -0.010  -0.134  -0.138
    1UNL    H20   48  -0.334   0.172   0.118
    1UNL    H21   49  -0.599   0.130  -0.027
    1UNL    H22   50  -0.685  -0.020  -0.192
    1UNL    H23   51  -0.574  -0.230  -0.265
    1UNL    H24   52  -0.333  -0.252  -0.205
   0.00000   0.00000   0.00000   0.00000   0.00000   0.00000   0.00000   0.00000   0.00000
Generated with MDTraj, t= 66.0
 52
    1UNL     C1    1   0.622   0.128  -0.122
    1UNL     O1    2   0.492   0.058  -0.131
    1UNL     C2    3   0.441   0.008  -0.013
    1UNL     O2    4   0.502  -0.001   0.090
    1UNL     N1    5   0.311  -0.025  -0.017
    1UNL     C3    6   0.233  -0.001  -0.135
    1UNL     C4    7   0.102   0.081  -0.113
    1UNL     C5    8   0.079   0.086   0.041
    1UNL     C6    9  -0.065   0.128   0.100
    1UNL     C7   10  -0.076   0.282   0.099
    1UNL     O3   11  -0.056   0.328  -0.031
    1UNL     C8   12  -0.055   0.069   0.248
    1UNL     O4   13  -0.129   0.103   0.338
    1UNL     O5   14   0.056  -0.015   0.255
    1UNL     C9   15   0.106  -0.049   0.115
    1UNL    C10   16   0.256  -0.078   0.107
    1UNL    C11   17   0.013  -0.171   0.074
    1UNL    C12   18   0.081  -0.309   0.074
    1UNL    C13   19  -0.080  -0.153  -0.054
    1UNL    C14   20  -0.187  -0.048  -0.049
    1UNL    C15   21  -0.186   0.072   0.026
    1UNL     N2   22  -0.320   0.121   0.043
    1UNL    C16   23  -0.405   0.041  -0.032
    1UNL    C17   24  -0.540   0.044  -0.055
    1UNL    C18   25  -0.592  -0.049  -0.137
    1UNL    C19   26  -0.516  -0.158  -0.183
    1UNL    C20   27  -0.384  -0.167  -0.162
    1UNL    C21   28  -0.319  -0.061  -0.085
    1UNL     H1   29   0.630   0.178  -0.022
    1UNL     H2   30   0.628   0.197  -0.207
    1UNL     H3   31   0.700   0.048  -0.144
    1UNL     H4   32   0.224  -0.092  -0.195
    1UNL     H5   33   0.299   0.053  -0.207
    1UNL     H6   34   0.113   0.183  -0.152
    1UNL     H7   35   0.017   0.032  -0.158
    1UNL     H8   36   0.141   0.165   0.088
    1UNL     H9   37  -0.174   0.331   0.133
    1UNL    H10   38  -0.006   0.340   0.159
    1UNL    H11   39  -0.092   0.424  -0.045
    1UNL    H12   40   0.312  -0.023   0.188
    1UNL    H13   41   0.281  -0.180   0.114
    1UNL    H14   42  -0.057  -0.163   0.162
    1UNL    H15   43   0.155  -0.307  -0.008
    1UNL    H16   44   0.003  -0.388   0.068
    1UNL    H17   45   0.131  -0.328   0.165
    1UNL    H18   46  -0.138  -0.249  -0.063
    1UNL    H19   47  -0.004  -0.140  -0.134
    1UNL    H20   48  -0.349   0.200   0.093
    1UNL    H21   49  -0.591   0.127  -0.004
    1UNL    H22   50  -0.701  -0.069  -0.139
    1UNL    H23   51  -0.560  -0.236  -0.237
    1UNL    H24   52  -0.316  -0.234  -0.213
   0.00000   0.00000   0.00000   0.00000   0.00000   0.00000   0.00000   0.00000   0.00000
Generated with MDTraj, t= 67.0
 52
    1UNL     C1    1   0.633   0.092  -0.113
    1UNL     O1    2   0.489   0.078  -0.121
    1UNL     C2    3   0.435   0.024  -0.008
    1UNL     O2    4   0.493   0.024   0.096
    1UNL     N1    5   0.312  -0.029  -0.027
    1UNL     C3    6   0.229  -0.004  -0.149
    1UNL     C4    7   0.119   0.087  -0.109
    1UNL     C5    8   0.088   0.089   0.041
    1UNL     C6    9  -0.059   0.130   0.093
    1UNL     C7   10  -0.070   0.282   0.108
    1UNL     O3   11  -0.105   0.353  -0.009
    1UNL     C8   12  -0.049   0.065   0.235
    1UNL     O4   13  -0.122   0.106   0.327
    1UNL     O5   14   0.044  -0.033   0.242
    1UNL     C9   15   0.103  -0.055   0.111
    1UNL    C10   16   0.255  -0.085   0.104
    1UNL    C11   17   0.011  -0.185   0.070
    1UNL    C12   18   0.080  -0.321   0.077
    1UNL    C13   19  -0.073  -0.162  -0.058
    1UNL    C14   20  -0.179  -0.051  -0.042
    1UNL    C15   21  -0.177   0.076   0.017
    1UNL     N2   22  -0.301   0.142   0.008
    1UNL    C16   23  -0.393   0.044  -0.036
    1UNL    C17   24  -0.532   0.049  -0.060
    1UNL    C18   25  -0.600  -0.050  -0.126
    1UNL    C19   26  -0.523  -0.162  -0.167
    1UNL    C20   27  -0.391  -0.177  -0.139
    1UNL    C21   28  -0.317  -0.067  -0.078
    1UNL     H1   29   0.651   0.180  -0.050
    1UNL     H2   30   0.671   0.100  -0.215
    1UNL     H3   31   0.670  -0.007  -0.074
    1UNL     H4   32   0.200  -0.098  -0.201
    1UNL     H5   33   0.293   0.039  -0.230
    1UNL     H6   34   0.141   0.189  -0.141
    1UNL     H7   35   0.030   0.067  -0.167
    1UNL     H8   36   0.157   0.151   0.102
    1UNL     H9   37  -0.159   0.301   0.173
    1UNL    H10   38   0.006   0.341   0.155
    1UNL    H11   39  -0.136   0.449   0.007
    1UNL    H12   40   0.309  -0.035   0.189
    1UNL    H13   41   0.284  -0.187   0.121
    1UNL    H14   42  -0.073  -0.180   0.143
    1UNL    H15   43   0.157  -0.317  -0.004
    1UNL    H16   44   0.003  -0.397   0.074
    1UNL    H17   45   0.124  -0.322   0.174
    1UNL    H18   46  -0.111  -0.268  -0.073
    1UNL    H19   47  -0.002  -0.144  -0.138
    1UNL    H20   48  -0.320   0.239   0.020
    1UNL    H21   49  -0.592   0.125  -0.023
    1UNL    H22   50  -0.704  -0.042  -0.131
    1UNL    H23   51  -0.586  -0.245  -0.207
    1UNL    H24   52  -0.329  -0.255  -0.178
   0.00000   0.00000   0.00000   0.00000   0.00000   0.00000   0.00000   0.00000   0.00000
Generated with MDTraj, t= 68.0
 52
    1UNL     C1    1   0.645   0.111  -0.105
    1UNL     O1    2   0.508   0.069  -0.126
    1UNL     C2    3   0.451   0.029  -0.010
    1UNL     O2    4   0.512   0.016   0.091
    1UNL     N1    5   0.313   0.004  -0.010
    1UNL     C3    6   0.238   0.003  -0.141
    1UNL     C4    7   0.098   0.069  -0.115
    1UNL     C5    8   0.073   0.078   0.035
    1UNL     C6    9  -0.063   0.126   0.103
    1UNL     C7   10  -0.074   0.278   0.107
    1UNL     O3   11  -0.109   0.331  -0.022
    1UNL     C8   12  -0.044   0.060   0.238
    1UNL     O4   13  -0.120   0.093   0.332
    1UNL     O5   14   0.053  -0.033   0.243
    1UNL     C9   15   0.099  -0.058   0.115
    1UNL    C10   16   0.254  -0.074   0.111
    1UNL    C11   17   0.012  -0.191   0.071
    1UNL    C12   18   0.095  -0.315   0.055
    1UNL    C13   19  -0.088  -0.174  -0.050
    1UNL    C14   20  -0.196  -0.057  -0.031
    1UNL    C15   21  -0.182   0.072   0.023
    1UNL     N2   22  -0.303   0.143   0.004
    1UNL    C16   23  -0.396   0.059  -0.056
    1UNL    C17   24  -0.525   0.071  -0.088
    1UNL    C18   25  -0.601  -0.041  -0.128
    1UNL    C19   26  -0.540  -0.165  -0.144
    1UNL    C20   27  -0.404  -0.173  -0.124
    1UNL    C21   28  -0.327  -0.062  -0.085
    1UNL     H1   29   0.642   0.210  -0.063
    1UNL     H2   30   0.700   0.100  -0.195
    1UNL     H3   31   0.683   0.032  -0.038
    1UNL     H4   32   0.239  -0.096  -0.189
    1UNL     H5   33   0.304   0.064  -0.210
    1UNL     H6   34   0.100   0.171  -0.157
    1UNL     H7   35   0.015   0.021  -0.161
    1UNL     H8   36   0.157   0.138   0.079
    1UNL     H9   37  -0.137   0.323   0.186
    1UNL    H10   38   0.021   0.314   0.133
    1UNL    H11   39  -0.117   0.426  -0.022
    1UNL    H12   40   0.298  -0.043   0.208
    1UNL    H13   41   0.287  -0.179   0.106
    1UNL    H14   42  -0.057  -0.202   0.158
    1UNL    H15   43   0.154  -0.297  -0.041
    1UNL    H16   44   0.026  -0.393   0.054
    1UNL    H17   45   0.161  -0.327   0.140
    1UNL    H18   46  -0.150  -0.270  -0.061
    1UNL    H19   47  -0.026  -0.156  -0.138
    1UNL    H20   48  -0.335   0.221   0.060
    1UNL    H21   49  -0.575   0.171  -0.076
    1UNL    H22   50  -0.709  -0.023  -0.150
    1UNL    H23   51  -0.594  -0.247  -0.183
    1UNL    H24   52  -0.364  -0.276  -0.122
   0.00000   0.00000   0.00000   0.00000   0.00000   0.00000   0.00000   0.00000   0.00000
Generated with MDTraj, t= 69.0
 52
    1UNL     C1    1   0.631   0.119  -0.097
    1UNL     O1    2   0.498   0.080  -0.123
    1UNL     C2    3   0.453   0.024  -0.010
    1UNL     O2    4   0.508  -0.003   0.095
    1UNL     N1    5   0.309  -0.003  -0.012
    1UNL     C3    6   0.234   0.004  -0.143
    1UNL     C4    7   0.098   0.076  -0.121
    1UNL     C5    8   0.069   0.077   0.030
    1UNL     C6    9  -0.064   0.122   0.092
    1UNL     C7   10  -0.073   0.276   0.095
    1UNL     O3   11  -0.077   0.336  -0.034
    1UNL     C8   12  -0.047   0.065   0.235
    1UNL     O4   13  -0.131   0.099   0.324
    1UNL     O5   14   0.066  -0.015   0.248
    1UNL     C9   15   0.106  -0.051   0.116
    1UNL    C10   16   0.261  -0.074   0.104
    1UNL    C11   17   0.021  -0.181   0.076
    1UNL    C12   18   0.105  -0.297   0.026
    1UNL    C13   19  -0.094  -0.179  -0.028
    1UNL    C14   20  -0.211  -0.078  -0.004
    1UNL    C15   21  -0.190   0.060   0.026
    1UNL     N2   22  -0.306   0.125   0.028
    1UNL    C16   23  -0.398   0.039  -0.036
    1UNL    C17   24  -0.519   0.081  -0.092
    1UNL    C18   25  -0.590  -0.022  -0.156
    1UNL    C19   26  -0.537  -0.149  -0.165
    1UNL    C20   27  -0.414  -0.186  -0.112
    1UNL    C21   28  -0.341  -0.083  -0.055
    1UNL     H1   29   0.636   0.151   0.004
    1UNL     H2   30   0.668   0.191  -0.165
    1UNL     H3   31   0.679   0.021  -0.113
    1UNL     H4   32   0.221  -0.101  -0.174
    1UNL     H5   33   0.296   0.058  -0.218
    1UNL     H6   34   0.102   0.182  -0.152
    1UNL     H7   35   0.019   0.023  -0.174
    1UNL     H8   36   0.139   0.157   0.065
    1UNL     H9   37  -0.162   0.300   0.155
    1UNL    H10   38   0.001   0.322   0.157
    1UNL    H11   39  -0.069   0.430  -0.025
    1UNL    H12   40   0.316  -0.040   0.192
    1UNL    H13   41   0.287  -0.184   0.098
    1UNL    H14   42  -0.020  -0.207   0.175
    1UNL    H15   43   0.158  -0.282  -0.071
    1UNL    H16   44   0.054  -0.389   0.025
    1UNL    H17   45   0.185  -0.330   0.095
    1UNL    H18   46  -0.141  -0.283  -0.033
    1UNL    H19   47  -0.050  -0.153  -0.125
    1UNL    H20   48  -0.331   0.220   0.048
    1UNL    H21   49  -0.556   0.181  -0.081
    1UNL    H22   50  -0.678   0.005  -0.207
    1UNL    H23   51  -0.578  -0.216  -0.242
    1UNL    H24   52  -0.388  -0.287  -0.106
   0.00000   0.00000   0.00000   0.00000   0.00000   0.00000   0.00000   0.00000   0.00000
Generated with MDTraj, t= 70.0
 52
    1UNL     C1    1   0.618   0.122  -0.114
    1UNL     O1    2   0.483   0.101  -0.120
    1UNL     C2    3   0.445   0.034  -0.010
    1UNL     O2    4   0.514   0.006   0.083
    1UNL     N1    5   0.303  -0.011  -0.011
    1UNL     C3    6   0.222   0.005  -0.132
    1UNL     C4    7   0.090   0.071  -0.108
    1UNL     C5    8   0.068   0.069   0.042
    1UNL     C6    9  -0.058   0.120   0.097
    1UNL     C7   10  -0.066   0.271   0.099
    1UNL     O3   11  -0.064   0.325  -0.029
    1UNL     C8   12  -0.042   0.073   0.248
    1UNL     O4   13  -0.096   0.136   0.343
    1UNL     O5   14   0.052  -0.034   0.258
    1UNL     C9   15   0.092  -0.062   0.119
    1UNL    C10   16   0.249  -0.087   0.102
    1UNL    C11   17   0.002  -0.195   0.083
    1UNL    C12   18   0.088  -0.310   0.029
    1UNL    C13   19  -0.100  -0.174  -0.024
    1UNL    C14   20  -0.197  -0.061  -0.017
    1UNL    C15   21  -0.181   0.067   0.034
    1UNL     N2   22  -0.297   0.136   0.005
    1UNL    C16   23  -0.392   0.049  -0.048
    1UNL    C17   24  -0.528   0.064  -0.083
    1UNL    C18   25  -0.594  -0.041  -0.149
    1UNL    C19   26  -0.524  -0.162  -0.174
    1UNL    C20   27  -0.395  -0.179  -0.139
    1UNL    C21   28  -0.322  -0.070  -0.083
    1UNL     H1   29   0.645   0.173  -0.020
    1UNL     H2   30   0.646   0.180  -0.202
    1UNL     H3   31   0.657   0.016  -0.119
    1UNL     H4   32   0.207  -0.101  -0.157
    1UNL     H5   33   0.283   0.057  -0.209
    1UNL     H6   34   0.084   0.175  -0.143
    1UNL     H7   35   0.010   0.016  -0.159
    1UNL     H8   36   0.151   0.135   0.072
    1UNL     H9   37  -0.153   0.301   0.159
    1UNL    H10   38   0.017   0.305   0.158
    1UNL    H11   39  -0.035   0.422  -0.026
    1UNL    H12   40   0.290  -0.054   0.197
    1UNL    H13   41   0.275  -0.196   0.090
    1UNL    H14   42  -0.042  -0.221   0.180
    1UNL    H15   43   0.159  -0.292  -0.051
    1UNL    H16   44   0.036  -0.401   0.008
    1UNL    H17   45   0.159  -0.351   0.106
    1UNL    H18   46  -0.161  -0.273  -0.030
    1UNL    H19   47  -0.052  -0.184  -0.124
    1UNL    H20   48  -0.309   0.240   0.011
    1UNL    H21   49  -0.582   0.145  -0.040
    1UNL    H22   50  -0.698  -0.021  -0.180
    1UNL    H23   51  -0.577  -0.239  -0.227
    1UNL    H24   52  -0.340  -0.269  -0.178
   0.00000   0.00000   0.00000   0.00000   0.00000   0.00000   0.00000   0.00000   0.00000
Generated with MDTraj, t= 71.0
 52
    1UNL     C1    1   0.607   0.148  -0.107
    1UNL     O1    2   0.490   0.083  -0.140
    1UNL     C2    3   0.439   0.024  -0.024
    1UNL     O2    4   0.493   0.025   0.080
    1UNL     N1    5   0.306  -0.037  -0.024
    1UNL     C3    6   0.225  -0.024  -0.143
    1UNL     C4    7   0.104   0.073  -0.109
    1UNL     C5    8   0.072   0.080   0.042
    1UNL     C6    9  -0.058   0.125   0.100
    1UNL     C7   10  -0.067   0.274   0.108
    1UNL     O3   11  -0.068   0.321  -0.028
    1UNL     C8   12  -0.044   0.065   0.246
    1UNL     O4   13  -0.115   0.102   0.336
    1UNL     O5   14   0.056  -0.029   0.251
    1UNL     C9   15   0.093  -0.061   0.115
    1UNL    C10   16   0.245  -0.084   0.098
    1UNL    C11   17  -0.005  -0.176   0.080
    1UNL    C12   18   0.073  -0.310   0.101
    1UNL    C13   19  -0.078  -0.158  -0.057
    1UNL    C14   20  -0.184  -0.049  -0.041
    1UNL    C15   21  -0.176   0.061   0.036
    1UNL     N2   22  -0.300   0.119   0.036
    1UNL    C16   23  -0.392   0.041  -0.032
    1UNL    C17   24  -0.521   0.066  -0.076
    1UNL    C18   25  -0.578  -0.021  -0.156
    1UNL    C19   26  -0.519  -0.150  -0.185
    1UNL    C20   27  -0.391  -0.177  -0.141
    1UNL    C21   28  -0.320  -0.070  -0.074
    1UNL     H1   29   0.582   0.235  -0.041
    1UNL     H2   30   0.661   0.182  -0.199
    1UNL     H3   31   0.667   0.070  -0.049
    1UNL     H4   32   0.192  -0.126  -0.162
    1UNL     H5   33   0.295   0.011  -0.222
    1UNL     H6   34   0.112   0.174  -0.153
    1UNL     H7   35   0.012   0.044  -0.164
    1UNL     H8   36   0.154   0.143   0.078
    1UNL     H9   37  -0.165   0.290   0.160
    1UNL    H10   38   0.018   0.304   0.170
    1UNL    H11   39  -0.040   0.419  -0.039
    1UNL    H12   40   0.291  -0.020   0.177
    1UNL    H13   41   0.273  -0.187   0.122
    1UNL    H14   42  -0.078  -0.169   0.162
    1UNL    H15   43   0.166  -0.317   0.052
    1UNL    H16   44  -0.001  -0.392   0.082
    1UNL    H17   45   0.103  -0.318   0.208
    1UNL    H18   46  -0.129  -0.253  -0.101
    1UNL    H19   47  -0.009  -0.149  -0.144
    1UNL    H20   48  -0.335   0.207   0.086
    1UNL    H21   49  -0.570   0.157  -0.035
    1UNL    H22   50  -0.682  -0.021  -0.166
    1UNL    H23   51  -0.573  -0.220  -0.247
    1UNL    H24   52  -0.333  -0.252  -0.186
   0.00000   0.00000   0.00000   0.00000   0.00000   0.00000   0.00000   0.00000   0.00000
Generated with MDTraj, t= 72.0
 52
    1UNL     C1    1   0.591   0.144  -0.126
    1UNL     O1    2   0.471   0.083  -0.131
    1UNL     C2    3   0.427   0.033  -0.005
    1UNL     O2    4   0.490   0.043   0.093
    1UNL     N1    5   0.306  -0.037  -0.020
    1UNL     C3    6   0.228  -0.020  -0.152
    1UNL     C4    7   0.097   0.056  -0.123
    1UNL     C5    8   0.076   0.062   0.030
    1UNL     C6    9  -0.055   0.124   0.094
    1UNL     C7   10  -0.058   0.280   0.110
    1UNL     O3   11  -0.080   0.339  -0.019
    1UNL     C8   12  -0.043   0.067   0.238
    1UNL     O4   13  -0.113   0.080   0.334
    1UNL     O5   14   0.075  -0.021   0.249
    1UNL     C9   15   0.108  -0.063   0.118
    1UNL    C10   16   0.253  -0.105   0.095
    1UNL    C11   17  -0.002  -0.178   0.097
    1UNL    C12   18   0.064  -0.317   0.119
    1UNL    C13   19  -0.091  -0.171  -0.027
    1UNL    C14   20  -0.185  -0.056  -0.040
    1UNL    C15   21  -0.170   0.068   0.024
    1UNL     N2   22  -0.296   0.130   0.024
    1UNL    C16   23  -0.387   0.050  -0.038
    1UNL    C17   24  -0.526   0.064  -0.066
    1UNL    C18   25  -0.584  -0.035  -0.142
    1UNL    C19   26  -0.508  -0.140  -0.198
    1UNL    C20   27  -0.374  -0.156  -0.171
    1UNL    C21   28  -0.320  -0.060  -0.090
    1UNL     H1   29   0.578   0.229  -0.056
    1UNL     H2   30   0.617   0.179  -0.228
    1UNL     H3   31   0.668   0.074  -0.087
    1UNL     H4   32   0.197  -0.121  -0.181
    1UNL     H5   33   0.296   0.035  -0.220
    1UNL     H6   34   0.118   0.159  -0.157
    1UNL     H7   35   0.009   0.030  -0.184
    1UNL     H8   36   0.159   0.127   0.057
    1UNL     H9   37  -0.138   0.297   0.186
    1UNL    H10   38   0.044   0.309   0.147
    1UNL    H11   39  -0.089   0.435  -0.008
    1UNL    H12   40   0.309  -0.084   0.191
    1UNL    H13   41   0.269  -0.209   0.079
    1UNL    H14   42  -0.067  -0.166   0.186
    1UNL    H15   43   0.147  -0.335   0.057
    1UNL    H16   44  -0.021  -0.392   0.114
    1UNL    H17   45   0.101  -0.317   0.221
    1UNL    H18   46  -0.152  -0.270  -0.027
    1UNL    H19   47  -0.044  -0.189  -0.126
    1UNL    H20   48  -0.311   0.207   0.097
    1UNL    H21   49  -0.580   0.133  -0.009
    1UNL    H22   50  -0.695  -0.045  -0.133
    1UNL    H23   51  -0.566  -0.212  -0.258
    1UNL    H24   52  -0.314  -0.230  -0.222
   0.00000   0.00000   0.00000   0.00000   0.00000   0.00000   0.00000   0.00000   0.00000
Generated with MDTraj, t= 73.0
 52
    1UNL     C1    1   0.592   0.160  -0.112
    1UNL     O1    2   0.468   0.108  -0.136
    1UNL     C2    3   0.425   0.034  -0.018
    1UNL     O2    4   0.494   0.029   0.077
    1UNL     N1    5   0.306  -0.038  -0.031
    1UNL     C3    6   0.217  -0.018  -0.148
    1UNL     C4    7   0.101   0.073  -0.098
    1UNL     C5    8   0.076   0.072   0.052
    1UNL     C6    9  -0.059   0.117   0.104
    1UNL     C7   10  -0.065   0.274   0.104
    1UNL     O3   11  -0.062   0.325  -0.027
    1UNL     C8   12  -0.037   0.068   0.254
    1UNL     O4   13  -0.090   0.117   0.345
    1UNL     O5   14   0.067  -0.028   0.256
    1UNL     C9   15   0.101  -0.066   0.124
    1UNL    C10   16   0.247  -0.101   0.090
    1UNL    C11   17   0.006  -0.190   0.093
    1UNL    C12   18   0.063  -0.333   0.099
    1UNL    C13   19  -0.087  -0.178  -0.032
    1UNL    C14   20  -0.189  -0.067  -0.023
    1UNL    C15   21  -0.178   0.054   0.039
    1UNL     N2   22  -0.285   0.129   0.014
    1UNL    C16   23  -0.384   0.048  -0.049
    1UNL    C17   24  -0.513   0.078  -0.103
    1UNL    C18   25  -0.585  -0.020  -0.165
    1UNL    C19   26  -0.528  -0.147  -0.184
    1UNL    C20   27  -0.396  -0.174  -0.145
    1UNL    C21   28  -0.321  -0.075  -0.087
    1UNL     H1   29   0.581   0.209  -0.018
    1UNL     H2   30   0.617   0.232  -0.188
    1UNL     H3   31   0.671   0.087  -0.105
    1UNL     H4   32   0.173  -0.116  -0.174
    1UNL     H5   33   0.274   0.033  -0.227
    1UNL     H6   34   0.141   0.176  -0.114
    1UNL     H7   35   0.012   0.062  -0.162
    1UNL     H8   36   0.142   0.143   0.101
    1UNL     H9   37  -0.159   0.301   0.156
    1UNL    H10   38   0.027   0.301   0.165
    1UNL    H11   39  -0.098   0.411  -0.015
    1UNL    H12   40   0.327  -0.082   0.168
    1UNL    H13   41   0.255  -0.205   0.078
    1UNL    H14   42  -0.059  -0.179   0.184
    1UNL    H15   43   0.144  -0.353   0.030
    1UNL    H16   44  -0.016  -0.414   0.086
    1UNL    H17   45   0.108  -0.354   0.193
    1UNL    H18   46  -0.148  -0.274  -0.054
    1UNL    H19   47  -0.020  -0.169  -0.120
    1UNL    H20   48  -0.300   0.228   0.045
    1UNL    H21   49  -0.558   0.177  -0.071
    1UNL    H22   50  -0.675   0.002  -0.214
    1UNL    H23   51  -0.569  -0.225  -0.240
    1UNL    H24   52  -0.359  -0.274  -0.167
   0.00000   0.00000   0.00000   0.00000   0.00000   0.00000   0.00000   0.00000   0.00000
Generated with MDTraj, t= 74.0
 52
    1UNL     C1    1   0.590   0.179  -0.093
    1UNL     O1    2   0.476   0.117  -0.134
    1UNL     C2    3   0.429   0.034  -0.023
    1UNL     O2    4   0.505   0.008   0.065
    1UNL     N1    5   0.302  -0.024  -0.028
    1UNL     C3    6   0.217  -0.033  -0.145
    1UNL     C4    7   0.080   0.040  -0.118
    1UNL     C5    8   0.073   0.057   0.038
    1UNL     C6    9  -0.052   0.120   0.108
    1UNL     C7   10  -0.055   0.273   0.106
    1UNL     O3   11  -0.062   0.323  -0.025
    1UNL     C8   12  -0.040   0.072   0.253
    1UNL     O4   13  -0.105   0.109   0.343
    1UNL     O5   14   0.071  -0.022   0.254
    1UNL     C9   15   0.099  -0.068   0.120
    1UNL    C10   16   0.247  -0.096   0.096
    1UNL    C11   17   0.004  -0.200   0.088
    1UNL    C12   18   0.082  -0.325   0.065
    1UNL    C13   19  -0.106  -0.173  -0.012
    1UNL    C14   20  -0.198  -0.058   0.006
    1UNL    C15   21  -0.181   0.068   0.052
    1UNL     N2   22  -0.298   0.132   0.017
    1UNL    C16   23  -0.383   0.054  -0.053
    1UNL    C17   24  -0.503   0.084  -0.123
    1UNL    C18   25  -0.566  -0.020  -0.188
    1UNL    C19   26  -0.520  -0.148  -0.184
    1UNL    C20   27  -0.400  -0.172  -0.115
    1UNL    C21   28  -0.325  -0.072  -0.059
    1UNL     H1   29   0.561   0.235  -0.008
    1UNL     H2   30   0.625   0.248  -0.167
    1UNL     H3   31   0.674   0.118  -0.061
    1UNL     H4   32   0.210  -0.138  -0.171
    1UNL     H5   33   0.280   0.019  -0.219
    1UNL     H6   34   0.069   0.140  -0.166
    1UNL     H7   35  -0.005  -0.014  -0.159
    1UNL     H8   36   0.157   0.123   0.060
    1UNL     H9   37  -0.151   0.293   0.156
    1UNL    H10   38   0.042   0.309   0.151
    1UNL    H11   39  -0.071   0.424  -0.025
    1UNL    H12   40   0.311  -0.061   0.179
    1UNL    H13   41   0.275  -0.200   0.097
    1UNL    H14   42  -0.047  -0.219   0.185
    1UNL    H15   43   0.154  -0.317  -0.019
    1UNL    H16   44   0.018  -0.412   0.040
    1UNL    H17   45   0.141  -0.361   0.145
    1UNL    H18   46  -0.172  -0.267  -0.003
    1UNL    H19   47  -0.072  -0.166  -0.117
    1UNL    H20   48  -0.308   0.233   0.017
    1UNL    H21   49  -0.537   0.182  -0.120
    1UNL    H22   50  -0.661  -0.001  -0.243
    1UNL    H23   51  -0.550  -0.224  -0.262
    1UNL    H24   52  -0.366  -0.273  -0.100
   0.00000   0.00000   0.00000   0.00000   0.00000   0.00000   0.00000   0.00000   0.00000
Generated with MDTraj, t= 75.0
 52
    1UNL     C1    1   0.575   0.165  -0.119
    1UNL     O1    2   0.452   0.107  -0.129
    1UNL     C2    3   0.433   0.042  -0.007
    1UNL     O2    4   0.505   0.021   0.087
    1UNL     N1    5   0.307  -0.018  -0.017
    1UNL     C3    6   0.225  -0.016  -0.138
    1UNL     C4    7   0.084   0.033  -0.122
    1UNL     C5    8   0.069   0.061   0.031
    1UNL     C6    9  -0.054   0.109   0.105
    1UNL     C7   10  -0.058   0.269   0.106
    1UNL     O3   11  -0.073   0.326  -0.026
    1UNL     C8   12  -0.038   0.060   0.250
    1UNL     O4   13  -0.106   0.100   0.339
    1UNL     O5   14   0.074  -0.021   0.253
    1UNL     C9   15   0.105  -0.066   0.122
    1UNL    C10   16   0.258  -0.094   0.105
    1UNL    C11   17   0.017  -0.197   0.099
    1UNL    C12   18   0.099  -0.325   0.058
    1UNL    C13   19  -0.111  -0.190   0.010
    1UNL    C14   20  -0.202  -0.080   0.006
    1UNL    C15   21  -0.173   0.054   0.031
    1UNL     N2   22  -0.279   0.134  -0.008
    1UNL    C16   23  -0.380   0.062  -0.061
    1UNL    C17   24  -0.507   0.098  -0.113
    1UNL    C18   25  -0.577   0.000  -0.174
    1UNL    C19   26  -0.525  -0.135  -0.187
    1UNL    C20   27  -0.407  -0.175  -0.126
    1UNL    C21   28  -0.331  -0.070  -0.067
    1UNL     H1   29   0.579   0.228  -0.028
    1UNL     H2   30   0.597   0.230  -0.206
    1UNL     H3   31   0.664   0.101  -0.108
    1UNL     H4   32   0.225  -0.119  -0.175
    1UNL     H5   33   0.281   0.036  -0.216
    1UNL     H6   34   0.061   0.120  -0.189
    1UNL     H7   35   0.009  -0.037  -0.155
    1UNL     H8   36   0.147   0.136   0.047
    1UNL     H9   37  -0.143   0.302   0.164
    1UNL    H10   38   0.046   0.288   0.142
    1UNL    H11   39  -0.064   0.429  -0.027
    1UNL    H12   40   0.322  -0.048   0.181
    1UNL    H13   41   0.281  -0.204   0.102
    1UNL    H14   42  -0.023  -0.216   0.201
    1UNL    H15   43   0.154  -0.296  -0.038
    1UNL    H16   44   0.032  -0.406   0.038
    1UNL    H17   45   0.178  -0.347   0.129
    1UNL    H18   46  -0.162  -0.290   0.031
    1UNL    H19   47  -0.074  -0.191  -0.094
    1UNL    H20   48  -0.278   0.234   0.016
    1UNL    H21   49  -0.553   0.198  -0.096
    1UNL    H22   50  -0.678   0.018  -0.199
    1UNL    H23   51  -0.585  -0.204  -0.236
    1UNL    H24   52  -0.370  -0.275  -0.139
   0.00000   0.00000   0.00000   0.00000   0.00000   0.00000   0.00000   0.00000   0.00000
Generated with MDTraj, t= 76.0
 52
    1UNL     C1    1   0.591   0.154  -0.122
    1UNL     O1    2   0.469   0.087  -0.142
    1UNL     C2    3   0.426   0.051  -0.018
    1UNL     O2    4   0.477   0.068   0.088
    1UNL     N1    5   0.316  -0.040  -0.022
    1UNL     C3    6   0.223  -0.035  -0.138
    1UNL     C4    7   0.112   0.070  -0.114
    1UNL     C5    8   0.078   0.065   0.043
    1UNL     C6    9  -0.058   0.111   0.109
    1UNL     C7   10  -0.055   0.273   0.110
    1UNL     O3   11  -0.070   0.317  -0.024
    1UNL     C8   12  -0.041   0.051   0.250
    1UNL     O4   13  -0.108   0.098   0.340
    1UNL     O5   14   0.061  -0.040   0.254
    1UNL     C9   15   0.101  -0.065   0.121
    1UNL    C10   16   0.257  -0.096   0.111
    1UNL    C11   17   0.010  -0.191   0.083
    1UNL    C12   18   0.083  -0.334   0.082
    1UNL    C13   19  -0.089  -0.169  -0.036
    1UNL    C14   20  -0.203  -0.069  -0.014
    1UNL    C15   21  -0.180   0.058   0.033
    1UNL     N2   22  -0.286   0.142   0.007
    1UNL    C16   23  -0.379   0.062  -0.053
    1UNL    C17   24  -0.501   0.087  -0.113
    1UNL    C18   25  -0.575  -0.007  -0.174
    1UNL    C19   26  -0.532  -0.142  -0.174
    1UNL    C20   27  -0.413  -0.180  -0.115
    1UNL    C21   28  -0.330  -0.073  -0.066
    1UNL     H1   29   0.591   0.225  -0.035
    1UNL     H2   30   0.620   0.211  -0.214
    1UNL     H3   31   0.682   0.091  -0.103
    1UNL     H4   32   0.185  -0.135  -0.160
    1UNL     H5   33   0.278  -0.006  -0.226
    1UNL     H6   34   0.147   0.171  -0.145
    1UNL     H7   35   0.023   0.055  -0.176
    1UNL     H8   36   0.153   0.131   0.090
    1UNL     H9   37  -0.141   0.300   0.166
    1UNL    H10   38   0.046   0.303   0.141
    1UNL    H11   39  -0.056   0.414  -0.023
    1UNL    H12   40   0.307  -0.042   0.191
    1UNL    H13   41   0.282  -0.207   0.112
    1UNL    H14   42  -0.058  -0.194   0.171
    1UNL    H15   43   0.126  -0.339  -0.021
    1UNL    H16   44   0.007  -0.407   0.092
    1UNL    H17   45   0.170  -0.343   0.150
    1UNL    H18   46  -0.148  -0.265  -0.055
    1UNL    H19   47  -0.026  -0.137  -0.120
    1UNL    H20   48  -0.293   0.244   0.026
    1UNL    H21   49  -0.545   0.186  -0.107
    1UNL    H22   50  -0.679   0.009  -0.207
    1UNL    H23   51  -0.598  -0.225  -0.211
    1UNL    H24   52  -0.361  -0.271  -0.137
   0.00000   0.00000   0.00000   0.00000   0.00000   0.00000   0.00000   0.00000   0.00000
Generated with MDTraj, t= 77.0
 52
    1UNL     C1    1   0.593   0.163  -0.105
    1UNL     O1    2   0.483   0.073  -0.140
    1UNL     C2    3   0.420   0.040  -0.023
    1UNL     O2    4   0.476   0.049   0.082
    1UNL     N1    5   0.302  -0.046  -0.027
    1UNL     C3    6   0.216  -0.048  -0.150
    1UNL     C4    7   0.094   0.050  -0.122
    1UNL     C5    8   0.079   0.065   0.037
    1UNL     C6    9  -0.049   0.122   0.101
    1UNL     C7   10  -0.043   0.278   0.116
    1UNL     O3   11  -0.051   0.341  -0.004
    1UNL     C8   12  -0.045   0.068   0.236
    1UNL     O4   13  -0.118   0.103   0.330
    1UNL     O5   14   0.053  -0.023   0.252
    1UNL     C9   15   0.092  -0.069   0.115
    1UNL    C10   16   0.250  -0.091   0.106
    1UNL    C11   17  -0.005  -0.193   0.088
    1UNL    C12   18   0.077  -0.320   0.089
    1UNL    C13   19  -0.092  -0.176  -0.032
    1UNL    C14   20  -0.176  -0.049  -0.029
    1UNL    C15   21  -0.176   0.073   0.036
    1UNL     N2   22  -0.302   0.131   0.022
    1UNL    C16   23  -0.385   0.052  -0.052
    1UNL    C17   24  -0.522   0.066  -0.078
    1UNL    C18   25  -0.588  -0.041  -0.141
    1UNL    C19   26  -0.511  -0.153  -0.174
    1UNL    C20   27  -0.377  -0.154  -0.160
    1UNL    C21   28  -0.309  -0.056  -0.088
    1UNL     H1   29   0.562   0.268  -0.085
    1UNL     H2   30   0.667   0.163  -0.189
    1UNL     H3   31   0.654   0.136  -0.017
    1UNL     H4   32   0.184  -0.148  -0.181
    1UNL     H5   33   0.269  -0.005  -0.233
    1UNL     H6   34   0.101   0.151  -0.167
    1UNL     H7   35   0.005   0.008  -0.170
    1UNL     H8   36   0.162   0.129   0.076
    1UNL     H9   37  -0.133   0.306   0.167
    1UNL    H10   38   0.054   0.299   0.162
    1UNL    H11   39  -0.032   0.431   0.017
    1UNL    H12   40   0.293  -0.028   0.184
    1UNL    H13   41   0.283  -0.195   0.130
    1UNL    H14   42  -0.076  -0.191   0.173
    1UNL    H15   43   0.124  -0.349  -0.004
    1UNL    H16   44   0.019  -0.405   0.113
    1UNL    H17   45   0.163  -0.322   0.163
    1UNL    H18   46  -0.144  -0.276  -0.039
    1UNL    H19   47  -0.024  -0.166  -0.117
    1UNL    H20   48  -0.318   0.231   0.040
    1UNL    H21   49  -0.572   0.149  -0.042
    1UNL    H22   50  -0.695  -0.041  -0.154
    1UNL    H23   51  -0.562  -0.221  -0.239
    1UNL    H24   52  -0.317  -0.236  -0.202
   0.00000   0.00000   0.00000   0.00000   0.00000   0.00000   0.00000   0.00000   0.00000
Generated with MDTraj, t= 78.0
 52
    1UNL     C1    1   0.584   0.151  -0.124
    1UNL     O1    2   0.454   0.089  -0.122
    1UNL     C2    3   0.432   0.034  -0.000
    1UNL     O2    4   0.509   0.017   0.092
    1UNL     N1    5   0.311  -0.040  -0.014
    1UNL     C3    6   0.226  -0.016  -0.135
    1UNL     C4    7   0.117   0.078  -0.110
    1UNL     C5    8   0.079   0.082   0.042
    1UNL     C6    9  -0.059   0.118   0.095
    1UNL     C7   10  -0.065   0.272   0.089
    1UNL     O3   11  -0.039   0.325  -0.040
    1UNL     C8   12  -0.038   0.066   0.240
    1UNL     O4   13  -0.113   0.100   0.334
    1UNL     O5   14   0.061  -0.018   0.258
    1UNL     C9   15   0.102  -0.057   0.116
    1UNL    C10   16   0.251  -0.099   0.102
    1UNL    C11   17  -0.004  -0.171   0.081
    1UNL    C12   18   0.053  -0.317   0.094
    1UNL    C13   19  -0.072  -0.159  -0.059
    1UNL    C14   20  -0.187  -0.060  -0.043
    1UNL    C15   21  -0.178   0.062   0.027
    1UNL     N2   22  -0.298   0.125   0.035
    1UNL    C16   23  -0.391   0.035  -0.022
    1UNL    C17   24  -0.521   0.059  -0.061
    1UNL    C18   25  -0.590  -0.036  -0.133
    1UNL    C19   26  -0.525  -0.145  -0.192
    1UNL    C20   27  -0.391  -0.165  -0.169
    1UNL    C21   28  -0.321  -0.074  -0.084
    1UNL     H1   29   0.597   0.243  -0.069
    1UNL     H2   30   0.592   0.177  -0.229
    1UNL     H3   31   0.664   0.082  -0.107
    1UNL     H4   32   0.188  -0.111  -0.174
    1UNL     H5   33   0.281   0.023  -0.220
    1UNL     H6   34   0.153   0.176  -0.146
    1UNL     H7   35   0.023   0.068  -0.170
    1UNL     H8   36   0.156   0.149   0.090
    1UNL     H9   37  -0.164   0.303   0.121
    1UNL    H10   38   0.019   0.303   0.152
    1UNL    H11   39  -0.063   0.423  -0.042
    1UNL    H12   40   0.293  -0.066   0.200
    1UNL    H13   41   0.269  -0.207   0.104
    1UNL    H14   42  -0.083  -0.156   0.157
    1UNL    H15   43   0.104  -0.344   0.006
    1UNL    H16   44  -0.024  -0.396   0.098
    1UNL    H17   45   0.131  -0.340   0.174
    1UNL    H18   46  -0.127  -0.251  -0.088
    1UNL    H19   47   0.008  -0.138  -0.131
    1UNL    H20   48  -0.323   0.188   0.107
    1UNL    H21   49  -0.574   0.150  -0.020
    1UNL    H22   50  -0.688  -0.006  -0.165
    1UNL    H23   51  -0.567  -0.218  -0.259
    1UNL    H24   52  -0.341  -0.244  -0.214
   0.00000   0.00000   0.00000   0.00000   0.00000   0.00000   0.00000   0.00000   0.00000
Generated with MDTraj, t= 79.0
 52
    1UNL     C1    1   0.620   0.150  -0.087
    1UNL     O1    2   0.485   0.105  -0.121
    1UNL     C2    3   0.443   0.032  -0.013
    1UNL     O2    4   0.502  -0.014   0.081
    1UNL     N1    5   0.310  -0.022  -0.017
    1UNL     C3    6   0.231  -0.008  -0.143
    1UNL     C4    7   0.091   0.063  -0.125
    1UNL     C5    8   0.067   0.069   0.031
    1UNL     C6    9  -0.062   0.124   0.102
    1UNL     C7   10  -0.055   0.282   0.092
    1UNL     O3   11  -0.068   0.320  -0.045
    1UNL     C8   12  -0.038   0.074   0.245
    1UNL     O4   13  -0.108   0.123   0.337
    1UNL     O5   14   0.059  -0.022   0.261
    1UNL     C9   15   0.098  -0.063   0.113
    1UNL    C10   16   0.251  -0.087   0.099
    1UNL    C11   17  -0.001  -0.180   0.081
    1UNL    C12   18   0.064  -0.322   0.073
    1UNL    C13   19  -0.088  -0.170  -0.043
    1UNL    C14   20  -0.194  -0.061  -0.035
    1UNL    C15   21  -0.182   0.061   0.028
    1UNL     N2   22  -0.301   0.129   0.026
    1UNL    C16   23  -0.393   0.043  -0.035
    1UNL    C17   24  -0.528   0.060  -0.056
    1UNL    C18   25  -0.591  -0.044  -0.125
    1UNL    C19   26  -0.515  -0.144  -0.185
    1UNL    C20   27  -0.384  -0.167  -0.162
    1UNL    C21   28  -0.326  -0.069  -0.082
    1UNL     H1   29   0.644   0.148   0.018
    1UNL     H2   30   0.624   0.253  -0.121
    1UNL     H3   31   0.690   0.095  -0.142
    1UNL     H4   32   0.201  -0.106  -0.184
    1UNL     H5   33   0.291   0.038  -0.221
    1UNL     H6   34   0.073   0.163  -0.165
    1UNL     H7   35   0.007   0.010  -0.176
    1UNL     H8   36   0.154   0.135   0.058
    1UNL     H9   37  -0.144   0.319   0.144
    1UNL    H10   38   0.037   0.327   0.137
    1UNL    H11   39  -0.092   0.420  -0.061
    1UNL    H12   40   0.290  -0.058   0.201
    1UNL    H13   41   0.278  -0.189   0.093
    1UNL    H14   42  -0.064  -0.187   0.171
    1UNL    H15   43   0.142  -0.324   0.001
    1UNL    H16   44  -0.017  -0.394   0.040
    1UNL    H17   45   0.104  -0.350   0.170
    1UNL    H18   46  -0.124  -0.272  -0.064
    1UNL    H19   47  -0.031  -0.146  -0.132
    1UNL    H20   48  -0.320   0.211   0.074
    1UNL    H21   49  -0.577   0.142  -0.016
    1UNL    H22   50  -0.703  -0.040  -0.135
    1UNL    H23   51  -0.576  -0.211  -0.250
    1UNL    H24   52  -0.329  -0.261  -0.184
   0.00000   0.00000   0.00000   0.00000   0.00000   0.00000   0.00000   0.00000   0.00000
Generated with MDTraj, t= 80.0
 52
    1UNL     C1    1   0.643   0.132  -0.069
    1UNL     O1    2   0.505   0.109  -0.110
    1UNL     C2    3   0.452   0.032  -0.010
    1UNL     O2    4   0.501  -0.010   0.091
    1UNL     N1    5   0.319  -0.021  -0.031
    1UNL     C3    6   0.243   0.013  -0.158
    1UNL     C4    7   0.097   0.067  -0.127
    1UNL     C5    8   0.079   0.074   0.026
    1UNL     C6    9  -0.052   0.126   0.090
    1UNL     C7   10  -0.068   0.273   0.094
    1UNL     O3   11  -0.097   0.337  -0.024
    1UNL     C8   12  -0.033   0.075   0.237
    1UNL     O4   13  -0.097   0.122   0.331
    1UNL     O5   14   0.066  -0.018   0.241
    1UNL     C9   15   0.097  -0.062   0.099
    1UNL    C10   16   0.247  -0.086   0.086
    1UNL    C11   17  -0.004  -0.189   0.077
    1UNL    C12   18   0.065  -0.323   0.072
    1UNL    C13   19  -0.097  -0.171  -0.044
    1UNL    C14   20  -0.199  -0.069  -0.011
    1UNL    C15   21  -0.179   0.061   0.039
    1UNL     N2   22  -0.303   0.126   0.024
    1UNL    C16   23  -0.396   0.047  -0.049
    1UNL    C17   24  -0.530   0.066  -0.081
    1UNL    C18   25  -0.597  -0.033  -0.151
    1UNL    C19   26  -0.542  -0.164  -0.166
    1UNL    C20   27  -0.415  -0.183  -0.121
    1UNL    C21   28  -0.334  -0.079  -0.067
    1UNL     H1   29   0.644   0.182   0.029
    1UNL     H2   30   0.701   0.193  -0.141
    1UNL     H3   31   0.687   0.035  -0.053
    1UNL     H4   32   0.246  -0.075  -0.225
    1UNL     H5   33   0.287   0.097  -0.215
    1UNL     H6   34   0.081   0.166  -0.172
    1UNL     H7   35   0.012   0.010  -0.169
    1UNL     H8   36   0.166   0.131   0.067
    1UNL     H9   37  -0.144   0.300   0.172
    1UNL    H10   38   0.027   0.311   0.140
    1UNL    H11   39  -0.108   0.434  -0.007
    1UNL    H12   40   0.294  -0.045   0.182
    1UNL    H13   41   0.282  -0.185   0.099
    1UNL    H14   42  -0.057  -0.191   0.173
    1UNL    H15   43   0.145  -0.310  -0.002
    1UNL    H16   44   0.004  -0.411   0.034
    1UNL    H17   45   0.110  -0.347   0.163
    1UNL    H18   46  -0.152  -0.260  -0.075
    1UNL    H19   47  -0.034  -0.156  -0.133
    1UNL    H20   48  -0.312   0.224   0.026
    1UNL    H21   49  -0.579   0.164  -0.062
    1UNL    H22   50  -0.696  -0.015  -0.169
    1UNL    H23   51  -0.599  -0.237  -0.214
    1UNL    H24   52  -0.373  -0.280  -0.129
   0.00000   0.00000   0.00000   0.00000   0.00000   0.00000   0.00000   0.00000   0.00000
Generated with MDTraj, t= 81.0
 52
    1UNL     C1    1   0.636   0.122  -0.091
    1UNL     O1    2   0.504   0.087  -0.110
    1UNL     C2    3   0.452   0.035   0.002
    1UNL     O2    4   0.504   0.009   0.107
    1UNL     N1    5   0.316  -0.007  -0.023
    1UNL     C3    6   0.247   0.034  -0.149
    1UNL     C4    7   0.105   0.082  -0.125
    1UNL     C5    8   0.073   0.078   0.025
    1UNL     C6    9  -0.060   0.121   0.093
    1UNL     C7   10  -0.072   0.272   0.091
    1UNL     O3   11  -0.104   0.328  -0.036
    1UNL     C8   12  -0.037   0.060   0.239
    1UNL     O4   13  -0.112   0.084   0.329
    1UNL     O5   14   0.074  -0.028   0.237
    1UNL     C9   15   0.104  -0.056   0.100
    1UNL    C10   16   0.248  -0.092   0.085
    1UNL    C11   17   0.010  -0.189   0.075
    1UNL    C12   18   0.078  -0.323   0.076
    1UNL    C13   19  -0.097  -0.178  -0.033
    1UNL    C14   20  -0.197  -0.066  -0.018
    1UNL    C15   21  -0.188   0.062   0.035
    1UNL     N2   22  -0.298   0.138  -0.004
    1UNL    C16   23  -0.387   0.052  -0.065
    1UNL    C17   24  -0.525   0.077  -0.091
    1UNL    C18   25  -0.601  -0.027  -0.131
    1UNL    C19   26  -0.547  -0.154  -0.142
    1UNL    C20   27  -0.417  -0.181  -0.110
    1UNL    C21   28  -0.328  -0.074  -0.069
    1UNL     H1   29   0.641   0.221  -0.037
    1UNL     H2   30   0.694   0.127  -0.188
    1UNL     H3   31   0.675   0.046  -0.023
    1UNL     H4   32   0.242  -0.050  -0.222
    1UNL     H5   33   0.306   0.118  -0.188
    1UNL     H6   34   0.088   0.187  -0.154
    1UNL     H7   35   0.037   0.026  -0.190
    1UNL     H8   36   0.144   0.149   0.073
    1UNL     H9   37  -0.150   0.293   0.171
    1UNL    H10   38   0.013   0.331   0.134
    1UNL    H11   39  -0.108   0.421  -0.029
    1UNL    H12   40   0.306  -0.080   0.182
    1UNL    H13   41   0.275  -0.195   0.070
    1UNL    H14   42  -0.048  -0.190   0.170
    1UNL    H15   43   0.147  -0.325  -0.012
    1UNL    H16   44   0.018  -0.415   0.053
    1UNL    H17   45   0.132  -0.343   0.163
    1UNL    H18   46  -0.151  -0.269  -0.026
    1UNL    H19   47  -0.065  -0.182  -0.138
    1UNL    H20   48  -0.327   0.228   0.019
    1UNL    H21   49  -0.558   0.178  -0.085
    1UNL    H22   50  -0.708  -0.012  -0.168
    1UNL    H23   51  -0.606  -0.247  -0.168
    1UNL    H24   52  -0.371  -0.269  -0.152
   0.00000   0.00000   0.00000   0.00000   0.00000   0.00000   0.00000   0.00000   0.00000
Generated with MDTraj, t= 82.0
 52
    1UNL     C1    1   0.635   0.121  -0.100
    1UNL     O1    2   0.506   0.092  -0.120
    1UNL     C2    3   0.445   0.038  -0.008
    1UNL     O2    4   0.507   0.014   0.091
    1UNL     N1    5   0.310   0.002  -0.017
    1UNL     C3    6   0.233  -0.014  -0.138
    1UNL     C4    7   0.096   0.060  -0.126
    1UNL     C5    8   0.068   0.076   0.026
    1UNL     C6    9  -0.063   0.123   0.088
    1UNL     C7   10  -0.068   0.276   0.112
    1UNL     O3   11  -0.062   0.341  -0.016
    1UNL     C8   12  -0.061   0.065   0.231
    1UNL     O4   13  -0.133   0.091   0.322
    1UNL     O5   14   0.045  -0.026   0.237
    1UNL     C9   15   0.101  -0.055   0.114
    1UNL    C10   16   0.255  -0.074   0.096
    1UNL    C11   17   0.021  -0.190   0.077
    1UNL    C12   18   0.098  -0.319   0.070
    1UNL    C13   19  -0.096  -0.179  -0.028
    1UNL    C14   20  -0.200  -0.067  -0.027
    1UNL    C15   21  -0.180   0.065   0.011
    1UNL     N2   22  -0.300   0.140   0.008
    1UNL    C16   23  -0.392   0.056  -0.047
    1UNL    C17   24  -0.528   0.075  -0.078
    1UNL    C18   25  -0.597  -0.034  -0.128
    1UNL    C19   26  -0.533  -0.157  -0.158
    1UNL    C20   27  -0.401  -0.179  -0.134
    1UNL    C21   28  -0.336  -0.077  -0.067
    1UNL     H1   29   0.647   0.160   0.005
    1UNL     H2   30   0.676   0.196  -0.174
    1UNL     H3   31   0.683   0.022  -0.104
    1UNL     H4   32   0.229  -0.123  -0.160
    1UNL     H5   33   0.284   0.033  -0.223
    1UNL     H6   34   0.095   0.153  -0.187
    1UNL     H7   35   0.013   0.007  -0.170
    1UNL     H8   36   0.144   0.148   0.060
    1UNL     H9   37  -0.153   0.320   0.171
    1UNL    H10   38   0.016   0.310   0.174
    1UNL    H11   39  -0.050   0.439  -0.013
    1UNL    H12   40   0.312  -0.037   0.184
    1UNL    H13   41   0.296  -0.177   0.090
    1UNL    H14   42  -0.044  -0.195   0.167
    1UNL    H15   43   0.168  -0.322  -0.017
    1UNL    H16   44   0.032  -0.403   0.057
    1UNL    H17   45   0.151  -0.329   0.163
    1UNL    H18   46  -0.136  -0.274  -0.042
    1UNL    H19   47  -0.042  -0.162  -0.120
    1UNL    H20   48  -0.312   0.220   0.065
    1UNL    H21   49  -0.583   0.165  -0.059
    1UNL    H22   50  -0.701  -0.030  -0.137
    1UNL    H23   51  -0.597  -0.229  -0.199
    1UNL    H24   52  -0.354  -0.276  -0.153
   0.00000   0.00000   0.00000   0.00000   0.00000   0.00000   0.00000   0.00000   0.00000
Generated with MDTraj, t= 83.0
 52
    1UNL     C1    1   0.605   0.134  -0.127
    1UNL     O1    2   0.479   0.076  -0.128
    1UNL     C2    3   0.434   0.017  -0.011
    1UNL     O2    4   0.509   0.014   0.081
    1UNL     N1    5   0.304  -0.034  -0.011
    1UNL     C3    6   0.227  -0.019  -0.127
    1UNL     C4    7   0.110   0.084  -0.104
    1UNL     C5    8   0.076   0.083   0.050
    1UNL     C6    9  -0.062   0.133   0.106
    1UNL     C7   10  -0.069   0.283   0.103
    1UNL     O3   11  -0.035   0.322  -0.030
    1UNL     C8   12  -0.053   0.077   0.249
    1UNL     O4   13  -0.132   0.116   0.328
    1UNL     O5   14   0.046  -0.027   0.255
    1UNL     C9   15   0.096  -0.053   0.126
    1UNL    C10   16   0.250  -0.086   0.118
    1UNL    C11   17   0.008  -0.175   0.069
    1UNL    C12   18   0.090  -0.311   0.044
    1UNL    C13   19  -0.077  -0.147  -0.058
    1UNL    C14   20  -0.186  -0.049  -0.031
    1UNL    C15   21  -0.181   0.072   0.029
    1UNL     N2   22  -0.306   0.124   0.025
    1UNL    C16   23  -0.399   0.041  -0.032
    1UNL    C17   24  -0.532   0.051  -0.078
    1UNL    C18   25  -0.593  -0.050  -0.144
    1UNL    C19   26  -0.523  -0.165  -0.176
    1UNL    C20   27  -0.387  -0.177  -0.146
    1UNL    C21   28  -0.324  -0.072  -0.070
    1UNL     H1   29   0.617   0.183  -0.030
    1UNL     H2   30   0.627   0.205  -0.208
    1UNL     H3   31   0.668   0.048  -0.125
    1UNL     H4   32   0.174  -0.113  -0.151
    1UNL     H5   33   0.294  -0.006  -0.214
    1UNL     H6   34   0.155   0.182  -0.126
    1UNL     H7   35   0.021   0.081  -0.166
    1UNL     H8   36   0.151   0.147   0.097
    1UNL     H9   37  -0.165   0.328   0.129
    1UNL    H10   38   0.002   0.325   0.172
    1UNL    H11   39  -0.015   0.423  -0.040
    1UNL    H12   40   0.315  -0.030   0.186
    1UNL    H13   41   0.261  -0.198   0.140
    1UNL    H14   42  -0.062  -0.188   0.154
    1UNL    H15   43   0.166  -0.288  -0.032
    1UNL    H16   44   0.022  -0.378   0.002
    1UNL    H17   45   0.142  -0.349   0.136
    1UNL    H18   46  -0.133  -0.232  -0.077
    1UNL    H19   47  -0.020  -0.126  -0.147
    1UNL    H20   48  -0.339   0.213   0.060
    1UNL    H21   49  -0.591   0.141  -0.054
    1UNL    H22   50  -0.694  -0.042  -0.184
    1UNL    H23   51  -0.572  -0.252  -0.225
    1UNL    H24   52  -0.346  -0.274  -0.148
   0.00000   0.00000   0.00000   0.00000   0.00000   0.00000   0.00000   0.00000   0.00000
Generated with MDTraj, t= 84.0
 52
    1UNL     C1    1   0.594   0.129  -0.123
    1UNL     O1    2   0.472   0.073  -0.129
    1UNL     C2    3   0.427   0.012  -0.010
    1UNL     O2    4   0.495   0.006   0.090
    1UNL     N1    5   0.297  -0.033  -0.014
    1UNL     C3    6   0.218  -0.014  -0.132
    1UNL     C4    7   0.096   0.072  -0.101
    1UNL     C5    8   0.078   0.076   0.054
    1UNL     C6    9  -0.059   0.128   0.102
    1UNL     C7   10  -0.067   0.275   0.103
    1UNL     O3   11  -0.063   0.336  -0.025
    1UNL     C8   12  -0.050   0.081   0.249
    1UNL     O4   13  -0.112   0.134   0.338
    1UNL     O5   14   0.057  -0.017   0.253
    1UNL     C9   15   0.096  -0.054   0.119
    1UNL    C10   16   0.247  -0.086   0.109
    1UNL    C11   17   0.002  -0.180   0.072
    1UNL    C12   18   0.090  -0.308   0.059
    1UNL    C13   19  -0.079  -0.161  -0.046
    1UNL    C14   20  -0.175  -0.049  -0.044
    1UNL    C15   21  -0.176   0.070   0.030
    1UNL     N2   22  -0.303   0.120   0.025
    1UNL    C16   23  -0.385   0.040  -0.042
    1UNL    C17   24  -0.527   0.042  -0.055
    1UNL    C18   25  -0.585  -0.058  -0.128
    1UNL    C19   26  -0.512  -0.156  -0.192
    1UNL    C20   27  -0.376  -0.159  -0.173
    1UNL    C21   28  -0.309  -0.062  -0.099
    1UNL     H1   29   0.575   0.231  -0.093
    1UNL     H2   30   0.643   0.125  -0.218
    1UNL     H3   31   0.647   0.078  -0.048
    1UNL     H4   32   0.193  -0.117  -0.164
    1UNL     H5   33   0.268   0.029  -0.221
    1UNL     H6   34   0.109   0.180  -0.123
    1UNL     H7   35   0.008   0.046  -0.160
    1UNL     H8   36   0.152   0.144   0.096
    1UNL     H9   37  -0.159   0.311   0.149
    1UNL    H10   38   0.017   0.309   0.157
    1UNL    H11   39  -0.052   0.436  -0.012
    1UNL    H12   40   0.300  -0.032   0.187
    1UNL    H13   41   0.261  -0.198   0.117
    1UNL    H14   42  -0.062  -0.197   0.162
    1UNL    H15   43   0.172  -0.313  -0.013
    1UNL    H16   44   0.026  -0.389   0.044
    1UNL    H17   45   0.136  -0.330   0.161
    1UNL    H18   46  -0.129  -0.252  -0.054
    1UNL    H19   47  -0.017  -0.154  -0.131
    1UNL    H20   48  -0.324   0.214   0.067
    1UNL    H21   49  -0.583   0.121  -0.015
    1UNL    H22   50  -0.691  -0.034  -0.157
    1UNL    H23   51  -0.565  -0.233  -0.242
    1UNL    H24   52  -0.316  -0.246  -0.210
   0.00000   0.00000   0.00000   0.00000   0.00000   0.00000   0.00000   0.00000   0.00000
Generated with MDTraj, t= 85.0
 52
    1UNL     C1    1   0.634   0.128  -0.113
    1UNL     O1    2   0.509   0.078  -0.131
    1UNL     C2    3   0.449   0.022  -0.015
    1UNL     O2    4   0.503   0.034   0.094
    1UNL     N1    5   0.310  -0.024  -0.021
    1UNL     C3    6   0.230  -0.014  -0.144
    1UNL     C4    7   0.102   0.068  -0.122
    1UNL     C5    8   0.072   0.075   0.035
    1UNL     C6    9  -0.060   0.120   0.096
    1UNL     C7   10  -0.069   0.276   0.101
    1UNL     O3   11  -0.105   0.334  -0.028
    1UNL     C8   12  -0.043   0.061   0.245
    1UNL     O4   13  -0.117   0.098   0.334
    1UNL     O5   14   0.069  -0.022   0.247
    1UNL     C9   15   0.102  -0.058   0.113
    1UNL    C10   16   0.254  -0.091   0.095
    1UNL    C11   17   0.003  -0.170   0.080
    1UNL    C12   18   0.065  -0.309   0.107
    1UNL    C13   19  -0.089  -0.162  -0.050
    1UNL    C14   20  -0.198  -0.058  -0.032
    1UNL    C15   21  -0.183   0.063   0.028
    1UNL     N2   22  -0.304   0.119   0.045
    1UNL    C16   23  -0.400   0.046  -0.033
    1UNL    C17   24  -0.535   0.060  -0.064
    1UNL    C18   25  -0.586  -0.026  -0.158
    1UNL    C19   26  -0.511  -0.143  -0.195
    1UNL    C20   27  -0.387  -0.174  -0.151
    1UNL    C21   28  -0.333  -0.075  -0.074
    1UNL     H1   29   0.612   0.216  -0.051
    1UNL     H2   30   0.675   0.160  -0.208
    1UNL     H3   31   0.693   0.055  -0.061
    1UNL     H4   32   0.207  -0.107  -0.201
    1UNL     H5   33   0.297   0.036  -0.216
    1UNL     H6   34   0.112   0.172  -0.153
    1UNL     H7   35   0.018   0.030  -0.182
    1UNL     H8   36   0.141   0.147   0.079
    1UNL     H9   37  -0.152   0.300   0.167
    1UNL    H10   38   0.022   0.318   0.137
    1UNL    H11   39  -0.091   0.428  -0.027
    1UNL    H12   40   0.303  -0.052   0.187
    1UNL    H13   41   0.266  -0.200   0.075
    1UNL    H14   42  -0.061  -0.153   0.170
    1UNL    H15   43   0.135  -0.358   0.040
    1UNL    H16   44  -0.019  -0.375   0.110
    1UNL    H17   45   0.122  -0.324   0.204
    1UNL    H18   46  -0.143  -0.253  -0.059
    1UNL    H19   47  -0.027  -0.155  -0.136
    1UNL    H20   48  -0.318   0.198   0.116
    1UNL    H21   49  -0.574   0.163  -0.044
    1UNL    H22   50  -0.678  -0.016  -0.199
    1UNL    H23   51  -0.556  -0.211  -0.266
    1UNL    H24   52  -0.334  -0.257  -0.185
   0.00000   0.00000   0.00000   0.00000   0.00000   0.00000   0.00000   0.00000   0.00000
Generated with MDTraj, t= 86.0
 52
    1UNL     C1    1   0.639   0.110  -0.106
    1UNL     O1    2   0.498   0.103  -0.123
    1UNL     C2    3   0.442   0.032  -0.016
    1UNL     O2    4   0.498   0.022   0.091
    1UNL     N1    5   0.308  -0.010  -0.026
    1UNL     C3    6   0.230   0.027  -0.149
    1UNL     C4    7   0.083   0.059  -0.113
    1UNL     C5    8   0.068   0.071   0.038
    1UNL     C6    9  -0.064   0.119   0.106
    1UNL     C7   10  -0.080   0.277   0.107
    1UNL     O3   11  -0.102   0.323  -0.031
    1UNL     C8   12  -0.036   0.061   0.245
    1UNL     O4   13  -0.100   0.096   0.343
    1UNL     O5   14   0.070  -0.033   0.249
    1UNL     C9   15   0.097  -0.064   0.111
    1UNL    C10   16   0.253  -0.088   0.086
    1UNL    C11   17  -0.001  -0.188   0.096
    1UNL    C12   18   0.091  -0.310   0.104
    1UNL    C13   19  -0.095  -0.187  -0.024
    1UNL    C14   20  -0.194  -0.067  -0.025
    1UNL    C15   21  -0.176   0.055   0.034
    1UNL     N2   22  -0.290   0.130   0.004
    1UNL    C16   23  -0.383   0.056  -0.068
    1UNL    C17   24  -0.519   0.082  -0.096
    1UNL    C18   25  -0.589  -0.019  -0.155
    1UNL    C19   26  -0.531  -0.146  -0.178
    1UNL    C20   27  -0.405  -0.177  -0.135
    1UNL    C21   28  -0.329  -0.071  -0.079
    1UNL     H1   29   0.655   0.156  -0.005
    1UNL     H2   30   0.678   0.178  -0.185
    1UNL     H3   31   0.684   0.011  -0.118
    1UNL     H4   32   0.228  -0.059  -0.217
    1UNL     H5   33   0.281   0.101  -0.213
    1UNL     H6   34   0.068   0.157  -0.155
    1UNL     H7   35  -0.003  -0.005  -0.144
    1UNL     H8   36   0.153   0.128   0.073
    1UNL     H9   37  -0.163   0.305   0.175
    1UNL    H10   38   0.014   0.320   0.135
    1UNL    H11   39  -0.102   0.417  -0.039
    1UNL    H12   40   0.302  -0.056   0.184
    1UNL    H13   41   0.275  -0.190   0.055
    1UNL    H14   42  -0.064  -0.184   0.187
    1UNL    H15   43   0.144  -0.337   0.013
    1UNL    H16   44   0.028  -0.398   0.117
    1UNL    H17   45   0.164  -0.310   0.189
    1UNL    H18   46  -0.145  -0.282  -0.020
    1UNL    H19   47  -0.049  -0.183  -0.121
    1UNL    H20   48  -0.318   0.226   0.045
    1UNL    H21   49  -0.559   0.178  -0.081
    1UNL    H22   50  -0.702  -0.001  -0.179
    1UNL    H23   51  -0.594  -0.227  -0.212
    1UNL    H24   52  -0.354  -0.271  -0.156
   0.00000   0.00000   0.00000   0.00000   0.00000   0.00000   0.00000   0.00000   0.00000
Generated with MDTraj, t= 87.0
 52
    1UNL     C1    1   0.627   0.137  -0.108
    1UNL     O1    2   0.481   0.109  -0.117
    1UNL     C2    3   0.442   0.021  -0.020
    1UNL     O2    4   0.515  -0.015   0.068
    1UNL     N1    5   0.306  -0.011  -0.018
    1UNL     C3    6   0.228   0.011  -0.144
    1UNL     C4    7   0.088   0.070  -0.112
    1UNL     C5    8   0.071   0.078   0.036
    1UNL     C6    9  -0.062   0.127   0.098
    1UNL     C7   10  -0.069   0.279   0.105
    1UNL     O3   11  -0.066   0.348  -0.015
    1UNL     C8   12  -0.043   0.061   0.244
    1UNL     O4   13  -0.101   0.101   0.342
    1UNL     O5   14   0.058  -0.024   0.253
    1UNL     C9   15   0.098  -0.063   0.115
    1UNL    C10   16   0.252  -0.092   0.092
    1UNL    C11   17   0.003  -0.189   0.091
    1UNL    C12   18   0.084  -0.315   0.071
    1UNL    C13   19  -0.099  -0.169  -0.013
    1UNL    C14   20  -0.200  -0.067   0.001
    1UNL    C15   21  -0.188   0.067   0.042
    1UNL     N2   22  -0.302   0.137  -0.002
    1UNL    C16   23  -0.391   0.048  -0.056
    1UNL    C17   24  -0.508   0.068  -0.120
    1UNL    C18   25  -0.573  -0.033  -0.186
    1UNL    C19   26  -0.529  -0.168  -0.182
    1UNL    C20   27  -0.408  -0.185  -0.116
    1UNL    C21   28  -0.336  -0.078  -0.050
    1UNL     H1   29   0.651   0.200  -0.016
    1UNL     H2   30   0.652   0.200  -0.196
    1UNL     H3   31   0.691   0.046  -0.113
    1UNL     H4   32   0.215  -0.086  -0.193
    1UNL     H5   33   0.291   0.066  -0.216
    1UNL     H6   34   0.076   0.170  -0.150
    1UNL     H7   35  -0.002   0.013  -0.146
    1UNL     H8   36   0.151   0.141   0.074
    1UNL     H9   37  -0.172   0.294   0.150
    1UNL    H10   38   0.005   0.307   0.181
    1UNL    H11   39  -0.068   0.447   0.009
    1UNL    H12   40   0.308  -0.065   0.189
    1UNL    H13   41   0.279  -0.189   0.058
    1UNL    H14   42  -0.058  -0.193   0.183
    1UNL    H15   43   0.135  -0.313  -0.026
    1UNL    H16   44   0.015  -0.403   0.067
    1UNL    H17   45   0.152  -0.318   0.153
    1UNL    H18   46  -0.159  -0.261  -0.016
    1UNL    H19   47  -0.046  -0.172  -0.107
    1UNL    H20   48  -0.308   0.243  -0.011
    1UNL    H21   49  -0.560   0.166  -0.110
    1UNL    H22   50  -0.659  -0.006  -0.236
    1UNL    H23   51  -0.596  -0.249  -0.207
    1UNL    H24   52  -0.374  -0.288  -0.100
   0.00000   0.00000   0.00000   0.00000   0.00000   0.00000   0.00000   0.00000   0.00000
Generated with MDTraj, t= 88.0
 52
    1UNL     C1    1   0.598   0.152  -0.107
    1UNL     O1    2   0.472   0.086  -0.135
    1UNL     C2    3   0.435   0.012  -0.029
    1UNL     O2    4   0.507  -0.010   0.068
    1UNL     N1    5   0.297  -0.015  -0.020
    1UNL     C3    6   0.208  -0.021  -0.138
    1UNL     C4    7   0.090   0.068  -0.109
    1UNL     C5    8   0.076   0.077   0.042
    1UNL     C6    9  -0.059   0.119   0.108
    1UNL     C7   10  -0.065   0.277   0.104
    1UNL     O3   11  -0.061   0.329  -0.024
    1UNL     C8   12  -0.050   0.068   0.252
    1UNL     O4   13  -0.128   0.094   0.341
    1UNL     O5   14   0.057  -0.018   0.272
    1UNL     C9   15   0.099  -0.052   0.127
    1UNL    C10   16   0.255  -0.080   0.107
    1UNL    C11   17   0.018  -0.182   0.092
    1UNL    C12   18   0.101  -0.306   0.068
    1UNL    C13   19  -0.083  -0.169  -0.030
    1UNL    C14   20  -0.193  -0.061  -0.016
    1UNL    C15   21  -0.184   0.062   0.040
    1UNL     N2   22  -0.298   0.134   0.009
    1UNL    C16   23  -0.389   0.049  -0.058
    1UNL    C17   24  -0.511   0.079  -0.112
    1UNL    C18   25  -0.582  -0.024  -0.170
    1UNL    C19   26  -0.517  -0.150  -0.176
    1UNL    C20   27  -0.386  -0.183  -0.139
    1UNL    C21   28  -0.324  -0.080  -0.065
    1UNL     H1   29   0.591   0.218  -0.018
    1UNL     H2   30   0.611   0.215  -0.193
    1UNL     H3   31   0.683   0.082  -0.102
    1UNL     H4   32   0.188  -0.128  -0.154
    1UNL     H5   33   0.261   0.021  -0.224
    1UNL     H6   34   0.104   0.171  -0.144
    1UNL     H7   35  -0.001   0.026  -0.155
    1UNL     H8   36   0.150   0.148   0.084
    1UNL     H9   37  -0.152   0.316   0.166
    1UNL    H10   38   0.022   0.311   0.162
    1UNL    H11   39  -0.061   0.432  -0.022
    1UNL    H12   40   0.321  -0.027   0.187
    1UNL    H13   41   0.296  -0.179   0.105
    1UNL    H14   42  -0.036  -0.199   0.187
    1UNL    H15   43   0.149  -0.282  -0.029
    1UNL    H16   44   0.021  -0.382   0.038
    1UNL    H17   45   0.164  -0.339   0.145
    1UNL    H18   46  -0.135  -0.265  -0.047
    1UNL    H19   47  -0.025  -0.163  -0.123
    1UNL    H20   48  -0.306   0.240   0.029
    1UNL    H21   49  -0.548   0.178  -0.107
    1UNL    H22   50  -0.679  -0.007  -0.216
    1UNL    H23   51  -0.569  -0.226  -0.231
    1UNL    H24   52  -0.344  -0.278  -0.128
   0.00000   0.00000   0.00000   0.00000   0.00000   0.00000   0.00000   0.00000   0.00000
Generated with MDTraj, t= 89.0
 52
    1UNL     C1    1   0.591   0.131  -0.151
    1UNL     O1    2   0.460   0.081  -0.142
    1UNL     C2    3   0.433   0.033  -0.017
    1UNL     O2    4   0.497   0.048   0.083
    1UNL     N1    5   0.312  -0.023  -0.003
    1UNL     C3    6   0.225  -0.035  -0.125
    1UNL     C4    7   0.110   0.058  -0.107
    1UNL     C5    8   0.080   0.066   0.049
    1UNL     C6    9  -0.052   0.118   0.105
    1UNL     C7   10  -0.059   0.275   0.118
    1UNL     O3   11  -0.081   0.327  -0.012
    1UNL     C8   12  -0.043   0.071   0.254
    1UNL     O4   13  -0.124   0.113   0.333
    1UNL     O5   14   0.052  -0.017   0.261
    1UNL     C9   15   0.097  -0.064   0.128
    1UNL    C10   16   0.258  -0.094   0.116
    1UNL    C11   17   0.002  -0.190   0.083
    1UNL    C12   18   0.076  -0.321   0.091
    1UNL    C13   19  -0.081  -0.168  -0.044
    1UNL    C14   20  -0.190  -0.063  -0.032
    1UNL    C15   21  -0.175   0.064   0.029
    1UNL     N2   22  -0.292   0.131   0.024
    1UNL    C16   23  -0.380   0.054  -0.048
    1UNL    C17   24  -0.517   0.068  -0.080
    1UNL    C18   25  -0.585  -0.036  -0.150
    1UNL    C19   26  -0.514  -0.146  -0.205
    1UNL    C20   27  -0.385  -0.159  -0.172
    1UNL    C21   28  -0.321  -0.064  -0.087
    1UNL     H1   29   0.601   0.223  -0.096
    1UNL     H2   30   0.609   0.150  -0.253
    1UNL     H3   31   0.661   0.055  -0.122
    1UNL     H4   32   0.193  -0.140  -0.133
    1UNL     H5   33   0.289  -0.006  -0.208
    1UNL     H6   34   0.133   0.158  -0.146
    1UNL     H7   35   0.023   0.017  -0.156
    1UNL     H8   36   0.152   0.140   0.091
    1UNL     H9   37  -0.147   0.300   0.186
    1UNL    H10   38   0.029   0.317   0.171
    1UNL    H11   39  -0.082   0.425  -0.021
    1UNL    H12   40   0.326  -0.073   0.205
    1UNL    H13   41   0.281  -0.201   0.099
    1UNL    H14   42  -0.074  -0.194   0.163
    1UNL    H15   43   0.140  -0.321   0.001
    1UNL    H16   44   0.011  -0.413   0.082
    1UNL    H17   45   0.131  -0.338   0.180
    1UNL    H18   46  -0.111  -0.269  -0.079
    1UNL    H19   47  -0.016  -0.135  -0.126
    1UNL    H20   48  -0.305   0.224   0.077
    1UNL    H21   49  -0.568   0.163  -0.065
    1UNL    H22   50  -0.686  -0.013  -0.196
    1UNL    H23   51  -0.566  -0.221  -0.265
    1UNL    H24   52  -0.326  -0.245  -0.213
   0.00000   0.00000   0.00000   0.00000   0.00000   0.00000   0.00000   0.00000   0.00000
Generated with MDTraj, t= 90.0
 52
    1UNL     C1    1   0.603   0.140  -0.118
    1UNL     O1    2   0.485   0.059  -0.138
    1UNL     C2    3   0.426   0.019  -0.022
    1UNL     O2    4   0.473   0.056   0.086
    1UNL     N1    5   0.304  -0.040  -0.028
    1UNL     C3    6   0.209  -0.035  -0.148
    1UNL     C4    7   0.099   0.072  -0.119
    1UNL     C5    8   0.073   0.082   0.037
    1UNL     C6    9  -0.058   0.120   0.116
    1UNL     C7   10  -0.070   0.269   0.111
    1UNL     O3   11  -0.076   0.322  -0.019
    1UNL     C8   12  -0.036   0.068   0.253
    1UNL     O4   13  -0.114   0.108   0.339
    1UNL     O5   14   0.069  -0.020   0.258
    1UNL     C9   15   0.101  -0.051   0.120
    1UNL    C10   16   0.249  -0.093   0.095
    1UNL    C11   17   0.009  -0.177   0.082
    1UNL    C12   18   0.069  -0.317   0.105
    1UNL    C13   19  -0.074  -0.166  -0.039
    1UNL    C14   20  -0.182  -0.063  -0.022
    1UNL    C15   21  -0.181   0.060   0.045
    1UNL     N2   22  -0.308   0.121   0.034
    1UNL    C16   23  -0.389   0.047  -0.045
    1UNL    C17   24  -0.526   0.063  -0.072
    1UNL    C18   25  -0.579  -0.028  -0.159
    1UNL    C19   26  -0.503  -0.138  -0.210
    1UNL    C20   27  -0.374  -0.153  -0.167
    1UNL    C21   28  -0.308  -0.064  -0.080
    1UNL     H1   29   0.578   0.227  -0.056
    1UNL     H2   30   0.649   0.175  -0.207
    1UNL     H3   31   0.675   0.075  -0.069
    1UNL     H4   32   0.171  -0.135  -0.173
    1UNL     H5   33   0.284  -0.015  -0.226
    1UNL     H6   34   0.141   0.168  -0.154
    1UNL     H7   35   0.007   0.058  -0.175
    1UNL     H8   36   0.156   0.149   0.068
    1UNL     H9   37  -0.157   0.316   0.164
    1UNL    H10   38   0.019   0.316   0.151
    1UNL    H11   39  -0.089   0.415  -0.024
    1UNL    H12   40   0.309  -0.058   0.183
    1UNL    H13   41   0.267  -0.206   0.103
    1UNL    H14   42  -0.067  -0.167   0.163
    1UNL    H15   43   0.155  -0.327   0.037
    1UNL    H16   44   0.012  -0.413   0.085
    1UNL    H17   45   0.103  -0.337   0.206
    1UNL    H18   46  -0.133  -0.260  -0.057
    1UNL    H19   47  -0.008  -0.155  -0.127
    1UNL    H20   48  -0.336   0.219   0.052
    1UNL    H21   49  -0.577   0.157  -0.058
    1UNL    H22   50  -0.675  -0.020  -0.189
    1UNL    H23   51  -0.542  -0.214  -0.275
    1UNL    H24   52  -0.316  -0.229  -0.206
   0.00000   0.00000   0.00000   0.00000   0.00000   0.00000   0.00000   0.00000   0.00000
Generated with MDTraj, t= 91.0
 52
    1UNL     C1    1   0.611   0.141  -0.116
    1UNL     O1    2   0.479   0.103  -0.122
    1UNL     C2    3   0.434   0.031  -0.012
    1UNL     O2    4   0.503   0.017   0.090
    1UNL     N1    5   0.303  -0.009  -0.023
    1UNL     C3    6   0.220  -0.000  -0.148
    1UNL     C4    7   0.082   0.060  -0.117
    1UNL     C5    8   0.069   0.062   0.033
    1UNL     C6    9  -0.061   0.117   0.107
    1UNL     C7   10  -0.059   0.269   0.097
    1UNL     O3   11  -0.070   0.324  -0.028
    1UNL     C8   12  -0.037   0.068   0.246
    1UNL     O4   13  -0.096   0.116   0.345
    1UNL     O5   14   0.064  -0.021   0.241
    1UNL     C9   15   0.100  -0.073   0.107
    1UNL    C10   16   0.252  -0.093   0.087
    1UNL    C11   17   0.005  -0.188   0.094
    1UNL    C12   18   0.068  -0.331   0.110
    1UNL    C13   19  -0.095  -0.177  -0.023
    1UNL    C14   20  -0.197  -0.067  -0.008
    1UNL    C15   21  -0.187   0.059   0.044
    1UNL     N2   22  -0.303   0.136   0.031
    1UNL    C16   23  -0.381   0.053  -0.049
    1UNL    C17   24  -0.515   0.073  -0.091
    1UNL    C18   25  -0.581  -0.023  -0.169
    1UNL    C19   26  -0.514  -0.143  -0.201
    1UNL    C20   27  -0.387  -0.174  -0.158
    1UNL    C21   28  -0.322  -0.076  -0.075
    1UNL     H1   29   0.621   0.234  -0.055
    1UNL     H2   30   0.647   0.160  -0.217
    1UNL     H3   31   0.667   0.054  -0.075
    1UNL     H4   32   0.233  -0.106  -0.176
    1UNL     H5   33   0.277   0.052  -0.224
    1UNL     H6   34   0.072   0.164  -0.156
    1UNL     H7   35  -0.002   0.013  -0.166
    1UNL     H8   36   0.154   0.123   0.072
    1UNL     H9   37  -0.144   0.320   0.148
    1UNL    H10   38   0.029   0.316   0.137
    1UNL    H11   39  -0.068   0.422  -0.014
    1UNL    H12   40   0.296  -0.067   0.187
    1UNL    H13   41   0.274  -0.204   0.064
    1UNL    H14   42  -0.057  -0.171   0.186
    1UNL    H15   43   0.156  -0.326   0.044
    1UNL    H16   44   0.005  -0.413   0.074
    1UNL    H17   45   0.088  -0.361   0.215
    1UNL    H18   46  -0.136  -0.281  -0.042
    1UNL    H19   47  -0.046  -0.154  -0.119
    1UNL    H20   48  -0.331   0.229   0.056
    1UNL    H21   49  -0.562   0.164  -0.063
    1UNL    H22   50  -0.693  -0.014  -0.194
    1UNL    H23   51  -0.582  -0.214  -0.247
    1UNL    H24   52  -0.342  -0.272  -0.173
   0.00000   0.00000   0.00000   0.00000   0.00000   0.00000   0.00000   0.00000   0.00000
Generated with MDTraj, t= 92.0
 52
    1UNL     C1    1   0.616   0.156  -0.105
    1UNL     O1    2   0.483   0.127  -0.106
    1UNL     C2    3   0.440   0.029  -0.018
    1UNL     O2    4   0.518  -0.010   0.071
    1UNL     N1    5   0.303  -0.018  -0.022
    1UNL     C3    6   0.226   0.008  -0.145
    1UNL     C4    7   0.090   0.065  -0.120
    1UNL     C5    8   0.071   0.072   0.040
    1UNL     C6    9  -0.060   0.119   0.110
    1UNL     C7   10  -0.059   0.280   0.102
    1UNL     O3   11  -0.074   0.321  -0.041
    1UNL     C8   12  -0.026   0.065   0.249
    1UNL     O4   13  -0.103   0.102   0.340
    1UNL     O5   14   0.075  -0.022   0.254
    1UNL     C9   15   0.101  -0.060   0.111
    1UNL    C10   16   0.247  -0.098   0.093
    1UNL    C11   17   0.007  -0.188   0.095
    1UNL    C12   18   0.073  -0.328   0.099
    1UNL    C13   19  -0.091  -0.178  -0.018
    1UNL    C14   20  -0.201  -0.079  -0.011
    1UNL    C15   21  -0.187   0.052   0.046
    1UNL     N2   22  -0.294   0.128  -0.001
    1UNL    C16   23  -0.391   0.053  -0.065
    1UNL    C17   24  -0.515   0.087  -0.122
    1UNL    C18   25  -0.589  -0.018  -0.168
    1UNL    C19   26  -0.537  -0.147  -0.176
    1UNL    C20   27  -0.410  -0.179  -0.129
    1UNL    C21   28  -0.338  -0.080  -0.066
    1UNL     H1   29   0.654   0.156   0.001
    1UNL     H2   30   0.637   0.253  -0.151
    1UNL     H3   31   0.664   0.073  -0.166
    1UNL     H4   32   0.213  -0.091  -0.188
    1UNL     H5   33   0.297   0.067  -0.204
    1UNL     H6   34   0.078   0.165  -0.167
    1UNL     H7   35   0.026  -0.005  -0.172
    1UNL     H8   36   0.145   0.143   0.084
    1UNL     H9   37  -0.145   0.323   0.154
    1UNL    H10   38   0.025   0.330   0.144
    1UNL    H11   39  -0.068   0.424  -0.049
    1UNL    H12   40   0.294  -0.069   0.193
    1UNL    H13   41   0.256  -0.207   0.064
    1UNL    H14   42  -0.054  -0.184   0.188
    1UNL    H15   43   0.128  -0.340   0.005
    1UNL    H16   44  -0.002  -0.402   0.118
    1UNL    H17   45   0.140  -0.334   0.193
    1UNL    H18   46  -0.151  -0.276  -0.023
    1UNL    H19   47  -0.033  -0.175  -0.112
    1UNL    H20   48  -0.312   0.217   0.031
    1UNL    H21   49  -0.560   0.187  -0.102
    1UNL    H22   50  -0.679   0.010  -0.213
    1UNL    H23   51  -0.596  -0.229  -0.215
    1UNL    H24   52  -0.375  -0.281  -0.133
   0.00000   0.00000   0.00000   0.00000   0.00000   0.00000   0.00000   0.00000   0.00000
Generated with MDTraj, t= 93.0
 52
    1UNL     C1    1   0.609   0.169  -0.083
    1UNL     O1    2   0.492   0.102  -0.118
    1UNL     C2    3   0.443   0.015  -0.025
    1UNL     O2    4   0.502  -0.012   0.080
    1UNL     N1    5   0.310  -0.028  -0.029
    1UNL     C3    6   0.225  -0.003  -0.157
    1UNL     C4    7   0.085   0.049  -0.118
    1UNL     C5    8   0.079   0.069   0.037
    1UNL     C6    9  -0.055   0.124   0.098
    1UNL     C7   10  -0.062   0.278   0.107
    1UNL     O3   11  -0.088   0.351  -0.017
    1UNL     C8   12  -0.044   0.071   0.239
    1UNL     O4   13  -0.124   0.090   0.333
    1UNL     O5   14   0.066  -0.012   0.248
    1UNL     C9   15   0.105  -0.063   0.112
    1UNL    C10   16   0.256  -0.095   0.084
    1UNL    C11   17   0.004  -0.189   0.096
    1UNL    C12   18   0.074  -0.322   0.092
    1UNL    C13   19  -0.095  -0.176  -0.022
    1UNL    C14   20  -0.193  -0.063  -0.009
    1UNL    C15   21  -0.172   0.067   0.024
    1UNL     N2   22  -0.287   0.140  -0.003
    1UNL    C16   23  -0.381   0.055  -0.062
    1UNL    C17   24  -0.510   0.081  -0.108
    1UNL    C18   25  -0.577  -0.029  -0.155
    1UNL    C19   26  -0.538  -0.163  -0.167
    1UNL    C20   27  -0.408  -0.182  -0.125
    1UNL    C21   28  -0.331  -0.074  -0.062
    1UNL     H1   29   0.643   0.138   0.018
    1UNL     H2   30   0.599   0.277  -0.082
    1UNL     H3   31   0.684   0.144  -0.161
    1UNL     H4   32   0.218  -0.104  -0.198
    1UNL     H5   33   0.269   0.062  -0.234
    1UNL     H6   34   0.077   0.152  -0.159
    1UNL     H7   35   0.005  -0.011  -0.161
    1UNL     H8   36   0.154   0.145   0.070
    1UNL     H9   37  -0.138   0.310   0.178
    1UNL    H10   38   0.033   0.316   0.139
    1UNL    H11   39  -0.092   0.450  -0.015
    1UNL    H12   40   0.313  -0.032   0.163
    1UNL    H13   41   0.282  -0.201   0.078
    1UNL    H14   42  -0.058  -0.178   0.187
    1UNL    H15   43   0.114  -0.350  -0.006
    1UNL    H16   44   0.014  -0.403   0.130
    1UNL    H17   45   0.160  -0.328   0.168
    1UNL    H18   46  -0.158  -0.272  -0.023
    1UNL    H19   47  -0.042  -0.173  -0.118
    1UNL    H20   48  -0.280   0.238  -0.002
    1UNL    H21   49  -0.549   0.175  -0.094
    1UNL    H22   50  -0.678  -0.006  -0.190
    1UNL    H23   51  -0.589  -0.242  -0.219
    1UNL    H24   52  -0.372  -0.281  -0.122
   0.00000   0.00000   0.00000   0.00000   0.00000   0.00000   0.00000   0.00000   0.00000
Generated with MDTraj, t= 94.0
 52
    1UNL     C1    1   0.612   0.151  -0.117
    1UNL     O1    2   0.477   0.098  -0.123
    1UNL     C2    3   0.434   0.029  -0.011
    1UNL     O2    4   0.496   0.036   0.096
    1UNL     N1    5   0.315  -0.038  -0.016
    1UNL     C3    6   0.238  -0.031  -0.138
    1UNL     C4    7   0.107   0.055  -0.113
    1UNL     C5    8   0.081   0.067   0.037
    1UNL     C6    9  -0.056   0.119   0.092
    1UNL     C7   10  -0.060   0.273   0.097
    1UNL     O3   11  -0.099   0.335  -0.019
    1UNL     C8   12  -0.039   0.064   0.246
    1UNL     O4   13  -0.105   0.105   0.340
    1UNL     O5   14   0.062  -0.037   0.254
    1UNL     C9   15   0.103  -0.061   0.118
    1UNL    C10   16   0.251  -0.092   0.104
    1UNL    C11   17   0.006  -0.179   0.079
    1UNL    C12   18   0.056  -0.316   0.090
    1UNL    C13   19  -0.080  -0.169  -0.053
    1UNL    C14   20  -0.187  -0.062  -0.033
    1UNL    C15   21  -0.177   0.061   0.024
    1UNL     N2   22  -0.294   0.136   0.001
    1UNL    C16   23  -0.387   0.050  -0.051
    1UNL    C17   24  -0.522   0.076  -0.087
    1UNL    C18   25  -0.593  -0.018  -0.151
    1UNL    C19   26  -0.526  -0.145  -0.164
    1UNL    C20   27  -0.396  -0.175  -0.130
    1UNL    C21   28  -0.322  -0.076  -0.074
    1UNL     H1   29   0.675   0.075  -0.073
    1UNL     H2   30   0.625   0.239  -0.061
    1UNL     H3   31   0.642   0.175  -0.220
    1UNL     H4   32   0.210  -0.132  -0.173
    1UNL     H5   33   0.312   0.000  -0.215
    1UNL     H6   34   0.122   0.157  -0.152
    1UNL     H7   35   0.013   0.024  -0.162
    1UNL     H8   36   0.158   0.139   0.068
    1UNL     H9   37  -0.145   0.291   0.165
    1UNL    H10   38   0.030   0.321   0.136
    1UNL    H11   39  -0.114   0.428  -0.012
    1UNL    H12   40   0.303  -0.061   0.203
    1UNL    H13   41   0.268  -0.192   0.076
    1UNL    H14   42  -0.076  -0.165   0.154
    1UNL    H15   43   0.090  -0.369  -0.002
    1UNL    H16   44  -0.029  -0.372   0.124
    1UNL    H17   45   0.131  -0.337   0.171
    1UNL    H18   46  -0.137  -0.269  -0.067
    1UNL    H19   47  -0.020  -0.159  -0.146
    1UNL    H20   48  -0.291   0.235  -0.018
    1UNL    H21   49  -0.561   0.181  -0.083
    1UNL    H22   50  -0.693  -0.012  -0.198
    1UNL    H23   51  -0.594  -0.221  -0.203
    1UNL    H24   52  -0.344  -0.269  -0.158
   0.00000   0.00000   0.00000   0.00000   0.00000   0.00000   0.00000   0.00000   0.00000
Generated with MDTraj, t= 95.0
 52
    1UNL     C1    1   0.597   0.142  -0.120
    1UNL     O1    2   0.477   0.071  -0.132
    1UNL     C2    3   0.427   0.027  -0.011
    1UNL     O2    4   0.469   0.056   0.105
    1UNL     N1    5   0.307  -0.037  -0.021
    1UNL     C3    6   0.225  -0.027  -0.140
    1UNL     C4    7   0.099   0.052  -0.110
    1UNL     C5    8   0.076   0.069   0.036
    1UNL     C6    9  -0.049   0.123   0.098
    1UNL     C7   10  -0.058   0.274   0.090
    1UNL     O3   11  -0.072   0.318  -0.048
    1UNL     C8   12  -0.044   0.075   0.248
    1UNL     O4   13  -0.113   0.115   0.336
    1UNL     O5   14   0.055  -0.029   0.260
    1UNL     C9   15   0.096  -0.068   0.122
    1UNL    C10   16   0.250  -0.094   0.112
    1UNL    C11   17   0.005  -0.188   0.086
    1UNL    C12   18   0.091  -0.316   0.073
    1UNL    C13   19  -0.086  -0.171  -0.039
    1UNL    C14   20  -0.189  -0.062  -0.030
    1UNL    C15   21  -0.171   0.064   0.031
    1UNL     N2   22  -0.291   0.130   0.040
    1UNL    C16   23  -0.378   0.056  -0.035
    1UNL    C17   24  -0.520   0.064  -0.066
    1UNL    C18   25  -0.587  -0.030  -0.137
    1UNL    C19   26  -0.518  -0.138  -0.199
    1UNL    C20   27  -0.387  -0.158  -0.167
    1UNL    C21   28  -0.320  -0.059  -0.084
    1UNL     H1   29   0.674   0.074  -0.149
    1UNL     H2   30   0.616   0.178  -0.023
    1UNL     H3   31   0.586   0.224  -0.191
    1UNL     H4   32   0.200  -0.125  -0.182
    1UNL     H5   33   0.283   0.015  -0.225
    1UNL     H6   34   0.119   0.152  -0.153
    1UNL     H7   35   0.006   0.024  -0.163
    1UNL     H8   36   0.159   0.134   0.065
    1UNL     H9   37  -0.137   0.312   0.159
    1UNL    H10   38   0.035   0.312   0.140
    1UNL    H11   39  -0.088   0.414  -0.038
    1UNL    H12   40   0.315  -0.038   0.189
    1UNL    H13   41   0.278  -0.194   0.123
    1UNL    H14   42  -0.066  -0.195   0.171
    1UNL    H15   43   0.147  -0.328  -0.024
    1UNL    H16   44   0.020  -0.400   0.081
    1UNL    H17   45   0.155  -0.323   0.161
    1UNL    H18   46  -0.137  -0.270  -0.067
    1UNL    H19   47  -0.023  -0.151  -0.131
    1UNL    H20   48  -0.307   0.217   0.082
    1UNL    H21   49  -0.561   0.158  -0.043
    1UNL    H22   50  -0.691  -0.020  -0.148
    1UNL    H23   51  -0.567  -0.217  -0.251
    1UNL    H24   52  -0.336  -0.236  -0.213
   0.00000   0.00000   0.00000   0.00000   0.00000   0.00000   0.00000   0.00000   0.00000
Generated with MDTraj, t= 96.0
 52
    1UNL     C1    1   0.595   0.154  -0.122
    1UNL     O1    2   0.468   0.095  -0.133
    1UNL     C2    3   0.432   0.025  -0.014
    1UNL     O2    4   0.502   0.030   0.092
    1UNL     N1    5   0.312  -0.041  -0.019
    1UNL     C3    6   0.229  -0.037  -0.139
    1UNL     C4    7   0.107   0.063  -0.112
    1UNL     C5    8   0.072   0.068   0.039
    1UNL     C6    9  -0.059   0.126   0.100
    1UNL     C7   10  -0.061   0.279   0.096
    1UNL     O3   11  -0.022   0.326  -0.040
    1UNL     C8   12  -0.042   0.079   0.248
    1UNL     O4   13  -0.106   0.132   0.329
    1UNL     O5   14   0.052  -0.028   0.256
    1UNL     C9   15   0.095  -0.059   0.124
    1UNL    C10   16   0.253  -0.095   0.114
    1UNL    C11   17  -0.001  -0.186   0.083
    1UNL    C12   18   0.085  -0.315   0.070
    1UNL    C13   19  -0.084  -0.164  -0.041
    1UNL    C14   20  -0.197  -0.064  -0.017
    1UNL    C15   21  -0.189   0.058   0.051
    1UNL     N2   22  -0.315   0.110   0.041
    1UNL    C16   23  -0.401   0.039  -0.033
    1UNL    C17   24  -0.533   0.068  -0.074
    1UNL    C18   25  -0.586  -0.028  -0.158
    1UNL    C19   26  -0.516  -0.142  -0.202
    1UNL    C20   27  -0.386  -0.164  -0.159
    1UNL    C21   28  -0.331  -0.074  -0.073
    1UNL     H1   29   0.649   0.089  -0.053
    1UNL     H2   30   0.585   0.252  -0.077
    1UNL     H3   31   0.641   0.157  -0.224
    1UNL     H4   32   0.198  -0.136  -0.173
    1UNL     H5   33   0.278   0.008  -0.227
    1UNL     H6   34   0.132   0.164  -0.148
    1UNL     H7   35   0.020   0.026  -0.170
    1UNL     H8   36   0.148   0.135   0.079
    1UNL     H9   37  -0.158   0.308   0.146
    1UNL    H10   38   0.018   0.308   0.171
    1UNL    H11   39  -0.026   0.429  -0.041
    1UNL    H12   40   0.304  -0.034   0.193
    1UNL    H13   41   0.287  -0.196   0.135
    1UNL    H14   42  -0.075  -0.208   0.163
    1UNL    H15   43   0.178  -0.299   0.011
    1UNL    H16   44   0.022  -0.389   0.012
    1UNL    H17   45   0.105  -0.348   0.169
    1UNL    H18   46  -0.138  -0.264  -0.060
    1UNL    H19   47  -0.021  -0.150  -0.133
    1UNL    H20   48  -0.353   0.182   0.092
    1UNL    H21   49  -0.581   0.162  -0.053
    1UNL    H22   50  -0.693  -0.015  -0.186
    1UNL    H23   51  -0.562  -0.208  -0.278
    1UNL    H24   52  -0.329  -0.255  -0.184
   0.00000   0.00000   0.00000   0.00000   0.00000   0.00000   0.00000   0.00000   0.00000
Generated with MDTraj, t= 97.0
 52
    1UNL     C1    1   0.600   0.155  -0.111
    1UNL     O1    2   0.471   0.103  -0.125
    1UNL     C2    3   0.431   0.031  -0.022
    1UNL     O2    4   0.508   0.003   0.072
    1UNL     N1    5   0.304  -0.019  -0.020
    1UNL     C3    6   0.222  -0.014  -0.141
    1UNL     C4    7   0.086   0.072  -0.109
    1UNL     C5    8   0.072   0.064   0.042
    1UNL     C6    9  -0.054   0.117   0.100
    1UNL     C7   10  -0.052   0.275   0.097
    1UNL     O3   11  -0.035   0.331  -0.025
    1UNL     C8   12  -0.056   0.064   0.248
    1UNL     O4   13  -0.111   0.110   0.343
    1UNL     O5   14   0.053  -0.026   0.251
    1UNL     C9   15   0.091  -0.063   0.123
    1UNL    C10   16   0.247  -0.092   0.104
    1UNL    C11   17  -0.000  -0.184   0.090
    1UNL    C12   18   0.074  -0.318   0.090
    1UNL    C13   19  -0.090  -0.171  -0.035
    1UNL    C14   20  -0.195  -0.058  -0.021
    1UNL    C15   21  -0.181   0.066   0.035
    1UNL     N2   22  -0.294   0.140   0.008
    1UNL    C16   23  -0.383   0.055  -0.059
    1UNL    C17   24  -0.511   0.068  -0.092
    1UNL    C18   25  -0.587  -0.039  -0.143
    1UNL    C19   26  -0.523  -0.159  -0.173
    1UNL    C20   27  -0.387  -0.177  -0.148
    1UNL    C21   28  -0.323  -0.072  -0.086
    1UNL     H1   29   0.597   0.194  -0.007
    1UNL     H2   30   0.613   0.241  -0.180
    1UNL     H3   31   0.676   0.071  -0.123
    1UNL     H4   32   0.188  -0.111  -0.179
    1UNL     H5   33   0.275   0.035  -0.223
    1UNL     H6   34   0.076   0.176  -0.145
    1UNL     H7   35   0.005   0.020  -0.163
    1UNL     H8   36   0.148   0.131   0.082
    1UNL     H9   37  -0.150   0.302   0.143
    1UNL    H10   38   0.034   0.304   0.163
    1UNL    H11   39  -0.036   0.429  -0.034
    1UNL    H12   40   0.320  -0.055   0.178
    1UNL    H13   41   0.268  -0.205   0.099
    1UNL    H14   42  -0.066  -0.189   0.179
    1UNL    H15   43   0.165  -0.330   0.031
    1UNL    H16   44   0.009  -0.403   0.047
    1UNL    H17   45   0.092  -0.354   0.191
    1UNL    H18   46  -0.134  -0.274  -0.057
    1UNL    H19   47  -0.021  -0.159  -0.120
    1UNL    H20   48  -0.304   0.238   0.008
    1UNL    H21   49  -0.558   0.152  -0.042
    1UNL    H22   50  -0.687  -0.027  -0.170
    1UNL    H23   51  -0.580  -0.239  -0.213
    1UNL    H24   52  -0.346  -0.276  -0.156
   0.00000   0.00000   0.00000   0.00000   0.00000   0.00000   0.00000   0.00000   0.00000
Generated with MDTraj, t= 98.0
 52
    1UNL     C1    1   0.607   0.148  -0.103
    1UNL     O1    2   0.482   0.092  -0.126
    1UNL     C2    3   0.435   0.027  -0.016
    1UNL     O2    4   0.505   0.009   0.089
    1UNL     N1    5   0.307  -0.023  -0.028
    1UNL     C3    6   0.227  -0.015  -0.147
    1UNL     C4    7   0.106   0.071  -0.126
    1UNL     C5    8   0.078   0.077   0.031
    1UNL     C6    9  -0.054   0.123   0.097
    1UNL     C7   10  -0.068   0.285   0.114
    1UNL     O3   11  -0.090   0.349  -0.008
    1UNL     C8   12  -0.041   0.054   0.237
    1UNL     O4   13  -0.124   0.069   0.321
    1UNL     O5   14   0.081  -0.016   0.244
    1UNL     C9   15   0.104  -0.052   0.113
    1UNL    C10   16   0.246  -0.098   0.085
    1UNL    C11   17  -0.005  -0.175   0.093
    1UNL    C12   18   0.058  -0.315   0.113
    1UNL    C13   19  -0.084  -0.177  -0.037
    1UNL    C14   20  -0.189  -0.068  -0.022
    1UNL    C15   21  -0.169   0.062   0.028
    1UNL     N2   22  -0.284   0.136  -0.000
    1UNL    C16   23  -0.381   0.049  -0.056
    1UNL    C17   24  -0.515   0.077  -0.102
    1UNL    C18   25  -0.590  -0.024  -0.151
    1UNL    C19   26  -0.529  -0.149  -0.162
    1UNL    C20   27  -0.397  -0.182  -0.123
    1UNL    C21   28  -0.326  -0.076  -0.063
    1UNL     H1   29   0.588   0.256  -0.105
    1UNL     H2   30   0.679   0.122  -0.184
    1UNL     H3   31   0.644   0.117  -0.002
    1UNL     H4   32   0.206  -0.117  -0.180
    1UNL     H5   33   0.283   0.032  -0.230
    1UNL     H6   34   0.129   0.168  -0.174
    1UNL     H7   35   0.011   0.044  -0.175
    1UNL     H8   36   0.153   0.152   0.057
    1UNL     H9   37  -0.149   0.301   0.186
    1UNL    H10   38   0.026   0.322   0.156
    1UNL    H11   39  -0.101   0.441   0.002
    1UNL    H12   40   0.302  -0.057   0.170
    1UNL    H13   41   0.274  -0.211   0.079
    1UNL    H14   42  -0.081  -0.170   0.174
    1UNL    H15   43   0.128  -0.342   0.035
    1UNL    H16   44  -0.017  -0.401   0.113
    1UNL    H17   45   0.110  -0.323   0.211
    1UNL    H18   46  -0.137  -0.275  -0.050
    1UNL    H19   47  -0.018  -0.168  -0.124
    1UNL    H20   48  -0.282   0.237  -0.000
    1UNL    H21   49  -0.565   0.169  -0.081
    1UNL    H22   50  -0.694   0.002  -0.187
    1UNL    H23   51  -0.580  -0.231  -0.213
    1UNL    H24   52  -0.355  -0.278  -0.141
   0.00000   0.00000   0.00000   0.00000   0.00000   0.00000   0.00000   0.00000   0.00000
Generated with MDTraj, t= 99.0
 52
    1UNL     C1    1   0.628   0.142  -0.107
    1UNL     O1    2   0.497   0.086  -0.136
    1UNL     C2    3   0.442   0.039  -0.021
    1UNL     O2    4   0.506   0.034   0.088
    1UNL     N1    5   0.309  -0.015  -0.022
    1UNL     C3    6   0.233  -0.014  -0.148
    1UNL     C4    7   0.097   0.056  -0.121
    1UNL     C5    8   0.074   0.072   0.035
    1UNL     C6    9  -0.060   0.115   0.104
    1UNL     C7   10  -0.060   0.272   0.113
    1UNL     O3   11  -0.120   0.323  -0.009
    1UNL     C8   12  -0.036   0.069   0.243
    1UNL     O4   13  -0.106   0.098   0.338
    1UNL     O5   14   0.071  -0.020   0.249
    1UNL     C9   15   0.108  -0.067   0.116
    1UNL    C10   16   0.253  -0.097   0.094
    1UNL    C11   17  -0.004  -0.182   0.090
    1UNL    C12   18   0.061  -0.325   0.105
    1UNL    C13   19  -0.102  -0.177  -0.028
    1UNL    C14   20  -0.196  -0.067  -0.022
    1UNL    C15   21  -0.173   0.061   0.026
    1UNL     N2   22  -0.291   0.127   0.012
    1UNL    C16   23  -0.380   0.054  -0.063
    1UNL    C17   24  -0.510   0.083  -0.096
    1UNL    C18   25  -0.584  -0.017  -0.151
    1UNL    C19   26  -0.537  -0.151  -0.171
    1UNL    C20   27  -0.408  -0.169  -0.147
    1UNL    C21   28  -0.323  -0.070  -0.085
    1UNL     H1   29   0.638   0.233  -0.161
    1UNL     H2   30   0.709   0.076  -0.139
    1UNL     H3   31   0.641   0.164  -0.002
    1UNL     H4   32   0.211  -0.115  -0.184
    1UNL     H5   33   0.300   0.030  -0.224
    1UNL     H6   34   0.079   0.155  -0.166
    1UNL     H7   35   0.018   0.001  -0.170
    1UNL     H8   36   0.153   0.146   0.053
    1UNL     H9   37  -0.119   0.298   0.199
    1UNL    H10   38   0.040   0.312   0.128
    1UNL    H11   39  -0.134   0.419   0.013
    1UNL    H12   40   0.315  -0.062   0.177
    1UNL    H13   41   0.272  -0.208   0.080
    1UNL    H14   42  -0.074  -0.173   0.176
    1UNL    H15   43   0.100  -0.362   0.012
    1UNL    H16   44  -0.006  -0.401   0.150
    1UNL    H17   45   0.148  -0.313   0.177
    1UNL    H18   46  -0.159  -0.271  -0.035
    1UNL    H19   47  -0.046  -0.169  -0.121
    1UNL    H20   48  -0.310   0.217   0.045
    1UNL    H21   49  -0.541   0.190  -0.089
    1UNL    H22   50  -0.685  -0.007  -0.168
    1UNL    H23   51  -0.604  -0.219  -0.218
    1UNL    H24   52  -0.363  -0.263  -0.180
   0.00000   0.00000   0.00000   0.00000   0.00000   0.00000   0.00000   0.00000   0.00000
