1TPCN05178
15
    1res  C1    1    0.384   0.258   0.155
    1res  C2    2    0.617   0.068   0.199
    1res  C3    3    0.511   0.111  -0.129
    1res  C4    4    0.276   0.039  -0.045
    1res  C5    5    0.430  -0.177   0.118
    1res  C6    6    0.240  -0.147  -0.220
    1res  C7    7    0.099  -0.238  -0.001
    1res  C8    8   -0.046  -0.021   0.188
    1res  C9    9   -0.143  -0.206  -0.128
    1res  C10   10   -0.388  -0.162  -0.049
    1res  C11   11   -0.409   0.005   0.219
    1res  C12   12   -0.462   0.257   0.104
    1res  C13   13   -0.607   0.026  -0.062
    1res  C14   14   -0.500   0.231  -0.199
    1res  C15   15   -0.151   0.098  -0.137
  10.00000  10.00000  10.00000
