1TPCN06181
25
    1res  C1    1   -0.447  -0.072   0.185
    1res  C2    2   -0.649  -0.068   0.036
    1res  C3    3   -0.665   0.218   0.014
    1res  C4    4   -0.682   0.518   0.100
    1res  C5    5   -0.936   0.247   0.122
    1res  C6    6   -0.969   0.205  -0.092
    1res  C7    7   -0.833   0.060  -0.172
    1res  C8    8   -0.488  -0.348   0.047
    1res  C9    9   -0.287  -0.221  -0.031
    1res  C10   10   -0.487  -0.164  -0.288
    1res  C11   11   -0.184  -0.385  -0.194
    1res  C12   12   -0.091  -0.151  -0.289
    1res  C13   13   -0.052   0.092  -0.110
    1res  C14   14    0.176  -0.172  -0.213
    1res  C15   15    0.180  -0.010   0.097
    1res  C16   16    0.358   0.219   0.067
    1res  C17   17    0.549   0.078   0.078
    1res  C18   18    0.794   0.115  -0.020
    1res  C19   19    0.736   0.153  -0.265
    1res  C20   20    0.952   0.305  -0.081
    1res  C21   21    1.021   0.172   0.113
    1res  C22   22    0.827   0.175   0.261
    1res  C23   23    0.554  -0.170   0.087
    1res  C24   24    0.441  -0.125   0.322
    1res  C25   25    0.174  -0.279   0.056
  10.00000  10.00000  10.00000
