1Campsterol
10
    1res  C1    1   -0.757  -0.014  -0.023
    1res  C2    2   -0.448   0.152   0.070
    1res  C3    3   -0.405  -0.194   0.174
    1res  C4    4   -0.267  -0.034   0.055
    1res  C5    5   -0.101   0.085  -0.104
    1res  C6    6   -0.020   0.029   0.130
    1res  C7    7    0.065  -0.195   0.179
    1res  C8    8    0.345   0.053   0.033
    1res  C9    9    0.656  -0.003  -0.149
    1res  C10   10   -0.557   0.122  -0.180
  10.00000  10.00000  10.00000
