[ moleculetype ]
; name        nrexcl
res           1

[ atoms ]
;    nr  type resnr resid  atom  cgnr     charge       mass
      1 SN6       1 res   C1        1      0.000     54.000
      2 SC4       1 res   C2        2      0.000     54.000
      3 TC3       1 res   C3        3      0.000     36.000
      4 TC5       1 res   C4        4      0.000     36.000
      5 TC3       1 res   C5        5      0.000     36.000
      6 SC4       1 res   C6        6      0.000     54.000
      7 SC3       1 res   C7        7      0.000     54.000
      8 C1        1 res   C8        8      0.000     72.000
      9 C2        1 res   C9        9      0.000     72.000
     10 TC3       1 res   C10      10      0.000     36.000

[ bonds ]
;  ai    aj   funct      b0(nm)        k
    1     2     1      0.36302    20000
    1    10     1      0.28917    20000
    2     3     1      0.36359    20000
    2     4     1      0.25964    20000
    2    10     1      0.27431    20000
    3     4     1      0.24255    20000
    4     5     1      0.25897    20000
    4     6     1      0.26565    20000
    5     6     1      0.25438    20000
    6     7     1      0.24397    20000
    7     8     1      0.40104    20000
    8     9     1      0.36468    20000
