[ moleculetype ]
; name        nrexcl
res           1

[ atoms ]
;    nr  type  resnr resid  atom  cgnr     charge       mass
      1 SP2       1 res   C1        1      0.000     54.000
      2 TC5       1 res   C2        2      0.000     36.000
      3 TN4a      1 res   C3        3      0.000     36.000
      4 TN6       1 res   C4        4      0.000     36.000
      5 TN4a      1 res   C5        5      0.000     36.000
      6 TP1       1 res   C6        6      0.000     36.000
      7 TN6       1 res   C7        7      0.000     36.000
      8 TN6       1 res   C8        8      0.000     36.000
      9 TN6       1 res   C9        9      0.000     36.000
     10 SC3       1 res   C10      10      0.000     54.000
     11 TC5       1 res   C11      11      0.000     36.000
     12 TN2a      1 res   C12      12      0.000     36.000

[ bonds ]
;  ai    aj   funct      b0(nm)          k(kJ/mol/nm^2)
    1     2     1      0.28065          74139.6
    2     3     1      0.26158         141148.6
    2    10     1      0.29758          58305.8
    3     4     1      0.22705          29720.0
    3    10     1      0.30919          35483.5
    4     5     1      0.26417          76139.8
    4     9     1      0.22810          52446.5
    5     6     1      0.20697          39490.0
    5     7     1      0.26368         104291.0
    7     8     1      0.21225          20393.8
    8     9     1      0.25795          13164.3
   10    11     1      0.21103         111587.9
   11    12     1      0.24957          10584.9

[ angles ]
;  ai    aj    ak  funct     th0(deg)        k(kJ/mol/rad^2)
    1     2     3     1    135.23154           343.52
    1     2    10     1     73.31201          1153.61
    2     3     4     1    109.05747           232.48
    2     3    10     1     62.17449          5127.55
    2    10     3     1     51.05378          3177.59
    2    10    11     1    137.10910           207.58
    3     2    10     1     66.77173          3031.15
    3     4     5     1     89.34032           223.32
    3     4     9     1    153.13293           125.12
    3    10    11     1     93.45497          1103.59
    4     3    10     1     95.12745           207.69
    4     5     6     1    119.57584           224.61
    4     5     7     1     89.88846           296.26
    4     9     8     1     85.13028           197.38
    5     4     9     1     67.50876           583.42
    5     7     8     1     86.39669           816.50
    6     5     7     1     90.62142           582.72
    7     8     9     1    105.90492           347.96
   10    11    12     1    113.81604           206.03
