1TPCN06274
29
    1res  C1    1    0.336   0.334   0.198
    1res  C2    2    0.247   0.108  -0.037
    1res  C3    3    0.396  -0.064  -0.078
    1res  C4    4    0.623  -0.183  -0.223
    1res  C5    5    0.819  -0.162  -0.086
    1res  C6    6    1.052   0.022  -0.021
    1res  C7    7    1.219  -0.093   0.093
    1res  C8    8    1.173   0.218   0.116
    1res  C9    9    0.975   0.209   0.242
    1res  C10   10    0.823   0.107   0.124
    1res  C11   11    0.778  -0.387  -0.267
    1res  C12   12    0.624  -0.364  -0.460
    1res  C13   13    0.398  -0.337  -0.347
    1res  C14   14    0.061   0.038  -0.202
    1res  C15   15   -0.029   0.151   0.035
    1res  C16   16   -0.119  -0.096   0.223
    1res  C17   17   -0.270   0.032  -0.100
    1res  C18   18   -0.458  -0.134  -0.077
    1res  C19   19   -0.474  -0.346   0.114
    1res  C20   20   -0.752  -0.257   0.083
    1res  C21   21   -0.610  -0.113   0.303
    1res  C22   22   -0.777   0.016   0.129
    1res  C23   23   -1.026   0.089  -0.004
    1res  C24   24   -1.282   0.007  -0.143
    1res  C25   25   -1.183   0.290  -0.093
    1res  C26   26   -0.981   0.332  -0.206
    1res  C27   27   -0.811   0.191  -0.157
    1res  C28   28   -0.375   0.138   0.156
    1res  C29   29    0.251   0.066   0.299
  10.00000  10.00000  10.00000
