1TPCN02646
9
    1res  C1    1    0.490   0.179   0.164
    1res  C2    2    0.366  -0.087   0.089
    1res  C3    3    0.105   0.092  -0.024
    1res  C4    4   -0.065   0.090   0.164
    1res  C5    5   -0.083   0.046  -0.206
    1res  C6    6   -0.390   0.034  -0.129
    1res  C7    7   -0.431   0.007   0.203
    1res  C8    8   -0.136  -0.217  -0.084
    1res  C9    9    0.306   0.053  -0.148
  10.00000  10.00000  10.00000
