[ moleculetype ]
; name        nrexcl
res           1

[ atoms ]
;    nr  type  resnr resid  atom  cgnr     charge       mass
      1 TC5       1 res   C1        1      0.000     36.000
      2 TN6a      1 res   C2        2      0.000     36.000
      3 TN6d      1 res   C3        3      0.000     36.000

[ bonds ]
;  ai    aj   funct      b0(nm)          k(kJ/mol/nm^2)
    1     2     1      0.24003         131331.2
    1     3     1      0.24399          76856.4
    2     3     1      0.25688         143066.0

[ angles ]
;  ai    aj    ak  funct     th0(deg)        k(kJ/mol/rad^2)
    1     2     3     1     58.69336          3574.09
    1     3     2     1     57.18962          6333.68
    2     1     3     1     64.11703          3113.22

[ dihedrals ]
;  ai    aj    ak    al  funct   phi0(deg)        k(kJ/mol)   mult
