[ moleculetype ]
; name        nrexcl
res           1

[ atoms ]
;    nr  type  resnr resid  atom  cgnr     charge       mass
      1 TC5       1 res   C1        1      0.000     36.000
      2 TC6       1 res   C2        2      0.000     36.000
      3 TC5       1 res   C3        3      0.000     36.000
      4 TC3       1 res   C4        4      0.000     36.000

[ constraints ]
;  ai    aj   funct      b0(nm)
    1     2     1      0.24316
    1     3     1      0.25054
    2     3     1      0.25807

[ bonds ]
;  ai    aj   funct      b0(nm)          k(kJ/mol/nm^2)
    3     4     1      0.27628           5872.8

[ angles ]
;  ai    aj    ak  funct     th0(deg)        k(kJ/mol/rad^2)
    1     2     3     1     59.89907          3894.07
    1     3     2     1     57.08664          8178.27
    1     3     4     1    134.15098            76.99
    2     1     3     1     63.01426          3728.71
    2     3     4     1     78.83401            73.06

[ dihedrals ]
;  ai    aj    ak    al  funct   phi0(deg)        k(kJ/mol)   mult
    1     2     3     4     1     -0.68304       18.452      1
    2     1     3     4     1   -178.47171       24.066      1
