[ moleculetype ]
; name        nrexcl
res           1

[ atoms ]
;    nr  type resnr resid  atom  cgnr     charge       mass
      1 TC4       1 res   C1        1      0.000     36.000
      2 TN4a      1 res   C2        2      0.000     36.000
      3 TN6       1 res   C3        3      0.000     36.000
      4 TN6       1 res   C4        4      0.000     36.000
      5 TN4a      1 res   C5        5      0.000     36.000
      6 SP2       1 res   C6        6      0.000     54.000
      7 TN6       1 res   C7        7      0.000     36.000
      8 SC3       1 res   C8        8      0.000     54.000
      9 SC4       1 res   C9        9      0.000     54.000
     10 TC3       1 res   C10      10      0.000     36.000
     11 SC4       1 res   C11      11      0.000     54.000
     12 TC3       1 res   C12      12      0.000     36.000
     13 SC4       1 res   C13      13      0.000     54.000
     14 SC5       1 res   C14      14      0.000     54.000
     15 SC4       1 res   C15      15      0.000     54.000
     16 TC3       1 res   C16      16      0.000     36.000
     17 SN4a      1 res   C17      17      0.000     54.000
     18 SN4a      1 res   C18      18      0.000     54.000
     19 TP1       1 res   C19      19      0.000     36.000
     20 TN6       1 res   C20      20      0.000     36.000
     21 TN6       1 res   C21      21      0.000     36.000
     22 TN6       1 res   C22      22      0.000     36.000
     23 TC3       1 res   C23      23      0.000     36.000
     24 SC4       1 res   C24      24      0.000     54.000
     25 TN6       1 res   C25      25      0.000     36.000
     26 SN4a      1 res   C26      26      0.000     54.000
     27 TP1       1 res   C27      27      0.000     36.000
     28 TN6       1 res   C28      28      0.000     36.000
     29 TN6       1 res   C29      29      0.000     36.000
     30 TN6       1 res   C30      30      0.000     36.000
     31 TN6       1 res   C31      31      0.000     36.000
     32 TN6       1 res   C32      32      0.000     36.000
     33 TN6       1 res   C33      33      0.000     36.000

[ bonds ]
;  ai    aj   funct      b0(nm)        k
    1     2     1      0.29870    20000
    1    33     1      0.26927    20000
    2     3     1      0.21762    20000
    2    31     1      0.25799    20000
    3     4     1      0.20782    20000
    3    25     1      0.20347    20000
    4     5     1      0.26106    20000
    5     6     1      0.25739    20000
    5     7     1      0.24467    20000
    7     8     1      0.32628    20000
    7    25     1      0.20849    20000
    8     9     1      0.25339    20000
    8    24     1      0.35851    20000
    9    10     1      0.31983    20000
    9    11     1      0.34360    20000
    9    24     1      0.31976    20000
   10    11     1      0.27381    20000
   11    12     1      0.31393    20000
   11    13     1      0.34215    20000
   12    13     1      0.29580    20000
   13    14     1      0.38003    20000
   13    23     1      0.26981    20000
   14    15     1      0.27364    20000
   14    16     1      0.28136    20000
   14    17     1      0.30896    20000
   14    23     1      0.35604    20000
   15    16     1      0.29252    20000
   17    18     1      0.29459    20000
   18    19     1      0.29695    20000
   18    20     1      0.30406    20000
   18    22     1      0.29593    20000
   20    21     1      0.22616    20000
   21    22     1      0.23347    20000
   25    26     1      0.30549    20000
   26    27     1      0.24164    20000
   26    28     1      0.24676    20000
   26    30     1      0.30828    20000
   28    29     1      0.27321    20000
   29    30     1      0.23433    20000
   31    32     1      0.24908    20000
   32    33     1      0.23383    20000
