Generated with MDTraj, t= 0.0
 49
    1UNL     C1    1   0.392  -0.248   0.133
    1UNL     C2    2   0.331  -0.139   0.055
    1UNL     C3    3   0.212  -0.146  -0.003
    1UNL     C4    4   0.129  -0.270   0.003
    1UNL     N1    5  -0.009  -0.247  -0.049
    1UNL     C5    6  -0.016  -0.190  -0.186
    1UNL     C6    7   0.078  -0.070  -0.207
    1UNL     C7    8   0.156  -0.027  -0.080
    1UNL     C8    9   0.076   0.077   0.007
    1UNL     C9   10   0.117   0.076   0.156
    1UNL     O1   11   0.037   0.164   0.232
    1UNL    C10   12   0.113   0.214  -0.051
    1UNL     O2   13   0.046   0.264  -0.138
    1UNL     O3   14   0.227   0.270   0.000
    1UNL    C11   15   0.249   0.393  -0.060
    1UNL    C12   16  -0.075   0.060   0.001
    1UNL     N2   17  -0.159   0.169  -0.006
    1UNL    C13   18  -0.290   0.127   0.005
    1UNL    C14   19  -0.412   0.197  -0.002
    1UNL    C15   20  -0.528   0.126   0.012
    1UNL    C16   21  -0.527  -0.012   0.033
    1UNL    C17   22  -0.409  -0.082   0.039
    1UNL    C18   23  -0.288  -0.012   0.025
    1UNL    C19   24  -0.151  -0.053   0.024
    1UNL    C20   25  -0.106  -0.193   0.049
    1UNL     H1   26   0.396  -0.341   0.075
    1UNL     H2   27   0.334  -0.269   0.224
    1UNL     H3   28   0.494  -0.225   0.164
    1UNL     H4   29   0.385  -0.046   0.047
    1UNL     H5   30   0.176  -0.349  -0.056
    1UNL     H6   31   0.123  -0.307   0.106
    1UNL     H7   32   0.006  -0.270  -0.257
    1UNL     H8   33  -0.120  -0.162  -0.205
    1UNL     H9   34   0.021   0.017  -0.244
    1UNL    H10   35   0.149  -0.093  -0.288
    1UNL    H11   36   0.245   0.028  -0.114
    1UNL    H12   37   0.222   0.107   0.168
    1UNL    H13   38   0.107  -0.024   0.198
    1UNL    H14   39  -0.042   0.183   0.175
    1UNL    H15   40   0.164   0.459  -0.039
    1UNL    H16   41   0.341   0.437  -0.020
    1UNL    H17   42   0.258   0.379  -0.168
    1UNL    H18   43  -0.131   0.261  -0.041
    1UNL    H19   44  -0.411   0.303  -0.018
    1UNL    H20   45  -0.622   0.178   0.007
    1UNL    H21   46  -0.621  -0.065   0.043
    1UNL    H22   47  -0.409  -0.189   0.055
    1UNL    H23   48  -0.064  -0.200   0.149
    1UNL    H24   49  -0.193  -0.259   0.049
   0.00000   0.00000   0.00000   0.00000   0.00000   0.00000   0.00000   0.00000   0.00000
Generated with MDTraj, t= 1.0
 49
    1UNL     C1    1   0.389  -0.289   0.106
    1UNL     C2    2   0.339  -0.164   0.053
    1UNL     C3    3   0.210  -0.144   0.018
    1UNL     C4    4   0.122  -0.269   0.005
    1UNL     N1    5  -0.008  -0.234  -0.060
    1UNL     C5    6   0.002  -0.164  -0.196
    1UNL     C6    7   0.115  -0.049  -0.197
    1UNL     C7    8   0.168  -0.012  -0.052
    1UNL     C8    9   0.065   0.084   0.017
    1UNL     C9   10   0.093   0.083   0.160
    1UNL     O1   11   0.032   0.191   0.236
    1UNL    C10   12   0.107   0.217  -0.052
    1UNL     O2   13   0.035   0.279  -0.127
    1UNL     O3   14   0.237   0.254  -0.021
    1UNL    C11   15   0.274   0.381  -0.083
    1UNL    C12   16  -0.080   0.064   0.005
    1UNL     N2   17  -0.170   0.162  -0.034
    1UNL    C13   18  -0.302   0.121  -0.004
    1UNL    C14   19  -0.422   0.186  -0.002
    1UNL    C15   20  -0.535   0.117   0.014
    1UNL    C16   21  -0.532  -0.023   0.048
    1UNL    C17   22  -0.411  -0.090   0.066
    1UNL    C18   23  -0.294  -0.016   0.029
    1UNL    C19   24  -0.152  -0.049   0.027
    1UNL    C20   25  -0.103  -0.186   0.049
    1UNL     H1   26   0.401  -0.372   0.030
    1UNL     H2   27   0.325  -0.326   0.178
    1UNL     H3   28   0.489  -0.280   0.150
    1UNL     H4   29   0.409  -0.081   0.045
    1UNL     H5   30   0.168  -0.350  -0.051
    1UNL     H6   31   0.101  -0.321   0.099
    1UNL     H7   32   0.021  -0.243  -0.270
    1UNL     H8   33  -0.093  -0.124  -0.234
    1UNL     H9   34   0.093   0.046  -0.245
    1UNL    H10   35   0.199  -0.094  -0.251
    1UNL    H11   36   0.257   0.054  -0.054
    1UNL    H12   37   0.199   0.085   0.195
    1UNL    H13   38   0.061  -0.015   0.205
    1UNL    H14   39  -0.055   0.219   0.198
    1UNL    H15   40   0.224   0.390  -0.177
    1UNL    H16   41   0.246   0.457  -0.020
    1UNL    H17   42   0.377   0.382  -0.092
    1UNL    H18   43  -0.131   0.258  -0.040
    1UNL    H19   44  -0.429   0.281  -0.049
    1UNL    H20   45  -0.621   0.166  -0.023
    1UNL    H21   46  -0.624  -0.078   0.037
    1UNL    H22   47  -0.406  -0.193   0.085
    1UNL    H23   48  -0.063  -0.195   0.150
    1UNL    H24   49  -0.188  -0.258   0.048
   0.00000   0.00000   0.00000   0.00000   0.00000   0.00000   0.00000   0.00000   0.00000
Generated with MDTraj, t= 2.0
 49
    1UNL     C1    1   0.388  -0.265   0.121
    1UNL     C2    2   0.315  -0.152   0.065
    1UNL     C3    3   0.189  -0.150   0.012
    1UNL     C4    4   0.121  -0.279  -0.013
    1UNL     N1    5  -0.017  -0.252  -0.067
    1UNL     C5    6  -0.009  -0.177  -0.196
    1UNL     C6    7   0.086  -0.058  -0.199
    1UNL     C7    8   0.150  -0.023  -0.065
    1UNL     C8    9   0.071   0.092   0.015
    1UNL     C9   10   0.106   0.104   0.166
    1UNL     O1   11   0.026   0.200   0.244
    1UNL    C10   12   0.108   0.226  -0.044
    1UNL     O2   13   0.034   0.294  -0.108
    1UNL     O3   14   0.241   0.260  -0.026
    1UNL    C11   15   0.295   0.373  -0.092
    1UNL    C12   16  -0.074   0.058   0.008
    1UNL     N2   17  -0.165   0.163  -0.013
    1UNL    C13   18  -0.292   0.117   0.001
    1UNL    C14   19  -0.412   0.185  -0.002
    1UNL    C15   20  -0.530   0.115   0.017
    1UNL    C16   21  -0.522  -0.023   0.034
    1UNL    C17   22  -0.405  -0.092   0.050
    1UNL    C18   23  -0.287  -0.020   0.022
    1UNL    C19   24  -0.147  -0.060   0.022
    1UNL    C20   25  -0.094  -0.198   0.045
    1UNL     H1   26   0.430  -0.342   0.049
    1UNL     H2   27   0.329  -0.314   0.189
    1UNL     H3   28   0.481  -0.231   0.167
    1UNL     H4   29   0.368  -0.058   0.061
    1UNL     H5   30   0.173  -0.343  -0.081
    1UNL     H6   31   0.123  -0.348   0.073
    1UNL     H7   32   0.039  -0.244  -0.268
    1UNL     H8   33  -0.105  -0.152  -0.240
    1UNL     H9   34   0.027   0.026  -0.238
    1UNL    H10   35   0.179  -0.072  -0.263
    1UNL    H11   36   0.243   0.030  -0.090
    1UNL    H12   37   0.218   0.114   0.179
    1UNL    H13   38   0.083   0.010   0.229
    1UNL    H14   39  -0.048   0.219   0.184
    1UNL    H15   40   0.345   0.339  -0.177
    1UNL    H16   41   0.225   0.447  -0.111
    1UNL    H17   42   0.362   0.400  -0.017
    1UNL    H18   43  -0.161   0.258  -0.056
    1UNL    H19   44  -0.402   0.296  -0.016
    1UNL    H20   45  -0.633   0.164   0.031
    1UNL    H21   46  -0.613  -0.079   0.052
    1UNL    H22   47  -0.395  -0.199   0.084
    1UNL    H23   48  -0.031  -0.203   0.132
    1UNL    H24   49  -0.179  -0.270   0.067
   0.00000   0.00000   0.00000   0.00000   0.00000   0.00000   0.00000   0.00000   0.00000
Generated with MDTraj, t= 3.0
 49
    1UNL     C1    1   0.357  -0.221   0.171
    1UNL     C2    2   0.325  -0.134   0.060
    1UNL     C3    3   0.218  -0.150  -0.026
    1UNL     C4    4   0.119  -0.266  -0.015
    1UNL     N1    5  -0.016  -0.232  -0.055
    1UNL     C5    6  -0.024  -0.178  -0.187
    1UNL     C6    7   0.076  -0.063  -0.215
    1UNL     C7    8   0.159  -0.029  -0.087
    1UNL     C8    9   0.078   0.071   0.010
    1UNL     C9   10   0.127   0.069   0.153
    1UNL     O1   11   0.060   0.162   0.235
    1UNL    C10   12   0.116   0.214  -0.052
    1UNL     O2   13   0.034   0.282  -0.112
    1UNL     O3   14   0.247   0.249  -0.026
    1UNL    C11   15   0.283   0.379  -0.075
    1UNL    C12   16  -0.076   0.073   0.008
    1UNL     N2   17  -0.168   0.174   0.009
    1UNL    C13   18  -0.300   0.121   0.015
    1UNL    C14   19  -0.425   0.184   0.005
    1UNL    C15   20  -0.538   0.107   0.005
    1UNL    C16   21  -0.530  -0.035   0.022
    1UNL    C17   22  -0.404  -0.093   0.025
    1UNL    C18   23  -0.289  -0.017   0.024
    1UNL    C19   24  -0.149  -0.044   0.029
    1UNL    C20   25  -0.097  -0.180   0.053
    1UNL     H1   26   0.372  -0.326   0.141
    1UNL     H2   27   0.267  -0.216   0.240
    1UNL     H3   28   0.452  -0.198   0.215
    1UNL     H4   29   0.385  -0.045   0.043
    1UNL     H5   30   0.148  -0.353  -0.068
    1UNL     H6   31   0.122  -0.312   0.085
    1UNL     H7   32  -0.022  -0.260  -0.258
    1UNL     H8   33  -0.122  -0.136  -0.200
    1UNL     H9   34   0.035   0.032  -0.252
    1UNL    H10   35   0.150  -0.095  -0.296
    1UNL    H11   36   0.236   0.043  -0.116
    1UNL    H12   37   0.236   0.101   0.163
    1UNL    H13   38   0.124  -0.028   0.210
    1UNL    H14   39  -0.032   0.169   0.196
    1UNL    H15   40   0.244   0.391  -0.178
    1UNL    H16   41   0.237   0.452  -0.013
    1UNL    H17   42   0.390   0.379  -0.064
    1UNL    H18   43  -0.133   0.264  -0.019
    1UNL    H19   44  -0.432   0.285   0.022
    1UNL    H20   45  -0.625   0.155   0.023
    1UNL    H21   46  -0.618  -0.091   0.047
    1UNL    H22   47  -0.391  -0.194   0.041
    1UNL    H23   48  -0.032  -0.182   0.138
    1UNL    H24   49  -0.168  -0.265   0.069
   0.00000   0.00000   0.00000   0.00000   0.00000   0.00000   0.00000   0.00000   0.00000
Generated with MDTraj, t= 4.0
 49
    1UNL     C1    1   0.378  -0.242   0.151
    1UNL     C2    2   0.300  -0.129   0.086
    1UNL     C3    3   0.204  -0.139  -0.009
    1UNL     C4    4   0.136  -0.270  -0.017
    1UNL     N1    5  -0.003  -0.253  -0.052
    1UNL     C5    6  -0.017  -0.199  -0.193
    1UNL     C6    7   0.051  -0.063  -0.209
    1UNL     C7    8   0.147  -0.027  -0.098
    1UNL     C8    9   0.073   0.073   0.005
    1UNL     C9   10   0.120   0.083   0.151
    1UNL     O1   11   0.038   0.168   0.236
    1UNL    C10   12   0.112   0.211  -0.052
    1UNL     O2   13   0.028   0.283  -0.106
    1UNL     O3   14   0.248   0.261  -0.028
    1UNL    C11   15   0.269   0.398  -0.068
    1UNL    C12   16  -0.073   0.052   0.009
    1UNL     N2   17  -0.153   0.162   0.003
    1UNL    C13   18  -0.282   0.125   0.011
    1UNL    C14   19  -0.404   0.190  -0.005
    1UNL    C15   20  -0.525   0.122  -0.001
    1UNL    C16   21  -0.520  -0.016   0.026
    1UNL    C17   22  -0.405  -0.084   0.041
    1UNL    C18   23  -0.283  -0.011   0.036
    1UNL    C19   24  -0.150  -0.056   0.028
    1UNL    C20   25  -0.101  -0.200   0.049
    1UNL     H1   26   0.360  -0.345   0.121
    1UNL     H2   27   0.365  -0.234   0.268
    1UNL     H3   28   0.481  -0.236   0.123
    1UNL     H4   29   0.341  -0.030   0.074
    1UNL     H5   30   0.191  -0.341  -0.074
    1UNL     H6   31   0.150  -0.318   0.081
    1UNL     H7   32   0.011  -0.267  -0.272
    1UNL     H8   33  -0.121  -0.180  -0.215
    1UNL     H9   34  -0.025   0.016  -0.217
    1UNL    H10   35   0.102  -0.051  -0.313
    1UNL    H11   36   0.226   0.026  -0.148
    1UNL    H12   37   0.224   0.121   0.159
    1UNL    H13   38   0.124  -0.013   0.208
    1UNL    H14   39  -0.025   0.189   0.164
    1UNL    H15   40   0.168   0.442  -0.100
    1UNL    H16   41   0.303   0.457   0.020
    1UNL    H17   42   0.349   0.396  -0.147
    1UNL    H18   43  -0.129   0.262   0.004
    1UNL    H19   44  -0.396   0.301  -0.021
    1UNL    H20   45  -0.622   0.176  -0.028
    1UNL    H21   46  -0.608  -0.081   0.018
    1UNL    H22   47  -0.408  -0.196   0.035
    1UNL    H23   48  -0.068  -0.219   0.149
    1UNL    H24   49  -0.191  -0.262   0.027
   0.00000   0.00000   0.00000   0.00000   0.00000   0.00000   0.00000   0.00000   0.00000
Generated with MDTraj, t= 5.0
 49
    1UNL     C1    1   0.401  -0.283   0.110
    1UNL     C2    2   0.347  -0.159   0.049
    1UNL     C3    3   0.223  -0.149  -0.001
    1UNL     C4    4   0.120  -0.260   0.017
    1UNL     N1    5  -0.009  -0.229  -0.043
    1UNL     C5    6  -0.012  -0.176  -0.184
    1UNL     C6    7   0.098  -0.063  -0.197
    1UNL     C7    8   0.167  -0.028  -0.065
    1UNL     C8    9   0.073   0.078   0.015
    1UNL     C9   10   0.109   0.089   0.157
    1UNL     O1   11   0.043   0.185   0.238
    1UNL    C10   12   0.112   0.215  -0.044
    1UNL     O2   13   0.044   0.266  -0.127
    1UNL     O3   14   0.224   0.267   0.001
    1UNL    C11   15   0.264   0.375  -0.072
    1UNL    C12   16  -0.080   0.075   0.003
    1UNL     N2   17  -0.175   0.170  -0.022
    1UNL    C13   18  -0.305   0.123  -0.011
    1UNL    C14   19  -0.431   0.186  -0.004
    1UNL    C15   20  -0.542   0.115   0.021
    1UNL    C16   21  -0.531  -0.028   0.040
    1UNL    C17   22  -0.405  -0.093   0.034
    1UNL    C18   23  -0.291  -0.012   0.011
    1UNL    C19   24  -0.153  -0.043   0.020
    1UNL    C20   25  -0.116  -0.183   0.046
    1UNL     H1   26   0.392  -0.365   0.041
    1UNL     H2   27   0.342  -0.299   0.208
    1UNL     H3   28   0.507  -0.271   0.127
    1UNL     H4   29   0.413  -0.077   0.023
    1UNL     H5   30   0.163  -0.353  -0.009
    1UNL     H6   31   0.118  -0.277   0.124
    1UNL     H7   32  -0.000  -0.254  -0.257
    1UNL     H8   33  -0.108  -0.134  -0.209
    1UNL     H9   34   0.050   0.028  -0.238
    1UNL    H10   35   0.176  -0.082  -0.281
    1UNL    H11   36   0.254   0.029  -0.092
    1UNL    H12   37   0.216   0.102   0.171
    1UNL    H13   38   0.089   0.002   0.221
    1UNL    H14   39   0.080   0.274   0.213
    1UNL    H15   40   0.229   0.479  -0.033
    1UNL    H16   41   0.378   0.380  -0.065
    1UNL    H17   42   0.231   0.353  -0.181
    1UNL    H18   43  -0.143   0.263  -0.062
    1UNL    H19   44  -0.441   0.290  -0.023
    1UNL    H20   45  -0.640   0.160   0.014
    1UNL    H21   46  -0.630  -0.072   0.044
    1UNL    H22   47  -0.397  -0.198   0.029
    1UNL    H23   48  -0.074  -0.189   0.144
    1UNL    H24   49  -0.203  -0.252   0.038
   0.00000   0.00000   0.00000   0.00000   0.00000   0.00000   0.00000   0.00000   0.00000
Generated with MDTraj, t= 6.0
 49
    1UNL     C1    1   0.428  -0.275   0.073
    1UNL     C2    2   0.350  -0.157   0.022
    1UNL     C3    3   0.217  -0.142   0.010
    1UNL     C4    4   0.119  -0.256   0.030
    1UNL     N1    5  -0.003  -0.250  -0.042
    1UNL     C5    6   0.011  -0.207  -0.186
    1UNL     C6    7   0.089  -0.074  -0.197
    1UNL     C7    8   0.156  -0.024  -0.068
    1UNL     C8    9   0.066   0.074   0.016
    1UNL     C9   10   0.110   0.094   0.166
    1UNL     O1   11   0.048   0.210   0.228
    1UNL    C10   12   0.097   0.208  -0.041
    1UNL     O2   13   0.063   0.250  -0.151
    1UNL     O3   14   0.200   0.283   0.028
    1UNL    C11   15   0.258   0.383  -0.047
    1UNL    C12   16  -0.084   0.057   0.014
    1UNL     N2   17  -0.167   0.165  -0.017
    1UNL    C13   18  -0.298   0.129   0.002
    1UNL    C14   19  -0.421   0.194  -0.015
    1UNL    C15   20  -0.540   0.127  -0.003
    1UNL    C16   21  -0.539  -0.010   0.027
    1UNL    C17   22  -0.422  -0.075   0.049
    1UNL    C18   23  -0.297  -0.008   0.030
    1UNL    C19   24  -0.161  -0.054   0.030
    1UNL    C20   25  -0.121  -0.201   0.039
    1UNL     H1   26   0.454  -0.345  -0.008
    1UNL     H2   27   0.371  -0.320   0.155
    1UNL     H3   28   0.531  -0.244   0.108
    1UNL     H4   29   0.414  -0.078  -0.010
    1UNL     H5   30   0.174  -0.346   0.006
    1UNL     H6   31   0.111  -0.273   0.135
    1UNL     H7   32   0.062  -0.284  -0.238
    1UNL     H8   33  -0.084  -0.204  -0.237
    1UNL     H9   34   0.039   0.009  -0.252
    1UNL    H10   35   0.173  -0.099  -0.275
    1UNL    H11   36   0.237   0.040  -0.092
    1UNL    H12   37   0.210   0.108   0.202
    1UNL    H13   38   0.080   0.005   0.220
    1UNL    H14   39   0.094   0.292   0.207
    1UNL    H15   40   0.331   0.453   0.006
    1UNL    H16   41   0.327   0.331  -0.120
    1UNL    H17   42   0.178   0.432  -0.108
    1UNL    H18   43  -0.123   0.258  -0.033
    1UNL    H19   44  -0.411   0.295  -0.045
    1UNL    H20   45  -0.625   0.188  -0.013
    1UNL    H21   46  -0.632  -0.062   0.043
    1UNL    H22   47  -0.419  -0.175   0.088
    1UNL    H23   48  -0.109  -0.228   0.142
    1UNL    H24   49  -0.203  -0.261  -0.005
   0.00000   0.00000   0.00000   0.00000   0.00000   0.00000   0.00000   0.00000   0.00000
Generated with MDTraj, t= 7.0
 49
    1UNL     C1    1   0.403  -0.247   0.085
    1UNL     C2    2   0.342  -0.141   0.006
    1UNL     C3    3   0.212  -0.139  -0.006
    1UNL     C4    4   0.120  -0.245   0.053
    1UNL     N1    5  -0.006  -0.254  -0.016
    1UNL     C5    6  -0.003  -0.224  -0.161
    1UNL     C6    7   0.058  -0.090  -0.199
    1UNL     C7    8   0.147  -0.028  -0.089
    1UNL     C8    9   0.075   0.075   0.010
    1UNL     C9   10   0.122   0.056   0.158
    1UNL     O1   11   0.065   0.136   0.262
    1UNL    C10   12   0.115   0.212  -0.050
    1UNL     O2   13   0.060   0.247  -0.152
    1UNL     O3   14   0.197   0.300   0.013
    1UNL    C11   15   0.187   0.423  -0.038
    1UNL    C12   16  -0.069   0.055   0.010
    1UNL     N2   17  -0.147   0.166  -0.016
    1UNL    C13   18  -0.282   0.128  -0.013
    1UNL    C14   19  -0.396   0.209  -0.019
    1UNL    C15   20  -0.515   0.145  -0.002
    1UNL    C16   21  -0.524   0.005   0.008
    1UNL    C17   22  -0.413  -0.074   0.022
    1UNL    C18   23  -0.291  -0.013   0.009
    1UNL    C19   24  -0.153  -0.056   0.032
    1UNL    C20   25  -0.116  -0.198   0.058
    1UNL     H1   26   0.387  -0.351   0.044
    1UNL     H2   27   0.372  -0.242   0.183
    1UNL     H3   28   0.518  -0.249   0.080
    1UNL     H4   29   0.407  -0.056  -0.017
    1UNL     H5   30   0.170  -0.342   0.065
    1UNL     H6   31   0.117  -0.226   0.159
    1UNL     H7   32   0.065  -0.296  -0.196
    1UNL     H8   33  -0.097  -0.248  -0.210
    1UNL     H9   34  -0.028  -0.023  -0.224
    1UNL    H10   35   0.118  -0.086  -0.298
    1UNL    H11   36   0.224   0.035  -0.124
    1UNL    H12   37   0.228   0.067   0.153
    1UNL    H13   38   0.110  -0.039   0.208
    1UNL    H14   39   0.109   0.227   0.254
    1UNL    H15   40   0.284   0.470  -0.039
    1UNL    H16   41   0.167   0.412  -0.143
    1UNL    H17   42   0.107   0.480   0.007
    1UNL    H18   43  -0.127   0.262  -0.040
    1UNL    H19   44  -0.382   0.320  -0.023
    1UNL    H20   45  -0.612   0.203   0.018
    1UNL    H21   46  -0.615  -0.047   0.037
    1UNL    H22   47  -0.422  -0.175   0.066
    1UNL    H23   48  -0.088  -0.215   0.162
    1UNL    H24   49  -0.199  -0.265   0.034
   0.00000   0.00000   0.00000   0.00000   0.00000   0.00000   0.00000   0.00000   0.00000
Generated with MDTraj, t= 8.0
 49
    1UNL     C1    1   0.414  -0.241   0.097
    1UNL     C2    2   0.342  -0.153   0.005
    1UNL     C3    3   0.214  -0.155  -0.019
    1UNL     C4    4   0.124  -0.268   0.032
    1UNL     N1    5  -0.010  -0.247  -0.010
    1UNL     C5    6  -0.024  -0.219  -0.159
    1UNL     C6    7   0.046  -0.091  -0.199
    1UNL     C7    8   0.146  -0.043  -0.096
    1UNL     C8    9   0.087   0.070   0.002
    1UNL     C9   10   0.141   0.065   0.142
    1UNL     O1   11   0.070   0.140   0.240
    1UNL    C10   12   0.105   0.210  -0.062
    1UNL     O2   13   0.080   0.242  -0.177
    1UNL     O3   14   0.152   0.293   0.037
    1UNL    C11   15   0.168   0.418  -0.007
    1UNL    C12   16  -0.065   0.064   0.016
    1UNL     N2   17  -0.151   0.174   0.004
    1UNL    C13   18  -0.284   0.131   0.003
    1UNL    C14   19  -0.395   0.208  -0.029
    1UNL    C15   20  -0.514   0.142  -0.031
    1UNL    C16   21  -0.520   0.007   0.000
    1UNL    C17   22  -0.408  -0.071   0.030
    1UNL    C18   23  -0.286  -0.007   0.029
    1UNL    C19   24  -0.146  -0.045   0.045
    1UNL    C20   25  -0.096  -0.177   0.087
    1UNL     H1   26   0.422  -0.346   0.055
    1UNL     H2   27   0.364  -0.241   0.190
    1UNL     H3   28   0.524  -0.214   0.106
    1UNL     H4   29   0.396  -0.061  -0.006
    1UNL     H5   30   0.163  -0.359  -0.017
    1UNL     H6   31   0.140  -0.299   0.133
    1UNL     H7   32   0.014  -0.301  -0.212
    1UNL     H8   33  -0.126  -0.208  -0.191
    1UNL     H9   34  -0.018  -0.006  -0.243
    1UNL    H10   35   0.104  -0.117  -0.295
    1UNL    H11   36   0.216   0.015  -0.149
    1UNL    H12   37   0.246   0.088   0.149
    1UNL    H13   38   0.128  -0.042   0.170
    1UNL    H14   39   0.083   0.234   0.219
    1UNL    H15   40   0.194   0.490   0.064
    1UNL    H16   41   0.247   0.414  -0.077
    1UNL    H17   42   0.083   0.448  -0.059
    1UNL    H18   43  -0.106   0.260  -0.020
    1UNL    H19   44  -0.383   0.308  -0.055
    1UNL    H20   45  -0.597   0.188  -0.066
    1UNL    H21   46  -0.616  -0.039  -0.012
    1UNL    H22   47  -0.412  -0.172   0.054
    1UNL    H23   48  -0.034  -0.164   0.178
    1UNL    H24   49  -0.178  -0.243   0.109
   0.00000   0.00000   0.00000   0.00000   0.00000   0.00000   0.00000   0.00000   0.00000
Generated with MDTraj, t= 9.0
 49
    1UNL     C1    1   0.425  -0.256   0.077
    1UNL     C2    2   0.332  -0.163   0.001
    1UNL     C3    3   0.201  -0.157  -0.008
    1UNL     C4    4   0.104  -0.279   0.004
    1UNL     N1    5  -0.036  -0.248  -0.027
    1UNL     C5    6  -0.044  -0.189  -0.168
    1UNL     C6    7   0.043  -0.059  -0.190
    1UNL     C7    8   0.142  -0.033  -0.074
    1UNL     C8    9   0.083   0.082   0.021
    1UNL     C9   10   0.145   0.068   0.158
    1UNL     O1   11   0.093   0.149   0.258
    1UNL    C10   12   0.133   0.210  -0.044
    1UNL     O2   13   0.178   0.218  -0.158
    1UNL     O3   14   0.115   0.325   0.034
    1UNL    C11   15   0.160   0.435  -0.040
    1UNL    C12   16  -0.067   0.065   0.023
    1UNL     N2   17  -0.149   0.165  -0.020
    1UNL    C13   18  -0.279   0.124  -0.025
    1UNL    C14   19  -0.404   0.181  -0.058
    1UNL    C15   20  -0.520   0.116  -0.031
    1UNL    C16   21  -0.525  -0.011   0.030
    1UNL    C17   22  -0.409  -0.077   0.053
    1UNL    C18   23  -0.285  -0.003   0.030
    1UNL    C19   24  -0.149  -0.041   0.056
    1UNL    C20   25  -0.107  -0.181   0.091
    1UNL     H1   26   0.436  -0.351   0.020
    1UNL     H2   27   0.375  -0.274   0.179
    1UNL     H3   28   0.527  -0.217   0.085
    1UNL     H4   29   0.380  -0.065  -0.010
    1UNL     H5   30   0.143  -0.369  -0.046
    1UNL     H6   31   0.112  -0.309   0.106
    1UNL     H7   32  -0.005  -0.257  -0.238
    1UNL     H8   33  -0.145  -0.170  -0.198
    1UNL     H9   34  -0.029   0.028  -0.206
    1UNL    H10   35   0.083  -0.052  -0.300
    1UNL    H11   36   0.217   0.019  -0.127
    1UNL    H12   37   0.251   0.093   0.154
    1UNL    H13   38   0.138  -0.039   0.187
    1UNL    H14   39   0.067   0.235   0.220
    1UNL    H15   40   0.136   0.531  -0.007
    1UNL    H16   41   0.266   0.426  -0.043
    1UNL    H17   42   0.123   0.427  -0.138
    1UNL    H18   43  -0.120   0.251  -0.060
    1UNL    H19   44  -0.417   0.279  -0.108
    1UNL    H20   45  -0.618   0.151  -0.075
    1UNL    H21   46  -0.618  -0.065   0.036
    1UNL    H22   47  -0.411  -0.188   0.072
    1UNL    H23   48  -0.031  -0.167   0.173
    1UNL    H24   49  -0.189  -0.243   0.122
   0.00000   0.00000   0.00000   0.00000   0.00000   0.00000   0.00000   0.00000   0.00000
Generated with MDTraj, t= 10.0
 49
    1UNL     C1    1   0.384  -0.306   0.063
    1UNL     C2    2   0.333  -0.177   0.008
    1UNL     C3    3   0.206  -0.159  -0.013
    1UNL     C4    4   0.108  -0.276   0.004
    1UNL     N1    5  -0.030  -0.243  -0.013
    1UNL     C5    6  -0.056  -0.187  -0.160
    1UNL     C6    7   0.053  -0.082  -0.203
    1UNL     C7    8   0.151  -0.037  -0.088
    1UNL     C8    9   0.088   0.080  -0.005
    1UNL     C9   10   0.141   0.065   0.149
    1UNL     O1   11   0.089   0.170   0.226
    1UNL    C10   12   0.131   0.227  -0.042
    1UNL     O2   13   0.228   0.242  -0.111
    1UNL     O3   14   0.060   0.323   0.008
    1UNL    C11   15   0.116   0.445  -0.016
    1UNL    C12   16  -0.061   0.067  -0.002
    1UNL     N2   17  -0.153   0.165  -0.034
    1UNL    C13   18  -0.279   0.129  -0.006
    1UNL    C14   19  -0.399   0.185  -0.046
    1UNL    C15   20  -0.509   0.113  -0.038
    1UNL    C16   21  -0.505  -0.018   0.016
    1UNL    C17   22  -0.393  -0.080   0.061
    1UNL    C18   23  -0.276  -0.001   0.058
    1UNL    C19   24  -0.134  -0.033   0.069
    1UNL    C20   25  -0.096  -0.170   0.107
    1UNL     H1   26   0.361  -0.387  -0.008
    1UNL     H2   27   0.329  -0.332   0.166
    1UNL     H3   28   0.491  -0.318   0.075
    1UNL     H4   29   0.395  -0.089   0.013
    1UNL     H5   30   0.132  -0.341  -0.080
    1UNL     H6   31   0.135  -0.339   0.087
    1UNL     H7   32  -0.061  -0.260  -0.234
    1UNL     H8   33  -0.147  -0.132  -0.164
    1UNL     H9   34   0.001   0.004  -0.259
    1UNL    H10   35   0.113  -0.115  -0.296
    1UNL    H11   36   0.235   0.015  -0.133
    1UNL    H12   37   0.252   0.058   0.143
    1UNL    H13   38   0.101  -0.021   0.211
    1UNL    H14   39   0.082   0.254   0.172
    1UNL    H15   40   0.080   0.529   0.045
    1UNL    H16   41   0.227   0.434  -0.004
    1UNL    H17   42   0.095   0.468  -0.121
    1UNL    H18   43  -0.135   0.261  -0.063
    1UNL    H19   44  -0.406   0.285  -0.086
    1UNL    H20   45  -0.604   0.153  -0.064
    1UNL    H21   46  -0.602  -0.065   0.027
    1UNL    H22   47  -0.391  -0.180   0.090
    1UNL    H23   48  -0.026  -0.173   0.195
    1UNL    H24   49  -0.186  -0.223   0.128
   0.00000   0.00000   0.00000   0.00000   0.00000   0.00000   0.00000   0.00000   0.00000
Generated with MDTraj, t= 11.0
 49
    1UNL     C1    1   0.390  -0.289   0.073
    1UNL     C2    2   0.335  -0.164   0.009
    1UNL     C3    3   0.207  -0.156  -0.020
    1UNL     C4    4   0.119  -0.276  -0.015
    1UNL     N1    5  -0.020  -0.243  -0.024
    1UNL     C5    6  -0.043  -0.183  -0.160
    1UNL     C6    7   0.042  -0.063  -0.200
    1UNL     C7    8   0.141  -0.029  -0.083
    1UNL     C8    9   0.083   0.076   0.013
    1UNL     C9   10   0.157   0.061   0.159
    1UNL     O1   11   0.101   0.148   0.255
    1UNL    C10   12   0.130   0.209  -0.034
    1UNL     O2   13   0.231   0.222  -0.103
    1UNL     O3   14   0.047   0.319  -0.004
    1UNL    C11   15   0.104   0.424  -0.064
    1UNL    C12   16  -0.069   0.067   0.023
    1UNL     N2   17  -0.146   0.166  -0.022
    1UNL    C13   18  -0.278   0.128  -0.018
    1UNL    C14   19  -0.399   0.193  -0.052
    1UNL    C15   20  -0.515   0.125  -0.023
    1UNL    C16   21  -0.516  -0.001   0.029
    1UNL    C17   22  -0.404  -0.068   0.055
    1UNL    C18   23  -0.281  -0.004   0.032
    1UNL    C19   24  -0.143  -0.040   0.062
    1UNL    C20   25  -0.089  -0.176   0.096
    1UNL     H1   26   0.359  -0.378   0.010
    1UNL     H2   27   0.349  -0.299   0.178
    1UNL     H3   28   0.500  -0.300   0.069
    1UNL     H4   29   0.389  -0.073   0.038
    1UNL     H5   30   0.151  -0.348  -0.088
    1UNL     H6   31   0.137  -0.321   0.082
    1UNL     H7   32  -0.035  -0.258  -0.233
    1UNL     H8   33  -0.145  -0.155  -0.168
    1UNL     H9   34  -0.016   0.034  -0.227
    1UNL    H10   35   0.097  -0.069  -0.300
    1UNL    H11   36   0.233   0.032  -0.100
    1UNL    H12   37   0.268   0.085   0.160
    1UNL    H13   38   0.146  -0.050   0.179
    1UNL    H14   39   0.065   0.221   0.204
    1UNL    H15   40   0.023   0.498  -0.094
    1UNL    H16   41   0.178   0.471   0.012
    1UNL    H17   42   0.153   0.390  -0.161
    1UNL    H18   43  -0.095   0.249  -0.056
    1UNL    H19   44  -0.391   0.290  -0.094
    1UNL    H20   45  -0.608   0.177  -0.028
    1UNL    H21   46  -0.609  -0.040   0.064
    1UNL    H22   47  -0.393  -0.162   0.111
    1UNL    H23   48  -0.006  -0.159   0.168
    1UNL    H24   49  -0.162  -0.244   0.137
   0.00000   0.00000   0.00000   0.00000   0.00000   0.00000   0.00000   0.00000   0.00000
Generated with MDTraj, t= 12.0
 49
    1UNL     C1    1   0.407  -0.248   0.088
    1UNL     C2    2   0.333  -0.151   0.003
    1UNL     C3    3   0.203  -0.164  -0.019
    1UNL     C4    4   0.107  -0.276   0.017
    1UNL     N1    5  -0.030  -0.255  -0.042
    1UNL     C5    6  -0.038  -0.200  -0.181
    1UNL     C6    7   0.053  -0.080  -0.205
    1UNL     C7    8   0.143  -0.040  -0.088
    1UNL     C8    9   0.089   0.070   0.013
    1UNL     C9   10   0.146   0.066   0.162
    1UNL     O1   11   0.086   0.169   0.236
    1UNL    C10   12   0.136   0.208  -0.040
    1UNL     O2   13   0.231   0.207  -0.118
    1UNL     O3   14   0.067   0.316   0.011
    1UNL    C11   15   0.127   0.426  -0.055
    1UNL    C12   16  -0.060   0.069   0.023
    1UNL     N2   17  -0.145   0.177   0.004
    1UNL    C13   18  -0.284   0.136  -0.000
    1UNL    C14   19  -0.407   0.196  -0.027
    1UNL    C15   20  -0.522   0.124  -0.010
    1UNL    C16   21  -0.519  -0.009   0.032
    1UNL    C17   22  -0.398  -0.067   0.059
    1UNL    C18   23  -0.279  -0.003   0.030
    1UNL    C19   24  -0.140  -0.044   0.042
    1UNL    C20   25  -0.120  -0.188   0.053
    1UNL     H1   26   0.442  -0.331   0.017
    1UNL     H2   27   0.341  -0.285   0.164
    1UNL     H3   28   0.504  -0.207   0.132
    1UNL     H4   29   0.380  -0.054   0.002
    1UNL     H5   30   0.142  -0.368  -0.021
    1UNL     H6   31   0.105  -0.288   0.124
    1UNL     H7   32  -0.016  -0.271  -0.257
    1UNL     H8   33  -0.140  -0.176  -0.199
    1UNL     H9   34  -0.006   0.015  -0.235
    1UNL    H10   35   0.121  -0.085  -0.295
    1UNL    H11   36   0.231   0.019  -0.128
    1UNL    H12   37   0.259   0.072   0.153
    1UNL    H13   38   0.115  -0.028   0.218
    1UNL    H14   39   0.073   0.252   0.181
    1UNL    H15   40   0.101   0.530  -0.014
    1UNL    H16   41   0.239   0.400  -0.048
    1UNL    H17   42   0.097   0.418  -0.163
    1UNL    H18   43  -0.104   0.272  -0.008
    1UNL    H19   44  -0.414   0.295  -0.076
    1UNL    H20   45  -0.621   0.163  -0.043
    1UNL    H21   46  -0.602  -0.077   0.049
    1UNL    H22   47  -0.397  -0.162   0.111
    1UNL    H23   48  -0.080  -0.208   0.154
    1UNL    H24   49  -0.217  -0.236   0.039
   0.00000   0.00000   0.00000   0.00000   0.00000   0.00000   0.00000   0.00000   0.00000
Generated with MDTraj, t= 13.0
 49
    1UNL     C1    1   0.402  -0.263   0.100
    1UNL     C2    2   0.342  -0.158   0.024
    1UNL     C3    3   0.216  -0.153  -0.011
    1UNL     C4    4   0.130  -0.272   0.035
    1UNL     N1    5  -0.005  -0.264  -0.020
    1UNL     C5    6  -0.009  -0.236  -0.170
    1UNL     C6    7   0.060  -0.097  -0.208
    1UNL     C7    8   0.156  -0.043  -0.097
    1UNL     C8    9   0.081   0.072  -0.005
    1UNL     C9   10   0.136   0.058   0.142
    1UNL     O1   11   0.075   0.154   0.216
    1UNL    C10   12   0.121   0.218  -0.058
    1UNL     O2   13   0.206   0.232  -0.144
    1UNL     O3   14   0.064   0.328   0.002
    1UNL    C11   15   0.144   0.440  -0.014
    1UNL    C12   16  -0.069   0.053  -0.002
    1UNL     N2   17  -0.155   0.166  -0.013
    1UNL    C13   18  -0.286   0.133   0.006
    1UNL    C14   19  -0.398   0.219   0.028
    1UNL    C15   20  -0.524   0.154   0.033
    1UNL    C16   21  -0.529   0.015   0.023
    1UNL    C17   22  -0.419  -0.068   0.020
    1UNL    C18   23  -0.292  -0.006   0.011
    1UNL    C19   24  -0.152  -0.055   0.016
    1UNL    C20   25  -0.106  -0.186   0.067
    1UNL     H1   26   0.418  -0.351   0.028
    1UNL     H2   27   0.345  -0.295   0.181
    1UNL     H3   28   0.511  -0.244   0.136
    1UNL     H4   29   0.404  -0.071   0.008
    1UNL     H5   30   0.172  -0.362   0.002
    1UNL     H6   31   0.124  -0.280   0.142
    1UNL     H7   32   0.048  -0.315  -0.213
    1UNL     H8   33  -0.107  -0.226  -0.210
    1UNL     H9   34  -0.014  -0.013  -0.237
    1UNL    H10   35   0.117  -0.108  -0.305
    1UNL    H11   36   0.234   0.009  -0.162
    1UNL    H12   37   0.246   0.077   0.145
    1UNL    H13   38   0.116  -0.043   0.189
    1UNL    H14   39   0.048   0.230   0.164
    1UNL    H15   40   0.144   0.487   0.085
    1UNL    H16   41   0.244   0.408  -0.051
    1UNL    H17   42   0.093   0.509  -0.085
    1UNL    H18   43  -0.136   0.267  -0.022
    1UNL    H19   44  -0.404   0.323   0.030
    1UNL    H20   45  -0.614   0.207   0.026
    1UNL    H21   46  -0.625  -0.029   0.005
    1UNL    H22   47  -0.420  -0.175   0.020
    1UNL    H23   48  -0.063  -0.159   0.165
    1UNL    H24   49  -0.195  -0.252   0.079
   0.00000   0.00000   0.00000   0.00000   0.00000   0.00000   0.00000   0.00000   0.00000
Generated with MDTraj, t= 14.0
 49
    1UNL     C1    1   0.421  -0.249   0.103
    1UNL     C2    2   0.347  -0.160   0.015
    1UNL     C3    3   0.217  -0.148  -0.005
    1UNL     C4    4   0.116  -0.251   0.046
    1UNL     N1    5  -0.005  -0.258  -0.037
    1UNL     C5    6   0.018  -0.228  -0.181
    1UNL     C6    7   0.069  -0.077  -0.200
    1UNL     C7    8   0.154  -0.036  -0.081
    1UNL     C8    9   0.083   0.065   0.010
    1UNL     C9   10   0.112   0.052   0.153
    1UNL     O1   11   0.044   0.138   0.237
    1UNL    C10   12   0.127   0.199  -0.043
    1UNL     O2   13   0.156   0.204  -0.161
    1UNL     O3   14   0.122   0.315   0.032
    1UNL    C11   15   0.119   0.429  -0.057
    1UNL    C12   16  -0.071   0.057  -0.009
    1UNL     N2   17  -0.142   0.178  -0.021
    1UNL    C13   18  -0.275   0.144  -0.006
    1UNL    C14   19  -0.390   0.215   0.009
    1UNL    C15   20  -0.510   0.157   0.036
    1UNL    C16   21  -0.526   0.014   0.052
    1UNL    C17   22  -0.415  -0.063   0.038
    1UNL    C18   23  -0.286   0.003   0.014
    1UNL    C19   24  -0.155  -0.053   0.011
    1UNL    C20   25  -0.128  -0.196   0.026
    1UNL     H1   26   0.368  -0.348   0.100
    1UNL     H2   27   0.422  -0.215   0.207
    1UNL     H3   28   0.525  -0.276   0.063
    1UNL     H4   29   0.403  -0.080  -0.029
    1UNL     H5   30   0.161  -0.346   0.048
    1UNL     H6   31   0.078  -0.236   0.146
    1UNL     H7   32   0.101  -0.290  -0.216
    1UNL     H8   33  -0.075  -0.234  -0.233
    1UNL     H9   34  -0.028  -0.016  -0.198
    1UNL    H10   35   0.117  -0.051  -0.298
    1UNL    H11   36   0.228   0.021  -0.150
    1UNL    H12   37   0.219   0.060   0.169
    1UNL    H13   38   0.076  -0.052   0.179
    1UNL    H14   39   0.061   0.233   0.209
    1UNL    H15   40   0.070   0.502  -0.001
    1UNL    H16   41   0.219   0.448  -0.086
    1UNL    H17   42   0.062   0.413  -0.146
    1UNL    H18   43  -0.101   0.270  -0.025
    1UNL    H19   44  -0.378   0.325   0.020
    1UNL    H20   45  -0.601   0.218   0.063
    1UNL    H21   46  -0.622  -0.027   0.082
    1UNL    H22   47  -0.409  -0.173   0.046
    1UNL    H23   48  -0.124  -0.213   0.134
    1UNL    H24   49  -0.216  -0.250  -0.021
   0.00000   0.00000   0.00000   0.00000   0.00000   0.00000   0.00000   0.00000   0.00000
Generated with MDTraj, t= 15.0
 49
    1UNL     C1    1   0.412  -0.282   0.116
    1UNL     C2    2   0.341  -0.169   0.051
    1UNL     C3    3   0.214  -0.157   0.005
    1UNL     C4    4   0.118  -0.266   0.023
    1UNL     N1    5  -0.005  -0.239  -0.050
    1UNL     C5    6   0.007  -0.200  -0.195
    1UNL     C6    7   0.111  -0.086  -0.209
    1UNL     C7    8   0.169  -0.041  -0.078
    1UNL     C8    9   0.080   0.063  -0.002
    1UNL     C9   10   0.146   0.090   0.143
    1UNL     O1   11   0.054   0.164   0.224
    1UNL    C10   12   0.097   0.200  -0.067
    1UNL     O2   13   0.115   0.213  -0.184
    1UNL     O3   14   0.079   0.304   0.019
    1UNL    C11   15   0.146   0.427  -0.020
    1UNL    C12   16  -0.070   0.056   0.003
    1UNL     N2   17  -0.150   0.167   0.001
    1UNL    C13   18  -0.280   0.133   0.013
    1UNL    C14   19  -0.391   0.221  -0.001
    1UNL    C15   20  -0.511   0.165   0.022
    1UNL    C16   21  -0.515   0.021   0.050
    1UNL    C17   22  -0.409  -0.065   0.050
    1UNL    C18   23  -0.282  -0.009   0.033
    1UNL    C19   24  -0.150  -0.059   0.017
    1UNL    C20   25  -0.126  -0.206   0.030
    1UNL     H1   26   0.341  -0.364   0.137
    1UNL     H2   27   0.465  -0.246   0.215
    1UNL     H3   28   0.485  -0.320   0.042
    1UNL     H4   29   0.404  -0.086   0.026
    1UNL     H5   30   0.149  -0.358  -0.020
    1UNL     H6   31   0.103  -0.289   0.127
    1UNL     H7   32   0.048  -0.286  -0.251
    1UNL     H8   33  -0.088  -0.169  -0.233
    1UNL     H9   34   0.067   0.009  -0.258
    1UNL    H10   35   0.200  -0.114  -0.269
    1UNL    H11   36   0.259   0.026  -0.104
    1UNL    H12   37   0.234   0.146   0.128
    1UNL    H13   38   0.173  -0.004   0.196
    1UNL    H14   39   0.030   0.243   0.173
    1UNL    H15   40   0.130   0.499   0.053
    1UNL    H16   41   0.242   0.396  -0.045
    1UNL    H17   42   0.102   0.464  -0.108
    1UNL    H18   43  -0.126   0.265   0.000
    1UNL    H19   44  -0.378   0.324  -0.012
    1UNL    H20   45  -0.591   0.232   0.034
    1UNL    H21   46  -0.610  -0.023   0.079
    1UNL    H22   47  -0.408  -0.171   0.053
    1UNL    H23   48  -0.101  -0.236   0.131
    1UNL    H24   49  -0.209  -0.268  -0.017
   0.00000   0.00000   0.00000   0.00000   0.00000   0.00000   0.00000   0.00000   0.00000
Generated with MDTraj, t= 16.0
 49
    1UNL     C1    1   0.359  -0.280   0.142
    1UNL     C2    2   0.325  -0.165   0.065
    1UNL     C3    3   0.206  -0.160  -0.002
    1UNL     C4    4   0.117  -0.279  -0.016
    1UNL     N1    5  -0.014  -0.239  -0.061
    1UNL     C5    6  -0.020  -0.171  -0.196
    1UNL     C6    7   0.092  -0.070  -0.221
    1UNL     C7    8   0.167  -0.035  -0.084
    1UNL     C8    9   0.081   0.074  -0.003
    1UNL     C9   10   0.129   0.066   0.152
    1UNL     O1   11   0.069   0.166   0.235
    1UNL    C10   12   0.129   0.210  -0.051
    1UNL     O2   13   0.165   0.211  -0.166
    1UNL     O3   14   0.121   0.337   0.008
    1UNL    C11   15   0.138   0.434  -0.090
    1UNL    C12   16  -0.068   0.064   0.016
    1UNL     N2   17  -0.144   0.174   0.015
    1UNL    C13   18  -0.276   0.129   0.028
    1UNL    C14   19  -0.398   0.195   0.027
    1UNL    C15   20  -0.523   0.126   0.028
    1UNL    C16   21  -0.525  -0.013   0.037
    1UNL    C17   22  -0.407  -0.078   0.035
    1UNL    C18   23  -0.283  -0.009   0.029
    1UNL    C19   24  -0.146  -0.050   0.025
    1UNL    C20   25  -0.098  -0.191   0.050
    1UNL     H1   26   0.301  -0.289   0.237
    1UNL     H2   27   0.473  -0.282   0.175
    1UNL     H3   28   0.344  -0.370   0.084
    1UNL     H4   29   0.399  -0.092   0.044
    1UNL     H5   30   0.163  -0.348  -0.084
    1UNL     H6   31   0.104  -0.333   0.076
    1UNL     H7   32   0.005  -0.261  -0.257
    1UNL     H8   33  -0.116  -0.128  -0.215
    1UNL     H9   34   0.053   0.029  -0.260
    1UNL    H10   35   0.172  -0.108  -0.287
    1UNL    H11   36   0.268   0.018  -0.090
    1UNL    H12   37   0.232   0.082   0.160
    1UNL    H13   38   0.108  -0.032   0.196
    1UNL    H14   39  -0.016   0.193   0.186
    1UNL    H15   40   0.127   0.527  -0.036
    1UNL    H16   41   0.231   0.410  -0.136
    1UNL    H17   42   0.061   0.431  -0.166
    1UNL    H18   43  -0.103   0.265  -0.000
    1UNL    H19   44  -0.380   0.303   0.015
    1UNL    H20   45  -0.620   0.181   0.023
    1UNL    H21   46  -0.617  -0.066   0.037
    1UNL    H22   47  -0.408  -0.188   0.032
    1UNL    H23   48  -0.037  -0.189   0.139
    1UNL    H24   49  -0.185  -0.266   0.051
   0.00000   0.00000   0.00000   0.00000   0.00000   0.00000   0.00000   0.00000   0.00000
Generated with MDTraj, t= 17.0
 49
    1UNL     C1    1   0.339  -0.285   0.157
    1UNL     C2    2   0.287  -0.167   0.095
    1UNL     C3    3   0.192  -0.165  -0.006
    1UNL     C4    4   0.109  -0.287  -0.046
    1UNL     N1    5  -0.028  -0.250  -0.075
    1UNL     C5    6  -0.035  -0.176  -0.203
    1UNL     C6    7   0.062  -0.061  -0.205
    1UNL     C7    8   0.162  -0.028  -0.083
    1UNL     C8    9   0.099   0.083   0.007
    1UNL     C9   10   0.158   0.106   0.152
    1UNL     O1   11   0.062   0.165   0.236
    1UNL    C10   12   0.122   0.211  -0.070
    1UNL     O2   13   0.201   0.212  -0.160
    1UNL     O3   14   0.066   0.323  -0.020
    1UNL    C11   15   0.127   0.439  -0.071
    1UNL    C12   16  -0.051   0.066   0.025
    1UNL     N2   17  -0.140   0.171   0.018
    1UNL    C13   18  -0.273   0.123   0.020
    1UNL    C14   19  -0.389   0.195   0.021
    1UNL    C15   20  -0.504   0.128   0.036
    1UNL    C16   21  -0.501  -0.013   0.040
    1UNL    C17   22  -0.376  -0.086   0.040
    1UNL    C18   23  -0.263  -0.015   0.024
    1UNL    C19   24  -0.128  -0.051   0.027
    1UNL    C20   25  -0.090  -0.197   0.045
    1UNL     H1   26   0.353  -0.271   0.270
    1UNL     H2   27   0.439  -0.315   0.119
    1UNL     H3   28   0.276  -0.375   0.141
    1UNL     H4   29   0.353  -0.080   0.093
    1UNL     H5   30   0.147  -0.332  -0.135
    1UNL     H6   31   0.117  -0.361   0.030
    1UNL     H7   32  -0.003  -0.246  -0.286
    1UNL     H8   33  -0.139  -0.153  -0.217
    1UNL     H9   34   0.012   0.036  -0.223
    1UNL    H10   35   0.134  -0.075  -0.289
    1UNL    H11   36   0.265   0.011  -0.109
    1UNL    H12   37   0.244   0.164   0.157
    1UNL    H13   38   0.184   0.013   0.202
    1UNL    H14   39  -0.016   0.171   0.179
    1UNL    H15   40   0.089   0.531  -0.017
    1UNL    H16   41   0.237   0.416  -0.057
    1UNL    H17   42   0.115   0.448  -0.183
    1UNL    H18   43  -0.097   0.264   0.000
    1UNL    H19   44  -0.394   0.303   0.011
    1UNL    H20   45  -0.595   0.181   0.029
    1UNL    H21   46  -0.596  -0.067   0.037
    1UNL    H22   47  -0.377  -0.190   0.052
    1UNL    H23   48  -0.021  -0.211   0.126
    1UNL    H24   49  -0.190  -0.250   0.060
   0.00000   0.00000   0.00000   0.00000   0.00000   0.00000   0.00000   0.00000   0.00000
Generated with MDTraj, t= 18.0
 49
    1UNL     C1    1   0.340  -0.292   0.162
    1UNL     C2    2   0.307  -0.176   0.077
    1UNL     C3    3   0.204  -0.166  -0.012
    1UNL     C4    4   0.121  -0.284  -0.043
    1UNL     N1    5  -0.012  -0.229  -0.074
    1UNL     C5    6  -0.017  -0.149  -0.207
    1UNL     C6    7   0.114  -0.067  -0.218
    1UNL     C7    8   0.174  -0.038  -0.082
    1UNL     C8    9   0.087   0.067   0.003
    1UNL     C9   10   0.142   0.072   0.147
    1UNL     O1   11   0.109   0.190   0.212
    1UNL    C10   12   0.124   0.199  -0.059
    1UNL     O2   13   0.220   0.210  -0.133
    1UNL     O3   14   0.056   0.308  -0.004
    1UNL    C11   15   0.091   0.423  -0.072
    1UNL    C12   16  -0.066   0.060   0.006
    1UNL     N2   17  -0.152   0.170   0.003
    1UNL    C13   18  -0.282   0.138   0.022
    1UNL    C14   19  -0.410   0.202   0.017
    1UNL    C15   20  -0.525   0.124   0.028
    1UNL    C16   21  -0.519  -0.013   0.049
    1UNL    C17   22  -0.399  -0.078   0.063
    1UNL    C18   23  -0.279   0.001   0.041
    1UNL    C19   24  -0.145  -0.045   0.029
    1UNL    C20   25  -0.092  -0.184   0.044
    1UNL     H1   26   0.454  -0.291   0.174
    1UNL     H2   27   0.307  -0.386   0.122
    1UNL     H3   28   0.286  -0.285   0.266
    1UNL     H4   29   0.374  -0.092   0.075
    1UNL     H5   30   0.168  -0.344  -0.119
    1UNL     H6   31   0.112  -0.348   0.043
    1UNL     H7   32  -0.022  -0.233  -0.284
    1UNL     H8   33  -0.101  -0.081  -0.209
    1UNL     H9   34   0.101   0.032  -0.266
    1UNL    H10   35   0.190  -0.120  -0.282
    1UNL    H11   36   0.276  -0.001  -0.106
    1UNL    H12   37   0.245   0.057   0.157
    1UNL    H13   38   0.097  -0.011   0.202
    1UNL    H14   39   0.050   0.240   0.150
    1UNL    H15   40   0.006   0.497  -0.097
    1UNL    H16   41   0.176   0.467  -0.008
    1UNL    H17   42   0.148   0.393  -0.167
    1UNL    H18   43  -0.128   0.268  -0.026
    1UNL    H19   44  -0.414   0.306   0.008
    1UNL    H20   45  -0.619   0.183   0.027
    1UNL    H21   46  -0.611  -0.064   0.065
    1UNL    H22   47  -0.406  -0.182   0.102
    1UNL    H23   48  -0.026  -0.185   0.128
    1UNL    H24   49  -0.177  -0.259   0.049
   0.00000   0.00000   0.00000   0.00000   0.00000   0.00000   0.00000   0.00000   0.00000
Generated with MDTraj, t= 19.0
 49
    1UNL     C1    1   0.360  -0.305   0.120
    1UNL     C2    2   0.306  -0.177   0.080
    1UNL     C3    3   0.197  -0.167  -0.002
    1UNL     C4    4   0.122  -0.290  -0.030
    1UNL     N1    5  -0.016  -0.259  -0.074
    1UNL     C5    6  -0.016  -0.177  -0.199
    1UNL     C6    7   0.090  -0.054  -0.197
    1UNL     C7    8   0.162  -0.035  -0.068
    1UNL     C8    9   0.085   0.077   0.013
    1UNL     C9   10   0.136   0.089   0.151
    1UNL     O1   11   0.070   0.185   0.232
    1UNL    C10   12   0.119   0.226  -0.044
    1UNL     O2   13   0.218   0.222  -0.114
    1UNL     O3   14   0.063   0.349  -0.016
    1UNL    C11   15   0.116   0.439  -0.099
    1UNL    C12   16  -0.066   0.056   0.005
    1UNL     N2   17  -0.143   0.164  -0.018
    1UNL    C13   18  -0.273   0.124  -0.001
    1UNL    C14   19  -0.393   0.201   0.010
    1UNL    C15   20  -0.502   0.134   0.039
    1UNL    C16   21  -0.513  -0.006   0.067
    1UNL    C17   22  -0.401  -0.081   0.054
    1UNL    C18   23  -0.278  -0.019   0.025
    1UNL    C19   24  -0.145  -0.060   0.030
    1UNL    C20   25  -0.108  -0.205   0.037
    1UNL     H1   26   0.367  -0.376   0.032
    1UNL     H2   27   0.306  -0.346   0.204
    1UNL     H3   28   0.468  -0.293   0.167
    1UNL     H4   29   0.357  -0.085   0.107
    1UNL     H5   30   0.167  -0.354  -0.106
    1UNL     H6   31   0.117  -0.350   0.059
    1UNL     H7   32   0.005  -0.246  -0.287
    1UNL     H8   33  -0.116  -0.134  -0.203
    1UNL     H9   34   0.038   0.038  -0.222
    1UNL    H10   35   0.160  -0.070  -0.285
    1UNL    H11   36   0.260  -0.008  -0.109
    1UNL    H12   37   0.240   0.108   0.143
    1UNL    H13   38   0.134  -0.006   0.206
    1UNL    H14   39   0.044   0.263   0.181
    1UNL    H15   40   0.081   0.547  -0.080
    1UNL    H16   41   0.227   0.429  -0.083
    1UNL    H17   42   0.097   0.411  -0.206
    1UNL    H18   43  -0.117   0.263  -0.002
    1UNL    H19   44  -0.381   0.312  -0.001
    1UNL    H20   45  -0.591   0.189   0.056
    1UNL    H21   46  -0.608  -0.036   0.111
    1UNL    H22   47  -0.406  -0.184   0.075
    1UNL    H23   48  -0.051  -0.235   0.124
    1UNL    H24   49  -0.198  -0.271   0.021
   0.00000   0.00000   0.00000   0.00000   0.00000   0.00000   0.00000   0.00000   0.00000
Generated with MDTraj, t= 20.0
 49
    1UNL     C1    1   0.394  -0.278   0.135
    1UNL     C2    2   0.333  -0.178   0.045
    1UNL     C3    3   0.208  -0.174  -0.012
    1UNL     C4    4   0.113  -0.292  -0.012
    1UNL     N1    5  -0.022  -0.242  -0.055
    1UNL     C5    6  -0.024  -0.178  -0.190
    1UNL     C6    7   0.091  -0.072  -0.215
    1UNL     C7    8   0.163  -0.038  -0.083
    1UNL     C8    9   0.086   0.069   0.004
    1UNL     C9   10   0.130   0.069   0.152
    1UNL     O1   11   0.046   0.159   0.220
    1UNL    C10   12   0.132   0.205  -0.047
    1UNL     O2   13   0.219   0.207  -0.132
    1UNL     O3   14   0.066   0.320  -0.008
    1UNL    C11   15   0.120   0.431  -0.059
    1UNL    C12   16  -0.068   0.069  -0.011
    1UNL     N2   17  -0.155   0.183  -0.004
    1UNL    C13   18  -0.286   0.139   0.016
    1UNL    C14   19  -0.415   0.210   0.016
    1UNL    C15   20  -0.522   0.129   0.033
    1UNL    C16   21  -0.508  -0.008   0.045
    1UNL    C17   22  -0.392  -0.070   0.050
    1UNL    C18   23  -0.275   0.002   0.035
    1UNL    C19   24  -0.143  -0.039   0.016
    1UNL    C20   25  -0.091  -0.175   0.057
    1UNL     H1   26   0.368  -0.386   0.113
    1UNL     H2   27   0.375  -0.252   0.243
    1UNL     H3   28   0.506  -0.273   0.136
    1UNL     H4   29   0.388  -0.086   0.045
    1UNL     H5   30   0.143  -0.373  -0.080
    1UNL     H6   31   0.097  -0.341   0.082
    1UNL     H7   32  -0.023  -0.260  -0.272
    1UNL     H8   33  -0.120  -0.124  -0.199
    1UNL     H9   34   0.040   0.017  -0.249
    1UNL    H10   35   0.161  -0.111  -0.294
    1UNL    H11   36   0.255   0.007  -0.113
    1UNL    H12   37   0.228   0.104   0.175
    1UNL    H13   38   0.133  -0.036   0.188
    1UNL    H14   39   0.029   0.243   0.168
    1UNL    H15   40   0.093   0.519   0.000
    1UNL    H16   41   0.227   0.412  -0.062
    1UNL    H17   42   0.086   0.441  -0.160
    1UNL    H18   43  -0.126   0.273  -0.040
    1UNL    H19   44  -0.414   0.310  -0.015
    1UNL    H20   45  -0.624   0.173   0.027
    1UNL    H21   46  -0.597  -0.068   0.038
    1UNL    H22   47  -0.394  -0.178   0.039
    1UNL    H23   48  -0.020  -0.177   0.140
    1UNL    H24   49  -0.174  -0.249   0.066
   0.00000   0.00000   0.00000   0.00000   0.00000   0.00000   0.00000   0.00000   0.00000
Generated with MDTraj, t= 21.0
 49
    1UNL     C1    1   0.393  -0.254   0.118
    1UNL     C2    2   0.340  -0.148   0.035
    1UNL     C3    3   0.212  -0.155  -0.009
    1UNL     C4    4   0.127  -0.270   0.015
    1UNL     N1    5  -0.017  -0.251  -0.046
    1UNL     C5    6  -0.027  -0.199  -0.188
    1UNL     C6    7   0.057  -0.076  -0.212
    1UNL     C7    8   0.151  -0.038  -0.087
    1UNL     C8    9   0.085   0.066  -0.002
    1UNL     C9   10   0.143   0.061   0.145
    1UNL     O1   11   0.086   0.149   0.233
    1UNL    C10   12   0.119   0.203  -0.050
    1UNL     O2   13   0.180   0.216  -0.155
    1UNL     O3   14   0.081   0.312   0.026
    1UNL    C11   15   0.131   0.437  -0.023
    1UNL    C12   16  -0.061   0.052   0.005
    1UNL     N2   17  -0.139   0.169  -0.021
    1UNL    C13   18  -0.275   0.130  -0.007
    1UNL    C14   19  -0.393   0.202  -0.017
    1UNL    C15   20  -0.515   0.145   0.009
    1UNL    C16   21  -0.528   0.014   0.050
    1UNL    C17   22  -0.411  -0.063   0.047
    1UNL    C18   23  -0.286  -0.004   0.022
    1UNL    C19   24  -0.151  -0.054   0.031
    1UNL    C20   25  -0.109  -0.197   0.063
    1UNL     H1   26   0.414  -0.349   0.061
    1UNL     H2   27   0.329  -0.272   0.215
    1UNL     H3   28   0.483  -0.221   0.167
    1UNL     H4   29   0.400  -0.057   0.032
    1UNL     H5   30   0.163  -0.362  -0.032
    1UNL     H6   31   0.118  -0.292   0.120
    1UNL     H7   32  -0.002  -0.290  -0.253
    1UNL     H8   33  -0.135  -0.182  -0.216
    1UNL     H9   34  -0.011   0.006  -0.226
    1UNL    H10   35   0.121  -0.081  -0.304
    1UNL    H11   36   0.242   0.006  -0.122
    1UNL    H12   37   0.251   0.069   0.136
    1UNL    H13   38   0.129  -0.039   0.193
    1UNL    H14   39   0.048   0.219   0.180
    1UNL    H15   40   0.070   0.522  -0.011
    1UNL    H16   41   0.227   0.451   0.015
    1UNL    H17   42   0.150   0.415  -0.122
    1UNL    H18   43  -0.109   0.263  -0.044
    1UNL    H19   44  -0.392   0.305  -0.053
    1UNL    H20   45  -0.606   0.194  -0.012
    1UNL    H21   46  -0.625  -0.032   0.065
    1UNL    H22   47  -0.435  -0.165   0.071
    1UNL    H23   48  -0.044  -0.198   0.152
    1UNL    H24   49  -0.195  -0.267   0.066
   0.00000   0.00000   0.00000   0.00000   0.00000   0.00000   0.00000   0.00000   0.00000
Generated with MDTraj, t= 22.0
 49
    1UNL     C1    1   0.412  -0.258   0.078
    1UNL     C2    2   0.337  -0.146   0.018
    1UNL     C3    3   0.208  -0.146  -0.013
    1UNL     C4    4   0.125  -0.256   0.035
    1UNL     N1    5  -0.015  -0.257  -0.022
    1UNL     C5    6  -0.021  -0.220  -0.169
    1UNL     C6    7   0.051  -0.093  -0.209
    1UNL     C7    8   0.147  -0.033  -0.096
    1UNL     C8    9   0.085   0.071   0.007
    1UNL     C9   10   0.145   0.049   0.151
    1UNL     O1   11   0.085   0.128   0.244
    1UNL    C10   12   0.118   0.215  -0.041
    1UNL     O2   13   0.156   0.224  -0.155
    1UNL     O3   14   0.109   0.320   0.041
    1UNL    C11   15   0.122   0.436  -0.027
    1UNL    C12   16  -0.067   0.060   0.012
    1UNL     N2   17  -0.150   0.168  -0.009
    1UNL    C13   18  -0.282   0.128  -0.009
    1UNL    C14   19  -0.386   0.208  -0.038
    1UNL    C15   20  -0.507   0.152  -0.019
    1UNL    C16   21  -0.519   0.021   0.021
    1UNL    C17   22  -0.412  -0.069   0.049
    1UNL    C18   23  -0.288  -0.004   0.026
    1UNL    C19   24  -0.151  -0.050   0.031
    1UNL    C20   25  -0.112  -0.193   0.071
    1UNL     H1   26   0.483  -0.299   0.001
    1UNL     H2   27   0.350  -0.344   0.127
    1UNL     H3   28   0.468  -0.220   0.162
    1UNL     H4   29   0.391  -0.054   0.007
    1UNL     H5   30   0.166  -0.351  -0.005
    1UNL     H6   31   0.111  -0.267   0.142
    1UNL     H7   32   0.022  -0.305  -0.233
    1UNL     H8   33  -0.131  -0.229  -0.194
    1UNL     H9   34  -0.008  -0.014  -0.250
    1UNL    H10   35   0.119  -0.121  -0.293
    1UNL    H11   36   0.228   0.021  -0.138
    1UNL    H12   37   0.254   0.072   0.162
    1UNL    H13   38   0.135  -0.059   0.177
    1UNL    H14   39   0.072   0.214   0.197
    1UNL    H15   40   0.107   0.517   0.040
    1UNL    H16   41   0.220   0.440  -0.067
    1UNL    H17   42   0.059   0.431  -0.111
    1UNL    H18   43  -0.115   0.262  -0.033
    1UNL    H19   44  -0.372   0.314  -0.058
    1UNL    H20   45  -0.596   0.216  -0.036
    1UNL    H21   46  -0.621  -0.010   0.041
    1UNL    H22   47  -0.427  -0.166   0.098
    1UNL    H23   48  -0.057  -0.200   0.169
    1UNL    H24   49  -0.204  -0.253   0.066
   0.00000   0.00000   0.00000   0.00000   0.00000   0.00000   0.00000   0.00000   0.00000
Generated with MDTraj, t= 23.0
 49
    1UNL     C1    1   0.434  -0.274   0.045
    1UNL     C2    2   0.343  -0.181  -0.037
    1UNL     C3    3   0.215  -0.161  -0.014
    1UNL     C4    4   0.121  -0.270   0.047
    1UNL     N1    5  -0.012  -0.243  -0.012
    1UNL     C5    6  -0.020  -0.216  -0.155
    1UNL     C6    7   0.059  -0.086  -0.195
    1UNL     C7    8   0.152  -0.040  -0.081
    1UNL     C8    9   0.079   0.071   0.019
    1UNL     C9   10   0.127   0.075   0.160
    1UNL     O1   11   0.058   0.154   0.257
    1UNL    C10   12   0.112   0.204  -0.045
    1UNL     O2   13   0.150   0.207  -0.162
    1UNL     O3   14   0.090   0.313   0.043
    1UNL    C11   15   0.144   0.427  -0.011
    1UNL    C12   16  -0.072   0.071   0.012
    1UNL     N2   17  -0.148   0.176  -0.011
    1UNL    C13   18  -0.279   0.146  -0.009
    1UNL    C14   19  -0.401   0.210  -0.025
    1UNL    C15   20  -0.517   0.138  -0.030
    1UNL    C16   21  -0.517  -0.003  -0.007
    1UNL    C17   22  -0.405  -0.069   0.022
    1UNL    C18   23  -0.283   0.006   0.022
    1UNL    C19   24  -0.148  -0.037   0.044
    1UNL    C20   25  -0.090  -0.171   0.090
    1UNL     H1   26   0.503  -0.337  -0.020
    1UNL     H2   27   0.374  -0.336   0.110
    1UNL     H3   28   0.494  -0.216   0.118
    1UNL     H4   29   0.392  -0.104  -0.095
    1UNL     H5   30   0.136  -0.378   0.019
    1UNL     H6   31   0.112  -0.264   0.157
    1UNL     H7   32   0.011  -0.313  -0.206
    1UNL     H8   33  -0.129  -0.197  -0.184
    1UNL     H9   34  -0.015  -0.010  -0.205
    1UNL    H10   35   0.108  -0.098  -0.294
    1UNL    H11   36   0.232   0.013  -0.127
    1UNL    H12   37   0.236   0.102   0.153
    1UNL    H13   38   0.125  -0.023   0.211
    1UNL    H14   39   0.065   0.250   0.233
    1UNL    H15   40   0.208   0.474   0.063
    1UNL    H16   41   0.205   0.396  -0.099
    1UNL    H17   42   0.065   0.489  -0.054
    1UNL    H18   43  -0.107   0.270   0.012
    1UNL    H19   44  -0.405   0.317  -0.032
    1UNL    H20   45  -0.605   0.197  -0.038
    1UNL    H21   46  -0.612  -0.049  -0.002
    1UNL    H22   47  -0.398  -0.168   0.061
    1UNL    H23   48  -0.025  -0.141   0.178
    1UNL    H24   49  -0.167  -0.245   0.111
   0.00000   0.00000   0.00000   0.00000   0.00000   0.00000   0.00000   0.00000   0.00000
Generated with MDTraj, t= 24.0
 49
    1UNL     C1    1   0.414  -0.289   0.012
    1UNL     C2    2   0.333  -0.164  -0.013
    1UNL     C3    3   0.205  -0.150  -0.007
    1UNL     C4    4   0.117  -0.252   0.056
    1UNL     N1    5  -0.016  -0.248  -0.007
    1UNL     C5    6  -0.013  -0.218  -0.154
    1UNL     C6    7   0.044  -0.073  -0.180
    1UNL     C7    8   0.141  -0.033  -0.074
    1UNL     C8    9   0.084   0.076   0.024
    1UNL     C9   10   0.148   0.070   0.159
    1UNL     O1   11   0.080   0.154   0.258
    1UNL    C10   12   0.125   0.216  -0.045
    1UNL     O2   13   0.168   0.227  -0.160
    1UNL     O3   14   0.117   0.324   0.044
    1UNL    C11   15   0.145   0.442  -0.023
    1UNL    C12   16  -0.067   0.069   0.028
    1UNL     N2   17  -0.148   0.161  -0.018
    1UNL    C13   18  -0.280   0.127  -0.008
    1UNL    C14   19  -0.399   0.198  -0.037
    1UNL    C15   20  -0.520   0.131  -0.043
    1UNL    C16   21  -0.523  -0.007  -0.007
    1UNL    C17   22  -0.415  -0.073   0.033
    1UNL    C18   23  -0.288  -0.008   0.028
    1UNL    C19   24  -0.150  -0.048   0.044
    1UNL    C20   25  -0.118  -0.189   0.083
    1UNL     H1   26   0.384  -0.365  -0.065
    1UNL     H2   27   0.406  -0.324   0.110
    1UNL     H3   28   0.525  -0.266  -0.004
    1UNL     H4   29   0.382  -0.072  -0.044
    1UNL     H5   30   0.159  -0.354   0.039
    1UNL     H6   31   0.104  -0.235   0.165
    1UNL     H7   32   0.054  -0.291  -0.207
    1UNL     H8   33  -0.120  -0.233  -0.197
    1UNL     H9   34  -0.036  -0.005  -0.189
    1UNL    H10   35   0.089  -0.073  -0.281
    1UNL    H11   36   0.218   0.021  -0.124
    1UNL    H12   37   0.259   0.087   0.161
    1UNL    H13   38   0.128  -0.027   0.208
    1UNL    H14   39   0.085   0.247   0.230
    1UNL    H15   40   0.151   0.526   0.052
    1UNL    H16   41   0.246   0.427  -0.077
    1UNL    H17   42   0.070   0.454  -0.107
    1UNL    H18   43  -0.124   0.250  -0.067
    1UNL    H19   44  -0.387   0.297  -0.081
    1UNL    H20   45  -0.613   0.177  -0.079
    1UNL    H21   46  -0.618  -0.064  -0.017
    1UNL    H22   47  -0.405  -0.180   0.049
    1UNL    H23   48  -0.068  -0.186   0.186
    1UNL    H24   49  -0.214  -0.239   0.082
   0.00000   0.00000   0.00000   0.00000   0.00000   0.00000   0.00000   0.00000   0.00000
Generated with MDTraj, t= 25.0
 49
    1UNL     C1    1   0.428  -0.278   0.046
    1UNL     C2    2   0.350  -0.170  -0.016
    1UNL     C3    3   0.221  -0.153  -0.019
    1UNL     C4    4   0.127  -0.257   0.040
    1UNL     N1    5  -0.021  -0.246  -0.007
    1UNL     C5    6  -0.035  -0.203  -0.150
    1UNL     C6    7   0.047  -0.074  -0.185
    1UNL     C7    8   0.156  -0.034  -0.083
    1UNL     C8    9   0.086   0.069   0.014
    1UNL     C9   10   0.137   0.047   0.157
    1UNL     O1   11   0.110   0.149   0.254
    1UNL    C10   12   0.113   0.214  -0.042
    1UNL     O2   13   0.146   0.231  -0.156
    1UNL     O3   14   0.088   0.319   0.039
    1UNL    C11   15   0.131   0.435  -0.013
    1UNL    C12   16  -0.066   0.060   0.016
    1UNL     N2   17  -0.150   0.171  -0.009
    1UNL    C13   18  -0.283   0.123  -0.011
    1UNL    C14   19  -0.390   0.199  -0.054
    1UNL    C15   20  -0.518   0.142  -0.050
    1UNL    C16   21  -0.524   0.008  -0.003
    1UNL    C17   22  -0.415  -0.065   0.035
    1UNL    C18   23  -0.287  -0.007   0.030
    1UNL    C19   24  -0.148  -0.048   0.048
    1UNL    C20   25  -0.110  -0.186   0.098
    1UNL     H1   26   0.368  -0.341   0.109
    1UNL     H2   27   0.514  -0.239   0.098
    1UNL     H3   28   0.473  -0.341  -0.039
    1UNL     H4   29   0.407  -0.102  -0.077
    1UNL     H5   30   0.164  -0.356   0.004
    1UNL     H6   31   0.131  -0.264   0.151
    1UNL     H7   32  -0.004  -0.290  -0.214
    1UNL     H8   33  -0.149  -0.193  -0.176
    1UNL     H9   34  -0.023   0.006  -0.196
    1UNL    H10   35   0.087  -0.078  -0.286
    1UNL    H11   36   0.232   0.025  -0.130
    1UNL    H12   37   0.249   0.039   0.166
    1UNL    H13   38   0.091  -0.038   0.207
    1UNL    H14   39   0.081   0.229   0.200
    1UNL    H15   40   0.074   0.511   0.049
    1UNL    H16   41   0.244   0.446   0.007
    1UNL    H17   42   0.114   0.438  -0.127
    1UNL    H18   43  -0.111   0.267  -0.025
    1UNL    H19   44  -0.377   0.296  -0.091
    1UNL    H20   45  -0.606   0.191  -0.090
    1UNL    H21   46  -0.619  -0.039  -0.001
    1UNL    H22   47  -0.413  -0.172   0.056
    1UNL    H23   48  -0.063  -0.165   0.200
    1UNL    H24   49  -0.201  -0.242   0.103
   0.00000   0.00000   0.00000   0.00000   0.00000   0.00000   0.00000   0.00000   0.00000
Generated with MDTraj, t= 26.0
 49
    1UNL     C1    1   0.416  -0.258   0.082
    1UNL     C2    2   0.341  -0.163  -0.004
    1UNL     C3    3   0.210  -0.162  -0.025
    1UNL     C4    4   0.118  -0.281   0.019
    1UNL     N1    5  -0.023  -0.258  -0.019
    1UNL     C5    6  -0.037  -0.210  -0.156
    1UNL     C6    7   0.035  -0.080  -0.196
    1UNL     C7    8   0.143  -0.037  -0.089
    1UNL     C8    9   0.083   0.066   0.009
    1UNL     C9   10   0.149   0.057   0.156
    1UNL     O1   11   0.090   0.140   0.254
    1UNL    C10   12   0.127   0.203  -0.044
    1UNL     O2   13   0.180   0.235  -0.149
    1UNL     O3   14   0.073   0.310   0.031
    1UNL    C11   15   0.101   0.437  -0.021
    1UNL    C12   16  -0.063   0.065   0.020
    1UNL     N2   17  -0.138   0.187   0.005
    1UNL    C13   18  -0.273   0.142  -0.013
    1UNL    C14   19  -0.387   0.203  -0.048
    1UNL    C15   20  -0.506   0.134  -0.036
    1UNL    C16   21  -0.516   0.002   0.017
    1UNL    C17   22  -0.398  -0.068   0.034
    1UNL    C18   23  -0.280   0.005   0.019
    1UNL    C19   24  -0.144  -0.047   0.036
    1UNL    C20   25  -0.098  -0.179   0.086
    1UNL     H1   26   0.410  -0.239   0.187
    1UNL     H2   27   0.525  -0.262   0.054
    1UNL     H3   28   0.380  -0.357   0.065
    1UNL     H4   29   0.402  -0.097  -0.066
    1UNL     H5   30   0.149  -0.378  -0.029
    1UNL     H6   31   0.127  -0.303   0.128
    1UNL     H7   32  -0.022  -0.300  -0.222
    1UNL     H8   33  -0.153  -0.195  -0.167
    1UNL     H9   34  -0.043  -0.008  -0.213
    1UNL    H10   35   0.082  -0.076  -0.293
    1UNL    H11   36   0.225   0.012  -0.139
    1UNL    H12   37   0.254   0.096   0.154
    1UNL    H13   38   0.146  -0.044   0.198
    1UNL    H14   39   0.029   0.196   0.206
    1UNL    H15   40   0.088   0.512   0.059
    1UNL    H16   41   0.207   0.440  -0.058
    1UNL    H17   42   0.036   0.454  -0.111
    1UNL    H18   43  -0.115   0.286  -0.010
    1UNL    H19   44  -0.398   0.312  -0.069
    1UNL    H20   45  -0.597   0.189  -0.052
    1UNL    H21   46  -0.607  -0.052   0.043
    1UNL    H22   47  -0.392  -0.165   0.074
    1UNL    H23   48  -0.038  -0.152   0.179
    1UNL    H24   49  -0.188  -0.231   0.109
   0.00000   0.00000   0.00000   0.00000   0.00000   0.00000   0.00000   0.00000   0.00000
Generated with MDTraj, t= 27.0
 49
    1UNL     C1    1   0.397  -0.261   0.088
    1UNL     C2    2   0.326  -0.143   0.028
    1UNL     C3    3   0.206  -0.152  -0.022
    1UNL     C4    4   0.120  -0.262   0.015
    1UNL     N1    5  -0.015  -0.242  -0.032
    1UNL     C5    6  -0.030  -0.198  -0.170
    1UNL     C6    7   0.058  -0.079  -0.209
    1UNL     C7    8   0.148  -0.035  -0.093
    1UNL     C8    9   0.085   0.070   0.007
    1UNL     C9   10   0.144   0.058   0.154
    1UNL     O1   11   0.083   0.142   0.247
    1UNL    C10   12   0.133   0.211  -0.045
    1UNL     O2   13   0.219   0.221  -0.130
    1UNL     O3   14   0.078   0.316   0.018
    1UNL    C11   15   0.127   0.431  -0.047
    1UNL    C12   16  -0.066   0.065   0.010
    1UNL     N2   17  -0.156   0.170  -0.018
    1UNL    C13   18  -0.284   0.128   0.002
    1UNL    C14   19  -0.399   0.202  -0.013
    1UNL    C15   20  -0.521   0.135  -0.007
    1UNL    C16   21  -0.521   0.002   0.022
    1UNL    C17   22  -0.409  -0.076   0.047
    1UNL    C18   23  -0.283  -0.010   0.033
    1UNL    C19   24  -0.140  -0.050   0.039
    1UNL    C20   25  -0.111  -0.192   0.065
    1UNL     H1   26   0.395  -0.261   0.196
    1UNL     H2   27   0.506  -0.256   0.051
    1UNL     H3   28   0.359  -0.349   0.052
    1UNL     H4   29   0.388  -0.063  -0.006
    1UNL     H5   30   0.165  -0.357  -0.027
    1UNL     H6   31   0.126  -0.284   0.125
    1UNL     H7   32   0.000  -0.284  -0.238
    1UNL     H8   33  -0.145  -0.185  -0.186
    1UNL     H9   34   0.004   0.009  -0.240
    1UNL    H10   35   0.113  -0.108  -0.297
    1UNL    H11   36   0.226   0.019  -0.147
    1UNL    H12   37   0.255   0.074   0.150
    1UNL    H13   38   0.115  -0.042   0.183
    1UNL    H14   39   0.023   0.211   0.204
    1UNL    H15   40   0.103   0.525  -0.003
    1UNL    H16   41   0.232   0.423  -0.055
    1UNL    H17   42   0.092   0.424  -0.148
    1UNL    H18   43  -0.130   0.264  -0.040
    1UNL    H19   44  -0.383   0.306  -0.024
    1UNL    H20   45  -0.614   0.194  -0.028
    1UNL    H21   46  -0.615  -0.049   0.039
    1UNL    H22   47  -0.400  -0.183   0.080
    1UNL    H23   48  -0.062  -0.210   0.165
    1UNL    H24   49  -0.199  -0.252   0.060
   0.00000   0.00000   0.00000   0.00000   0.00000   0.00000   0.00000   0.00000   0.00000
Generated with MDTraj, t= 28.0
 49
    1UNL     C1    1   0.395  -0.275   0.096
    1UNL     C2    2   0.337  -0.156   0.031
    1UNL     C3    3   0.213  -0.160  -0.013
    1UNL     C4    4   0.123  -0.278   0.003
    1UNL     N1    5  -0.012  -0.252  -0.052
    1UNL     C5    6  -0.020  -0.207  -0.190
    1UNL     C6    7   0.074  -0.080  -0.203
    1UNL     C7    8   0.160  -0.040  -0.084
    1UNL     C8    9   0.082   0.073   0.005
    1UNL     C9   10   0.124   0.078   0.156
    1UNL     O1   11   0.077   0.193   0.223
    1UNL    C10   12   0.124   0.206  -0.052
    1UNL     O2   13   0.228   0.217  -0.114
    1UNL     O3   14   0.057   0.317  -0.002
    1UNL    C11   15   0.133   0.426  -0.025
    1UNL    C12   16  -0.072   0.058  -0.001
    1UNL     N2   17  -0.151   0.160  -0.030
    1UNL    C13   18  -0.282   0.132  -0.003
    1UNL    C14   19  -0.403   0.203   0.010
    1UNL    C15   20  -0.524   0.146   0.031
    1UNL    C16   21  -0.527   0.005   0.039
    1UNL    C17   22  -0.411  -0.068   0.053
    1UNL    C18   23  -0.286  -0.007   0.030
    1UNL    C19   24  -0.150  -0.054   0.025
    1UNL    C20   25  -0.101  -0.191   0.055
    1UNL     H1   26   0.323  -0.345   0.135
    1UNL     H2   27   0.462  -0.250   0.181
    1UNL     H3   28   0.457  -0.328   0.027
    1UNL     H4   29   0.402  -0.073   0.003
    1UNL     H5   30   0.176  -0.366  -0.043
    1UNL     H6   31   0.125  -0.308   0.112
    1UNL     H7   32   0.028  -0.295  -0.245
    1UNL     H8   33  -0.124  -0.181  -0.233
    1UNL     H9   34   0.021   0.007  -0.236
    1UNL    H10   35   0.145  -0.110  -0.277
    1UNL    H11   36   0.245   0.009  -0.136
    1UNL    H12   37   0.234   0.071   0.152
    1UNL    H13   38   0.078  -0.008   0.199
    1UNL    H14   39  -0.014   0.211   0.197
    1UNL    H15   40   0.066   0.505  -0.036
    1UNL    H16   41   0.199   0.448   0.051
    1UNL    H17   42   0.183   0.409  -0.116
    1UNL    H18   43  -0.108   0.245  -0.056
    1UNL    H19   44  -0.409   0.309  -0.015
    1UNL    H20   45  -0.612   0.198   0.035
    1UNL    H21   46  -0.620  -0.047   0.038
    1UNL    H22   47  -0.404  -0.170   0.064
    1UNL    H23   48  -0.042  -0.188   0.150
    1UNL    H24   49  -0.173  -0.270   0.076
   0.00000   0.00000   0.00000   0.00000   0.00000   0.00000   0.00000   0.00000   0.00000
Generated with MDTraj, t= 29.0
 49
    1UNL     C1    1   0.400  -0.278   0.124
    1UNL     C2    2   0.335  -0.174   0.034
    1UNL     C3    3   0.207  -0.162  -0.006
    1UNL     C4    4   0.110  -0.282   0.003
    1UNL     N1    5  -0.016  -0.262  -0.059
    1UNL     C5    6  -0.011  -0.208  -0.196
    1UNL     C6    7   0.086  -0.080  -0.213
    1UNL     C7    8   0.161  -0.031  -0.084
    1UNL     C8    9   0.085   0.080   0.006
    1UNL     C9   10   0.133   0.065   0.155
    1UNL     O1   11   0.050   0.140   0.242
    1UNL    C10   12   0.132   0.218  -0.046
    1UNL     O2   13   0.229   0.225  -0.118
    1UNL     O3   14   0.057   0.322  -0.015
    1UNL    C11   15   0.116   0.438  -0.065
    1UNL    C12   16  -0.067   0.070   0.003
    1UNL     N2   17  -0.153   0.177  -0.019
    1UNL    C13   18  -0.282   0.142   0.001
    1UNL    C14   19  -0.407   0.210   0.010
    1UNL    C15   20  -0.521   0.138   0.039
    1UNL    C16   21  -0.515  -0.001   0.071
    1UNL    C17   22  -0.401  -0.069   0.053
    1UNL    C18   23  -0.282   0.003   0.017
    1UNL    C19   24  -0.146  -0.041   0.008
    1UNL    C20   25  -0.106  -0.187   0.036
    1UNL     H1   26   0.348  -0.373   0.131
    1UNL     H2   27   0.411  -0.245   0.221
    1UNL     H3   28   0.503  -0.307   0.092
    1UNL     H4   29   0.407  -0.095   0.016
    1UNL     H5   30   0.171  -0.371  -0.034
    1UNL     H6   31   0.105  -0.312   0.112
    1UNL     H7   32   0.015  -0.295  -0.268
    1UNL     H8   33  -0.119  -0.183  -0.221
    1UNL     H9   34   0.032   0.004  -0.254
    1UNL    H10   35   0.163  -0.095  -0.285
    1UNL    H11   36   0.253   0.026  -0.112
    1UNL    H12   37   0.235   0.106   0.160
    1UNL    H13   38   0.133  -0.038   0.180
    1UNL    H14   39   0.049   0.238   0.216
    1UNL    H15   40   0.063   0.529  -0.042
    1UNL    H16   41   0.216   0.448  -0.036
    1UNL    H17   42   0.117   0.420  -0.171
    1UNL    H18   43  -0.113   0.269  -0.007
    1UNL    H19   44  -0.425   0.312  -0.020
    1UNL    H20   45  -0.628   0.178   0.051
    1UNL    H21   46  -0.603  -0.060   0.103
    1UNL    H22   47  -0.401  -0.178   0.076
    1UNL    H23   48  -0.063  -0.199   0.136
    1UNL    H24   49  -0.202  -0.240   0.045
   0.00000   0.00000   0.00000   0.00000   0.00000   0.00000   0.00000   0.00000   0.00000
Generated with MDTraj, t= 30.0
 49
    1UNL     C1    1   0.391  -0.257   0.133
    1UNL     C2    2   0.338  -0.147   0.050
    1UNL     C3    3   0.218  -0.161  -0.007
    1UNL     C4    4   0.128  -0.279  -0.005
    1UNL     N1    5  -0.008  -0.247  -0.059
    1UNL     C5    6  -0.019  -0.186  -0.194
    1UNL     C6    7   0.074  -0.071  -0.214
    1UNL     C7    8   0.159  -0.041  -0.085
    1UNL     C8    9   0.089   0.067  -0.005
    1UNL     C9   10   0.121   0.057   0.152
    1UNL     O1   11   0.037   0.130   0.238
    1UNL    C10   12   0.136   0.206  -0.047
    1UNL     O2   13   0.220   0.215  -0.134
    1UNL     O3   14   0.064   0.315  -0.007
    1UNL    C11   15   0.102   0.431  -0.082
    1UNL    C12   16  -0.065   0.055  -0.012
    1UNL     N2   17  -0.147   0.168   0.006
    1UNL    C13   18  -0.275   0.129   0.020
    1UNL    C14   19  -0.385   0.217   0.011
    1UNL    C15   20  -0.504   0.156   0.038
    1UNL    C16   21  -0.516   0.018   0.051
    1UNL    C17   22  -0.406  -0.067   0.046
    1UNL    C18   23  -0.280  -0.009   0.034
    1UNL    C19   24  -0.146  -0.055   0.023
    1UNL    C20   25  -0.112  -0.199   0.040
    1UNL     H1   26   0.423  -0.340   0.072
    1UNL     H2   27   0.324  -0.282   0.205
    1UNL     H3   28   0.482  -0.219   0.189
    1UNL     H4   29   0.389  -0.051   0.051
    1UNL     H5   30   0.186  -0.349  -0.074
    1UNL     H6   31   0.141  -0.330   0.095
    1UNL     H7   32  -0.009  -0.263  -0.282
    1UNL     H8   33  -0.125  -0.145  -0.194
    1UNL     H9   34   0.016   0.022  -0.216
    1UNL    H10   35   0.127  -0.070  -0.306
    1UNL    H11   36   0.251   0.012  -0.122
    1UNL    H12   37   0.224   0.087   0.177
    1UNL    H13   38   0.112  -0.042   0.187
    1UNL    H14   39   0.001   0.206   0.191
    1UNL    H15   40   0.081   0.533  -0.036
    1UNL    H16   41   0.208   0.427  -0.105
    1UNL    H17   42   0.046   0.420  -0.179
    1UNL    H18   43  -0.121   0.266  -0.021
    1UNL    H19   44  -0.380   0.325   0.018
    1UNL    H20   45  -0.595   0.204   0.050
    1UNL    H21   46  -0.611  -0.017   0.081
    1UNL    H22   47  -0.420  -0.173   0.064
    1UNL    H23   48  -0.088  -0.224   0.142
    1UNL    H24   49  -0.202  -0.261   0.016
   0.00000   0.00000   0.00000   0.00000   0.00000   0.00000   0.00000   0.00000   0.00000
Generated with MDTraj, t= 31.0
 49
    1UNL     C1    1   0.379  -0.284   0.133
    1UNL     C2    2   0.326  -0.166   0.064
    1UNL     C3    3   0.209  -0.156  -0.002
    1UNL     C4    4   0.125  -0.279  -0.002
    1UNL     N1    5  -0.011  -0.250  -0.053
    1UNL     C5    6  -0.008  -0.195  -0.192
    1UNL     C6    7   0.084  -0.073  -0.217
    1UNL     C7    8   0.154  -0.039  -0.084
    1UNL     C8    9   0.082   0.075  -0.007
    1UNL     C9   10   0.135   0.066   0.141
    1UNL     O1   11   0.096   0.170   0.223
    1UNL    C10   12   0.123   0.209  -0.062
    1UNL     O2   13   0.187   0.222  -0.164
    1UNL     O3   14   0.079   0.312   0.016
    1UNL    C11   15   0.116   0.432  -0.031
    1UNL    C12   16  -0.072   0.060  -0.009
    1UNL     N2   17  -0.145   0.177  -0.006
    1UNL    C13   18  -0.280   0.136   0.004
    1UNL    C14   19  -0.403   0.207   0.013
    1UNL    C15   20  -0.517   0.137   0.037
    1UNL    C16   21  -0.521   0.002   0.052
    1UNL    C17   22  -0.408  -0.073   0.037
    1UNL    C18   23  -0.284  -0.009   0.020
    1UNL    C19   24  -0.149  -0.053   0.017
    1UNL    C20   25  -0.105  -0.188   0.054
    1UNL     H1   26   0.477  -0.301   0.096
    1UNL     H2   27   0.316  -0.374   0.130
    1UNL     H3   28   0.387  -0.258   0.240
    1UNL     H4   29   0.379  -0.077   0.086
    1UNL     H5   30   0.189  -0.353  -0.058
    1UNL     H6   31   0.125  -0.318   0.103
    1UNL     H7   32   0.015  -0.289  -0.258
    1UNL     H8   33  -0.114  -0.167  -0.216
    1UNL     H9   34   0.024   0.014  -0.247
    1UNL    H10   35   0.161  -0.083  -0.291
    1UNL    H11   36   0.254   0.009  -0.109
    1UNL    H12   37   0.245   0.084   0.141
    1UNL    H13   38   0.123  -0.029   0.188
    1UNL    H14   39   0.024   0.220   0.173
    1UNL    H15   40   0.037   0.511   0.005
    1UNL    H16   41   0.216   0.462   0.010
    1UNL    H17   42   0.115   0.425  -0.146
    1UNL    H18   43  -0.112   0.277   0.006
    1UNL    H19   44  -0.398   0.313  -0.006
    1UNL    H20   45  -0.606   0.201   0.043
    1UNL    H21   46  -0.615  -0.054   0.054
    1UNL    H22   47  -0.420  -0.178   0.041
    1UNL    H23   48  -0.054  -0.190   0.148
    1UNL    H24   49  -0.196  -0.254   0.067
   0.00000   0.00000   0.00000   0.00000   0.00000   0.00000   0.00000   0.00000   0.00000
Generated with MDTraj, t= 32.0
 49
    1UNL     C1    1   0.379  -0.277   0.117
    1UNL     C2    2   0.325  -0.166   0.039
    1UNL     C3    3   0.200  -0.158  -0.004
    1UNL     C4    4   0.106  -0.282  -0.006
    1UNL     N1    5  -0.028  -0.249  -0.059
    1UNL     C5    6  -0.019  -0.191  -0.195
    1UNL     C6    7   0.081  -0.066  -0.207
    1UNL     C7    8   0.157  -0.030  -0.080
    1UNL     C8    9   0.081   0.080   0.017
    1UNL     C9   10   0.147   0.081   0.154
    1UNL     O1   11   0.084   0.182   0.233
    1UNL    C10   12   0.113   0.217  -0.054
    1UNL     O2   13   0.161   0.213  -0.167
    1UNL     O3   14   0.093   0.325   0.022
    1UNL    C11   15   0.155   0.430  -0.049
    1UNL    C12   16  -0.064   0.057   0.021
    1UNL     N2   17  -0.147   0.166   0.001
    1UNL    C13   18  -0.283   0.126   0.003
    1UNL    C14   19  -0.403   0.201  -0.007
    1UNL    C15   20  -0.516   0.126   0.006
    1UNL    C16   21  -0.513  -0.007   0.039
    1UNL    C17   22  -0.399  -0.079   0.050
    1UNL    C18   23  -0.281  -0.014   0.025
    1UNL    C19   24  -0.142  -0.053   0.041
    1UNL    C20   25  -0.103  -0.193   0.058
    1UNL     H1   26   0.436  -0.239   0.196
    1UNL     H2   27   0.446  -0.350   0.056
    1UNL     H3   28   0.303  -0.344   0.156
    1UNL     H4   29   0.378  -0.069   0.038
    1UNL     H5   30   0.150  -0.357  -0.076
    1UNL     H6   31   0.107  -0.335   0.093
    1UNL     H7   32  -0.001  -0.281  -0.269
    1UNL     H8   33  -0.125  -0.165  -0.217
    1UNL     H9   34   0.031   0.024  -0.248
    1UNL    H10   35   0.159  -0.088  -0.276
    1UNL    H11   36   0.248   0.025  -0.119
    1UNL    H12   37   0.257   0.097   0.153
    1UNL    H13   38   0.134  -0.008   0.209
    1UNL    H14   39   0.122   0.267   0.208
    1UNL    H15   40   0.149   0.532   0.005
    1UNL    H16   41   0.266   0.407  -0.055
    1UNL    H17   42   0.109   0.436  -0.153
    1UNL    H18   43  -0.121   0.262  -0.031
    1UNL    H19   44  -0.390   0.303  -0.039
    1UNL    H20   45  -0.609   0.179  -0.025
    1UNL    H21   46  -0.610  -0.052   0.041
    1UNL    H22   47  -0.406  -0.191   0.062
    1UNL    H23   48  -0.045  -0.204   0.147
    1UNL    H24   49  -0.196  -0.256   0.069
   0.00000   0.00000   0.00000   0.00000   0.00000   0.00000   0.00000   0.00000   0.00000
Generated with MDTraj, t= 33.0
 49
    1UNL     C1    1   0.393  -0.268   0.101
    1UNL     C2    2   0.327  -0.156   0.035
    1UNL     C3    3   0.202  -0.162  -0.006
    1UNL     C4    4   0.113  -0.290  -0.018
    1UNL     N1    5  -0.033  -0.242  -0.043
    1UNL     C5    6  -0.040  -0.182  -0.175
    1UNL     C6    7   0.069  -0.074  -0.201
    1UNL     C7    8   0.155  -0.041  -0.078
    1UNL     C8    9   0.092   0.076   0.015
    1UNL     C9   10   0.146   0.073   0.160
    1UNL     O1   11   0.061   0.149   0.247
    1UNL    C10   12   0.115   0.209  -0.051
    1UNL     O2   13   0.135   0.207  -0.172
    1UNL     O3   14   0.118   0.323   0.029
    1UNL    C11   15   0.137   0.430  -0.061
    1UNL    C12   16  -0.056   0.064   0.020
    1UNL     N2   17  -0.141   0.170  -0.004
    1UNL    C13   18  -0.278   0.134   0.004
    1UNL    C14   19  -0.396   0.202  -0.013
    1UNL    C15   20  -0.510   0.126  -0.012
    1UNL    C16   21  -0.514  -0.014   0.003
    1UNL    C17   22  -0.397  -0.074   0.044
    1UNL    C18   23  -0.276  -0.000   0.037
    1UNL    C19   24  -0.140  -0.039   0.058
    1UNL    C20   25  -0.083  -0.173   0.079
    1UNL     H1   26   0.373  -0.271   0.204
    1UNL     H2   27   0.508  -0.262   0.075
    1UNL     H3   28   0.369  -0.364   0.058
    1UNL     H4   29   0.382  -0.067   0.016
    1UNL     H5   30   0.153  -0.355  -0.099
    1UNL     H6   31   0.102  -0.362   0.068
    1UNL     H7   32  -0.031  -0.272  -0.246
    1UNL     H8   33  -0.144  -0.144  -0.190
    1UNL     H9   34   0.023   0.023  -0.234
    1UNL    H10   35   0.126  -0.110  -0.285
    1UNL    H11   36   0.238   0.001  -0.140
    1UNL    H12   37   0.254   0.096   0.181
    1UNL    H13   38   0.135  -0.023   0.206
    1UNL    H14   39   0.061   0.241   0.206
    1UNL    H15   40   0.170   0.516  -0.003
    1UNL    H16   41   0.223   0.409  -0.128
    1UNL    H17   42   0.043   0.447  -0.113
    1UNL    H18   43  -0.101   0.266   0.002
    1UNL    H19   44  -0.392   0.310  -0.025
    1UNL    H20   45  -0.599   0.176  -0.018
    1UNL    H21   46  -0.611  -0.063  -0.003
    1UNL    H22   47  -0.401  -0.174   0.068
    1UNL    H23   48  -0.005  -0.165   0.151
    1UNL    H24   49  -0.168  -0.235   0.119
   0.00000   0.00000   0.00000   0.00000   0.00000   0.00000   0.00000   0.00000   0.00000
Generated with MDTraj, t= 34.0
 49
    1UNL     C1    1   0.398  -0.293   0.090
    1UNL     C2    2   0.330  -0.169   0.039
    1UNL     C3    3   0.208  -0.161  -0.014
    1UNL     C4    4   0.116  -0.272   0.019
    1UNL     N1    5  -0.026  -0.250  -0.025
    1UNL     C5    6  -0.023  -0.199  -0.166
    1UNL     C6    7   0.059  -0.069  -0.201
    1UNL     C7    8   0.152  -0.035  -0.086
    1UNL     C8    9   0.091   0.075   0.002
    1UNL     C9   10   0.163   0.068   0.140
    1UNL     O1   11   0.104   0.155   0.233
    1UNL    C10   12   0.117   0.220  -0.055
    1UNL     O2   13   0.119   0.235  -0.176
    1UNL     O3   14   0.118   0.319   0.038
    1UNL    C11   15   0.129   0.443  -0.022
    1UNL    C12   16  -0.062   0.061   0.023
    1UNL     N2   17  -0.143   0.162  -0.017
    1UNL    C13   18  -0.278   0.129  -0.001
    1UNL    C14   19  -0.398   0.202  -0.031
    1UNL    C15   20  -0.517   0.132  -0.032
    1UNL    C16   21  -0.521  -0.007   0.011
    1UNL    C17   22  -0.407  -0.073   0.046
    1UNL    C18   23  -0.283  -0.004   0.032
    1UNL    C19   24  -0.149  -0.043   0.050
    1UNL    C20   25  -0.104  -0.184   0.087
    1UNL     H1   26   0.347  -0.339   0.178
    1UNL     H2   27   0.505  -0.273   0.120
    1UNL     H3   28   0.410  -0.364   0.012
    1UNL     H4   29   0.398  -0.085   0.020
    1UNL     H5   30   0.135  -0.367  -0.033
    1UNL     H6   31   0.116  -0.298   0.127
    1UNL     H7   32   0.015  -0.289  -0.222
    1UNL     H8   33  -0.133  -0.190  -0.190
    1UNL     H9   34  -0.019   0.008  -0.231
    1UNL    H10   35   0.122  -0.088  -0.287
    1UNL    H11   36   0.237   0.019  -0.128
    1UNL    H12   37   0.267   0.112   0.144
    1UNL    H13   38   0.175  -0.026   0.190
    1UNL    H14   39   0.073   0.237   0.192
    1UNL    H15   40   0.112   0.511   0.054
    1UNL    H16   41   0.232   0.461  -0.050
    1UNL    H17   42   0.058   0.449  -0.100
    1UNL    H18   43  -0.104   0.250  -0.056
    1UNL    H19   44  -0.403   0.307  -0.047
    1UNL    H20   45  -0.613   0.197  -0.040
    1UNL    H21   46  -0.617  -0.053   0.016
    1UNL    H22   47  -0.415  -0.171   0.098
    1UNL    H23   48  -0.042  -0.185   0.175
    1UNL    H24   49  -0.196  -0.244   0.105
   0.00000   0.00000   0.00000   0.00000   0.00000   0.00000   0.00000   0.00000   0.00000
Generated with MDTraj, t= 35.0
 49
    1UNL     C1    1   0.422  -0.254   0.071
    1UNL     C2    2   0.348  -0.146  -0.000
    1UNL     C3    3   0.217  -0.160  -0.029
    1UNL     C4    4   0.129  -0.268   0.028
    1UNL     N1    5  -0.016  -0.243  -0.018
    1UNL     C5    6  -0.035  -0.201  -0.163
    1UNL     C6    7   0.036  -0.070  -0.190
    1UNL     C7    8   0.139  -0.039  -0.082
    1UNL     C8    9   0.082   0.064   0.015
    1UNL     C9   10   0.132   0.049   0.167
    1UNL     O1   11   0.099   0.153   0.252
    1UNL    C10   12   0.121   0.203  -0.033
    1UNL     O2   13   0.139   0.206  -0.153
    1UNL     O3   14   0.108   0.317   0.040
    1UNL    C11   15   0.146   0.430  -0.043
    1UNL    C12   16  -0.069   0.064   0.014
    1UNL     N2   17  -0.147   0.170  -0.011
    1UNL    C13   18  -0.277   0.131  -0.018
    1UNL    C14   19  -0.395   0.197  -0.054
    1UNL    C15   20  -0.522   0.141  -0.027
    1UNL    C16   21  -0.518   0.010   0.027
    1UNL    C17   22  -0.403  -0.066   0.045
    1UNL    C18   23  -0.279  -0.007   0.016
    1UNL    C19   24  -0.151  -0.046   0.040
    1UNL    C20   25  -0.113  -0.187   0.082
    1UNL     H1   26   0.393  -0.260   0.183
    1UNL     H2   27   0.527  -0.249   0.065
    1UNL     H3   28   0.404  -0.348   0.018
    1UNL     H4   29   0.404  -0.069  -0.047
    1UNL     H5   30   0.155  -0.369  -0.002
    1UNL     H6   31   0.118  -0.259   0.137
    1UNL     H7   32   0.007  -0.284  -0.223
    1UNL     H8   33  -0.147  -0.206  -0.184
    1UNL     H9   34  -0.041   0.012  -0.196
    1UNL    H10   35   0.085  -0.070  -0.288
    1UNL    H11   36   0.223   0.024  -0.113
    1UNL    H12   37   0.242   0.032   0.167
    1UNL    H13   38   0.092  -0.039   0.217
    1UNL    H14   39   0.091   0.232   0.193
    1UNL    H15   40   0.151   0.513   0.016
    1UNL    H16   41   0.248   0.420  -0.076
    1UNL    H17   42   0.079   0.439  -0.122
    1UNL    H18   43  -0.120   0.267  -0.042
    1UNL    H19   44  -0.378   0.301  -0.084
    1UNL    H20   45  -0.610   0.188  -0.051
    1UNL    H21   46  -0.615  -0.033   0.046
    1UNL    H22   47  -0.412  -0.165   0.086
    1UNL    H23   48  -0.072  -0.199   0.184
    1UNL    H24   49  -0.195  -0.259   0.067
   0.00000   0.00000   0.00000   0.00000   0.00000   0.00000   0.00000   0.00000   0.00000
Generated with MDTraj, t= 36.0
 49
    1UNL     C1    1   0.426  -0.270   0.058
    1UNL     C2    2   0.353  -0.156  -0.004
    1UNL     C3    3   0.219  -0.150  -0.015
    1UNL     C4    4   0.136  -0.254   0.046
    1UNL     N1    5  -0.012  -0.251   0.000
    1UNL     C5    6  -0.031  -0.230  -0.148
    1UNL     C6    7   0.044  -0.105  -0.198
    1UNL     C7    8   0.137  -0.043  -0.097
    1UNL     C8    9   0.082   0.071  -0.002
    1UNL     C9   10   0.142   0.073   0.141
    1UNL     O1   11   0.055   0.126   0.232
    1UNL    C10   12   0.117   0.208  -0.053
    1UNL     O2   13   0.174   0.221  -0.159
    1UNL     O3   14   0.096   0.313   0.036
    1UNL    C11   15   0.152   0.439  -0.005
    1UNL    C12   16  -0.070   0.067   0.003
    1UNL     N2   17  -0.146   0.180  -0.007
    1UNL    C13   18  -0.283   0.145   0.003
    1UNL    C14   19  -0.403   0.208  -0.029
    1UNL    C15   20  -0.522   0.135  -0.021
    1UNL    C16   21  -0.529  -0.001   0.014
    1UNL    C17   22  -0.408  -0.064   0.038
    1UNL    C18   23  -0.284   0.009   0.032
    1UNL    C19   24  -0.152  -0.041   0.032
    1UNL    C20   25  -0.108  -0.175   0.087
    1UNL     H1   26   0.422  -0.268   0.173
    1UNL     H2   27   0.525  -0.271   0.027
    1UNL     H3   28   0.389  -0.364   0.010
    1UNL     H4   29   0.401  -0.100  -0.085
    1UNL     H5   30   0.169  -0.352   0.012
    1UNL     H6   31   0.140  -0.247   0.155
    1UNL     H7   32   0.009  -0.321  -0.194
    1UNL     H8   33  -0.142  -0.234  -0.175
    1UNL     H9   34  -0.025  -0.021  -0.225
    1UNL    H10   35   0.102  -0.140  -0.287
    1UNL    H11   36   0.218   0.009  -0.147
    1UNL    H12   37   0.240   0.126   0.135
    1UNL    H13   38   0.162  -0.029   0.162
    1UNL    H14   39   0.038   0.220   0.210
    1UNL    H15   40   0.144   0.497   0.083
    1UNL    H16   41   0.262   0.440  -0.019
    1UNL    H17   42   0.097   0.485  -0.083
    1UNL    H18   43  -0.107   0.280  -0.008
    1UNL    H19   44  -0.396   0.307  -0.065
    1UNL    H20   45  -0.606   0.196  -0.063
    1UNL    H21   46  -0.617  -0.057  -0.009
    1UNL    H22   47  -0.397  -0.169   0.030
    1UNL    H23   48  -0.046  -0.175   0.181
    1UNL    H24   49  -0.194  -0.237   0.104
   0.00000   0.00000   0.00000   0.00000   0.00000   0.00000   0.00000   0.00000   0.00000
Generated with MDTraj, t= 37.0
 49
    1UNL     C1    1   0.420  -0.271   0.051
    1UNL     C2    2   0.348  -0.166  -0.014
    1UNL     C3    3   0.215  -0.149  -0.020
    1UNL     C4    4   0.124  -0.247   0.047
    1UNL     N1    5  -0.009  -0.260  -0.012
    1UNL     C5    6  -0.022  -0.229  -0.155
    1UNL     C6    7   0.047  -0.089  -0.191
    1UNL     C7    8   0.151  -0.036  -0.093
    1UNL     C8    9   0.080   0.070   0.016
    1UNL     C9   10   0.137   0.067   0.157
    1UNL     O1   11   0.064   0.146   0.245
    1UNL    C10   12   0.122   0.216  -0.039
    1UNL     O2   13   0.188   0.213  -0.141
    1UNL     O3   14   0.086   0.322   0.037
    1UNL    C11   15   0.131   0.442  -0.024
    1UNL    C12   16  -0.068   0.059   0.010
    1UNL     N2   17  -0.153   0.157  -0.046
    1UNL    C13   18  -0.287   0.127  -0.025
    1UNL    C14   19  -0.392   0.213  -0.027
    1UNL    C15   20  -0.515   0.154  -0.004
    1UNL    C16   21  -0.521   0.014   0.032
    1UNL    C17   22  -0.410  -0.069   0.041
    1UNL    C18   23  -0.285  -0.006   0.019
    1UNL    C19   24  -0.150  -0.045   0.040
    1UNL    C20   25  -0.105  -0.186   0.076
    1UNL     H1   26   0.369  -0.298   0.145
    1UNL     H2   27   0.521  -0.244   0.072
    1UNL     H3   28   0.421  -0.354  -0.025
    1UNL     H4   29   0.405  -0.113  -0.088
    1UNL     H5   30   0.161  -0.349   0.051
    1UNL     H6   31   0.104  -0.219   0.150
    1UNL     H7   32   0.008  -0.317  -0.209
    1UNL     H8   33  -0.134  -0.219  -0.169
    1UNL     H9   34  -0.030  -0.012  -0.204
    1UNL    H10   35   0.107  -0.107  -0.285
    1UNL    H11   36   0.226   0.012  -0.157
    1UNL    H12   37   0.238   0.107   0.140
    1UNL    H13   38   0.155  -0.031   0.193
    1UNL    H14   39   0.042   0.233   0.205
    1UNL    H15   40   0.071   0.525   0.017
    1UNL    H16   41   0.236   0.473   0.010
    1UNL    H17   42   0.122   0.441  -0.135
    1UNL    H18   43  -0.123   0.242  -0.097
    1UNL    H19   44  -0.376   0.321  -0.040
    1UNL    H20   45  -0.600   0.224   0.002
    1UNL    H21   46  -0.621  -0.029   0.047
    1UNL    H22   47  -0.425  -0.179   0.058
    1UNL    H23   48  -0.082  -0.191   0.188
    1UNL    H24   49  -0.190  -0.250   0.056
   0.00000   0.00000   0.00000   0.00000   0.00000   0.00000   0.00000   0.00000   0.00000
Generated with MDTraj, t= 38.0
 49
    1UNL     C1    1   0.422  -0.283   0.059
    1UNL     C2    2   0.346  -0.170   0.012
    1UNL     C3    3   0.217  -0.162  -0.014
    1UNL     C4    4   0.128  -0.271   0.028
    1UNL     N1    5  -0.003  -0.247  -0.037
    1UNL     C5    6  -0.005  -0.213  -0.178
    1UNL     C6    7   0.072  -0.084  -0.201
    1UNL     C7    8   0.154  -0.039  -0.076
    1UNL     C8    9   0.078   0.066   0.014
    1UNL     C9   10   0.125   0.053   0.163
    1UNL     O1   11   0.096   0.163   0.247
    1UNL    C10   12   0.116   0.204  -0.041
    1UNL     O2   13   0.204   0.208  -0.124
    1UNL     O3   14   0.049   0.315   0.014
    1UNL    C11   15   0.099   0.431  -0.044
    1UNL    C12   16  -0.069   0.062   0.013
    1UNL     N2   17  -0.145   0.170  -0.031
    1UNL    C13   18  -0.283   0.142  -0.008
    1UNL    C14   19  -0.405   0.209  -0.038
    1UNL    C15   20  -0.527   0.146  -0.018
    1UNL    C16   21  -0.528   0.012   0.033
    1UNL    C17   22  -0.410  -0.046   0.076
    1UNL    C18   23  -0.286   0.012   0.043
    1UNL    C19   24  -0.152  -0.042   0.043
    1UNL    C20   25  -0.099  -0.183   0.053
    1UNL     H1   26   0.401  -0.309   0.156
    1UNL     H2   27   0.532  -0.273   0.049
    1UNL     H3   28   0.399  -0.373  -0.005
    1UNL     H4   29   0.402  -0.086  -0.032
    1UNL     H5   30   0.159  -0.372   0.004
    1UNL     H6   31   0.113  -0.278   0.136
    1UNL     H7   32   0.031  -0.299  -0.231
    1UNL     H8   33  -0.114  -0.201  -0.197
    1UNL     H9   34   0.000  -0.002  -0.208
    1UNL    H10   35   0.132  -0.097  -0.298
    1UNL    H11   36   0.229   0.011  -0.140
    1UNL    H12   37   0.231   0.026   0.174
    1UNL    H13   38   0.079  -0.031   0.208
    1UNL    H14   39   0.075   0.239   0.184
    1UNL    H15   40   0.072   0.520   0.022
    1UNL    H16   41   0.213   0.432  -0.043
    1UNL    H17   42   0.057   0.452  -0.150
    1UNL    H18   43  -0.123   0.266  -0.041
    1UNL    H19   44  -0.400   0.312  -0.064
    1UNL    H20   45  -0.620   0.194  -0.019
    1UNL    H21   46  -0.621  -0.031   0.057
    1UNL    H22   47  -0.415  -0.139   0.120
    1UNL    H23   48  -0.054  -0.194   0.158
    1UNL    H24   49  -0.185  -0.247   0.053
   0.00000   0.00000   0.00000   0.00000   0.00000   0.00000   0.00000   0.00000   0.00000
Generated with MDTraj, t= 39.0
 49
    1UNL     C1    1   0.381  -0.284   0.098
    1UNL     C2    2   0.332  -0.168   0.024
    1UNL     C3    3   0.206  -0.157  -0.020
    1UNL     C4    4   0.118  -0.264   0.017
    1UNL     N1    5  -0.023  -0.248  -0.033
    1UNL     C5    6  -0.046  -0.189  -0.170
    1UNL     C6    7   0.051  -0.075  -0.201
    1UNL     C7    8   0.149  -0.035  -0.087
    1UNL     C8    9   0.092   0.072   0.005
    1UNL     C9   10   0.154   0.069   0.150
    1UNL     O1   11   0.079   0.150   0.239
    1UNL    C10   12   0.128   0.214  -0.049
    1UNL     O2   13   0.217   0.225  -0.129
    1UNL     O3   14   0.063   0.323   0.002
    1UNL    C11   15   0.102   0.446  -0.054
    1UNL    C12   16  -0.061   0.066   0.022
    1UNL     N2   17  -0.144   0.172  -0.008
    1UNL    C13   18  -0.274   0.126  -0.006
    1UNL    C14   19  -0.395   0.199  -0.015
    1UNL    C15   20  -0.510   0.132   0.012
    1UNL    C16   21  -0.510  -0.005   0.031
    1UNL    C17   22  -0.395  -0.074   0.030
    1UNL    C18   23  -0.272  -0.013   0.009
    1UNL    C19   24  -0.140  -0.050   0.034
    1UNL    C20   25  -0.106  -0.189   0.073
    1UNL     H1   26   0.335  -0.300   0.189
    1UNL     H2   27   0.493  -0.280   0.119
    1UNL     H3   28   0.368  -0.374   0.039
    1UNL     H4   29   0.404  -0.100  -0.013
    1UNL     H5   30   0.159  -0.356  -0.023
    1UNL     H6   31   0.117  -0.286   0.123
    1UNL     H7   32  -0.034  -0.271  -0.238
    1UNL     H8   33  -0.154  -0.166  -0.177
    1UNL     H9   34  -0.015   0.009  -0.225
    1UNL    H10   35   0.131  -0.103  -0.281
    1UNL    H11   36   0.240   0.014  -0.133
    1UNL    H12   37   0.258   0.100   0.164
    1UNL    H13   38   0.157  -0.027   0.195
    1UNL    H14   39   0.064   0.231   0.190
    1UNL    H15   40   0.056   0.533   0.004
    1UNL    H16   41   0.212   0.460  -0.040
    1UNL    H17   42   0.073   0.456  -0.165
    1UNL    H18   43  -0.110   0.264  -0.022
    1UNL    H19   44  -0.386   0.305  -0.029
    1UNL    H20   45  -0.605   0.195   0.020
    1UNL    H21   46  -0.604  -0.059   0.042
    1UNL    H22   47  -0.391  -0.181   0.062
    1UNL    H23   48  -0.049  -0.185   0.172
    1UNL    H24   49  -0.194  -0.248   0.091
   0.00000   0.00000   0.00000   0.00000   0.00000   0.00000   0.00000   0.00000   0.00000
Generated with MDTraj, t= 40.0
 49
    1UNL     C1    1   0.397  -0.257   0.116
    1UNL     C2    2   0.326  -0.146   0.048
    1UNL     C3    3   0.203  -0.160  -0.009
    1UNL     C4    4   0.119  -0.285  -0.020
    1UNL     N1    5  -0.024  -0.255  -0.051
    1UNL     C5    6  -0.039  -0.197  -0.186
    1UNL     C6    7   0.051  -0.071  -0.209
    1UNL     C7    8   0.151  -0.037  -0.089
    1UNL     C8    9   0.080   0.070   0.004
    1UNL     C9   10   0.142   0.073   0.147
    1UNL     O1   11   0.082   0.167   0.236
    1UNL    C10   12   0.133   0.202  -0.052
    1UNL     O2   13   0.199   0.207  -0.152
    1UNL     O3   14   0.104   0.317   0.013
    1UNL    C11   15   0.141   0.435  -0.051
    1UNL    C12   16  -0.074   0.070   0.014
    1UNL     N2   17  -0.155   0.180   0.014
    1UNL    C13   18  -0.283   0.132   0.023
    1UNL    C14   19  -0.406   0.199  -0.005
    1UNL    C15   20  -0.521   0.129  -0.010
    1UNL    C16   21  -0.520  -0.006   0.024
    1UNL    C17   22  -0.408  -0.080   0.043
    1UNL    C18   23  -0.282  -0.013   0.034
    1UNL    C19   24  -0.143  -0.050   0.040
    1UNL    C20   25  -0.091  -0.187   0.072
    1UNL     H1   26   0.331  -0.298   0.192
    1UNL     H2   27   0.497  -0.227   0.158
    1UNL     H3   28   0.412  -0.331   0.042
    1UNL     H4   29   0.377  -0.048   0.037
    1UNL     H5   30   0.159  -0.353  -0.094
    1UNL     H6   31   0.125  -0.338   0.072
    1UNL     H7   32  -0.017  -0.280  -0.251
    1UNL     H8   33  -0.144  -0.182  -0.206
    1UNL     H9   34  -0.007   0.022  -0.213
    1UNL    H10   35   0.118  -0.096  -0.301
    1UNL    H11   36   0.249   0.015  -0.116
    1UNL    H12   37   0.247   0.104   0.151
    1UNL    H13   38   0.150  -0.017   0.202
    1UNL    H14   39   0.061   0.248   0.178
    1UNL    H15   40   0.072   0.519  -0.023
    1UNL    H16   41   0.238   0.464  -0.017
    1UNL    H17   42   0.137   0.418  -0.160
    1UNL    H18   43  -0.129   0.279   0.004
    1UNL    H19   44  -0.401   0.307  -0.029
    1UNL    H20   45  -0.608   0.171  -0.041
    1UNL    H21   46  -0.613  -0.058   0.014
    1UNL    H22   47  -0.418  -0.184   0.062
    1UNL    H23   48  -0.020  -0.182   0.160
    1UNL    H24   49  -0.175  -0.247   0.109
   0.00000   0.00000   0.00000   0.00000   0.00000   0.00000   0.00000   0.00000   0.00000
Generated with MDTraj, t= 41.0
 49
    1UNL     C1    1   0.381  -0.281   0.127
    1UNL     C2    2   0.329  -0.168   0.044
    1UNL     C3    3   0.203  -0.156  -0.001
    1UNL     C4    4   0.111  -0.276   0.010
    1UNL     N1    5  -0.015  -0.243  -0.048
    1UNL     C5    6  -0.015  -0.186  -0.187
    1UNL     C6    7   0.079  -0.061  -0.209
    1UNL     C7    8   0.160  -0.031  -0.085
    1UNL     C8    9   0.089   0.077   0.011
    1UNL     C9   10   0.151   0.076   0.149
    1UNL     O1   11   0.092   0.165   0.240
    1UNL    C10   12   0.105   0.211  -0.060
    1UNL     O2   13   0.141   0.220  -0.175
    1UNL     O3   14   0.080   0.324   0.013
    1UNL    C11   15   0.149   0.434  -0.042
    1UNL    C12   16  -0.064   0.054   0.008
    1UNL     N2   17  -0.143   0.165  -0.012
    1UNL    C13   18  -0.271   0.130   0.007
    1UNL    C14   19  -0.391   0.200  -0.007
    1UNL    C15   20  -0.507   0.130   0.010
    1UNL    C16   21  -0.523  -0.005   0.030
    1UNL    C17   22  -0.408  -0.078   0.050
    1UNL    C18   23  -0.281  -0.009   0.037
    1UNL    C19   24  -0.145  -0.056   0.031
    1UNL    C20   25  -0.109  -0.197   0.054
    1UNL     H1   26   0.316  -0.294   0.220
    1UNL     H2   27   0.487  -0.272   0.154
    1UNL     H3   28   0.375  -0.368   0.071
    1UNL     H4   29   0.387  -0.082   0.024
    1UNL     H5   30   0.163  -0.345  -0.054
    1UNL     H6   31   0.103  -0.324   0.104
    1UNL     H7   32   0.017  -0.259  -0.259
    1UNL     H8   33  -0.116  -0.171  -0.215
    1UNL     H9   34   0.021   0.031  -0.234
    1UNL    H10   35   0.153  -0.090  -0.292
    1UNL    H11   36   0.258   0.015  -0.120
    1UNL    H12   37   0.261   0.091   0.140
    1UNL    H13   38   0.146  -0.017   0.202
    1UNL    H14   39   0.093   0.250   0.195
    1UNL    H15   40   0.167   0.507   0.035
    1UNL    H16   41   0.238   0.407  -0.083
    1UNL    H17   42   0.082   0.468  -0.118
    1UNL    H18   43  -0.103   0.263  -0.026
    1UNL    H19   44  -0.401   0.302  -0.023
    1UNL    H20   45  -0.604   0.185  -0.001
    1UNL    H21   46  -0.622  -0.045   0.029
    1UNL    H22   47  -0.411  -0.183   0.044
    1UNL    H23   48  -0.074  -0.210   0.158
    1UNL    H24   49  -0.205  -0.255   0.048
   0.00000   0.00000   0.00000   0.00000   0.00000   0.00000   0.00000   0.00000   0.00000
Generated with MDTraj, t= 42.0
 49
    1UNL     C1    1   0.400  -0.271   0.122
    1UNL     C2    2   0.336  -0.163   0.048
    1UNL     C3    3   0.213  -0.163  -0.004
    1UNL     C4    4   0.115  -0.279   0.000
    1UNL     N1    5  -0.017  -0.251  -0.055
    1UNL     C5    6  -0.014  -0.191  -0.184
    1UNL     C6    7   0.099  -0.084  -0.198
    1UNL     C7    8   0.167  -0.040  -0.075
    1UNL     C8    9   0.091   0.073   0.008
    1UNL     C9   10   0.122   0.064   0.157
    1UNL     O1   11   0.061   0.158   0.239
    1UNL    C10   12   0.121   0.212  -0.059
    1UNL     O2   13   0.113   0.215  -0.181
    1UNL     O3   14   0.131   0.319   0.026
    1UNL    C11   15   0.096   0.434  -0.044
    1UNL    C12   16  -0.061   0.056  -0.006
    1UNL     N2   17  -0.147   0.164  -0.015
    1UNL    C13   18  -0.277   0.135   0.003
    1UNL    C14   19  -0.390   0.216   0.010
    1UNL    C15   20  -0.509   0.148   0.016
    1UNL    C16   21  -0.514   0.013   0.043
    1UNL    C17   22  -0.401  -0.067   0.040
    1UNL    C18   23  -0.280  -0.004   0.018
    1UNL    C19   24  -0.141  -0.052   0.022
    1UNL    C20   25  -0.104  -0.190   0.055
    1UNL     H1   26   0.358  -0.275   0.230
    1UNL     H2   27   0.506  -0.264   0.123
    1UNL     H3   28   0.375  -0.365   0.076
    1UNL     H4   29   0.379  -0.062   0.058
    1UNL     H5   30   0.155  -0.361  -0.055
    1UNL     H6   31   0.110  -0.314   0.099
    1UNL     H7   32   0.002  -0.274  -0.251
    1UNL     H8   33  -0.102  -0.150  -0.221
    1UNL     H9   34   0.063   0.007  -0.250
    1UNL    H10   35   0.179  -0.130  -0.268
    1UNL    H11   36   0.268   0.001  -0.109
    1UNL    H12   37   0.234   0.065   0.176
    1UNL    H13   38   0.098  -0.037   0.184
    1UNL    H14   39   0.068   0.243   0.185
    1UNL    H15   40   0.089   0.522   0.016
    1UNL    H16   41   0.161   0.443  -0.122
    1UNL    H17   42   0.005   0.402  -0.086
    1UNL    H18   43  -0.105   0.260  -0.017
    1UNL    H19   44  -0.402   0.328   0.008
    1UNL    H20   45  -0.599   0.202   0.031
    1UNL    H21   46  -0.609  -0.038   0.068
    1UNL    H22   47  -0.411  -0.179   0.048
    1UNL    H23   48  -0.053  -0.185   0.152
    1UNL    H24   49  -0.196  -0.253   0.077
   0.00000   0.00000   0.00000   0.00000   0.00000   0.00000   0.00000   0.00000   0.00000
Generated with MDTraj, t= 43.0
 49
    1UNL     C1    1   0.386  -0.267   0.128
    1UNL     C2    2   0.335  -0.155   0.044
    1UNL     C3    3   0.214  -0.155  -0.008
    1UNL     C4    4   0.131  -0.275   0.004
    1UNL     N1    5  -0.002  -0.253  -0.052
    1UNL     C5    6   0.004  -0.205  -0.191
    1UNL     C6    7   0.090  -0.075  -0.214
    1UNL     C7    8   0.164  -0.028  -0.081
    1UNL     C8    9   0.083   0.074  -0.004
    1UNL     C9   10   0.135   0.084   0.148
    1UNL     O1   11   0.047   0.147   0.242
    1UNL    C10   12   0.112   0.213  -0.066
    1UNL     O2   13   0.140   0.215  -0.184
    1UNL     O3   14   0.094   0.320   0.015
    1UNL    C11   15   0.165   0.425  -0.038
    1UNL    C12   16  -0.066   0.049   0.012
    1UNL     N2   17  -0.141   0.162   0.008
    1UNL    C13   18  -0.277   0.133   0.006
    1UNL    C14   19  -0.397   0.210   0.000
    1UNL    C15   20  -0.521   0.149   0.020
    1UNL    C16   21  -0.528   0.014   0.048
    1UNL    C17   22  -0.417  -0.066   0.059
    1UNL    C18   23  -0.293  -0.009   0.026
    1UNL    C19   24  -0.154  -0.059   0.020
    1UNL    C20   25  -0.107  -0.197   0.047
    1UNL     H1   26   0.309  -0.292   0.205
    1UNL     H2   27   0.478  -0.242   0.170
    1UNL     H3   28   0.402  -0.362   0.066
    1UNL     H4   29   0.392  -0.067   0.041
    1UNL     H5   30   0.185  -0.351  -0.049
    1UNL     H6   31   0.123  -0.317   0.100
    1UNL     H7   32   0.045  -0.274  -0.262
    1UNL     H8   33  -0.094  -0.195  -0.225
    1UNL     H9   34   0.023   0.006  -0.249
    1UNL    H10   35   0.159  -0.081  -0.308
    1UNL    H11   36   0.258   0.020  -0.119
    1UNL    H12   37   0.237   0.134   0.152
    1UNL    H13   38   0.157  -0.016   0.186
    1UNL    H14   39  -0.007   0.213   0.197
    1UNL    H15   40   0.178   0.509   0.030
    1UNL    H16   41   0.258   0.386  -0.070
    1UNL    H17   42   0.106   0.441  -0.128
    1UNL    H18   43  -0.098   0.260  -0.002
    1UNL    H19   44  -0.388   0.314  -0.006
    1UNL    H20   45  -0.617   0.199   0.026
    1UNL    H21   46  -0.616  -0.038   0.070
    1UNL    H22   47  -0.424  -0.165   0.087
    1UNL    H23   48  -0.067  -0.197   0.147
    1UNL    H24   49  -0.194  -0.273   0.052
   0.00000   0.00000   0.00000   0.00000   0.00000   0.00000   0.00000   0.00000   0.00000
Generated with MDTraj, t= 44.0
 49
    1UNL     C1    1   0.385  -0.251   0.126
    1UNL     C2    2   0.334  -0.146   0.036
    1UNL     C3    3   0.210  -0.156  -0.011
    1UNL     C4    4   0.120  -0.272   0.027
    1UNL     N1    5  -0.012  -0.250  -0.046
    1UNL     C5    6  -0.017  -0.206  -0.189
    1UNL     C6    7   0.065  -0.081  -0.217
    1UNL     C7    8   0.152  -0.032  -0.086
    1UNL     C8    9   0.082   0.075  -0.003
    1UNL     C9   10   0.120   0.058   0.156
    1UNL     O1   11   0.074   0.169   0.231
    1UNL    C10   12   0.131   0.208  -0.052
    1UNL     O2   13   0.183   0.218  -0.162
    1UNL     O3   14   0.115   0.318   0.024
    1UNL    C11   15   0.159   0.431  -0.040
    1UNL    C12   16  -0.069   0.066  -0.004
    1UNL     N2   17  -0.156   0.175  -0.015
    1UNL    C13   18  -0.285   0.131   0.005
    1UNL    C14   19  -0.405   0.203   0.013
    1UNL    C15   20  -0.515   0.129   0.038
    1UNL    C16   21  -0.516  -0.014   0.049
    1UNL    C17   22  -0.402  -0.079   0.041
    1UNL    C18   23  -0.285  -0.009   0.014
    1UNL    C19   24  -0.146  -0.050   0.011
    1UNL    C20   25  -0.130  -0.195   0.036
    1UNL     H1   26   0.317  -0.272   0.206
    1UNL     H2   27   0.479  -0.228   0.170
    1UNL     H3   28   0.399  -0.353   0.074
    1UNL     H4   29   0.401  -0.058   0.029
    1UNL     H5   30   0.155  -0.365  -0.012
    1UNL     H6   31   0.116  -0.290   0.130
    1UNL     H7   32   0.023  -0.283  -0.250
    1UNL     H8   33  -0.115  -0.184  -0.214
    1UNL     H9   34  -0.006   0.000  -0.245
    1UNL    H10   35   0.132  -0.085  -0.312
    1UNL    H11   36   0.238   0.017  -0.137
    1UNL    H12   37   0.230   0.041   0.178
    1UNL    H13   38   0.071  -0.032   0.193
    1UNL    H14   39   0.074   0.251   0.177
    1UNL    H15   40   0.107   0.521   0.001
    1UNL    H16   41   0.271   0.436  -0.030
    1UNL    H17   42   0.134   0.411  -0.148
    1UNL    H18   43  -0.131   0.278  -0.004
    1UNL    H19   44  -0.402   0.312   0.004
    1UNL    H20   45  -0.615   0.175   0.034
    1UNL    H21   46  -0.609  -0.072   0.058
    1UNL    H22   47  -0.379  -0.184   0.063
    1UNL    H23   48  -0.115  -0.213   0.142
    1UNL    H24   49  -0.224  -0.255   0.009
   0.00000   0.00000   0.00000   0.00000   0.00000   0.00000   0.00000   0.00000   0.00000
Generated with MDTraj, t= 45.0
 49
    1UNL     C1    1   0.416  -0.262   0.105
    1UNL     C2    2   0.348  -0.151   0.039
    1UNL     C3    3   0.219  -0.154  -0.000
    1UNL     C4    4   0.128  -0.273   0.017
    1UNL     N1    5  -0.008  -0.262  -0.040
    1UNL     C5    6  -0.006  -0.225  -0.184
    1UNL     C6    7   0.063  -0.086  -0.206
    1UNL     C7    8   0.159  -0.042  -0.088
    1UNL     C8    9   0.079   0.068   0.001
    1UNL     C9   10   0.137   0.063   0.141
    1UNL     O1   11   0.067   0.138   0.233
    1UNL    C10   12   0.111   0.208  -0.058
    1UNL     O2   13   0.193   0.218  -0.150
    1UNL     O3   14   0.059   0.311   0.014
    1UNL    C11   15   0.120   0.425  -0.032
    1UNL    C12   16  -0.068   0.061  -0.004
    1UNL     N2   17  -0.151   0.180  -0.013
    1UNL    C13   18  -0.281   0.143   0.007
    1UNL    C14   19  -0.399   0.218   0.007
    1UNL    C15   20  -0.518   0.160   0.026
    1UNL    C16   21  -0.524   0.015   0.040
    1UNL    C17   22  -0.411  -0.059   0.030
    1UNL    C18   23  -0.281   0.004   0.021
    1UNL    C19   24  -0.146  -0.052   0.027
    1UNL    C20   25  -0.111  -0.195   0.054
    1UNL     H1   26   0.394  -0.264   0.208
    1UNL     H2   27   0.528  -0.266   0.095
    1UNL     H3   28   0.385  -0.367   0.074
    1UNL     H4   29   0.406  -0.062   0.039
    1UNL     H5   30   0.183  -0.352  -0.030
    1UNL     H6   31   0.116  -0.303   0.117
    1UNL     H7   32   0.062  -0.292  -0.232
    1UNL     H8   33  -0.102  -0.218  -0.222
    1UNL     H9   34  -0.017  -0.008  -0.212
    1UNL    H10   35   0.119  -0.064  -0.305
    1UNL    H11   36   0.242   0.012  -0.132
    1UNL    H12   37   0.243   0.105   0.145
    1UNL    H13   38   0.136  -0.041   0.171
    1UNL    H14   39   0.040   0.229   0.200
    1UNL    H15   40   0.108   0.514   0.037
    1UNL    H16   41   0.232   0.400  -0.051
    1UNL    H17   42   0.076   0.444  -0.136
    1UNL    H18   43  -0.117   0.277  -0.033
    1UNL    H19   44  -0.388   0.325  -0.013
    1UNL    H20   45  -0.608   0.215   0.029
    1UNL    H21   46  -0.618  -0.037   0.045
    1UNL    H22   47  -0.403  -0.166   0.045
    1UNL    H23   48  -0.100  -0.206   0.163
    1UNL    H24   49  -0.207  -0.252   0.030
   0.00000   0.00000   0.00000   0.00000   0.00000   0.00000   0.00000   0.00000   0.00000
Generated with MDTraj, t= 46.0
 49
    1UNL     C1    1   0.419  -0.272   0.092
    1UNL     C2    2   0.352  -0.173  -0.006
    1UNL     C3    3   0.220  -0.154  -0.020
    1UNL     C4    4   0.126  -0.258   0.032
    1UNL     N1    5  -0.003  -0.248  -0.031
    1UNL     C5    6  -0.021  -0.206  -0.172
    1UNL     C6    7   0.064  -0.084  -0.206
    1UNL     C7    8   0.154  -0.037  -0.092
    1UNL     C8    9   0.083   0.064   0.016
    1UNL     C9   10   0.133   0.054   0.158
    1UNL     O1   11   0.058   0.141   0.235
    1UNL    C10   12   0.120   0.207  -0.037
    1UNL     O2   13   0.182   0.226  -0.143
    1UNL     O3   14   0.082   0.320   0.034
    1UNL    C11   15   0.095   0.425  -0.054
    1UNL    C12   16  -0.068   0.053   0.010
    1UNL     N2   17  -0.141   0.169  -0.015
    1UNL    C13   18  -0.275   0.140  -0.004
    1UNL    C14   19  -0.391   0.216  -0.023
    1UNL    C15   20  -0.513   0.159   0.008
    1UNL    C16   21  -0.520   0.015   0.027
    1UNL    C17   22  -0.407  -0.064   0.043
    1UNL    C18   23  -0.284   0.006   0.037
    1UNL    C19   24  -0.150  -0.053   0.041
    1UNL    C20   25  -0.115  -0.201   0.058
    1UNL     H1   26   0.374  -0.254   0.187
    1UNL     H2   27   0.533  -0.254   0.096
    1UNL     H3   28   0.397  -0.375   0.072
    1UNL     H4   29   0.416  -0.089  -0.039
    1UNL     H5   30   0.164  -0.351  -0.002
    1UNL     H6   31   0.128  -0.256   0.139
    1UNL     H7   32   0.014  -0.287  -0.234
    1UNL     H8   33  -0.121  -0.177  -0.181
    1UNL     H9   34   0.021   0.016  -0.240
    1UNL    H10   35   0.128  -0.106  -0.298
    1UNL    H11   36   0.231   0.023  -0.138
    1UNL    H12   37   0.241   0.083   0.146
    1UNL    H13   38   0.124  -0.044   0.204
    1UNL    H14   39   0.066   0.227   0.193
    1UNL    H15   40   0.029   0.507  -0.019
    1UNL    H16   41   0.207   0.459  -0.060
    1UNL    H17   42   0.064   0.394  -0.157
    1UNL    H18   43  -0.102   0.261  -0.029
    1UNL    H19   44  -0.390   0.316  -0.054
    1UNL    H20   45  -0.606   0.220   0.015
    1UNL    H21   46  -0.617  -0.031   0.038
    1UNL    H22   47  -0.402  -0.170   0.035
    1UNL    H23   48  -0.084  -0.219   0.164
    1UNL    H24   49  -0.206  -0.264   0.044
   0.00000   0.00000   0.00000   0.00000   0.00000   0.00000   0.00000   0.00000   0.00000
Generated with MDTraj, t= 47.0
 49
    1UNL     C1    1   0.410  -0.291   0.044
    1UNL     C2    2   0.337  -0.164   0.015
    1UNL     C3    3   0.206  -0.163  -0.006
    1UNL     C4    4   0.119  -0.282   0.030
    1UNL     N1    5  -0.010  -0.252  -0.023
    1UNL     C5    6  -0.020  -0.225  -0.167
    1UNL     C6    7   0.059  -0.094  -0.195
    1UNL     C7    8   0.155  -0.041  -0.085
    1UNL     C8    9   0.084   0.075   0.011
    1UNL     C9   10   0.150   0.075   0.148
    1UNL     O1   11   0.090   0.162   0.241
    1UNL    C10   12   0.117   0.217  -0.036
    1UNL     O2   13   0.180   0.229  -0.139
    1UNL     O3   14   0.076   0.328   0.035
    1UNL    C11   15   0.133   0.437  -0.030
    1UNL    C12   16  -0.071   0.075   0.018
    1UNL     N2   17  -0.156   0.173  -0.013
    1UNL    C13   18  -0.284   0.129  -0.017
    1UNL    C14   19  -0.400   0.197  -0.039
    1UNL    C15   20  -0.526   0.136  -0.018
    1UNL    C16   21  -0.527   0.006   0.028
    1UNL    C17   22  -0.406  -0.068   0.035
    1UNL    C18   23  -0.283  -0.005   0.023
    1UNL    C19   24  -0.145  -0.034   0.051
    1UNL    C20   25  -0.100  -0.179   0.071
    1UNL     H1   26   0.356  -0.340   0.125
    1UNL     H2   27   0.518  -0.263   0.069
    1UNL     H3   28   0.410  -0.357  -0.037
    1UNL     H4   29   0.388  -0.072   0.004
    1UNL     H5   30   0.169  -0.366  -0.011
    1UNL     H6   31   0.113  -0.287   0.138
    1UNL     H7   32   0.028  -0.311  -0.210
    1UNL     H8   33  -0.120  -0.212  -0.195
    1UNL     H9   34  -0.005  -0.004  -0.223
    1UNL    H10   35   0.124  -0.090  -0.287
    1UNL    H11   36   0.245   0.012  -0.119
    1UNL    H12   37   0.259   0.090   0.141
    1UNL    H13   38   0.124  -0.022   0.185
    1UNL    H14   39   0.044   0.236   0.190
    1UNL    H15   40   0.120   0.521   0.035
    1UNL    H16   41   0.244   0.419  -0.048
    1UNL    H17   42   0.087   0.460  -0.124
    1UNL    H18   43  -0.124   0.260  -0.045
    1UNL    H19   44  -0.396   0.306  -0.066
    1UNL    H20   45  -0.613   0.194  -0.023
    1UNL    H21   46  -0.614  -0.045   0.064
    1UNL    H22   47  -0.407  -0.177   0.052
    1UNL    H23   48  -0.045  -0.182   0.170
    1UNL    H24   49  -0.189  -0.245   0.083
   0.00000   0.00000   0.00000   0.00000   0.00000   0.00000   0.00000   0.00000   0.00000
Generated with MDTraj, t= 48.0
 49
    1UNL     C1    1   0.413  -0.273   0.055
    1UNL     C2    2   0.338  -0.167  -0.012
    1UNL     C3    3   0.208  -0.149  -0.024
    1UNL     C4    4   0.115  -0.253   0.031
    1UNL     N1    5  -0.025  -0.233  -0.017
    1UNL     C5    6  -0.041  -0.197  -0.165
    1UNL     C6    7   0.043  -0.073  -0.198
    1UNL     C7    8   0.147  -0.028  -0.088
    1UNL     C8    9   0.083   0.064   0.015
    1UNL     C9   10   0.143   0.054   0.159
    1UNL     O1   11   0.092   0.158   0.244
    1UNL    C10   12   0.119   0.204  -0.040
    1UNL     O2   13   0.186   0.213  -0.140
    1UNL     O3   14   0.078   0.317   0.024
    1UNL    C11   15   0.147   0.424  -0.034
    1UNL    C12   16  -0.068   0.069   0.039
    1UNL     N2   17  -0.143   0.169  -0.006
    1UNL    C13   18  -0.279   0.137  -0.009
    1UNL    C14   19  -0.403   0.201  -0.047
    1UNL    C15   20  -0.520   0.121  -0.028
    1UNL    C16   21  -0.515  -0.016   0.001
    1UNL    C17   22  -0.396  -0.080   0.032
    1UNL    C18   23  -0.283   0.002   0.037
    1UNL    C19   24  -0.150  -0.040   0.060
    1UNL    C20   25  -0.107  -0.178   0.096
    1UNL     H1   26   0.359  -0.311   0.146
    1UNL     H2   27   0.511  -0.232   0.087
    1UNL     H3   28   0.436  -0.359  -0.001
    1UNL     H4   29   0.400  -0.089  -0.057
    1UNL     H5   30   0.147  -0.347  -0.007
    1UNL     H6   31   0.133  -0.243   0.139
    1UNL     H7   32   0.003  -0.274  -0.226
    1UNL     H8   33  -0.144  -0.185  -0.183
    1UNL     H9   34  -0.018   0.020  -0.221
    1UNL    H10   35   0.092  -0.074  -0.300
    1UNL    H11   36   0.230   0.033  -0.129
    1UNL    H12   37   0.249   0.078   0.151
    1UNL    H13   38   0.130  -0.035   0.217
    1UNL    H14   39   0.072   0.238   0.194
    1UNL    H15   40   0.112   0.510   0.011
    1UNL    H16   41   0.253   0.414  -0.012
    1UNL    H17   42   0.138   0.435  -0.138
    1UNL    H18   43  -0.102   0.260  -0.026
    1UNL    H19   44  -0.408   0.299  -0.084
    1UNL    H20   45  -0.618   0.170  -0.055
    1UNL    H21   46  -0.600  -0.083  -0.015
    1UNL    H22   47  -0.393  -0.184   0.056
    1UNL    H23   48  -0.042  -0.172   0.191
    1UNL    H24   49  -0.193  -0.243   0.115
   0.00000   0.00000   0.00000   0.00000   0.00000   0.00000   0.00000   0.00000   0.00000
Generated with MDTraj, t= 49.0
 49
    1UNL     C1    1   0.417  -0.258   0.055
    1UNL     C2    2   0.335  -0.151   0.000
    1UNL     C3    3   0.205  -0.158  -0.027
    1UNL     C4    4   0.113  -0.272   0.015
    1UNL     N1    5  -0.032  -0.251  -0.004
    1UNL     C5    6  -0.042  -0.226  -0.152
    1UNL     C6    7   0.022  -0.091  -0.190
    1UNL     C7    8   0.133  -0.042  -0.091
    1UNL     C8    9   0.085   0.073   0.007
    1UNL     C9   10   0.157   0.053   0.149
    1UNL     O1   11   0.094   0.126   0.256
    1UNL    C10   12   0.126   0.212  -0.040
    1UNL     O2   13   0.196   0.225  -0.136
    1UNL     O3   14   0.077   0.325   0.029
    1UNL    C11   15   0.107   0.447  -0.039
    1UNL    C12   16  -0.060   0.073   0.033
    1UNL     N2   17  -0.144   0.178  -0.008
    1UNL    C13   18  -0.273   0.131  -0.003
    1UNL    C14   19  -0.387   0.198  -0.045
    1UNL    C15   20  -0.508   0.137  -0.044
    1UNL    C16   21  -0.515  -0.001  -0.009
    1UNL    C17   22  -0.404  -0.069   0.027
    1UNL    C18   23  -0.277  -0.005   0.032
    1UNL    C19   24  -0.138  -0.039   0.058
    1UNL    C20   25  -0.094  -0.173   0.103
    1UNL     H1   26   0.420  -0.254   0.168
    1UNL     H2   27   0.514  -0.247   0.019
    1UNL     H3   28   0.387  -0.361   0.033
    1UNL     H4   29   0.395  -0.066  -0.027
    1UNL     H5   30   0.145  -0.352  -0.048
    1UNL     H6   31   0.129  -0.295   0.122
    1UNL     H7   32   0.013  -0.303  -0.202
    1UNL     H8   33  -0.144  -0.218  -0.183
    1UNL     H9   34  -0.071  -0.025  -0.193
    1UNL    H10   35   0.047  -0.071  -0.299
    1UNL    H11   36   0.206   0.013  -0.153
    1UNL    H12   37   0.261   0.081   0.151
    1UNL    H13   38   0.151  -0.046   0.186
    1UNL    H14   39   0.088   0.221   0.229
    1UNL    H15   40   0.065   0.522   0.020
    1UNL    H16   41   0.213   0.462  -0.041
    1UNL    H17   42   0.067   0.463  -0.134
    1UNL    H18   43  -0.120   0.282  -0.022
    1UNL    H19   44  -0.375   0.302  -0.074
    1UNL    H20   45  -0.590   0.182  -0.084
    1UNL    H21   46  -0.613  -0.039  -0.006
    1UNL    H22   47  -0.418  -0.166   0.072
    1UNL    H23   48  -0.029  -0.170   0.200
    1UNL    H24   49  -0.190  -0.223   0.118
   0.00000   0.00000   0.00000   0.00000   0.00000   0.00000   0.00000   0.00000   0.00000
Generated with MDTraj, t= 50.0
 49
    1UNL     C1    1   0.423  -0.263   0.065
    1UNL     C2    2   0.346  -0.164  -0.014
    1UNL     C3    3   0.212  -0.160  -0.027
    1UNL     C4    4   0.117  -0.265   0.028
    1UNL     N1    5  -0.021  -0.228  -0.007
    1UNL     C5    6  -0.040  -0.202  -0.153
    1UNL     C6    7   0.046  -0.081  -0.202
    1UNL     C7    8   0.144  -0.042  -0.094
    1UNL     C8    9   0.085   0.067   0.013
    1UNL     C9   10   0.151   0.053   0.152
    1UNL     O1   11   0.104   0.144   0.254
    1UNL    C10   12   0.129   0.210  -0.044
    1UNL     O2   13   0.200   0.223  -0.138
    1UNL     O3   14   0.086   0.316   0.031
    1UNL    C11   15   0.108   0.448  -0.024
    1UNL    C12   16  -0.065   0.056   0.022
    1UNL     N2   17  -0.147   0.163  -0.022
    1UNL    C13   18  -0.285   0.125  -0.015
    1UNL    C14   19  -0.399   0.198  -0.044
    1UNL    C15   20  -0.511   0.134  -0.041
    1UNL    C16   21  -0.526   0.002   0.005
    1UNL    C17   22  -0.416  -0.067   0.043
    1UNL    C18   23  -0.287  -0.005   0.031
    1UNL    C19   24  -0.154  -0.045   0.059
    1UNL    C20   25  -0.114  -0.182   0.099
    1UNL     H1   26   0.402  -0.245   0.173
    1UNL     H2   27   0.523  -0.252   0.042
    1UNL     H3   28   0.393  -0.371   0.048
    1UNL     H4   29   0.414  -0.098  -0.066
    1UNL     H5   30   0.128  -0.364  -0.015
    1UNL     H6   31   0.131  -0.267   0.138
    1UNL     H7   32  -0.018  -0.291  -0.211
    1UNL     H8   33  -0.141  -0.171  -0.169
    1UNL     H9   34  -0.022   0.002  -0.237
    1UNL    H10   35   0.083  -0.102  -0.306
    1UNL    H11   36   0.219   0.016  -0.152
    1UNL    H12   37   0.257   0.071   0.146
    1UNL    H13   38   0.133  -0.044   0.188
    1UNL    H14   39   0.085   0.226   0.198
    1UNL    H15   40   0.063   0.516   0.049
    1UNL    H16   41   0.214   0.473  -0.030
    1UNL    H17   42   0.058   0.479  -0.114
    1UNL    H18   43  -0.115   0.261  -0.049
    1UNL    H19   44  -0.385   0.302  -0.072
    1UNL    H20   45  -0.604   0.194  -0.062
    1UNL    H21   46  -0.629  -0.031   0.026
    1UNL    H22   47  -0.421  -0.164   0.092
    1UNL    H23   48  -0.051  -0.172   0.196
    1UNL    H24   49  -0.198  -0.253   0.104
   0.00000   0.00000   0.00000   0.00000   0.00000   0.00000   0.00000   0.00000   0.00000
Generated with MDTraj, t= 51.0
 49
    1UNL     C1    1   0.413  -0.284   0.053
    1UNL     C2    2   0.339  -0.164   0.000
    1UNL     C3    3   0.208  -0.154  -0.015
    1UNL     C4    4   0.122  -0.267   0.026
    1UNL     N1    5  -0.017  -0.246  -0.017
    1UNL     C5    6  -0.022  -0.213  -0.168
    1UNL     C6    7   0.056  -0.076  -0.197
    1UNL     C7    8   0.150  -0.035  -0.087
    1UNL     C8    9   0.081   0.076   0.018
    1UNL     C9   10   0.125   0.066   0.164
    1UNL     O1   11   0.084   0.167   0.258
    1UNL    C10   12   0.127   0.211  -0.052
    1UNL     O2   13   0.192   0.210  -0.156
    1UNL     O3   14   0.077   0.318   0.024
    1UNL    C11   15   0.137   0.443  -0.007
    1UNL    C12   16  -0.067   0.062   0.012
    1UNL     N2   17  -0.146   0.170  -0.031
    1UNL    C13   18  -0.280   0.130  -0.028
    1UNL    C14   19  -0.404   0.193  -0.039
    1UNL    C15   20  -0.522   0.127  -0.021
    1UNL    C16   21  -0.516   0.002   0.031
    1UNL    C17   22  -0.403  -0.065   0.065
    1UNL    C18   23  -0.284   0.001   0.030
    1UNL    C19   24  -0.151  -0.046   0.041
    1UNL    C20   25  -0.110  -0.180   0.078
    1UNL     H1   26   0.360  -0.330   0.135
    1UNL     H2   27   0.510  -0.255   0.086
    1UNL     H3   28   0.431  -0.372  -0.017
    1UNL     H4   29   0.401  -0.089  -0.047
    1UNL     H5   30   0.163  -0.358  -0.019
    1UNL     H6   31   0.120  -0.277   0.136
    1UNL     H7   32   0.028  -0.289  -0.224
    1UNL     H8   33  -0.121  -0.221  -0.211
    1UNL     H9   34  -0.008   0.009  -0.235
    1UNL    H10   35   0.108  -0.092  -0.296
    1UNL    H11   36   0.239   0.012  -0.139
    1UNL    H12   37   0.234   0.065   0.167
    1UNL    H13   38   0.090  -0.024   0.205
    1UNL    H14   39   0.078   0.252   0.213
    1UNL    H15   40   0.082   0.525   0.050
    1UNL    H16   41   0.243   0.443   0.024
    1UNL    H17   42   0.123   0.473  -0.115
    1UNL    H18   43  -0.109   0.263  -0.037
    1UNL    H19   44  -0.401   0.290  -0.083
    1UNL    H20   45  -0.617   0.180  -0.032
    1UNL    H21   46  -0.610  -0.045   0.051
    1UNL    H22   47  -0.415  -0.164   0.101
    1UNL    H23   48  -0.054  -0.187   0.176
    1UNL    H24   49  -0.197  -0.248   0.075
   0.00000   0.00000   0.00000   0.00000   0.00000   0.00000   0.00000   0.00000   0.00000
Generated with MDTraj, t= 52.0
 49
    1UNL     C1    1   0.405  -0.282   0.067
    1UNL     C2    2   0.351  -0.151   0.011
    1UNL     C3    3   0.222  -0.151  -0.016
    1UNL     C4    4   0.128  -0.264   0.024
    1UNL     N1    5  -0.011  -0.250  -0.024
    1UNL     C5    6  -0.024  -0.214  -0.164
    1UNL     C6    7   0.072  -0.093  -0.191
    1UNL     C7    8   0.154  -0.036  -0.081
    1UNL     C8    9   0.085   0.080   0.010
    1UNL     C9   10   0.129   0.065   0.158
    1UNL     O1   11   0.040   0.115   0.252
    1UNL    C10   12   0.126   0.215  -0.054
    1UNL     O2   13   0.200   0.210  -0.150
    1UNL     O3   14   0.075   0.326   0.009
    1UNL    C11   15   0.133   0.442  -0.045
    1UNL    C12   16  -0.067   0.068   0.005
    1UNL     N2   17  -0.151   0.172  -0.012
    1UNL    C13   18  -0.284   0.134  -0.006
    1UNL    C14   19  -0.399   0.214  -0.009
    1UNL    C15   20  -0.517   0.146   0.005
    1UNL    C16   21  -0.523   0.011   0.032
    1UNL    C17   22  -0.408  -0.068   0.039
    1UNL    C18   23  -0.283  -0.005   0.023
    1UNL    C19   24  -0.144  -0.042   0.029
    1UNL    C20   25  -0.104  -0.180   0.070
    1UNL     H1   26   0.334  -0.323   0.130
    1UNL     H2   27   0.502  -0.258   0.119
    1UNL     H3   28   0.428  -0.359  -0.010
    1UNL     H4   29   0.414  -0.070  -0.018
    1UNL     H5   30   0.160  -0.366  -0.007
    1UNL     H6   31   0.128  -0.264   0.134
    1UNL     H7   32  -0.009  -0.305  -0.218
    1UNL     H8   33  -0.126  -0.193  -0.202
    1UNL     H9   34   0.018  -0.012  -0.243
    1UNL    H10   35   0.138  -0.130  -0.275
    1UNL    H11   36   0.248   0.012  -0.127
    1UNL    H12   37   0.228   0.111   0.178
    1UNL    H13   38   0.134  -0.037   0.189
    1UNL    H14   39  -0.006   0.198   0.221
    1UNL    H15   40   0.096   0.532   0.019
    1UNL    H16   41   0.246   0.438  -0.043
    1UNL    H17   42   0.086   0.459  -0.148
    1UNL    H18   43  -0.125   0.265  -0.032
    1UNL    H19   44  -0.412   0.323  -0.023
    1UNL    H20   45  -0.607   0.194  -0.013
    1UNL    H21   46  -0.619  -0.034   0.053
    1UNL    H22   47  -0.418  -0.176   0.052
    1UNL    H23   48  -0.038  -0.179   0.161
    1UNL    H24   49  -0.190  -0.252   0.083
   0.00000   0.00000   0.00000   0.00000   0.00000   0.00000   0.00000   0.00000   0.00000
Generated with MDTraj, t= 53.0
 49
    1UNL     C1    1   0.411  -0.258   0.108
    1UNL     C2    2   0.348  -0.156   0.014
    1UNL     C3    3   0.216  -0.153  -0.009
    1UNL     C4    4   0.130  -0.271   0.021
    1UNL     N1    5  -0.004  -0.257  -0.033
    1UNL     C5    6  -0.017  -0.210  -0.177
    1UNL     C6    7   0.059  -0.081  -0.210
    1UNL     C7    8   0.149  -0.036  -0.088
    1UNL     C8    9   0.091   0.069   0.004
    1UNL     C9   10   0.138   0.065   0.160
    1UNL     O1   11   0.038   0.107   0.248
    1UNL    C10   12   0.132   0.210  -0.049
    1UNL     O2   13   0.200   0.209  -0.150
    1UNL     O3   14   0.083   0.318   0.014
    1UNL    C11   15   0.096   0.435  -0.061
    1UNL    C12   16  -0.066   0.056   0.001
    1UNL     N2   17  -0.141   0.170  -0.006
    1UNL    C13   18  -0.273   0.146   0.006
    1UNL    C14   19  -0.393   0.223  -0.002
    1UNL    C15   20  -0.514   0.155   0.021
    1UNL    C16   21  -0.528   0.018   0.036
    1UNL    C17   22  -0.412  -0.056   0.032
    1UNL    C18   23  -0.280   0.006   0.030
    1UNL    C19   24  -0.149  -0.052   0.023
    1UNL    C20   25  -0.104  -0.192   0.055
    1UNL     H1   26   0.395  -0.223   0.207
    1UNL     H2   27   0.525  -0.256   0.082
    1UNL     H3   28   0.375  -0.359   0.105
    1UNL     H4   29   0.412  -0.081  -0.035
    1UNL     H5   30   0.178  -0.362  -0.024
    1UNL     H6   31   0.124  -0.300   0.127
    1UNL     H7   32   0.004  -0.285  -0.251
    1UNL     H8   33  -0.127  -0.205  -0.192
    1UNL     H9   34  -0.012  -0.006  -0.249
    1UNL    H10   35   0.122  -0.104  -0.300
    1UNL    H11   36   0.245   0.011  -0.126
    1UNL    H12   37   0.232   0.121   0.190
    1UNL    H13   38   0.149  -0.039   0.185
    1UNL    H14   39  -0.015   0.179   0.197
    1UNL    H15   40   0.036   0.519  -0.013
    1UNL    H16   41   0.202   0.462  -0.074
    1UNL    H17   42   0.044   0.407  -0.158
    1UNL    H18   43  -0.094   0.259  -0.014
    1UNL    H19   44  -0.392   0.326  -0.017
    1UNL    H20   45  -0.615   0.211   0.007
    1UNL    H21   46  -0.624  -0.033   0.045
    1UNL    H22   47  -0.426  -0.160   0.056
    1UNL    H23   48  -0.070  -0.199   0.161
    1UNL    H24   49  -0.191  -0.262   0.030
   0.00000   0.00000   0.00000   0.00000   0.00000   0.00000   0.00000   0.00000   0.00000
Generated with MDTraj, t= 54.0
 49
    1UNL     C1    1   0.397  -0.257   0.126
    1UNL     C2    2   0.341  -0.151   0.039
    1UNL     C3    3   0.215  -0.162  -0.005
    1UNL     C4    4   0.125  -0.280   0.023
    1UNL     N1    5  -0.007  -0.268  -0.050
    1UNL     C5    6  -0.002  -0.214  -0.195
    1UNL     C6    7   0.067  -0.078  -0.206
    1UNL     C7    8   0.154  -0.041  -0.082
    1UNL     C8    9   0.081   0.068  -0.004
    1UNL     C9   10   0.140   0.064   0.143
    1UNL     O1   11   0.086   0.161   0.231
    1UNL    C10   12   0.122   0.207  -0.056
    1UNL     O2   13   0.183   0.215  -0.162
    1UNL     O3   14   0.073   0.310   0.020
    1UNL    C11   15   0.117   0.434  -0.024
    1UNL    C12   16  -0.074   0.063  -0.007
    1UNL     N2   17  -0.152   0.175  -0.021
    1UNL    C13   18  -0.279   0.135   0.006
    1UNL    C14   19  -0.396   0.221   0.003
    1UNL    C15   20  -0.515   0.158   0.026
    1UNL    C16   21  -0.519   0.012   0.045
    1UNL    C17   22  -0.409  -0.070   0.044
    1UNL    C18   23  -0.284  -0.005   0.031
    1UNL    C19   24  -0.150  -0.053   0.027
    1UNL    C20   25  -0.120  -0.201   0.029
    1UNL     H1   26   0.396  -0.224   0.231
    1UNL     H2   27   0.506  -0.275   0.097
    1UNL     H3   28   0.356  -0.354   0.133
    1UNL     H4   29   0.400  -0.063   0.027
    1UNL     H5   30   0.169  -0.384   0.010
    1UNL     H6   31   0.109  -0.284   0.131
    1UNL     H7   32   0.054  -0.287  -0.251
    1UNL     H8   33  -0.106  -0.221  -0.237
    1UNL     H9   34  -0.012  -0.001  -0.220
    1UNL    H10   35   0.124  -0.081  -0.302
    1UNL    H11   36   0.249   0.008  -0.113
    1UNL    H12   37   0.252   0.083   0.128
    1UNL    H13   38   0.123  -0.036   0.182
    1UNL    H14   39   0.130   0.245   0.214
    1UNL    H15   40   0.068   0.516   0.028
    1UNL    H16   41   0.223   0.438  -0.016
    1UNL    H17   42   0.080   0.432  -0.127
    1UNL    H18   43  -0.125   0.275  -0.042
    1UNL    H19   44  -0.395   0.329  -0.024
    1UNL    H20   45  -0.603   0.208   0.021
    1UNL    H21   46  -0.616  -0.024   0.065
    1UNL    H22   47  -0.417  -0.173   0.077
    1UNL    H23   48  -0.102  -0.232   0.133
    1UNL    H24   49  -0.221  -0.242  -0.005
   0.00000   0.00000   0.00000   0.00000   0.00000   0.00000   0.00000   0.00000   0.00000
Generated with MDTraj, t= 55.0
 49
    1UNL     C1    1   0.383  -0.273   0.126
    1UNL     C2    2   0.341  -0.160   0.035
    1UNL     C3    3   0.212  -0.150   0.000
    1UNL     C4    4   0.117  -0.258   0.034
    1UNL     N1    5  -0.005  -0.254  -0.047
    1UNL     C5    6  -0.000  -0.196  -0.193
    1UNL     C6    7   0.082  -0.069  -0.211
    1UNL     C7    8   0.155  -0.031  -0.082
    1UNL     C8    9   0.078   0.075   0.009
    1UNL     C9   10   0.129   0.059   0.149
    1UNL     O1   11   0.104   0.176   0.224
    1UNL    C10   12   0.117   0.210  -0.053
    1UNL     O2   13   0.169   0.208  -0.164
    1UNL     O3   14   0.086   0.322   0.014
    1UNL    C11   15   0.159   0.423  -0.044
    1UNL    C12   16  -0.075   0.059   0.002
    1UNL     N2   17  -0.157   0.174  -0.003
    1UNL    C13   18  -0.286   0.132   0.003
    1UNL    C14   19  -0.406   0.205   0.015
    1UNL    C15   20  -0.524   0.138   0.038
    1UNL    C16   21  -0.524  -0.003   0.041
    1UNL    C17   22  -0.406  -0.070   0.038
    1UNL    C18   23  -0.284  -0.008   0.015
    1UNL    C19   24  -0.151  -0.054   0.016
    1UNL    C20   25  -0.122  -0.205   0.027
    1UNL     H1   26   0.312  -0.286   0.214
    1UNL     H2   27   0.481  -0.251   0.166
    1UNL     H3   28   0.393  -0.371   0.086
    1UNL     H4   29   0.422  -0.089   0.010
    1UNL     H5   30   0.172  -0.356   0.014
    1UNL     H6   31   0.092  -0.275   0.141
    1UNL     H7   32   0.033  -0.283  -0.252
    1UNL     H8   33  -0.105  -0.177  -0.223
    1UNL     H9   34   0.013   0.012  -0.244
    1UNL    H10   35   0.159  -0.095  -0.287
    1UNL    H11   36   0.248   0.022  -0.113
    1UNL    H12   37   0.240   0.031   0.150
    1UNL    H13   38   0.068  -0.024   0.186
    1UNL    H14   39   0.039   0.241   0.179
    1UNL    H15   40   0.148   0.507   0.016
    1UNL    H16   41   0.259   0.393  -0.054
    1UNL    H17   42   0.108   0.440  -0.136
    1UNL    H18   43  -0.124   0.276  -0.001
    1UNL    H19   44  -0.393   0.305  -0.016
    1UNL    H20   45  -0.616   0.198   0.042
    1UNL    H21   46  -0.618  -0.061   0.058
    1UNL    H22   47  -0.400  -0.177   0.040
    1UNL    H23   48  -0.110  -0.208   0.136
    1UNL    H24   49  -0.213  -0.266  -0.007
   0.00000   0.00000   0.00000   0.00000   0.00000   0.00000   0.00000   0.00000   0.00000
Generated with MDTraj, t= 56.0
 49
    1UNL     C1    1   0.400  -0.277   0.095
    1UNL     C2    2   0.334  -0.155   0.044
    1UNL     C3    3   0.204  -0.159   0.011
    1UNL     C4    4   0.121  -0.283   0.014
    1UNL     N1    5  -0.004  -0.264  -0.047
    1UNL     C5    6   0.010  -0.221  -0.194
    1UNL     C6    7   0.076  -0.084  -0.203
    1UNL     C7    8   0.151  -0.044  -0.070
    1UNL     C8    9   0.087   0.075   0.016
    1UNL     C9   10   0.140   0.081   0.150
    1UNL     O1   11   0.054   0.162   0.226
    1UNL    C10   12   0.117   0.211  -0.054
    1UNL     O2   13   0.165   0.214  -0.167
    1UNL     O3   14   0.095   0.324   0.019
    1UNL    C11   15   0.123   0.433  -0.069
    1UNL    C12   16  -0.063   0.058   0.023
    1UNL     N2   17  -0.140   0.175   0.028
    1UNL    C13   18  -0.278   0.140   0.019
    1UNL    C14   19  -0.394   0.221   0.023
    1UNL    C15   20  -0.515   0.154   0.018
    1UNL    C16   21  -0.526   0.009   0.027
    1UNL    C17   22  -0.409  -0.063   0.025
    1UNL    C18   23  -0.286   0.000   0.019
    1UNL    C19   24  -0.148  -0.056   0.011
    1UNL    C20   25  -0.112  -0.199   0.037
    1UNL     H1   26   0.322  -0.348   0.140
    1UNL     H2   27   0.468  -0.247   0.168
    1UNL     H3   28   0.453  -0.337   0.022
    1UNL     H4   29   0.391  -0.067   0.032
    1UNL     H5   30   0.165  -0.383  -0.024
    1UNL     H6   31   0.100  -0.314   0.119
    1UNL     H7   32   0.075  -0.297  -0.242
    1UNL     H8   33  -0.095  -0.234  -0.229
    1UNL     H9   34   0.002  -0.001  -0.207
    1UNL    H10   35   0.140  -0.087  -0.294
    1UNL    H11   36   0.246  -0.002  -0.107
    1UNL    H12   37   0.247   0.125   0.150
    1UNL    H13   38   0.136  -0.020   0.191
    1UNL    H14   39  -0.011   0.209   0.173
    1UNL    H15   40   0.080   0.520  -0.032
    1UNL    H16   41   0.227   0.442  -0.081
    1UNL    H17   42   0.076   0.411  -0.163
    1UNL    H18   43  -0.105   0.263  -0.012
    1UNL    H19   44  -0.381   0.330   0.023
    1UNL    H20   45  -0.609   0.217   0.023
    1UNL    H21   46  -0.618  -0.040   0.035
    1UNL    H22   47  -0.408  -0.169   0.021
    1UNL    H23   48  -0.086  -0.209   0.141
    1UNL    H24   49  -0.206  -0.264   0.026
   0.00000   0.00000   0.00000   0.00000   0.00000   0.00000   0.00000   0.00000   0.00000
Generated with MDTraj, t= 57.0
 49
    1UNL     C1    1   0.407  -0.272   0.108
    1UNL     C2    2   0.346  -0.167   0.019
    1UNL     C3    3   0.217  -0.162  -0.017
    1UNL     C4    4   0.115  -0.261   0.033
    1UNL     N1    5  -0.012  -0.250  -0.031
    1UNL     C5    6  -0.005  -0.190  -0.180
    1UNL     C6    7   0.087  -0.078  -0.201
    1UNL     C7    8   0.177  -0.034  -0.082
    1UNL     C8    9   0.092   0.067   0.007
    1UNL     C9   10   0.149   0.062   0.149
    1UNL     O1   11   0.069   0.139   0.236
    1UNL    C10   12   0.116   0.205  -0.048
    1UNL     O2   13   0.159   0.206  -0.162
    1UNL     O3   14   0.078   0.315   0.027
    1UNL    C11   15   0.090   0.421  -0.066
    1UNL    C12   16  -0.060   0.057   0.016
    1UNL     N2   17  -0.143   0.169   0.010
    1UNL    C13   18  -0.277   0.136   0.009
    1UNL    C14   19  -0.386   0.221   0.005
    1UNL    C15   20  -0.514   0.163   0.011
    1UNL    C16   21  -0.523   0.022   0.020
    1UNL    C17   22  -0.414  -0.066   0.017
    1UNL    C18   23  -0.287  -0.004   0.022
    1UNL    C19   24  -0.150  -0.048   0.027
    1UNL    C20   25  -0.118  -0.191   0.054
    1UNL     H1   26   0.345  -0.292   0.198
    1UNL     H2   27   0.501  -0.237   0.133
    1UNL     H3   28   0.416  -0.374   0.062
    1UNL     H4   29   0.400  -0.075  -0.012
    1UNL     H5   30   0.154  -0.367   0.011
    1UNL     H6   31   0.100  -0.271   0.143
    1UNL     H7   32   0.029  -0.282  -0.235
    1UNL     H8   33  -0.108  -0.169  -0.212
    1UNL     H9   34   0.022   0.007  -0.229
    1UNL    H10   35   0.157  -0.104  -0.282
    1UNL    H11   36   0.271   0.010  -0.117
    1UNL    H12   37   0.256   0.104   0.148
    1UNL    H13   38   0.154  -0.036   0.194
    1UNL    H14   39   0.002   0.184   0.179
    1UNL    H15   40   0.082   0.517  -0.019
    1UNL    H16   41   0.192   0.414  -0.112
    1UNL    H17   42   0.014   0.409  -0.147
    1UNL    H18   43  -0.110   0.259   0.028
    1UNL    H19   44  -0.369   0.325   0.025
    1UNL    H20   45  -0.595   0.220   0.016
    1UNL    H21   46  -0.621  -0.028   0.037
    1UNL    H22   47  -0.418  -0.175   0.017
    1UNL    H23   48  -0.111  -0.211   0.161
    1UNL    H24   49  -0.211  -0.255   0.032
   0.00000   0.00000   0.00000   0.00000   0.00000   0.00000   0.00000   0.00000   0.00000
Generated with MDTraj, t= 58.0
 49
    1UNL     C1    1   0.412  -0.272   0.094
    1UNL     C2    2   0.335  -0.164   0.029
    1UNL     C3    3   0.205  -0.160  -0.006
    1UNL     C4    4   0.113  -0.272   0.028
    1UNL     N1    5  -0.016  -0.253  -0.034
    1UNL     C5    6   0.006  -0.218  -0.180
    1UNL     C6    7   0.061  -0.081  -0.207
    1UNL     C7    8   0.157  -0.038  -0.080
    1UNL     C8    9   0.085   0.064   0.004
    1UNL     C9   10   0.138   0.059   0.149
    1UNL     O1   11   0.070   0.154   0.230
    1UNL    C10   12   0.113   0.211  -0.050
    1UNL     O2   13   0.164   0.228  -0.157
    1UNL     O3   14   0.077   0.317   0.026
    1UNL    C11   15   0.122   0.435  -0.031
    1UNL    C12   16  -0.069   0.054   0.005
    1UNL     N2   17  -0.138   0.171  -0.009
    1UNL    C13   18  -0.272   0.146   0.008
    1UNL    C14   19  -0.390   0.214  -0.016
    1UNL    C15   20  -0.508   0.146  -0.003
    1UNL    C16   21  -0.518   0.005   0.026
    1UNL    C17   22  -0.400  -0.062   0.044
    1UNL    C18   23  -0.279   0.009   0.036
    1UNL    C19   24  -0.153  -0.049   0.032
    1UNL    C20   25  -0.124  -0.194   0.048
    1UNL     H1   26   0.429  -0.255   0.198
    1UNL     H2   27   0.508  -0.274   0.045
    1UNL     H3   28   0.363  -0.375   0.094
    1UNL     H4   29   0.383  -0.075  -0.003
    1UNL     H5   30   0.146  -0.377  -0.005
    1UNL     H6   31   0.103  -0.290   0.138
    1UNL     H7   32   0.092  -0.287  -0.208
    1UNL     H8   33  -0.085  -0.251  -0.233
    1UNL     H9   34  -0.024  -0.010  -0.209
    1UNL    H10   35   0.113  -0.087  -0.302
    1UNL    H11   36   0.245   0.012  -0.116
    1UNL    H12   37   0.247   0.082   0.167
    1UNL    H13   38   0.121  -0.036   0.197
    1UNL    H14   39   0.099   0.244   0.197
    1UNL    H15   40   0.093   0.517   0.039
    1UNL    H16   41   0.237   0.435  -0.030
    1UNL    H17   42   0.089   0.454  -0.139
    1UNL    H18   43  -0.102   0.259  -0.035
    1UNL    H19   44  -0.393   0.319  -0.030
    1UNL    H20   45  -0.607   0.203  -0.017
    1UNL    H21   46  -0.608  -0.050   0.025
    1UNL    H22   47  -0.395  -0.167   0.063
    1UNL    H23   48  -0.076  -0.193   0.145
    1UNL    H24   49  -0.205  -0.270   0.075
   0.00000   0.00000   0.00000   0.00000   0.00000   0.00000   0.00000   0.00000   0.00000
Generated with MDTraj, t= 59.0
 49
    1UNL     C1    1   0.425  -0.250   0.092
    1UNL     C2    2   0.346  -0.151   0.012
    1UNL     C3    3   0.212  -0.158  -0.014
    1UNL     C4    4   0.113  -0.262   0.023
    1UNL     N1    5  -0.022  -0.238  -0.024
    1UNL     C5    6  -0.026  -0.201  -0.175
    1UNL     C6    7   0.060  -0.079  -0.201
    1UNL     C7    8   0.155  -0.040  -0.088
    1UNL     C8    9   0.083   0.063   0.008
    1UNL     C9   10   0.136   0.059   0.149
    1UNL     O1   11   0.068   0.154   0.237
    1UNL    C10   12   0.125   0.205  -0.044
    1UNL     O2   13   0.189   0.214  -0.146
    1UNL     O3   14   0.098   0.317   0.033
    1UNL    C11   15   0.162   0.423  -0.026
    1UNL    C12   16  -0.072   0.062   0.000
    1UNL     N2   17  -0.155   0.173  -0.021
    1UNL    C13   18  -0.282   0.124  -0.017
    1UNL    C14   19  -0.405   0.199  -0.021
    1UNL    C15   20  -0.528   0.141   0.004
    1UNL    C16   21  -0.529   0.005   0.041
    1UNL    C17   22  -0.417  -0.074   0.032
    1UNL    C18   23  -0.288  -0.017   0.004
    1UNL    C19   24  -0.154  -0.047   0.038
    1UNL    C20   25  -0.114  -0.182   0.074
    1UNL     H1   26   0.434  -0.235   0.195
    1UNL     H2   27   0.530  -0.250   0.054
    1UNL     H3   28   0.381  -0.351   0.089
    1UNL     H4   29   0.397  -0.063  -0.031
    1UNL     H5   30   0.147  -0.366  -0.012
    1UNL     H6   31   0.106  -0.285   0.132
    1UNL     H7   32   0.017  -0.285  -0.238
    1UNL     H8   33  -0.132  -0.188  -0.203
    1UNL     H9   34  -0.015   0.001  -0.219
    1UNL    H10   35   0.126  -0.104  -0.284
    1UNL    H11   36   0.236   0.015  -0.136
    1UNL    H12   37   0.247   0.073   0.151
    1UNL    H13   38   0.116  -0.035   0.198
    1UNL    H14   39   0.100   0.246   0.216
    1UNL    H15   40   0.138   0.518   0.031
    1UNL    H16   41   0.276   0.408  -0.007
    1UNL    H17   42   0.149   0.437  -0.139
    1UNL    H18   43  -0.116   0.269  -0.021
    1UNL    H19   44  -0.401   0.302  -0.063
    1UNL    H20   45  -0.619   0.196  -0.010
    1UNL    H21   46  -0.629  -0.038   0.056
    1UNL    H22   47  -0.424  -0.175   0.067
    1UNL    H23   48  -0.083  -0.193   0.177
    1UNL    H24   49  -0.209  -0.245   0.081
   0.00000   0.00000   0.00000   0.00000   0.00000   0.00000   0.00000   0.00000   0.00000
Generated with MDTraj, t= 60.0
 49
    1UNL     C1    1   0.410  -0.261   0.091
    1UNL     C2    2   0.339  -0.151   0.016
    1UNL     C3    3   0.210  -0.152  -0.030
    1UNL     C4    4   0.127  -0.266   0.012
    1UNL     N1    5  -0.016  -0.252  -0.016
    1UNL     C5    6  -0.031  -0.226  -0.165
    1UNL     C6    7   0.048  -0.099  -0.213
    1UNL     C7    8   0.143  -0.040  -0.100
    1UNL     C8    9   0.080   0.070   0.005
    1UNL     C9   10   0.135   0.059   0.149
    1UNL     O1   11   0.058   0.137   0.235
    1UNL    C10   12   0.127   0.208  -0.051
    1UNL     O2   13   0.202   0.231  -0.144
    1UNL     O3   14   0.081   0.314   0.025
    1UNL    C11   15   0.137   0.432  -0.017
    1UNL    C12   16  -0.070   0.065   0.011
    1UNL     N2   17  -0.145   0.179   0.000
    1UNL    C13   18  -0.278   0.137  -0.005
    1UNL    C14   19  -0.396   0.212  -0.035
    1UNL    C15   20  -0.512   0.142  -0.017
    1UNL    C16   21  -0.521   0.004   0.016
    1UNL    C17   22  -0.410  -0.063   0.058
    1UNL    C18   23  -0.282  -0.003   0.028
    1UNL    C19   24  -0.145  -0.045   0.039
    1UNL    C20   25  -0.095  -0.178   0.085
    1UNL     H1   26   0.371  -0.303   0.179
    1UNL     H2   27   0.516  -0.227   0.118
    1UNL     H3   28   0.411  -0.349   0.031
    1UNL     H4   29   0.404  -0.071  -0.014
    1UNL     H5   30   0.162  -0.371  -0.020
    1UNL     H6   31   0.139  -0.279   0.122
    1UNL     H7   32  -0.002  -0.324  -0.213
    1UNL     H8   33  -0.137  -0.211  -0.200
    1UNL     H9   34  -0.020  -0.014  -0.230
    1UNL    H10   35   0.102  -0.138  -0.299
    1UNL    H11   36   0.220   0.019  -0.148
    1UNL    H12   37   0.236   0.101   0.140
    1UNL    H13   38   0.139  -0.046   0.181
    1UNL    H14   39  -0.006   0.182   0.177
    1UNL    H15   40   0.122   0.505   0.066
    1UNL    H16   41   0.247   0.417  -0.024
    1UNL    H17   42   0.104   0.474  -0.114
    1UNL    H18   43  -0.118   0.277  -0.037
    1UNL    H19   44  -0.391   0.304  -0.081
    1UNL    H20   45  -0.603   0.187  -0.041
    1UNL    H21   46  -0.617  -0.044   0.019
    1UNL    H22   47  -0.415  -0.168   0.088
    1UNL    H23   48  -0.050  -0.162   0.184
    1UNL    H24   49  -0.184  -0.242   0.107
   0.00000   0.00000   0.00000   0.00000   0.00000   0.00000   0.00000   0.00000   0.00000
Generated with MDTraj, t= 61.0
 49
    1UNL     C1    1   0.409  -0.270   0.079
    1UNL     C2    2   0.342  -0.158   0.016
    1UNL     C3    3   0.211  -0.159  -0.015
    1UNL     C4    4   0.119  -0.265   0.025
    1UNL     N1    5  -0.018  -0.246  -0.026
    1UNL     C5    6  -0.033  -0.211  -0.174
    1UNL     C6    7   0.048  -0.086  -0.203
    1UNL     C7    8   0.152  -0.042  -0.092
    1UNL     C8    9   0.093   0.068   0.012
    1UNL     C9   10   0.139   0.060   0.159
    1UNL     O1   11   0.096   0.146   0.260
    1UNL    C10   12   0.119   0.210  -0.041
    1UNL     O2   13   0.189   0.220  -0.139
    1UNL     O3   14   0.069   0.314   0.028
    1UNL    C11   15   0.097   0.434  -0.041
    1UNL    C12   16  -0.058   0.059   0.017
    1UNL     N2   17  -0.140   0.166  -0.032
    1UNL    C13   18  -0.274   0.135  -0.021
    1UNL    C14   19  -0.392   0.207  -0.031
    1UNL    C15   20  -0.510   0.141  -0.016
    1UNL    C16   21  -0.519   0.009   0.017
    1UNL    C17   22  -0.404  -0.057   0.039
    1UNL    C18   23  -0.280   0.002   0.027
    1UNL    C19   24  -0.145  -0.044   0.056
    1UNL    C20   25  -0.111  -0.184   0.071
    1UNL     H1   26   0.356  -0.334   0.147
    1UNL     H2   27   0.505  -0.233   0.128
    1UNL     H3   28   0.427  -0.341   0.004
    1UNL     H4   29   0.397  -0.077  -0.033
    1UNL     H5   30   0.159  -0.367  -0.005
    1UNL     H6   31   0.122  -0.276   0.136
    1UNL     H7   32  -0.026  -0.288  -0.259
    1UNL     H8   33  -0.147  -0.194  -0.181
    1UNL     H9   34  -0.022  -0.004  -0.220
    1UNL    H10   35   0.108  -0.103  -0.290
    1UNL    H11   36   0.237   0.003  -0.144
    1UNL    H12   37   0.246   0.062   0.157
    1UNL    H13   38   0.102  -0.037   0.192
    1UNL    H14   39   0.106   0.242   0.243
    1UNL    H15   40   0.034   0.515  -0.005
    1UNL    H16   41   0.198   0.461  -0.022
    1UNL    H17   42   0.092   0.426  -0.145
    1UNL    H18   43  -0.107   0.267  -0.036
    1UNL    H19   44  -0.388   0.320  -0.038
    1UNL    H20   45  -0.600   0.211   0.003
    1UNL    H21   46  -0.614  -0.034   0.047
    1UNL    H22   47  -0.411  -0.159   0.066
    1UNL    H23   48  -0.069  -0.200   0.173
    1UNL    H24   49  -0.205  -0.243   0.077
   0.00000   0.00000   0.00000   0.00000   0.00000   0.00000   0.00000   0.00000   0.00000
Generated with MDTraj, t= 62.0
 49
    1UNL     C1    1   0.420  -0.300   0.073
    1UNL     C2    2   0.350  -0.178   0.013
    1UNL     C3    3   0.216  -0.161  -0.014
    1UNL     C4    4   0.120  -0.270   0.024
    1UNL     N1    5  -0.014  -0.246  -0.033
    1UNL     C5    6  -0.015  -0.202  -0.177
    1UNL     C6    7   0.067  -0.080  -0.200
    1UNL     C7    8   0.155  -0.036  -0.072
    1UNL     C8    9   0.084   0.078   0.016
    1UNL     C9   10   0.141   0.070   0.168
    1UNL     O1   11   0.119   0.178   0.253
    1UNL    C10   12   0.121   0.207  -0.044
    1UNL     O2   13   0.195   0.218  -0.139
    1UNL     O3   14   0.062   0.314   0.016
    1UNL    C11   15   0.111   0.433  -0.042
    1UNL    C12   16  -0.072   0.065   0.027
    1UNL     N2   17  -0.154   0.167  -0.020
    1UNL    C13   18  -0.291   0.132   0.002
    1UNL    C14   19  -0.407   0.207  -0.030
    1UNL    C15   20  -0.527   0.144  -0.020
    1UNL    C16   21  -0.522   0.014   0.015
    1UNL    C17   22  -0.415  -0.071   0.039
    1UNL    C18   23  -0.293  -0.001   0.041
    1UNL    C19   24  -0.155  -0.046   0.038
    1UNL    C20   25  -0.113  -0.186   0.055
    1UNL     H1   26   0.401  -0.324   0.179
    1UNL     H2   27   0.528  -0.286   0.057
    1UNL     H3   28   0.381  -0.382   0.022
    1UNL     H4   29   0.411  -0.095  -0.014
    1UNL     H5   30   0.159  -0.373   0.001
    1UNL     H6   31   0.122  -0.270   0.135
    1UNL     H7   32   0.013  -0.295  -0.237
    1UNL     H8   33  -0.120  -0.192  -0.225
    1UNL     H9   34  -0.002   0.003  -0.218
    1UNL    H10   35   0.126  -0.093  -0.287
    1UNL    H11   36   0.245   0.016  -0.110
    1UNL    H12   37   0.247   0.059   0.170
    1UNL    H13   38   0.102  -0.020   0.217
    1UNL    H14   39   0.146   0.265   0.217
    1UNL    H15   40   0.080   0.513   0.021
    1UNL    H16   41   0.215   0.433  -0.053
    1UNL    H17   42   0.069   0.444  -0.135
    1UNL    H18   43  -0.124   0.258  -0.056
    1UNL    H19   44  -0.404   0.312  -0.038
    1UNL    H20   45  -0.617   0.190  -0.031
    1UNL    H21   46  -0.620  -0.033   0.010
    1UNL    H22   47  -0.421  -0.181   0.041
    1UNL    H23   48  -0.080  -0.200   0.163
    1UNL    H24   49  -0.197  -0.257   0.052
   0.00000   0.00000   0.00000   0.00000   0.00000   0.00000   0.00000   0.00000   0.00000
Generated with MDTraj, t= 63.0
 49
    1UNL     C1    1   0.405  -0.294   0.077
    1UNL     C2    2   0.347  -0.176   0.005
    1UNL     C3    3   0.214  -0.157  -0.010
    1UNL     C4    4   0.118  -0.260   0.034
    1UNL     N1    5  -0.017  -0.258  -0.027
    1UNL     C5    6  -0.022  -0.218  -0.172
    1UNL     C6    7   0.044  -0.081  -0.196
    1UNL     C7    8   0.151  -0.039  -0.081
    1UNL     C8    9   0.083   0.078   0.008
    1UNL     C9   10   0.135   0.084   0.157
    1UNL     O1   11   0.064   0.169   0.257
    1UNL    C10   12   0.127   0.217  -0.055
    1UNL     O2   13   0.206   0.220  -0.148
    1UNL     O3   14   0.077   0.322   0.012
    1UNL    C11   15   0.131   0.442  -0.042
    1UNL    C12   16  -0.062   0.063   0.020
    1UNL     N2   17  -0.145   0.176   0.019
    1UNL    C13   18  -0.277   0.138   0.016
    1UNL    C14   19  -0.398   0.199  -0.012
    1UNL    C15   20  -0.517   0.137  -0.001
    1UNL    C16   21  -0.523   0.001   0.009
    1UNL    C17   22  -0.406  -0.066   0.014
    1UNL    C18   23  -0.278  -0.004   0.024
    1UNL    C19   24  -0.143  -0.050   0.024
    1UNL    C20   25  -0.116  -0.199   0.054
    1UNL     H1   26   0.363  -0.313   0.181
    1UNL     H2   27   0.510  -0.288   0.086
    1UNL     H3   28   0.371  -0.379   0.023
    1UNL     H4   29   0.410  -0.098  -0.037
    1UNL     H5   30   0.166  -0.360   0.018
    1UNL     H6   31   0.115  -0.245   0.143
    1UNL     H7   32   0.031  -0.301  -0.229
    1UNL     H8   33  -0.127  -0.237  -0.218
    1UNL     H9   34  -0.040  -0.011  -0.214
    1UNL    H10   35   0.095  -0.086  -0.287
    1UNL    H11   36   0.230   0.009  -0.141
    1UNL    H12   37   0.231   0.129   0.144
    1UNL    H13   38   0.156  -0.013   0.202
    1UNL    H14   39   0.059   0.255   0.213
    1UNL    H15   40   0.092   0.531   0.008
    1UNL    H16   41   0.237   0.439  -0.040
    1UNL    H17   42   0.104   0.440  -0.143
    1UNL    H18   43  -0.109   0.267   0.018
    1UNL    H19   44  -0.401   0.306  -0.033
    1UNL    H20   45  -0.612   0.191  -0.027
    1UNL    H21   46  -0.613  -0.053  -0.001
    1UNL    H22   47  -0.413  -0.171   0.009
    1UNL    H23   48  -0.084  -0.214   0.163
    1UNL    H24   49  -0.203  -0.264   0.046
   0.00000   0.00000   0.00000   0.00000   0.00000   0.00000   0.00000   0.00000   0.00000
Generated with MDTraj, t= 64.0
 49
    1UNL     C1    1   0.434  -0.251   0.078
    1UNL     C2    2   0.356  -0.144   0.016
    1UNL     C3    3   0.224  -0.154  -0.011
    1UNL     C4    4   0.129  -0.263   0.040
    1UNL     N1    5  -0.007  -0.248  -0.018
    1UNL     C5    6  -0.010  -0.225  -0.168
    1UNL     C6    7   0.062  -0.096  -0.203
    1UNL     C7    8   0.155  -0.047  -0.086
    1UNL     C8    9   0.080   0.065   0.006
    1UNL     C9   10   0.122   0.048   0.159
    1UNL     O1   11   0.067   0.145   0.259
    1UNL    C10   12   0.123   0.201  -0.052
    1UNL     O2   13   0.184   0.213  -0.157
    1UNL     O3   14   0.088   0.308   0.019
    1UNL    C11   15   0.128   0.428  -0.045
    1UNL    C12   16  -0.076   0.062   0.000
    1UNL     N2   17  -0.154   0.176   0.013
    1UNL    C13   18  -0.283   0.140   0.012
    1UNL    C14   19  -0.395   0.222   0.004
    1UNL    C15   20  -0.512   0.161   0.007
    1UNL    C16   21  -0.526   0.021   0.019
    1UNL    C17   22  -0.420  -0.060   0.010
    1UNL    C18   23  -0.291   0.001   0.004
    1UNL    C19   24  -0.156  -0.050   0.013
    1UNL    C20   25  -0.117  -0.190   0.056
    1UNL     H1   26   0.371  -0.339   0.112
    1UNL     H2   27   0.489  -0.227   0.161
    1UNL     H3   28   0.495  -0.301   0.003
    1UNL     H4   29   0.409  -0.052  -0.004
    1UNL     H5   30   0.167  -0.364   0.013
    1UNL     H6   31   0.132  -0.250   0.150
    1UNL     H7   32   0.026  -0.317  -0.225
    1UNL     H8   33  -0.123  -0.226  -0.197
    1UNL     H9   34  -0.008  -0.018  -0.234
    1UNL    H10   35   0.113  -0.123  -0.290
    1UNL    H11   36   0.227   0.009  -0.149
    1UNL    H12   37   0.228   0.050   0.166
    1UNL    H13   38   0.094  -0.056   0.184
    1UNL    H14   39  -0.020   0.167   0.214
    1UNL    H15   40   0.068   0.511   0.004
    1UNL    H16   41   0.236   0.446  -0.037
    1UNL    H17   42   0.097   0.413  -0.151
    1UNL    H18   43  -0.115   0.266   0.012
    1UNL    H19   44  -0.389   0.330  -0.019
    1UNL    H20   45  -0.603   0.218  -0.004
    1UNL    H21   46  -0.632  -0.012   0.027
    1UNL    H22   47  -0.431  -0.166   0.037
    1UNL    H23   48  -0.092  -0.210   0.167
    1UNL    H24   49  -0.200  -0.258   0.040
   0.00000   0.00000   0.00000   0.00000   0.00000   0.00000   0.00000   0.00000   0.00000
Generated with MDTraj, t= 65.0
 49
    1UNL     C1    1   0.407  -0.255   0.114
    1UNL     C2    2   0.339  -0.162   0.018
    1UNL     C3    3   0.209  -0.148  -0.012
    1UNL     C4    4   0.121  -0.262   0.034
    1UNL     N1    5  -0.010  -0.259  -0.030
    1UNL     C5    6   0.004  -0.228  -0.177
    1UNL     C6    7   0.059  -0.086  -0.211
    1UNL     C7    8   0.157  -0.033  -0.097
    1UNL     C8    9   0.090   0.070   0.003
    1UNL     C9   10   0.128   0.058   0.159
    1UNL     O1   11   0.062   0.146   0.245
    1UNL    C10   12   0.122   0.206  -0.054
    1UNL     O2   13   0.166   0.228  -0.165
    1UNL     O3   14   0.085   0.307   0.027
    1UNL    C11   15   0.124   0.434  -0.020
    1UNL    C12   16  -0.062   0.051  -0.008
    1UNL     N2   17  -0.137   0.165  -0.027
    1UNL    C13   18  -0.270   0.136  -0.010
    1UNL    C14   19  -0.386   0.222  -0.009
    1UNL    C15   20  -0.507   0.163   0.012
    1UNL    C16   21  -0.521   0.023   0.035
    1UNL    C17   22  -0.414  -0.065   0.055
    1UNL    C18   23  -0.284  -0.007   0.023
    1UNL    C19   24  -0.152  -0.053   0.023
    1UNL    C20   25  -0.115  -0.195   0.047
    1UNL     H1   26   0.367  -0.358   0.113
    1UNL     H2   27   0.399  -0.222   0.211
    1UNL     H3   28   0.512  -0.271   0.083
    1UNL     H4   29   0.404  -0.081  -0.011
    1UNL     H5   30   0.182  -0.351   0.011
    1UNL     H6   31   0.109  -0.250   0.142
    1UNL     H7   32   0.054  -0.323  -0.216
    1UNL     H8   33  -0.101  -0.234  -0.228
    1UNL     H9   34  -0.031  -0.023  -0.223
    1UNL    H10   35   0.102  -0.087  -0.306
    1UNL    H11   36   0.238   0.023  -0.149
    1UNL    H12   37   0.234   0.057   0.172
    1UNL    H13   38   0.092  -0.042   0.196
    1UNL    H14   39  -0.020   0.171   0.199
    1UNL    H15   40   0.127   0.502   0.071
    1UNL    H16   41   0.222   0.431  -0.077
    1UNL    H17   42   0.035   0.461  -0.090
    1UNL    H18   43  -0.100   0.252  -0.071
    1UNL    H19   44  -0.374   0.321  -0.038
    1UNL    H20   45  -0.597   0.222   0.018
    1UNL    H21   46  -0.617  -0.013   0.056
    1UNL    H22   47  -0.429  -0.167   0.088
    1UNL    H23   48  -0.096  -0.212   0.159
    1UNL    H24   49  -0.203  -0.256   0.027
   0.00000   0.00000   0.00000   0.00000   0.00000   0.00000   0.00000   0.00000   0.00000
Generated with MDTraj, t= 66.0
 49
    1UNL     C1    1   0.397  -0.268   0.124
    1UNL     C2    2   0.339  -0.165   0.032
    1UNL     C3    3   0.210  -0.161  -0.002
    1UNL     C4    4   0.116  -0.277   0.012
    1UNL     N1    5  -0.021  -0.243  -0.047
    1UNL     C5    6  -0.006  -0.204  -0.196
    1UNL     C6    7   0.088  -0.082  -0.203
    1UNL     C7    8   0.165  -0.041  -0.076
    1UNL     C8    9   0.086   0.069   0.001
    1UNL     C9   10   0.125   0.063   0.149
    1UNL     O1   11   0.066   0.145   0.241
    1UNL    C10   12   0.130   0.209  -0.061
    1UNL     O2   13   0.172   0.225  -0.174
    1UNL     O3   14   0.101   0.313   0.028
    1UNL    C11   15   0.135   0.436  -0.031
    1UNL    C12   16  -0.070   0.056  -0.010
    1UNL     N2   17  -0.149   0.165  -0.039
    1UNL    C13   18  -0.282   0.132  -0.012
    1UNL    C14   19  -0.400   0.209  -0.006
    1UNL    C15   20  -0.522   0.140   0.016
    1UNL    C16   21  -0.527   0.004   0.052
    1UNL    C17   22  -0.406  -0.057   0.065
    1UNL    C18   23  -0.289   0.003   0.030
    1UNL    C19   24  -0.152  -0.045   0.034
    1UNL    C20   25  -0.110  -0.181   0.057
    1UNL     H1   26   0.469  -0.331   0.077
    1UNL     H2   27   0.319  -0.334   0.151
    1UNL     H3   28   0.449  -0.218   0.208
    1UNL     H4   29   0.394  -0.071   0.032
    1UNL     H5   30   0.152  -0.361  -0.048
    1UNL     H6   31   0.117  -0.297   0.121
    1UNL     H7   32   0.027  -0.292  -0.263
    1UNL     H8   33  -0.117  -0.184  -0.225
    1UNL     H9   34   0.040   0.007  -0.245
    1UNL    H10   35   0.165  -0.108  -0.269
    1UNL    H11   36   0.255   0.021  -0.101
    1UNL    H12   37   0.229   0.098   0.159
    1UNL    H13   38   0.124  -0.043   0.189
    1UNL    H14   39   0.003   0.212   0.199
    1UNL    H15   40   0.102   0.520   0.034
    1UNL    H16   41   0.246   0.439  -0.054
    1UNL    H17   42   0.073   0.434  -0.130
    1UNL    H18   43  -0.122   0.269  -0.033
    1UNL    H19   44  -0.395   0.319  -0.028
    1UNL    H20   45  -0.614   0.202   0.009
    1UNL    H21   46  -0.623  -0.048   0.078
    1UNL    H22   47  -0.411  -0.161   0.086
    1UNL    H23   48  -0.054  -0.194   0.156
    1UNL    H24   49  -0.199  -0.241   0.064
   0.00000   0.00000   0.00000   0.00000   0.00000   0.00000   0.00000   0.00000   0.00000
Generated with MDTraj, t= 67.0
 49
    1UNL     C1    1   0.388  -0.278   0.117
    1UNL     C2    2   0.318  -0.163   0.046
    1UNL     C3    3   0.194  -0.164  -0.001
    1UNL     C4    4   0.115  -0.287  -0.021
    1UNL     N1    5  -0.024  -0.252  -0.048
    1UNL     C5    6  -0.020  -0.178  -0.182
    1UNL     C6    7   0.088  -0.074  -0.205
    1UNL     C7    8   0.154  -0.038  -0.073
    1UNL     C8    9   0.086   0.080   0.009
    1UNL     C9   10   0.129   0.087   0.156
    1UNL     O1   11   0.051   0.169   0.235
    1UNL    C10   12   0.121   0.208  -0.061
    1UNL     O2   13   0.173   0.203  -0.170
    1UNL     O3   14   0.092   0.323   0.008
    1UNL    C11   15   0.145   0.430  -0.051
    1UNL    C12   16  -0.060   0.059   0.013
    1UNL     N2   17  -0.147   0.167   0.002
    1UNL    C13   18  -0.279   0.126  -0.002
    1UNL    C14   19  -0.392   0.208  -0.005
    1UNL    C15   20  -0.515   0.145   0.015
    1UNL    C16   21  -0.515   0.006   0.043
    1UNL    C17   22  -0.396  -0.075   0.048
    1UNL    C18   23  -0.275  -0.014   0.025
    1UNL    C19   24  -0.138  -0.055   0.032
    1UNL    C20   25  -0.094  -0.196   0.063
    1UNL     H1   26   0.443  -0.254   0.201
    1UNL     H2   27   0.460  -0.316   0.044
    1UNL     H3   28   0.323  -0.359   0.159
    1UNL     H4   29   0.365  -0.067   0.057
    1UNL     H5   30   0.166  -0.335  -0.104
    1UNL     H6   31   0.118  -0.343   0.073
    1UNL     H7   32  -0.019  -0.264  -0.258
    1UNL     H8   33  -0.123  -0.128  -0.196
    1UNL     H9   34   0.035   0.017  -0.238
    1UNL    H10   35   0.159  -0.092  -0.281
    1UNL    H11   36   0.250   0.013  -0.093
    1UNL    H12   37   0.234   0.117   0.168
    1UNL    H13   38   0.119  -0.012   0.214
    1UNL    H14   39   0.016   0.242   0.179
    1UNL    H15   40   0.097   0.512  -0.001
    1UNL    H16   41   0.255   0.432  -0.039
    1UNL    H17   42   0.112   0.432  -0.159
    1UNL    H18   43  -0.113   0.256  -0.048
    1UNL    H19   44  -0.371   0.311  -0.006
    1UNL    H20   45  -0.600   0.205   0.008
    1UNL    H21   46  -0.609  -0.043   0.042
    1UNL    H22   47  -0.406  -0.185   0.059
    1UNL    H23   48  -0.034  -0.190   0.160
    1UNL    H24   49  -0.184  -0.256   0.077
   0.00000   0.00000   0.00000   0.00000   0.00000   0.00000   0.00000   0.00000   0.00000
Generated with MDTraj, t= 68.0
 49
    1UNL     C1    1   0.350  -0.296   0.131
    1UNL     C2    2   0.319  -0.169   0.062
    1UNL     C3    3   0.202  -0.161  -0.001
    1UNL     C4    4   0.112  -0.287  -0.013
    1UNL     N1    5  -0.022  -0.249  -0.053
    1UNL     C5    6  -0.014  -0.179  -0.188
    1UNL     C6    7   0.089  -0.066  -0.206
    1UNL     C7    8   0.161  -0.039  -0.075
    1UNL     C8    9   0.088   0.073   0.007
    1UNL     C9   10   0.147   0.070   0.143
    1UNL     O1   11   0.078   0.160   0.229
    1UNL    C10   12   0.122   0.210  -0.064
    1UNL     O2   13   0.184   0.210  -0.169
    1UNL     O3   14   0.084   0.326   0.000
    1UNL    C11   15   0.111   0.443  -0.078
    1UNL    C12   16  -0.064   0.068   0.024
    1UNL     N2   17  -0.138   0.183   0.014
    1UNL    C13   18  -0.276   0.137   0.024
    1UNL    C14   19  -0.400   0.202   0.006
    1UNL    C15   20  -0.514   0.130   0.012
    1UNL    C16   21  -0.514  -0.016   0.028
    1UNL    C17   22  -0.393  -0.083   0.034
    1UNL    C18   23  -0.278  -0.001   0.033
    1UNL    C19   24  -0.141  -0.043   0.035
    1UNL    C20   25  -0.095  -0.184   0.059
    1UNL     H1   26   0.278  -0.370   0.127
    1UNL     H2   27   0.382  -0.270   0.234
    1UNL     H3   28   0.431  -0.353   0.083
    1UNL     H4   29   0.387  -0.084   0.074
    1UNL     H5   30   0.144  -0.350  -0.095
    1UNL     H6   31   0.107  -0.335   0.083
    1UNL     H7   32  -0.017  -0.257  -0.272
    1UNL     H8   33  -0.117  -0.128  -0.183
    1UNL     H9   34   0.049   0.028  -0.253
    1UNL    H10   35   0.155  -0.085  -0.289
    1UNL    H11   36   0.255   0.016  -0.096
    1UNL    H12   37   0.257   0.084   0.148
    1UNL    H13   38   0.127  -0.034   0.187
    1UNL    H14   39   0.106   0.255   0.211
    1UNL    H15   40   0.105   0.530  -0.022
    1UNL    H16   41   0.208   0.436  -0.120
    1UNL    H17   42   0.040   0.450  -0.157
    1UNL    H18   43  -0.111   0.260   0.071
    1UNL    H19   44  -0.395   0.312   0.008
    1UNL    H20   45  -0.607   0.190  -0.001
    1UNL    H21   46  -0.610  -0.068   0.029
    1UNL    H22   47  -0.384  -0.187   0.039
    1UNL    H23   48  -0.034  -0.187   0.157
    1UNL    H24   49  -0.184  -0.240   0.085
   0.00000   0.00000   0.00000   0.00000   0.00000   0.00000   0.00000   0.00000   0.00000
Generated with MDTraj, t= 69.0
 49
    1UNL     C1    1   0.363  -0.288   0.143
    1UNL     C2    2   0.311  -0.165   0.078
    1UNL     C3    3   0.202  -0.162   0.001
    1UNL     C4    4   0.124  -0.289  -0.031
    1UNL     N1    5  -0.024  -0.256  -0.066
    1UNL     C5    6  -0.031  -0.168  -0.191
    1UNL     C6    7   0.083  -0.063  -0.209
    1UNL     C7    8   0.163  -0.036  -0.076
    1UNL     C8    9   0.092   0.069   0.017
    1UNL     C9   10   0.160   0.079   0.155
    1UNL     O1   11   0.113   0.191   0.226
    1UNL    C10   12   0.115   0.202  -0.057
    1UNL     O2   13   0.178   0.199  -0.161
    1UNL     O3   14   0.063   0.314   0.002
    1UNL    C11   15   0.090   0.430  -0.068
    1UNL    C12   16  -0.055   0.054   0.024
    1UNL     N2   17  -0.144   0.162   0.008
    1UNL    C13   18  -0.272   0.131   0.016
    1UNL    C14   19  -0.389   0.209  -0.006
    1UNL    C15   20  -0.513   0.152   0.021
    1UNL    C16   21  -0.515   0.007   0.035
    1UNL    C17   22  -0.401  -0.064   0.032
    1UNL    C18   23  -0.273  -0.009   0.024
    1UNL    C19   24  -0.138  -0.057   0.034
    1UNL    C20   25  -0.099  -0.200   0.049
    1UNL     H1   26   0.462  -0.309   0.102
    1UNL     H2   27   0.291  -0.371   0.141
    1UNL     H3   28   0.376  -0.272   0.248
    1UNL     H4   29   0.376  -0.082   0.087
    1UNL     H5   30   0.172  -0.336  -0.114
    1UNL     H6   31   0.115  -0.355   0.054
    1UNL     H7   32  -0.019  -0.240  -0.280
    1UNL     H8   33  -0.134  -0.121  -0.194
    1UNL     H9   34   0.032   0.029  -0.247
    1UNL    H10   35   0.139  -0.067  -0.301
    1UNL    H11   36   0.251   0.020  -0.109
    1UNL    H12   37   0.266   0.093   0.134
    1UNL    H13   38   0.152  -0.019   0.212
    1UNL    H14   39   0.025   0.216   0.185
    1UNL    H15   40   0.035   0.508  -0.028
    1UNL    H16   41   0.191   0.454  -0.061
    1UNL    H17   42   0.062   0.421  -0.169
    1UNL    H18   43  -0.115   0.248  -0.029
    1UNL    H19   44  -0.366   0.315  -0.021
    1UNL    H20   45  -0.596   0.210   0.052
    1UNL    H21   46  -0.609  -0.039   0.057
    1UNL    H22   47  -0.405  -0.173   0.054
    1UNL    H23   48  -0.045  -0.213   0.148
    1UNL    H24   49  -0.188  -0.261   0.066
   0.00000   0.00000   0.00000   0.00000   0.00000   0.00000   0.00000   0.00000   0.00000
Generated with MDTraj, t= 70.0
 49
    1UNL     C1    1   0.361  -0.295   0.137
    1UNL     C2    2   0.318  -0.178   0.062
    1UNL     C3    3   0.205  -0.169  -0.004
    1UNL     C4    4   0.113  -0.282  -0.010
    1UNL     N1    5  -0.017  -0.246  -0.068
    1UNL     C5    6  -0.018  -0.189  -0.204
    1UNL     C6    7   0.077  -0.073  -0.206
    1UNL     C7    8   0.153  -0.043  -0.072
    1UNL     C8    9   0.094   0.078   0.008
    1UNL     C9   10   0.148   0.080   0.154
    1UNL     O1   11   0.082   0.167   0.238
    1UNL    C10   12   0.124   0.212  -0.059
    1UNL     O2   13   0.193   0.208  -0.159
    1UNL     O3   14   0.081   0.332  -0.004
    1UNL    C11   15   0.115   0.442  -0.083
    1UNL    C12   16  -0.061   0.069   0.011
    1UNL     N2   17  -0.145   0.177  -0.008
    1UNL    C13   18  -0.275   0.136   0.033
    1UNL    C14   19  -0.402   0.201   0.014
    1UNL    C15   20  -0.518   0.131   0.015
    1UNL    C16   21  -0.512  -0.010   0.039
    1UNL    C17   22  -0.392  -0.076   0.058
    1UNL    C18   23  -0.275   0.000   0.046
    1UNL    C19   24  -0.140  -0.040   0.038
    1UNL    C20   25  -0.108  -0.185   0.037
    1UNL     H1   26   0.363  -0.271   0.246
    1UNL     H2   27   0.457  -0.341   0.107
    1UNL     H3   28   0.298  -0.374   0.121
    1UNL     H4   29   0.388  -0.093   0.065
    1UNL     H5   30   0.150  -0.354  -0.079
    1UNL     H6   31   0.093  -0.325   0.087
    1UNL     H7   32   0.012  -0.275  -0.274
    1UNL     H8   33  -0.118  -0.144  -0.226
    1UNL     H9   34   0.039   0.014  -0.265
    1UNL    H10   35   0.150  -0.103  -0.281
    1UNL    H11   36   0.242   0.011  -0.108
    1UNL    H12   37   0.255   0.092   0.151
    1UNL    H13   38   0.130  -0.023   0.197
    1UNL    H14   39   0.054   0.244   0.184
    1UNL    H15   40   0.075   0.533  -0.041
    1UNL    H16   41   0.221   0.455  -0.085
    1UNL    H17   42   0.078   0.433  -0.181
    1UNL    H18   43  -0.121   0.276   0.002
    1UNL    H19   44  -0.403   0.296  -0.028
    1UNL    H20   45  -0.618   0.176   0.004
    1UNL    H21   46  -0.600  -0.072   0.030
    1UNL    H22   47  -0.380  -0.182   0.062
    1UNL    H23   48  -0.077  -0.218   0.141
    1UNL    H24   49  -0.200  -0.246   0.035
   0.00000   0.00000   0.00000   0.00000   0.00000   0.00000   0.00000   0.00000   0.00000
Generated with MDTraj, t= 71.0
 49
    1UNL     C1    1   0.397  -0.274   0.132
    1UNL     C2    2   0.324  -0.163   0.059
    1UNL     C3    3   0.207  -0.160  -0.005
    1UNL     C4    4   0.128  -0.286  -0.021
    1UNL     N1    5  -0.013  -0.255  -0.057
    1UNL     C5    6  -0.032  -0.193  -0.188
    1UNL     C6    7   0.083  -0.091  -0.216
    1UNL     C7    8   0.155  -0.040  -0.084
    1UNL     C8    9   0.079   0.070   0.008
    1UNL     C9   10   0.125   0.082   0.152
    1UNL     O1   11   0.047   0.163   0.238
    1UNL    C10   12   0.122   0.205  -0.056
    1UNL     O2   13   0.195   0.195  -0.155
    1UNL     O3   14   0.082   0.325  -0.001
    1UNL    C11   15   0.146   0.434  -0.061
    1UNL    C12   16  -0.067   0.062   0.001
    1UNL     N2   17  -0.150   0.171  -0.023
    1UNL    C13   18  -0.280   0.138  -0.003
    1UNL    C14   19  -0.391   0.214   0.023
    1UNL    C15   20  -0.513   0.148   0.049
    1UNL    C16   21  -0.524   0.008   0.049
    1UNL    C17   22  -0.410  -0.073   0.048
    1UNL    C18   23  -0.285  -0.006   0.023
    1UNL    C19   24  -0.145  -0.045   0.035
    1UNL    C20   25  -0.086  -0.183   0.053
    1UNL     H1   26   0.335  -0.365   0.122
    1UNL     H2   27   0.415  -0.267   0.241
    1UNL     H3   28   0.491  -0.291   0.088
    1UNL     H4   29   0.382  -0.075   0.056
    1UNL     H5   30   0.167  -0.350  -0.095
    1UNL     H6   31   0.122  -0.337   0.073
    1UNL     H7   32  -0.017  -0.273  -0.267
    1UNL     H8   33  -0.137  -0.157  -0.187
    1UNL     H9   34   0.036  -0.002  -0.264
    1UNL    H10   35   0.155  -0.118  -0.294
    1UNL    H11   36   0.244   0.019  -0.109
    1UNL    H12   37   0.220   0.128   0.145
    1UNL    H13   38   0.143  -0.020   0.192
    1UNL    H14   39  -0.024   0.197   0.178
    1UNL    H15   40   0.137   0.531  -0.001
    1UNL    H16   41   0.255   0.410  -0.068
    1UNL    H17   42   0.108   0.453  -0.160
    1UNL    H18   43  -0.103   0.253  -0.075
    1UNL    H19   44  -0.384   0.325   0.028
    1UNL    H20   45  -0.599   0.206   0.067
    1UNL    H21   46  -0.619  -0.041   0.042
    1UNL    H22   47  -0.427  -0.178   0.039
    1UNL    H23   48  -0.018  -0.185   0.142
    1UNL    H24   49  -0.163  -0.253   0.094
   0.00000   0.00000   0.00000   0.00000   0.00000   0.00000   0.00000   0.00000   0.00000
Generated with MDTraj, t= 72.0
 49
    1UNL     C1    1   0.383  -0.274   0.135
    1UNL     C2    2   0.334  -0.160   0.042
    1UNL     C3    3   0.214  -0.158  -0.013
    1UNL     C4    4   0.112  -0.255   0.028
    1UNL     N1    5  -0.007  -0.247  -0.050
    1UNL     C5    6  -0.009  -0.219  -0.199
    1UNL     C6    7   0.070  -0.092  -0.220
    1UNL     C7    8   0.161  -0.043  -0.101
    1UNL     C8    9   0.083   0.066  -0.010
    1UNL     C9   10   0.134   0.071   0.142
    1UNL     O1   11   0.047   0.143   0.231
    1UNL    C10   12   0.127   0.202  -0.061
    1UNL     O2   13   0.189   0.211  -0.166
    1UNL     O3   14   0.092   0.310   0.017
    1UNL    C11   15   0.120   0.438  -0.030
    1UNL    C12   16  -0.069   0.058  -0.020
    1UNL     N2   17  -0.148   0.169  -0.017
    1UNL    C13   18  -0.283   0.141  -0.001
    1UNL    C14   19  -0.397   0.220  -0.001
    1UNL    C15   20  -0.507   0.148   0.032
    1UNL    C16   21  -0.507   0.014   0.069
    1UNL    C17   22  -0.391  -0.059   0.077
    1UNL    C18   23  -0.277   0.006   0.034
    1UNL    C19   24  -0.142  -0.045   0.029
    1UNL    C20   25  -0.118  -0.192   0.038
    1UNL     H1   26   0.465  -0.319   0.079
    1UNL     H2   27   0.314  -0.353   0.144
    1UNL     H3   28   0.420  -0.235   0.234
    1UNL     H4   29   0.401  -0.076   0.022
    1UNL     H5   30   0.150  -0.351   0.007
    1UNL     H6   31   0.084  -0.248   0.131
    1UNL     H7   32   0.038  -0.309  -0.247
    1UNL     H8   33  -0.109  -0.202  -0.238
    1UNL     H9   34   0.015  -0.005  -0.260
    1UNL    H10   35   0.143  -0.113  -0.300
    1UNL    H11   36   0.248   0.015  -0.133
    1UNL    H12   37   0.234   0.103   0.140
    1UNL    H13   38   0.146  -0.030   0.184
    1UNL    H14   39  -0.024   0.175   0.170
    1UNL    H15   40   0.046   0.518   0.014
    1UNL    H16   41   0.225   0.469   0.006
    1UNL    H17   42   0.113   0.439  -0.141
    1UNL    H18   43  -0.114   0.266  -0.045
    1UNL    H19   44  -0.409   0.324  -0.003
    1UNL    H20   45  -0.605   0.201   0.038
    1UNL    H21   46  -0.602  -0.036   0.084
    1UNL    H22   47  -0.384  -0.165   0.115
    1UNL    H23   48  -0.126  -0.235   0.141
    1UNL    H24   49  -0.211  -0.242  -0.004
   0.00000   0.00000   0.00000   0.00000   0.00000   0.00000   0.00000   0.00000   0.00000
Generated with MDTraj, t= 73.0
 49
    1UNL     C1    1   0.409  -0.261   0.116
    1UNL     C2    2   0.348  -0.157   0.024
    1UNL     C3    3   0.222  -0.153  -0.011
    1UNL     C4    4   0.121  -0.251   0.040
    1UNL     N1    5  -0.002  -0.258  -0.046
    1UNL     C5    6   0.013  -0.231  -0.189
    1UNL     C6    7   0.069  -0.092  -0.214
    1UNL     C7    8   0.155  -0.041  -0.086
    1UNL     C8    9   0.076   0.064   0.003
    1UNL     C9   10   0.122   0.054   0.151
    1UNL     O1   11   0.078   0.151   0.240
    1UNL    C10   12   0.111   0.202  -0.055
    1UNL     O2   13   0.166   0.208  -0.163
    1UNL     O3   14   0.076   0.312   0.015
    1UNL    C11   15   0.116   0.433  -0.034
    1UNL    C12   16  -0.069   0.050  -0.003
    1UNL     N2   17  -0.138   0.165  -0.006
    1UNL    C13   18  -0.270   0.136  -0.004
    1UNL    C14   19  -0.382   0.218  -0.006
    1UNL    C15   20  -0.505   0.175   0.034
    1UNL    C16   21  -0.521   0.045   0.075
    1UNL    C17   22  -0.424  -0.049   0.064
    1UNL    C18   23  -0.290  -0.007   0.009
    1UNL    C19   24  -0.156  -0.060   0.004
    1UNL    C20   25  -0.126  -0.204   0.016
    1UNL     H1   26   0.500  -0.223   0.162
    1UNL     H2   27   0.446  -0.339   0.058
    1UNL     H3   28   0.343  -0.292   0.204
    1UNL     H4   29   0.406  -0.075  -0.010
    1UNL     H5   30   0.165  -0.347   0.044
    1UNL     H6   31   0.091  -0.225   0.138
    1UNL     H7   32   0.095  -0.296  -0.227
    1UNL     H8   33  -0.082  -0.251  -0.236
    1UNL     H9   34  -0.009  -0.019  -0.227
    1UNL    H10   35   0.132  -0.090  -0.307
    1UNL    H11   36   0.242   0.019  -0.116
    1UNL    H12   37   0.226   0.038   0.158
    1UNL    H13   38   0.086  -0.040   0.196
    1UNL    H14   39   0.061   0.234   0.192
    1UNL    H15   40   0.094   0.512   0.048
    1UNL    H16   41   0.228   0.430  -0.052
    1UNL    H17   42   0.055   0.451  -0.126
    1UNL    H18   43  -0.091   0.252  -0.025
    1UNL    H19   44  -0.362   0.326  -0.018
    1UNL    H20   45  -0.589   0.238   0.040
    1UNL    H21   46  -0.619   0.018   0.106
    1UNL    H22   47  -0.436  -0.144   0.100
    1UNL    H23   48  -0.129  -0.226   0.124
    1UNL    H24   49  -0.224  -0.257  -0.011
   0.00000   0.00000   0.00000   0.00000   0.00000   0.00000   0.00000   0.00000   0.00000
Generated with MDTraj, t= 74.0
 49
    1UNL     C1    1   0.423  -0.281   0.089
    1UNL     C2    2   0.341  -0.170   0.021
    1UNL     C3    3   0.211  -0.164  -0.001
    1UNL     C4    4   0.109  -0.275   0.038
    1UNL     N1    5  -0.021  -0.256  -0.033
    1UNL     C5    6  -0.010  -0.214  -0.174
    1UNL     C6    7   0.073  -0.088  -0.199
    1UNL     C7    8   0.158  -0.043  -0.078
    1UNL     C8    9   0.091   0.068   0.006
    1UNL     C9   10   0.135   0.067   0.157
    1UNL     O1   11   0.070   0.157   0.241
    1UNL    C10   12   0.129   0.206  -0.063
    1UNL     O2   13   0.167   0.208  -0.179
    1UNL     O3   14   0.102   0.322   0.014
    1UNL    C11   15   0.125   0.447  -0.056
    1UNL    C12   16  -0.066   0.063   0.003
    1UNL     N2   17  -0.145   0.173   0.011
    1UNL    C13   18  -0.280   0.135   0.026
    1UNL    C14   19  -0.402   0.213   0.026
    1UNL    C15   20  -0.521   0.152   0.034
    1UNL    C16   21  -0.525   0.013   0.023
    1UNL    C17   22  -0.414  -0.060   0.016
    1UNL    C18   23  -0.287  -0.002   0.011
    1UNL    C19   24  -0.149  -0.049   0.003
    1UNL    C20   25  -0.117  -0.179   0.051
    1UNL     H1   26   0.493  -0.246   0.164
    1UNL     H2   27   0.484  -0.330   0.017
    1UNL     H3   28   0.356  -0.350   0.147
    1UNL     H4   29   0.398  -0.081  -0.009
    1UNL     H5   30   0.142  -0.367  -0.002
    1UNL     H6   31   0.100  -0.290   0.143
    1UNL     H7   32   0.043  -0.295  -0.224
    1UNL     H8   33  -0.110  -0.205  -0.214
    1UNL     H9   34   0.004  -0.007  -0.221
    1UNL    H10   35   0.145  -0.104  -0.285
    1UNL    H11   36   0.251   0.004  -0.117
    1UNL    H12   37   0.237   0.092   0.169
    1UNL    H13   38   0.132  -0.034   0.202
    1UNL    H14   39   0.049   0.239   0.192
    1UNL    H15   40   0.128   0.534   0.011
    1UNL    H16   41   0.223   0.430  -0.100
    1UNL    H17   42   0.046   0.451  -0.133
    1UNL    H18   43  -0.116   0.266   0.017
    1UNL    H19   44  -0.407   0.319   0.017
    1UNL    H20   45  -0.614   0.210   0.046
    1UNL    H21   46  -0.624  -0.029   0.006
    1UNL    H22   47  -0.421  -0.171  -0.003
    1UNL    H23   48  -0.088  -0.163   0.156
    1UNL    H24   49  -0.213  -0.240   0.074
   0.00000   0.00000   0.00000   0.00000   0.00000   0.00000   0.00000   0.00000   0.00000
Generated with MDTraj, t= 75.0
 49
    1UNL     C1    1   0.396  -0.283   0.078
    1UNL     C2    2   0.329  -0.165   0.020
    1UNL     C3    3   0.201  -0.169  -0.009
    1UNL     C4    4   0.105  -0.286   0.012
    1UNL     N1    5  -0.030  -0.255  -0.034
    1UNL     C5    6  -0.024  -0.194  -0.170
    1UNL     C6    7   0.058  -0.065  -0.193
    1UNL     C7    8   0.155  -0.039  -0.075
    1UNL     C8    9   0.091   0.073   0.013
    1UNL     C9   10   0.148   0.082   0.155
    1UNL     O1   11   0.092   0.168   0.256
    1UNL    C10   12   0.116   0.211  -0.063
    1UNL     O2   13   0.159   0.205  -0.175
    1UNL     O3   14   0.094   0.324   0.008
    1UNL    C11   15   0.145   0.437  -0.057
    1UNL    C12   16  -0.061   0.059   0.021
    1UNL     N2   17  -0.147   0.169   0.000
    1UNL    C13   18  -0.279   0.139   0.029
    1UNL    C14   19  -0.397   0.212   0.010
    1UNL    C15   20  -0.510   0.134  -0.010
    1UNL    C16   21  -0.515  -0.002  -0.002
    1UNL    C17   22  -0.404  -0.074   0.022
    1UNL    C18   23  -0.282  -0.005   0.038
    1UNL    C19   24  -0.145  -0.048   0.046
    1UNL    C20   25  -0.103  -0.187   0.077
    1UNL     H1   26   0.503  -0.275   0.088
    1UNL     H2   27   0.380  -0.367   0.007
    1UNL     H3   28   0.354  -0.293   0.178
    1UNL     H4   29   0.388  -0.077   0.011
    1UNL     H5   30   0.141  -0.370  -0.040
    1UNL     H6   31   0.089  -0.320   0.111
    1UNL     H7   32   0.022  -0.272  -0.228
    1UNL     H8   33  -0.124  -0.183  -0.203
    1UNL     H9   34  -0.009   0.020  -0.192
    1UNL    H10   35   0.107  -0.064  -0.297
    1UNL    H11   36   0.245   0.004  -0.125
    1UNL    H12   37   0.252   0.104   0.147
    1UNL    H13   38   0.143  -0.019   0.201
    1UNL    H14   39   0.060   0.247   0.203
    1UNL    H15   40   0.116   0.521  -0.003
    1UNL    H16   41   0.249   0.430  -0.049
    1UNL    H17   42   0.105   0.434  -0.157
    1UNL    H18   43  -0.117   0.261  -0.028
    1UNL    H19   44  -0.393   0.320   0.009
    1UNL    H20   45  -0.604   0.183  -0.019
    1UNL    H21   46  -0.606  -0.059  -0.014
    1UNL    H22   47  -0.409  -0.180   0.017
    1UNL    H23   48  -0.050  -0.179   0.171
    1UNL    H24   49  -0.197  -0.244   0.110
   0.00000   0.00000   0.00000   0.00000   0.00000   0.00000   0.00000   0.00000   0.00000
Generated with MDTraj, t= 76.0
 49
    1UNL     C1    1   0.390  -0.273   0.087
    1UNL     C2    2   0.317  -0.167   0.016
    1UNL     C3    3   0.192  -0.163  -0.018
    1UNL     C4    4   0.109  -0.284  -0.005
    1UNL     N1    5  -0.030  -0.249  -0.031
    1UNL     C5    6  -0.047  -0.180  -0.168
    1UNL     C6    7   0.051  -0.063  -0.203
    1UNL     C7    8   0.143  -0.031  -0.083
    1UNL     C8    9   0.086   0.074   0.022
    1UNL     C9   10   0.160   0.064   0.156
    1UNL     O1   11   0.139   0.172   0.250
    1UNL    C10   12   0.113   0.209  -0.048
    1UNL     O2   13   0.167   0.214  -0.156
    1UNL     O3   14   0.079   0.315   0.026
    1UNL    C11   15   0.117   0.432  -0.040
    1UNL    C12   16  -0.062   0.060   0.027
    1UNL     N2   17  -0.138   0.163  -0.017
    1UNL    C13   18  -0.272   0.126  -0.010
    1UNL    C14   19  -0.385   0.197  -0.051
    1UNL    C15   20  -0.504   0.129  -0.040
    1UNL    C16   21  -0.518   0.002   0.020
    1UNL    C17   22  -0.406  -0.067   0.064
    1UNL    C18   23  -0.281  -0.005   0.041
    1UNL    C19   24  -0.140  -0.049   0.060
    1UNL    C20   25  -0.094  -0.186   0.090
    1UNL     H1   26   0.455  -0.335   0.025
    1UNL     H2   27   0.319  -0.350   0.132
    1UNL     H3   28   0.450  -0.228   0.160
    1UNL     H4   29   0.379  -0.079  -0.001
    1UNL     H5   30   0.130  -0.352  -0.084
    1UNL     H6   31   0.120  -0.334   0.087
    1UNL     H7   32  -0.037  -0.254  -0.243
    1UNL     H8   33  -0.151  -0.160  -0.167
    1UNL     H9   34   0.001   0.029  -0.232
    1UNL    H10   35   0.114  -0.096  -0.293
    1UNL    H11   36   0.235   0.011  -0.133
    1UNL    H12   37   0.266   0.045   0.150
    1UNL    H13   38   0.115  -0.028   0.201
    1UNL    H14   39   0.147   0.253   0.200
    1UNL    H15   40   0.091   0.506   0.028
    1UNL    H16   41   0.220   0.433  -0.048
    1UNL    H17   42   0.058   0.438  -0.130
    1UNL    H18   43  -0.104   0.265  -0.033
    1UNL    H19   44  -0.385   0.301  -0.084
    1UNL    H20   45  -0.596   0.180  -0.065
    1UNL    H21   46  -0.617  -0.038   0.030
    1UNL    H22   47  -0.414  -0.166   0.104
    1UNL    H23   48  -0.034  -0.188   0.180
    1UNL    H24   49  -0.184  -0.250   0.126
   0.00000   0.00000   0.00000   0.00000   0.00000   0.00000   0.00000   0.00000   0.00000
Generated with MDTraj, t= 77.0
 49
    1UNL     C1    1   0.375  -0.288   0.079
    1UNL     C2    2   0.328  -0.167   0.011
    1UNL     C3    3   0.202  -0.157  -0.024
    1UNL     C4    4   0.109  -0.275  -0.001
    1UNL     N1    5  -0.033  -0.238  -0.018
    1UNL     C5    6  -0.068  -0.184  -0.155
    1UNL     C6    7   0.046  -0.086  -0.198
    1UNL     C7    8   0.143  -0.032  -0.090
    1UNL     C8    9   0.088   0.077   0.004
    1UNL     C9   10   0.164   0.057   0.137
    1UNL     O1   11   0.102   0.128   0.239
    1UNL    C10   12   0.138   0.216  -0.045
    1UNL     O2   13   0.208   0.234  -0.143
    1UNL     O3   14   0.077   0.310   0.033
    1UNL    C11   15   0.098   0.438  -0.033
    1UNL    C12   16  -0.060   0.078   0.020
    1UNL     N2   17  -0.152   0.178  -0.014
    1UNL    C13   18  -0.276   0.126  -0.024
    1UNL    C14   19  -0.396   0.183  -0.065
    1UNL    C15   20  -0.513   0.116  -0.046
    1UNL    C16   21  -0.509  -0.007   0.025
    1UNL    C17   22  -0.392  -0.059   0.073
    1UNL    C18   23  -0.269  -0.001   0.040
    1UNL    C19   24  -0.132  -0.029   0.066
    1UNL    C20   25  -0.080  -0.164   0.106
    1UNL     H1   26   0.298  -0.368   0.093
    1UNL     H2   27   0.399  -0.264   0.186
    1UNL     H3   28   0.460  -0.328   0.035
    1UNL     H4   29   0.399  -0.088  -0.004
    1UNL     H5   30   0.140  -0.350  -0.070
    1UNL     H6   31   0.113  -0.311   0.099
    1UNL     H7   32  -0.078  -0.275  -0.207
    1UNL     H8   33  -0.164  -0.140  -0.163
    1UNL     H9   34  -0.001   0.001  -0.246
    1UNL    H10   35   0.105  -0.141  -0.277
    1UNL    H11   36   0.235   0.005  -0.142
    1UNL    H12   37   0.270   0.084   0.121
    1UNL    H13   38   0.164  -0.050   0.173
    1UNL    H14   39   0.103   0.227   0.219
    1UNL    H15   40   0.067   0.520   0.026
    1UNL    H16   41   0.202   0.451  -0.052
    1UNL    H17   42   0.036   0.434  -0.126
    1UNL    H18   43  -0.113   0.272  -0.051
    1UNL    H19   44  -0.396   0.282  -0.101
    1UNL    H20   45  -0.605   0.158  -0.085
    1UNL    H21   46  -0.600  -0.068   0.039
    1UNL    H22   47  -0.389  -0.151   0.138
    1UNL    H23   48  -0.007  -0.149   0.186
    1UNL    H24   49  -0.158  -0.224   0.165
   0.00000   0.00000   0.00000   0.00000   0.00000   0.00000   0.00000   0.00000   0.00000
Generated with MDTraj, t= 78.0
 49
    1UNL     C1    1   0.415  -0.284   0.045
    1UNL     C2    2   0.339  -0.161  -0.002
    1UNL     C3    3   0.207  -0.152  -0.013
    1UNL     C4    4   0.119  -0.267   0.013
    1UNL     N1    5  -0.027  -0.249  -0.016
    1UNL     C5    6  -0.055  -0.191  -0.151
    1UNL     C6    7   0.033  -0.070  -0.188
    1UNL     C7    8   0.140  -0.032  -0.085
    1UNL     C8    9   0.087   0.073   0.010
    1UNL     C9   10   0.138   0.063   0.159
    1UNL     O1   11   0.061   0.151   0.237
    1UNL    C10   12   0.135   0.209  -0.043
    1UNL     O2   13   0.216   0.218  -0.133
    1UNL     O3   14   0.066   0.318   0.004
    1UNL    C11   15   0.144   0.425  -0.031
    1UNL    C12   16  -0.066   0.068   0.022
    1UNL     N2   17  -0.140   0.167  -0.033
    1UNL    C13   18  -0.271   0.128  -0.018
    1UNL    C14   19  -0.391   0.191  -0.046
    1UNL    C15   20  -0.512   0.129  -0.031
    1UNL    C16   21  -0.519  -0.003   0.026
    1UNL    C17   22  -0.402  -0.066   0.063
    1UNL    C18   23  -0.278   0.001   0.039
    1UNL    C19   24  -0.144  -0.038   0.070
    1UNL    C20   25  -0.100  -0.180   0.097
    1UNL     H1   26   0.352  -0.342   0.117
    1UNL     H2   27   0.503  -0.253   0.100
    1UNL     H3   28   0.445  -0.342  -0.044
    1UNL     H4   29   0.393  -0.081  -0.050
    1UNL     H5   30   0.151  -0.345  -0.051
    1UNL     H6   31   0.135  -0.297   0.115
    1UNL     H7   32  -0.059  -0.259  -0.231
    1UNL     H8   33  -0.159  -0.177  -0.135
    1UNL     H9   34  -0.035   0.016  -0.203
    1UNL    H10   35   0.075  -0.099  -0.289
    1UNL    H11   36   0.229   0.011  -0.137
    1UNL    H12   37   0.243   0.099   0.172
    1UNL    H13   38   0.123  -0.045   0.194
    1UNL    H14   39   0.043   0.229   0.183
    1UNL    H15   40   0.085   0.514   0.000
    1UNL    H16   41   0.240   0.425   0.025
    1UNL    H17   42   0.155   0.427  -0.146
    1UNL    H18   43  -0.110   0.269  -0.053
    1UNL    H19   44  -0.376   0.291  -0.092
    1UNL    H20   45  -0.604   0.170  -0.064
    1UNL    H21   46  -0.609  -0.055   0.034
    1UNL    H22   47  -0.398  -0.155   0.111
    1UNL    H23   48  -0.027  -0.183   0.181
    1UNL    H24   49  -0.182  -0.244   0.143
   0.00000   0.00000   0.00000   0.00000   0.00000   0.00000   0.00000   0.00000   0.00000
Generated with MDTraj, t= 79.0
 49
    1UNL     C1    1   0.435  -0.271   0.041
    1UNL     C2    2   0.341  -0.170  -0.018
    1UNL     C3    3   0.208  -0.162  -0.011
    1UNL     C4    4   0.117  -0.264   0.059
    1UNL     N1    5  -0.013  -0.252  -0.008
    1UNL     C5    6  -0.011  -0.232  -0.157
    1UNL     C6    7   0.047  -0.092  -0.189
    1UNL     C7    8   0.146  -0.044  -0.083
    1UNL     C8    9   0.086   0.072   0.007
    1UNL     C9   10   0.140   0.052   0.159
    1UNL     O1   11   0.109   0.158   0.242
    1UNL    C10   12   0.130   0.217  -0.036
    1UNL     O2   13   0.220   0.221  -0.117
    1UNL     O3   14   0.068   0.327   0.013
    1UNL    C11   15   0.139   0.435  -0.039
    1UNL    C12   16  -0.071   0.067  -0.000
    1UNL     N2   17  -0.159   0.176  -0.025
    1UNL    C13   18  -0.292   0.144  -0.006
    1UNL    C14   19  -0.415   0.214  -0.022
    1UNL    C15   20  -0.534   0.143  -0.004
    1UNL    C16   21  -0.529   0.001   0.023
    1UNL    C17   22  -0.410  -0.070   0.042
    1UNL    C18   23  -0.291   0.004   0.028
    1UNL    C19   24  -0.156  -0.041   0.026
    1UNL    C20   25  -0.122  -0.180   0.060
    1UNL     H1   26   0.463  -0.237   0.141
    1UNL     H2   27   0.526  -0.288  -0.012
    1UNL     H3   28   0.380  -0.372   0.047
    1UNL     H4   29   0.390  -0.097  -0.081
    1UNL     H5   30   0.153  -0.363   0.047
    1UNL     H6   31   0.106  -0.249   0.165
    1UNL     H7   32   0.037  -0.316  -0.196
    1UNL     H8   33  -0.108  -0.254  -0.193
    1UNL     H9   34  -0.045  -0.030  -0.194
    1UNL    H10   35   0.091  -0.088  -0.293
    1UNL    H11   36   0.236   0.001  -0.132
    1UNL    H12   37   0.252   0.047   0.147
    1UNL    H13   38   0.093  -0.038   0.214
    1UNL    H14   39   0.071   0.232   0.186
    1UNL    H15   40   0.082   0.530  -0.013
    1UNL    H16   41   0.249   0.442  -0.006
    1UNL    H17   42   0.136   0.429  -0.155
    1UNL    H18   43  -0.122   0.261  -0.059
    1UNL    H19   44  -0.417   0.313  -0.058
    1UNL    H20   45  -0.628   0.202  -0.015
    1UNL    H21   46  -0.627  -0.050   0.036
    1UNL    H22   47  -0.400  -0.178   0.069
    1UNL    H23   48  -0.120  -0.195   0.173
    1UNL    H24   49  -0.212  -0.241   0.032
   0.00000   0.00000   0.00000   0.00000   0.00000   0.00000   0.00000   0.00000   0.00000
Generated with MDTraj, t= 80.0
 49
    1UNL     C1    1   0.419  -0.267   0.076
    1UNL     C2    2   0.349  -0.166  -0.006
    1UNL     C3    3   0.218  -0.162  -0.021
    1UNL     C4    4   0.125  -0.259   0.041
    1UNL     N1    5  -0.013  -0.265  -0.018
    1UNL     C5    6  -0.007  -0.239  -0.167
    1UNL     C6    7   0.055  -0.096  -0.198
    1UNL     C7    8   0.149  -0.044  -0.089
    1UNL     C8    9   0.081   0.070   0.002
    1UNL     C9   10   0.143   0.077   0.142
    1UNL     O1   11   0.097   0.183   0.228
    1UNL    C10   12   0.120   0.209  -0.045
    1UNL     O2   13   0.221   0.219  -0.115
    1UNL     O3   14   0.053   0.314   0.015
    1UNL    C11   15   0.115   0.432  -0.042
    1UNL    C12   16  -0.072   0.050   0.010
    1UNL     N2   17  -0.147   0.164   0.002
    1UNL    C13   18  -0.279   0.135   0.016
    1UNL    C14   19  -0.388   0.220   0.011
    1UNL    C15   20  -0.516   0.163   0.009
    1UNL    C16   21  -0.539   0.021   0.016
    1UNL    C17   22  -0.421  -0.057   0.015
    1UNL    C18   23  -0.289  -0.002   0.020
    1UNL    C19   24  -0.154  -0.060   0.020
    1UNL    C20   25  -0.127  -0.202   0.057
    1UNL     H1   26   0.525  -0.264   0.058
    1UNL     H2   27   0.387  -0.371   0.063
    1UNL     H3   28   0.402  -0.249   0.188
    1UNL     H4   29   0.400  -0.084  -0.053
    1UNL     H5   30   0.166  -0.358   0.048
    1UNL     H6   31   0.116  -0.236   0.146
    1UNL     H7   32   0.046  -0.319  -0.205
    1UNL     H8   33  -0.103  -0.255  -0.209
    1UNL     H9   34  -0.029  -0.021  -0.211
    1UNL    H10   35   0.095  -0.115  -0.301
    1UNL    H11   36   0.225   0.016  -0.143
    1UNL    H12   37   0.251   0.102   0.136
    1UNL    H13   38   0.119  -0.023   0.190
    1UNL    H14   39   0.023   0.228   0.181
    1UNL    H15   40   0.111   0.522   0.028
    1UNL    H16   41   0.222   0.417  -0.076
    1UNL    H17   42   0.062   0.464  -0.135
    1UNL    H18   43  -0.122   0.259  -0.002
    1UNL    H19   44  -0.372   0.327  -0.006
    1UNL    H20   45  -0.599   0.224  -0.001
    1UNL    H21   46  -0.630  -0.029   0.035
    1UNL    H22   47  -0.435  -0.164   0.013
    1UNL    H23   48  -0.114  -0.206   0.172
    1UNL    H24   49  -0.217  -0.264   0.039
   0.00000   0.00000   0.00000   0.00000   0.00000   0.00000   0.00000   0.00000   0.00000
Generated with MDTraj, t= 81.0
 49
    1UNL     C1    1   0.393  -0.277   0.108
    1UNL     C2    2   0.340  -0.155   0.039
    1UNL     C3    3   0.214  -0.144  -0.007
    1UNL     C4    4   0.123  -0.260   0.014
    1UNL     N1    5  -0.015  -0.245  -0.045
    1UNL     C5    6  -0.014  -0.204  -0.189
    1UNL     C6    7   0.064  -0.073  -0.207
    1UNL     C7    8   0.151  -0.034  -0.085
    1UNL     C8    9   0.082   0.079   0.016
    1UNL     C9   10   0.134   0.059   0.160
    1UNL     O1   11   0.059   0.141   0.249
    1UNL    C10   12   0.124   0.206  -0.056
    1UNL     O2   13   0.187   0.200  -0.161
    1UNL     O3   14   0.082   0.315   0.003
    1UNL    C11   15   0.126   0.416  -0.083
    1UNL    C12   16  -0.067   0.067   0.015
    1UNL     N2   17  -0.143   0.181   0.016
    1UNL    C13   18  -0.275   0.139   0.018
    1UNL    C14   19  -0.397   0.214   0.014
    1UNL    C15   20  -0.517   0.144   0.016
    1UNL    C16   21  -0.514   0.002   0.026
    1UNL    C17   22  -0.396  -0.070   0.034
    1UNL    C18   23  -0.279  -0.002   0.031
    1UNL    C19   24  -0.149  -0.049   0.017
    1UNL    C20   25  -0.114  -0.189   0.049
    1UNL     H1   26   0.331  -0.364   0.091
    1UNL     H2   27   0.409  -0.264   0.218
    1UNL     H3   28   0.491  -0.304   0.062
    1UNL     H4   29   0.406  -0.070   0.025
    1UNL     H5   30   0.166  -0.342  -0.042
    1UNL     H6   31   0.122  -0.302   0.113
    1UNL     H7   32   0.029  -0.277  -0.247
    1UNL     H8   33  -0.115  -0.202  -0.222
    1UNL     H9   34  -0.015   0.006  -0.234
    1UNL    H10   35   0.140  -0.095  -0.287
    1UNL    H11   36   0.232   0.015  -0.141
    1UNL    H12   37   0.241   0.084   0.161
    1UNL    H13   38   0.110  -0.044   0.200
    1UNL    H14   39   0.076   0.238   0.226
    1UNL    H15   40   0.053   0.497  -0.076
    1UNL    H16   41   0.224   0.457  -0.061
    1UNL    H17   42   0.130   0.386  -0.185
    1UNL    H18   43  -0.102   0.267   0.032
    1UNL    H19   44  -0.390   0.321   0.006
    1UNL    H20   45  -0.614   0.200   0.010
    1UNL    H21   46  -0.609  -0.054   0.029
    1UNL    H22   47  -0.392  -0.174   0.040
    1UNL    H23   48  -0.068  -0.193   0.155
    1UNL    H24   49  -0.204  -0.253   0.054
   0.00000   0.00000   0.00000   0.00000   0.00000   0.00000   0.00000   0.00000   0.00000
Generated with MDTraj, t= 82.0
 49
    1UNL     C1    1   0.367  -0.284   0.145
    1UNL     C2    2   0.317  -0.163   0.081
    1UNL     C3    3   0.202  -0.164   0.011
    1UNL     C4    4   0.121  -0.283  -0.025
    1UNL     N1    5  -0.018  -0.246  -0.064
    1UNL     C5    6  -0.031  -0.181  -0.196
    1UNL     C6    7   0.088  -0.077  -0.218
    1UNL     C7    8   0.169  -0.044  -0.079
    1UNL     C8    9   0.091   0.077  -0.003
    1UNL     C9   10   0.144   0.087   0.145
    1UNL     O1   11   0.061   0.175   0.227
    1UNL    C10   12   0.120   0.210  -0.067
    1UNL     O2   13   0.146   0.222  -0.187
    1UNL     O3   14   0.087   0.307   0.022
    1UNL    C11   15   0.126   0.427  -0.035
    1UNL    C12   16  -0.061   0.063  -0.001
    1UNL     N2   17  -0.139   0.174  -0.004
    1UNL    C13   18  -0.271   0.124  -0.004
    1UNL    C14   19  -0.389   0.203   0.002
    1UNL    C15   20  -0.508   0.140   0.027
    1UNL    C16   21  -0.507   0.000   0.056
    1UNL    C17   22  -0.397  -0.075   0.054
    1UNL    C18   23  -0.274  -0.013   0.026
    1UNL    C19   24  -0.136  -0.049   0.027
    1UNL    C20   25  -0.096  -0.188   0.050
    1UNL     H1   26   0.389  -0.268   0.256
    1UNL     H2   27   0.461  -0.323   0.098
    1UNL     H3   28   0.295  -0.361   0.135
    1UNL     H4   29   0.369  -0.070   0.081
    1UNL     H5   30   0.173  -0.339  -0.103
    1UNL     H6   31   0.110  -0.352   0.058
    1UNL     H7   32  -0.044  -0.262  -0.260
    1UNL     H8   33  -0.124  -0.131  -0.211
    1UNL     H9   34   0.052   0.026  -0.252
    1UNL    H10   35   0.158  -0.127  -0.290
    1UNL    H11   36   0.262  -0.002  -0.115
    1UNL    H12   37   0.237   0.140   0.149
    1UNL    H13   38   0.146  -0.012   0.197
    1UNL    H14   39  -0.015   0.200   0.171
    1UNL    H15   40   0.119   0.499   0.043
    1UNL    H16   41   0.223   0.430  -0.077
    1UNL    H17   42   0.062   0.452  -0.111
    1UNL    H18   43  -0.110   0.265  -0.037
    1UNL    H19   44  -0.369   0.309   0.002
    1UNL    H20   45  -0.596   0.194   0.024
    1UNL    H21   46  -0.596  -0.045   0.093
    1UNL    H22   47  -0.398  -0.182   0.091
    1UNL    H23   48  -0.030  -0.191   0.145
    1UNL    H24   49  -0.183  -0.253   0.068
   0.00000   0.00000   0.00000   0.00000   0.00000   0.00000   0.00000   0.00000   0.00000
Generated with MDTraj, t= 83.0
 49
    1UNL     C1    1   0.334  -0.280   0.192
    1UNL     C2    2   0.309  -0.181   0.081
    1UNL     C3    3   0.207  -0.163  -0.011
    1UNL     C4    4   0.120  -0.283  -0.036
    1UNL     N1    5  -0.016  -0.237  -0.084
    1UNL     C5    6  -0.013  -0.158  -0.211
    1UNL     C6    7   0.098  -0.059  -0.221
    1UNL     C7    8   0.170  -0.029  -0.082
    1UNL     C8    9   0.091   0.080  -0.005
    1UNL     C9   10   0.143   0.073   0.146
    1UNL     O1   11   0.060   0.151   0.234
    1UNL    C10   12   0.123   0.218  -0.064
    1UNL     O2   13   0.158   0.227  -0.181
    1UNL     O3   14   0.111   0.327   0.016
    1UNL    C11   15   0.140   0.445  -0.069
    1UNL    C12   16  -0.063   0.052   0.006
    1UNL     N2   17  -0.151   0.158  -0.028
    1UNL    C13   18  -0.283   0.124  -0.000
    1UNL    C14   19  -0.400   0.196   0.002
    1UNL    C15   20  -0.511   0.126   0.030
    1UNL    C16   21  -0.519  -0.008   0.074
    1UNL    C17   22  -0.400  -0.076   0.080
    1UNL    C18   23  -0.276  -0.014   0.043
    1UNL    C19   24  -0.142  -0.062   0.037
    1UNL    C20   25  -0.086  -0.196   0.045
    1UNL     H1   26   0.402  -0.370   0.163
    1UNL     H2   27   0.245  -0.328   0.234
    1UNL     H3   28   0.369  -0.230   0.278
    1UNL     H4   29   0.369  -0.089   0.085
    1UNL     H5   30   0.166  -0.339  -0.118
    1UNL     H6   31   0.115  -0.347   0.051
    1UNL     H7   32  -0.019  -0.212  -0.300
    1UNL     H8   33  -0.109  -0.112  -0.222
    1UNL     H9   34   0.059   0.041  -0.261
    1UNL    H10   35   0.185  -0.099  -0.279
    1UNL    H11   36   0.265   0.021  -0.102
    1UNL    H12   37   0.240   0.110   0.161
    1UNL    H13   38   0.127  -0.026   0.192
    1UNL    H14   39   0.064   0.250   0.211
    1UNL    H15   40   0.195   0.520  -0.016
    1UNL    H16   41   0.191   0.420  -0.158
    1UNL    H17   42   0.053   0.487  -0.102
    1UNL    H18   43  -0.120   0.257  -0.027
    1UNL    H19   44  -0.402   0.298  -0.037
    1UNL    H20   45  -0.608   0.177   0.007
    1UNL    H21   46  -0.615  -0.052   0.104
    1UNL    H22   47  -0.398  -0.173   0.115
    1UNL    H23   48  -0.007  -0.193   0.129
    1UNL    H24   49  -0.164  -0.271   0.070
   0.00000   0.00000   0.00000   0.00000   0.00000   0.00000   0.00000   0.00000   0.00000
Generated with MDTraj, t= 84.0
 49
    1UNL     C1    1   0.350  -0.278   0.173
    1UNL     C2    2   0.293  -0.173   0.091
    1UNL     C3    3   0.193  -0.179  -0.002
    1UNL     C4    4   0.112  -0.298  -0.039
    1UNL     N1    5  -0.019  -0.243  -0.082
    1UNL     C5    6  -0.021  -0.170  -0.209
    1UNL     C6    7   0.094  -0.066  -0.216
    1UNL     C7    8   0.166  -0.043  -0.072
    1UNL     C8    9   0.089   0.084  -0.002
    1UNL     C9   10   0.125   0.089   0.151
    1UNL     O1   11   0.057   0.186   0.228
    1UNL    C10   12   0.125   0.216  -0.063
    1UNL     O2   13   0.152   0.217  -0.181
    1UNL     O3   14   0.106   0.327   0.014
    1UNL    C11   15   0.149   0.439  -0.056
    1UNL    C12   16  -0.059   0.060  -0.015
    1UNL     N2   17  -0.144   0.171  -0.011
    1UNL    C13   18  -0.274   0.125   0.009
    1UNL    C14   19  -0.397   0.196   0.021
    1UNL    C15   20  -0.512   0.123   0.045
    1UNL    C16   21  -0.508  -0.015   0.053
    1UNL    C17   22  -0.390  -0.088   0.059
    1UNL    C18   23  -0.267  -0.013   0.036
    1UNL    C19   24  -0.129  -0.054   0.019
    1UNL    C20   25  -0.081  -0.188   0.043
    1UNL     H1   26   0.295  -0.374   0.156
    1UNL     H2   27   0.348  -0.253   0.279
    1UNL     H3   28   0.455  -0.295   0.156
    1UNL     H4   29   0.336  -0.076   0.098
    1UNL     H5   30   0.163  -0.356  -0.120
    1UNL     H6   31   0.089  -0.356   0.049
    1UNL     H7   32  -0.011  -0.242  -0.286
    1UNL     H8   33  -0.116  -0.133  -0.238
    1UNL     H9   34   0.045   0.035  -0.239
    1UNL    H10   35   0.179  -0.088  -0.284
    1UNL    H11   36   0.265  -0.003  -0.093
    1UNL    H12   37   0.226   0.115   0.165
    1UNL    H13   38   0.093  -0.007   0.195
    1UNL    H14   39   0.054   0.268   0.180
    1UNL    H15   40   0.110   0.519   0.009
    1UNL    H16   41   0.259   0.444  -0.065
    1UNL    H17   42   0.101   0.443  -0.151
    1UNL    H18   43  -0.120   0.266  -0.036
    1UNL    H19   44  -0.411   0.298  -0.007
    1UNL    H20   45  -0.605   0.175   0.050
    1UNL    H21   46  -0.606  -0.056   0.070
    1UNL    H22   47  -0.393  -0.196   0.083
    1UNL    H23   48  -0.007  -0.198   0.130
    1UNL    H24   49  -0.171  -0.252   0.059
   0.00000   0.00000   0.00000   0.00000   0.00000   0.00000   0.00000   0.00000   0.00000
Generated with MDTraj, t= 85.0
 49
    1UNL     C1    1   0.371  -0.281   0.140
    1UNL     C2    2   0.314  -0.156   0.081
    1UNL     C3    3   0.207  -0.161  -0.003
    1UNL     C4    4   0.119  -0.277  -0.003
    1UNL     N1    5  -0.014  -0.247  -0.067
    1UNL     C5    6  -0.005  -0.180  -0.200
    1UNL     C6    7   0.104  -0.067  -0.211
    1UNL     C7    8   0.172  -0.038  -0.077
    1UNL     C8    9   0.088   0.070   0.008
    1UNL     C9   10   0.146   0.087   0.154
    1UNL     O1   11   0.067   0.171   0.236
    1UNL    C10   12   0.118   0.206  -0.072
    1UNL     O2   13   0.163   0.203  -0.185
    1UNL     O3   14   0.082   0.314   0.001
    1UNL    C11   15   0.141   0.428  -0.061
    1UNL    C12   16  -0.067   0.060   0.013
    1UNL     N2   17  -0.147   0.173   0.014
    1UNL    C13   18  -0.280   0.134   0.028
    1UNL    C14   19  -0.396   0.206   0.033
    1UNL    C15   20  -0.511   0.133   0.037
    1UNL    C16   21  -0.518  -0.004   0.039
    1UNL    C17   22  -0.407  -0.080   0.023
    1UNL    C18   23  -0.284  -0.010   0.021
    1UNL    C19   24  -0.151  -0.051   0.018
    1UNL    C20   25  -0.113  -0.193   0.036
    1UNL     H1   26   0.298  -0.329   0.196
    1UNL     H2   27   0.467  -0.273   0.193
    1UNL     H3   28   0.392  -0.354   0.059
    1UNL     H4   29   0.371  -0.062   0.086
    1UNL     H5   30   0.165  -0.354  -0.070
    1UNL     H6   31   0.101  -0.317   0.096
    1UNL     H7   32  -0.012  -0.248  -0.281
    1UNL     H8   33  -0.094  -0.127  -0.214
    1UNL     H9   34   0.079   0.036  -0.257
    1UNL    H10   35   0.179  -0.120  -0.274
    1UNL    H11   36   0.263   0.015  -0.113
    1UNL    H12   37   0.238   0.136   0.136
    1UNL    H13   38   0.149  -0.010   0.206
    1UNL    H14   39   0.031   0.242   0.175
    1UNL    H15   40   0.068   0.512  -0.038
    1UNL    H16   41   0.242   0.456  -0.016
    1UNL    H17   42   0.145   0.411  -0.172
    1UNL    H18   43  -0.116   0.275   0.014
    1UNL    H19   44  -0.395   0.315   0.018
    1UNL    H20   45  -0.606   0.185   0.033
    1UNL    H21   46  -0.609  -0.058   0.061
    1UNL    H22   47  -0.423  -0.187   0.021
    1UNL    H23   48  -0.065  -0.200   0.138
    1UNL    H24   49  -0.204  -0.259   0.024
   0.00000   0.00000   0.00000   0.00000   0.00000   0.00000   0.00000   0.00000   0.00000
Generated with MDTraj, t= 86.0
 49
    1UNL     C1    1   0.388  -0.269   0.124
    1UNL     C2    2   0.335  -0.152   0.047
    1UNL     C3    3   0.215  -0.154  -0.013
    1UNL     C4    4   0.132  -0.277   0.012
    1UNL     N1    5  -0.004  -0.250  -0.058
    1UNL     C5    6   0.000  -0.201  -0.194
    1UNL     C6    7   0.096  -0.075  -0.214
    1UNL     C7    8   0.165  -0.037  -0.085
    1UNL     C8    9   0.088   0.066   0.015
    1UNL     C9   10   0.130   0.061   0.167
    1UNL     O1   11   0.084   0.169   0.240
    1UNL    C10   12   0.118   0.204  -0.049
    1UNL     O2   13   0.185   0.204  -0.149
    1UNL     O3   14   0.072   0.318   0.014
    1UNL    C11   15   0.088   0.430  -0.078
    1UNL    C12   16  -0.066   0.049   0.009
    1UNL     N2   17  -0.140   0.162   0.018
    1UNL    C13   18  -0.275   0.134   0.020
    1UNL    C14   19  -0.396   0.217   0.013
    1UNL    C15   20  -0.518   0.156   0.019
    1UNL    C16   21  -0.527   0.019   0.030
    1UNL    C17   22  -0.413  -0.054   0.031
    1UNL    C18   23  -0.284  -0.005   0.028
    1UNL    C19   24  -0.153  -0.061   0.015
    1UNL    C20   25  -0.119  -0.207   0.027
    1UNL     H1   26   0.462  -0.245   0.190
    1UNL     H2   27   0.414  -0.360   0.065
    1UNL     H3   28   0.314  -0.305   0.198
    1UNL     H4   29   0.396  -0.068   0.021
    1UNL     H5   30   0.183  -0.369  -0.024
    1UNL     H6   31   0.109  -0.288   0.118
    1UNL     H7   32   0.041  -0.278  -0.256
    1UNL     H8   33  -0.097  -0.192  -0.230
    1UNL     H9   34   0.015   0.003  -0.231
    1UNL    H10   35   0.158  -0.079  -0.306
    1UNL    H11   36   0.257   0.017  -0.122
    1UNL    H12   37   0.236   0.051   0.174
    1UNL    H13   38   0.074  -0.028   0.203
    1UNL    H14   39   0.100   0.252   0.189
    1UNL    H15   40   0.091   0.520  -0.010
    1UNL    H16   41   0.186   0.426  -0.138
    1UNL    H17   42  -0.004   0.433  -0.146
    1UNL    H18   43  -0.089   0.258   0.012
    1UNL    H19   44  -0.394   0.323   0.011
    1UNL    H20   45  -0.610   0.217   0.019
    1UNL    H21   46  -0.626  -0.025   0.037
    1UNL    H22   47  -0.422  -0.158   0.039
    1UNL    H23   48  -0.079  -0.228   0.130
    1UNL    H24   49  -0.206  -0.273   0.003
   0.00000   0.00000   0.00000   0.00000   0.00000   0.00000   0.00000   0.00000   0.00000
Generated with MDTraj, t= 87.0
 49
    1UNL     C1    1   0.408  -0.274   0.101
    1UNL     C2    2   0.350  -0.171   0.017
    1UNL     C3    3   0.216  -0.169  -0.006
    1UNL     C4    4   0.111  -0.266   0.039
    1UNL     N1    5  -0.012  -0.264  -0.037
    1UNL     C5    6  -0.006  -0.234  -0.180
    1UNL     C6    7   0.069  -0.093  -0.191
    1UNL     C7    8   0.157  -0.044  -0.072
    1UNL     C8    9   0.088   0.075   0.003
    1UNL     C9   10   0.149   0.072   0.150
    1UNL     O1   11   0.077   0.150   0.240
    1UNL    C10   12   0.122   0.220  -0.050
    1UNL     O2   13   0.191   0.231  -0.147
    1UNL     O3   14   0.070   0.323   0.027
    1UNL    C11   15   0.093   0.452  -0.035
    1UNL    C12   16  -0.063   0.065   0.009
    1UNL     N2   17  -0.146   0.177  -0.016
    1UNL    C13   18  -0.276   0.138  -0.011
    1UNL    C14   19  -0.398   0.213  -0.002
    1UNL    C15   20  -0.519   0.148   0.018
    1UNL    C16   21  -0.518   0.008   0.027
    1UNL    C17   22  -0.405  -0.067   0.025
    1UNL    C18   23  -0.280  -0.001   0.014
    1UNL    C19   24  -0.147  -0.049   0.013
    1UNL    C20   25  -0.126  -0.199   0.042
    1UNL     H1   26   0.461  -0.348   0.044
    1UNL     H2   27   0.333  -0.318   0.167
    1UNL     H3   28   0.485  -0.225   0.158
    1UNL     H4   29   0.411  -0.093  -0.029
    1UNL     H5   30   0.145  -0.369   0.015
    1UNL     H6   31   0.085  -0.266   0.147
    1UNL     H7   32   0.030  -0.319  -0.235
    1UNL     H8   33  -0.103  -0.222  -0.214
    1UNL     H9   34  -0.005  -0.017  -0.232
    1UNL    H10   35   0.128  -0.109  -0.282
    1UNL    H11   36   0.248   0.009  -0.112
    1UNL    H12   37   0.251   0.109   0.144
    1UNL    H13   38   0.155  -0.034   0.184
    1UNL    H14   39   0.067   0.243   0.210
    1UNL    H15   40   0.095   0.525   0.047
    1UNL    H16   41   0.196   0.454  -0.078
    1UNL    H17   42   0.009   0.472  -0.111
    1UNL    H18   43  -0.125   0.284  -0.008
    1UNL    H19   44  -0.384   0.321   0.002
    1UNL    H20   45  -0.614   0.192   0.023
    1UNL    H21   46  -0.612  -0.042   0.032
    1UNL    H22   47  -0.417  -0.180   0.034
    1UNL    H23   48  -0.126  -0.217   0.153
    1UNL    H24   49  -0.221  -0.240  -0.007
   0.00000   0.00000   0.00000   0.00000   0.00000   0.00000   0.00000   0.00000   0.00000
Generated with MDTraj, t= 88.0
 49
    1UNL     C1    1   0.444  -0.269   0.067
    1UNL     C2    2   0.357  -0.164  -0.009
    1UNL     C3    3   0.222  -0.145  -0.010
    1UNL     C4    4   0.143  -0.256   0.039
    1UNL     N1    5   0.000  -0.246  -0.017
    1UNL     C5    6  -0.005  -0.213  -0.163
    1UNL     C6    7   0.061  -0.084  -0.198
    1UNL     C7    8   0.147  -0.033  -0.079
    1UNL     C8    9   0.074   0.074   0.011
    1UNL     C9   10   0.119   0.058   0.162
    1UNL     O1   11   0.048   0.146   0.245
    1UNL    C10   12   0.121   0.209  -0.044
    1UNL     O2   13   0.171   0.207  -0.153
    1UNL     O3   14   0.096   0.318   0.030
    1UNL    C11   15   0.173   0.424  -0.018
    1UNL    C12   16  -0.080   0.066   0.013
    1UNL     N2   17  -0.161   0.171  -0.026
    1UNL    C13   18  -0.292   0.135  -0.011
    1UNL    C14   19  -0.408   0.209  -0.021
    1UNL    C15   20  -0.526   0.145  -0.015
    1UNL    C16   21  -0.535   0.005   0.012
    1UNL    C17   22  -0.417  -0.065   0.037
    1UNL    C18   23  -0.292   0.000   0.025
    1UNL    C19   24  -0.155  -0.046   0.042
    1UNL    C20   25  -0.118  -0.190   0.068
    1UNL     H1   26   0.403  -0.374   0.080
    1UNL     H2   27   0.472  -0.232   0.161
    1UNL     H3   28   0.533  -0.276   0.008
    1UNL     H4   29   0.414  -0.094  -0.067
    1UNL     H5   30   0.181  -0.350  -0.003
    1UNL     H6   31   0.137  -0.275   0.150
    1UNL     H7   32   0.054  -0.286  -0.215
    1UNL     H8   33  -0.104  -0.231  -0.193
    1UNL     H9   34  -0.028  -0.015  -0.211
    1UNL    H10   35   0.101  -0.073  -0.299
    1UNL    H11   36   0.236   0.025  -0.121
    1UNL    H12   37   0.227   0.079   0.171
    1UNL    H13   38   0.108  -0.048   0.199
    1UNL    H14   39   0.031   0.233   0.196
    1UNL    H15   40   0.126   0.511   0.020
    1UNL    H16   41   0.267   0.424   0.030
    1UNL    H17   42   0.173   0.424  -0.130
    1UNL    H18   43  -0.134   0.266  -0.061
    1UNL    H19   44  -0.410   0.315  -0.038
    1UNL    H20   45  -0.614   0.212  -0.037
    1UNL    H21   46  -0.633  -0.043   0.020
    1UNL    H22   47  -0.418  -0.167   0.053
    1UNL    H23   48  -0.100  -0.206   0.176
    1UNL    H24   49  -0.201  -0.261   0.030
   0.00000   0.00000   0.00000   0.00000   0.00000   0.00000   0.00000   0.00000   0.00000
Generated with MDTraj, t= 89.0
 49
    1UNL     C1    1   0.413  -0.261   0.045
    1UNL     C2    2   0.349  -0.132   0.001
    1UNL     C3    3   0.218  -0.143  -0.012
    1UNL     C4    4   0.138  -0.260   0.040
    1UNL     N1    5  -0.002  -0.240  -0.006
    1UNL     C5    6  -0.036  -0.218  -0.151
    1UNL     C6    7   0.043  -0.092  -0.197
    1UNL     C7    8   0.142  -0.036  -0.089
    1UNL     C8    9   0.077   0.069   0.011
    1UNL     C9   10   0.119   0.057   0.153
    1UNL     O1   11   0.052   0.145   0.246
    1UNL    C10   12   0.122   0.207  -0.041
    1UNL     O2   13   0.142   0.229  -0.158
    1UNL     O3   14   0.125   0.307   0.057
    1UNL    C11   15   0.173   0.431   0.001
    1UNL    C12   16  -0.073   0.060   0.006
    1UNL     N2   17  -0.149   0.173  -0.032
    1UNL    C13   18  -0.280   0.133  -0.031
    1UNL    C14   19  -0.398   0.200  -0.056
    1UNL    C15   20  -0.517   0.134  -0.026
    1UNL    C16   21  -0.518  -0.004   0.010
    1UNL    C17   22  -0.402  -0.075   0.034
    1UNL    C18   23  -0.284  -0.004   0.019
    1UNL    C19   24  -0.152  -0.043   0.056
    1UNL    C20   25  -0.109  -0.182   0.089
    1UNL     H1   26   0.348  -0.355   0.053
    1UNL     H2   27   0.464  -0.252   0.135
    1UNL     H3   28   0.485  -0.292  -0.027
    1UNL     H4   29   0.402  -0.041  -0.027
    1UNL     H5   30   0.162  -0.358  -0.003
    1UNL     H6   31   0.140  -0.281   0.152
    1UNL     H7   32  -0.005  -0.308  -0.196
    1UNL     H8   33  -0.142  -0.216  -0.160
    1UNL     H9   34  -0.031  -0.017  -0.237
    1UNL    H10   35   0.100  -0.115  -0.284
    1UNL    H11   36   0.229   0.012  -0.144
    1UNL    H12   37   0.229   0.068   0.170
    1UNL    H13   38   0.099  -0.049   0.185
    1UNL    H14   39   0.058   0.232   0.208
    1UNL    H15   40   0.172   0.508   0.070
    1UNL    H16   41   0.273   0.426  -0.025
    1UNL    H17   42   0.108   0.454  -0.083
    1UNL    H18   43  -0.100   0.262  -0.062
    1UNL    H19   44  -0.389   0.297  -0.101
    1UNL    H20   45  -0.603   0.190  -0.021
    1UNL    H21   46  -0.612  -0.051   0.020
    1UNL    H22   47  -0.400  -0.180   0.069
    1UNL    H23   48  -0.059  -0.179   0.187
    1UNL    H24   49  -0.204  -0.246   0.098
   0.00000   0.00000   0.00000   0.00000   0.00000   0.00000   0.00000   0.00000   0.00000
Generated with MDTraj, t= 90.0
 49
    1UNL     C1    1   0.411  -0.255   0.079
    1UNL     C2    2   0.339  -0.160  -0.016
    1UNL     C3    3   0.208  -0.149  -0.026
    1UNL     C4    4   0.112  -0.256   0.029
    1UNL     N1    5  -0.027  -0.245  -0.007
    1UNL     C5    6  -0.039  -0.204  -0.149
    1UNL     C6    7   0.048  -0.086  -0.201
    1UNL     C7    8   0.148  -0.028  -0.094
    1UNL     C8    9   0.087   0.079   0.016
    1UNL     C9   10   0.163   0.060   0.150
    1UNL     O1   11   0.088   0.116   0.257
    1UNL    C10   12   0.115   0.222  -0.043
    1UNL     O2   13   0.090   0.239  -0.161
    1UNL     O3   14   0.156   0.304   0.054
    1UNL    C11   15   0.153   0.434   0.013
    1UNL    C12   16  -0.064   0.074   0.027
    1UNL     N2   17  -0.145   0.172  -0.021
    1UNL    C13   18  -0.281   0.125  -0.024
    1UNL    C14   19  -0.399   0.180  -0.092
    1UNL    C15   20  -0.520   0.119  -0.062
    1UNL    C16   21  -0.521  -0.004   0.009
    1UNL    C17   22  -0.405  -0.069   0.044
    1UNL    C18   23  -0.279  -0.004   0.026
    1UNL    C19   24  -0.141  -0.034   0.060
    1UNL    C20   25  -0.106  -0.171   0.098
    1UNL     H1   26   0.354  -0.335   0.124
    1UNL     H2   27   0.453  -0.195   0.157
    1UNL     H3   28   0.496  -0.298   0.028
    1UNL     H4   29   0.395  -0.079  -0.057
    1UNL     H5   30   0.149  -0.354  -0.004
    1UNL     H6   31   0.110  -0.273   0.142
    1UNL     H7   32  -0.007  -0.291  -0.198
    1UNL     H8   33  -0.144  -0.190  -0.164
    1UNL     H9   34   0.007  -0.000  -0.262
    1UNL    H10   35   0.100  -0.146  -0.274
    1UNL    H11   36   0.235   0.018  -0.148
    1UNL    H12   37   0.270   0.096   0.147
    1UNL    H13   38   0.174  -0.045   0.186
    1UNL    H14   39   0.080   0.213   0.230
    1UNL    H15   40   0.225   0.492   0.062
    1UNL    H16   41   0.177   0.445  -0.088
    1UNL    H17   42   0.050   0.466   0.034
    1UNL    H18   43  -0.108   0.257  -0.079
    1UNL    H19   44  -0.386   0.260  -0.164
    1UNL    H20   45  -0.618   0.156  -0.100
    1UNL    H21   46  -0.614  -0.061   0.030
    1UNL    H22   47  -0.402  -0.168   0.090
    1UNL    H23   48  -0.061  -0.173   0.198
    1UNL    H24   49  -0.202  -0.235   0.109
   0.00000   0.00000   0.00000   0.00000   0.00000   0.00000   0.00000   0.00000   0.00000
Generated with MDTraj, t= 91.0
 49
    1UNL     C1    1   0.418  -0.257   0.070
    1UNL     C2    2   0.343  -0.151  -0.010
    1UNL     C3    3   0.211  -0.159  -0.024
    1UNL     C4    4   0.112  -0.277  -0.001
    1UNL     N1    5  -0.035  -0.244  -0.016
    1UNL     C5    6  -0.048  -0.190  -0.156
    1UNL     C6    7   0.042  -0.077  -0.189
    1UNL     C7    8   0.139  -0.030  -0.074
    1UNL     C8    9   0.080   0.077   0.028
    1UNL     C9   10   0.142   0.061   0.166
    1UNL     O1   11   0.098   0.157   0.257
    1UNL    C10   12   0.115   0.217  -0.032
    1UNL     O2   13   0.083   0.238  -0.147
    1UNL     O3   14   0.175   0.314   0.048
    1UNL    C11   15   0.178   0.436  -0.014
    1UNL    C12   16  -0.070   0.058   0.030
    1UNL     N2   17  -0.150   0.159  -0.024
    1UNL    C13   18  -0.281   0.125  -0.022
    1UNL    C14   19  -0.391   0.183  -0.087
    1UNL    C15   20  -0.510   0.111  -0.072
    1UNL    C16   21  -0.525  -0.018  -0.008
    1UNL    C17   22  -0.411  -0.071   0.041
    1UNL    C18   23  -0.285  -0.005   0.040
    1UNL    C19   24  -0.152  -0.045   0.074
    1UNL    C20   25  -0.097  -0.177   0.104
    1UNL     H1   26   0.381  -0.354   0.067
    1UNL     H2   27   0.420  -0.220   0.174
    1UNL     H3   28   0.522  -0.258   0.039
    1UNL     H4   29   0.392  -0.059  -0.037
    1UNL     H5   30   0.131  -0.350  -0.083
    1UNL     H6   31   0.136  -0.341   0.089
    1UNL     H7   32  -0.014  -0.270  -0.212
    1UNL     H8   33  -0.151  -0.175  -0.180
    1UNL     H9   34  -0.026   0.008  -0.213
    1UNL    H10   35   0.095  -0.085  -0.282
    1UNL    H11   36   0.225   0.018  -0.128
    1UNL    H12   37   0.255   0.071   0.162
    1UNL    H13   38   0.123  -0.040   0.205
    1UNL    H14   39   0.100   0.241   0.210
    1UNL    H15   40   0.221   0.509   0.056
    1UNL    H16   41   0.243   0.441  -0.101
    1UNL    H17   42   0.073   0.468  -0.035
    1UNL    H18   43  -0.105   0.243  -0.058
    1UNL    H19   44  -0.389   0.283  -0.125
    1UNL    H20   45  -0.598   0.154  -0.113
    1UNL    H21   46  -0.614  -0.073  -0.002
    1UNL    H22   47  -0.416  -0.166   0.080
    1UNL    H23   48  -0.023  -0.168   0.186
    1UNL    H24   49  -0.182  -0.240   0.147
   0.00000   0.00000   0.00000   0.00000   0.00000   0.00000   0.00000   0.00000   0.00000
Generated with MDTraj, t= 92.0
 49
    1UNL     C1    1   0.398  -0.286   0.052
    1UNL     C2    2   0.333  -0.155   0.022
    1UNL     C3    3   0.205  -0.144  -0.003
    1UNL     C4    4   0.116  -0.263   0.019
    1UNL     N1    5  -0.018  -0.237  -0.015
    1UNL     C5    6  -0.020  -0.193  -0.162
    1UNL     C6    7   0.039  -0.054  -0.194
    1UNL     C7    8   0.146  -0.021  -0.075
    1UNL     C8    9   0.084   0.082   0.012
    1UNL     C9   10   0.130   0.066   0.161
    1UNL     O1   11   0.080   0.164   0.250
    1UNL    C10   12   0.117   0.226  -0.041
    1UNL     O2   13   0.097   0.233  -0.161
    1UNL     O3   14   0.164   0.320   0.047
    1UNL    C11   15   0.236   0.418  -0.028
    1UNL    C12   16  -0.075   0.070   0.022
    1UNL     N2   17  -0.160   0.171  -0.018
    1UNL    C13   18  -0.289   0.121  -0.010
    1UNL    C14   19  -0.416   0.182  -0.031
    1UNL    C15   20  -0.529   0.104  -0.045
    1UNL    C16   21  -0.519  -0.037  -0.024
    1UNL    C17   22  -0.400  -0.098   0.016
    1UNL    C18   23  -0.285  -0.014   0.033
    1UNL    C19   24  -0.148  -0.038   0.063
    1UNL    C20   25  -0.108  -0.173   0.096
    1UNL     H1   26   0.413  -0.348  -0.029
    1UNL     H2   27   0.342  -0.336   0.133
    1UNL     H3   28   0.493  -0.264   0.101
    1UNL     H4   29   0.398  -0.070   0.001
    1UNL     H5   30   0.158  -0.348  -0.042
    1UNL     H6   31   0.123  -0.298   0.125
    1UNL     H7   32   0.033  -0.264  -0.217
    1UNL     H8   33  -0.125  -0.194  -0.180
    1UNL     H9   34  -0.035   0.028  -0.204
    1UNL    H10   35   0.091  -0.053  -0.286
    1UNL    H11   36   0.241   0.022  -0.111
    1UNL    H12   37   0.242   0.064   0.169
    1UNL    H13   38   0.093  -0.032   0.195
    1UNL    H14   39   0.099   0.257   0.217
    1UNL    H15   40   0.275   0.513   0.025
    1UNL    H16   41   0.323   0.366  -0.079
    1UNL    H17   42   0.173   0.456  -0.114
    1UNL    H18   43  -0.142   0.254  -0.078
    1UNL    H19   44  -0.432   0.289  -0.016
    1UNL    H20   45  -0.628   0.146  -0.052
    1UNL    H21   46  -0.612  -0.091  -0.048
    1UNL    H22   47  -0.386  -0.208   0.037
    1UNL    H23   48  -0.063  -0.167   0.198
    1UNL    H24   49  -0.202  -0.234   0.110
   0.00000   0.00000   0.00000   0.00000   0.00000   0.00000   0.00000   0.00000   0.00000
Generated with MDTraj, t= 93.0
 49
    1UNL     C1    1   0.433  -0.258   0.076
    1UNL     C2    2   0.341  -0.141   0.022
    1UNL     C3    3   0.213  -0.151  -0.010
    1UNL     C4    4   0.125  -0.264   0.025
    1UNL     N1    5  -0.015  -0.243  -0.029
    1UNL     C5    6  -0.027  -0.195  -0.175
    1UNL     C6    7   0.068  -0.075  -0.202
    1UNL     C7    8   0.144  -0.030  -0.072
    1UNL     C8    9   0.078   0.076   0.024
    1UNL     C9   10   0.125   0.067   0.172
    1UNL     O1   11   0.053   0.172   0.233
    1UNL    C10   12   0.115   0.208  -0.043
    1UNL     O2   13   0.078   0.231  -0.157
    1UNL     O3   14   0.186   0.291   0.034
    1UNL    C11   15   0.213   0.410  -0.028
    1UNL    C12   16  -0.077   0.063   0.034
    1UNL     N2   17  -0.156   0.172   0.003
    1UNL    C13   18  -0.287   0.134  -0.011
    1UNL    C14   19  -0.413   0.198  -0.027
    1UNL    C15   20  -0.529   0.122  -0.024
    1UNL    C16   21  -0.519  -0.014  -0.001
    1UNL    C17   22  -0.405  -0.087   0.018
    1UNL    C18   23  -0.288  -0.009   0.007
    1UNL    C19   24  -0.159  -0.050   0.044
    1UNL    C20   25  -0.117  -0.190   0.067
    1UNL     H1   26   0.485  -0.319   0.003
    1UNL     H2   27   0.375  -0.322   0.143
    1UNL     H3   28   0.505  -0.219   0.144
    1UNL     H4   29   0.393  -0.049   0.004
    1UNL     H5   30   0.170  -0.359  -0.019
    1UNL     H6   31   0.130  -0.283   0.135
    1UNL     H7   32   0.012  -0.274  -0.233
    1UNL     H8   33  -0.126  -0.165  -0.196
    1UNL     H9   34   0.010   0.014  -0.223
    1UNL    H10   35   0.130  -0.091  -0.287
    1UNL    H11   36   0.228   0.029  -0.112
    1UNL    H12   37   0.234   0.088   0.173
    1UNL    H13   38   0.097  -0.032   0.209
    1UNL    H14   39   0.077   0.258   0.194
    1UNL    H15   40   0.259   0.473   0.059
    1UNL    H16   41   0.295   0.398  -0.106
    1UNL    H17   42   0.133   0.477  -0.071
    1UNL    H18   43  -0.133   0.275  -0.010
    1UNL    H19   44  -0.417   0.304  -0.042
    1UNL    H20   45  -0.626   0.169  -0.053
    1UNL    H21   46  -0.606  -0.075   0.000
    1UNL    H22   47  -0.402  -0.190   0.034
    1UNL    H23   48  -0.074  -0.188   0.172
    1UNL    H24   49  -0.210  -0.252   0.070
   0.00000   0.00000   0.00000   0.00000   0.00000   0.00000   0.00000   0.00000   0.00000
Generated with MDTraj, t= 94.0
 49
    1UNL     C1    1   0.410  -0.245   0.123
    1UNL     C2    2   0.353  -0.139   0.029
    1UNL     C3    3   0.226  -0.147  -0.005
    1UNL     C4    4   0.131  -0.262   0.027
    1UNL     N1    5   0.000  -0.257  -0.042
    1UNL     C5    6   0.010  -0.227  -0.188
    1UNL     C6    7   0.081  -0.090  -0.207
    1UNL     C7    8   0.162  -0.036  -0.086
    1UNL     C8    9   0.078   0.070   0.009
    1UNL     C9   10   0.127   0.057   0.147
    1UNL     O1   11   0.075   0.148   0.242
    1UNL    C10   12   0.098   0.215  -0.038
    1UNL     O2   13   0.045   0.245  -0.144
    1UNL     O3   14   0.176   0.299   0.043
    1UNL    C11   15   0.198   0.427  -0.024
    1UNL    C12   16  -0.076   0.056   0.001
    1UNL     N2   17  -0.159   0.166  -0.003
    1UNL    C13   18  -0.291   0.124  -0.022
    1UNL    C14   19  -0.405   0.203  -0.039
    1UNL    C15   20  -0.526   0.149   0.000
    1UNL    C16   21  -0.540   0.014   0.033
    1UNL    C17   22  -0.424  -0.055   0.039
    1UNL    C18   23  -0.295  -0.010   0.010
    1UNL    C19   24  -0.154  -0.059   0.023
    1UNL    C20   25  -0.114  -0.201   0.046
    1UNL     H1   26   0.421  -0.351   0.085
    1UNL     H2   27   0.345  -0.246   0.206
    1UNL     H3   28   0.500  -0.215   0.167
    1UNL     H4   29   0.426  -0.063   0.004
    1UNL     H5   30   0.180  -0.359  -0.009
    1UNL     H6   31   0.115  -0.276   0.135
    1UNL     H7   32   0.071  -0.305  -0.230
    1UNL     H8   33  -0.088  -0.219  -0.224
    1UNL     H9   34   0.015  -0.013  -0.244
    1UNL    H10   35   0.155  -0.103  -0.285
    1UNL    H11   36   0.242   0.022  -0.130
    1UNL    H12   37   0.236   0.073   0.131
    1UNL    H13   38   0.099  -0.043   0.179
    1UNL    H14   39   0.073   0.242   0.207
    1UNL    H15   40   0.293   0.476   0.017
    1UNL    H16   41   0.205   0.413  -0.134
    1UNL    H17   42   0.125   0.508  -0.016
    1UNL    H18   43  -0.124   0.250  -0.043
    1UNL    H19   44  -0.402   0.301  -0.088
    1UNL    H20   45  -0.609   0.210  -0.002
    1UNL    H21   46  -0.636  -0.028   0.058
    1UNL    H22   47  -0.430  -0.156   0.079
    1UNL    H23   48  -0.093  -0.215   0.157
    1UNL    H24   49  -0.199  -0.269   0.025
   0.00000   0.00000   0.00000   0.00000   0.00000   0.00000   0.00000   0.00000   0.00000
Generated with MDTraj, t= 95.0
 49
    1UNL     C1    1   0.386  -0.238   0.133
    1UNL     C2    2   0.330  -0.137   0.037
    1UNL     C3    3   0.211  -0.146  -0.013
    1UNL     C4    4   0.115  -0.251   0.033
    1UNL     N1    5  -0.002  -0.251  -0.042
    1UNL     C5    6   0.003  -0.219  -0.186
    1UNL     C6    7   0.070  -0.081  -0.217
    1UNL     C7    8   0.156  -0.030  -0.090
    1UNL     C8    9   0.076   0.074   0.007
    1UNL     C9   10   0.109   0.058   0.160
    1UNL     O1   11   0.038   0.157   0.229
    1UNL    C10   12   0.123   0.213  -0.051
    1UNL     O2   13   0.101   0.238  -0.167
    1UNL     O3   14   0.194   0.295   0.034
    1UNL    C11   15   0.191   0.432  -0.008
    1UNL    C12   16  -0.069   0.056  -0.011
    1UNL     N2   17  -0.153   0.162  -0.051
    1UNL    C13   18  -0.282   0.129   0.002
    1UNL    C14   19  -0.402   0.202  -0.005
    1UNL    C15   20  -0.518   0.132   0.023
    1UNL    C16   21  -0.521  -0.007   0.039
    1UNL    C17   22  -0.408  -0.083   0.038
    1UNL    C18   23  -0.284  -0.011   0.035
    1UNL    C19   24  -0.149  -0.051   0.024
    1UNL    C20   25  -0.120  -0.200   0.026
    1UNL     H1   26   0.336  -0.339   0.142
    1UNL     H2   27   0.387  -0.196   0.228
    1UNL     H3   28   0.490  -0.255   0.119
    1UNL     H4   29   0.395  -0.055   0.014
    1UNL     H5   30   0.167  -0.353   0.021
    1UNL     H6   31   0.090  -0.235   0.139
    1UNL     H7   32   0.061  -0.300  -0.229
    1UNL     H8   33  -0.097  -0.220  -0.215
    1UNL     H9   34   0.002  -0.005  -0.246
    1UNL    H10   35   0.130  -0.089  -0.306
    1UNL    H11   36   0.240   0.028  -0.126
    1UNL    H12   37   0.214   0.075   0.186
    1UNL    H13   38   0.071  -0.036   0.192
    1UNL    H14   39   0.070   0.243   0.198
    1UNL    H15   40   0.262   0.487   0.055
    1UNL    H16   41   0.203   0.448  -0.114
    1UNL    H17   42   0.101   0.479   0.009
    1UNL    H18   43  -0.126   0.253  -0.057
    1UNL    H19   44  -0.402   0.301  -0.044
    1UNL    H20   45  -0.620   0.181   0.035
    1UNL    H21   46  -0.617  -0.055   0.057
    1UNL    H22   47  -0.405  -0.192   0.053
    1UNL    H23   48  -0.129  -0.247   0.130
    1UNL    H24   49  -0.206  -0.239  -0.031
   0.00000   0.00000   0.00000   0.00000   0.00000   0.00000   0.00000   0.00000   0.00000
Generated with MDTraj, t= 96.0
 49
    1UNL     C1    1   0.406  -0.255   0.127
    1UNL     C2    2   0.332  -0.137   0.061
    1UNL     C3    3   0.215  -0.146   0.004
    1UNL     C4    4   0.138  -0.280   0.012
    1UNL     N1    5   0.002  -0.251  -0.054
    1UNL     C5    6   0.005  -0.207  -0.196
    1UNL     C6    7   0.091  -0.084  -0.208
    1UNL     C7    8   0.160  -0.030  -0.077
    1UNL     C8    9   0.071   0.072  -0.003
    1UNL     C9   10   0.109   0.076   0.153
    1UNL     O1   11   0.034   0.156   0.246
    1UNL    C10   12   0.105   0.207  -0.060
    1UNL     O2   13   0.099   0.212  -0.180
    1UNL     O3   14   0.138   0.309   0.032
    1UNL    C11   15   0.221   0.408  -0.019
    1UNL    C12   16  -0.078   0.059  -0.013
    1UNL     N2   17  -0.161   0.173  -0.024
    1UNL    C13   18  -0.292   0.135  -0.006
    1UNL    C14   19  -0.410   0.206   0.006
    1UNL    C15   20  -0.525   0.141   0.034
    1UNL    C16   21  -0.524  -0.000   0.044
    1UNL    C17   22  -0.410  -0.072   0.028
    1UNL    C18   23  -0.288  -0.003   0.012
    1UNL    C19   24  -0.153  -0.054   0.015
    1UNL    C20   25  -0.101  -0.189   0.040
    1UNL     H1   26   0.377  -0.355   0.097
    1UNL     H2   27   0.388  -0.246   0.232
    1UNL     H3   28   0.512  -0.238   0.119
    1UNL     H4   29   0.386  -0.044   0.044
    1UNL     H5   30   0.196  -0.352  -0.055
    1UNL     H6   31   0.132  -0.319   0.117
    1UNL     H7   32   0.053  -0.286  -0.251
    1UNL     H8   33  -0.094  -0.196  -0.232
    1UNL     H9   34   0.024  -0.010  -0.244
    1UNL    H10   35   0.158  -0.084  -0.294
    1UNL    H11   36   0.248   0.023  -0.112
    1UNL    H12   37   0.212   0.108   0.163
    1UNL    H13   38   0.098  -0.016   0.205
    1UNL    H14   39   0.041   0.252   0.220
    1UNL    H15   40   0.214   0.480   0.059
    1UNL    H16   41   0.321   0.384  -0.047
    1UNL    H17   42   0.178   0.449  -0.100
    1UNL    H18   43  -0.132   0.259  -0.061
    1UNL    H19   44  -0.409   0.314   0.012
    1UNL    H20   45  -0.610   0.198   0.049
    1UNL    H21   46  -0.613  -0.047   0.079
    1UNL    H22   47  -0.414  -0.176   0.026
    1UNL    H23   48  -0.043  -0.186   0.139
    1UNL    H24   49  -0.180  -0.263   0.055
   0.00000   0.00000   0.00000   0.00000   0.00000   0.00000   0.00000   0.00000   0.00000
Generated with MDTraj, t= 97.0
 49
    1UNL     C1    1   0.391  -0.269   0.138
    1UNL     C2    2   0.341  -0.162   0.047
    1UNL     C3    3   0.223  -0.155  -0.009
    1UNL     C4    4   0.121  -0.265   0.005
    1UNL     N1    5  -0.012  -0.248  -0.062
    1UNL     C5    6  -0.019  -0.181  -0.191
    1UNL     C6    7   0.092  -0.072  -0.205
    1UNL     C7    8   0.167  -0.033  -0.074
    1UNL     C8    9   0.081   0.069   0.010
    1UNL     C9   10   0.122   0.076   0.160
    1UNL     O1   11   0.043   0.168   0.233
    1UNL    C10   12   0.123   0.210  -0.060
    1UNL     O2   13   0.127   0.217  -0.182
    1UNL     O3   14   0.151   0.316   0.028
    1UNL    C11   15   0.182   0.439  -0.038
    1UNL    C12   16  -0.072   0.060   0.014
    1UNL     N2   17  -0.157   0.170   0.006
    1UNL    C13   18  -0.287   0.125  -0.004
    1UNL    C14   19  -0.409   0.193  -0.012
    1UNL    C15   20  -0.526   0.128   0.010
    1UNL    C16   21  -0.528  -0.007   0.039
    1UNL    C17   22  -0.409  -0.079   0.044
    1UNL    C18   23  -0.283  -0.014   0.027
    1UNL    C19   24  -0.149  -0.054   0.021
    1UNL    C20   25  -0.113  -0.198   0.040
    1UNL     H1   26   0.452  -0.338   0.092
    1UNL     H2   27   0.304  -0.317   0.183
    1UNL     H3   28   0.438  -0.214   0.220
    1UNL     H4   29   0.410  -0.085   0.020
    1UNL     H5   30   0.167  -0.362  -0.034
    1UNL     H6   31   0.102  -0.272   0.116
    1UNL     H7   32  -0.019  -0.256  -0.268
    1UNL     H8   33  -0.115  -0.136  -0.197
    1UNL     H9   34   0.060   0.009  -0.264
    1UNL    H10   35   0.167  -0.110  -0.276
    1UNL    H11   36   0.254   0.025  -0.099
    1UNL    H12   37   0.224   0.102   0.186
    1UNL    H13   38   0.102  -0.020   0.201
    1UNL    H14   39   0.029   0.249   0.179
    1UNL    H15   40   0.147   0.511   0.034
    1UNL    H16   41   0.285   0.457  -0.070
    1UNL    H17   42   0.125   0.445  -0.125
    1UNL    H18   43  -0.132   0.269   0.015
    1UNL    H19   44  -0.410   0.299  -0.027
    1UNL    H20   45  -0.619   0.189  -0.001
    1UNL    H21   46  -0.625  -0.058   0.034
    1UNL    H22   47  -0.412  -0.191   0.053
    1UNL    H23   48  -0.074  -0.218   0.146
    1UNL    H24   49  -0.202  -0.263   0.033
   0.00000   0.00000   0.00000   0.00000   0.00000   0.00000   0.00000   0.00000   0.00000
Generated with MDTraj, t= 98.0
 49
    1UNL     C1    1   0.385  -0.288   0.123
    1UNL     C2    2   0.319  -0.162   0.073
    1UNL     C3    3   0.204  -0.157   0.006
    1UNL     C4    4   0.122  -0.280  -0.003
    1UNL     N1    5  -0.010  -0.248  -0.053
    1UNL     C5    6  -0.006  -0.198  -0.189
    1UNL     C6    7   0.077  -0.067  -0.201
    1UNL     C7    8   0.162  -0.034  -0.079
    1UNL     C8    9   0.088   0.076   0.014
    1UNL     C9   10   0.136   0.064   0.159
    1UNL     O1   11   0.086   0.159   0.248
    1UNL    C10   12   0.110   0.214  -0.057
    1UNL     O2   13   0.090   0.226  -0.178
    1UNL     O3   14   0.129   0.321   0.028
    1UNL    C11   15   0.126   0.448  -0.038
    1UNL    C12   16  -0.061   0.062   0.015
    1UNL     N2   17  -0.138   0.169  -0.016
    1UNL    C13   18  -0.273   0.129  -0.007
    1UNL    C14   19  -0.393   0.203  -0.025
    1UNL    C15   20  -0.514   0.135  -0.014
    1UNL    C16   21  -0.520   0.002   0.029
    1UNL    C17   22  -0.404  -0.074   0.046
    1UNL    C18   23  -0.276  -0.010   0.025
    1UNL    C19   24  -0.136  -0.053   0.027
    1UNL    C20   25  -0.096  -0.197   0.056
    1UNL     H1   26   0.486  -0.293   0.116
    1UNL     H2   27   0.347  -0.378   0.075
    1UNL     H3   28   0.356  -0.297   0.229
    1UNL     H4   29   0.382  -0.074   0.061
    1UNL     H5   30   0.171  -0.346  -0.079
    1UNL     H6   31   0.109  -0.337   0.096
    1UNL     H7   32   0.033  -0.273  -0.254
    1UNL     H8   33  -0.108  -0.180  -0.224
    1UNL     H9   34   0.012   0.012  -0.214
    1UNL    H10   35   0.127  -0.061  -0.298
    1UNL    H11   36   0.250   0.018  -0.116
    1UNL    H12   37   0.245   0.057   0.153
    1UNL    H13   38   0.096  -0.024   0.207
    1UNL    H14   39   0.090   0.243   0.200
    1UNL    H15   40   0.190   0.506   0.029
    1UNL    H16   41   0.157   0.442  -0.147
    1UNL    H17   42   0.027   0.492  -0.033
    1UNL    H18   43  -0.113   0.272  -0.034
    1UNL    H19   44  -0.387   0.310  -0.046
    1UNL    H20   45  -0.610   0.181  -0.035
    1UNL    H21   46  -0.615  -0.040   0.051
    1UNL    H22   47  -0.413  -0.171   0.083
    1UNL    H23   48  -0.057  -0.217   0.160
    1UNL    H24   49  -0.189  -0.254   0.046
   0.00000   0.00000   0.00000   0.00000   0.00000   0.00000   0.00000   0.00000   0.00000
Generated with MDTraj, t= 99.0
 49
    1UNL     C1    1   0.397  -0.258   0.120
    1UNL     C2    2   0.325  -0.156   0.050
    1UNL     C3    3   0.204  -0.164  -0.007
    1UNL     C4    4   0.117  -0.281  -0.005
    1UNL     N1    5  -0.023  -0.236  -0.045
    1UNL     C5    6  -0.037  -0.174  -0.178
    1UNL     C6    7   0.074  -0.064  -0.201
    1UNL     C7    8   0.164  -0.040  -0.083
    1UNL     C8    9   0.092   0.066   0.014
    1UNL     C9   10   0.150   0.075   0.156
    1UNL     O1   11   0.075   0.152   0.250
    1UNL    C10   12   0.110   0.199  -0.056
    1UNL     O2   13   0.115   0.211  -0.179
    1UNL     O3   14   0.116   0.306   0.034
    1UNL    C11   15   0.122   0.433  -0.031
    1UNL    C12   16  -0.061   0.060   0.020
    1UNL     N2   17  -0.144   0.166  -0.019
    1UNL    C13   18  -0.272   0.131   0.002
    1UNL    C14   19  -0.388   0.203  -0.024
    1UNL    C15   20  -0.505   0.133  -0.019
    1UNL    C16   21  -0.512  -0.007  -0.003
    1UNL    C17   22  -0.398  -0.073   0.029
    1UNL    C18   23  -0.278  -0.005   0.032
    1UNL    C19   24  -0.144  -0.050   0.050
    1UNL    C20   25  -0.099  -0.190   0.078
    1UNL     H1   26   0.461  -0.221   0.196
    1UNL     H2   27   0.455  -0.323   0.056
    1UNL     H3   28   0.324  -0.319   0.171
    1UNL     H4   29   0.385  -0.068   0.038
    1UNL     H5   30   0.142  -0.359  -0.081
    1UNL     H6   31   0.104  -0.337   0.095
    1UNL     H7   32  -0.028  -0.247  -0.255
    1UNL     H8   33  -0.138  -0.134  -0.193
    1UNL     H9   34   0.032   0.027  -0.227
    1UNL    H10   35   0.131  -0.085  -0.290
    1UNL    H11   36   0.255   0.017  -0.109
    1UNL    H12   37   0.256   0.107   0.148
    1UNL    H13   38   0.150  -0.027   0.192
    1UNL    H14   39   0.076   0.246   0.217
    1UNL    H15   40   0.228   0.432  -0.064
    1UNL    H16   41   0.050   0.444  -0.122
    1UNL    H17   42   0.120   0.512   0.050
    1UNL    H18   43  -0.103   0.254  -0.060
    1UNL    H19   44  -0.383   0.307  -0.045
    1UNL    H20   45  -0.592   0.193  -0.027
    1UNL    H21   46  -0.608  -0.053   0.020
    1UNL    H22   47  -0.405  -0.178   0.062
    1UNL    H23   48  -0.031  -0.188   0.168
    1UNL    H24   49  -0.181  -0.259   0.104
   0.00000   0.00000   0.00000   0.00000   0.00000   0.00000   0.00000   0.00000   0.00000
