1TPCN00339
11
    1res  C1    1   -0.276  -0.156  -0.326
    1res  C2    2   -0.208  -0.040  -0.048
    1res  C3    3   -0.101  -0.287  -0.094
    1res  C4    4   -0.136  -0.166   0.167
    1res  C5    5   -0.004   0.141  -0.182
    1res  C6    6   -0.191   0.374   0.036
    1res  C7    7    0.124  -0.128  -0.019
    1res  C8    8    0.130   0.195   0.131
    1res  C9    9    0.254   0.018   0.142
    1res  C10   10    0.430   0.132   0.279
    1res  C11   11    0.439  -0.145   0.185
  10.00000  10.00000  10.00000
