1TPCN03003
15
    1res  C1    1    0.263   0.031   0.104
    1res  C2    2    0.384  -0.220   0.091
    1res  C3    3    0.544   0.012  -0.152
    1res  C4    4    0.656  -0.114   0.223
    1res  C5    5    0.825  -0.298   0.063
    1res  C6    6    0.694   0.117   0.053
    1res  C7    7    0.164   0.121  -0.180
    1res  C8    8   -0.132   0.127  -0.201
    1res  C9    9   -0.247  -0.030   0.009
    1res  C10   10   -0.633   0.060   0.133
    1res  C11   11   -0.506  -0.295   0.043
    1res  C12   12   -0.733  -0.104  -0.062
    1res  C13   13   -0.428   0.162  -0.042
    1res  C14   14   -0.544   0.386  -0.064
    1res  C15   15   -0.293   0.425  -0.157
  10.00000  10.00000  10.00000
