1TPCN06194
28
    1res  C1    1   -0.863   0.255   0.106
    1res  C2    2   -0.996  -0.125   0.047
    1res  C3    3   -0.839  -0.141  -0.356
    1res  C4    4   -0.544   0.007  -0.275
    1res  C5    5   -0.619  -0.025   0.026
    1res  C6    6   -0.425  -0.044   0.165
    1res  C7    7   -0.274  -0.249   0.184
    1res  C8    8   -0.029  -0.105   0.143
    1res  C9    9    0.081  -0.073   0.367
    1res  C10   10    0.043   0.139   0.182
    1res  C11   11    0.345  -0.106   0.110
    1res  C12   12    0.484   0.031   0.290
    1res  C13   13    0.415   0.129   0.009
    1res  C14   14    0.594   0.104  -0.068
    1res  C15   15    0.808  -0.047  -0.134
    1res  C16   16    0.917   0.090   0.060
    1res  C17   17    1.126   0.003  -0.072
    1res  C18   18    1.297  -0.109  -0.312
    1res  C19   19    1.355   0.186  -0.137
    1res  C20   20    1.418   0.093   0.058
    1res  C21   21    1.202   0.152   0.163
    1res  C22   22    0.846   0.291   0.104
    1res  C23   23    0.705   0.335  -0.087
    1res  C24   24    0.195   0.232  -0.024
    1res  C25   25   -0.133  -0.082  -0.090
    1res  C26   26   -1.101  -0.308  -0.150
    1res  C27   27   -1.264  -0.141  -0.134
    1res  C28   28   -1.277  -0.079   0.078
  10.00000  10.00000  10.00000
