[ moleculetype ]
; name        nrexcl
res           1

[ atoms ]
;    nr  type  resnr resid  atom  cgnr     charge       mass
      1 TN6a      1 res   C1        1      0.000     36.000
      2 TN6a      1 res   C2        2      0.000     36.000
      3 TC6       1 res   C3        3      0.000     36.000
      4 TC5       1 res   C4        4      0.000     36.000

[ bonds ]
;  ai    aj   funct      b0(nm)          k(kJ/mol/nm^2)
    1     2     1      0.22272         434960.1
    1     4     1      0.28440         255706.4
    2     3     1      0.26254          31468.3
    2     4     1      0.23544         322437.2

[ angles ]
;  ai    aj    ak  funct     th0(deg)        k(kJ/mol/rad^2)
    1     2     3     1    123.04378           345.34
    1     2     4     1     76.68622          8113.57
    1     4     2     1     49.64668         16976.26
    2     1     4     1     53.66710         11464.90
    3     2     4     1    154.03710           336.35

[ dihedrals ]
;  ai    aj    ak    al  funct   phi0(deg)        k(kJ/mol)   mult
    1     4     2     3     1     -6.32089       31.566      1
    1     4     2     3     1    163.26133       12.545      2
    1     4     2     3     1   -161.94720        3.679      3
    3     2     1     4     1      2.55796       23.357      1
    3     2     1     4     1   -174.80158       18.895      2
    3     2     1     4     1      8.13674       12.705      3
