[ moleculetype ]
; name        nrexcl
res           1

[ atoms ]
;    nr  type  resnr resid  atom  cgnr     charge       mass
      1 TC3       1 res   C1        1      0.000     36.000
      2 TC3       1 res   C2        2      0.000     36.000
      3 SN1       1 res   C3        3      0.000     54.000
      4 TC3       1 res   C4        4      0.000     36.000
      5 TC5       1 res   C5        5      0.000     36.000
      6 TN1       1 res   C6        6      0.000     36.000
      7 TC5       1 res   C7        7      0.000     36.000
      8 TC5       1 res   C8        8      0.000     36.000
      9 TC5       1 res   C9        9      0.000     36.000
     10 N4a       1 res   C10      10      0.000     72.000
     11 TC3       1 res   C11      11      0.000     36.000

[ constraints ]
;  ai    aj   funct      b0(nm)
    1     2     1      0.24551
    5    11     1      0.28392
    2     3     1      0.31020
    4     5     1      0.24875
    2     6     1      0.22219
    3    11     1      0.27526
    5     7     1      0.18349
    7     9     1      0.25025
    3     4     1      0.29260
    7     8     1      0.24998
    5     6     1      0.27207
    6     7     1      0.25714
    2    11     1      0.24871
    6    10     1      0.32776
    8     9     1      0.29070

[ bonds ]
;  ai    aj   funct      b0(nm)          k(kJ/mol/nm^2)

[ angles ]
;  ai    aj    ak  funct     th0(deg)        k(kJ/mol/rad^2)
    1     2     3     1     99.77857           281.40
    1     2     6     1    121.50608            74.35
    1     2    11     1    150.28152           103.61
    2     3     4     1    115.39587          1034.50
    2     3    11     1     49.83784          3156.35
    2     6     5     1     98.04350          1572.86
    2     6     7     1    134.73670           623.24
    2     6    10     1    104.22634           398.84
    2    11     3     1     72.41517          1309.25
    2    11     5     1     89.12994          1504.34
    3     2     6     1    101.74709          1271.54
    3     2    11     1     57.74685          2716.70
    3     4     5     1     77.09023          1946.96
    3    11     5     1     74.63809          2374.60
    4     3    11     1     89.40777          1124.94
    4     5     6     1    137.50097           564.37
    4     5     7     1    124.93890           589.87
    4     5    11     1     96.97076          1875.83
    5     6     7     1     40.45810          6150.09
    5     6    10     1    130.77948           160.91
    5     7     6     1     74.14845          3189.52
    5     7     8     1    160.67906          1282.78
    5     7     9     1    126.72549          1894.11
    6     2    11     1     83.56361          2306.54
    6     5     7     1     65.39336          2931.74
    6     5    11     1     68.81529          3791.09
    6     7     8     1     87.68660          1118.73
    6     7     9     1    151.67980           364.14
    7     5    11     1    132.37756          1543.82
    7     6    10     1    116.46853           355.09
    7     8     9     1     54.51225          6743.65
    7     9     8     1     54.42060          8721.30
    8     7     9     1     71.06712          4604.38

[ dihedrals ]
;  ai    aj    ak    al  funct   phi0(deg)        k(kJ/mol)   mult
    1     2     3     4     1    -48.30703       19.069      1
    1     2     3    11     1     17.41245       16.391      1
    1     2     6     5     1     52.00319        9.274      1
    1     2     6     7     1     70.77833       11.494      1
    1     2     6    10     1    -85.84911       16.410      1
    1     2    11     3     1   -149.99276       20.107      1
    1     2    11     5     1    -74.61849       19.622      1
    2     3     4     5     1   -170.25886        9.285      1
    2     3    11     5     1     85.99586        4.808      1
    2     6     5     4     1   -137.01970       11.491      1
    2     6     5     7     1    -21.03244       10.054      1
    2     6     5    11     1    147.90093        6.279      1
    2     6     7     5     1    150.10752       12.237      1
    2     6     7     8     1    -28.16336       15.069      1
    2     6     7     9     1    -63.30431       17.610      1
    2    11     3     4     1    -55.96087        7.838      1
    2    11     5     4     1     70.22545        7.776      1
    2    11     5     6     1   -150.98415        5.545      1
    2    11     5     7     1   -136.06659       13.604      1
    3     2     6     5     1    161.97649        9.293      1
    3     2     6     7     1   -179.99004       12.238      1
    3     2     6    10     1     25.67031       15.027      1
    3     2    11     5     1   -106.01431        4.737      1
    3     4     5     6     1    150.04036       10.719      1
    3     4     5     7     1     57.84847       12.211      1
    3     4     5    11     1   -145.96636        7.771      1
    3    11     2     6     1     70.83274        7.023      1
    3    11     5     4     1    143.12853        8.534      1
    3    11     5     6     1    -77.09469        8.533      1
    3    11     5     7     1    -63.87167       13.669      1
    4     3     2     6     1   -170.75310       11.468      1
    4     3     2    11     1    114.96754        8.578      1
    4     3    11     5     1   -149.24333        6.982      1
    4     5     6     7     1     63.06755       11.482      1
    4     5     6    10     1    -19.27839       14.318      1
    4     5     7     6     1    -47.03045       10.021      1
    4     5     7     8     1    -38.23765       23.292      1
    4     5     7     9     1    153.11836       14.320      1
    5     4     3    11     1    144.24604        7.749      1
    5     6     2    11     1   -143.05937        7.051      1
    5     6     7     8     1      2.78633       11.468      1
    5     6     7     9     1    -32.45726       16.974      1
    5     7     6    10     1    -56.07716       13.722      1
    5     7     8     9     1     10.41653       26.220      1
    5     7     9     8     1     -6.98134       14.332      1
    5    11     2     6     1    146.01813        6.294      1
    6     2     3    11     1   -105.96868        6.277      1
    6     5     7     8     1   -169.58810       24.011      1
    6     5     7     9     1     21.01974       14.319      1
    6     7     5    11     1    165.07960       11.516      1
    6     7     8     9     1     18.13642       12.156      1
    6     7     9     8     1   -140.85992       16.265      1
    7     5     6    10     1     96.21340       13.633      1
    7     6     2    11     1   -125.28185       10.058      1
    7     6     5    11     1    -11.10559       10.025      1
    8     7     5    11     1    172.58994       23.783      1
    8     7     6    10     1    127.08194       18.461      1
    9     7     5    11     1      5.78586       16.325      1
    9     7     6    10     1     89.51635       18.327      1
   10     6     2    11     1     81.79740       13.616      1
   10     6     5    11     1    -94.82778       10.032      1
