[ moleculetype ]
; name        nrexcl
res           1

[ atoms ]
;    nr  type resnr resid  atom  cgnr     charge       mass
      1 SC4       1 res   C1        1      0.000     54.000
      2 SC5       1 res   C2        2      0.000     54.000
      3 SC5       1 res   C3        3      0.000     54.000
      4 SC4       1 res   C4        4      0.000     54.000
      5 SN6       1 res   C5        5      0.000     54.000
      6 TN6d      1 res   C6        6      0.000     36.000
      7 SN6       1 res   C7        7      0.000     54.000
      8 SN6       1 res   C8        8      0.000     54.000
      9 TN6       1 res   C9        9      0.000     36.000

[ bonds ]
;  ai    aj   funct      b0(nm)        k
    1     2     1      0.33847    20000
    1     7     1      0.31762    20000
    2     3     1      0.24456    20000
    2     6     1      0.25514    20000
    2     7     1      0.35879    20000
    2     8     1      0.34856    20000
    3     4     1      0.27480    20000
    3     5     1      0.36332    20000
    3     6     1      0.23781    20000
    3     8     1      0.37840    20000
    4     5     1      0.33706    20000
    4     9     1      0.27635    20000
    6     9     1      0.25587    20000
    7     8     1      0.30408    20000
