[ moleculetype ]
; name        nrexcl
res           1

[ atoms ]
;    nr  type  resnr resid  atom  cgnr     charge       mass
      1 TX2       1 res   C1        1      0.000     36.000
      2 TC5       1 res   C2        2      0.000     36.000
      3 TX3       1 res   C3        3      0.000     36.000
      4 TX2       1 res   C4        4      0.000     36.000
      5 SN2a      1 res   C5        5      0.000     54.000

[ bonds ]
;  ai    aj   funct      b0(nm)          k(kJ/mol/nm^2)
    1     2     1      0.29191         148863.3
    1     5     1      0.29578           3168.0
    2     3     1      0.13019         159956.4
    2     4     1      0.29164         142460.3
    4     5     1      0.29269           3182.0

[ angles ]
;  ai    aj    ak  funct     th0(deg)        k(kJ/mol/rad^2)
    1     2     3     1    135.86168           824.35
    1     2     4     1     86.81633          3158.07
    1     5     4     1     85.39360          2715.50
    2     1     5     1     90.02227           211.88
    2     4     5     1     90.66137           233.59
    3     2     4     1    136.21802           936.31

[ dihedrals ]
;  ai    aj    ak    al  funct   phi0(deg)        k(kJ/mol)   mult
    1     2     4     5     1    175.56491       20.699      1
    1     2     4     5     1    170.49408       16.944      2
    1     2     4     5     1    163.37634       11.609      3
    1     5     4     2     1   -176.72216       20.108      1
    1     5     4     2     1   -172.93562       16.690      2
    1     5     4     2     1   -167.54616       11.738      3
    2     1     5     4     1    176.12409       20.217      1
    2     1     5     4     1    171.90211       17.037      2
    2     1     5     4     1    166.63679       12.376      3
    3     2     1     5     1      8.69378       26.864      1
    3     2     1     5     1   -162.25040       20.166      2
    3     2     1     5     1     28.06029       11.465      3
    3     2     4     5     1     -5.69136       26.478      1
    3     2     4     5     1    168.68709       18.834      2
    3     2     4     5     1    -16.67354        9.250      3
    4     2     1     5     1   -176.74960       20.128      1
    4     2     1     5     1   -173.06346       16.722      2
    4     2     1     5     1   -167.98134       11.766      3
