1TPCN06093
13
    1res  C1    1    0.509   0.252   0.408
    1res  C2    2    0.571  -0.050   0.206
    1res  C3    3    0.499  -0.309   0.201
    1res  C4    4    0.410  -0.207  -0.068
    1res  C5    5    0.192  -0.085  -0.123
    1res  C6    6    0.073   0.055  -0.257
    1res  C7    7   -0.182  -0.065  -0.168
    1res  C8    8   -0.194   0.249  -0.082
    1res  C9    9   -0.394   0.036  -0.145
    1res  C10   10   -0.534   0.268   0.079
    1res  C11   11   -0.691   0.104  -0.048
    1res  C12   12   -0.521  -0.120   0.034
    1res  C13   13   -0.072  -0.151   0.056
  10.00000  10.00000  10.00000
