1TPCN00863
7
    1res  C1    1    0.322   0.138  -0.089
    1res  C2    2    0.153  -0.077   0.101
    1res  C3    3    0.021   0.181   0.133
    1res  C4    4   -0.167  -0.019   0.158
    1res  C5    5   -0.307   0.031  -0.072
    1res  C6    6   -0.259  -0.205  -0.166
    1res  C7    7   -0.022  -0.294  -0.112
  10.00000  10.00000  10.00000
