[ moleculetype ]
; name        nrexcl
res           1

[ atoms ]
;    nr  type resnr resid  atom  cgnr     charge       mass
      1 SC4       1 res   C1        1      0.000     54.000
      2 TC3       1 res   C2        2      0.000     36.000
      3 SC3       1 res   C3        3      0.000     54.000
      4 TC3       1 res   C4        4      0.000     36.000
      5 SN4a      1 res   C5        5      0.000     54.000
      6 TC5       1 res   C6        6      0.000     36.000
      7 TC5       1 res   C7        7      0.000     36.000
      8 TN6       1 res   C8        8      0.000     36.000
      9 SN2a      1 res   C9        9      0.000     54.000
     10 SC4       1 res   C10      10      0.000     54.000
     11 TC3       1 res   C11      11      0.000     36.000
     12 SN4a      1 res   C12      12      0.000     54.000
     13 TC5       1 res   C13      13      0.000     36.000
     14 TC5       1 res   C14      14      0.000     36.000
     15 TN6       1 res   C15      15      0.000     36.000
     16 SN2a      1 res   C16      16      0.000     54.000
     17 SC4       1 res   C17      17      0.000     54.000
     18 SC4       1 res   C18      18      0.000     54.000
     19 TC3       1 res   C19      19      0.000     36.000
     20 TN6       1 res   C20      20      0.000     36.000
     21 SC4       1 res   C21      21      0.000     54.000
     22 TC3       1 res   C22      22      0.000     36.000

[ bonds ]
;  ai    aj   funct      b0(nm)        k
    1     2     1      0.29091    20000
    2     3     1      0.22587    20000
    3     4     1      0.26708    20000
    3    10     1      0.36389    20000
    4     5     1      0.24620    20000
    4    10     1      0.26991    20000
    5     6     1      0.24989    20000
    6     7     1      0.30178    20000
    6     9     1      0.29279    20000
    7     8     1      0.31748    20000
    8     9     1      0.34308    20000
   10    11     1      0.28142    20000
   10    17     1      0.29179    20000
   11    12     1      0.23363    20000
   11    17     1      0.29166    20000
   12    13     1      0.25034    20000
   13    14     1      0.30166    20000
   13    16     1      0.29268    20000
   14    15     1      0.31743    20000
   15    16     1      0.34319    20000
   17    18     1      0.33451    20000
   17    22     1      0.28518    20000
   18    19     1      0.27502    20000
   18    21     1      0.32964    20000
   18    22     1      0.32011    20000
   19    20     1      0.29258    20000
   20    21     1      0.24643    20000
