[ moleculetype ]
; name        nrexcl
res           1

[ atoms ]
;    nr  type  resnr resid  atom  cgnr     charge       mass
      1 TC3       1 res   C1        1      0.000     36.000
      2 TC3       1 res   C2        2      0.000     36.000
      3 TN4a      1 res   C3        3      0.000     36.000
      4 TN6       1 res   C4        4      0.000     36.000
      5 TN4a      1 res   C5        5      0.000     36.000
      6 TP1       1 res   C6        6      0.000     36.000
      7 TN6       1 res   C7        7      0.000     36.000
      8 TN6       1 res   C8        8      0.000     36.000
      9 TN6       1 res   C9        9      0.000     36.000
     10 TC5       1 res   C10      10      0.000     36.000
     11 N4a       1 res   C11      11      0.000     72.000
     12 SN4a      1 res   C12      12      0.000     54.000
     13 N3r       1 res   C13      13      0.000     72.000
     14 SC3       1 res   C14      14      0.000     54.000
     15 TN6       1 res   C15      15      0.000     36.000
     16 TC4       1 res   C16      16      0.000     36.000
     17 N4a       1 res   C17      17      0.000     72.000
     18 TC3       1 res   C18      18      0.000     36.000
     19 TC5       1 res   C19      19      0.000     36.000
     20 N4a       1 res   C20      20      0.000     72.000
     21 TN4a      1 res   C21      21      0.000     36.000
     22 TN6       1 res   C22      22      0.000     36.000
     23 TN4a      1 res   C23      23      0.000     36.000
     24 TP1       1 res   C24      24      0.000     36.000
     25 TN6       1 res   C25      25      0.000     36.000
     26 TN6       1 res   C26      26      0.000     36.000
     27 TN6       1 res   C27      27      0.000     36.000
     28 TC3       1 res   C28      28      0.000     36.000

[ bonds ]
;  ai    aj   funct      b0(nm)          k(kJ/mol/nm^2)
    1     2     1      0.31071          88502.3
    2     3     1      0.27612         163367.9
    2    10     1      0.26771         115040.6
    2    12     1      0.22789          24279.9
    3     4     1      0.19857          37029.7
    3    10     1      0.26336         170304.3
    4     5     1      0.23612          37507.8
    4     9     1      0.21675          49112.5
    5     6     1      0.22459          83099.6
    5     7     1      0.24355          25765.0
    7     8     1      0.22154          15074.4
    8     9     1      0.26248          21635.8
   10    11     1      0.32303          32203.5
   13    14     1      0.27151          64479.1
   14    15     1      0.26054          78198.4
   14    16     1      0.30899          22154.0
   14    17     1      0.41469          22595.5
   15    16     1      0.28641          39673.2
   17    18     1      0.32769          23369.3
   18    19     1      0.26995         118516.4
   18    21     1      0.27071          71279.1
   18    28     1      0.24877          30999.5
   19    20     1      0.32370          27470.8
   19    21     1      0.25961          54600.8
   21    22     1      0.23963          66841.7
   22    23     1      0.27229          68128.3
   22    27     1      0.21642          71253.8
   23    24     1      0.21036          90753.3
   23    25     1      0.21568          37267.5
   25    26     1      0.22515          18259.5
   26    27     1      0.27293          26113.4

[ angles ]
;  ai    aj    ak  funct     th0(deg)        k(kJ/mol/rad^2)
    1     2     3     1     64.91960          1345.89
    1     2    10     1    118.36736           432.31
    1     2    12     1    111.42934           175.46
    2     3     4     1    111.58543           368.87
    2     3    10     1     59.44559          5153.78
    2    10     3     1     62.64517          6597.52
    2    10    11     1     99.42700           834.45
    3     2    10     1     57.90922          5110.50
    3     2    12     1    114.90000           374.36
    3     4     5     1    101.09363           217.86
    3     4     9     1    142.06659           163.70
    3    10    11     1    159.42916           468.40
    4     3    10     1     94.56363           144.66
    4     5     6     1    160.50654           434.94
    4     5     7     1    115.64364           856.70
    4     9     8     1     84.31745           417.28
    5     4     9     1     87.55304           469.11
    5     7     8     1     79.71941           316.02
    6     5     7     1     73.19779          1176.83
    7     8     9     1     92.98728           292.55
   10     2    12     1    110.56292           762.19
   13    14    15     1    147.58148           385.66
   13    14    16     1    145.00283           313.27
   13    14    17     1     80.31618           692.87
   14    15    16     1     68.66905           639.40
   14    16    15     1     51.66234          3607.69
   14    17    18     1    104.63405           345.83
   15    14    16     1     59.66832           945.49
   15    14    17     1    119.81248           443.38
   16    14    17     1     69.22139           277.66
   17    18    19     1     94.67227           366.17
   17    18    21     1    115.65125           290.21
   17    18    28     1    119.51191           100.26
   18    19    20     1     97.07873           571.42
   18    19    21     1     61.44017          4974.82
   18    21    19     1     61.17050          3231.03
   18    21    22     1    123.32195           258.88
   19    18    21     1     57.38938          3643.53
   19    18    28     1    144.42173           115.22
   19    21    22     1    129.87115            50.88
   20    19    21     1    156.04612           422.35
   21    18    28     1    100.37290           640.65
   21    22    23     1     81.77141          1412.67
   21    22    27     1     88.17287           660.87
   22    23    24     1    109.08547           527.73
   22    23    25     1     87.67596           591.16
   22    27    26     1     86.12648           503.71
   23    22    27     1     83.26429           943.96
   23    25    26     1    104.95189           323.75
   24    23    25     1    117.34475           643.86
   25    26    27     1     97.58637           642.50
