Generated with MDTraj, t= 0.0
 55
    1UNL     C1    1  -0.066  -0.348   0.110
    1UNL     C2    2  -0.177  -0.306   0.015
    1UNL     C3    3  -0.166  -0.160  -0.034
    1UNL     C4    4  -0.044  -0.137  -0.125
    1UNL     N1    5  -0.009   0.008  -0.133
    1UNL     C5    6   0.074   0.050  -0.249
    1UNL     C6    7   0.220   0.004  -0.237
    1UNL     C7    8   0.270   0.020  -0.098
    1UNL     C8    9   0.189   0.047   0.010
    1UNL     N2   10   0.266   0.057   0.124
    1UNL     C9   11   0.398   0.037   0.090
    1UNL    C10   12   0.516   0.037   0.166
    1UNL    C11   13   0.635   0.014   0.104
    1UNL    C12   14   0.641  -0.011  -0.035
    1UNL    C13   15   0.528  -0.012  -0.111
    1UNL    C14   16   0.404   0.012  -0.049
    1UNL    C15   17   0.041   0.064  -0.001
    1UNL    C16   18  -0.033   0.001   0.119
    1UNL    C17   19  -0.173  -0.056   0.083
    1UNL    C18   20  -0.275   0.052   0.060
    1UNL    C19   21  -0.270   0.129  -0.052
    1UNL     O1   22  -0.354   0.229  -0.088
    1UNL    C20   23  -0.317   0.288  -0.210
    1UNL    C21   24  -0.375   0.072   0.164
    1UNL     O2   25  -0.375  -0.002   0.262
    1UNL     O3   26  -0.466   0.174   0.148
    1UNL    C22   27  -0.552   0.178   0.257
    1UNL     H1   28   0.033  -0.339   0.065
    1UNL     H2   29  -0.077  -0.453   0.141
    1UNL     H3   30  -0.066  -0.288   0.201
    1UNL     H4   31  -0.178  -0.372  -0.073
    1UNL     H5   32  -0.274  -0.320   0.063
    1UNL     H6   33  -0.256  -0.140  -0.096
    1UNL     H7   34  -0.062  -0.174  -0.226
    1UNL     H8   35   0.043  -0.191  -0.087
    1UNL     H9   36   0.027   0.012  -0.340
    1UNL    H10   37   0.069   0.159  -0.256
    1UNL    H11   38   0.284   0.061  -0.306
    1UNL    H12   39   0.229  -0.101  -0.267
    1UNL    H13   40   0.232   0.081   0.217
    1UNL    H14   41   0.510   0.056   0.272
    1UNL    H15   42   0.726   0.014   0.161
    1UNL    H16   43   0.737  -0.029  -0.081
    1UNL    H17   44   0.531  -0.030  -0.217
    1UNL    H18   45   0.019   0.171  -0.004
    1UNL    H19   46   0.030  -0.078   0.160
    1UNL    H20   47  -0.043   0.075   0.199
    1UNL    H21   48  -0.209  -0.112   0.172
    1UNL    H22   49  -0.191   0.110  -0.122
    1UNL    H23   50  -0.216   0.331  -0.201
    1UNL    H24   51  -0.319   0.214  -0.289
    1UNL    H25   52  -0.387   0.368  -0.233
    1UNL    H26   53  -0.623   0.259   0.244
    1UNL    H27   54  -0.493   0.193   0.348
    1UNL    H28   55  -0.605   0.082   0.264
   0.00000   0.00000   0.00000   0.00000   0.00000   0.00000   0.00000   0.00000   0.00000
Generated with MDTraj, t= 1.0
 55
    1UNL     C1    1  -0.058  -0.364   0.077
    1UNL     C2    2  -0.179  -0.322   0.002
    1UNL     C3    3  -0.179  -0.171  -0.038
    1UNL     C4    4  -0.058  -0.141  -0.132
    1UNL     N1    5  -0.008  -0.003  -0.117
    1UNL     C5    6   0.072   0.044  -0.229
    1UNL     C6    7   0.216  -0.013  -0.224
    1UNL     C7    8   0.273  -0.001  -0.086
    1UNL     C8    9   0.194   0.003   0.033
    1UNL     N2   10   0.281   0.019   0.143
    1UNL     C9   11   0.410   0.024   0.092
    1UNL    C10   12   0.533   0.057   0.154
    1UNL    C11   13   0.648   0.064   0.084
    1UNL    C12   14   0.644   0.043  -0.056
    1UNL    C13   15   0.524   0.023  -0.122
    1UNL    C14   16   0.405   0.013  -0.046
    1UNL    C15   17   0.043   0.026   0.018
    1UNL    C16   18  -0.047  -0.016   0.134
    1UNL    C17   19  -0.190  -0.069   0.087
    1UNL    C18   20  -0.282   0.050   0.063
    1UNL    C19   21  -0.259   0.127  -0.044
    1UNL     O1   22  -0.345   0.233  -0.076
    1UNL    C20   23  -0.314   0.303  -0.202
    1UNL    C21   24  -0.382   0.079   0.156
    1UNL     O2   25  -0.392   0.023   0.265
    1UNL     O3   26  -0.474   0.179   0.123
    1UNL    C22   27  -0.546   0.223   0.238
    1UNL     H1   28   0.032  -0.374   0.027
    1UNL     H2   29  -0.073  -0.466   0.123
    1UNL     H3   30  -0.038  -0.299   0.158
    1UNL     H4   31  -0.202  -0.382  -0.088
    1UNL     H5   32  -0.264  -0.325   0.074
    1UNL     H6   33  -0.267  -0.150  -0.102
    1UNL     H7   34  -0.082  -0.155  -0.237
    1UNL     H8   35   0.027  -0.200  -0.104
    1UNL     H9   36   0.030   0.010  -0.322
    1UNL    H10   37   0.073   0.151  -0.223
    1UNL    H11   38   0.276   0.031  -0.305
    1UNL    H12   39   0.217  -0.117  -0.253
    1UNL    H13   40   0.261  -0.010   0.235
    1UNL    H14   41   0.542   0.071   0.258
    1UNL    H15   42   0.737   0.057   0.145
    1UNL    H16   43   0.733   0.018  -0.115
    1UNL    H17   44   0.530  -0.002  -0.227
    1UNL    H18   45   0.054   0.139   0.020
    1UNL    H19   46   0.008  -0.088   0.194
    1UNL    H20   47  -0.057   0.074   0.194
    1UNL    H21   48  -0.230  -0.115   0.179
    1UNL    H22   49  -0.191   0.096  -0.123
    1UNL    H23   50  -0.213   0.263  -0.224
    1UNL    H24   51  -0.373   0.299  -0.297
    1UNL    H25   52  -0.324   0.412  -0.186
    1UNL    H26   53  -0.619   0.296   0.198
    1UNL    H27   54  -0.480   0.258   0.317
    1UNL    H28   55  -0.595   0.133   0.278
   0.00000   0.00000   0.00000   0.00000   0.00000   0.00000   0.00000   0.00000   0.00000
Generated with MDTraj, t= 2.0
 55
    1UNL     C1    1  -0.092  -0.386   0.094
    1UNL     C2    2  -0.207  -0.316   0.004
    1UNL     C3    3  -0.180  -0.169  -0.030
    1UNL     C4    4  -0.057  -0.149  -0.126
    1UNL     N1    5  -0.015  -0.006  -0.120
    1UNL     C5    6   0.061   0.048  -0.226
    1UNL     C6    7   0.206  -0.012  -0.228
    1UNL     C7    8   0.266  -0.004  -0.092
    1UNL     C8    9   0.192   0.005   0.019
    1UNL     N2   10   0.268   0.014   0.134
    1UNL     C9   11   0.397   0.011   0.092
    1UNL    C10   12   0.515   0.052   0.156
    1UNL    C11   13   0.632   0.093   0.086
    1UNL    C12   14   0.626   0.083  -0.051
    1UNL    C13   15   0.518   0.024  -0.117
    1UNL    C14   16   0.398  -0.003  -0.050
    1UNL    C15   17   0.039   0.035   0.017
    1UNL    C16   18  -0.037  -0.035   0.128
    1UNL    C17   19  -0.184  -0.071   0.088
    1UNL    C18   20  -0.263   0.053   0.069
    1UNL    C19   21  -0.241   0.129  -0.049
    1UNL     O1   22  -0.314   0.242  -0.092
    1UNL    C20   23  -0.270   0.292  -0.213
    1UNL    C21   24  -0.366   0.085   0.162
    1UNL     O2   25  -0.368   0.028   0.270
    1UNL     O3   26  -0.453   0.191   0.138
    1UNL    C22   27  -0.552   0.191   0.240
    1UNL     H1   28   0.002  -0.380   0.053
    1UNL     H2   29  -0.118  -0.499   0.097
    1UNL     H3   30  -0.092  -0.347   0.189
    1UNL     H4   31  -0.199  -0.370  -0.094
    1UNL     H5   32  -0.310  -0.324   0.049
    1UNL     H6   33  -0.263  -0.132  -0.094
    1UNL     H7   34  -0.097  -0.170  -0.224
    1UNL     H8   35   0.031  -0.204  -0.100
    1UNL     H9   36   0.008   0.034  -0.317
    1UNL    H10   37   0.085   0.150  -0.206
    1UNL    H11   38   0.276   0.039  -0.297
    1UNL    H12   39   0.202  -0.108  -0.272
    1UNL    H13   40   0.241   0.068   0.207
    1UNL    H14   41   0.512   0.060   0.268
    1UNL    H15   42   0.725   0.130   0.129
    1UNL    H16   43   0.721   0.109  -0.096
    1UNL    H17   44   0.520   0.008  -0.226
    1UNL    H18   45   0.033   0.149   0.018
    1UNL    H19   46   0.018  -0.124   0.154
    1UNL    H20   47  -0.041   0.033   0.211
    1UNL    H21   48  -0.226  -0.122   0.178
    1UNL    H22   49  -0.158   0.127  -0.119
    1UNL    H23   50  -0.171   0.340  -0.198
    1UNL    H24   51  -0.256   0.225  -0.302
    1UNL    H25   52  -0.348   0.362  -0.249
    1UNL    H26   53  -0.642   0.247   0.202
    1UNL    H27   54  -0.515   0.213   0.339
    1UNL    H28   55  -0.576   0.083   0.249
   0.00000   0.00000   0.00000   0.00000   0.00000   0.00000   0.00000   0.00000   0.00000
Generated with MDTraj, t= 3.0
 55
    1UNL     C1    1  -0.148  -0.366   0.108
    1UNL     C2    2  -0.239  -0.313   0.007
    1UNL     C3    3  -0.192  -0.181  -0.042
    1UNL     C4    4  -0.061  -0.170  -0.126
    1UNL     N1    5  -0.000  -0.034  -0.135
    1UNL     C5    6   0.070   0.015  -0.253
    1UNL     C6    7   0.226   0.001  -0.241
    1UNL     C7    8   0.270   0.019  -0.097
    1UNL     C8    9   0.188   0.027   0.018
    1UNL     N2   10   0.268   0.051   0.129
    1UNL     C9   11   0.402   0.056   0.089
    1UNL    C10   12   0.519   0.063   0.171
    1UNL    C11   13   0.638   0.065   0.100
    1UNL    C12   14   0.644   0.053  -0.044
    1UNL    C13   15   0.527   0.041  -0.116
    1UNL    C14   16   0.402   0.037  -0.053
    1UNL    C15   17   0.037   0.017  -0.002
    1UNL    C16   18  -0.037  -0.038   0.113
    1UNL    C17   19  -0.185  -0.077   0.079
    1UNL    C18   20  -0.269   0.048   0.063
    1UNL    C19   21  -0.248   0.123  -0.048
    1UNL     O1   22  -0.304   0.241  -0.086
    1UNL    C20   23  -0.251   0.304  -0.195
    1UNL    C21   24  -0.366   0.078   0.167
    1UNL     O2   25  -0.361   0.022   0.275
    1UNL     O3   26  -0.466   0.174   0.149
    1UNL    C22   27  -0.542   0.189   0.264
    1UNL     H1   28  -0.045  -0.362   0.081
    1UNL     H2   29  -0.169  -0.475   0.123
    1UNL     H3   30  -0.156  -0.319   0.202
    1UNL     H4   31  -0.245  -0.378  -0.086
    1UNL     H5   32  -0.342  -0.304   0.057
    1UNL     H6   33  -0.276  -0.141  -0.102
    1UNL     H7   34  -0.079  -0.196  -0.228
    1UNL     H8   35   0.006  -0.236  -0.075
    1UNL     H9   36   0.046  -0.034  -0.343
    1UNL    H10   37   0.045   0.117  -0.256
    1UNL    H11   38   0.274   0.064  -0.321
    1UNL    H12   39   0.269  -0.090  -0.275
    1UNL    H13   40   0.239   0.050   0.220
    1UNL    H14   41   0.518   0.083   0.272
    1UNL    H15   42   0.727   0.102   0.148
    1UNL    H16   43   0.735   0.079  -0.097
    1UNL    H17   44   0.536   0.034  -0.220
    1UNL    H18   45   0.008   0.127  -0.012
    1UNL    H19   46   0.019  -0.126   0.142
    1UNL    H20   47  -0.041   0.034   0.192
    1UNL    H21   48  -0.220  -0.138   0.166
    1UNL    H22   49  -0.185   0.077  -0.124
    1UNL    H23   50  -0.227   0.411  -0.201
    1UNL    H24   51  -0.160   0.257  -0.237
    1UNL    H25   52  -0.314   0.270  -0.279
    1UNL    H26   53  -0.590   0.291   0.249
    1UNL    H27   54  -0.488   0.170   0.356
    1UNL    H28   55  -0.620   0.110   0.255
   0.00000   0.00000   0.00000   0.00000   0.00000   0.00000   0.00000   0.00000   0.00000
Generated with MDTraj, t= 4.0
 55
    1UNL     C1    1  -0.164  -0.389   0.107
    1UNL     C2    2  -0.240  -0.305  -0.004
    1UNL     C3    3  -0.177  -0.171  -0.047
    1UNL     C4    4  -0.037  -0.183  -0.110
    1UNL     N1    5   0.002  -0.042  -0.147
    1UNL     C5    6   0.077  -0.013  -0.267
    1UNL     C6    7   0.231  -0.025  -0.242
    1UNL     C7    8   0.280   0.024  -0.109
    1UNL     C8    9   0.186   0.045  -0.008
    1UNL     N2   10   0.249   0.071   0.116
    1UNL     C9   11   0.388   0.082   0.084
    1UNL    C10   12   0.501   0.081   0.168
    1UNL    C11   13   0.623   0.052   0.112
    1UNL    C12   14   0.640   0.025  -0.025
    1UNL    C13   15   0.535   0.027  -0.106
    1UNL    C14   16   0.407   0.048  -0.050
    1UNL    C15   17   0.037   0.031  -0.021
    1UNL    C16   18  -0.029  -0.025   0.107
    1UNL    C17   19  -0.171  -0.074   0.081
    1UNL    C18   20  -0.260   0.042   0.062
    1UNL    C19   21  -0.246   0.129  -0.042
    1UNL     O1   22  -0.330   0.238  -0.066
    1UNL    C20   23  -0.289   0.327  -0.163
    1UNL    C21   24  -0.357   0.072   0.170
    1UNL     O2   25  -0.363   0.001   0.270
    1UNL     O3   26  -0.439   0.178   0.148
    1UNL    C22   27  -0.524   0.202   0.258
    1UNL     H1   28  -0.061  -0.419   0.088
    1UNL     H2   29  -0.205  -0.479   0.144
    1UNL     H3   30  -0.152  -0.327   0.195
    1UNL     H4   31  -0.261  -0.365  -0.101
    1UNL     H5   32  -0.342  -0.279   0.042
    1UNL     H6   33  -0.244  -0.111  -0.110
    1UNL     H7   34  -0.066  -0.233  -0.201
    1UNL     H8   35   0.042  -0.223  -0.048
    1UNL     H9   36   0.042  -0.078  -0.343
    1UNL    H10   37   0.066   0.088  -0.291
    1UNL    H11   38   0.301   0.028  -0.314
    1UNL    H12   39   0.266  -0.121  -0.268
    1UNL    H13   40   0.206   0.086   0.205
    1UNL    H14   41   0.478   0.104   0.276
    1UNL    H15   42   0.705   0.070   0.181
    1UNL    H16   43   0.733   0.008  -0.076
    1UNL    H17   44   0.549   0.005  -0.214
    1UNL    H18   45  -0.003   0.136  -0.028
    1UNL    H19   46   0.034  -0.103   0.149
    1UNL    H20   47  -0.047   0.053   0.179
    1UNL    H21   48  -0.206  -0.138   0.165
    1UNL    H22   49  -0.174   0.115  -0.123
    1UNL    H23   50  -0.366   0.357  -0.235
    1UNL    H24   51  -0.244   0.416  -0.120
    1UNL    H25   52  -0.213   0.299  -0.235
    1UNL    H26   53  -0.613   0.270   0.227
    1UNL    H27   54  -0.471   0.251   0.336
    1UNL    H28   55  -0.559   0.104   0.295
   0.00000   0.00000   0.00000   0.00000   0.00000   0.00000   0.00000   0.00000   0.00000
Generated with MDTraj, t= 5.0
 55
    1UNL     C1    1  -0.136  -0.389   0.078
    1UNL     C2    2  -0.226  -0.306  -0.000
    1UNL     C3    3  -0.187  -0.170  -0.046
    1UNL     C4    4  -0.046  -0.166  -0.127
    1UNL     N1    5   0.005  -0.026  -0.162
    1UNL     C5    6   0.099  -0.027  -0.275
    1UNL     C6    7   0.243  -0.048  -0.233
    1UNL     C7    8   0.281  -0.003  -0.100
    1UNL     C8    9   0.192   0.044  -0.012
    1UNL     N2   10   0.259   0.090   0.102
    1UNL     C9   11   0.400   0.071   0.083
    1UNL    C10   12   0.509   0.106   0.164
    1UNL    C11   13   0.635   0.081   0.116
    1UNL    C12   14   0.652   0.015  -0.008
    1UNL    C13   15   0.542  -0.024  -0.085
    1UNL    C14   16   0.413   0.004  -0.043
    1UNL    C15   17   0.043   0.055  -0.034
    1UNL    C16   18  -0.036   0.003   0.090
    1UNL    C17   19  -0.182  -0.058   0.073
    1UNL    C18   20  -0.287   0.052   0.063
    1UNL    C19   21  -0.285   0.137  -0.049
    1UNL     O1   22  -0.359   0.250  -0.072
    1UNL    C20   23  -0.297   0.322  -0.175
    1UNL    C21   24  -0.366   0.070   0.181
    1UNL     O2   25  -0.370  -0.013   0.267
    1UNL     O3   26  -0.443   0.183   0.185
    1UNL    C22   27  -0.526   0.189   0.298
    1UNL     H1   28  -0.042  -0.404   0.022
    1UNL     H2   29  -0.175  -0.481   0.087
    1UNL     H3   30  -0.116  -0.334   0.172
    1UNL     H4   31  -0.230  -0.375  -0.097
    1UNL     H5   32  -0.331  -0.307   0.053
    1UNL     H6   33  -0.269  -0.130  -0.106
    1UNL     H7   34  -0.049  -0.232  -0.212
    1UNL     H8   35   0.032  -0.193  -0.059
    1UNL     H9   36   0.076  -0.100  -0.346
    1UNL    H10   37   0.092   0.066  -0.323
    1UNL    H11   38   0.317  -0.014  -0.312
    1UNL    H12   39   0.277  -0.148  -0.234
    1UNL    H13   40   0.231   0.159   0.176
    1UNL    H14   41   0.486   0.152   0.256
    1UNL    H15   42   0.724   0.091   0.174
    1UNL    H16   43   0.755  -0.018  -0.015
    1UNL    H17   44   0.546  -0.073  -0.178
    1UNL    H18   45   0.011   0.159  -0.058
    1UNL    H19   46   0.031  -0.071   0.131
    1UNL    H20   47  -0.041   0.080   0.164
    1UNL    H21   48  -0.212  -0.112   0.167
    1UNL    H22   49  -0.209   0.125  -0.123
    1UNL    H23   50  -0.282   0.264  -0.267
    1UNL    H24   51  -0.369   0.400  -0.197
    1UNL    H25   52  -0.206   0.380  -0.180
    1UNL    H26   53  -0.618   0.259   0.289
    1UNL    H27   54  -0.469   0.237   0.372
    1UNL    H28   55  -0.559   0.091   0.330
   0.00000   0.00000   0.00000   0.00000   0.00000   0.00000   0.00000   0.00000   0.00000
Generated with MDTraj, t= 6.0
 55
    1UNL     C1    1  -0.114  -0.361   0.081
    1UNL     C2    2  -0.225  -0.286  -0.014
    1UNL     C3    3  -0.184  -0.140  -0.056
    1UNL     C4    4  -0.057  -0.139  -0.127
    1UNL     N1    5  -0.001  -0.000  -0.157
    1UNL     C5    6   0.109  -0.020  -0.265
    1UNL     C6    7   0.240  -0.093  -0.212
    1UNL     C7    8   0.279  -0.029  -0.089
    1UNL     C8    9   0.194   0.043  -0.009
    1UNL     N2   10   0.264   0.111   0.088
    1UNL     C9   11   0.396   0.071   0.083
    1UNL    C10   12   0.511   0.118   0.152
    1UNL    C11   13   0.635   0.078   0.113
    1UNL    C12   14   0.647  -0.004  -0.003
    1UNL    C13   15   0.537  -0.045  -0.073
    1UNL    C14   16   0.407  -0.014  -0.027
    1UNL    C15   17   0.046   0.061  -0.024
    1UNL    C16   18  -0.023  -0.002   0.092
    1UNL    C17   19  -0.167  -0.045   0.065
    1UNL    C18   20  -0.276   0.062   0.059
    1UNL    C19   21  -0.278   0.148  -0.045
    1UNL     O1   22  -0.372   0.245  -0.068
    1UNL    C20   23  -0.355   0.314  -0.196
    1UNL    C21   24  -0.360   0.064   0.173
    1UNL     O2   25  -0.362  -0.034   0.247
    1UNL     O3   26  -0.447   0.174   0.189
    1UNL    C22   27  -0.511   0.168   0.309
    1UNL     H1   28  -0.031  -0.402   0.022
    1UNL     H2   29  -0.139  -0.442   0.142
    1UNL     H3   30  -0.074  -0.281   0.141
    1UNL     H4   31  -0.262  -0.343  -0.112
    1UNL     H5   32  -0.318  -0.278   0.058
    1UNL     H6   33  -0.256  -0.088  -0.120
    1UNL     H7   34  -0.067  -0.183  -0.225
    1UNL     H8   35   0.011  -0.200  -0.071
    1UNL     H9   36   0.072  -0.080  -0.341
    1UNL    H10   37   0.125   0.074  -0.308
    1UNL    H11   38   0.325  -0.113  -0.285
    1UNL    H12   39   0.224  -0.196  -0.188
    1UNL    H13   40   0.228   0.165   0.175
    1UNL    H14   41   0.500   0.189   0.231
    1UNL    H15   42   0.716   0.105   0.181
    1UNL    H16   43   0.742  -0.046  -0.032
    1UNL    H17   44   0.559  -0.108  -0.161
    1UNL    H18   45   0.017   0.166  -0.040
    1UNL    H19   46   0.039  -0.089   0.109
    1UNL    H20   47  -0.005   0.059   0.179
    1UNL    H21   48  -0.193  -0.108   0.155
    1UNL    H22   49  -0.214   0.139  -0.131
    1UNL    H23   50  -0.268   0.284  -0.258
    1UNL    H24   51  -0.436   0.306  -0.270
    1UNL    H25   52  -0.335   0.418  -0.180
    1UNL    H26   53  -0.539   0.275   0.343
    1UNL    H27   54  -0.445   0.143   0.383
    1UNL    H28   55  -0.599   0.104   0.306
   0.00000   0.00000   0.00000   0.00000   0.00000   0.00000   0.00000   0.00000   0.00000
Generated with MDTraj, t= 7.0
 55
    1UNL     C1    1  -0.137  -0.352   0.085
    1UNL     C2    2  -0.216  -0.286  -0.014
    1UNL     C3    3  -0.176  -0.145  -0.058
    1UNL     C4    4  -0.044  -0.144  -0.134
    1UNL     N1    5   0.013  -0.013  -0.162
    1UNL     C5    6   0.120  -0.015  -0.272
    1UNL     C6    7   0.251  -0.070  -0.223
    1UNL     C7    8   0.288  -0.021  -0.092
    1UNL     C8    9   0.200   0.050  -0.007
    1UNL     N2   10   0.273   0.109   0.092
    1UNL     C9   11   0.406   0.085   0.067
    1UNL    C10   12   0.522   0.123   0.142
    1UNL    C11   13   0.638   0.057   0.118
    1UNL    C12   14   0.651  -0.032   0.012
    1UNL    C13   15   0.544  -0.055  -0.073
    1UNL    C14   16   0.417  -0.003  -0.041
    1UNL    C15   17   0.048   0.058  -0.027
    1UNL    C16   18  -0.025   0.003   0.098
    1UNL    C17   19  -0.172  -0.049   0.065
    1UNL    C18   20  -0.277   0.059   0.064
    1UNL    C19   21  -0.291   0.141  -0.042
    1UNL     O1   22  -0.375   0.249  -0.051
    1UNL    C20   23  -0.395   0.287  -0.180
    1UNL    C21   24  -0.366   0.070   0.181
    1UNL     O2   25  -0.381  -0.032   0.249
    1UNL     O3   26  -0.434   0.194   0.199
    1UNL    C22   27  -0.536   0.175   0.287
    1UNL     H1   28  -0.030  -0.348   0.066
    1UNL     H2   29  -0.145  -0.463   0.076
    1UNL     H3   30  -0.160  -0.319   0.183
    1UNL     H4   31  -0.203  -0.351  -0.113
    1UNL     H5   32  -0.335  -0.281  -0.002
    1UNL     H6   33  -0.256  -0.106  -0.120
    1UNL     H7   34  -0.049  -0.208  -0.220
    1UNL     H8   35   0.036  -0.185  -0.074
    1UNL     H9   36   0.068  -0.065  -0.348
    1UNL    H10   37   0.134   0.084  -0.301
    1UNL    H11   38   0.336  -0.035  -0.288
    1UNL    H12   39   0.262  -0.176  -0.240
    1UNL    H13   40   0.243   0.175   0.175
    1UNL    H14   41   0.510   0.198   0.224
    1UNL    H15   42   0.723   0.090   0.175
    1UNL    H16   43   0.744  -0.084  -0.009
    1UNL    H17   44   0.552  -0.132  -0.148
    1UNL    H18   45   0.029   0.163  -0.045
    1UNL    H19   46   0.040  -0.073   0.142
    1UNL    H20   47  -0.031   0.079   0.174
    1UNL    H21   48  -0.198  -0.122   0.149
    1UNL    H22   49  -0.209   0.145  -0.115
    1UNL    H23   50  -0.310   0.350  -0.219
    1UNL    H24   51  -0.397   0.212  -0.266
    1UNL    H25   52  -0.472   0.363  -0.165
    1UNL    H26   53  -0.593   0.274   0.298
    1UNL    H27   54  -0.502   0.164   0.383
    1UNL    H28   55  -0.603   0.094   0.257
   0.00000   0.00000   0.00000   0.00000   0.00000   0.00000   0.00000   0.00000   0.00000
Generated with MDTraj, t= 8.0
 55
    1UNL     C1    1  -0.155  -0.374   0.091
    1UNL     C2    2  -0.244  -0.276   0.009
    1UNL     C3    3  -0.164  -0.141  -0.035
    1UNL     C4    4  -0.032  -0.151  -0.120
    1UNL     N1    5   0.012  -0.012  -0.158
    1UNL     C5    6   0.115  -0.011  -0.277
    1UNL     C6    7   0.253  -0.057  -0.233
    1UNL     C7    8   0.289   0.002  -0.098
    1UNL     C8    9   0.203   0.064  -0.015
    1UNL     N2   10   0.266   0.102   0.103
    1UNL     C9   11   0.402   0.072   0.084
    1UNL    C10   12   0.512   0.082   0.169
    1UNL    C11   13   0.634   0.034   0.120
    1UNL    C12   14   0.653  -0.023  -0.008
    1UNL    C13   15   0.545  -0.035  -0.090
    1UNL    C14   16   0.420   0.008  -0.044
    1UNL    C15   17   0.052   0.068  -0.041
    1UNL    C16   18  -0.016   0.030   0.094
    1UNL    C17   19  -0.165  -0.032   0.082
    1UNL    C18   20  -0.267   0.064   0.064
    1UNL    C19   21  -0.277   0.137  -0.052
    1UNL     O1   22  -0.384   0.219  -0.070
    1UNL    C20   23  -0.378   0.288  -0.191
    1UNL    C21   24  -0.367   0.071   0.176
    1UNL     O2   25  -0.370  -0.024   0.251
    1UNL     O3   26  -0.453   0.177   0.179
    1UNL    C22   27  -0.526   0.165   0.299
    1UNL     H1   28  -0.074  -0.404   0.029
    1UNL     H2   29  -0.197  -0.480   0.102
    1UNL     H3   30  -0.128  -0.325   0.179
    1UNL     H4   31  -0.291  -0.318  -0.091
    1UNL     H5   32  -0.341  -0.247   0.071
    1UNL     H6   33  -0.231  -0.095  -0.103
    1UNL     H7   34  -0.050  -0.198  -0.215
    1UNL     H8   35   0.042  -0.208  -0.069
    1UNL     H9   36   0.077  -0.081  -0.344
    1UNL    H10   37   0.102   0.087  -0.308
    1UNL    H11   38   0.317  -0.026  -0.320
    1UNL    H12   39   0.271  -0.164  -0.230
    1UNL    H13   40   0.221   0.171   0.175
    1UNL    H14   41   0.497   0.134   0.256
    1UNL    H15   42   0.732   0.056   0.163
    1UNL    H16   43   0.756  -0.043  -0.033
    1UNL    H17   44   0.554  -0.080  -0.186
    1UNL    H18   45   0.029   0.170  -0.061
    1UNL    H19   46   0.047  -0.041   0.144
    1UNL    H20   47  -0.020   0.115   0.161
    1UNL    H21   48  -0.192  -0.095   0.172
    1UNL    H22   49  -0.199   0.124  -0.126
    1UNL    H23   50  -0.320   0.384  -0.177
    1UNL    H24   51  -0.323   0.228  -0.266
    1UNL    H25   52  -0.472   0.328  -0.229
    1UNL    H26   53  -0.584   0.261   0.323
    1UNL    H27   54  -0.465   0.152   0.381
    1UNL    H28   55  -0.596   0.082   0.303
   0.00000   0.00000   0.00000   0.00000   0.00000   0.00000   0.00000   0.00000   0.00000
Generated with MDTraj, t= 9.0
 55
    1UNL     C1    1  -0.136  -0.363   0.095
    1UNL     C2    2  -0.224  -0.276   0.010
    1UNL     C3    3  -0.166  -0.143  -0.037
    1UNL     C4    4  -0.031  -0.156  -0.096
    1UNL     N1    5   0.019  -0.028  -0.141
    1UNL     C5    6   0.097  -0.015  -0.276
    1UNL     C6    7   0.248  -0.029  -0.253
    1UNL     C7    8   0.291   0.016  -0.112
    1UNL     C8    9   0.202   0.058  -0.017
    1UNL     N2   10   0.270   0.079   0.100
    1UNL     C9   11   0.403   0.055   0.083
    1UNL    C10   12   0.512   0.051   0.174
    1UNL    C11   13   0.634   0.025   0.124
    1UNL    C12   14   0.650  -0.008  -0.014
    1UNL    C13   15   0.547  -0.015  -0.100
    1UNL    C14   16   0.420   0.015  -0.051
    1UNL    C15   17   0.054   0.069  -0.033
    1UNL    C16   18  -0.032   0.036   0.092
    1UNL    C17   19  -0.169  -0.031   0.078
    1UNL    C18   20  -0.287   0.067   0.063
    1UNL    C19   21  -0.290   0.136  -0.051
    1UNL     O1   22  -0.369   0.231  -0.091
    1UNL    C20   23  -0.336   0.288  -0.217
    1UNL    C21   24  -0.374   0.078   0.179
    1UNL     O2   25  -0.361  -0.004   0.267
    1UNL     O3   26  -0.474   0.173   0.191
    1UNL    C22   27  -0.546   0.147   0.310
    1UNL     H1   28  -0.069  -0.420   0.039
    1UNL     H2   29  -0.199  -0.451   0.132
    1UNL     H3   30  -0.103  -0.297   0.170
    1UNL     H4   31  -0.264  -0.333  -0.084
    1UNL     H5   32  -0.321  -0.250   0.070
    1UNL     H6   33  -0.229  -0.104  -0.112
    1UNL     H7   34  -0.022  -0.238  -0.167
    1UNL     H8   35   0.043  -0.176  -0.020
    1UNL     H9   36   0.046  -0.085  -0.334
    1UNL    H10   37   0.076   0.083  -0.303
    1UNL    H11   38   0.308   0.028  -0.327
    1UNL    H12   39   0.271  -0.132  -0.278
    1UNL    H13   40   0.216   0.091   0.190
    1UNL    H14   41   0.515   0.089   0.280
    1UNL    H15   42   0.714   0.030   0.194
    1UNL    H16   43   0.744  -0.034  -0.060
    1UNL    H17   44   0.561  -0.035  -0.208
    1UNL    H18   45   0.021   0.163  -0.071
    1UNL    H19   46   0.026  -0.023   0.162
    1UNL    H20   47  -0.046   0.128   0.147
    1UNL    H21   48  -0.192  -0.087   0.174
    1UNL    H22   49  -0.222   0.107  -0.127
    1UNL    H23   50  -0.233   0.332  -0.214
    1UNL    H24   51  -0.358   0.205  -0.287
    1UNL    H25   52  -0.389   0.373  -0.257
    1UNL    H26   53  -0.639   0.213   0.318
    1UNL    H27   54  -0.489   0.160   0.397
    1UNL    H28   55  -0.581   0.043   0.326
   0.00000   0.00000   0.00000   0.00000   0.00000   0.00000   0.00000   0.00000   0.00000
Generated with MDTraj, t= 10.0
 55
    1UNL     C1    1  -0.124  -0.328   0.137
    1UNL     C2    2  -0.206  -0.296   0.013
    1UNL     C3    3  -0.171  -0.155  -0.041
    1UNL     C4    4  -0.040  -0.154  -0.120
    1UNL     N1    5  -0.002  -0.011  -0.144
    1UNL     C5    6   0.084   0.020  -0.269
    1UNL     C6    7   0.228  -0.014  -0.242
    1UNL     C7    8   0.276   0.022  -0.110
    1UNL     C8    9   0.192   0.047  -0.001
    1UNL     N2   10   0.269   0.068   0.111
    1UNL     C9   11   0.400   0.045   0.080
    1UNL    C10   12   0.511   0.050   0.161
    1UNL    C11   13   0.633   0.026   0.113
    1UNL    C12   14   0.648  -0.006  -0.020
    1UNL    C13   15   0.538  -0.018  -0.107
    1UNL    C14   16   0.409   0.011  -0.054
    1UNL    C15   17   0.048   0.063  -0.019
    1UNL    C16   18  -0.019   0.006   0.111
    1UNL    C17   19  -0.154  -0.059   0.083
    1UNL    C18   20  -0.260   0.060   0.068
    1UNL    C19   21  -0.265   0.140  -0.039
    1UNL     O1   22  -0.358   0.246  -0.059
    1UNL    C20   23  -0.350   0.287  -0.189
    1UNL    C21   24  -0.366   0.064   0.166
    1UNL     O2   25  -0.352   0.012   0.275
    1UNL     O3   26  -0.471   0.145   0.137
    1UNL    C22   27  -0.550   0.178   0.243
    1UNL     H1   28  -0.023  -0.316   0.127
    1UNL     H2   29  -0.123  -0.441   0.149
    1UNL     H3   30  -0.162  -0.277   0.221
    1UNL     H4   31  -0.175  -0.370  -0.069
    1UNL     H5   32  -0.321  -0.305   0.020
    1UNL     H6   33  -0.244  -0.116  -0.106
    1UNL     H7   34  -0.048  -0.193  -0.221
    1UNL     H8   35   0.036  -0.216  -0.075
    1UNL     H9   36   0.041  -0.035  -0.347
    1UNL    H10   37   0.072   0.121  -0.285
    1UNL    H11   38   0.287   0.037  -0.319
    1UNL    H12   39   0.239  -0.122  -0.259
    1UNL    H13   40   0.234   0.096   0.202
    1UNL    H14   41   0.488   0.069   0.262
    1UNL    H15   42   0.724   0.015   0.173
    1UNL    H16   43   0.741  -0.046  -0.057
    1UNL    H17   44   0.548  -0.046  -0.207
    1UNL    H18   45   0.023   0.165  -0.038
    1UNL    H19   46   0.049  -0.064   0.160
    1UNL    H20   47  -0.028   0.082   0.188
    1UNL    H21   48  -0.185  -0.117   0.174
    1UNL    H22   49  -0.183   0.139  -0.110
    1UNL    H23   50  -0.255   0.338  -0.218
    1UNL    H24   51  -0.394   0.208  -0.251
    1UNL    H25   52  -0.422   0.363  -0.202
    1UNL    H26   53  -0.628   0.254   0.210
    1UNL    H27   54  -0.497   0.204   0.331
    1UNL    H28   55  -0.606   0.090   0.285
   0.00000   0.00000   0.00000   0.00000   0.00000   0.00000   0.00000   0.00000   0.00000
Generated with MDTraj, t= 11.0
 55
    1UNL     C1    1  -0.068  -0.361   0.126
    1UNL     C2    2  -0.169  -0.318   0.022
    1UNL     C3    3  -0.165  -0.167  -0.028
    1UNL     C4    4  -0.049  -0.143  -0.130
    1UNL     N1    5  -0.013   0.000  -0.120
    1UNL     C5    6   0.068   0.046  -0.234
    1UNL     C6    7   0.214  -0.014  -0.232
    1UNL     C7    8   0.266   0.011  -0.093
    1UNL     C8    9   0.186   0.042   0.013
    1UNL     N2   10   0.272   0.067   0.124
    1UNL     C9   11   0.408   0.044   0.087
    1UNL    C10   12   0.533   0.054   0.152
    1UNL    C11   13   0.648   0.023   0.083
    1UNL    C12   14   0.645  -0.020  -0.050
    1UNL    C13   15   0.526  -0.022  -0.118
    1UNL    C14   16   0.407   0.005  -0.050
    1UNL    C15   17   0.038   0.055   0.006
    1UNL    C16   18  -0.046   0.002   0.127
    1UNL    C17   19  -0.176  -0.057   0.085
    1UNL    C18   20  -0.276   0.055   0.055
    1UNL    C19   21  -0.261   0.145  -0.047
    1UNL     O1   22  -0.338   0.258  -0.067
    1UNL    C20   23  -0.318   0.300  -0.205
    1UNL    C21   24  -0.373   0.082   0.160
    1UNL     O2   25  -0.355   0.046   0.273
    1UNL     O3   26  -0.488   0.154   0.124
    1UNL    C22   27  -0.577   0.154   0.227
    1UNL     H1   28   0.033  -0.368   0.099
    1UNL     H2   29  -0.087  -0.462   0.165
    1UNL     H3   30  -0.071  -0.294   0.209
    1UNL     H4   31  -0.163  -0.380  -0.073
    1UNL     H5   32  -0.275  -0.340   0.057
    1UNL     H6   33  -0.246  -0.152  -0.094
    1UNL     H7   34  -0.075  -0.171  -0.233
    1UNL     H8   35   0.038  -0.205  -0.106
    1UNL     H9   36   0.028   0.010  -0.323
    1UNL    H10   37   0.055   0.148  -0.240
    1UNL    H11   38   0.274   0.030  -0.311
    1UNL    H12   39   0.207  -0.124  -0.252
    1UNL    H13   40   0.248   0.107   0.209
    1UNL    H14   41   0.531   0.070   0.259
    1UNL    H15   42   0.741   0.024   0.136
    1UNL    H16   43   0.739  -0.054  -0.089
    1UNL    H17   44   0.513  -0.064  -0.220
    1UNL    H18   45   0.028   0.161  -0.012
    1UNL    H19   46   0.013  -0.075   0.177
    1UNL    H20   47  -0.061   0.077   0.206
    1UNL    H21   48  -0.216  -0.114   0.175
    1UNL    H22   49  -0.196   0.113  -0.129
    1UNL    H23   50  -0.216   0.338  -0.223
    1UNL    H24   51  -0.338   0.226  -0.282
    1UNL    H25   52  -0.391   0.372  -0.226
    1UNL    H26   53  -0.679   0.178   0.190
    1UNL    H27   54  -0.552   0.211   0.314
    1UNL    H28   55  -0.587   0.053   0.278
   0.00000   0.00000   0.00000   0.00000   0.00000   0.00000   0.00000   0.00000   0.00000
Generated with MDTraj, t= 12.0
 55
    1UNL     C1    1  -0.040  -0.363   0.096
    1UNL     C2    2  -0.162  -0.301   0.043
    1UNL     C3    3  -0.160  -0.152  -0.006
    1UNL     C4    4  -0.053  -0.121  -0.117
    1UNL     N1    5  -0.013   0.020  -0.120
    1UNL     C5    6   0.060   0.067  -0.240
    1UNL     C6    7   0.200  -0.006  -0.234
    1UNL     C7    8   0.260  -0.001  -0.093
    1UNL     C8    9   0.192   0.040   0.019
    1UNL     N2   10   0.276   0.052   0.128
    1UNL     C9   11   0.405   0.019   0.086
    1UNL    C10   12   0.525   0.035   0.152
    1UNL    C11   13   0.638   0.024   0.079
    1UNL    C12   14   0.632  -0.006  -0.062
    1UNL    C13   15   0.516  -0.026  -0.129
    1UNL    C14   16   0.399  -0.014  -0.052
    1UNL    C15   17   0.048   0.073   0.011
    1UNL    C16   18  -0.037   0.023   0.134
    1UNL    C17   19  -0.176  -0.041   0.105
    1UNL    C18   20  -0.274   0.063   0.070
    1UNL    C19   21  -0.263   0.132  -0.044
    1UNL     O1   22  -0.336   0.222  -0.106
    1UNL    C20   23  -0.258   0.290  -0.207
    1UNL    C21   24  -0.388   0.078   0.164
    1UNL     O2   25  -0.373   0.042   0.280
    1UNL     O3   26  -0.505   0.138   0.116
    1UNL    C22   27  -0.588   0.151   0.225
    1UNL     H1   28   0.028  -0.406   0.020
    1UNL     H2   29  -0.061  -0.448   0.156
    1UNL     H3   30   0.017  -0.290   0.151
    1UNL     H4   31  -0.191  -0.375  -0.036
    1UNL     H5   32  -0.241  -0.315   0.122
    1UNL     H6   33  -0.249  -0.141  -0.061
    1UNL     H7   34  -0.097  -0.138  -0.215
    1UNL     H8   35   0.036  -0.186  -0.109
    1UNL     H9   36   0.000   0.076  -0.325
    1UNL    H10   37   0.088   0.168  -0.242
    1UNL    H11   38   0.279   0.022  -0.303
    1UNL    H12   39   0.183  -0.115  -0.251
    1UNL    H13   40   0.256   0.073   0.219
    1UNL    H14   41   0.531   0.068   0.256
    1UNL    H15   42   0.729   0.054   0.134
    1UNL    H16   43   0.718  -0.004  -0.128
    1UNL    H17   44   0.519  -0.042  -0.234
    1UNL    H18   45   0.053   0.181  -0.002
    1UNL    H19   46   0.015  -0.051   0.194
    1UNL    H20   47  -0.058   0.108   0.200
    1UNL    H21   48  -0.215  -0.093   0.196
    1UNL    H22   49  -0.177   0.101  -0.099
    1UNL    H23   50  -0.152   0.281  -0.171
    1UNL    H24   51  -0.252   0.250  -0.310
    1UNL    H25   52  -0.293   0.389  -0.216
    1UNL    H26   53  -0.680   0.197   0.192
    1UNL    H27   54  -0.548   0.199   0.313
    1UNL    H28   55  -0.624   0.051   0.267
   0.00000   0.00000   0.00000   0.00000   0.00000   0.00000   0.00000   0.00000   0.00000
Generated with MDTraj, t= 13.0
 55
    1UNL     C1    1  -0.027  -0.335   0.125
    1UNL     C2    2  -0.160  -0.298   0.050
    1UNL     C3    3  -0.161  -0.155  -0.012
    1UNL     C4    4  -0.037  -0.141  -0.105
    1UNL     N1    5  -0.009   0.009  -0.121
    1UNL     C5    6   0.066   0.036  -0.243
    1UNL     C6    7   0.211   0.010  -0.243
    1UNL     C7    8   0.271   0.027  -0.102
    1UNL     C8    9   0.192   0.039   0.017
    1UNL     N2   10   0.274   0.034   0.126
    1UNL     C9   11   0.404   0.027   0.083
    1UNL    C10   12   0.527   0.012   0.153
    1UNL    C11   13   0.643  -0.009   0.078
    1UNL    C12   14   0.646  -0.021  -0.060
    1UNL    C13   15   0.524  -0.014  -0.130
    1UNL    C14   16   0.405   0.019  -0.057
    1UNL    C15   17   0.047   0.065   0.004
    1UNL    C16   18  -0.024   0.012   0.135
    1UNL    C17   19  -0.163  -0.045   0.099
    1UNL    C18   20  -0.264   0.064   0.072
    1UNL    C19   21  -0.258   0.145  -0.035
    1UNL     O1   22  -0.353   0.239  -0.087
    1UNL    C20   23  -0.321   0.298  -0.205
    1UNL    C21   24  -0.394   0.078   0.158
    1UNL     O2   25  -0.401   0.021   0.265
    1UNL     O3   26  -0.498   0.162   0.118
    1UNL    C22   27  -0.599   0.156   0.209
    1UNL     H1   28   0.061  -0.358   0.057
    1UNL     H2   29  -0.031  -0.425   0.172
    1UNL     H3   30   0.004  -0.255   0.192
    1UNL     H4   31  -0.174  -0.381  -0.023
    1UNL     H5   32  -0.233  -0.316   0.132
    1UNL     H6   33  -0.247  -0.138  -0.069
    1UNL     H7   34  -0.063  -0.189  -0.199
    1UNL     H8   35   0.059  -0.180  -0.066
    1UNL     H9   36   0.017  -0.005  -0.327
    1UNL    H10   37   0.047   0.133  -0.278
    1UNL    H11   38   0.266   0.081  -0.301
    1UNL    H12   39   0.241  -0.090  -0.284
    1UNL    H13   40   0.245   0.050   0.218
    1UNL    H14   41   0.529   0.034   0.255
    1UNL    H15   42   0.739  -0.005   0.121
    1UNL    H16   43   0.743  -0.030  -0.105
    1UNL    H17   44   0.515  -0.016  -0.238
    1UNL    H18   45   0.030   0.175  -0.006
    1UNL    H19   46   0.035  -0.067   0.183
    1UNL    H20   47  -0.038   0.094   0.208
    1UNL    H21   48  -0.209  -0.098   0.186
    1UNL    H22   49  -0.164   0.148  -0.090
    1UNL    H23   50  -0.275   0.395  -0.166
    1UNL    H24   51  -0.240   0.250  -0.265
    1UNL    H25   52  -0.416   0.311  -0.254
    1UNL    H26   53  -0.687   0.205   0.171
    1UNL    H27   54  -0.583   0.199   0.305
    1UNL    H28   55  -0.637   0.050   0.225
   0.00000   0.00000   0.00000   0.00000   0.00000   0.00000   0.00000   0.00000   0.00000
Generated with MDTraj, t= 14.0
 55
    1UNL     C1    1  -0.073  -0.302   0.179
    1UNL     C2    2  -0.169  -0.285   0.061
    1UNL     C3    3  -0.152  -0.149  -0.014
    1UNL     C4    4  -0.022  -0.138  -0.100
    1UNL     N1    5  -0.004   0.009  -0.121
    1UNL     C5    6   0.064   0.050  -0.252
    1UNL     C6    7   0.219   0.025  -0.252
    1UNL     C7    8   0.272   0.034  -0.104
    1UNL     C8    9   0.198   0.058   0.006
    1UNL     N2   10   0.281   0.046   0.113
    1UNL     C9   11   0.410   0.024   0.076
    1UNL    C10   12   0.521  -0.004   0.152
    1UNL    C11   13   0.642  -0.032   0.091
    1UNL    C12   14   0.642  -0.037  -0.052
    1UNL    C13   15   0.534  -0.012  -0.126
    1UNL    C14   16   0.413   0.022  -0.063
    1UNL    C15   17   0.048   0.077  -0.005
    1UNL    C16   18  -0.026   0.033   0.125
    1UNL    C17   19  -0.157  -0.038   0.093
    1UNL    C18   20  -0.272   0.056   0.057
    1UNL    C19   21  -0.265   0.141  -0.048
    1UNL     O1   22  -0.350   0.239  -0.079
    1UNL    C20   23  -0.355   0.304  -0.203
    1UNL    C21   24  -0.387   0.055   0.149
    1UNL     O2   25  -0.400  -0.029   0.236
    1UNL     O3   26  -0.483   0.157   0.133
    1UNL    C22   27  -0.578   0.143   0.225
    1UNL     H1   28   0.031  -0.263   0.165
    1UNL     H2   29  -0.048  -0.401   0.193
    1UNL     H3   30  -0.106  -0.258   0.272
    1UNL     H4   31  -0.162  -0.370  -0.011
    1UNL     H5   32  -0.270  -0.293   0.109
    1UNL     H6   33  -0.235  -0.139  -0.075
    1UNL     H7   34  -0.017  -0.184  -0.200
    1UNL     H8   35   0.058  -0.168  -0.030
    1UNL     H9   36   0.015   0.016  -0.338
    1UNL    H10   37   0.049   0.152  -0.266
    1UNL    H11   38   0.275   0.085  -0.322
    1UNL    H12   39   0.237  -0.083  -0.280
    1UNL    H13   40   0.252   0.056   0.211
    1UNL    H14   41   0.516  -0.005   0.264
    1UNL    H15   42   0.725  -0.068   0.154
    1UNL    H16   43   0.733  -0.072  -0.097
    1UNL    H17   44   0.531  -0.021  -0.234
    1UNL    H18   45   0.028   0.187  -0.007
    1UNL    H19   46   0.042  -0.040   0.171
    1UNL    H20   47  -0.034   0.118   0.196
    1UNL    H21   48  -0.198  -0.088   0.181
    1UNL    H22   49  -0.190   0.126  -0.123
    1UNL    H23   50  -0.245   0.331  -0.218
    1UNL    H24   51  -0.379   0.224  -0.275
    1UNL    H25   52  -0.426   0.385  -0.202
    1UNL    H26   53  -0.646   0.227   0.219
    1UNL    H27   54  -0.550   0.155   0.328
    1UNL    H28   55  -0.646   0.055   0.204
   0.00000   0.00000   0.00000   0.00000   0.00000   0.00000   0.00000   0.00000   0.00000
Generated with MDTraj, t= 15.0
 55
    1UNL     C1    1  -0.076  -0.313   0.183
    1UNL     C2    2  -0.156  -0.279   0.058
    1UNL     C3    3  -0.144  -0.135  -0.004
    1UNL     C4    4  -0.026  -0.119  -0.102
    1UNL     N1    5  -0.003   0.031  -0.138
    1UNL     C5    6   0.077   0.055  -0.266
    1UNL     C6    7   0.223   0.023  -0.251
    1UNL     C7    8   0.279   0.031  -0.106
    1UNL     C8    9   0.201   0.067   0.003
    1UNL     N2   10   0.279   0.074   0.114
    1UNL     C9   11   0.402   0.015   0.087
    1UNL    C10   12   0.522   0.004   0.155
    1UNL    C11   13   0.636  -0.037   0.093
    1UNL    C12   14   0.637  -0.054  -0.048
    1UNL    C13   15   0.523  -0.042  -0.123
    1UNL    C14   16   0.403  -0.012  -0.056
    1UNL    C15   17   0.058   0.099  -0.020
    1UNL    C16   18  -0.031   0.063   0.118
    1UNL    C17   19  -0.161  -0.015   0.097
    1UNL    C18   20  -0.283   0.071   0.066
    1UNL    C19   21  -0.270   0.147  -0.048
    1UNL     O1   22  -0.361   0.228  -0.105
    1UNL    C20   23  -0.320   0.291  -0.232
    1UNL    C21   24  -0.395   0.048   0.159
    1UNL     O2   25  -0.405  -0.057   0.217
    1UNL     O3   26  -0.483   0.153   0.173
    1UNL    C22   27  -0.582   0.113   0.263
    1UNL     H1   28   0.028  -0.285   0.174
    1UNL     H2   29  -0.066  -0.424   0.193
    1UNL     H3   30  -0.113  -0.269   0.272
    1UNL     H4   31  -0.134  -0.357  -0.019
    1UNL     H5   32  -0.266  -0.287   0.078
    1UNL     H6   33  -0.229  -0.132  -0.062
    1UNL     H7   34  -0.054  -0.174  -0.194
    1UNL     H8   35   0.071  -0.154  -0.059
    1UNL     H9   36   0.030  -0.001  -0.341
    1UNL    H10   37   0.075   0.154  -0.300
    1UNL    H11   38   0.278   0.091  -0.312
    1UNL    H12   39   0.240  -0.083  -0.286
    1UNL    H13   40   0.240   0.090   0.212
    1UNL    H14   41   0.525   0.008   0.260
    1UNL    H15   42   0.721  -0.065   0.151
    1UNL    H16   43   0.723  -0.085  -0.106
    1UNL    H17   44   0.521  -0.052  -0.228
    1UNL    H18   45   0.054   0.212  -0.032
    1UNL    H19   46   0.034   0.002   0.181
    1UNL    H20   47  -0.042   0.156   0.177
    1UNL    H21   48  -0.184  -0.056   0.195
    1UNL    H22   49  -0.174   0.126  -0.097
    1UNL    H23   50  -0.271   0.219  -0.303
    1UNL    H24   51  -0.421   0.319  -0.266
    1UNL    H25   52  -0.263   0.379  -0.220
    1UNL    H26   53  -0.657   0.187   0.288
    1UNL    H27   54  -0.544   0.103   0.362
    1UNL    H28   55  -0.643   0.024   0.224
   0.00000   0.00000   0.00000   0.00000   0.00000   0.00000   0.00000   0.00000   0.00000
Generated with MDTraj, t= 16.0
 55
    1UNL     C1    1  -0.022  -0.305   0.145
    1UNL     C2    2  -0.145  -0.277   0.055
    1UNL     C3    3  -0.146  -0.133  -0.009
    1UNL     C4    4  -0.035  -0.105  -0.110
    1UNL     N1    5  -0.006   0.039  -0.133
    1UNL     C5    6   0.082   0.054  -0.256
    1UNL     C6    7   0.223  -0.007  -0.243
    1UNL     C7    8   0.270   0.013  -0.101
    1UNL     C8    9   0.197   0.077   0.002
    1UNL     N2   10   0.280   0.084   0.111
    1UNL     C9   11   0.408   0.039   0.081
    1UNL    C10   12   0.526   0.022   0.156
    1UNL    C11   13   0.633  -0.046   0.096
    1UNL    C12   14   0.628  -0.089  -0.034
    1UNL    C13   15   0.518  -0.062  -0.115
    1UNL    C14   16   0.405  -0.001  -0.048
    1UNL    C15   17   0.050   0.104  -0.012
    1UNL    C16   18  -0.017   0.050   0.122
    1UNL    C17   19  -0.155  -0.015   0.098
    1UNL    C18   20  -0.271   0.074   0.064
    1UNL    C19   21  -0.268   0.155  -0.043
    1UNL     O1   22  -0.380   0.217  -0.094
    1UNL    C20   23  -0.360   0.297  -0.221
    1UNL    C21   24  -0.396   0.050   0.155
    1UNL     O2   25  -0.406  -0.057   0.212
    1UNL     O3   26  -0.480   0.151   0.162
    1UNL    C22   27  -0.586   0.123   0.251
    1UNL     H1   28   0.052  -0.339   0.078
    1UNL     H2   29  -0.036  -0.394   0.220
    1UNL     H3   30   0.016  -0.216   0.188
    1UNL     H4   31  -0.147  -0.353  -0.026
    1UNL     H5   32  -0.243  -0.292   0.109
    1UNL     H6   33  -0.232  -0.135  -0.063
    1UNL     H7   34  -0.058  -0.147  -0.212
    1UNL     H8   35   0.055  -0.157  -0.072
    1UNL     H9   36   0.032   0.011  -0.336
    1UNL    H10   37   0.084   0.158  -0.272
    1UNL    H11   38   0.289   0.043  -0.310
    1UNL    H12   39   0.215  -0.118  -0.267
    1UNL    H13   40   0.246   0.136   0.201
    1UNL    H14   41   0.520   0.038   0.264
    1UNL    H15   42   0.728  -0.067   0.147
    1UNL    H16   43   0.717  -0.136  -0.072
    1UNL    H17   44   0.502  -0.092  -0.220
    1UNL    H18   45   0.029   0.214  -0.032
    1UNL    H19   46   0.050  -0.024   0.168
    1UNL    H20   47  -0.017   0.128   0.202
    1UNL    H21   48  -0.174  -0.054   0.197
    1UNL    H22   49  -0.175   0.178  -0.091
    1UNL    H23   50  -0.420   0.255  -0.305
    1UNL    H24   51  -0.389   0.396  -0.192
    1UNL    H25   52  -0.262   0.294  -0.258
    1UNL    H26   53  -0.657   0.202   0.272
    1UNL    H27   54  -0.546   0.103   0.347
    1UNL    H28   55  -0.653   0.033   0.222
   0.00000   0.00000   0.00000   0.00000   0.00000   0.00000   0.00000   0.00000   0.00000
Generated with MDTraj, t= 17.0
 55
    1UNL     C1    1   0.021  -0.300   0.118
    1UNL     C2    2  -0.118  -0.280   0.050
    1UNL     C3    3  -0.143  -0.141  -0.015
    1UNL     C4    4  -0.033  -0.106  -0.110
    1UNL     N1    5  -0.011   0.036  -0.140
    1UNL     C5    6   0.080   0.053  -0.266
    1UNL     C6    7   0.222  -0.009  -0.244
    1UNL     C7    8   0.272   0.007  -0.103
    1UNL     C8    9   0.195   0.058  -0.003
    1UNL     N2   10   0.277   0.071   0.111
    1UNL     C9   11   0.407   0.040   0.076
    1UNL    C10   12   0.517   0.036   0.154
    1UNL    C11   13   0.624  -0.037   0.111
    1UNL    C12   14   0.627  -0.095  -0.019
    1UNL    C13   15   0.522  -0.078  -0.103
    1UNL    C14   16   0.408  -0.012  -0.058
    1UNL    C15   17   0.050   0.094  -0.013
    1UNL    C16   18  -0.023   0.051   0.115
    1UNL    C17   19  -0.161  -0.028   0.095
    1UNL    C18   20  -0.276   0.062   0.064
    1UNL    C19   21  -0.281   0.148  -0.040
    1UNL     O1   22  -0.374   0.240  -0.067
    1UNL    C20   23  -0.386   0.305  -0.195
    1UNL    C21   24  -0.390   0.058   0.162
    1UNL     O2   25  -0.400  -0.034   0.242
    1UNL     O3   26  -0.486   0.157   0.147
    1UNL    C22   27  -0.599   0.135   0.220
    1UNL     H1   28   0.102  -0.268   0.060
    1UNL     H2   29   0.039  -0.413   0.134
    1UNL     H3   30   0.033  -0.243   0.210
    1UNL     H4   31  -0.139  -0.358  -0.027
    1UNL     H5   32  -0.202  -0.301   0.124
    1UNL     H6   33  -0.225  -0.151  -0.072
    1UNL     H7   34  -0.049  -0.173  -0.199
    1UNL     H8   35   0.065  -0.132  -0.068
    1UNL     H9   36   0.022   0.015  -0.343
    1UNL    H10   37   0.088   0.156  -0.283
    1UNL    H11   38   0.289   0.046  -0.305
    1UNL    H12   39   0.227  -0.118  -0.271
    1UNL    H13   40   0.247   0.128   0.200
    1UNL    H14   41   0.529   0.085   0.249
    1UNL    H15   42   0.709  -0.038   0.177
    1UNL    H16   43   0.720  -0.127  -0.065
    1UNL    H17   44   0.529  -0.105  -0.205
    1UNL    H18   45   0.050   0.204  -0.038
    1UNL    H19   46   0.049   0.004   0.186
    1UNL    H20   47  -0.048   0.141   0.177
    1UNL    H21   48  -0.167  -0.071   0.193
    1UNL    H22   49  -0.204   0.144  -0.115
    1UNL    H23   50  -0.474   0.269  -0.254
    1UNL    H24   51  -0.383   0.412  -0.177
    1UNL    H25   52  -0.307   0.270  -0.255
    1UNL    H26   53  -0.665   0.218   0.201
    1UNL    H27   54  -0.577   0.130   0.324
    1UNL    H28   55  -0.661   0.037   0.204
   0.00000   0.00000   0.00000   0.00000   0.00000   0.00000   0.00000   0.00000   0.00000
Generated with MDTraj, t= 18.0
 55
    1UNL     C1    1  -0.000  -0.272   0.141
    1UNL     C2    2  -0.123  -0.274   0.051
    1UNL     C3    3  -0.150  -0.140  -0.013
    1UNL     C4    4  -0.046  -0.110  -0.125
    1UNL     N1    5  -0.007   0.035  -0.147
    1UNL     C5    6   0.084   0.057  -0.269
    1UNL     C6    7   0.218  -0.005  -0.246
    1UNL     C7    8   0.264   0.007  -0.107
    1UNL     C8    9   0.191   0.062  -0.006
    1UNL     N2   10   0.260   0.070   0.113
    1UNL     C9   11   0.390   0.013   0.091
    1UNL    C10   12   0.510   0.007   0.167
    1UNL    C11   13   0.625  -0.035   0.107
    1UNL    C12   14   0.628  -0.063  -0.030
    1UNL    C13   15   0.516  -0.057  -0.107
    1UNL    C14   16   0.396  -0.014  -0.049
    1UNL    C15   17   0.043   0.098  -0.014
    1UNL    C16   18  -0.030   0.047   0.109
    1UNL    C17   19  -0.166  -0.032   0.088
    1UNL    C18   20  -0.275   0.062   0.066
    1UNL    C19   21  -0.274   0.137  -0.051
    1UNL     O1   22  -0.360   0.244  -0.083
    1UNL    C20   23  -0.331   0.304  -0.202
    1UNL    C21   24  -0.379   0.058   0.164
    1UNL     O2   25  -0.365  -0.012   0.263
    1UNL     O3   26  -0.502   0.127   0.135
    1UNL    C22   27  -0.587   0.116   0.241
    1UNL     H1   28   0.081  -0.208   0.107
    1UNL     H2   29   0.033  -0.378   0.153
    1UNL     H3   30  -0.023  -0.227   0.240
    1UNL     H4   31  -0.119  -0.355  -0.027
    1UNL     H5   32  -0.217  -0.309   0.107
    1UNL     H6   33  -0.238  -0.150  -0.063
    1UNL     H7   34  -0.083  -0.145  -0.224
    1UNL     H8   35   0.038  -0.171  -0.089
    1UNL     H9   36   0.031   0.016  -0.349
    1UNL    H10   37   0.079   0.162  -0.282
    1UNL    H11   38   0.288   0.049  -0.306
    1UNL    H12   39   0.213  -0.110  -0.282
    1UNL    H13   40   0.224   0.092   0.211
    1UNL    H14   41   0.507   0.050   0.264
    1UNL    H15   42   0.719  -0.039   0.160
    1UNL    H16   43   0.720  -0.085  -0.081
    1UNL    H17   44   0.519  -0.062  -0.216
    1UNL    H18   45   0.038   0.208  -0.023
    1UNL    H19   46   0.036  -0.017   0.171
    1UNL    H20   47  -0.035   0.134   0.180
    1UNL    H21   48  -0.189  -0.079   0.182
    1UNL    H22   49  -0.189   0.107  -0.111
    1UNL    H23   50  -0.429   0.295  -0.256
    1UNL    H24   51  -0.315   0.409  -0.178
    1UNL    H25   52  -0.263   0.247  -0.261
    1UNL    H26   53  -0.671   0.182   0.229
    1UNL    H27   54  -0.534   0.133   0.332
    1UNL    H28   55  -0.625   0.008   0.269
   0.00000   0.00000   0.00000   0.00000   0.00000   0.00000   0.00000   0.00000   0.00000
Generated with MDTraj, t= 19.0
 55
    1UNL     C1    1  -0.018  -0.311   0.156
    1UNL     C2    2  -0.136  -0.287   0.062
    1UNL     C3    3  -0.146  -0.143  -0.009
    1UNL     C4    4  -0.023  -0.117  -0.112
    1UNL     N1    5  -0.010   0.024  -0.135
    1UNL     C5    6   0.077   0.068  -0.255
    1UNL     C6    7   0.227   0.026  -0.243
    1UNL     C7    8   0.276   0.026  -0.107
    1UNL     C8    9   0.189   0.059   0.001
    1UNL     N2   10   0.270   0.051   0.114
    1UNL     C9   11   0.395   0.009   0.084
    1UNL    C10   12   0.514  -0.010   0.164
    1UNL    C11   13   0.630  -0.043   0.095
    1UNL    C12   14   0.635  -0.052  -0.042
    1UNL    C13   15   0.525  -0.033  -0.123
    1UNL    C14   16   0.406   0.003  -0.056
    1UNL    C15   17   0.043   0.090  -0.010
    1UNL    C16   18  -0.031   0.050   0.110
    1UNL    C17   19  -0.167  -0.032   0.096
    1UNL    C18   20  -0.286   0.060   0.053
    1UNL    C19   21  -0.281   0.129  -0.062
    1UNL     O1   22  -0.370   0.223  -0.108
    1UNL    C20   23  -0.317   0.316  -0.202
    1UNL    C21   24  -0.390   0.069   0.157
    1UNL     O2   25  -0.359   0.031   0.269
    1UNL     O3   26  -0.517   0.123   0.138
    1UNL    C22   27  -0.601   0.111   0.244
    1UNL     H1   28   0.081  -0.338   0.105
    1UNL     H2   29  -0.042  -0.385   0.231
    1UNL     H3   30   0.008  -0.212   0.202
    1UNL     H4   31  -0.132  -0.370  -0.015
    1UNL     H5   32  -0.236  -0.311   0.112
    1UNL     H6   33  -0.230  -0.140  -0.070
    1UNL     H7   34  -0.048  -0.169  -0.208
    1UNL     H8   35   0.075  -0.147  -0.077
    1UNL     H9   36   0.023   0.029  -0.336
    1UNL    H10   37   0.050   0.170  -0.257
    1UNL    H11   38   0.285   0.081  -0.315
    1UNL    H12   39   0.236  -0.081  -0.269
    1UNL    H13   40   0.246   0.083   0.210
    1UNL    H14   41   0.499  -0.009   0.274
    1UNL    H15   42   0.714  -0.087   0.149
    1UNL    H16   43   0.730  -0.085  -0.084
    1UNL    H17   44   0.516  -0.051  -0.229
    1UNL    H18   45   0.017   0.195  -0.029
    1UNL    H19   46   0.042  -0.004   0.174
    1UNL    H20   47  -0.049   0.139   0.176
    1UNL    H21   48  -0.204  -0.074   0.190
    1UNL    H22   49  -0.192   0.132  -0.120
    1UNL    H23   50  -0.364   0.418  -0.199
    1UNL    H24   51  -0.211   0.324  -0.172
    1UNL    H25   52  -0.334   0.271  -0.299
    1UNL    H26   53  -0.703   0.126   0.214
    1UNL    H27   54  -0.575   0.171   0.327
    1UNL    H28   55  -0.586   0.008   0.298
   0.00000   0.00000   0.00000   0.00000   0.00000   0.00000   0.00000   0.00000   0.00000
Generated with MDTraj, t= 20.0
 55
    1UNL     C1    1  -0.039  -0.332   0.145
    1UNL     C2    2  -0.145  -0.296   0.048
    1UNL     C3    3  -0.146  -0.150  -0.006
    1UNL     C4    4  -0.024  -0.127  -0.094
    1UNL     N1    5  -0.001   0.020  -0.126
    1UNL     C5    6   0.068   0.061  -0.250
    1UNL     C6    7   0.217   0.042  -0.238
    1UNL     C7    8   0.269   0.049  -0.101
    1UNL     C8    9   0.197   0.056   0.010
    1UNL     N2   10   0.271   0.043   0.124
    1UNL     C9   11   0.404   0.020   0.083
    1UNL    C10   12   0.522  -0.010   0.151
    1UNL    C11   13   0.632  -0.051   0.085
    1UNL    C12   14   0.636  -0.055  -0.061
    1UNL    C13   15   0.522  -0.019  -0.125
    1UNL    C14   16   0.404   0.020  -0.059
    1UNL    C15   17   0.049   0.085   0.005
    1UNL    C16   18  -0.031   0.048   0.128
    1UNL    C17   19  -0.159  -0.036   0.102
    1UNL    C18   20  -0.265   0.064   0.068
    1UNL    C19   21  -0.259   0.134  -0.046
    1UNL     O1   22  -0.366   0.213  -0.087
    1UNL    C20   23  -0.351   0.292  -0.209
    1UNL    C21   24  -0.385   0.073   0.160
    1UNL     O2   25  -0.369   0.047   0.277
    1UNL     O3   26  -0.501   0.113   0.109
    1UNL    C22   27  -0.601   0.147   0.198
    1UNL     H1   28   0.066  -0.282   0.126
    1UNL     H2   29  -0.031  -0.436   0.163
    1UNL     H3   30  -0.065  -0.279   0.242
    1UNL     H4   31  -0.146  -0.362  -0.046
    1UNL     H5   32  -0.240  -0.333   0.104
    1UNL     H6   33  -0.234  -0.144  -0.067
    1UNL     H7   34  -0.035  -0.175  -0.194
    1UNL     H8   35   0.069  -0.165  -0.055
    1UNL     H9   36   0.021  -0.002  -0.320
    1UNL    H10   37   0.031   0.158  -0.271
    1UNL    H11   38   0.264   0.130  -0.282
    1UNL    H12   39   0.240  -0.044  -0.301
    1UNL    H13   40   0.249   0.052   0.221
    1UNL    H14   41   0.519  -0.039   0.252
    1UNL    H15   42   0.712  -0.093   0.143
    1UNL    H16   43   0.722  -0.083  -0.118
    1UNL    H17   44   0.526  -0.036  -0.231
    1UNL    H18   45   0.044   0.193   0.001
    1UNL    H19   46   0.035  -0.012   0.194
    1UNL    H20   47  -0.067   0.131   0.195
    1UNL    H21   48  -0.202  -0.090   0.189
    1UNL    H22   49  -0.182   0.115  -0.122
    1UNL    H23   50  -0.426   0.376  -0.214
    1UNL    H24   51  -0.249   0.337  -0.208
    1UNL    H25   52  -0.368   0.229  -0.296
    1UNL    H26   53  -0.696   0.174   0.157
    1UNL    H27   54  -0.570   0.213   0.274
    1UNL    H28   55  -0.626   0.047   0.254
   0.00000   0.00000   0.00000   0.00000   0.00000   0.00000   0.00000   0.00000   0.00000
Generated with MDTraj, t= 21.0
 55
    1UNL     C1    1  -0.049  -0.311   0.147
    1UNL     C2    2  -0.161  -0.286   0.045
    1UNL     C3    3  -0.159  -0.151  -0.020
    1UNL     C4    4  -0.036  -0.121  -0.103
    1UNL     N1    5  -0.007   0.022  -0.112
    1UNL     C5    6   0.060   0.083  -0.232
    1UNL     C6    7   0.211   0.035  -0.234
    1UNL     C7    8   0.271   0.039  -0.098
    1UNL     C8    9   0.198   0.062   0.015
    1UNL     N2   10   0.286   0.052   0.127
    1UNL     C9   11   0.411   0.019   0.079
    1UNL    C10   12   0.530  -0.013   0.152
    1UNL    C11   13   0.644  -0.041   0.077
    1UNL    C12   14   0.634  -0.046  -0.061
    1UNL    C13   15   0.518  -0.018  -0.135
    1UNL    C14   16   0.403   0.017  -0.063
    1UNL    C15   17   0.047   0.079   0.019
    1UNL    C16   18  -0.032   0.018   0.137
    1UNL    C17   19  -0.167  -0.049   0.097
    1UNL    C18   20  -0.269   0.062   0.070
    1UNL    C19   21  -0.258   0.133  -0.049
    1UNL     O1   22  -0.345   0.223  -0.093
    1UNL    C20   23  -0.334   0.252  -0.230
    1UNL    C21   24  -0.383   0.070   0.163
    1UNL     O2   25  -0.374   0.032   0.277
    1UNL     O3   26  -0.495   0.133   0.113
    1UNL    C22   27  -0.598   0.147   0.203
    1UNL     H1   28   0.057  -0.298   0.102
    1UNL     H2   29  -0.055  -0.403   0.201
    1UNL     H3   30  -0.043  -0.227   0.222
    1UNL     H4   31  -0.142  -0.371  -0.031
    1UNL     H5   32  -0.267  -0.309   0.088
    1UNL     H6   33  -0.253  -0.135  -0.075
    1UNL     H7   34  -0.052  -0.147  -0.212
    1UNL     H8   35   0.057  -0.168  -0.079
    1UNL     H9   36   0.005   0.060  -0.319
    1UNL    H10   37   0.044   0.187  -0.213
    1UNL    H11   38   0.256   0.087  -0.316
    1UNL    H12   39   0.219  -0.070  -0.262
    1UNL    H13   40   0.247   0.034   0.213
    1UNL    H14   41   0.520  -0.023   0.261
    1UNL    H15   42   0.742  -0.048   0.125
    1UNL    H16   43   0.730  -0.058  -0.114
    1UNL    H17   44   0.523  -0.002  -0.242
    1UNL    H18   45   0.027   0.185   0.018
    1UNL    H19   46   0.031  -0.050   0.196
    1UNL    H20   47  -0.061   0.104   0.205
    1UNL    H21   48  -0.200  -0.119   0.178
    1UNL    H22   49  -0.172   0.099  -0.101
    1UNL    H23   50  -0.443   0.266  -0.251
    1UNL    H24   51  -0.287   0.353  -0.241
    1UNL    H25   52  -0.288   0.182  -0.300
    1UNL    H26   53  -0.694   0.183   0.169
    1UNL    H27   54  -0.563   0.209   0.282
    1UNL    H28   55  -0.634   0.039   0.228
   0.00000   0.00000   0.00000   0.00000   0.00000   0.00000   0.00000   0.00000   0.00000
Generated with MDTraj, t= 22.0
 55
    1UNL     C1    1  -0.036  -0.327   0.130
    1UNL     C2    2  -0.155  -0.286   0.045
    1UNL     C3    3  -0.153  -0.146  -0.008
    1UNL     C4    4  -0.041  -0.117  -0.112
    1UNL     N1    5  -0.005   0.025  -0.114
    1UNL     C5    6   0.064   0.076  -0.233
    1UNL     C6    7   0.214   0.020  -0.231
    1UNL     C7    8   0.270   0.024  -0.098
    1UNL     C8    9   0.198   0.055   0.022
    1UNL     N2   10   0.278   0.037   0.128
    1UNL     C9   11   0.408   0.001   0.080
    1UNL    C10   12   0.530  -0.001   0.153
    1UNL    C11   13   0.645  -0.002   0.078
    1UNL    C12   14   0.648  -0.023  -0.061
    1UNL    C13   15   0.525  -0.038  -0.129
    1UNL    C14   16   0.404  -0.013  -0.059
    1UNL    C15   17   0.049   0.074   0.018
    1UNL    C16   18  -0.031   0.027   0.136
    1UNL    C17   19  -0.170  -0.035   0.103
    1UNL    C18   20  -0.275   0.071   0.065
    1UNL    C19   21  -0.273   0.141  -0.050
    1UNL     O1   22  -0.366   0.208  -0.117
    1UNL    C20   23  -0.326   0.264  -0.243
    1UNL    C21   24  -0.390   0.076   0.161
    1UNL     O2   25  -0.382   0.007   0.262
    1UNL     O3   26  -0.491   0.169   0.144
    1UNL    C22   27  -0.599   0.147   0.228
    1UNL     H1   28   0.059  -0.287   0.091
    1UNL     H2   29  -0.031  -0.437   0.147
    1UNL     H3   30  -0.033  -0.274   0.229
    1UNL     H4   31  -0.160  -0.365  -0.041
    1UNL     H5   32  -0.253  -0.304   0.105
    1UNL     H6   33  -0.243  -0.131  -0.071
    1UNL     H7   34  -0.056  -0.153  -0.219
    1UNL     H8   35   0.046  -0.170  -0.083
    1UNL     H9   36   0.010   0.030  -0.313
    1UNL    H10   37   0.059   0.183  -0.232
    1UNL    H11   38   0.275   0.079  -0.295
    1UNL    H12   39   0.206  -0.075  -0.284
    1UNL    H13   40   0.256   0.067   0.217
    1UNL    H14   41   0.526   0.022   0.258
    1UNL    H15   42   0.741   0.008   0.126
    1UNL    H16   43   0.738  -0.007  -0.117
    1UNL    H17   44   0.527  -0.034  -0.235
    1UNL    H18   45   0.029   0.180   0.008
    1UNL    H19   46   0.038  -0.047   0.182
    1UNL    H20   47  -0.047   0.115   0.204
    1UNL    H21   48  -0.198  -0.081   0.205
    1UNL    H22   49  -0.177   0.135  -0.100
    1UNL    H23   50  -0.355   0.369  -0.243
    1UNL    H24   51  -0.216   0.258  -0.256
    1UNL    H25   52  -0.362   0.213  -0.332
    1UNL    H26   53  -0.688   0.205   0.213
    1UNL    H27   54  -0.570   0.174   0.326
    1UNL    H28   55  -0.640   0.040   0.213
   0.00000   0.00000   0.00000   0.00000   0.00000   0.00000   0.00000   0.00000   0.00000
Generated with MDTraj, t= 23.0
 55
    1UNL     C1    1  -0.024  -0.329   0.132
    1UNL     C2    2  -0.147  -0.300   0.041
    1UNL     C3    3  -0.153  -0.156  -0.019
    1UNL     C4    4  -0.037  -0.128  -0.121
    1UNL     N1    5  -0.001   0.014  -0.129
    1UNL     C5    6   0.078   0.050  -0.248
    1UNL     C6    7   0.219  -0.004  -0.235
    1UNL     C7    8   0.277   0.013  -0.098
    1UNL     C8    9   0.196   0.039   0.007
    1UNL     N2   10   0.275   0.043   0.127
    1UNL     C9   11   0.404   0.017   0.089
    1UNL    C10   12   0.524   0.016   0.155
    1UNL    C11   13   0.641  -0.006   0.091
    1UNL    C12   14   0.640  -0.024  -0.050
    1UNL    C13   15   0.526  -0.019  -0.116
    1UNL    C14   16   0.407   0.010  -0.054
    1UNL    C15   17   0.052   0.077   0.003
    1UNL    C16   18  -0.042   0.046   0.124
    1UNL    C17   19  -0.172  -0.037   0.085
    1UNL    C18   20  -0.282   0.056   0.063
    1UNL    C19   21  -0.271   0.138  -0.043
    1UNL     O1   22  -0.376   0.227  -0.086
    1UNL    C20   23  -0.352   0.283  -0.216
    1UNL    C21   24  -0.396   0.064   0.158
    1UNL     O2   25  -0.398  -0.014   0.250
    1UNL     O3   26  -0.481   0.168   0.140
    1UNL    C22   27  -0.569   0.189   0.243
    1UNL     H1   28   0.069  -0.314   0.082
    1UNL     H2   29  -0.029  -0.435   0.182
    1UNL     H3   30  -0.006  -0.256   0.214
    1UNL     H4   31  -0.159  -0.377  -0.046
    1UNL     H5   32  -0.240  -0.314   0.109
    1UNL     H6   33  -0.233  -0.157  -0.094
    1UNL     H7   34  -0.085  -0.157  -0.220
    1UNL     H8   35   0.048  -0.193  -0.118
    1UNL     H9   36   0.034   0.012  -0.338
    1UNL    H10   37   0.091   0.157  -0.251
    1UNL    H11   38   0.277   0.048  -0.310
    1UNL    H12   39   0.229  -0.110  -0.256
    1UNL    H13   40   0.250   0.057   0.221
    1UNL    H14   41   0.517   0.033   0.260
    1UNL    H15   42   0.729  -0.014   0.155
    1UNL    H16   43   0.724  -0.056  -0.110
    1UNL    H17   44   0.526  -0.041  -0.223
    1UNL    H18   45   0.052   0.184  -0.024
    1UNL    H19   46   0.019  -0.001   0.203
    1UNL    H20   47  -0.064   0.149   0.161
    1UNL    H21   48  -0.204  -0.081   0.187
    1UNL    H22   49  -0.190   0.133  -0.119
    1UNL    H23   50  -0.419   0.367  -0.228
    1UNL    H24   51  -0.248   0.316  -0.223
    1UNL    H25   52  -0.356   0.212  -0.295
    1UNL    H26   53  -0.591   0.294   0.247
    1UNL    H27   54  -0.533   0.171   0.342
    1UNL    H28   55  -0.662   0.122   0.231
   0.00000   0.00000   0.00000   0.00000   0.00000   0.00000   0.00000   0.00000   0.00000
Generated with MDTraj, t= 24.0
 55
    1UNL     C1    1  -0.036  -0.314   0.141
    1UNL     C2    2  -0.148  -0.301   0.043
    1UNL     C3    3  -0.158  -0.162  -0.023
    1UNL     C4    4  -0.041  -0.139  -0.133
    1UNL     N1    5  -0.007   0.003  -0.140
    1UNL     C5    6   0.074   0.040  -0.261
    1UNL     C6    7   0.221   0.001  -0.250
    1UNL     C7    8   0.268   0.016  -0.109
    1UNL     C8    9   0.190   0.048   0.000
    1UNL     N2   10   0.262   0.071   0.115
    1UNL     C9   11   0.395   0.038   0.079
    1UNL    C10   12   0.503   0.042   0.168
    1UNL    C11   13   0.621  -0.008   0.121
    1UNL    C12   14   0.631  -0.037  -0.020
    1UNL    C13   15   0.528  -0.030  -0.113
    1UNL    C14   16   0.404   0.012  -0.057
    1UNL    C15   17   0.040   0.063  -0.015
    1UNL    C16   18  -0.031   0.020   0.110
    1UNL    C17   19  -0.166  -0.044   0.079
    1UNL    C18   20  -0.276   0.059   0.054
    1UNL    C19   21  -0.270   0.137  -0.057
    1UNL     O1   22  -0.367   0.224  -0.087
    1UNL    C20   23  -0.347   0.301  -0.199
    1UNL    C21   24  -0.373   0.067   0.159
    1UNL     O2   25  -0.386  -0.025   0.238
    1UNL     O3   26  -0.454   0.188   0.166
    1UNL    C22   27  -0.550   0.174   0.265
    1UNL     H1   28   0.056  -0.309   0.088
    1UNL     H2   29  -0.050  -0.415   0.199
    1UNL     H3   30  -0.022  -0.231   0.213
    1UNL     H4   31  -0.130  -0.388  -0.035
    1UNL     H5   32  -0.253  -0.315   0.090
    1UNL     H6   33  -0.252  -0.172  -0.076
    1UNL     H7   34  -0.057  -0.192  -0.231
    1UNL     H8   35   0.039  -0.192  -0.084
    1UNL     H9   36   0.038  -0.012  -0.348
    1UNL    H10   37   0.066   0.147  -0.270
    1UNL    H11   38   0.295   0.050  -0.312
    1UNL    H12   39   0.230  -0.102  -0.281
    1UNL    H13   40   0.233   0.077   0.213
    1UNL    H14   41   0.485   0.067   0.274
    1UNL    H15   42   0.706  -0.032   0.181
    1UNL    H16   43   0.731  -0.076  -0.035
    1UNL    H17   44   0.527  -0.081  -0.207
    1UNL    H18   45   0.032   0.175  -0.026
    1UNL    H19   46   0.037  -0.039   0.173
    1UNL    H20   47  -0.045   0.115   0.168
    1UNL    H21   48  -0.199  -0.092   0.179
    1UNL    H22   49  -0.187   0.122  -0.118
    1UNL    H23   50  -0.440   0.307  -0.251
    1UNL    H24   51  -0.311   0.401  -0.174
    1UNL    H25   52  -0.264   0.260  -0.254
    1UNL    H26   53  -0.626   0.252   0.255
    1UNL    H27   54  -0.518   0.197   0.365
    1UNL    H28   55  -0.583   0.062   0.275
   0.00000   0.00000   0.00000   0.00000   0.00000   0.00000   0.00000   0.00000   0.00000
Generated with MDTraj, t= 25.0
 55
    1UNL     C1    1  -0.056  -0.336   0.127
    1UNL     C2    2  -0.165  -0.299   0.020
    1UNL     C3    3  -0.153  -0.153  -0.030
    1UNL     C4    4  -0.024  -0.139  -0.109
    1UNL     N1    5  -0.006   0.004  -0.144
    1UNL     C5    6   0.079   0.027  -0.272
    1UNL     C6    7   0.227  -0.016  -0.250
    1UNL     C7    8   0.271   0.020  -0.112
    1UNL     C8    9   0.185   0.084  -0.016
    1UNL     N2   10   0.259   0.106   0.097
    1UNL     C9   11   0.381   0.052   0.084
    1UNL    C10   12   0.495   0.041   0.167
    1UNL    C11   13   0.618  -0.004   0.120
    1UNL    C12   14   0.632  -0.044  -0.013
    1UNL    C13   15   0.517  -0.048  -0.096
    1UNL    C14   16   0.392   0.002  -0.047
    1UNL    C15   17   0.036   0.082  -0.028
    1UNL    C16   18  -0.023   0.029   0.109
    1UNL    C17   19  -0.158  -0.042   0.083
    1UNL    C18   20  -0.276   0.051   0.058
    1UNL    C19   21  -0.279   0.120  -0.058
    1UNL     O1   22  -0.364   0.216  -0.094
    1UNL    C20   23  -0.312   0.295  -0.193
    1UNL    C21   24  -0.378   0.066   0.166
    1UNL     O2   25  -0.380  -0.024   0.247
    1UNL     O3   26  -0.464   0.178   0.171
    1UNL    C22   27  -0.536   0.175   0.289
    1UNL     H1   28   0.039  -0.298   0.091
    1UNL     H2   29  -0.058  -0.447   0.145
    1UNL     H3   30  -0.060  -0.284   0.225
    1UNL     H4   31  -0.167  -0.370  -0.074
    1UNL     H5   32  -0.271  -0.308   0.067
    1UNL     H6   33  -0.239  -0.136  -0.092
    1UNL     H7   34  -0.047  -0.201  -0.199
    1UNL     H8   35   0.064  -0.184  -0.061
    1UNL     H9   36   0.030  -0.032  -0.348
    1UNL    H10   37   0.086   0.132  -0.302
    1UNL    H11   38   0.298   0.032  -0.316
    1UNL    H12   39   0.262  -0.116  -0.258
    1UNL    H13   40   0.224   0.167   0.177
    1UNL    H14   41   0.488   0.065   0.269
    1UNL    H15   42   0.700  -0.002   0.191
    1UNL    H16   43   0.728  -0.059  -0.059
    1UNL    H17   44   0.533  -0.086  -0.197
    1UNL    H18   45  -0.009   0.185  -0.038
    1UNL    H19   46   0.038  -0.044   0.163
    1UNL    H20   47  -0.037   0.108   0.186
    1UNL    H21   48  -0.181  -0.107   0.177
    1UNL    H22   49  -0.189   0.104  -0.123
    1UNL    H23   50  -0.376   0.381  -0.202
    1UNL    H24   51  -0.206   0.327  -0.177
    1UNL    H25   52  -0.314   0.234  -0.283
    1UNL    H26   53  -0.582   0.270   0.315
    1UNL    H27   54  -0.473   0.154   0.373
    1UNL    H28   55  -0.602   0.079   0.299
   0.00000   0.00000   0.00000   0.00000   0.00000   0.00000   0.00000   0.00000   0.00000
Generated with MDTraj, t= 26.0
 55
    1UNL     C1    1  -0.077  -0.357   0.107
    1UNL     C2    2  -0.184  -0.302   0.024
    1UNL     C3    3  -0.163  -0.162  -0.032
    1UNL     C4    4  -0.033  -0.143  -0.118
    1UNL     N1    5  -0.001  -0.003  -0.146
    1UNL     C5    6   0.083   0.026  -0.263
    1UNL     C6    7   0.225  -0.017  -0.241
    1UNL     C7    8   0.275   0.026  -0.103
    1UNL     C8    9   0.197   0.073  -0.010
    1UNL     N2   10   0.266   0.104   0.097
    1UNL     C9   11   0.398   0.070   0.077
    1UNL    C10   12   0.507   0.065   0.169
    1UNL    C11   13   0.623   0.008   0.118
    1UNL    C12   14   0.628  -0.058  -0.008
    1UNL    C13   15   0.523  -0.047  -0.093
    1UNL    C14   16   0.406   0.016  -0.050
    1UNL    C15   17   0.042   0.072  -0.028
    1UNL    C16   18  -0.030   0.025   0.109
    1UNL    C17   19  -0.167  -0.047   0.081
    1UNL    C18   20  -0.278   0.049   0.057
    1UNL    C19   21  -0.289   0.119  -0.054
    1UNL     O1   22  -0.357   0.237  -0.069
    1UNL    C20   23  -0.338   0.292  -0.201
    1UNL    C21   24  -0.370   0.071   0.172
    1UNL     O2   25  -0.364  -0.017   0.256
    1UNL     O3   26  -0.455   0.170   0.163
    1UNL    C22   27  -0.540   0.178   0.266
    1UNL     H1   28   0.011  -0.375   0.039
    1UNL     H2   29  -0.112  -0.445   0.157
    1UNL     H3   30  -0.024  -0.289   0.180
    1UNL     H4   31  -0.215  -0.363  -0.071
    1UNL     H5   32  -0.281  -0.306   0.091
    1UNL     H6   33  -0.249  -0.139  -0.090
    1UNL     H7   34  -0.025  -0.208  -0.206
    1UNL     H8   35   0.050  -0.178  -0.051
    1UNL     H9   36   0.049  -0.023  -0.355
    1UNL    H10   37   0.074   0.136  -0.271
    1UNL    H11   38   0.299   0.020  -0.312
    1UNL    H12   39   0.234  -0.120  -0.254
    1UNL    H13   40   0.234   0.132   0.197
    1UNL    H14   41   0.513   0.100   0.274
    1UNL    H15   42   0.712   0.024   0.177
    1UNL    H16   43   0.721  -0.103  -0.042
    1UNL    H17   44   0.538  -0.066  -0.196
    1UNL    H18   45   0.012   0.181  -0.035
    1UNL    H19   46   0.034  -0.044   0.165
    1UNL    H20   47  -0.054   0.099   0.189
    1UNL    H21   48  -0.200  -0.102   0.178
    1UNL    H22   49  -0.240   0.086  -0.146
    1UNL    H23   50  -0.372   0.392  -0.208
    1UNL    H24   51  -0.230   0.290  -0.235
    1UNL    H25   52  -0.399   0.229  -0.268
    1UNL    H26   53  -0.581   0.276   0.274
    1UNL    H27   54  -0.487   0.159   0.356
    1UNL    H28   55  -0.625   0.098   0.274
   0.00000   0.00000   0.00000   0.00000   0.00000   0.00000   0.00000   0.00000   0.00000
Generated with MDTraj, t= 27.0
 55
    1UNL     C1    1  -0.084  -0.361   0.100
    1UNL     C2    2  -0.196  -0.298   0.004
    1UNL     C3    3  -0.178  -0.145  -0.030
    1UNL     C4    4  -0.053  -0.138  -0.129
    1UNL     N1    5  -0.003  -0.003  -0.147
    1UNL     C5    6   0.089   0.019  -0.266
    1UNL     C6    7   0.231  -0.034  -0.238
    1UNL     C7    8   0.282   0.005  -0.101
    1UNL     C8    9   0.191   0.045  -0.002
    1UNL     N2   10   0.261   0.063   0.115
    1UNL     C9   11   0.396   0.060   0.088
    1UNL    C10   12   0.511   0.072   0.168
    1UNL    C11   13   0.635   0.034   0.113
    1UNL    C12   14   0.641  -0.018  -0.017
    1UNL    C13   15   0.534  -0.029  -0.100
    1UNL    C14   16   0.411   0.008  -0.049
    1UNL    C15   17   0.043   0.060  -0.019
    1UNL    C16   18  -0.021  -0.004   0.107
    1UNL    C17   19  -0.162  -0.042   0.088
    1UNL    C18   20  -0.261   0.072   0.068
    1UNL    C19   21  -0.279   0.146  -0.046
    1UNL     O1   22  -0.371   0.234  -0.074
    1UNL    C20   23  -0.354   0.279  -0.208
    1UNL    C21   24  -0.357   0.080   0.176
    1UNL     O2   25  -0.351   0.003   0.271
    1UNL     O3   26  -0.461   0.174   0.159
    1UNL    C22   27  -0.555   0.173   0.259
    1UNL     H1   28   0.021  -0.335   0.059
    1UNL     H2   29  -0.107  -0.460   0.123
    1UNL     H3   30  -0.073  -0.306   0.197
    1UNL     H4   31  -0.196  -0.365  -0.090
    1UNL     H5   32  -0.306  -0.306   0.044
    1UNL     H6   33  -0.264  -0.103  -0.075
    1UNL     H7   34  -0.086  -0.171  -0.226
    1UNL     H8   35   0.034  -0.209  -0.106
    1UNL     H9   36   0.043  -0.039  -0.348
    1UNL    H10   37   0.102   0.126  -0.289
    1UNL    H11   38   0.304  -0.011  -0.316
    1UNL    H12   39   0.237  -0.137  -0.230
    1UNL    H13   40   0.213   0.080   0.211
    1UNL    H14   41   0.493   0.110   0.266
    1UNL    H15   42   0.730   0.028   0.167
    1UNL    H16   43   0.739  -0.050  -0.045
    1UNL    H17   44   0.548  -0.056  -0.204
    1UNL    H18   45   0.039   0.172  -0.029
    1UNL    H19   46   0.041  -0.088   0.143
    1UNL    H20   47  -0.003   0.073   0.186
    1UNL    H21   48  -0.195  -0.091   0.189
    1UNL    H22   49  -0.202   0.137  -0.113
    1UNL    H23   50  -0.446   0.305  -0.255
    1UNL    H24   51  -0.286   0.369  -0.211
    1UNL    H25   52  -0.315   0.190  -0.266
    1UNL    H26   53  -0.648   0.222   0.233
    1UNL    H27   54  -0.513   0.216   0.345
    1UNL    H28   55  -0.598   0.072   0.295
   0.00000   0.00000   0.00000   0.00000   0.00000   0.00000   0.00000   0.00000   0.00000
Generated with MDTraj, t= 28.0
 55
    1UNL     C1    1  -0.110  -0.352   0.102
    1UNL     C2    2  -0.196  -0.295  -0.004
    1UNL     C3    3  -0.178  -0.152  -0.040
    1UNL     C4    4  -0.052  -0.138  -0.124
    1UNL     N1    5   0.001   0.002  -0.136
    1UNL     C5    6   0.094   0.028  -0.253
    1UNL     C6    7   0.233  -0.036  -0.233
    1UNL     C7    8   0.280  -0.010  -0.094
    1UNL     C8    9   0.198   0.029   0.011
    1UNL     N2   10   0.271   0.048   0.123
    1UNL     C9   11   0.408   0.030   0.091
    1UNL    C10   12   0.531   0.059   0.164
    1UNL    C11   13   0.645   0.049   0.096
    1UNL    C12   14   0.651   0.024  -0.041
    1UNL    C13   15   0.539  -0.004  -0.111
    1UNL    C14   16   0.413  -0.003  -0.040
    1UNL    C15   17   0.050   0.053  -0.003
    1UNL    C16   18  -0.031  -0.011   0.115
    1UNL    C17   19  -0.173  -0.047   0.076
    1UNL    C18   20  -0.277   0.060   0.063
    1UNL    C19   21  -0.287   0.137  -0.049
    1UNL     O1   22  -0.374   0.240  -0.093
    1UNL    C20   23  -0.330   0.275  -0.219
    1UNL    C21   24  -0.373   0.082   0.172
    1UNL     O2   25  -0.348   0.028   0.279
    1UNL     O3   26  -0.490   0.163   0.158
    1UNL    C22   27  -0.555   0.180   0.279
    1UNL     H1   28  -0.001  -0.366   0.066
    1UNL     H2   29  -0.165  -0.436   0.136
    1UNL     H3   30  -0.090  -0.287   0.189
    1UNL     H4   31  -0.194  -0.357  -0.102
    1UNL     H5   32  -0.303  -0.308   0.041
    1UNL     H6   33  -0.259  -0.128  -0.104
    1UNL     H7   34  -0.057  -0.176  -0.224
    1UNL     H8   35   0.026  -0.209  -0.080
    1UNL     H9   36   0.057  -0.016  -0.348
    1UNL    H10   37   0.108   0.138  -0.258
    1UNL    H11   38   0.313   0.005  -0.294
    1UNL    H12   39   0.234  -0.137  -0.258
    1UNL    H13   40   0.234   0.096   0.210
    1UNL    H14   41   0.532   0.087   0.268
    1UNL    H15   42   0.733   0.053   0.157
    1UNL    H16   43   0.745   0.006  -0.093
    1UNL    H17   44   0.537  -0.046  -0.210
    1UNL    H18   45   0.037   0.163  -0.015
    1UNL    H19   46   0.035  -0.090   0.153
    1UNL    H20   47  -0.026   0.066   0.196
    1UNL    H21   48  -0.204  -0.101   0.174
    1UNL    H22   49  -0.212   0.100  -0.126
    1UNL    H23   50  -0.384   0.364  -0.242
    1UNL    H24   51  -0.226   0.321  -0.211
    1UNL    H25   52  -0.360   0.197  -0.295
    1UNL    H26   53  -0.632   0.255   0.275
    1UNL    H27   54  -0.484   0.195   0.355
    1UNL    H28   55  -0.628   0.095   0.309
   0.00000   0.00000   0.00000   0.00000   0.00000   0.00000   0.00000   0.00000   0.00000
Generated with MDTraj, t= 29.0
 55
    1UNL     C1    1  -0.117  -0.375   0.109
    1UNL     C2    2  -0.211  -0.310   0.003
    1UNL     C3    3  -0.175  -0.165  -0.039
    1UNL     C4    4  -0.041  -0.149  -0.112
    1UNL     N1    5  -0.009  -0.007  -0.118
    1UNL     C5    6   0.068   0.040  -0.236
    1UNL     C6    7   0.215   0.003  -0.230
    1UNL     C7    8   0.268  -0.000  -0.089
    1UNL     C8    9   0.193   0.026   0.021
    1UNL     N2   10   0.281   0.058   0.126
    1UNL     C9   11   0.409   0.030   0.093
    1UNL    C10   12   0.525   0.054   0.156
    1UNL    C11   13   0.643   0.044   0.090
    1UNL    C12   14   0.647   0.023  -0.047
    1UNL    C13   15   0.531   0.004  -0.117
    1UNL    C14   16   0.407   0.006  -0.051
    1UNL    C15   17   0.047   0.051   0.012
    1UNL    C16   18  -0.042  -0.014   0.127
    1UNL    C17   19  -0.176  -0.062   0.083
    1UNL    C18   20  -0.268   0.050   0.051
    1UNL    C19   21  -0.279   0.117  -0.065
    1UNL     O1   22  -0.350   0.231  -0.082
    1UNL    C20   23  -0.329   0.295  -0.203
    1UNL    C21   24  -0.361   0.090   0.159
    1UNL     O2   25  -0.340   0.037   0.267
    1UNL     O3   26  -0.465   0.177   0.136
    1UNL    C22   27  -0.538   0.179   0.247
    1UNL     H1   28  -0.014  -0.374   0.066
    1UNL     H2   29  -0.150  -0.474   0.139
    1UNL     H3   30  -0.092  -0.325   0.201
    1UNL     H4   31  -0.209  -0.374  -0.092
    1UNL     H5   32  -0.323  -0.314   0.036
    1UNL     H6   33  -0.250  -0.133  -0.108
    1UNL     H7   34  -0.036  -0.185  -0.213
    1UNL     H8   35   0.044  -0.206  -0.064
    1UNL     H9   36   0.023  -0.010  -0.325
    1UNL    H10   37   0.064   0.151  -0.241
    1UNL    H11   38   0.277   0.061  -0.296
    1UNL    H12   39   0.238  -0.094  -0.265
    1UNL    H13   40   0.259   0.095   0.218
    1UNL    H14   41   0.519   0.094   0.258
    1UNL    H15   42   0.735   0.073   0.141
    1UNL    H16   43   0.744   0.010  -0.090
    1UNL    H17   44   0.537  -0.035  -0.217
    1UNL    H18   45   0.015   0.155  -0.004
    1UNL    H19   46   0.021  -0.088   0.178
    1UNL    H20   47  -0.051   0.070   0.200
    1UNL    H21   48  -0.218  -0.119   0.174
    1UNL    H22   49  -0.240   0.082  -0.164
    1UNL    H23   50  -0.356   0.396  -0.205
    1UNL    H24   51  -0.218   0.306  -0.211
    1UNL    H25   52  -0.382   0.235  -0.280
    1UNL    H26   53  -0.630   0.231   0.226
    1UNL    H27   54  -0.490   0.217   0.333
    1UNL    H28   55  -0.575   0.073   0.270
   0.00000   0.00000   0.00000   0.00000   0.00000   0.00000   0.00000   0.00000   0.00000
Generated with MDTraj, t= 30.0
 55
    1UNL     C1    1  -0.090  -0.362   0.105
    1UNL     C2    2  -0.194  -0.313   0.005
    1UNL     C3    3  -0.179  -0.166  -0.037
    1UNL     C4    4  -0.055  -0.152  -0.132
    1UNL     N1    5  -0.006  -0.013  -0.127
    1UNL     C5    6   0.062   0.031  -0.253
    1UNL     C6    7   0.212   0.005  -0.243
    1UNL     C7    8   0.260   0.033  -0.103
    1UNL     C8    9   0.185   0.041   0.009
    1UNL     N2   10   0.254   0.050   0.129
    1UNL     C9   11   0.394   0.056   0.086
    1UNL    C10   12   0.513   0.044   0.164
    1UNL    C11   13   0.631   0.015   0.100
    1UNL    C12   14   0.635   0.009  -0.039
    1UNL    C13   15   0.522   0.021  -0.117
    1UNL    C14   16   0.399   0.038  -0.053
    1UNL    C15   17   0.041   0.043  -0.001
    1UNL    C16   18  -0.038  -0.028   0.126
    1UNL    C17   19  -0.177  -0.066   0.098
    1UNL    C18   20  -0.262   0.052   0.075
    1UNL    C19   21  -0.251   0.120  -0.041
    1UNL     O1   22  -0.322   0.226  -0.078
    1UNL    C20   23  -0.286   0.268  -0.210
    1UNL    C21   24  -0.367   0.078   0.169
    1UNL     O2   25  -0.363   0.033   0.282
    1UNL     O3   26  -0.461   0.174   0.133
    1UNL    C22   27  -0.535   0.209   0.245
    1UNL     H1   28   0.001  -0.317   0.081
    1UNL     H2   29  -0.083  -0.473   0.110
    1UNL     H3   30  -0.104  -0.329   0.205
    1UNL     H4   31  -0.193  -0.391  -0.079
    1UNL     H5   32  -0.300  -0.324   0.050
    1UNL     H6   33  -0.269  -0.137  -0.089
    1UNL     H7   34  -0.077  -0.181  -0.234
    1UNL     H8   35   0.035  -0.215  -0.111
    1UNL     H9   36   0.016  -0.029  -0.336
    1UNL    H10   37   0.040   0.140  -0.266
    1UNL    H11   38   0.267   0.068  -0.309
    1UNL    H12   39   0.238  -0.087  -0.290
    1UNL    H13   40   0.226   0.056   0.222
    1UNL    H14   41   0.509   0.072   0.266
    1UNL    H15   42   0.722   0.018   0.155
    1UNL    H16   43   0.734   0.010  -0.083
    1UNL    H17   44   0.523   0.013  -0.225
    1UNL    H18   45   0.009   0.146   0.011
    1UNL    H19   46   0.021  -0.118   0.154
    1UNL    H20   47  -0.037   0.039   0.215
    1UNL    H21   48  -0.223  -0.126   0.183
    1UNL    H22   49  -0.170   0.094  -0.097
    1UNL    H23   50  -0.362   0.319  -0.260
    1UNL    H24   51  -0.193   0.325  -0.208
    1UNL    H25   52  -0.270   0.176  -0.266
    1UNL    H26   53  -0.626   0.263   0.220
    1UNL    H27   54  -0.490   0.269   0.320
    1UNL    H28   55  -0.564   0.110   0.298
   0.00000   0.00000   0.00000   0.00000   0.00000   0.00000   0.00000   0.00000   0.00000
Generated with MDTraj, t= 31.0
 55
    1UNL     C1    1  -0.061  -0.371   0.108
    1UNL     C2    2  -0.178  -0.316   0.036
    1UNL     C3    3  -0.166  -0.176  -0.026
    1UNL     C4    4  -0.054  -0.153  -0.131
    1UNL     N1    5  -0.019  -0.011  -0.137
    1UNL     C5    6   0.062   0.039  -0.258
    1UNL     C6    7   0.215   0.013  -0.241
    1UNL     C7    8   0.268   0.031  -0.100
    1UNL     C8    9   0.181   0.049   0.007
    1UNL     N2   10   0.257   0.044   0.125
    1UNL     C9   11   0.389   0.043   0.088
    1UNL    C10   12   0.505   0.034   0.167
    1UNL    C11   13   0.626   0.028   0.104
    1UNL    C12   14   0.630   0.007  -0.033
    1UNL    C13   15   0.520   0.011  -0.116
    1UNL    C14   16   0.397   0.025  -0.052
    1UNL    C15   17   0.035   0.051  -0.009
    1UNL    C16   18  -0.034  -0.018   0.121
    1UNL    C17   19  -0.174  -0.062   0.084
    1UNL    C18   20  -0.278   0.048   0.061
    1UNL    C19   21  -0.261   0.125  -0.051
    1UNL     O1   22  -0.334   0.234  -0.099
    1UNL    C20   23  -0.274   0.281  -0.217
    1UNL    C21   24  -0.376   0.081   0.166
    1UNL     O2   25  -0.374   0.017   0.270
    1UNL     O3   26  -0.450   0.190   0.156
    1UNL    C22   27  -0.533   0.204   0.267
    1UNL     H1   28   0.002  -0.404   0.036
    1UNL     H2   29  -0.087  -0.458   0.175
    1UNL     H3   30  -0.009  -0.298   0.164
    1UNL     H4   31  -0.219  -0.386  -0.044
    1UNL     H5   32  -0.259  -0.325   0.117
    1UNL     H6   33  -0.260  -0.160  -0.082
    1UNL     H7   34  -0.082  -0.185  -0.232
    1UNL     H8   35   0.034  -0.211  -0.105
    1UNL     H9   36   0.016  -0.005  -0.352
    1UNL    H10   37   0.042   0.148  -0.263
    1UNL    H11   38   0.271   0.063  -0.314
    1UNL    H12   39   0.250  -0.084  -0.273
    1UNL    H13   40   0.224   0.051   0.214
    1UNL    H14   41   0.484   0.029   0.276
    1UNL    H15   42   0.717   0.033   0.166
    1UNL    H16   43   0.719  -0.009  -0.091
    1UNL    H17   44   0.534   0.024  -0.222
    1UNL    H18   45  -0.002   0.152  -0.018
    1UNL    H19   46   0.022  -0.106   0.160
    1UNL    H20   47  -0.040   0.061   0.201
    1UNL    H21   48  -0.220  -0.116   0.174
    1UNL    H22   49  -0.193   0.080  -0.130
    1UNL    H23   50  -0.317   0.376  -0.226
    1UNL    H24   51  -0.163   0.269  -0.215
    1UNL    H25   52  -0.307   0.225  -0.305
    1UNL    H26   53  -0.588   0.299   0.272
    1UNL    H27   54  -0.488   0.210   0.364
    1UNL    H28   55  -0.594   0.103   0.276
   0.00000   0.00000   0.00000   0.00000   0.00000   0.00000   0.00000   0.00000   0.00000
Generated with MDTraj, t= 32.0
 55
    1UNL     C1    1  -0.055  -0.368   0.118
    1UNL     C2    2  -0.167  -0.318   0.020
    1UNL     C3    3  -0.160  -0.170  -0.036
    1UNL     C4    4  -0.033  -0.144  -0.119
    1UNL     N1    5  -0.011   0.003  -0.129
    1UNL     C5    6   0.071   0.033  -0.253
    1UNL     C6    7   0.213  -0.009  -0.238
    1UNL     C7    8   0.261   0.018  -0.096
    1UNL     C8    9   0.186   0.047   0.014
    1UNL     N2   10   0.263   0.057   0.125
    1UNL     C9   11   0.394   0.028   0.093
    1UNL    C10   12   0.514   0.035   0.167
    1UNL    C11   13   0.631   0.039   0.097
    1UNL    C12   14   0.643   0.008  -0.046
    1UNL    C13   15   0.521  -0.015  -0.106
    1UNL    C14   16   0.395  -0.004  -0.044
    1UNL    C15   17   0.037   0.065  -0.002
    1UNL    C16   18  -0.039   0.004   0.118
    1UNL    C17   19  -0.171  -0.061   0.074
    1UNL    C18   20  -0.278   0.047   0.051
    1UNL    C19   21  -0.280   0.128  -0.059
    1UNL     O1   22  -0.365   0.228  -0.090
    1UNL    C20   23  -0.328   0.312  -0.198
    1UNL    C21   24  -0.372   0.073   0.162
    1UNL     O2   25  -0.392  -0.007   0.257
    1UNL     O3   26  -0.435   0.198   0.152
    1UNL    C22   27  -0.520   0.211   0.256
    1UNL     H1   28   0.039  -0.368   0.077
    1UNL     H2   29  -0.068  -0.474   0.144
    1UNL     H3   30  -0.051  -0.314   0.208
    1UNL     H4   31  -0.173  -0.391  -0.066
    1UNL     H5   32  -0.271  -0.324   0.065
    1UNL     H6   33  -0.248  -0.152  -0.103
    1UNL     H7   34  -0.042  -0.196  -0.216
    1UNL     H8   35   0.047  -0.189  -0.063
    1UNL     H9   36   0.020  -0.026  -0.337
    1UNL    H10   37   0.065   0.142  -0.282
    1UNL    H11   38   0.279   0.026  -0.310
    1UNL    H12   39   0.218  -0.112  -0.271
    1UNL    H13   40   0.235   0.085   0.214
    1UNL    H14   41   0.518   0.040   0.272
    1UNL    H15   42   0.722   0.046   0.149
    1UNL    H16   43   0.745  -0.008  -0.082
    1UNL    H17   44   0.521  -0.026  -0.214
    1UNL    H18   45   0.019   0.168  -0.031
    1UNL    H19   46   0.027  -0.071   0.169
    1UNL    H20   47  -0.072   0.085   0.189
    1UNL    H21   48  -0.203  -0.115   0.169
    1UNL    H22   49  -0.211   0.118  -0.135
    1UNL    H23   50  -0.416   0.364  -0.229
    1UNL    H24   51  -0.227   0.356  -0.171
    1UNL    H25   52  -0.291   0.246  -0.280
    1UNL    H26   53  -0.555   0.313   0.273
    1UNL    H27   54  -0.469   0.191   0.348
    1UNL    H28   55  -0.601   0.125   0.253
   0.00000   0.00000   0.00000   0.00000   0.00000   0.00000   0.00000   0.00000   0.00000
Generated with MDTraj, t= 33.0
 55
    1UNL     C1    1  -0.075  -0.319   0.117
    1UNL     C2    2  -0.176  -0.296   0.006
    1UNL     C3    3  -0.174  -0.152  -0.040
    1UNL     C4    4  -0.049  -0.131  -0.132
    1UNL     N1    5  -0.009   0.008  -0.128
    1UNL     C5    6   0.076   0.040  -0.255
    1UNL     C6    7   0.218  -0.013  -0.236
    1UNL     C7    8   0.278   0.010  -0.097
    1UNL     C8    9   0.194   0.033   0.006
    1UNL     N2   10   0.281   0.067   0.113
    1UNL     C9   11   0.412   0.052   0.081
    1UNL    C10   12   0.527   0.059   0.161
    1UNL    C11   13   0.648   0.020   0.111
    1UNL    C12   14   0.650  -0.023  -0.024
    1UNL    C13   15   0.539  -0.035  -0.108
    1UNL    C14   16   0.413   0.007  -0.053
    1UNL    C15   17   0.044   0.056   0.002
    1UNL    C16   18  -0.032  -0.000   0.123
    1UNL    C17   19  -0.176  -0.055   0.083
    1UNL    C18   20  -0.282   0.049   0.065
    1UNL    C19   21  -0.285   0.124  -0.054
    1UNL     O1   22  -0.386   0.205  -0.100
    1UNL    C20   23  -0.347   0.291  -0.207
    1UNL    C21   24  -0.383   0.069   0.165
    1UNL     O2   25  -0.404  -0.020   0.245
    1UNL     O3   26  -0.443   0.194   0.169
    1UNL    C22   27  -0.521   0.199   0.273
    1UNL     H1   28   0.028  -0.296   0.099
    1UNL     H2   29  -0.061  -0.423   0.131
    1UNL     H3   30  -0.103  -0.279   0.212
    1UNL     H4   31  -0.156  -0.364  -0.081
    1UNL     H5   32  -0.282  -0.316   0.038
    1UNL     H6   33  -0.267  -0.134  -0.099
    1UNL     H7   34  -0.077  -0.155  -0.237
    1UNL     H8   35   0.027  -0.194  -0.095
    1UNL     H9   36   0.027   0.006  -0.354
    1UNL    H10   37   0.087   0.154  -0.251
    1UNL    H11   38   0.276   0.024  -0.311
    1UNL    H12   39   0.226  -0.118  -0.258
    1UNL    H13   40   0.237   0.091   0.202
    1UNL    H14   41   0.508   0.102   0.260
    1UNL    H15   42   0.737   0.022   0.177
    1UNL    H16   43   0.746  -0.058  -0.057
    1UNL    H17   44   0.542  -0.095  -0.197
    1UNL    H18   45   0.050   0.167  -0.010
    1UNL    H19   46   0.016  -0.092   0.163
    1UNL    H20   47  -0.041   0.075   0.204
    1UNL    H21   48  -0.210  -0.111   0.174
    1UNL    H22   49  -0.186   0.134  -0.103
    1UNL    H23   50  -0.433   0.347  -0.232
    1UNL    H24   51  -0.254   0.347  -0.173
    1UNL    H25   52  -0.319   0.228  -0.295
    1UNL    H26   53  -0.590   0.283   0.266
    1UNL    H27   54  -0.463   0.204   0.360
    1UNL    H28   55  -0.596   0.110   0.283
   0.00000   0.00000   0.00000   0.00000   0.00000   0.00000   0.00000   0.00000   0.00000
Generated with MDTraj, t= 34.0
 55
    1UNL     C1    1  -0.066  -0.350   0.096
    1UNL     C2    2  -0.187  -0.289   0.016
    1UNL     C3    3  -0.155  -0.141  -0.031
    1UNL     C4    4  -0.025  -0.133  -0.117
    1UNL     N1    5   0.001   0.009  -0.141
    1UNL     C5    6   0.089   0.037  -0.259
    1UNL     C6    7   0.226  -0.023  -0.233
    1UNL     C7    8   0.274  -0.002  -0.093
    1UNL     C8    9   0.190   0.054   0.006
    1UNL     N2   10   0.263   0.084   0.117
    1UNL     C9   11   0.397   0.040   0.092
    1UNL    C10   12   0.516   0.044   0.165
    1UNL    C11   13   0.632   0.007   0.105
    1UNL    C12   14   0.635  -0.029  -0.032
    1UNL    C13   15   0.519  -0.039  -0.109
    1UNL    C14   16   0.404  -0.000  -0.039
    1UNL    C15   17   0.043   0.079  -0.016
    1UNL    C16   18  -0.029   0.031   0.117
    1UNL    C17   19  -0.167  -0.033   0.081
    1UNL    C18   20  -0.274   0.062   0.059
    1UNL    C19   21  -0.269   0.145  -0.047
    1UNL     O1   22  -0.368   0.232  -0.092
    1UNL    C20   23  -0.362   0.256  -0.231
    1UNL    C21   24  -0.368   0.076   0.169
    1UNL     O2   25  -0.384  -0.014   0.251
    1UNL     O3   26  -0.453   0.181   0.175
    1UNL    C22   27  -0.539   0.163   0.285
    1UNL     H1   28   0.008  -0.394   0.028
    1UNL     H2   29  -0.095  -0.433   0.147
    1UNL     H3   30  -0.028  -0.275   0.161
    1UNL     H4   31  -0.207  -0.344  -0.079
    1UNL     H5   32  -0.270  -0.297   0.087
    1UNL     H6   33  -0.237  -0.120  -0.108
    1UNL     H7   34  -0.033  -0.194  -0.208
    1UNL     H8   35   0.056  -0.163  -0.059
    1UNL     H9   36   0.040  -0.021  -0.345
    1UNL    H10   37   0.101   0.150  -0.271
    1UNL    H11   38   0.292   0.019  -0.300
    1UNL    H12   39   0.220  -0.123  -0.270
    1UNL    H13   40   0.230   0.118   0.211
    1UNL    H14   41   0.519   0.095   0.260
    1UNL    H15   42   0.723   0.034   0.151
    1UNL    H16   43   0.726  -0.059  -0.082
    1UNL    H17   44   0.520  -0.096  -0.201
    1UNL    H18   45   0.028   0.190  -0.024
    1UNL    H19   46   0.021  -0.051   0.175
    1UNL    H20   47  -0.056   0.110   0.191
    1UNL    H21   48  -0.197  -0.086   0.175
    1UNL    H22   49  -0.201   0.121  -0.132
    1UNL    H23   50  -0.441   0.324  -0.247
    1UNL    H24   51  -0.265   0.312  -0.255
    1UNL    H25   52  -0.392   0.165  -0.289
    1UNL    H26   53  -0.602   0.246   0.312
    1UNL    H27   54  -0.482   0.129   0.368
    1UNL    H28   55  -0.629   0.093   0.268
   0.00000   0.00000   0.00000   0.00000   0.00000   0.00000   0.00000   0.00000   0.00000
Generated with MDTraj, t= 35.0
 55
    1UNL     C1    1  -0.072  -0.364   0.103
    1UNL     C2    2  -0.183  -0.293   0.032
    1UNL     C3    3  -0.161  -0.147  -0.023
    1UNL     C4    4  -0.041  -0.131  -0.123
    1UNL     N1    5  -0.003   0.010  -0.150
    1UNL     C5    6   0.094   0.048  -0.274
    1UNL     C6    7   0.240  -0.010  -0.252
    1UNL     C7    8   0.282   0.014  -0.105
    1UNL     C8    9   0.198   0.070  -0.015
    1UNL     N2   10   0.272   0.085   0.105
    1UNL     C9   11   0.400   0.049   0.084
    1UNL    C10   12   0.507   0.037   0.172
    1UNL    C11   13   0.628  -0.011   0.116
    1UNL    C12   14   0.647  -0.047  -0.019
    1UNL    C13   15   0.538  -0.038  -0.100
    1UNL    C14   16   0.414   0.004  -0.050
    1UNL    C15   17   0.055   0.077  -0.029
    1UNL    C16   18  -0.017   0.033   0.106
    1UNL    C17   19  -0.161  -0.041   0.095
    1UNL    C18   20  -0.271   0.066   0.073
    1UNL    C19   21  -0.275   0.139  -0.038
    1UNL     O1   22  -0.372   0.225  -0.075
    1UNL    C20   23  -0.371   0.263  -0.213
    1UNL    C21   24  -0.372   0.077   0.176
    1UNL     O2   25  -0.382   0.004   0.276
    1UNL     O3   26  -0.481   0.164   0.153
    1UNL    C22   27  -0.561   0.166   0.264
    1UNL     H1   28   0.021  -0.375   0.043
    1UNL     H2   29  -0.099  -0.463   0.109
    1UNL     H3   30  -0.058  -0.324   0.198
    1UNL     H4   31  -0.207  -0.359  -0.053
    1UNL     H5   32  -0.268  -0.280   0.097
    1UNL     H6   33  -0.258  -0.124  -0.080
    1UNL     H7   34  -0.073  -0.168  -0.220
    1UNL     H8   35   0.041  -0.188  -0.091
    1UNL     H9   36   0.050  -0.012  -0.363
    1UNL    H10   37   0.104   0.162  -0.280
    1UNL    H11   38   0.309   0.030  -0.323
    1UNL    H12   39   0.241  -0.113  -0.270
    1UNL    H13   40   0.242   0.131   0.198
    1UNL    H14   41   0.501   0.081   0.270
    1UNL    H15   42   0.716  -0.010   0.180
    1UNL    H16   43   0.742  -0.080  -0.057
    1UNL    H17   44   0.545  -0.076  -0.202
    1UNL    H18   45   0.019   0.183  -0.047
    1UNL    H19   46   0.044  -0.038   0.168
    1UNL    H20   47  -0.039   0.119   0.172
    1UNL    H21   48  -0.183  -0.093   0.189
    1UNL    H22   49  -0.192   0.143  -0.101
    1UNL    H23   50  -0.438   0.338  -0.249
    1UNL    H24   51  -0.267   0.301  -0.233
    1UNL    H25   52  -0.404   0.169  -0.262
    1UNL    H26   53  -0.633   0.245   0.256
    1UNL    H27   54  -0.499   0.178   0.348
    1UNL    H28   55  -0.622   0.072   0.280
   0.00000   0.00000   0.00000   0.00000   0.00000   0.00000   0.00000   0.00000   0.00000
Generated with MDTraj, t= 36.0
 55
    1UNL     C1    1  -0.071  -0.320   0.125
    1UNL     C2    2  -0.180  -0.292   0.024
    1UNL     C3    3  -0.160  -0.147  -0.030
    1UNL     C4    4  -0.035  -0.137  -0.112
    1UNL     N1    5  -0.003   0.004  -0.139
    1UNL     C5    6   0.084   0.033  -0.260
    1UNL     C6    7   0.231  -0.006  -0.242
    1UNL     C7    8   0.276   0.033  -0.105
    1UNL     C8    9   0.194   0.063   0.001
    1UNL     N2   10   0.271   0.076   0.113
    1UNL     C9   11   0.407   0.049   0.081
    1UNL    C10   12   0.519   0.034   0.163
    1UNL    C11   13   0.632  -0.019   0.111
    1UNL    C12   14   0.634  -0.057  -0.025
    1UNL    C13   15   0.527  -0.035  -0.109
    1UNL    C14   16   0.407   0.009  -0.051
    1UNL    C15   17   0.044   0.082  -0.017
    1UNL    C16   18  -0.030   0.019   0.110
    1UNL    C17   19  -0.165  -0.046   0.080
    1UNL    C18   20  -0.275   0.057   0.060
    1UNL    C19   21  -0.282   0.133  -0.057
    1UNL     O1   22  -0.385   0.219  -0.088
    1UNL    C20   23  -0.353   0.301  -0.199
    1UNL    C21   24  -0.364   0.082   0.175
    1UNL     O2   25  -0.343   0.022   0.278
    1UNL     O3   26  -0.479   0.155   0.146
    1UNL    C22   27  -0.564   0.136   0.248
    1UNL     H1   28   0.031  -0.321   0.085
    1UNL     H2   29  -0.067  -0.420   0.163
    1UNL     H3   30  -0.079  -0.260   0.209
    1UNL     H4   31  -0.172  -0.356  -0.064
    1UNL     H5   32  -0.279  -0.298   0.064
    1UNL     H6   33  -0.245  -0.113  -0.101
    1UNL     H7   34  -0.040  -0.200  -0.198
    1UNL     H8   35   0.041  -0.175  -0.048
    1UNL     H9   36   0.036  -0.033  -0.342
    1UNL    H10   37   0.076   0.147  -0.269
    1UNL    H11   38   0.294   0.045  -0.314
    1UNL    H12   39   0.248  -0.107  -0.259
    1UNL    H13   40   0.238   0.099   0.214
    1UNL    H14   41   0.513   0.069   0.267
    1UNL    H15   42   0.721  -0.034   0.170
    1UNL    H16   43   0.723  -0.106  -0.061
    1UNL    H17   44   0.529  -0.041  -0.215
    1UNL    H18   45   0.030   0.192  -0.037
    1UNL    H19   46   0.036  -0.061   0.151
    1UNL    H20   47  -0.043   0.105   0.179
    1UNL    H21   48  -0.197  -0.101   0.169
    1UNL    H22   49  -0.199   0.118  -0.126
    1UNL    H23   50  -0.433   0.362  -0.228
    1UNL    H24   51  -0.274   0.371  -0.166
    1UNL    H25   52  -0.340   0.237  -0.287
    1UNL    H26   53  -0.666   0.140   0.212
    1UNL    H27   54  -0.560   0.210   0.322
    1UNL    H28   55  -0.534   0.046   0.312
   0.00000   0.00000   0.00000   0.00000   0.00000   0.00000   0.00000   0.00000   0.00000
Generated with MDTraj, t= 37.0
 55
    1UNL     C1    1  -0.063  -0.314   0.144
    1UNL     C2    2  -0.159  -0.297   0.027
    1UNL     C3    3  -0.158  -0.153  -0.029
    1UNL     C4    4  -0.025  -0.120  -0.106
    1UNL     N1    5  -0.009   0.021  -0.128
    1UNL     C5    6   0.074   0.047  -0.255
    1UNL     C6    7   0.213  -0.001  -0.248
    1UNL     C7    8   0.269   0.019  -0.108
    1UNL     C8    9   0.187   0.053   0.003
    1UNL     N2   10   0.265   0.053   0.115
    1UNL     C9   11   0.395   0.019   0.082
    1UNL    C10   12   0.516   0.023   0.156
    1UNL    C11   13   0.638   0.003   0.103
    1UNL    C12   14   0.641  -0.036  -0.032
    1UNL    C13   15   0.529  -0.038  -0.113
    1UNL    C14   16   0.398  -0.016  -0.055
    1UNL    C15   17   0.044   0.087  -0.009
    1UNL    C16   18  -0.037   0.036   0.117
    1UNL    C17   19  -0.171  -0.039   0.083
    1UNL    C18   20  -0.281   0.054   0.053
    1UNL    C19   21  -0.282   0.133  -0.056
    1UNL     O1   22  -0.365   0.235  -0.091
    1UNL    C20   23  -0.316   0.299  -0.205
    1UNL    C21   24  -0.375   0.072   0.164
    1UNL     O2   25  -0.341   0.039   0.276
    1UNL     O3   26  -0.498   0.112   0.135
    1UNL    C22   27  -0.562   0.141   0.253
    1UNL     H1   28   0.038  -0.317   0.113
    1UNL     H2   29  -0.071  -0.412   0.190
    1UNL     H3   30  -0.090  -0.244   0.219
    1UNL     H4   31  -0.126  -0.361  -0.054
    1UNL     H5   32  -0.252  -0.333   0.065
    1UNL     H6   33  -0.239  -0.132  -0.109
    1UNL     H7   34  -0.026  -0.170  -0.198
    1UNL     H8   35   0.058  -0.159  -0.050
    1UNL     H9   36   0.011  -0.001  -0.338
    1UNL    H10   37   0.070   0.161  -0.257
    1UNL    H11   38   0.278   0.053  -0.316
    1UNL    H12   39   0.233  -0.099  -0.273
    1UNL    H13   40   0.225   0.092   0.207
    1UNL    H14   41   0.504   0.035   0.259
    1UNL    H15   42   0.723   0.009   0.170
    1UNL    H16   43   0.732  -0.080  -0.072
    1UNL    H17   44   0.542  -0.047  -0.221
    1UNL    H18   45   0.036   0.196  -0.032
    1UNL    H19   46   0.047  -0.029   0.153
    1UNL    H20   47  -0.055   0.128   0.175
    1UNL    H21   48  -0.202  -0.088   0.174
    1UNL    H22   49  -0.208   0.111  -0.137
    1UNL    H23   50  -0.388   0.373  -0.222
    1UNL    H24   51  -0.226   0.355  -0.180
    1UNL    H25   52  -0.311   0.233  -0.290
    1UNL    H26   53  -0.645   0.210   0.237
    1UNL    H27   54  -0.510   0.191   0.331
    1UNL    H28   55  -0.584   0.047   0.314
   0.00000   0.00000   0.00000   0.00000   0.00000   0.00000   0.00000   0.00000   0.00000
Generated with MDTraj, t= 38.0
 55
    1UNL     C1    1  -0.013  -0.328   0.133
    1UNL     C2    2  -0.138  -0.306   0.046
    1UNL     C3    3  -0.163  -0.160  -0.006
    1UNL     C4    4  -0.068  -0.126  -0.125
    1UNL     N1    5  -0.020   0.015  -0.132
    1UNL     C5    6   0.076   0.046  -0.253
    1UNL     C6    7   0.221   0.010  -0.244
    1UNL     C7    8   0.274   0.024  -0.102
    1UNL     C8    9   0.200   0.056   0.006
    1UNL     N2   10   0.273   0.052   0.118
    1UNL     C9   11   0.403   0.025   0.080
    1UNL    C10   12   0.518   0.008   0.158
    1UNL    C11   13   0.636  -0.015   0.091
    1UNL    C12   14   0.642  -0.027  -0.048
    1UNL    C13   15   0.531  -0.017  -0.121
    1UNL    C14   16   0.409   0.002  -0.055
    1UNL    C15   17   0.044   0.065  -0.001
    1UNL    C16   18  -0.039   0.013   0.124
    1UNL    C17   19  -0.173  -0.045   0.102
    1UNL    C18   20  -0.278   0.066   0.068
    1UNL    C19   21  -0.277   0.133  -0.043
    1UNL     O1   22  -0.355   0.236  -0.081
    1UNL    C20   23  -0.317   0.291  -0.210
    1UNL    C21   24  -0.385   0.084   0.161
    1UNL     O2   25  -0.376   0.042   0.276
    1UNL     O3   26  -0.498   0.152   0.122
    1UNL    C22   27  -0.591   0.145   0.225
    1UNL     H1   28   0.079  -0.319   0.089
    1UNL     H2   29  -0.001  -0.429   0.174
    1UNL     H3   30  -0.030  -0.268   0.222
    1UNL     H4   31  -0.128  -0.382  -0.031
    1UNL     H5   32  -0.226  -0.334   0.097
    1UNL     H6   33  -0.273  -0.153  -0.047
    1UNL     H7   34  -0.108  -0.147  -0.219
    1UNL     H8   35   0.016  -0.194  -0.116
    1UNL     H9   36   0.024  -0.005  -0.340
    1UNL    H10   37   0.068   0.160  -0.260
    1UNL    H11   38   0.287   0.063  -0.311
    1UNL    H12   39   0.239  -0.088  -0.274
    1UNL    H13   40   0.250   0.080   0.216
    1UNL    H14   41   0.514   0.011   0.269
    1UNL    H15   42   0.725  -0.034   0.149
    1UNL    H16   43   0.738  -0.048  -0.091
    1UNL    H17   44   0.525  -0.037  -0.225
    1UNL    H18   45   0.017   0.172  -0.009
    1UNL    H19   46   0.030  -0.064   0.164
    1UNL    H20   47  -0.036   0.101   0.187
    1UNL    H21   48  -0.202  -0.097   0.191
    1UNL    H22   49  -0.192   0.123  -0.104
    1UNL    H23   50  -0.358   0.388  -0.222
    1UNL    H24   51  -0.208   0.307  -0.216
    1UNL    H25   52  -0.332   0.216  -0.290
    1UNL    H26   53  -0.683   0.200   0.204
    1UNL    H27   54  -0.561   0.187   0.318
    1UNL    H28   55  -0.615   0.033   0.249
   0.00000   0.00000   0.00000   0.00000   0.00000   0.00000   0.00000   0.00000   0.00000
Generated with MDTraj, t= 39.0
 55
    1UNL     C1    1  -0.005  -0.336   0.131
    1UNL     C2    2  -0.140  -0.290   0.071
    1UNL     C3    3  -0.151  -0.154   0.001
    1UNL     C4    4  -0.052  -0.127  -0.110
    1UNL     N1    5  -0.014   0.024  -0.121
    1UNL     C5    6   0.070   0.069  -0.243
    1UNL     C6    7   0.209   0.013  -0.243
    1UNL     C7    8   0.262   0.012  -0.098
    1UNL     C8    9   0.187   0.037   0.016
    1UNL     N2   10   0.264   0.041   0.129
    1UNL     C9   11   0.397   0.021   0.087
    1UNL    C10   12   0.520   0.005   0.150
    1UNL    C11   13   0.634  -0.017   0.072
    1UNL    C12   14   0.630  -0.024  -0.065
    1UNL    C13   15   0.510  -0.015  -0.129
    1UNL    C14   16   0.396   0.012  -0.058
    1UNL    C15   17   0.044   0.073   0.008
    1UNL    C16   18  -0.028   0.018   0.139
    1UNL    C17   19  -0.168  -0.040   0.109
    1UNL    C18   20  -0.268   0.064   0.071
    1UNL    C19   21  -0.252   0.147  -0.042
    1UNL     O1   22  -0.351   0.237  -0.082
    1UNL    C20   23  -0.317   0.276  -0.212
    1UNL    C21   24  -0.388   0.070   0.153
    1UNL     O2   25  -0.397   0.002   0.254
    1UNL     O3   26  -0.480   0.164   0.112
    1UNL    C22   27  -0.579   0.159   0.199
    1UNL     H1   28   0.072  -0.353   0.060
    1UNL     H2   29  -0.014  -0.437   0.168
    1UNL     H3   30   0.018  -0.280   0.222
    1UNL     H4   31  -0.160  -0.359  -0.010
    1UNL     H5   32  -0.219  -0.315   0.137
    1UNL     H6   33  -0.258  -0.158  -0.047
    1UNL     H7   34  -0.085  -0.156  -0.203
    1UNL     H8   35   0.046  -0.182  -0.101
    1UNL     H9   36   0.012   0.021  -0.329
    1UNL    H10   37   0.072   0.183  -0.241
    1UNL    H11   38   0.280   0.068  -0.303
    1UNL    H12   39   0.213  -0.087  -0.278
    1UNL    H13   40   0.239   0.047   0.226
    1UNL    H14   41   0.530   0.030   0.252
    1UNL    H15   42   0.732   0.002   0.114
    1UNL    H16   43   0.720  -0.035  -0.123
    1UNL    H17   44   0.503  -0.042  -0.233
    1UNL    H18   45   0.020   0.179   0.012
    1UNL    H19   46   0.048  -0.049   0.186
    1UNL    H20   47  -0.042   0.098   0.212
    1UNL    H21   48  -0.204  -0.093   0.194
    1UNL    H22   49  -0.174   0.119  -0.113
    1UNL    H23   50  -0.400   0.333  -0.249
    1UNL    H24   51  -0.235   0.351  -0.208
    1UNL    H25   52  -0.272   0.190  -0.271
    1UNL    H26   53  -0.667   0.213   0.158
    1UNL    H27   54  -0.557   0.203   0.295
    1UNL    H28   55  -0.618   0.049   0.205
   0.00000   0.00000   0.00000   0.00000   0.00000   0.00000   0.00000   0.00000   0.00000
Generated with MDTraj, t= 40.0
 55
    1UNL     C1    1  -0.039  -0.306   0.160
    1UNL     C2    2  -0.158  -0.285   0.063
    1UNL     C3    3  -0.146  -0.148  -0.007
    1UNL     C4    4  -0.026  -0.120  -0.090
    1UNL     N1    5  -0.002   0.026  -0.107
    1UNL     C5    6   0.065   0.069  -0.235
    1UNL     C6    7   0.216   0.027  -0.235
    1UNL     C7    8   0.265   0.018  -0.098
    1UNL     C8    9   0.194   0.036   0.021
    1UNL     N2   10   0.286   0.040   0.125
    1UNL     C9   11   0.415   0.022   0.070
    1UNL    C10   12   0.538   0.007   0.142
    1UNL    C11   13   0.648  -0.018   0.066
    1UNL    C12   14   0.635  -0.034  -0.072
    1UNL    C13   15   0.518  -0.030  -0.144
    1UNL    C14   16   0.405   0.008  -0.066
    1UNL    C15   17   0.049   0.077   0.018
    1UNL    C16   18  -0.038   0.037   0.140
    1UNL    C17   19  -0.174  -0.037   0.100
    1UNL    C18   20  -0.281   0.056   0.066
    1UNL    C19   21  -0.279   0.135  -0.048
    1UNL     O1   22  -0.354   0.228  -0.102
    1UNL    C20   23  -0.295   0.279  -0.216
    1UNL    C21   24  -0.406   0.059   0.148
    1UNL     O2   25  -0.423  -0.027   0.233
    1UNL     O3   26  -0.490   0.167   0.131
    1UNL    C22   27  -0.591   0.152   0.227
    1UNL     H1   28   0.056  -0.271   0.116
    1UNL     H2   29  -0.021  -0.408   0.174
    1UNL     H3   30  -0.068  -0.267   0.257
    1UNL     H4   31  -0.158  -0.358  -0.017
    1UNL     H5   32  -0.250  -0.307   0.110
    1UNL     H6   33  -0.239  -0.138  -0.080
    1UNL     H7   34  -0.026  -0.160  -0.185
    1UNL     H8   35   0.070  -0.163  -0.042
    1UNL     H9   36   0.008   0.014  -0.316
    1UNL    H10   37   0.057   0.184  -0.234
    1UNL    H11   38   0.277   0.097  -0.288
    1UNL    H12   39   0.232  -0.071  -0.279
    1UNL    H13   40   0.264   0.060   0.217
    1UNL    H14   41   0.546   0.039   0.248
    1UNL    H15   42   0.741  -0.012   0.121
    1UNL    H16   43   0.725  -0.053  -0.130
    1UNL    H17   44   0.516  -0.063  -0.247
    1UNL    H18   45   0.045   0.185   0.020
    1UNL    H19   46   0.019  -0.030   0.210
    1UNL    H20   47  -0.051   0.124   0.205
    1UNL    H21   48  -0.206  -0.091   0.186
    1UNL    H22   49  -0.200   0.119  -0.123
    1UNL    H23   50  -0.333   0.379  -0.236
    1UNL    H24   51  -0.184   0.291  -0.202
    1UNL    H25   52  -0.296   0.198  -0.297
    1UNL    H26   53  -0.666   0.231   0.240
    1UNL    H27   54  -0.551   0.137   0.326
    1UNL    H28   55  -0.663   0.071   0.188
   0.00000   0.00000   0.00000   0.00000   0.00000   0.00000   0.00000   0.00000   0.00000
Generated with MDTraj, t= 41.0
 55
    1UNL     C1    1  -0.064  -0.301   0.192
    1UNL     C2    2  -0.153  -0.286   0.062
    1UNL     C3    3  -0.153  -0.145  -0.008
    1UNL     C4    4  -0.037  -0.122  -0.103
    1UNL     N1    5   0.001   0.022  -0.113
    1UNL     C5    6   0.060   0.048  -0.240
    1UNL     C6    7   0.212   0.010  -0.238
    1UNL     C7    8   0.273   0.034  -0.106
    1UNL     C8    9   0.200   0.064   0.005
    1UNL     N2   10   0.285   0.061   0.114
    1UNL     C9   11   0.411   0.025   0.074
    1UNL    C10   12   0.524  -0.003   0.148
    1UNL    C11   13   0.637  -0.029   0.078
    1UNL    C12   14   0.647  -0.039  -0.062
    1UNL    C13   15   0.528  -0.023  -0.133
    1UNL    C14   16   0.405   0.007  -0.069
    1UNL    C15   17   0.054   0.078   0.014
    1UNL    C16   18  -0.018   0.018   0.137
    1UNL    C17   19  -0.168  -0.032   0.097
    1UNL    C18   20  -0.270   0.069   0.063
    1UNL    C19   21  -0.266   0.144  -0.045
    1UNL     O1   22  -0.374   0.219  -0.094
    1UNL    C20   23  -0.331   0.302  -0.200
    1UNL    C21   24  -0.390   0.063   0.137
    1UNL     O2   25  -0.411  -0.035   0.207
    1UNL     O3   26  -0.473   0.168   0.142
    1UNL    C22   27  -0.579   0.132   0.223
    1UNL     H1   28   0.045  -0.279   0.177
    1UNL     H2   29  -0.065  -0.396   0.237
    1UNL     H3   30  -0.115  -0.246   0.267
    1UNL     H4   31  -0.128  -0.368  -0.004
    1UNL     H5   32  -0.258  -0.300   0.070
    1UNL     H6   33  -0.252  -0.125  -0.070
    1UNL     H7   34  -0.061  -0.159  -0.198
    1UNL     H8   35   0.056  -0.177  -0.064
    1UNL     H9   36   0.008  -0.010  -0.323
    1UNL    H10   37   0.052   0.162  -0.254
    1UNL    H11   38   0.266   0.070  -0.307
    1UNL    H12   39   0.222  -0.096  -0.261
    1UNL    H13   40   0.258   0.073   0.205
    1UNL    H14   41   0.520  -0.002   0.255
    1UNL    H15   42   0.724  -0.067   0.129
    1UNL    H16   43   0.740  -0.077  -0.099
    1UNL    H17   44   0.532  -0.031  -0.240
    1UNL    H18   45   0.031   0.184   0.008
    1UNL    H19   46   0.049  -0.056   0.188
    1UNL    H20   47  -0.029   0.085   0.222
    1UNL    H21   48  -0.203  -0.072   0.191
    1UNL    H22   49  -0.171   0.169  -0.084
    1UNL    H23   50  -0.419   0.342  -0.250
    1UNL    H24   51  -0.269   0.390  -0.174
    1UNL    H25   52  -0.267   0.241  -0.270
    1UNL    H26   53  -0.655   0.207   0.216
    1UNL    H27   54  -0.551   0.127   0.326
    1UNL    H28   55  -0.633   0.043   0.177
   0.00000   0.00000   0.00000   0.00000   0.00000   0.00000   0.00000   0.00000   0.00000
Generated with MDTraj, t= 42.0
 55
    1UNL     C1    1  -0.041  -0.334   0.155
    1UNL     C2    2  -0.159  -0.283   0.072
    1UNL     C3    3  -0.145  -0.148  -0.005
    1UNL     C4    4  -0.024  -0.128  -0.105
    1UNL     N1    5   0.009   0.013  -0.137
    1UNL     C5    6   0.075   0.022  -0.269
    1UNL     C6    7   0.229   0.013  -0.251
    1UNL     C7    8   0.278   0.026  -0.112
    1UNL     C8    9   0.200   0.066  -0.005
    1UNL     N2   10   0.273   0.063   0.112
    1UNL     C9   11   0.399   0.019   0.077
    1UNL    C10   12   0.518   0.015   0.156
    1UNL    C11   13   0.636  -0.019   0.094
    1UNL    C12   14   0.637  -0.053  -0.044
    1UNL    C13   15   0.527  -0.040  -0.121
    1UNL    C14   16   0.403  -0.008  -0.060
    1UNL    C15   17   0.051   0.092  -0.015
    1UNL    C16   18  -0.030   0.074   0.114
    1UNL    C17   19  -0.156  -0.025   0.098
    1UNL    C18   20  -0.283   0.061   0.066
    1UNL    C19   21  -0.272   0.158  -0.031
    1UNL     O1   22  -0.367   0.254  -0.060
    1UNL    C20   23  -0.337   0.300  -0.193
    1UNL    C21   24  -0.393   0.055   0.155
    1UNL     O2   25  -0.412  -0.041   0.229
    1UNL     O3   26  -0.481   0.163   0.145
    1UNL    C22   27  -0.591   0.133   0.224
    1UNL     H1   28   0.044  -0.370   0.093
    1UNL     H2   29  -0.074  -0.410   0.222
    1UNL     H3   30  -0.019  -0.257   0.226
    1UNL     H4   31  -0.179  -0.345  -0.017
    1UNL     H5   32  -0.250  -0.301   0.126
    1UNL     H6   33  -0.242  -0.139  -0.069
    1UNL     H7   34  -0.052  -0.176  -0.196
    1UNL     H8   35   0.068  -0.176  -0.060
    1UNL     H9   36   0.043  -0.066  -0.334
    1UNL    H10   37   0.049   0.114  -0.330
    1UNL    H11   38   0.277   0.080  -0.317
    1UNL    H12   39   0.259  -0.087  -0.286
    1UNL    H13   40   0.249   0.081   0.206
    1UNL    H14   41   0.512   0.020   0.263
    1UNL    H15   42   0.728  -0.031   0.151
    1UNL    H16   43   0.730  -0.096  -0.081
    1UNL    H17   44   0.544  -0.044  -0.229
    1UNL    H18   45   0.042   0.190  -0.063
    1UNL    H19   46   0.029   0.036   0.201
    1UNL    H20   47  -0.053   0.170   0.158
    1UNL    H21   48  -0.159  -0.071   0.196
    1UNL    H22   49  -0.187   0.146  -0.102
    1UNL    H23   50  -0.428   0.319  -0.250
    1UNL    H24   51  -0.278   0.390  -0.199
    1UNL    H25   52  -0.278   0.220  -0.243
    1UNL    H26   53  -0.663   0.209   0.233
    1UNL    H27   54  -0.556   0.111   0.322
    1UNL    H28   55  -0.637   0.040   0.182
   0.00000   0.00000   0.00000   0.00000   0.00000   0.00000   0.00000   0.00000   0.00000
Generated with MDTraj, t= 43.0
 55
    1UNL     C1    1  -0.029  -0.327   0.125
    1UNL     C2    2  -0.161  -0.272   0.065
    1UNL     C3    3  -0.153  -0.138  -0.008
    1UNL     C4    4  -0.045  -0.127  -0.114
    1UNL     N1    5  -0.004   0.021  -0.135
    1UNL     C5    6   0.081   0.031  -0.260
    1UNL     C6    7   0.223  -0.026  -0.240
    1UNL     C7    8   0.282   0.013  -0.115
    1UNL     C8    9   0.198   0.061  -0.013
    1UNL     N2   10   0.275   0.074   0.099
    1UNL     C9   11   0.407   0.042   0.070
    1UNL    C10   12   0.518   0.034   0.162
    1UNL    C11   13   0.630  -0.024   0.114
    1UNL    C12   14   0.634  -0.069  -0.021
    1UNL    C13   15   0.532  -0.053  -0.113
    1UNL    C14   16   0.413  -0.002  -0.065
    1UNL    C15   17   0.051   0.093  -0.016
    1UNL    C16   18  -0.022   0.054   0.110
    1UNL    C17   19  -0.158  -0.014   0.084
    1UNL    C18   20  -0.283   0.073   0.065
    1UNL    C19   21  -0.280   0.158  -0.046
    1UNL     O1   22  -0.375   0.243  -0.085
    1UNL    C20   23  -0.331   0.321  -0.189
    1UNL    C21   24  -0.391   0.060   0.163
    1UNL     O2   25  -0.384  -0.024   0.250
    1UNL     O3   26  -0.496   0.142   0.147
    1UNL    C22   27  -0.587   0.104   0.244
    1UNL     H1   28   0.041  -0.366   0.052
    1UNL     H2   29  -0.056  -0.400   0.202
    1UNL     H3   30   0.006  -0.246   0.181
    1UNL     H4   31  -0.204  -0.350  -0.001
    1UNL     H5   32  -0.243  -0.264   0.137
    1UNL     H6   33  -0.261  -0.133  -0.054
    1UNL     H7   34  -0.092  -0.172  -0.204
    1UNL     H8   35   0.035  -0.189  -0.074
    1UNL     H9   36   0.030  -0.014  -0.351
    1UNL    H10   37   0.084   0.139  -0.295
    1UNL    H11   38   0.289  -0.010  -0.320
    1UNL    H12   39   0.216  -0.137  -0.241
    1UNL    H13   40   0.244   0.112   0.189
    1UNL    H14   41   0.504   0.073   0.265
    1UNL    H15   42   0.713  -0.025   0.181
    1UNL    H16   43   0.729  -0.091  -0.064
    1UNL    H17   44   0.550  -0.084  -0.214
    1UNL    H18   45   0.051   0.201  -0.034
    1UNL    H19   46   0.051   0.003   0.177
    1UNL    H20   47  -0.053   0.137   0.172
    1UNL    H21   48  -0.172  -0.067   0.179
    1UNL    H22   49  -0.191   0.159  -0.108
    1UNL    H23   50  -0.348   0.423  -0.157
    1UNL    H24   51  -0.225   0.321  -0.205
    1UNL    H25   52  -0.386   0.302  -0.281
    1UNL    H26   53  -0.661   0.176   0.259
    1UNL    H27   54  -0.534   0.096   0.337
    1UNL    H28   55  -0.613  -0.006   0.231
   0.00000   0.00000   0.00000   0.00000   0.00000   0.00000   0.00000   0.00000   0.00000
Generated with MDTraj, t= 44.0
 55
    1UNL     C1    1  -0.048  -0.298   0.129
    1UNL     C2    2  -0.158  -0.283   0.028
    1UNL     C3    3  -0.152  -0.138  -0.034
    1UNL     C4    4  -0.018  -0.122  -0.113
    1UNL     N1    5   0.007   0.018  -0.144
    1UNL     C5    6   0.090   0.031  -0.267
    1UNL     C6    7   0.229  -0.019  -0.241
    1UNL     C7    8   0.264  -0.002  -0.101
    1UNL     C8    9   0.196   0.070  -0.010
    1UNL     N2   10   0.271   0.094   0.105
    1UNL     C9   11   0.397   0.041   0.080
    1UNL    C10   12   0.515   0.052   0.149
    1UNL    C11   13   0.628  -0.007   0.095
    1UNL    C12   14   0.632  -0.075  -0.026
    1UNL    C13   15   0.510  -0.084  -0.095
    1UNL    C14   16   0.394  -0.020  -0.048
    1UNL    C15   17   0.045   0.082  -0.019
    1UNL    C16   18  -0.021   0.035   0.110
    1UNL    C17   19  -0.161  -0.034   0.086
    1UNL    C18   20  -0.272   0.063   0.071
    1UNL    C19   21  -0.272   0.147  -0.033
    1UNL     O1   22  -0.369   0.246  -0.063
    1UNL    C20   23  -0.346   0.321  -0.180
    1UNL    C21   24  -0.381   0.066   0.167
    1UNL     O2   25  -0.368   0.002   0.270
    1UNL     O3   26  -0.496   0.129   0.130
    1UNL    C22   27  -0.584   0.112   0.236
    1UNL     H1   28   0.038  -0.243   0.109
    1UNL     H2   29  -0.022  -0.403   0.153
    1UNL     H3   30  -0.083  -0.262   0.224
    1UNL     H4   31  -0.141  -0.354  -0.057
    1UNL     H5   32  -0.260  -0.306   0.062
    1UNL     H6   33  -0.245  -0.116  -0.099
    1UNL     H7   34  -0.033  -0.175  -0.210
    1UNL     H8   35   0.060  -0.162  -0.057
    1UNL     H9   36   0.041  -0.024  -0.354
    1UNL    H10   37   0.091   0.136  -0.310
    1UNL    H11   38   0.302   0.018  -0.308
    1UNL    H12   39   0.237  -0.128  -0.266
    1UNL    H13   40   0.252   0.157   0.190
    1UNL    H14   41   0.508   0.113   0.233
    1UNL    H15   42   0.725   0.018   0.138
    1UNL    H16   43   0.729  -0.103  -0.067
    1UNL    H17   44   0.502  -0.141  -0.187
    1UNL    H18   45   0.014   0.187  -0.033
    1UNL    H19   46   0.051  -0.036   0.156
    1UNL    H20   47  -0.016   0.110   0.187
    1UNL    H21   48  -0.189  -0.089   0.178
    1UNL    H22   49  -0.183   0.154  -0.091
    1UNL    H23   50  -0.369   0.424  -0.159
    1UNL    H24   51  -0.242   0.326  -0.194
    1UNL    H25   52  -0.407   0.294  -0.269
    1UNL    H26   53  -0.679   0.148   0.209
    1UNL    H27   54  -0.551   0.173   0.320
    1UNL    H28   55  -0.571   0.007   0.281
   0.00000   0.00000   0.00000   0.00000   0.00000   0.00000   0.00000   0.00000   0.00000
Generated with MDTraj, t= 45.0
 55
    1UNL     C1    1  -0.068  -0.329   0.144
    1UNL     C2    2  -0.167  -0.296   0.034
    1UNL     C3    3  -0.156  -0.145  -0.028
    1UNL     C4    4  -0.041  -0.123  -0.124
    1UNL     N1    5  -0.008   0.022  -0.147
    1UNL     C5    6   0.083   0.047  -0.256
    1UNL     C6    7   0.224  -0.020  -0.242
    1UNL     C7    8   0.279   0.002  -0.110
    1UNL     C8    9   0.200   0.054  -0.012
    1UNL     N2   10   0.279   0.095   0.096
    1UNL     C9   11   0.407   0.046   0.073
    1UNL    C10   12   0.522   0.040   0.156
    1UNL    C11   13   0.639  -0.019   0.112
    1UNL    C12   14   0.644  -0.060  -0.024
    1UNL    C13   15   0.533  -0.053  -0.105
    1UNL    C14   16   0.413  -0.003  -0.059
    1UNL    C15   17   0.051   0.073  -0.016
    1UNL    C16   18  -0.032   0.036   0.114
    1UNL    C17   19  -0.168  -0.039   0.091
    1UNL    C18   20  -0.279   0.059   0.060
    1UNL    C19   21  -0.272   0.146  -0.039
    1UNL     O1   22  -0.359   0.246  -0.059
    1UNL    C20   23  -0.347   0.314  -0.185
    1UNL    C21   24  -0.381   0.067   0.162
    1UNL     O2   25  -0.363   0.026   0.276
    1UNL     O3   26  -0.507   0.117   0.125
    1UNL    C22   27  -0.579   0.125   0.240
    1UNL     H1   28   0.028  -0.322   0.107
    1UNL     H2   29  -0.088  -0.425   0.193
    1UNL     H3   30  -0.069  -0.253   0.220
    1UNL     H4   31  -0.151  -0.361  -0.058
    1UNL     H5   32  -0.270  -0.316   0.074
    1UNL     H6   33  -0.249  -0.113  -0.087
    1UNL     H7   34  -0.052  -0.175  -0.223
    1UNL     H8   35   0.043  -0.159  -0.077
    1UNL     H9   36   0.038   0.026  -0.359
    1UNL    H10   37   0.106   0.158  -0.260
    1UNL    H11   38   0.291   0.027  -0.309
    1UNL    H12   39   0.229  -0.125  -0.281
    1UNL    H13   40   0.240   0.128   0.192
    1UNL    H14   41   0.520   0.085   0.258
    1UNL    H15   42   0.716  -0.033   0.184
    1UNL    H16   43   0.728  -0.114  -0.064
    1UNL    H17   44   0.534  -0.096  -0.204
    1UNL    H18   45   0.025   0.181  -0.023
    1UNL    H19   46   0.033  -0.003   0.194
    1UNL    H20   47  -0.046   0.134   0.157
    1UNL    H21   48  -0.213  -0.085   0.183
    1UNL    H22   49  -0.190   0.133  -0.112
    1UNL    H23   50  -0.436   0.371  -0.216
    1UNL    H24   51  -0.270   0.387  -0.168
    1UNL    H25   52  -0.325   0.243  -0.268
    1UNL    H26   53  -0.663   0.182   0.210
    1UNL    H27   54  -0.523   0.175   0.323
    1UNL    H28   55  -0.610   0.020   0.281
   0.00000   0.00000   0.00000   0.00000   0.00000   0.00000   0.00000   0.00000   0.00000
Generated with MDTraj, t= 46.0
 55
    1UNL     C1    1  -0.074  -0.353   0.124
    1UNL     C2    2  -0.185  -0.293   0.041
    1UNL     C3    3  -0.164  -0.148  -0.013
    1UNL     C4    4  -0.054  -0.134  -0.103
    1UNL     N1    5  -0.003   0.008  -0.137
    1UNL     C5    6   0.083   0.030  -0.260
    1UNL     C6    7   0.232  -0.002  -0.241
    1UNL     C7    8   0.276   0.024  -0.104
    1UNL     C8    9   0.194   0.058   0.004
    1UNL     N2   10   0.270   0.061   0.120
    1UNL     C9   11   0.403   0.032   0.082
    1UNL    C10   12   0.523   0.011   0.157
    1UNL    C11   13   0.645  -0.011   0.100
    1UNL    C12   14   0.642  -0.028  -0.042
    1UNL    C13   15   0.528  -0.019  -0.119
    1UNL    C14   16   0.408   0.015  -0.056
    1UNL    C15   17   0.048   0.077  -0.016
    1UNL    C16   18  -0.031   0.039   0.112
    1UNL    C17   19  -0.169  -0.031   0.097
    1UNL    C18   20  -0.268   0.072   0.066
    1UNL    C19   21  -0.266   0.142  -0.055
    1UNL     O1   22  -0.365   0.223  -0.094
    1UNL    C20   23  -0.327   0.308  -0.199
    1UNL    C21   24  -0.373   0.082   0.176
    1UNL     O2   25  -0.362   0.018   0.282
    1UNL     O3   26  -0.485   0.154   0.137
    1UNL    C22   27  -0.581   0.122   0.231
    1UNL     H1   28   0.006  -0.376   0.058
    1UNL     H2   29  -0.115  -0.435   0.180
    1UNL     H3   30  -0.033  -0.281   0.192
    1UNL     H4   31  -0.189  -0.368  -0.046
    1UNL     H5   32  -0.282  -0.291   0.098
    1UNL     H6   33  -0.261  -0.128  -0.069
    1UNL     H7   34  -0.078  -0.175  -0.204
    1UNL     H8   35   0.033  -0.183  -0.073
    1UNL     H9   36   0.048  -0.032  -0.350
    1UNL    H10   37   0.078   0.139  -0.294
    1UNL    H11   38   0.293   0.049  -0.312
    1UNL    H12   39   0.253  -0.108  -0.270
    1UNL    H13   40   0.239   0.085   0.222
    1UNL    H14   41   0.508   0.011   0.261
    1UNL    H15   42   0.733  -0.051   0.149
    1UNL    H16   43   0.725  -0.065  -0.101
    1UNL    H17   44   0.528  -0.039  -0.224
    1UNL    H18   45   0.031   0.185  -0.033
    1UNL    H19   46   0.041  -0.021   0.168
    1UNL    H20   47  -0.039   0.129   0.172
    1UNL    H21   48  -0.206  -0.087   0.189
    1UNL    H22   49  -0.183   0.133  -0.124
    1UNL    H23   50  -0.413   0.378  -0.219
    1UNL    H24   51  -0.238   0.364  -0.173
    1UNL    H25   52  -0.318   0.238  -0.286
    1UNL    H26   53  -0.682   0.130   0.195
    1UNL    H27   54  -0.559   0.171   0.330
    1UNL    H28   55  -0.575   0.005   0.250
   0.00000   0.00000   0.00000   0.00000   0.00000   0.00000   0.00000   0.00000   0.00000
Generated with MDTraj, t= 47.0
 55
    1UNL     C1    1  -0.078  -0.343   0.125
    1UNL     C2    2  -0.191  -0.299   0.031
    1UNL     C3    3  -0.162  -0.155  -0.016
    1UNL     C4    4  -0.037  -0.140  -0.093
    1UNL     N1    5  -0.004   0.009  -0.122
    1UNL     C5    6   0.074   0.040  -0.247
    1UNL     C6    7   0.226   0.032  -0.246
    1UNL     C7    8   0.274   0.037  -0.105
    1UNL     C8    9   0.195   0.051   0.005
    1UNL     N2   10   0.273   0.028   0.117
    1UNL     C9   11   0.404   0.015   0.081
    1UNL    C10   12   0.522   0.017   0.157
    1UNL    C11   13   0.640   0.009   0.086
    1UNL    C12   14   0.648  -0.009  -0.053
    1UNL    C13   15   0.532  -0.018  -0.123
    1UNL    C14   16   0.408   0.006  -0.059
    1UNL    C15   17   0.047   0.067   0.000
    1UNL    C16   18  -0.023   0.009   0.123
    1UNL    C17   19  -0.168  -0.044   0.102
    1UNL    C18   20  -0.274   0.062   0.078
    1UNL    C19   21  -0.264   0.144  -0.033
    1UNL     O1   22  -0.350   0.236  -0.093
    1UNL    C20   23  -0.316   0.279  -0.227
    1UNL    C21   24  -0.389   0.075   0.169
    1UNL     O2   25  -0.385   0.015   0.275
    1UNL     O3   26  -0.492   0.147   0.127
    1UNL    C22   27  -0.574   0.174   0.238
    1UNL     H1   28   0.019  -0.350   0.073
    1UNL     H2   29  -0.089  -0.432   0.178
    1UNL     H3   30  -0.046  -0.271   0.199
    1UNL     H4   31  -0.188  -0.364  -0.064
    1UNL     H5   32  -0.294  -0.313   0.079
    1UNL     H6   33  -0.246  -0.134  -0.086
    1UNL     H7   34  -0.035  -0.182  -0.195
    1UNL     H8   35   0.051  -0.175  -0.044
    1UNL     H9   36   0.037  -0.033  -0.327
    1UNL    H10   37   0.053   0.146  -0.288
    1UNL    H11   38   0.285   0.091  -0.315
    1UNL    H12   39   0.253  -0.070  -0.283
    1UNL    H13   40   0.240   0.034   0.217
    1UNL    H14   41   0.518   0.014   0.266
    1UNL    H15   42   0.736   0.017   0.133
    1UNL    H16   43   0.748  -0.010  -0.098
    1UNL    H17   44   0.519  -0.013  -0.231
    1UNL    H18   45   0.030   0.176  -0.006
    1UNL    H19   46   0.043  -0.059   0.178
    1UNL    H20   47  -0.029   0.093   0.189
    1UNL    H21   48  -0.183  -0.117   0.188
    1UNL    H22   49  -0.183   0.125  -0.098
    1UNL    H23   50  -0.391   0.363  -0.239
    1UNL    H24   51  -0.212   0.306  -0.245
    1UNL    H25   52  -0.353   0.196  -0.292
    1UNL    H26   53  -0.625   0.266   0.229
    1UNL    H27   54  -0.510   0.164   0.331
    1UNL    H28   55  -0.662   0.100   0.237
   0.00000   0.00000   0.00000   0.00000   0.00000   0.00000   0.00000   0.00000   0.00000
Generated with MDTraj, t= 48.0
 55
    1UNL     C1    1  -0.066  -0.342   0.138
    1UNL     C2    2  -0.172  -0.309   0.031
    1UNL     C3    3  -0.173  -0.168  -0.023
    1UNL     C4    4  -0.046  -0.141  -0.107
    1UNL     N1    5  -0.008   0.008  -0.113
    1UNL     C5    6   0.063   0.070  -0.224
    1UNL     C6    7   0.202   0.009  -0.229
    1UNL     C7    8   0.271   0.025  -0.096
    1UNL     C8    9   0.195   0.043   0.018
    1UNL     N2   10   0.279   0.037   0.122
    1UNL     C9   11   0.408   0.025   0.082
    1UNL    C10   12   0.527   0.018   0.145
    1UNL    C11   13   0.647   0.004   0.082
    1UNL    C12   14   0.643  -0.007  -0.060
    1UNL    C13   15   0.530   0.014  -0.132
    1UNL    C14   16   0.412   0.025  -0.059
    1UNL    C15   17   0.040   0.048   0.017
    1UNL    C16   18  -0.043  -0.018   0.135
    1UNL    C17   19  -0.184  -0.061   0.095
    1UNL    C18   20  -0.278   0.052   0.060
    1UNL    C19   21  -0.269   0.127  -0.050
    1UNL     O1   22  -0.344   0.230  -0.094
    1UNL    C20   23  -0.319   0.284  -0.231
    1UNL    C21   24  -0.378   0.077   0.161
    1UNL     O2   25  -0.397   0.009   0.262
    1UNL     O3   26  -0.450   0.188   0.136
    1UNL    C22   27  -0.559   0.191   0.226
    1UNL     H1   28   0.034  -0.297   0.116
    1UNL     H2   29  -0.053  -0.442   0.157
    1UNL     H3   30  -0.083  -0.298   0.235
    1UNL     H4   31  -0.156  -0.380  -0.058
    1UNL     H5   32  -0.274  -0.342   0.073
    1UNL     H6   33  -0.257  -0.149  -0.091
    1UNL     H7   34  -0.045  -0.176  -0.210
    1UNL     H8   35   0.043  -0.189  -0.056
    1UNL     H9   36   0.012   0.067  -0.327
    1UNL    H10   37   0.070   0.184  -0.203
    1UNL    H11   38   0.264   0.054  -0.304
    1UNL    H12   39   0.213  -0.099  -0.258
    1UNL    H13   40   0.247   0.042   0.218
    1UNL    H14   41   0.536   0.018   0.251
    1UNL    H15   42   0.735   0.013   0.145
    1UNL    H16   43   0.732  -0.002  -0.117
    1UNL    H17   44   0.528   0.020  -0.238
    1UNL    H18   45   0.021   0.156   0.012
    1UNL    H19   46   0.020  -0.102   0.162
    1UNL    H20   47  -0.049   0.041   0.225
    1UNL    H21   48  -0.220  -0.114   0.190
    1UNL    H22   49  -0.178   0.113  -0.112
    1UNL    H23   50  -0.410   0.348  -0.259
    1UNL    H24   51  -0.220   0.324  -0.237
    1UNL    H25   52  -0.318   0.194  -0.292
    1UNL    H26   53  -0.628   0.262   0.196
    1UNL    H27   54  -0.516   0.207   0.324
    1UNL    H28   55  -0.621   0.095   0.220
   0.00000   0.00000   0.00000   0.00000   0.00000   0.00000   0.00000   0.00000   0.00000
Generated with MDTraj, t= 49.0
 55
    1UNL     C1    1  -0.052  -0.351   0.122
    1UNL     C2    2  -0.170  -0.307   0.030
    1UNL     C3    3  -0.167  -0.166  -0.019
    1UNL     C4    4  -0.044  -0.138  -0.118
    1UNL     N1    5  -0.004   0.007  -0.124
    1UNL     C5    6   0.074   0.061  -0.239
    1UNL     C6    7   0.218   0.037  -0.229
    1UNL     C7    8   0.262   0.012  -0.090
    1UNL     C8    9   0.183   0.036   0.021
    1UNL     N2   10   0.261   0.034   0.133
    1UNL     C9   11   0.396   0.010   0.093
    1UNL    C10   12   0.521   0.032   0.153
    1UNL    C11   13   0.637   0.021   0.076
    1UNL    C12   14   0.630   0.011  -0.061
    1UNL    C13   15   0.511  -0.005  -0.134
    1UNL    C14   16   0.396  -0.007  -0.048
    1UNL    C15   17   0.034   0.063   0.009
    1UNL    C16   18  -0.039   0.007   0.141
    1UNL    C17   19  -0.176  -0.061   0.097
    1UNL    C18   20  -0.275   0.048   0.063
    1UNL    C19   21  -0.262   0.119  -0.058
    1UNL     O1   22  -0.357   0.210  -0.108
    1UNL    C20   23  -0.302   0.279  -0.221
    1UNL    C21   24  -0.382   0.072   0.164
    1UNL     O2   25  -0.411  -0.003   0.256
    1UNL     O3   26  -0.433   0.191   0.145
    1UNL    C22   27  -0.530   0.213   0.241
    1UNL     H1   28   0.040  -0.299   0.091
    1UNL     H2   29  -0.046  -0.457   0.121
    1UNL     H3   30  -0.068  -0.320   0.222
    1UNL     H4   31  -0.184  -0.388  -0.051
    1UNL     H5   32  -0.264  -0.320   0.097
    1UNL     H6   33  -0.256  -0.144  -0.076
    1UNL     H7   34  -0.070  -0.163  -0.220
    1UNL     H8   35   0.050  -0.194  -0.082
    1UNL     H9   36   0.032   0.012  -0.335
    1UNL    H10   37   0.061   0.176  -0.256
    1UNL    H11   38   0.293   0.106  -0.267
    1UNL    H12   39   0.244  -0.056  -0.285
    1UNL    H13   40   0.230   0.068   0.219
    1UNL    H14   41   0.530   0.056   0.257
    1UNL    H15   42   0.734   0.037   0.117
    1UNL    H16   43   0.722   0.026  -0.118
    1UNL    H17   44   0.499  -0.011  -0.243
    1UNL    H18   45   0.028   0.172  -0.007
    1UNL    H19   46   0.025  -0.060   0.197
    1UNL    H20   47  -0.048   0.095   0.206
    1UNL    H21   48  -0.214  -0.101   0.196
    1UNL    H22   49  -0.184   0.093  -0.123
    1UNL    H23   50  -0.385   0.353  -0.243
    1UNL    H24   51  -0.204   0.309  -0.196
    1UNL    H25   52  -0.292   0.206  -0.298
    1UNL    H26   53  -0.578   0.302   0.226
    1UNL    H27   54  -0.474   0.229   0.331
    1UNL    H28   55  -0.599   0.126   0.258
   0.00000   0.00000   0.00000   0.00000   0.00000   0.00000   0.00000   0.00000   0.00000
Generated with MDTraj, t= 50.0
 55
    1UNL     C1    1  -0.043  -0.352   0.126
    1UNL     C2    2  -0.153  -0.321   0.019
    1UNL     C3    3  -0.161  -0.171  -0.027
    1UNL     C4    4  -0.041  -0.142  -0.123
    1UNL     N1    5  -0.011   0.005  -0.124
    1UNL     C5    6   0.070   0.055  -0.242
    1UNL     C6    7   0.214  -0.002  -0.239
    1UNL     C7    8   0.266   0.008  -0.101
    1UNL     C8    9   0.183   0.033   0.006
    1UNL     N2   10   0.265   0.049   0.114
    1UNL     C9   11   0.396   0.038   0.081
    1UNL    C10   12   0.504   0.030   0.167
    1UNL    C11   13   0.625   0.004   0.102
    1UNL    C12   14   0.641  -0.001  -0.037
    1UNL    C13   15   0.532   0.008  -0.115
    1UNL    C14   16   0.405   0.026  -0.059
    1UNL    C15   17   0.038   0.060   0.002
    1UNL    C16   18  -0.046   0.002   0.125
    1UNL    C17   19  -0.176  -0.063   0.080
    1UNL    C18   20  -0.286   0.044   0.058
    1UNL    C19   21  -0.278   0.124  -0.053
    1UNL     O1   22  -0.360   0.219  -0.109
    1UNL    C20   23  -0.316   0.284  -0.229
    1UNL    C21   24  -0.386   0.074   0.160
    1UNL     O2   25  -0.394   0.004   0.262
    1UNL     O3   26  -0.453   0.203   0.157
    1UNL    C22   27  -0.517   0.219   0.282
    1UNL     H1   28   0.054  -0.363   0.079
    1UNL     H2   29  -0.065  -0.436   0.191
    1UNL     H3   30  -0.019  -0.272   0.192
    1UNL     H4   31  -0.146  -0.388  -0.075
    1UNL     H5   32  -0.259  -0.356   0.057
    1UNL     H6   33  -0.253  -0.166  -0.082
    1UNL     H7   34  -0.067  -0.178  -0.221
    1UNL     H8   35   0.056  -0.191  -0.080
    1UNL     H9   36   0.025   0.018  -0.342
    1UNL    H10   37   0.075   0.171  -0.252
    1UNL    H11   38   0.284   0.035  -0.314
    1UNL    H12   39   0.217  -0.112  -0.253
    1UNL    H13   40   0.238   0.066   0.205
    1UNL    H14   41   0.498   0.043   0.276
    1UNL    H15   42   0.712  -0.027   0.161
    1UNL    H16   43   0.733  -0.038  -0.074
    1UNL    H17   44   0.537  -0.005  -0.221
    1UNL    H18   45   0.027   0.169  -0.001
    1UNL    H19   46   0.022  -0.063   0.177
    1UNL    H20   47  -0.069   0.083   0.196
    1UNL    H21   48  -0.218  -0.113   0.171
    1UNL    H22   49  -0.192   0.110  -0.123
    1UNL    H23   50  -0.400   0.356  -0.246
    1UNL    H24   51  -0.218   0.317  -0.210
    1UNL    H25   52  -0.313   0.209  -0.304
    1UNL    H26   53  -0.519   0.320   0.306
    1UNL    H27   54  -0.451   0.178   0.358
    1UNL    H28   55  -0.616   0.166   0.289
   0.00000   0.00000   0.00000   0.00000   0.00000   0.00000   0.00000   0.00000   0.00000
Generated with MDTraj, t= 51.0
 55
    1UNL     C1    1  -0.058  -0.339   0.113
    1UNL     C2    2  -0.166  -0.310   0.015
    1UNL     C3    3  -0.175  -0.165  -0.037
    1UNL     C4    4  -0.054  -0.141  -0.133
    1UNL     N1    5  -0.004  -0.003  -0.138
    1UNL     C5    6   0.071   0.023  -0.266
    1UNL     C6    7   0.227   0.002  -0.243
    1UNL     C7    8   0.267   0.035  -0.103
    1UNL     C8    9   0.184   0.058   0.001
    1UNL     N2   10   0.254   0.074   0.118
    1UNL     C9   11   0.386   0.042   0.092
    1UNL    C10   12   0.498   0.039   0.177
    1UNL    C11   13   0.616   0.014   0.118
    1UNL    C12   14   0.626  -0.024  -0.020
    1UNL    C13   15   0.520  -0.029  -0.100
    1UNL    C14   16   0.397   0.014  -0.049
    1UNL    C15   17   0.040   0.066  -0.012
    1UNL    C16   18  -0.029   0.002   0.115
    1UNL    C17   19  -0.169  -0.057   0.075
    1UNL    C18   20  -0.267   0.050   0.057
    1UNL    C19   21  -0.273   0.120  -0.057
    1UNL     O1   22  -0.362   0.217  -0.087
    1UNL    C20   23  -0.357   0.278  -0.216
    1UNL    C21   24  -0.355   0.080   0.166
    1UNL     O2   25  -0.355   0.007   0.266
    1UNL     O3   26  -0.424   0.201   0.169
    1UNL    C22   27  -0.516   0.189   0.267
    1UNL     H1   28   0.033  -0.311   0.072
    1UNL     H2   29  -0.065  -0.445   0.141
    1UNL     H3   30  -0.065  -0.279   0.201
    1UNL     H4   31  -0.158  -0.377  -0.078
    1UNL     H5   32  -0.270  -0.342   0.059
    1UNL     H6   33  -0.275  -0.168  -0.078
    1UNL     H7   34  -0.086  -0.163  -0.233
    1UNL     H8   35   0.031  -0.210  -0.099
    1UNL     H9   36   0.045  -0.052  -0.351
    1UNL    H10   37   0.052   0.129  -0.309
    1UNL    H11   38   0.291   0.069  -0.303
    1UNL    H12   39   0.257  -0.099  -0.276
    1UNL    H13   40   0.223   0.097   0.208
    1UNL    H14   41   0.494   0.066   0.278
    1UNL    H15   42   0.700   0.005   0.182
    1UNL    H16   43   0.722  -0.054  -0.066
    1UNL    H17   44   0.527  -0.067  -0.201
    1UNL    H18   45   0.004   0.168  -0.018
    1UNL    H19   46   0.029  -0.078   0.157
    1UNL    H20   47  -0.028   0.078   0.196
    1UNL    H21   48  -0.205  -0.117   0.161
    1UNL    H22   49  -0.192   0.116  -0.129
    1UNL    H23   50  -0.435   0.360  -0.215
    1UNL    H24   51  -0.255   0.307  -0.223
    1UNL    H25   52  -0.387   0.205  -0.290
    1UNL    H26   53  -0.577   0.274   0.245
    1UNL    H27   54  -0.476   0.213   0.369
    1UNL    H28   55  -0.559   0.082   0.260
   0.00000   0.00000   0.00000   0.00000   0.00000   0.00000   0.00000   0.00000   0.00000
Generated with MDTraj, t= 52.0
 55
    1UNL     C1    1  -0.074  -0.355   0.094
    1UNL     C2    2  -0.191  -0.301   0.002
    1UNL     C3    3  -0.167  -0.150  -0.045
    1UNL     C4    4  -0.034  -0.136  -0.134
    1UNL     N1    5  -0.001   0.003  -0.153
    1UNL     C5    6   0.088   0.033  -0.267
    1UNL     C6    7   0.231  -0.020  -0.246
    1UNL     C7    8   0.279   0.029  -0.114
    1UNL     C8    9   0.188   0.071  -0.015
    1UNL     N2   10   0.259   0.091   0.102
    1UNL     C9   11   0.391   0.055   0.081
    1UNL    C10   12   0.502   0.052   0.173
    1UNL    C11   13   0.624   0.011   0.131
    1UNL    C12   14   0.637  -0.038   0.004
    1UNL    C13   15   0.533  -0.051  -0.090
    1UNL    C14   16   0.406   0.010  -0.052
    1UNL    C15   17   0.039   0.072  -0.021
    1UNL    C16   18  -0.033   0.013   0.114
    1UNL    C17   19  -0.172  -0.053   0.082
    1UNL    C18   20  -0.280   0.041   0.061
    1UNL    C19   21  -0.285   0.113  -0.055
    1UNL     O1   22  -0.366   0.223  -0.079
    1UNL    C20   23  -0.362   0.255  -0.218
    1UNL    C21   24  -0.364   0.077   0.181
    1UNL     O2   25  -0.341   0.022   0.290
    1UNL     O3   26  -0.464   0.170   0.163
    1UNL    C22   27  -0.511   0.203   0.289
    1UNL     H1   28   0.016  -0.326   0.055
    1UNL     H2   29  -0.085  -0.463   0.118
    1UNL     H3   30  -0.076  -0.292   0.181
    1UNL     H4   31  -0.215  -0.366  -0.089
    1UNL     H5   32  -0.290  -0.298   0.063
    1UNL     H6   33  -0.252  -0.123  -0.106
    1UNL     H7   34  -0.048  -0.185  -0.231
    1UNL     H8   35   0.062  -0.171  -0.085
    1UNL     H9   36   0.043  -0.012  -0.365
    1UNL    H10   37   0.101   0.147  -0.284
    1UNL    H11   38   0.290   0.015  -0.335
    1UNL    H12   39   0.234  -0.129  -0.245
    1UNL    H13   40   0.210   0.098   0.191
    1UNL    H14   41   0.473   0.079   0.276
    1UNL    H15   42   0.715   0.029   0.189
    1UNL    H16   43   0.737  -0.061  -0.020
    1UNL    H17   44   0.545  -0.089  -0.191
    1UNL    H18   45  -0.000   0.172  -0.033
    1UNL    H19   46   0.038  -0.049   0.166
    1UNL    H20   47  -0.066   0.093   0.184
    1UNL    H21   48  -0.194  -0.114   0.171
    1UNL    H22   49  -0.229   0.073  -0.134
    1UNL    H23   50  -0.455   0.322  -0.235
    1UNL    H24   51  -0.270   0.312  -0.228
    1UNL    H25   52  -0.384   0.168  -0.282
    1UNL    H26   53  -0.576   0.289   0.283
    1UNL    H27   54  -0.430   0.219   0.367
    1UNL    H28   55  -0.568   0.107   0.318
   0.00000   0.00000   0.00000   0.00000   0.00000   0.00000   0.00000   0.00000   0.00000
Generated with MDTraj, t= 53.0
 55
    1UNL     C1    1  -0.095  -0.364   0.079
    1UNL     C2    2  -0.194  -0.286   0.006
    1UNL     C3    3  -0.162  -0.152  -0.044
    1UNL     C4    4  -0.022  -0.145  -0.121
    1UNL     N1    5   0.003  -0.000  -0.148
    1UNL     C5    6   0.104   0.033  -0.257
    1UNL     C6    7   0.237  -0.039  -0.230
    1UNL     C7    8   0.279   0.012  -0.100
    1UNL     C8    9   0.193   0.068  -0.007
    1UNL     N2   10   0.265   0.090   0.109
    1UNL     C9   11   0.397   0.055   0.083
    1UNL    C10   12   0.505   0.057   0.165
    1UNL    C11   13   0.626   0.023   0.116
    1UNL    C12   14   0.643  -0.040  -0.011
    1UNL    C13   15   0.530  -0.048  -0.088
    1UNL    C14   16   0.410   0.005  -0.044
    1UNL    C15   17   0.043   0.069  -0.015
    1UNL    C16   18  -0.034   0.011   0.106
    1UNL    C17   19  -0.172  -0.046   0.075
    1UNL    C18   20  -0.283   0.060   0.053
    1UNL    C19   21  -0.304   0.123  -0.066
    1UNL     O1   22  -0.393   0.213  -0.096
    1UNL    C20   23  -0.376   0.274  -0.224
    1UNL    C21   24  -0.358   0.089   0.181
    1UNL     O2   25  -0.320   0.033   0.284
    1UNL     O3   26  -0.463   0.169   0.174
    1UNL    C22   27  -0.526   0.176   0.301
    1UNL     H1   28  -0.011  -0.388   0.021
    1UNL     H2   29  -0.142  -0.454   0.119
    1UNL     H3   30  -0.048  -0.304   0.154
    1UNL     H4   31  -0.227  -0.337  -0.092
    1UNL     H5   32  -0.290  -0.270   0.072
    1UNL     H6   33  -0.237  -0.115  -0.115
    1UNL     H7   34  -0.012  -0.185  -0.223
    1UNL     H8   35   0.060  -0.183  -0.058
    1UNL     H9   36   0.074   0.009  -0.368
    1UNL    H10   37   0.115   0.148  -0.256
    1UNL    H11   38   0.317  -0.030  -0.309
    1UNL    H12   39   0.203  -0.142  -0.230
    1UNL    H13   40   0.220   0.116   0.201
    1UNL    H14   41   0.495   0.084   0.267
    1UNL    H15   42   0.710   0.047   0.178
    1UNL    H16   43   0.744  -0.061  -0.049
    1UNL    H17   44   0.546  -0.093  -0.182
    1UNL    H18   45   0.024   0.176  -0.029
    1UNL    H19   46   0.019  -0.072   0.151
    1UNL    H20   47  -0.042   0.095   0.179
    1UNL    H21   48  -0.198  -0.095   0.168
    1UNL    H22   49  -0.221   0.114  -0.139
    1UNL    H23   50  -0.458   0.352  -0.245
    1UNL    H24   51  -0.278   0.322  -0.212
    1UNL    H25   52  -0.392   0.196  -0.302
    1UNL    H26   53  -0.633   0.186   0.295
    1UNL    H27   54  -0.472   0.239   0.377
    1UNL    H28   55  -0.515   0.067   0.338
   0.00000   0.00000   0.00000   0.00000   0.00000   0.00000   0.00000   0.00000   0.00000
Generated with MDTraj, t= 54.0
 55
    1UNL     C1    1  -0.098  -0.348   0.100
    1UNL     C2    2  -0.207  -0.292  -0.000
    1UNL     C3    3  -0.177  -0.148  -0.044
    1UNL     C4    4  -0.054  -0.142  -0.136
    1UNL     N1    5   0.009  -0.007  -0.151
    1UNL     C5    6   0.111   0.015  -0.265
    1UNL     C6    7   0.256  -0.018  -0.246
    1UNL     C7    8   0.288   0.003  -0.099
    1UNL     C8    9   0.200   0.039  -0.001
    1UNL     N2   10   0.265   0.064   0.120
    1UNL     C9   11   0.398   0.045   0.093
    1UNL    C10   12   0.512   0.062   0.170
    1UNL    C11   13   0.633   0.035   0.112
    1UNL    C12   14   0.643  -0.018  -0.016
    1UNL    C13   15   0.532  -0.038  -0.094
    1UNL    C14   16   0.411   0.000  -0.041
    1UNL    C15   17   0.054   0.055  -0.019
    1UNL    C16   18  -0.027   0.012   0.102
    1UNL    C17   19  -0.164  -0.048   0.072
    1UNL    C18   20  -0.273   0.066   0.065
    1UNL    C19   21  -0.290   0.138  -0.046
    1UNL     O1   22  -0.394   0.221  -0.079
    1UNL    C20   23  -0.393   0.274  -0.211
    1UNL    C21   24  -0.353   0.092   0.181
    1UNL     O2   25  -0.322   0.046   0.291
    1UNL     O3   26  -0.473   0.152   0.161
    1UNL    C22   27  -0.540   0.178   0.276
    1UNL     H1   28   0.004  -0.324   0.068
    1UNL     H2   29  -0.106  -0.454   0.118
    1UNL     H3   30  -0.096  -0.292   0.190
    1UNL     H4   31  -0.204  -0.365  -0.091
    1UNL     H5   32  -0.313  -0.293   0.047
    1UNL     H6   33  -0.262  -0.114  -0.109
    1UNL     H7   34  -0.093  -0.161  -0.239
    1UNL     H8   35   0.032  -0.206  -0.120
    1UNL     H9   36   0.070  -0.059  -0.346
    1UNL    H10   37   0.096   0.116  -0.321
    1UNL    H11   38   0.311   0.053  -0.314
    1UNL    H12   39   0.280  -0.120  -0.279
    1UNL    H13   40   0.226   0.115   0.208
    1UNL    H14   41   0.498   0.099   0.269
    1UNL    H15   42   0.720   0.043   0.177
    1UNL    H16   43   0.736  -0.047  -0.060
    1UNL    H17   44   0.543  -0.081  -0.195
    1UNL    H18   45   0.043   0.161  -0.046
    1UNL    H19   46   0.037  -0.063   0.149
    1UNL    H20   47  -0.046   0.095   0.175
    1UNL    H21   48  -0.190  -0.095   0.165
    1UNL    H22   49  -0.212   0.116  -0.120
    1UNL    H23   50  -0.483   0.341  -0.226
    1UNL    H24   51  -0.302   0.333  -0.222
    1UNL    H25   52  -0.410   0.192  -0.283
    1UNL    H26   53  -0.618   0.248   0.254
    1UNL    H27   54  -0.467   0.194   0.358
    1UNL    H28   55  -0.598   0.085   0.298
   0.00000   0.00000   0.00000   0.00000   0.00000   0.00000   0.00000   0.00000   0.00000
Generated with MDTraj, t= 55.0
 55
    1UNL     C1    1  -0.103  -0.353   0.119
    1UNL     C2    2  -0.196  -0.304   0.005
    1UNL     C3    3  -0.179  -0.155  -0.035
    1UNL     C4    4  -0.049  -0.141  -0.121
    1UNL     N1    5   0.002  -0.006  -0.141
    1UNL     C5    6   0.087   0.021  -0.257
    1UNL     C6    7   0.227  -0.039  -0.244
    1UNL     C7    8   0.281  -0.000  -0.108
    1UNL     C8    9   0.196   0.033   0.001
    1UNL     N2   10   0.267   0.062   0.107
    1UNL     C9   11   0.403   0.045   0.076
    1UNL    C10   12   0.513   0.044   0.169
    1UNL    C11   13   0.640   0.014   0.126
    1UNL    C12   14   0.655   0.006  -0.014
    1UNL    C13   15   0.550   0.007  -0.109
    1UNL    C14   16   0.418   0.018  -0.060
    1UNL    C15   17   0.053   0.062  -0.013
    1UNL    C16   18  -0.034   0.013   0.105
    1UNL    C17   19  -0.177  -0.053   0.078
    1UNL    C18   20  -0.277   0.056   0.059
    1UNL    C19   21  -0.279   0.135  -0.054
    1UNL     O1   22  -0.364   0.247  -0.076
    1UNL    C20   23  -0.373   0.276  -0.212
    1UNL    C21   24  -0.361   0.088   0.174
    1UNL     O2   25  -0.333   0.034   0.281
    1UNL     O3   26  -0.473   0.160   0.152
    1UNL    C22   27  -0.546   0.174   0.271
    1UNL     H1   28   0.003  -0.367   0.084
    1UNL     H2   29  -0.134  -0.447   0.155
    1UNL     H3   30  -0.085  -0.282   0.196
    1UNL     H4   31  -0.187  -0.374  -0.087
    1UNL     H5   32  -0.301  -0.326   0.049
    1UNL     H6   33  -0.267  -0.150  -0.107
    1UNL     H7   34  -0.050  -0.188  -0.223
    1UNL     H8   35   0.027  -0.192  -0.065
    1UNL     H9   36   0.029  -0.000  -0.357
    1UNL    H10   37   0.085   0.138  -0.258
    1UNL    H11   38   0.297  -0.005  -0.327
    1UNL    H12   39   0.210  -0.146  -0.257
    1UNL    H13   40   0.228   0.080   0.207
    1UNL    H14   41   0.482   0.063   0.273
    1UNL    H15   42   0.721  -0.010   0.192
    1UNL    H16   43   0.755  -0.029  -0.039
    1UNL    H17   44   0.565  -0.008  -0.212
    1UNL    H18   45   0.034   0.171  -0.028
    1UNL    H19   46   0.019  -0.057   0.170
    1UNL    H20   47  -0.047   0.105   0.167
    1UNL    H21   48  -0.222  -0.108   0.157
    1UNL    H22   49  -0.213   0.113  -0.133
    1UNL    H23   50  -0.435   0.368  -0.222
    1UNL    H24   51  -0.279   0.298  -0.259
    1UNL    H25   52  -0.430   0.198  -0.258
    1UNL    H26   53  -0.625   0.243   0.251
    1UNL    H27   54  -0.473   0.199   0.345
    1UNL    H28   55  -0.594   0.081   0.301
   0.00000   0.00000   0.00000   0.00000   0.00000   0.00000   0.00000   0.00000   0.00000
Generated with MDTraj, t= 56.0
 55
    1UNL     C1    1  -0.087  -0.354   0.110
    1UNL     C2    2  -0.194  -0.301   0.017
    1UNL     C3    3  -0.175  -0.158  -0.027
    1UNL     C4    4  -0.039  -0.151  -0.112
    1UNL     N1    5  -0.005  -0.009  -0.131
    1UNL     C5    6   0.076   0.020  -0.253
    1UNL     C6    7   0.228   0.017  -0.235
    1UNL     C7    8   0.269   0.022  -0.092
    1UNL     C8    9   0.184   0.058   0.007
    1UNL     N2   10   0.266   0.071   0.117
    1UNL     C9   11   0.396   0.032   0.093
    1UNL    C10   12   0.515   0.053   0.157
    1UNL    C11   13   0.631   0.032   0.090
    1UNL    C12   14   0.639  -0.009  -0.049
    1UNL    C13   15   0.522  -0.024  -0.115
    1UNL    C14   16   0.399  -0.007  -0.045
    1UNL    C15   17   0.039   0.058  -0.002
    1UNL    C16   18  -0.029  -0.001   0.124
    1UNL    C17   19  -0.177  -0.060   0.092
    1UNL    C18   20  -0.265   0.059   0.060
    1UNL    C19   21  -0.268   0.133  -0.055
    1UNL     O1   22  -0.351   0.226  -0.093
    1UNL    C20   23  -0.309   0.283  -0.214
    1UNL    C21   24  -0.361   0.077   0.169
    1UNL     O2   25  -0.359   0.005   0.271
    1UNL     O3   26  -0.461   0.178   0.150
    1UNL    C22   27  -0.554   0.185   0.257
    1UNL     H1   28   0.011  -0.387   0.062
    1UNL     H2   29  -0.121  -0.440   0.157
    1UNL     H3   30  -0.048  -0.286   0.182
    1UNL     H4   31  -0.211  -0.381  -0.067
    1UNL     H5   32  -0.294  -0.310   0.074
    1UNL     H6   33  -0.258  -0.135  -0.105
    1UNL     H7   34  -0.071  -0.194  -0.212
    1UNL     H8   35   0.051  -0.194  -0.075
    1UNL     H9   36   0.033  -0.052  -0.333
    1UNL    H10   37   0.039   0.124  -0.290
    1UNL    H11   38   0.258   0.117  -0.281
    1UNL    H12   39   0.284  -0.067  -0.278
    1UNL    H13   40   0.231   0.108   0.211
    1UNL    H14   41   0.513   0.100   0.251
    1UNL    H15   42   0.717   0.053   0.154
    1UNL    H16   43   0.731  -0.019  -0.103
    1UNL    H17   44   0.523  -0.046  -0.222
    1UNL    H18   45   0.003   0.164  -0.007
    1UNL    H19   46   0.039  -0.075   0.169
    1UNL    H20   47  -0.042   0.072   0.206
    1UNL    H21   48  -0.229  -0.115   0.168
    1UNL    H22   49  -0.185   0.120  -0.125
    1UNL    H23   50  -0.365   0.371  -0.249
    1UNL    H24   51  -0.206   0.311  -0.209
    1UNL    H25   52  -0.310   0.205  -0.284
    1UNL    H26   53  -0.651   0.221   0.228
    1UNL    H27   54  -0.511   0.256   0.324
    1UNL    H28   55  -0.558   0.090   0.307
   0.00000   0.00000   0.00000   0.00000   0.00000   0.00000   0.00000   0.00000   0.00000
Generated with MDTraj, t= 57.0
 55
    1UNL     C1    1  -0.068  -0.373   0.120
    1UNL     C2    2  -0.182  -0.320   0.031
    1UNL     C3    3  -0.166  -0.167  -0.011
    1UNL     C4    4  -0.043  -0.148  -0.108
    1UNL     N1    5  -0.006  -0.002  -0.123
    1UNL     C5    6   0.067   0.055  -0.237
    1UNL     C6    7   0.208  -0.000  -0.242
    1UNL     C7    8   0.267   0.034  -0.107
    1UNL     C8    9   0.187   0.061   0.004
    1UNL     N2   10   0.270   0.059   0.114
    1UNL     C9   11   0.403   0.047   0.074
    1UNL    C10   12   0.517   0.047   0.152
    1UNL    C11   13   0.634   0.014   0.089
    1UNL    C12   14   0.640  -0.019  -0.050
    1UNL    C13   15   0.528  -0.003  -0.128
    1UNL    C14   16   0.406   0.029  -0.061
    1UNL    C15   17   0.033   0.057   0.011
    1UNL    C16   18  -0.033  -0.007   0.129
    1UNL    C17   19  -0.175  -0.066   0.095
    1UNL    C18   20  -0.278   0.045   0.070
    1UNL    C19   21  -0.267   0.116  -0.042
    1UNL     O1   22  -0.340   0.224  -0.096
    1UNL    C20   23  -0.263   0.283  -0.199
    1UNL    C21   24  -0.388   0.076   0.160
    1UNL     O2   25  -0.398   0.004   0.259
    1UNL     O3   26  -0.469   0.181   0.139
    1UNL    C22   27  -0.557   0.213   0.242
    1UNL     H1   28   0.031  -0.336   0.085
    1UNL     H2   29  -0.066  -0.478   0.120
    1UNL     H3   30  -0.067  -0.330   0.219
    1UNL     H4   31  -0.200  -0.394  -0.057
    1UNL     H5   32  -0.277  -0.341   0.092
    1UNL     H6   33  -0.251  -0.129  -0.083
    1UNL     H7   34  -0.069  -0.188  -0.209
    1UNL     H8   35   0.038  -0.197  -0.063
    1UNL     H9   36   0.003   0.021  -0.329
    1UNL    H10   37   0.056   0.171  -0.229
    1UNL    H11   38   0.277   0.035  -0.330
    1UNL    H12   39   0.179  -0.107  -0.242
    1UNL    H13   40   0.240   0.081   0.210
    1UNL    H14   41   0.512   0.069   0.260
    1UNL    H15   42   0.728   0.034   0.136
    1UNL    H16   43   0.739  -0.035  -0.094
    1UNL    H17   44   0.526  -0.012  -0.234
    1UNL    H18   45  -0.001   0.164   0.014
    1UNL    H19   46   0.022  -0.094   0.171
    1UNL    H20   47  -0.037   0.061   0.215
    1UNL    H21   48  -0.218  -0.113   0.181
    1UNL    H22   49  -0.185   0.073  -0.098
    1UNL    H23   50  -0.326   0.364  -0.238
    1UNL    H24   51  -0.175   0.336  -0.166
    1UNL    H25   52  -0.227   0.221  -0.277
    1UNL    H26   53  -0.565   0.321   0.244
    1UNL    H27   54  -0.501   0.195   0.335
    1UNL    H28   55  -0.647   0.152   0.236
   0.00000   0.00000   0.00000   0.00000   0.00000   0.00000   0.00000   0.00000   0.00000
Generated with MDTraj, t= 58.0
 55
    1UNL     C1    1  -0.048  -0.339   0.141
    1UNL     C2    2  -0.166  -0.309   0.054
    1UNL     C3    3  -0.170  -0.174  -0.020
    1UNL     C4    4  -0.043  -0.162  -0.107
    1UNL     N1    5  -0.010  -0.012  -0.121
    1UNL     C5    6   0.065   0.042  -0.243
    1UNL     C6    7   0.214   0.004  -0.234
    1UNL     C7    8   0.265   0.029  -0.098
    1UNL     C8    9   0.184   0.031   0.019
    1UNL     N2   10   0.262   0.029   0.128
    1UNL     C9   11   0.394   0.033   0.083
    1UNL    C10   12   0.515   0.036   0.151
    1UNL    C11   13   0.635   0.022   0.077
    1UNL    C12   14   0.627   0.004  -0.060
    1UNL    C13   15   0.511   0.002  -0.135
    1UNL    C14   16   0.397   0.022  -0.059
    1UNL    C15   17   0.044   0.051   0.011
    1UNL    C16   18  -0.034   0.004   0.125
    1UNL    C17   19  -0.174  -0.062   0.086
    1UNL    C18   20  -0.273   0.054   0.054
    1UNL    C19   21  -0.260   0.134  -0.054
    1UNL     O1   22  -0.330   0.242  -0.076
    1UNL    C20   23  -0.297   0.304  -0.196
    1UNL    C21   24  -0.381   0.075   0.150
    1UNL     O2   25  -0.399  -0.009   0.239
    1UNL     O3   26  -0.446   0.195   0.149
    1UNL    C22   27  -0.564   0.191   0.220
    1UNL     H1   28   0.047  -0.331   0.091
    1UNL     H2   29  -0.063  -0.443   0.167
    1UNL     H3   30  -0.034  -0.270   0.223
    1UNL     H4   31  -0.171  -0.395  -0.024
    1UNL     H5   32  -0.264  -0.328   0.112
    1UNL     H6   33  -0.264  -0.168  -0.090
    1UNL     H7   34  -0.070  -0.203  -0.207
    1UNL     H8   35   0.044  -0.210  -0.072
    1UNL     H9   36   0.012  -0.001  -0.337
    1UNL    H10   37   0.045   0.157  -0.251
    1UNL    H11   38   0.269   0.064  -0.317
    1UNL    H12   39   0.230  -0.106  -0.239
    1UNL    H13   40   0.223   0.037   0.217
    1UNL    H14   41   0.519   0.041   0.257
    1UNL    H15   42   0.735   0.029   0.120
    1UNL    H16   43   0.719  -0.005  -0.113
    1UNL    H17   44   0.505  -0.009  -0.243
    1UNL    H18   45   0.031   0.161  -0.001
    1UNL    H19   46   0.024  -0.081   0.167
    1UNL    H20   47  -0.040   0.074   0.210
    1UNL    H21   48  -0.212  -0.096   0.182
    1UNL    H22   49  -0.173   0.112  -0.113
    1UNL    H23   50  -0.337   0.408  -0.197
    1UNL    H24   51  -0.187   0.318  -0.207
    1UNL    H25   52  -0.318   0.244  -0.284
    1UNL    H26   53  -0.583   0.299   0.247
    1UNL    H27   54  -0.525   0.149   0.318
    1UNL    H28   55  -0.640   0.125   0.174
   0.00000   0.00000   0.00000   0.00000   0.00000   0.00000   0.00000   0.00000   0.00000
Generated with MDTraj, t= 59.0
 55
    1UNL     C1    1  -0.062  -0.316   0.160
    1UNL     C2    2  -0.166  -0.306   0.048
    1UNL     C3    3  -0.165  -0.150  -0.014
    1UNL     C4    4  -0.053  -0.142  -0.121
    1UNL     N1    5  -0.007  -0.002  -0.135
    1UNL     C5    6   0.072   0.026  -0.255
    1UNL     C6    7   0.222   0.009  -0.250
    1UNL     C7    8   0.270   0.005  -0.107
    1UNL     C8    9   0.196   0.024   0.006
    1UNL     N2   10   0.273   0.031   0.113
    1UNL     C9   11   0.405   0.010   0.078
    1UNL    C10   12   0.521   0.013   0.154
    1UNL    C11   13   0.638   0.030   0.088
    1UNL    C12   14   0.640   0.021  -0.052
    1UNL    C13   15   0.532   0.000  -0.126
    1UNL    C14   16   0.407  -0.002  -0.061
    1UNL    C15   17   0.046   0.054   0.001
    1UNL    C16   18  -0.025   0.013   0.129
    1UNL    C17   19  -0.166  -0.046   0.106
    1UNL    C18   20  -0.272   0.064   0.070
    1UNL    C19   21  -0.255   0.151  -0.036
    1UNL     O1   22  -0.348   0.240  -0.081
    1UNL    C20   23  -0.303   0.296  -0.199
    1UNL    C21   24  -0.398   0.071   0.151
    1UNL     O2   25  -0.417  -0.026   0.226
    1UNL     O3   26  -0.474   0.184   0.142
    1UNL    C22   27  -0.571   0.183   0.250
    1UNL     H1   28   0.030  -0.271   0.137
    1UNL     H2   29  -0.045  -0.420   0.190
    1UNL     H3   30  -0.089  -0.249   0.241
    1UNL     H4   31  -0.162  -0.394  -0.026
    1UNL     H5   32  -0.271  -0.325   0.090
    1UNL     H6   33  -0.270  -0.160  -0.066
    1UNL     H7   34  -0.089  -0.174  -0.221
    1UNL     H8   35   0.027  -0.203  -0.091
    1UNL     H9   36   0.024  -0.037  -0.340
    1UNL    H10   37   0.040   0.135  -0.279
    1UNL    H11   38   0.273   0.104  -0.292
    1UNL    H12   39   0.239  -0.082  -0.313
    1UNL    H13   40   0.233   0.036   0.201
    1UNL    H14   41   0.526   0.014   0.263
    1UNL    H15   42   0.728   0.025   0.147
    1UNL    H16   43   0.730   0.009  -0.112
    1UNL    H17   44   0.534  -0.023  -0.231
    1UNL    H18   45   0.042   0.165  -0.000
    1UNL    H19   46   0.037  -0.058   0.190
    1UNL    H20   47  -0.035   0.097   0.199
    1UNL    H21   48  -0.203  -0.095   0.195
    1UNL    H22   49  -0.173   0.139  -0.111
    1UNL    H23   50  -0.375   0.372  -0.237
    1UNL    H24   51  -0.206   0.354  -0.187
    1UNL    H25   52  -0.280   0.218  -0.274
    1UNL    H26   53  -0.647   0.268   0.252
    1UNL    H27   54  -0.499   0.200   0.337
    1UNL    H28   55  -0.606   0.079   0.262
   0.00000   0.00000   0.00000   0.00000   0.00000   0.00000   0.00000   0.00000   0.00000
Generated with MDTraj, t= 60.0
 55
    1UNL     C1    1  -0.071  -0.341   0.146
    1UNL     C2    2  -0.173  -0.292   0.052
    1UNL     C3    3  -0.163  -0.145  -0.018
    1UNL     C4    4  -0.036  -0.134  -0.100
    1UNL     N1    5  -0.004   0.005  -0.122
    1UNL     C5    6   0.069   0.041  -0.246
    1UNL     C6    7   0.209  -0.019  -0.243
    1UNL     C7    8   0.274   0.008  -0.105
    1UNL     C8    9   0.199   0.041   0.009
    1UNL     N2   10   0.288   0.063   0.114
    1UNL     C9   11   0.416   0.032   0.077
    1UNL    C10   12   0.529   0.011   0.151
    1UNL    C11   13   0.646  -0.008   0.086
    1UNL    C12   14   0.660  -0.008  -0.052
    1UNL    C13   15   0.543  -0.012  -0.125
    1UNL    C14   16   0.415   0.009  -0.065
    1UNL    C15   17   0.051   0.064   0.003
    1UNL    C16   18  -0.036   0.034   0.127
    1UNL    C17   19  -0.174  -0.030   0.090
    1UNL    C18   20  -0.286   0.071   0.062
    1UNL    C19   21  -0.277   0.140  -0.052
    1UNL     O1   22  -0.363   0.240  -0.094
    1UNL    C20   23  -0.314   0.308  -0.208
    1UNL    C21   24  -0.396   0.069   0.157
    1UNL     O2   25  -0.396  -0.020   0.242
    1UNL     O3   26  -0.483   0.168   0.151
    1UNL    C22   27  -0.580   0.148   0.251
    1UNL     H1   28   0.013  -0.379   0.097
    1UNL     H2   29  -0.115  -0.424   0.207
    1UNL     H3   30  -0.027  -0.254   0.195
    1UNL     H4   31  -0.182  -0.372  -0.029
    1UNL     H5   32  -0.276  -0.295   0.101
    1UNL     H6   33  -0.256  -0.135  -0.093
    1UNL     H7   34  -0.054  -0.172  -0.202
    1UNL     H8   35   0.055  -0.173  -0.058
    1UNL     H9   36   0.002   0.011  -0.337
    1UNL    H10   37   0.063   0.157  -0.249
    1UNL    H11   38   0.264   0.028  -0.332
    1UNL    H12   39   0.209  -0.132  -0.248
    1UNL    H13   40   0.251   0.089   0.199
    1UNL    H14   41   0.525   0.016   0.258
    1UNL    H15   42   0.741  -0.026   0.137
    1UNL    H16   43   0.757  -0.033  -0.090
    1UNL    H17   44   0.537  -0.029  -0.230
    1UNL    H18   45   0.043   0.173  -0.006
    1UNL    H19   46   0.025  -0.025   0.201
    1UNL    H20   47  -0.053   0.127   0.179
    1UNL    H21   48  -0.205  -0.077   0.184
    1UNL    H22   49  -0.190   0.118  -0.107
    1UNL    H23   50  -0.392   0.380  -0.237
    1UNL    H24   51  -0.219   0.369  -0.197
    1UNL    H25   52  -0.298   0.232  -0.288
    1UNL    H26   53  -0.653   0.235   0.233
    1UNL    H27   54  -0.522   0.145   0.347
    1UNL    H28   55  -0.628   0.055   0.227
   0.00000   0.00000   0.00000   0.00000   0.00000   0.00000   0.00000   0.00000   0.00000
Generated with MDTraj, t= 61.0
 55
    1UNL     C1    1  -0.066  -0.334   0.118
    1UNL     C2    2  -0.183  -0.281   0.036
    1UNL     C3    3  -0.153  -0.140  -0.016
    1UNL     C4    4  -0.037  -0.136  -0.107
    1UNL     N1    5  -0.005   0.010  -0.133
    1UNL     C5    6   0.077   0.034  -0.258
    1UNL     C6    7   0.226   0.008  -0.240
    1UNL     C7    8   0.268   0.021  -0.098
    1UNL     C8    9   0.199   0.067   0.011
    1UNL     N2   10   0.279   0.081   0.122
    1UNL     C9   11   0.408   0.048   0.079
    1UNL    C10   12   0.532   0.046   0.148
    1UNL    C11   13   0.639  -0.009   0.084
    1UNL    C12   14   0.623  -0.072  -0.041
    1UNL    C13   15   0.510  -0.070  -0.115
    1UNL    C14   16   0.401  -0.001  -0.051
    1UNL    C15   17   0.053   0.081  -0.001
    1UNL    C16   18  -0.021   0.038   0.123
    1UNL    C17   19  -0.153  -0.032   0.095
    1UNL    C18   20  -0.262   0.067   0.076
    1UNL    C19   21  -0.272   0.145  -0.036
    1UNL     O1   22  -0.364   0.228  -0.074
    1UNL    C20   23  -0.342   0.294  -0.198
    1UNL    C21   24  -0.376   0.064   0.167
    1UNL     O2   25  -0.373   0.002   0.273
    1UNL     O3   26  -0.480   0.144   0.124
    1UNL    C22   27  -0.586   0.137   0.219
    1UNL     H1   28   0.026  -0.309   0.071
    1UNL     H2   29  -0.073  -0.445   0.122
    1UNL     H3   30  -0.050  -0.286   0.214
    1UNL     H4   31  -0.192  -0.337  -0.063
    1UNL     H5   32  -0.282  -0.285   0.093
    1UNL     H6   33  -0.239  -0.097  -0.086
    1UNL     H7   34  -0.059  -0.173  -0.207
    1UNL     H8   35   0.059  -0.172  -0.068
    1UNL     H9   36   0.027  -0.031  -0.341
    1UNL    H10   37   0.046   0.139  -0.294
    1UNL    H11   38   0.286   0.091  -0.287
    1UNL    H12   39   0.254  -0.093  -0.284
    1UNL    H13   40   0.247   0.119   0.205
    1UNL    H14   41   0.549   0.098   0.238
    1UNL    H15   42   0.741   0.005   0.116
    1UNL    H16   43   0.711  -0.107  -0.094
    1UNL    H17   44   0.497  -0.118  -0.212
    1UNL    H18   45   0.030   0.187  -0.014
    1UNL    H19   46   0.044  -0.040   0.171
    1UNL    H20   47  -0.022   0.117   0.197
    1UNL    H21   48  -0.178  -0.080   0.192
    1UNL    H22   49  -0.194   0.133  -0.112
    1UNL    H23   50  -0.416   0.369  -0.223
    1UNL    H24   51  -0.243   0.345  -0.199
    1UNL    H25   52  -0.342   0.209  -0.268
    1UNL    H26   53  -0.663   0.214   0.185
    1UNL    H27   54  -0.548   0.137   0.321
    1UNL    H28   55  -0.628   0.047   0.188
   0.00000   0.00000   0.00000   0.00000   0.00000   0.00000   0.00000   0.00000   0.00000
Generated with MDTraj, t= 62.0
 55
    1UNL     C1    1  -0.053  -0.327   0.130
    1UNL     C2    2  -0.165  -0.287   0.030
    1UNL     C3    3  -0.151  -0.142  -0.021
    1UNL     C4    4  -0.034  -0.118  -0.120
    1UNL     N1    5  -0.007   0.030  -0.138
    1UNL     C5    6   0.086   0.059  -0.256
    1UNL     C6    7   0.213  -0.024  -0.249
    1UNL     C7    8   0.276   0.014  -0.118
    1UNL     C8    9   0.201   0.074  -0.016
    1UNL     N2   10   0.276   0.095   0.099
    1UNL     C9   11   0.403   0.052   0.071
    1UNL    C10   12   0.514   0.032   0.154
    1UNL    C11   13   0.623  -0.038   0.113
    1UNL    C12   14   0.626  -0.083  -0.019
    1UNL    C13   15   0.526  -0.057  -0.109
    1UNL    C14   16   0.410   0.001  -0.065
    1UNL    C15   17   0.053   0.096  -0.013
    1UNL    C16   18  -0.006   0.027   0.113
    1UNL    C17   19  -0.157  -0.035   0.097
    1UNL    C18   20  -0.269   0.067   0.078
    1UNL    C19   21  -0.267   0.153  -0.029
    1UNL     O1   22  -0.357   0.254  -0.072
    1UNL    C20   23  -0.334   0.278  -0.208
    1UNL    C21   24  -0.385   0.067   0.173
    1UNL     O2   25  -0.371   0.023   0.288
    1UNL     O3   26  -0.506   0.116   0.131
    1UNL    C22   27  -0.599   0.120   0.241
    1UNL     H1   28   0.046  -0.312   0.083
    1UNL     H2   29  -0.067  -0.433   0.156
    1UNL     H3   30  -0.036  -0.265   0.216
    1UNL     H4   31  -0.176  -0.360  -0.056
    1UNL     H5   32  -0.265  -0.288   0.085
    1UNL     H6   33  -0.251  -0.114  -0.082
    1UNL     H7   34  -0.055  -0.157  -0.219
    1UNL     H8   35   0.065  -0.148  -0.074
    1UNL     H9   36   0.020   0.036  -0.347
    1UNL    H10   37   0.098   0.172  -0.270
    1UNL    H11   38   0.277  -0.008  -0.338
    1UNL    H12   39   0.186  -0.136  -0.232
    1UNL    H13   40   0.250   0.131   0.189
    1UNL    H14   41   0.512   0.065   0.260
    1UNL    H15   42   0.709  -0.044   0.179
    1UNL    H16   43   0.714  -0.125  -0.064
    1UNL    H17   44   0.532  -0.088  -0.210
    1UNL    H18   45   0.028   0.201  -0.019
    1UNL    H19   46   0.071  -0.045   0.147
    1UNL    H20   47  -0.007   0.100   0.193
    1UNL    H21   48  -0.183  -0.092   0.190
    1UNL    H22   49  -0.185   0.131  -0.099
    1UNL    H23   50  -0.412   0.344  -0.231
    1UNL    H24   51  -0.242   0.337  -0.224
    1UNL    H25   52  -0.345   0.183  -0.259
    1UNL    H26   53  -0.694   0.101   0.184
    1UNL    H27   54  -0.587   0.202   0.307
    1UNL    H28   55  -0.581   0.029   0.283
   0.00000   0.00000   0.00000   0.00000   0.00000   0.00000   0.00000   0.00000   0.00000
Generated with MDTraj, t= 63.0
 55
    1UNL     C1    1  -0.032  -0.308   0.150
    1UNL     C2    2  -0.151  -0.277   0.053
    1UNL     C3    3  -0.161  -0.142  -0.017
    1UNL     C4    4  -0.048  -0.127  -0.126
    1UNL     N1    5   0.004   0.010  -0.145
    1UNL     C5    6   0.086   0.040  -0.267
    1UNL     C6    7   0.233   0.015  -0.248
    1UNL     C7    8   0.276   0.030  -0.109
    1UNL     C8    9   0.199   0.072  -0.003
    1UNL     N2   10   0.269   0.064   0.116
    1UNL     C9   11   0.395   0.013   0.087
    1UNL    C10   12   0.510   0.016   0.165
    1UNL    C11   13   0.624  -0.035   0.104
    1UNL    C12   14   0.633  -0.070  -0.029
    1UNL    C13   15   0.522  -0.053  -0.109
    1UNL    C14   16   0.401  -0.020  -0.050
    1UNL    C15   17   0.049   0.090  -0.027
    1UNL    C16   18  -0.024   0.047   0.100
    1UNL    C17   19  -0.166  -0.023   0.084
    1UNL    C18   20  -0.276   0.075   0.057
    1UNL    C19   21  -0.285   0.141  -0.059
    1UNL     O1   22  -0.378   0.239  -0.083
    1UNL    C20   23  -0.345   0.320  -0.199
    1UNL    C21   24  -0.371   0.082   0.167
    1UNL     O2   25  -0.340   0.034   0.277
    1UNL     O3   26  -0.500   0.120   0.140
    1UNL    C22   27  -0.586   0.088   0.251
    1UNL     H1   28   0.069  -0.308   0.098
    1UNL     H2   29  -0.050  -0.408   0.189
    1UNL     H3   30  -0.004  -0.235   0.225
    1UNL     H4   31  -0.172  -0.360  -0.019
    1UNL     H5   32  -0.239  -0.281   0.125
    1UNL     H6   33  -0.271  -0.150  -0.063
    1UNL     H7   34  -0.089  -0.157  -0.222
    1UNL     H8   35   0.042  -0.185  -0.081
    1UNL     H9   36   0.039  -0.013  -0.357
    1UNL    H10   37   0.055   0.147  -0.298
    1UNL    H11   38   0.287   0.093  -0.304
    1UNL    H12   39   0.255  -0.094  -0.282
    1UNL    H13   40   0.252   0.097   0.214
    1UNL    H14   41   0.490   0.037   0.266
    1UNL    H15   42   0.711  -0.055   0.163
    1UNL    H16   43   0.722  -0.120  -0.064
    1UNL    H17   44   0.520  -0.067  -0.218
    1UNL    H18   45   0.031   0.193  -0.054
    1UNL    H19   46   0.046  -0.017   0.155
    1UNL    H20   47  -0.036   0.135   0.161
    1UNL    H21   48  -0.187  -0.079   0.180
    1UNL    H22   49  -0.205   0.142  -0.129
    1UNL    H23   50  -0.407   0.404  -0.201
    1UNL    H24   51  -0.247   0.366  -0.182
    1UNL    H25   52  -0.356   0.259  -0.287
    1UNL    H26   53  -0.692   0.087   0.213
    1UNL    H27   54  -0.573   0.155   0.333
    1UNL    H28   55  -0.554  -0.005   0.280
   0.00000   0.00000   0.00000   0.00000   0.00000   0.00000   0.00000   0.00000   0.00000
Generated with MDTraj, t= 64.0
 55
    1UNL     C1    1  -0.023  -0.284   0.156
    1UNL     C2    2  -0.134  -0.281   0.045
    1UNL     C3    3  -0.140  -0.141  -0.012
    1UNL     C4    4  -0.025  -0.121  -0.117
    1UNL     N1    5  -0.007   0.024  -0.142
    1UNL     C5    6   0.079   0.041  -0.267
    1UNL     C6    7   0.226  -0.003  -0.248
    1UNL     C7    8   0.275   0.023  -0.110
    1UNL     C8    9   0.190   0.053  -0.006
    1UNL     N2   10   0.262   0.031   0.113
    1UNL     C9   11   0.394  -0.007   0.085
    1UNL    C10   12   0.513  -0.020   0.165
    1UNL    C11   13   0.634  -0.042   0.107
    1UNL    C12   14   0.644  -0.052  -0.035
    1UNL    C13   15   0.532  -0.025  -0.115
    1UNL    C14   16   0.403  -0.011  -0.056
    1UNL    C15   17   0.049   0.097  -0.018
    1UNL    C16   18  -0.039   0.069   0.108
    1UNL    C17   19  -0.157  -0.023   0.084
    1UNL    C18   20  -0.278   0.059   0.055
    1UNL    C19   21  -0.291   0.135  -0.057
    1UNL     O1   22  -0.385   0.226  -0.077
    1UNL    C20   23  -0.360   0.321  -0.186
    1UNL    C21   24  -0.373   0.079   0.162
    1UNL     O2   25  -0.349   0.033   0.272
    1UNL     O3   26  -0.507   0.107   0.128
    1UNL    C22   27  -0.591   0.135   0.243
    1UNL     H1   28   0.071  -0.229   0.117
    1UNL     H2   29   0.001  -0.384   0.184
    1UNL     H3   30  -0.034  -0.220   0.243
    1UNL     H4   31  -0.108  -0.349  -0.039
    1UNL     H5   32  -0.231  -0.321   0.086
    1UNL     H6   33  -0.243  -0.136  -0.072
    1UNL     H7   34  -0.062  -0.164  -0.210
    1UNL     H8   35   0.076  -0.156  -0.072
    1UNL     H9   36   0.023   0.007  -0.360
    1UNL    H10   37   0.081   0.152  -0.288
    1UNL    H11   38   0.290   0.062  -0.311
    1UNL    H12   39   0.232  -0.116  -0.266
    1UNL    H13   40   0.225   0.059   0.211
    1UNL    H14   41   0.505  -0.003   0.275
    1UNL    H15   42   0.712  -0.075   0.175
    1UNL    H16   43   0.731  -0.089  -0.087
    1UNL    H17   44   0.541  -0.020  -0.221
    1UNL    H18   45   0.047   0.202  -0.047
    1UNL    H19   46   0.022   0.029   0.189
    1UNL    H20   47  -0.079   0.163   0.144
    1UNL    H21   48  -0.183  -0.073   0.184
    1UNL    H22   49  -0.225   0.132  -0.143
    1UNL    H23   50  -0.442   0.378  -0.221
    1UNL    H24   51  -0.291   0.392  -0.135
    1UNL    H25   52  -0.311   0.264  -0.265
    1UNL    H26   53  -0.640   0.237   0.213
    1UNL    H27   54  -0.532   0.148   0.334
    1UNL    H28   55  -0.655   0.052   0.260
   0.00000   0.00000   0.00000   0.00000   0.00000   0.00000   0.00000   0.00000   0.00000
Generated with MDTraj, t= 65.0
 55
    1UNL     C1    1   0.004  -0.278   0.145
    1UNL     C2    2  -0.111  -0.275   0.051
    1UNL     C3    3  -0.149  -0.149  -0.007
    1UNL     C4    4  -0.036  -0.114  -0.111
    1UNL     N1    5  -0.010   0.029  -0.128
    1UNL     C5    6   0.068   0.081  -0.243
    1UNL     C6    7   0.217   0.029  -0.248
    1UNL     C7    8   0.275   0.018  -0.109
    1UNL     C8    9   0.197   0.038   0.003
    1UNL     N2   10   0.276   0.039   0.119
    1UNL     C9   11   0.407   0.013   0.078
    1UNL    C10   12   0.519  -0.011   0.159
    1UNL    C11   13   0.636  -0.055   0.102
    1UNL    C12   14   0.644  -0.071  -0.045
    1UNL    C13   15   0.532  -0.050  -0.124
    1UNL    C14   16   0.411  -0.003  -0.063
    1UNL    C15   17   0.050   0.081  -0.009
    1UNL    C16   18  -0.029   0.040   0.122
    1UNL    C17   19  -0.166  -0.032   0.095
    1UNL    C18   20  -0.289   0.054   0.060
    1UNL    C19   21  -0.282   0.134  -0.052
    1UNL     O1   22  -0.382   0.226  -0.093
    1UNL    C20   23  -0.355   0.287  -0.212
    1UNL    C21   24  -0.395   0.073   0.161
    1UNL     O2   25  -0.386   0.005   0.262
    1UNL     O3   26  -0.508   0.148   0.130
    1UNL    C22   27  -0.595   0.155   0.240
    1UNL     H1   28   0.105  -0.258   0.097
    1UNL     H2   29   0.002  -0.372   0.197
    1UNL     H3   30   0.004  -0.195   0.216
    1UNL     H4   31  -0.097  -0.352  -0.026
    1UNL     H5   32  -0.204  -0.302   0.108
    1UNL     H6   33  -0.248  -0.147  -0.073
    1UNL     H7   34  -0.057  -0.152  -0.213
    1UNL     H8   35   0.063  -0.148  -0.060
    1UNL     H9   36   0.013   0.062  -0.338
    1UNL    H10   37   0.064   0.194  -0.241
    1UNL    H11   38   0.270   0.105  -0.308
    1UNL    H12   39   0.212  -0.076  -0.293
    1UNL    H13   40   0.242   0.057   0.221
    1UNL    H14   41   0.518   0.016   0.261
    1UNL    H15   42   0.728  -0.061   0.157
    1UNL    H16   43   0.739  -0.098  -0.086
    1UNL    H17   44   0.545  -0.059  -0.231
    1UNL    H18   45   0.044   0.189  -0.028
    1UNL    H19   46   0.040  -0.026   0.172
    1UNL    H20   47  -0.053   0.118   0.193
    1UNL    H21   48  -0.198  -0.071   0.199
    1UNL    H22   49  -0.184   0.128  -0.103
    1UNL    H23   50  -0.430   0.365  -0.213
    1UNL    H24   51  -0.254   0.339  -0.206
    1UNL    H25   52  -0.371   0.214  -0.296
    1UNL    H26   53  -0.685   0.213   0.188
    1UNL    H27   54  -0.553   0.232   0.310
    1UNL    H28   55  -0.610   0.059   0.290
   0.00000   0.00000   0.00000   0.00000   0.00000   0.00000   0.00000   0.00000   0.00000
Generated with MDTraj, t= 66.0
 55
    1UNL     C1    1   0.016  -0.301   0.125
    1UNL     C2    2  -0.119  -0.287   0.049
    1UNL     C3    3  -0.145  -0.143  -0.002
    1UNL     C4    4  -0.036  -0.106  -0.109
    1UNL     N1    5  -0.011   0.045  -0.119
    1UNL     C5    6   0.065   0.084  -0.238
    1UNL     C6    7   0.211   0.027  -0.230
    1UNL     C7    8   0.256   0.017  -0.088
    1UNL     C8    9   0.190   0.064   0.023
    1UNL     N2   10   0.278   0.062   0.135
    1UNL     C9   11   0.400   0.018   0.093
    1UNL    C10   12   0.522  -0.019   0.155
    1UNL    C11   13   0.624  -0.055   0.066
    1UNL    C12   14   0.610  -0.068  -0.073
    1UNL    C13   15   0.484  -0.057  -0.126
    1UNL    C14   16   0.382  -0.007  -0.045
    1UNL    C15   17   0.042   0.104   0.011
    1UNL    C16   18  -0.032   0.043   0.141
    1UNL    C17   19  -0.154  -0.029   0.110
    1UNL    C18   20  -0.262   0.070   0.071
    1UNL    C19   21  -0.263   0.140  -0.048
    1UNL     O1   22  -0.360   0.211  -0.111
    1UNL    C20   23  -0.337   0.246  -0.243
    1UNL    C21   24  -0.381   0.071   0.162
    1UNL     O2   25  -0.399  -0.028   0.233
    1UNL     O3   26  -0.467   0.172   0.141
    1UNL    C22   27  -0.587   0.154   0.224
    1UNL     H1   28   0.097  -0.254   0.071
    1UNL     H2   29   0.037  -0.402   0.163
    1UNL     H3   30   0.013  -0.228   0.209
    1UNL     H4   31  -0.125  -0.356  -0.035
    1UNL     H5   32  -0.202  -0.316   0.116
    1UNL     H6   33  -0.248  -0.131  -0.061
    1UNL     H7   34  -0.064  -0.139  -0.210
    1UNL     H8   35   0.070  -0.144  -0.080
    1UNL     H9   36   0.011   0.053  -0.329
    1UNL    H10   37   0.068   0.196  -0.250
    1UNL    H11   38   0.281   0.100  -0.278
    1UNL    H12   39   0.203  -0.074  -0.276
    1UNL    H13   40   0.255   0.094   0.235
    1UNL    H14   41   0.531  -0.011   0.263
    1UNL    H15   42   0.725  -0.061   0.102
    1UNL    H16   43   0.699  -0.077  -0.137
    1UNL    H17   44   0.453  -0.082  -0.228
    1UNL    H18   45   0.035   0.214   0.000
    1UNL    H19   46   0.023  -0.032   0.194
    1UNL    H20   47  -0.054   0.124   0.210
    1UNL    H21   48  -0.182  -0.080   0.211
    1UNL    H22   49  -0.178   0.156  -0.108
    1UNL    H23   50  -0.419   0.307  -0.280
    1UNL    H24   51  -0.240   0.306  -0.250
    1UNL    H25   52  -0.325   0.149  -0.298
    1UNL    H26   53  -0.682   0.189   0.166
    1UNL    H27   54  -0.571   0.227   0.308
    1UNL    H28   55  -0.597   0.053   0.263
   0.00000   0.00000   0.00000   0.00000   0.00000   0.00000   0.00000   0.00000   0.00000
Generated with MDTraj, t= 67.0
 55
    1UNL     C1    1  -0.001  -0.320   0.141
    1UNL     C2    2  -0.123  -0.284   0.065
    1UNL     C3    3  -0.140  -0.140   0.005
    1UNL     C4    4  -0.031  -0.106  -0.104
    1UNL     N1    5  -0.013   0.043  -0.113
    1UNL     C5    6   0.060   0.105  -0.232
    1UNL     C6    7   0.210   0.052  -0.242
    1UNL     C7    8   0.271   0.036  -0.109
    1UNL     C8    9   0.200   0.053   0.011
    1UNL     N2   10   0.283   0.059   0.117
    1UNL     C9   11   0.411   0.025   0.076
    1UNL    C10   12   0.523  -0.018   0.152
    1UNL    C11   13   0.633  -0.067   0.081
    1UNL    C12   14   0.636  -0.085  -0.061
    1UNL    C13   15   0.525  -0.048  -0.132
    1UNL    C14   16   0.408   0.008  -0.068
    1UNL    C15   17   0.052   0.090   0.009
    1UNL    C16   18  -0.026   0.048   0.146
    1UNL    C17   19  -0.161  -0.022   0.113
    1UNL    C18   20  -0.280   0.061   0.072
    1UNL    C19   21  -0.274   0.129  -0.046
    1UNL     O1   22  -0.375   0.198  -0.109
    1UNL    C20   23  -0.336   0.245  -0.242
    1UNL    C21   24  -0.398   0.063   0.159
    1UNL     O2   25  -0.428  -0.021   0.241
    1UNL     O3   26  -0.483   0.168   0.139
    1UNL    C22   27  -0.597   0.172   0.226
    1UNL     H1   28   0.085  -0.281   0.096
    1UNL     H2   29   0.005  -0.432   0.155
    1UNL     H3   30   0.004  -0.269   0.241
    1UNL     H4   31  -0.129  -0.352  -0.019
    1UNL     H5   32  -0.215  -0.308   0.120
    1UNL     H6   33  -0.239  -0.154  -0.061
    1UNL     H7   34  -0.050  -0.128  -0.211
    1UNL     H8   35   0.073  -0.148  -0.080
    1UNL     H9   36   0.012   0.103  -0.330
    1UNL    H10   37   0.066   0.215  -0.218
    1UNL    H11   38   0.269   0.127  -0.303
    1UNL    H12   39   0.202  -0.045  -0.288
    1UNL    H13   40   0.255   0.063   0.216
    1UNL    H14   41   0.518  -0.032   0.260
    1UNL    H15   42   0.712  -0.104   0.145
    1UNL    H16   43   0.717  -0.129  -0.114
    1UNL    H17   44   0.522  -0.083  -0.233
    1UNL    H18   45   0.057   0.200   0.006
    1UNL    H19   46   0.042  -0.020   0.192
    1UNL    H20   47  -0.055   0.125   0.217
    1UNL    H21   48  -0.184  -0.077   0.211
    1UNL    H22   49  -0.190   0.111  -0.115
    1UNL    H23   50  -0.420   0.290  -0.291
    1UNL    H24   51  -0.249   0.316  -0.238
    1UNL    H25   52  -0.294   0.158  -0.299
    1UNL    H26   53  -0.599   0.279   0.262
    1UNL    H27   54  -0.571   0.116   0.318
    1UNL    H28   55  -0.692   0.150   0.182
   0.00000   0.00000   0.00000   0.00000   0.00000   0.00000   0.00000   0.00000   0.00000
Generated with MDTraj, t= 68.0
 55
    1UNL     C1    1  -0.022  -0.287   0.165
    1UNL     C2    2  -0.133  -0.273   0.060
    1UNL     C3    3  -0.140  -0.137  -0.014
    1UNL     C4    4  -0.022  -0.125  -0.103
    1UNL     N1    5   0.004   0.018  -0.123
    1UNL     C5    6   0.073   0.055  -0.251
    1UNL     C6    7   0.226   0.051  -0.238
    1UNL     C7    8   0.275   0.052  -0.095
    1UNL     C8    9   0.197   0.057   0.018
    1UNL     N2   10   0.276   0.028   0.136
    1UNL     C9   11   0.402  -0.003   0.086
    1UNL    C10   12   0.519  -0.037   0.155
    1UNL    C11   13   0.632  -0.060   0.078
    1UNL    C12   14   0.628  -0.052  -0.062
    1UNL    C13   15   0.514  -0.021  -0.135
    1UNL    C14   16   0.401   0.009  -0.057
    1UNL    C15   17   0.045   0.092   0.005
    1UNL    C16   18  -0.035   0.048   0.131
    1UNL    C17   19  -0.162  -0.025   0.089
    1UNL    C18   20  -0.277   0.063   0.059
    1UNL    C19   21  -0.282   0.131  -0.060
    1UNL     O1   22  -0.385   0.207  -0.104
    1UNL    C20   23  -0.368   0.276  -0.229
    1UNL    C21   24  -0.384   0.068   0.156
    1UNL     O2   25  -0.377   0.000   0.257
    1UNL     O3   26  -0.484   0.165   0.137
    1UNL    C22   27  -0.580   0.146   0.227
    1UNL     H1   28   0.074  -0.278   0.124
    1UNL     H2   29  -0.033  -0.386   0.220
    1UNL     H3   30  -0.024  -0.210   0.244
    1UNL     H4   31  -0.128  -0.358  -0.006
    1UNL     H5   32  -0.227  -0.289   0.114
    1UNL     H6   33  -0.238  -0.142  -0.081
    1UNL     H7   34  -0.032  -0.181  -0.200
    1UNL     H8   35   0.072  -0.159  -0.052
    1UNL     H9   36   0.043  -0.010  -0.333
    1UNL    H10   37   0.032   0.150  -0.290
    1UNL    H11   38   0.275   0.139  -0.286
    1UNL    H12   39   0.264  -0.037  -0.285
    1UNL    H13   40   0.250   0.015   0.230
    1UNL    H14   41   0.525  -0.058   0.259
    1UNL    H15   42   0.721  -0.099   0.122
    1UNL    H16   43   0.716  -0.092  -0.116
    1UNL    H17   44   0.512  -0.005  -0.243
    1UNL    H18   45   0.020   0.196  -0.023
    1UNL    H19   46   0.026  -0.011   0.196
    1UNL    H20   47  -0.056   0.141   0.184
    1UNL    H21   48  -0.191  -0.088   0.182
    1UNL    H22   49  -0.195   0.122  -0.120
    1UNL    H23   50  -0.457   0.332  -0.235
    1UNL    H24   51  -0.277   0.334  -0.244
    1UNL    H25   52  -0.361   0.200  -0.308
    1UNL    H26   53  -0.529   0.111   0.317
    1UNL    H27   54  -0.645   0.064   0.202
    1UNL    H28   55  -0.626   0.240   0.244
   0.00000   0.00000   0.00000   0.00000   0.00000   0.00000   0.00000   0.00000   0.00000
Generated with MDTraj, t= 69.0
 55
    1UNL     C1    1  -0.043  -0.286   0.182
    1UNL     C2    2  -0.134  -0.295   0.056
    1UNL     C3    3  -0.139  -0.151  -0.016
    1UNL     C4    4  -0.032  -0.122  -0.124
    1UNL     N1    5  -0.003   0.026  -0.127
    1UNL     C5    6   0.071   0.060  -0.263
    1UNL     C6    7   0.224   0.036  -0.257
    1UNL     C7    8   0.276   0.043  -0.118
    1UNL     C8    9   0.196   0.062  -0.004
    1UNL     N2   10   0.264   0.024   0.111
    1UNL     C9   11   0.393  -0.012   0.074
    1UNL    C10   12   0.499  -0.042   0.160
    1UNL    C11   13   0.625  -0.050   0.104
    1UNL    C12   14   0.645  -0.035  -0.034
    1UNL    C13   15   0.540  -0.012  -0.117
    1UNL    C14   16   0.406   0.004  -0.064
    1UNL    C15   17   0.049   0.094  -0.003
    1UNL    C16   18  -0.028   0.051   0.119
    1UNL    C17   19  -0.162  -0.033   0.089
    1UNL    C18   20  -0.272   0.064   0.062
    1UNL    C19   21  -0.284   0.128  -0.055
    1UNL     O1   22  -0.373   0.220  -0.095
    1UNL    C20   23  -0.355   0.279  -0.219
    1UNL    C21   24  -0.384   0.072   0.163
    1UNL     O2   25  -0.359   0.033   0.277
    1UNL     O3   26  -0.505   0.134   0.134
    1UNL    C22   27  -0.575   0.143   0.246
    1UNL     H1   28   0.057  -0.257   0.159
    1UNL     H2   29  -0.031  -0.391   0.224
    1UNL     H3   30  -0.072  -0.225   0.268
    1UNL     H4   31  -0.103  -0.375  -0.011
    1UNL     H5   32  -0.233  -0.330   0.086
    1UNL     H6   33  -0.236  -0.152  -0.084
    1UNL     H7   34  -0.065  -0.157  -0.228
    1UNL     H8   35   0.061  -0.176  -0.094
    1UNL     H9   36   0.019   0.012  -0.344
    1UNL    H10   37   0.056   0.163  -0.294
    1UNL    H11   38   0.284   0.109  -0.317
    1UNL    H12   39   0.258  -0.058  -0.293
    1UNL    H13   40   0.234   0.021   0.203
    1UNL    H14   41   0.486  -0.038   0.270
    1UNL    H15   42   0.716  -0.076   0.159
    1UNL    H16   43   0.744  -0.034  -0.070
    1UNL    H17   44   0.556   0.020  -0.217
    1UNL    H18   45   0.034   0.203  -0.015
    1UNL    H19   46   0.045  -0.004   0.174
    1UNL    H20   47  -0.049   0.140   0.179
    1UNL    H21   48  -0.193  -0.088   0.183
    1UNL    H22   49  -0.206   0.111  -0.128
    1UNL    H23   50  -0.443   0.332  -0.236
    1UNL    H24   51  -0.264   0.337  -0.232
    1UNL    H25   52  -0.344   0.197  -0.288
    1UNL    H26   53  -0.595   0.044   0.284
    1UNL    H27   54  -0.674   0.179   0.231
    1UNL    H28   55  -0.518   0.205   0.312
   0.00000   0.00000   0.00000   0.00000   0.00000   0.00000   0.00000   0.00000   0.00000
Generated with MDTraj, t= 70.0
 55
    1UNL     C1    1  -0.010  -0.318   0.120
    1UNL     C2    2  -0.140  -0.293   0.045
    1UNL     C3    3  -0.151  -0.149  -0.020
    1UNL     C4    4  -0.043  -0.124  -0.123
    1UNL     N1    5  -0.007   0.020  -0.129
    1UNL     C5    6   0.071   0.058  -0.248
    1UNL     C6    7   0.215   0.020  -0.242
    1UNL     C7    8   0.272   0.024  -0.105
    1UNL     C8    9   0.195   0.055   0.008
    1UNL     N2   10   0.270   0.047   0.126
    1UNL     C9   11   0.398   0.012   0.084
    1UNL    C10   12   0.513   0.008   0.162
    1UNL    C11   13   0.625  -0.032   0.099
    1UNL    C12   14   0.634  -0.055  -0.041
    1UNL    C13   15   0.530  -0.036  -0.118
    1UNL    C14   16   0.406  -0.001  -0.060
    1UNL    C15   17   0.048   0.082  -0.003
    1UNL    C16   18  -0.033   0.046   0.122
    1UNL    C17   19  -0.168  -0.035   0.085
    1UNL    C18   20  -0.284   0.053   0.057
    1UNL    C19   21  -0.282   0.131  -0.052
    1UNL     O1   22  -0.369   0.231  -0.092
    1UNL    C20   23  -0.341   0.279  -0.223
    1UNL    C21   24  -0.382   0.073   0.172
    1UNL     O2   25  -0.349   0.055   0.289
    1UNL     O3   26  -0.499   0.128   0.134
    1UNL    C22   27  -0.590   0.148   0.240
    1UNL     H1   28   0.078  -0.324   0.054
    1UNL     H2   29  -0.018  -0.424   0.159
    1UNL     H3   30   0.008  -0.252   0.204
    1UNL     H4   31  -0.144  -0.368  -0.033
    1UNL     H5   32  -0.226  -0.312   0.108
    1UNL     H6   33  -0.251  -0.142  -0.084
    1UNL     H7   34  -0.079  -0.164  -0.225
    1UNL     H8   35   0.050  -0.176  -0.093
    1UNL     H9   36   0.031   0.042  -0.345
    1UNL    H10   37   0.064   0.164  -0.236
    1UNL    H11   38   0.275   0.087  -0.303
    1UNL    H12   39   0.230  -0.077  -0.286
    1UNL    H13   40   0.258   0.088   0.213
    1UNL    H14   41   0.513   0.038   0.263
    1UNL    H15   42   0.711  -0.033   0.161
    1UNL    H16   43   0.730  -0.069  -0.094
    1UNL    H17   44   0.531  -0.039  -0.226
    1UNL    H18   45   0.037   0.191  -0.019
    1UNL    H19   46   0.036  -0.015   0.178
    1UNL    H20   47  -0.050   0.131   0.191
    1UNL    H21   48  -0.207  -0.075   0.182
    1UNL    H22   49  -0.200   0.109  -0.124
    1UNL    H23   50  -0.412   0.348  -0.259
    1UNL    H24   51  -0.237   0.318  -0.226
    1UNL    H25   52  -0.337   0.194  -0.290
    1UNL    H26   53  -0.685   0.101   0.223
    1UNL    H27   54  -0.610   0.249   0.271
    1UNL    H28   55  -0.546   0.099   0.326
   0.00000   0.00000   0.00000   0.00000   0.00000   0.00000   0.00000   0.00000   0.00000
Generated with MDTraj, t= 71.0
 55
    1UNL     C1    1  -0.006  -0.345   0.062
    1UNL     C2    2  -0.150  -0.303   0.041
    1UNL     C3    3  -0.149  -0.149  -0.013
    1UNL     C4    4  -0.040  -0.121  -0.112
    1UNL     N1    5  -0.009   0.024  -0.123
    1UNL     C5    6   0.073   0.059  -0.238
    1UNL     C6    7   0.213  -0.011  -0.232
    1UNL     C7    8   0.261   0.006  -0.088
    1UNL     C8    9   0.193   0.061   0.019
    1UNL     N2   10   0.278   0.085   0.129
    1UNL     C9   11   0.401   0.037   0.092
    1UNL    C10   12   0.528   0.049   0.148
    1UNL    C11   13   0.634  -0.015   0.085
    1UNL    C12   14   0.619  -0.063  -0.043
    1UNL    C13   15   0.505  -0.058  -0.117
    1UNL    C14   16   0.395  -0.008  -0.045
    1UNL    C15   17   0.038   0.082   0.016
    1UNL    C16   18  -0.030   0.020   0.139
    1UNL    C17   19  -0.164  -0.038   0.098
    1UNL    C18   20  -0.270   0.072   0.064
    1UNL    C19   21  -0.280   0.133  -0.056
    1UNL     O1   22  -0.379   0.215  -0.099
    1UNL    C20   23  -0.340   0.286  -0.215
    1UNL    C21   24  -0.369   0.081   0.167
    1UNL     O2   25  -0.348   0.046   0.281
    1UNL     O3   26  -0.485   0.138   0.124
    1UNL    C22   27  -0.585   0.156   0.221
    1UNL     H1   28   0.053  -0.356  -0.035
    1UNL     H2   29  -0.012  -0.445   0.106
    1UNL     H3   30   0.043  -0.280   0.133
    1UNL     H4   31  -0.199  -0.367  -0.030
    1UNL     H5   32  -0.205  -0.310   0.135
    1UNL     H6   33  -0.249  -0.142  -0.077
    1UNL     H7   34  -0.076  -0.157  -0.216
    1UNL     H8   35   0.051  -0.178  -0.087
    1UNL     H9   36   0.006   0.047  -0.320
    1UNL    H10   37   0.097   0.162  -0.242
    1UNL    H11   38   0.280   0.030  -0.302
    1UNL    H12   39   0.215  -0.116  -0.258
    1UNL    H13   40   0.257   0.123   0.217
    1UNL    H14   41   0.531   0.086   0.252
    1UNL    H15   42   0.736  -0.017   0.126
    1UNL    H16   43   0.705  -0.100  -0.092
    1UNL    H17   44   0.484  -0.099  -0.214
    1UNL    H18   45   0.009   0.188   0.015
    1UNL    H19   46   0.022  -0.050   0.206
    1UNL    H20   47  -0.048   0.104   0.206
    1UNL    H21   48  -0.210  -0.083   0.187
    1UNL    H22   49  -0.190   0.115  -0.109
    1UNL    H23   50  -0.401   0.373  -0.234
    1UNL    H24   51  -0.231   0.309  -0.203
    1UNL    H25   52  -0.351   0.225  -0.308
    1UNL    H26   53  -0.644   0.246   0.214
    1UNL    H27   54  -0.544   0.143   0.325
    1UNL    H28   55  -0.663   0.076   0.207
   0.00000   0.00000   0.00000   0.00000   0.00000   0.00000   0.00000   0.00000   0.00000
Generated with MDTraj, t= 72.0
 55
    1UNL     C1    1  -0.032  -0.350   0.084
    1UNL     C2    2  -0.163  -0.295   0.029
    1UNL     C3    3  -0.163  -0.147  -0.023
    1UNL     C4    4  -0.044  -0.128  -0.110
    1UNL     N1    5  -0.008   0.020  -0.126
    1UNL     C5    6   0.078   0.057  -0.241
    1UNL     C6    7   0.220  -0.012  -0.243
    1UNL     C7    8   0.271   0.005  -0.103
    1UNL     C8    9   0.192   0.049   0.004
    1UNL     N2   10   0.275   0.086   0.109
    1UNL     C9   11   0.403   0.048   0.076
    1UNL    C10   12   0.519   0.049   0.154
    1UNL    C11   13   0.638   0.006   0.096
    1UNL    C12   14   0.647  -0.047  -0.035
    1UNL    C13   15   0.529  -0.051  -0.110
    1UNL    C14   16   0.408  -0.002  -0.055
    1UNL    C15   17   0.044   0.068  -0.004
    1UNL    C16   18  -0.030   0.019   0.122
    1UNL    C17   19  -0.173  -0.044   0.102
    1UNL    C18   20  -0.278   0.063   0.080
    1UNL    C19   21  -0.274   0.137  -0.032
    1UNL     O1   22  -0.357   0.231  -0.086
    1UNL    C20   23  -0.324   0.260  -0.216
    1UNL    C21   24  -0.389   0.078   0.173
    1UNL     O2   25  -0.375   0.020   0.279
    1UNL     O3   26  -0.498   0.154   0.131
    1UNL    C22   27  -0.585   0.177   0.239
    1UNL     H1   28   0.050  -0.362   0.003
    1UNL     H2   29  -0.051  -0.449   0.115
    1UNL     H3   30   0.014  -0.298   0.169
    1UNL     H4   31  -0.188  -0.358  -0.057
    1UNL     H5   32  -0.249  -0.310   0.096
    1UNL     H6   33  -0.261  -0.152  -0.088
    1UNL     H7   34  -0.060  -0.181  -0.210
    1UNL     H8   35   0.040  -0.184  -0.064
    1UNL     H9   36   0.031   0.039  -0.333
    1UNL    H10   37   0.079   0.161  -0.233
    1UNL    H11   38   0.290   0.028  -0.311
    1UNL    H12   39   0.214  -0.116  -0.275
    1UNL    H13   40   0.237   0.107   0.201
    1UNL    H14   41   0.526   0.069   0.258
    1UNL    H15   42   0.723  -0.009   0.159
    1UNL    H16   43   0.745  -0.076  -0.077
    1UNL    H17   44   0.529  -0.092  -0.208
    1UNL    H18   45   0.027   0.176  -0.005
    1UNL    H19   46   0.033  -0.064   0.156
    1UNL    H20   47  -0.034   0.085   0.210
    1UNL    H21   48  -0.198  -0.107   0.187
    1UNL    H22   49  -0.195   0.108  -0.100
    1UNL    H23   50  -0.410   0.300  -0.272
    1UNL    H24   51  -0.234   0.328  -0.213
    1UNL    H25   52  -0.305   0.171  -0.285
    1UNL    H26   53  -0.535   0.191   0.337
    1UNL    H27   54  -0.646   0.079   0.258
    1UNL    H28   55  -0.644   0.274   0.238
   0.00000   0.00000   0.00000   0.00000   0.00000   0.00000   0.00000   0.00000   0.00000
Generated with MDTraj, t= 73.0
 55
    1UNL     C1    1  -0.096  -0.325   0.152
    1UNL     C2    2  -0.193  -0.296   0.036
    1UNL     C3    3  -0.169  -0.151  -0.022
    1UNL     C4    4  -0.048  -0.143  -0.110
    1UNL     N1    5  -0.004  -0.002  -0.143
    1UNL     C5    6   0.084   0.024  -0.261
    1UNL     C6    7   0.232  -0.007  -0.238
    1UNL     C7    8   0.275   0.027  -0.103
    1UNL     C8    9   0.190   0.054  -0.001
    1UNL     N2   10   0.270   0.061   0.115
    1UNL     C9   11   0.400   0.035   0.084
    1UNL    C10   12   0.514   0.022   0.163
    1UNL    C11   13   0.637   0.021   0.100
    1UNL    C12   14   0.644   0.000  -0.040
    1UNL    C13   15   0.529  -0.024  -0.114
    1UNL    C14   16   0.406   0.017  -0.054
    1UNL    C15   17   0.040   0.073  -0.017
    1UNL    C16   18  -0.028   0.015   0.112
    1UNL    C17   19  -0.166  -0.047   0.091
    1UNL    C18   20  -0.266   0.057   0.057
    1UNL    C19   21  -0.270   0.130  -0.057
    1UNL     O1   22  -0.353   0.232  -0.082
    1UNL    C20   23  -0.332   0.284  -0.207
    1UNL    C21   24  -0.372   0.074   0.162
    1UNL     O2   25  -0.372  -0.016   0.245
    1UNL     O3   26  -0.457   0.177   0.162
    1UNL    C22   27  -0.557   0.158   0.251
    1UNL     H1   28   0.011  -0.304   0.125
    1UNL     H2   29  -0.101  -0.426   0.185
    1UNL     H3   30  -0.114  -0.263   0.243
    1UNL     H4   31  -0.183  -0.370  -0.044
    1UNL     H5   32  -0.298  -0.305   0.066
    1UNL     H6   33  -0.259  -0.135  -0.094
    1UNL     H7   34  -0.065  -0.208  -0.201
    1UNL     H8   35   0.032  -0.200  -0.057
    1UNL     H9   36   0.036  -0.003  -0.350
    1UNL    H10   37   0.094   0.129  -0.265
    1UNL    H11   38   0.290   0.034  -0.315
    1UNL    H12   39   0.250  -0.115  -0.243
    1UNL    H13   40   0.229   0.087   0.210
    1UNL    H14   41   0.511   0.014   0.271
    1UNL    H15   42   0.730   0.019   0.159
    1UNL    H16   43   0.735  -0.012  -0.097
    1UNL    H17   44   0.542  -0.030  -0.223
    1UNL    H18   45   0.027   0.180  -0.023
    1UNL    H19   46   0.032  -0.063   0.164
    1UNL    H20   47  -0.036   0.089   0.192
    1UNL    H21   48  -0.199  -0.101   0.179
    1UNL    H22   49  -0.196   0.116  -0.138
    1UNL    H23   50  -0.393   0.373  -0.227
    1UNL    H24   51  -0.223   0.302  -0.224
    1UNL    H25   52  -0.380   0.225  -0.293
    1UNL    H26   53  -0.614   0.064   0.244
    1UNL    H27   54  -0.639   0.238   0.225
    1UNL    H28   55  -0.522   0.168   0.357
   0.00000   0.00000   0.00000   0.00000   0.00000   0.00000   0.00000   0.00000   0.00000
Generated with MDTraj, t= 74.0
 55
    1UNL     C1    1  -0.122  -0.338   0.168
    1UNL     C2    2  -0.193  -0.309   0.041
    1UNL     C3    3  -0.172  -0.168  -0.023
    1UNL     C4    4  -0.032  -0.162  -0.101
    1UNL     N1    5   0.004  -0.019  -0.134
    1UNL     C5    6   0.081   0.005  -0.266
    1UNL     C6    7   0.238   0.003  -0.253
    1UNL     C7    8   0.286   0.032  -0.111
    1UNL     C8    9   0.196   0.038  -0.005
    1UNL     N2   10   0.268   0.042   0.111
    1UNL     C9   11   0.404   0.043   0.082
    1UNL    C10   12   0.518   0.038   0.166
    1UNL    C11   13   0.641   0.034   0.101
    1UNL    C12   14   0.653   0.009  -0.038
    1UNL    C13   15   0.541  -0.003  -0.117
    1UNL    C14   16   0.420   0.033  -0.060
    1UNL    C15   17   0.043   0.050  -0.018
    1UNL    C16   18  -0.037   0.018   0.113
    1UNL    C17   19  -0.173  -0.050   0.086
    1UNL    C18   20  -0.270   0.057   0.049
    1UNL    C19   21  -0.272   0.135  -0.062
    1UNL     O1   22  -0.363   0.235  -0.077
    1UNL    C20   23  -0.328   0.313  -0.193
    1UNL    C21   24  -0.376   0.069   0.152
    1UNL     O2   25  -0.410  -0.026   0.223
    1UNL     O3   26  -0.458   0.184   0.163
    1UNL    C22   27  -0.540   0.185   0.277
    1UNL     H1   28  -0.017  -0.316   0.158
    1UNL     H2   29  -0.138  -0.440   0.202
    1UNL     H3   30  -0.164  -0.270   0.250
    1UNL     H4   31  -0.164  -0.392  -0.025
    1UNL     H5   32  -0.301  -0.323   0.061
    1UNL     H6   33  -0.239  -0.136  -0.109
    1UNL     H7   34  -0.028  -0.230  -0.189
    1UNL     H8   35   0.052  -0.208  -0.040
    1UNL     H9   36   0.050  -0.065  -0.336
    1UNL    H10   37   0.050   0.099  -0.297
    1UNL    H11   38   0.278   0.072  -0.321
    1UNL    H12   39   0.266  -0.094  -0.298
    1UNL    H13   40   0.233   0.033   0.213
    1UNL    H14   41   0.504   0.044   0.275
    1UNL    H15   42   0.735   0.034   0.150
    1UNL    H16   43   0.754  -0.002  -0.075
    1UNL    H17   44   0.543  -0.013  -0.222
    1UNL    H18   45   0.027   0.155  -0.042
    1UNL    H19   46   0.021  -0.049   0.181
    1UNL    H20   47  -0.044   0.106   0.179
    1UNL    H21   48  -0.208  -0.077   0.183
    1UNL    H22   49  -0.192   0.114  -0.127
    1UNL    H23   50  -0.413   0.370  -0.225
    1UNL    H24   51  -0.240   0.373  -0.178
    1UNL    H25   52  -0.311   0.256  -0.288
    1UNL    H26   53  -0.619   0.256   0.257
    1UNL    H27   54  -0.481   0.223   0.367
    1UNL    H28   55  -0.583   0.091   0.300
   0.00000   0.00000   0.00000   0.00000   0.00000   0.00000   0.00000   0.00000   0.00000
Generated with MDTraj, t= 75.0
 55
    1UNL     C1    1  -0.100  -0.361   0.128
    1UNL     C2    2  -0.198  -0.300   0.030
    1UNL     C3    3  -0.169  -0.159  -0.017
    1UNL     C4    4  -0.035  -0.165  -0.100
    1UNL     N1    5   0.002  -0.021  -0.133
    1UNL     C5    6   0.074   0.001  -0.262
    1UNL     C6    7   0.225  -0.018  -0.240
    1UNL     C7    8   0.279   0.008  -0.101
    1UNL     C8    9   0.194   0.038   0.006
    1UNL     N2   10   0.270   0.064   0.117
    1UNL     C9   11   0.400   0.047   0.082
    1UNL    C10   12   0.517   0.063   0.158
    1UNL    C11   13   0.635   0.043   0.093
    1UNL    C12   14   0.651   0.016  -0.045
    1UNL    C13   15   0.540   0.005  -0.122
    1UNL    C14   16   0.413   0.021  -0.058
    1UNL    C15   17   0.045   0.056  -0.012
    1UNL    C16   18  -0.039   0.009   0.117
    1UNL    C17   19  -0.172  -0.055   0.094
    1UNL    C18   20  -0.283   0.047   0.057
    1UNL    C19   21  -0.267   0.131  -0.048
    1UNL     O1   22  -0.353   0.222  -0.093
    1UNL    C20   23  -0.295   0.310  -0.186
    1UNL    C21   24  -0.393   0.069   0.159
    1UNL     O2   25  -0.418  -0.033   0.219
    1UNL     O3   26  -0.448   0.194   0.169
    1UNL    C22   27  -0.540   0.211   0.272
    1UNL     H1   28  -0.014  -0.394   0.080
    1UNL     H2   29  -0.137  -0.443   0.193
    1UNL     H3   30  -0.062  -0.282   0.198
    1UNL     H4   31  -0.206  -0.363  -0.060
    1UNL     H5   32  -0.298  -0.307   0.079
    1UNL     H6   33  -0.242  -0.127  -0.095
    1UNL     H7   34  -0.048  -0.222  -0.193
    1UNL     H8   35   0.038  -0.233  -0.045
    1UNL     H9   36   0.037  -0.068  -0.331
    1UNL    H10   37   0.059   0.100  -0.291
    1UNL    H11   38   0.278   0.039  -0.312
    1UNL    H12   39   0.254  -0.120  -0.270
    1UNL    H13   40   0.236   0.072   0.220
    1UNL    H14   41   0.503   0.086   0.260
    1UNL    H15   42   0.721   0.046   0.161
    1UNL    H16   43   0.747   0.018  -0.097
    1UNL    H17   44   0.551  -0.030  -0.226
    1UNL    H18   45   0.021   0.160  -0.036
    1UNL    H19   46   0.022  -0.061   0.181
    1UNL    H20   47  -0.046   0.096   0.182
    1UNL    H21   48  -0.209  -0.097   0.185
    1UNL    H22   49  -0.179   0.116  -0.109
    1UNL    H23   50  -0.364   0.386  -0.206
    1UNL    H24   51  -0.205   0.356  -0.154
    1UNL    H25   52  -0.273   0.262  -0.283
    1UNL    H26   53  -0.513   0.285   0.342
    1UNL    H27   54  -0.574   0.115   0.316
    1UNL    H28   55  -0.620   0.254   0.224
   0.00000   0.00000   0.00000   0.00000   0.00000   0.00000   0.00000   0.00000   0.00000
Generated with MDTraj, t= 76.0
 55
    1UNL     C1    1  -0.077  -0.374   0.093
    1UNL     C2    2  -0.199  -0.311   0.030
    1UNL     C3    3  -0.181  -0.169  -0.027
    1UNL     C4    4  -0.064  -0.151  -0.123
    1UNL     N1    5  -0.012  -0.015  -0.120
    1UNL     C5    6   0.073   0.010  -0.247
    1UNL     C6    7   0.217  -0.032  -0.232
    1UNL     C7    8   0.260  -0.010  -0.091
    1UNL     C8    9   0.184   0.041   0.008
    1UNL     N2   10   0.263   0.093   0.108
    1UNL     C9   11   0.399   0.056   0.086
    1UNL    C10   12   0.520   0.097   0.151
    1UNL    C11   13   0.635   0.056   0.091
    1UNL    C12   14   0.636   0.013  -0.046
    1UNL    C13   15   0.517  -0.013  -0.114
    1UNL    C14   16   0.396   0.004  -0.045
    1UNL    C15   17   0.036   0.047   0.006
    1UNL    C16   18  -0.031  -0.020   0.133
    1UNL    C17   19  -0.165  -0.064   0.093
    1UNL    C18   20  -0.261   0.056   0.066
    1UNL    C19   21  -0.249   0.137  -0.043
    1UNL     O1   22  -0.325   0.243  -0.084
    1UNL    C20   23  -0.286   0.295  -0.207
    1UNL    C21   24  -0.370   0.075   0.168
    1UNL     O2   25  -0.388  -0.015   0.249
    1UNL     O3   26  -0.442   0.192   0.154
    1UNL    C22   27  -0.558   0.199   0.242
    1UNL     H1   28   0.009  -0.349   0.040
    1UNL     H2   29  -0.079  -0.486   0.107
    1UNL     H3   30  -0.061  -0.332   0.191
    1UNL     H4   31  -0.236  -0.383  -0.048
    1UNL     H5   32  -0.287  -0.307   0.100
    1UNL     H6   33  -0.277  -0.163  -0.079
    1UNL     H7   34  -0.100  -0.189  -0.220
    1UNL     H8   35   0.017  -0.224  -0.092
    1UNL     H9   36   0.025  -0.029  -0.330
    1UNL    H10   37   0.078   0.114  -0.250
    1UNL    H11   38   0.291  -0.000  -0.302
    1UNL    H12   39   0.222  -0.142  -0.244
    1UNL    H13   40   0.236   0.164   0.183
    1UNL    H14   41   0.518   0.139   0.255
    1UNL    H15   42   0.726   0.079   0.141
    1UNL    H16   43   0.731   0.002  -0.094
    1UNL    H17   44   0.519  -0.046  -0.214
    1UNL    H18   45   0.005   0.152  -0.001
    1UNL    H19   46   0.037  -0.107   0.154
    1UNL    H20   47  -0.038   0.040   0.224
    1UNL    H21   48  -0.208  -0.124   0.170
    1UNL    H22   49  -0.167   0.114  -0.112
    1UNL    H23   50  -0.341   0.382  -0.227
    1UNL    H24   51  -0.186   0.331  -0.209
    1UNL    H25   52  -0.292   0.215  -0.283
    1UNL    H26   53  -0.582   0.107   0.290
    1UNL    H27   54  -0.644   0.242   0.185
    1UNL    H28   55  -0.532   0.259   0.322
   0.00000   0.00000   0.00000   0.00000   0.00000   0.00000   0.00000   0.00000   0.00000
Generated with MDTraj, t= 77.0
 55
    1UNL     C1    1  -0.080  -0.366   0.103
    1UNL     C2    2  -0.196  -0.316   0.010
    1UNL     C3    3  -0.188  -0.169  -0.041
    1UNL     C4    4  -0.066  -0.149  -0.138
    1UNL     N1    5  -0.012  -0.004  -0.133
    1UNL     C5    6   0.080   0.029  -0.248
    1UNL     C6    7   0.211  -0.052  -0.227
    1UNL     C7    8   0.266  -0.011  -0.092
    1UNL     C8    9   0.189   0.029   0.014
    1UNL     N2   10   0.269   0.083   0.115
    1UNL     C9   11   0.400   0.062   0.075
    1UNL    C10   12   0.510   0.109   0.139
    1UNL    C11   13   0.636   0.077   0.088
    1UNL    C12   14   0.646   0.004  -0.031
    1UNL    C13   15   0.532  -0.019  -0.110
    1UNL    C14   16   0.404   0.003  -0.055
    1UNL    C15   17   0.043   0.040   0.003
    1UNL    C16   18  -0.031  -0.030   0.121
    1UNL    C17   19  -0.178  -0.068   0.085
    1UNL    C18   20  -0.279   0.049   0.068
    1UNL    C19   21  -0.249   0.128  -0.037
    1UNL     O1   22  -0.314   0.242  -0.069
    1UNL    C20   23  -0.288   0.285  -0.199
    1UNL    C21   24  -0.376   0.076   0.178
    1UNL     O2   25  -0.371   0.023   0.288
    1UNL     O3   26  -0.467   0.169   0.142
    1UNL    C22   27  -0.571   0.209   0.239
    1UNL     H1   28   0.015  -0.338   0.060
    1UNL     H2   29  -0.081  -0.477   0.123
    1UNL     H3   30  -0.082  -0.317   0.194
    1UNL     H4   31  -0.204  -0.378  -0.083
    1UNL     H5   32  -0.293  -0.328   0.066
    1UNL     H6   33  -0.281  -0.154  -0.093
    1UNL     H7   34  -0.087  -0.179  -0.244
    1UNL     H8   35   0.013  -0.223  -0.110
    1UNL     H9   36   0.029   0.002  -0.335
    1UNL    H10   37   0.099   0.131  -0.250
    1UNL    H11   38   0.290  -0.025  -0.295
    1UNL    H12   39   0.215  -0.161  -0.233
    1UNL    H13   40   0.246   0.149   0.192
    1UNL    H14   41   0.493   0.160   0.229
    1UNL    H15   42   0.726   0.101   0.147
    1UNL    H16   43   0.751  -0.010  -0.058
    1UNL    H17   44   0.547  -0.055  -0.211
    1UNL    H18   45   0.017   0.148   0.003
    1UNL    H19   46   0.021  -0.125   0.151
    1UNL    H20   47  -0.028   0.037   0.206
    1UNL    H21   48  -0.215  -0.121   0.170
    1UNL    H22   49  -0.172   0.093  -0.098
    1UNL    H23   50  -0.323   0.385  -0.217
    1UNL    H24   51  -0.182   0.302  -0.223
    1UNL    H25   52  -0.318   0.199  -0.265
    1UNL    H26   53  -0.669   0.227   0.189
    1UNL    H27   54  -0.538   0.311   0.270
    1UNL    H28   55  -0.583   0.142   0.320
   0.00000   0.00000   0.00000   0.00000   0.00000   0.00000   0.00000   0.00000   0.00000
Generated with MDTraj, t= 78.0
 55
    1UNL     C1    1  -0.115  -0.369   0.115
    1UNL     C2    2  -0.216  -0.309   0.021
    1UNL     C3    3  -0.169  -0.173  -0.037
    1UNL     C4    4  -0.040  -0.164  -0.117
    1UNL     N1    5  -0.006  -0.021  -0.137
    1UNL     C5    6   0.081  -0.002  -0.252
    1UNL     C6    7   0.225  -0.046  -0.226
    1UNL     C7    8   0.277   0.005  -0.092
    1UNL     C8    9   0.192   0.048   0.010
    1UNL     N2   10   0.263   0.053   0.127
    1UNL     C9   11   0.399   0.051   0.088
    1UNL    C10   12   0.521   0.087   0.150
    1UNL    C11   13   0.637   0.076   0.084
    1UNL    C12   14   0.640   0.020  -0.043
    1UNL    C13   15   0.527  -0.014  -0.107
    1UNL    C14   16   0.407   0.009  -0.041
    1UNL    C15   17   0.037   0.056  -0.010
    1UNL    C16   18  -0.035  -0.003   0.116
    1UNL    C17   19  -0.178  -0.058   0.072
    1UNL    C18   20  -0.276   0.055   0.054
    1UNL    C19   21  -0.264   0.124  -0.061
    1UNL     O1   22  -0.344   0.229  -0.091
    1UNL    C20   23  -0.308   0.327  -0.187
    1UNL    C21   24  -0.367   0.087   0.169
    1UNL     O2   25  -0.327   0.038   0.272
    1UNL     O3   26  -0.480   0.165   0.144
    1UNL    C22   27  -0.559   0.171   0.261
    1UNL     H1   28  -0.022  -0.386   0.057
    1UNL     H2   29  -0.147  -0.466   0.156
    1UNL     H3   30  -0.083  -0.304   0.190
    1UNL     H4   31  -0.238  -0.376  -0.067
    1UNL     H5   32  -0.312  -0.287   0.075
    1UNL     H6   33  -0.236  -0.137  -0.110
    1UNL     H7   34  -0.031  -0.218  -0.217
    1UNL     H8   35   0.051  -0.200  -0.068
    1UNL     H9   36   0.044  -0.062  -0.329
    1UNL    H10   37   0.074   0.100  -0.273
    1UNL    H11   38   0.294  -0.015  -0.303
    1UNL    H12   39   0.234  -0.154  -0.229
    1UNL    H13   40   0.244   0.072   0.223
    1UNL    H14   41   0.517   0.123   0.255
    1UNL    H15   42   0.721   0.092   0.147
    1UNL    H16   43   0.729   0.011  -0.102
    1UNL    H17   44   0.531  -0.030  -0.214
    1UNL    H18   45   0.009   0.162  -0.034
    1UNL    H19   46   0.021  -0.093   0.152
    1UNL    H20   47  -0.044   0.064   0.202
    1UNL    H21   48  -0.219  -0.090   0.167
    1UNL    H22   49  -0.178   0.099  -0.127
    1UNL    H23   50  -0.373   0.414  -0.178
    1UNL    H24   51  -0.212   0.379  -0.165
    1UNL    H25   52  -0.295   0.278  -0.291
    1UNL    H26   53  -0.592   0.279   0.263
    1UNL    H27   54  -0.491   0.159   0.351
    1UNL    H28   55  -0.644   0.099   0.259
   0.00000   0.00000   0.00000   0.00000   0.00000   0.00000   0.00000   0.00000   0.00000
Generated with MDTraj, t= 79.0
 55
    1UNL     C1    1  -0.133  -0.355   0.131
    1UNL     C2    2  -0.225  -0.298   0.019
    1UNL     C3    3  -0.174  -0.162  -0.032
    1UNL     C4    4  -0.043  -0.169  -0.107
    1UNL     N1    5   0.001  -0.032  -0.145
    1UNL     C5    6   0.087  -0.011  -0.277
    1UNL     C6    7   0.235  -0.032  -0.251
    1UNL     C7    8   0.284   0.020  -0.114
    1UNL     C8    9   0.196   0.045  -0.008
    1UNL     N2   10   0.265   0.060   0.111
    1UNL     C9   11   0.403   0.050   0.086
    1UNL    C10   12   0.518   0.064   0.169
    1UNL    C11   13   0.644   0.056   0.111
    1UNL    C12   14   0.660   0.023  -0.026
    1UNL    C13   15   0.551  -0.000  -0.106
    1UNL    C14   16   0.417   0.024  -0.058
    1UNL    C15   17   0.048   0.043  -0.023
    1UNL    C16   18  -0.025   0.003   0.106
    1UNL    C17   19  -0.179  -0.051   0.080
    1UNL    C18   20  -0.280   0.053   0.061
    1UNL    C19   21  -0.269   0.121  -0.054
    1UNL     O1   22  -0.353   0.223  -0.087
    1UNL    C20   23  -0.324   0.311  -0.193
    1UNL    C21   24  -0.372   0.085   0.176
    1UNL     O2   25  -0.339   0.033   0.281
    1UNL     O3   26  -0.486   0.170   0.157
    1UNL    C22   27  -0.567   0.172   0.272
    1UNL     H1   28  -0.028  -0.354   0.095
    1UNL     H2   29  -0.160  -0.454   0.150
    1UNL     H3   30  -0.127  -0.298   0.222
    1UNL     H4   31  -0.234  -0.374  -0.064
    1UNL     H5   32  -0.330  -0.277   0.055
    1UNL     H6   33  -0.247  -0.129  -0.102
    1UNL     H7   34  -0.050  -0.226  -0.206
    1UNL     H8   35   0.037  -0.224  -0.058
    1UNL     H9   36   0.060  -0.085  -0.346
    1UNL    H10   37   0.081   0.087  -0.312
    1UNL    H11   38   0.295   0.018  -0.325
    1UNL    H12   39   0.261  -0.136  -0.259
    1UNL    H13   40   0.223   0.066   0.199
    1UNL    H14   41   0.499   0.079   0.273
    1UNL    H15   42   0.733   0.072   0.173
    1UNL    H16   43   0.766   0.016  -0.053
    1UNL    H17   44   0.570  -0.011  -0.211
    1UNL    H18   45   0.022   0.151  -0.042
    1UNL    H19   46   0.033  -0.080   0.152
    1UNL    H20   47  -0.020   0.089   0.172
    1UNL    H21   48  -0.209  -0.092   0.176
    1UNL    H22   49  -0.198   0.107  -0.132
    1UNL    H23   50  -0.412   0.375  -0.212
    1UNL    H24   51  -0.258   0.389  -0.151
    1UNL    H25   52  -0.278   0.263  -0.288
    1UNL    H26   53  -0.612   0.275   0.272
    1UNL    H27   54  -0.507   0.155   0.366
    1UNL    H28   55  -0.641   0.089   0.257
   0.00000   0.00000   0.00000   0.00000   0.00000   0.00000   0.00000   0.00000   0.00000
Generated with MDTraj, t= 80.0
 55
    1UNL     C1    1  -0.132  -0.349   0.128
    1UNL     C2    2  -0.223  -0.288   0.019
    1UNL     C3    3  -0.173  -0.150  -0.032
    1UNL     C4    4  -0.045  -0.159  -0.112
    1UNL     N1    5   0.000  -0.028  -0.146
    1UNL     C5    6   0.085  -0.001  -0.277
    1UNL     C6    7   0.237  -0.024  -0.246
    1UNL     C7    8   0.280   0.015  -0.104
    1UNL     C8    9   0.195   0.048  -0.006
    1UNL     N2   10   0.270   0.090   0.101
    1UNL     C9   11   0.404   0.056   0.081
    1UNL    C10   12   0.514   0.058   0.167
    1UNL    C11   13   0.637   0.036   0.114
    1UNL    C12   14   0.649   0.003  -0.023
    1UNL    C13   15   0.540  -0.004  -0.105
    1UNL    C14   16   0.413   0.025  -0.052
    1UNL    C15   17   0.042   0.051  -0.022
    1UNL    C16   18  -0.022   0.008   0.110
    1UNL    C17   19  -0.164  -0.047   0.086
    1UNL    C18   20  -0.265   0.057   0.067
    1UNL    C19   21  -0.260   0.131  -0.047
    1UNL     O1   22  -0.339   0.238  -0.073
    1UNL    C20   23  -0.353   0.269  -0.212
    1UNL    C21   24  -0.360   0.066   0.175
    1UNL     O2   25  -0.361  -0.006   0.274
    1UNL     O3   26  -0.465   0.168   0.158
    1UNL    C22   27  -0.562   0.189   0.262
    1UNL     H1   28  -0.028  -0.349   0.092
    1UNL     H2   29  -0.159  -0.444   0.154
    1UNL     H3   30  -0.122  -0.289   0.221
    1UNL     H4   31  -0.228  -0.357  -0.070
    1UNL     H5   32  -0.329  -0.296   0.055
    1UNL     H6   33  -0.261  -0.125  -0.085
    1UNL     H7   34  -0.056  -0.230  -0.202
    1UNL     H8   35   0.037  -0.198  -0.052
    1UNL     H9   36   0.062  -0.070  -0.353
    1UNL    H10   37   0.079   0.101  -0.296
    1UNL    H11   38   0.295   0.027  -0.324
    1UNL    H12   39   0.261  -0.127  -0.260
    1UNL    H13   40   0.232   0.125   0.183
    1UNL    H14   41   0.504   0.076   0.272
    1UNL    H15   42   0.725   0.041   0.175
    1UNL    H16   43   0.752  -0.001  -0.057
    1UNL    H17   44   0.550  -0.049  -0.205
    1UNL    H18   45   0.013   0.158  -0.039
    1UNL    H19   46   0.050  -0.059   0.162
    1UNL    H20   47  -0.029   0.101   0.167
    1UNL    H21   48  -0.182  -0.107   0.175
    1UNL    H22   49  -0.188   0.112  -0.121
    1UNL    H23   50  -0.409   0.362  -0.214
    1UNL    H24   51  -0.256   0.302  -0.248
    1UNL    H25   52  -0.400   0.184  -0.273
    1UNL    H26   53  -0.659   0.188   0.212
    1UNL    H27   54  -0.552   0.288   0.306
    1UNL    H28   55  -0.544   0.103   0.333
   0.00000   0.00000   0.00000   0.00000   0.00000   0.00000   0.00000   0.00000   0.00000
Generated with MDTraj, t= 81.0
 55
    1UNL     C1    1  -0.094  -0.372   0.104
    1UNL     C2    2  -0.195  -0.302   0.018
    1UNL     C3    3  -0.168  -0.155  -0.028
    1UNL     C4    4  -0.036  -0.149  -0.107
    1UNL     N1    5  -0.003  -0.009  -0.135
    1UNL     C5    6   0.082   0.022  -0.253
    1UNL     C6    7   0.224  -0.033  -0.229
    1UNL     C7    8   0.278  -0.006  -0.089
    1UNL     C8    9   0.190   0.042   0.007
    1UNL     N2   10   0.270   0.095   0.106
    1UNL     C9   11   0.404   0.074   0.083
    1UNL    C10   12   0.524   0.083   0.155
    1UNL    C11   13   0.635   0.026   0.100
    1UNL    C12   14   0.642  -0.021  -0.034
    1UNL    C13   15   0.524  -0.035  -0.103
    1UNL    C14   16   0.407   0.014  -0.045
    1UNL    C15   17   0.047   0.068  -0.012
    1UNL    C16   18  -0.026   0.012   0.119
    1UNL    C17   19  -0.167  -0.049   0.090
    1UNL    C18   20  -0.261   0.066   0.070
    1UNL    C19   21  -0.261   0.145  -0.045
    1UNL     O1   22  -0.357   0.240  -0.089
    1UNL    C20   23  -0.368   0.266  -0.231
    1UNL    C21   24  -0.365   0.076   0.168
    1UNL     O2   25  -0.383  -0.017   0.240
    1UNL     O3   26  -0.452   0.183   0.168
    1UNL    C22   27  -0.549   0.188   0.267
    1UNL     H1   28  -0.000  -0.380   0.055
    1UNL     H2   29  -0.126  -0.465   0.143
    1UNL     H3   30  -0.064  -0.309   0.192
    1UNL     H4   31  -0.225  -0.368  -0.067
    1UNL     H5   32  -0.289  -0.312   0.078
    1UNL     H6   33  -0.249  -0.118  -0.086
    1UNL     H7   34  -0.042  -0.195  -0.213
    1UNL     H8   35   0.047  -0.193  -0.050
    1UNL     H9   36   0.044  -0.042  -0.327
    1UNL    H10   37   0.090   0.127  -0.268
    1UNL    H11   38   0.294   0.021  -0.293
    1UNL    H12   39   0.228  -0.133  -0.265
    1UNL    H13   40   0.230   0.132   0.187
    1UNL    H14   41   0.526   0.112   0.261
    1UNL    H15   42   0.723   0.025   0.164
    1UNL    H16   43   0.729  -0.057  -0.085
    1UNL    H17   44   0.528  -0.095  -0.190
    1UNL    H18   45   0.025   0.177  -0.022
    1UNL    H19   46   0.047  -0.058   0.163
    1UNL    H20   47  -0.036   0.095   0.190
    1UNL    H21   48  -0.192  -0.108   0.180
    1UNL    H22   49  -0.183   0.128  -0.123
    1UNL    H23   50  -0.420   0.358  -0.243
    1UNL    H24   51  -0.269   0.283  -0.267
    1UNL    H25   52  -0.419   0.178  -0.277
    1UNL    H26   53  -0.541   0.094   0.317
    1UNL    H27   54  -0.641   0.195   0.218
    1UNL    H28   55  -0.525   0.273   0.334
   0.00000   0.00000   0.00000   0.00000   0.00000   0.00000   0.00000   0.00000   0.00000
Generated with MDTraj, t= 82.0
 55
    1UNL     C1    1  -0.049  -0.349   0.102
    1UNL     C2    2  -0.162  -0.304   0.013
    1UNL     C3    3  -0.168  -0.154  -0.023
    1UNL     C4    4  -0.050  -0.130  -0.124
    1UNL     N1    5  -0.009   0.008  -0.139
    1UNL     C5    6   0.086   0.045  -0.254
    1UNL     C6    7   0.223  -0.035  -0.228
    1UNL     C7    8   0.269  -0.016  -0.087
    1UNL     C8    9   0.193   0.043   0.011
    1UNL     N2   10   0.270   0.078   0.117
    1UNL     C9   11   0.406   0.054   0.082
    1UNL    C10   12   0.528   0.082   0.153
    1UNL    C11   13   0.645   0.035   0.092
    1UNL    C12   14   0.645  -0.030  -0.033
    1UNL    C13   15   0.529  -0.049  -0.106
    1UNL    C14   16   0.409  -0.002  -0.047
    1UNL    C15   17   0.049   0.072  -0.012
    1UNL    C16   18  -0.034   0.018   0.112
    1UNL    C17   19  -0.171  -0.051   0.093
    1UNL    C18   20  -0.280   0.053   0.069
    1UNL    C19   21  -0.278   0.124  -0.047
    1UNL     O1   22  -0.383   0.193  -0.109
    1UNL    C20   23  -0.333   0.280  -0.206
    1UNL    C21   24  -0.386   0.072   0.169
    1UNL     O2   25  -0.411  -0.013   0.250
    1UNL     O3   26  -0.450   0.194   0.174
    1UNL    C22   27  -0.553   0.214   0.269
    1UNL     H1   28   0.039  -0.365   0.049
    1UNL     H2   29  -0.081  -0.430   0.168
    1UNL     H3   30  -0.018  -0.267   0.168
    1UNL     H4   31  -0.163  -0.373  -0.073
    1UNL     H5   32  -0.258  -0.327   0.060
    1UNL     H6   33  -0.254  -0.107  -0.072
    1UNL     H7   34  -0.093  -0.157  -0.227
    1UNL     H8   35   0.039  -0.188  -0.097
    1UNL     H9   36   0.051   0.004  -0.345
    1UNL    H10   37   0.103   0.150  -0.249
    1UNL    H11   38   0.299  -0.012  -0.305
    1UNL    H12   39   0.209  -0.139  -0.243
    1UNL    H13   40   0.240   0.113   0.207
    1UNL    H14   41   0.519   0.132   0.244
    1UNL    H15   42   0.740   0.038   0.144
    1UNL    H16   43   0.745  -0.063  -0.061
    1UNL    H17   44   0.530  -0.092  -0.208
    1UNL    H18   45   0.039   0.182  -0.021
    1UNL    H19   46   0.031  -0.059   0.154
    1UNL    H20   47  -0.039   0.095   0.190
    1UNL    H21   48  -0.194  -0.098   0.191
    1UNL    H22   49  -0.195   0.126  -0.115
    1UNL    H23   50  -0.410   0.337  -0.253
    1UNL    H24   51  -0.262   0.343  -0.161
    1UNL    H25   52  -0.285   0.207  -0.273
    1UNL    H26   53  -0.516   0.294   0.330
    1UNL    H27   54  -0.552   0.134   0.332
    1UNL    H28   55  -0.653   0.226   0.224
   0.00000   0.00000   0.00000   0.00000   0.00000   0.00000   0.00000   0.00000   0.00000
Generated with MDTraj, t= 83.0
 55
    1UNL     C1    1  -0.027  -0.322   0.137
    1UNL     C2    2  -0.143  -0.307   0.041
    1UNL     C3    3  -0.164  -0.170  -0.023
    1UNL     C4    4  -0.051  -0.136  -0.123
    1UNL     N1    5  -0.023   0.005  -0.137
    1UNL     C5    6   0.068   0.042  -0.247
    1UNL     C6    7   0.208  -0.020  -0.237
    1UNL     C7    8   0.269   0.018  -0.097
    1UNL     C8    9   0.187   0.054   0.003
    1UNL     N2   10   0.265   0.054   0.122
    1UNL     C9   11   0.399   0.024   0.097
    1UNL    C10   12   0.521   0.046   0.162
    1UNL    C11   13   0.637   0.023   0.095
    1UNL    C12   14   0.640  -0.022  -0.039
    1UNL    C13   15   0.522  -0.029  -0.111
    1UNL    C14   16   0.400  -0.006  -0.045
    1UNL    C15   17   0.036   0.067  -0.003
    1UNL    C16   18  -0.040   0.008   0.117
    1UNL    C17   19  -0.172  -0.056   0.081
    1UNL    C18   20  -0.273   0.052   0.048
    1UNL    C19   21  -0.279   0.124  -0.067
    1UNL     O1   22  -0.372   0.229  -0.092
    1UNL    C20   23  -0.339   0.296  -0.210
    1UNL    C21   24  -0.369   0.074   0.153
    1UNL     O2   25  -0.380  -0.007   0.243
    1UNL     O3   26  -0.455   0.185   0.151
    1UNL    C22   27  -0.537   0.198   0.263
    1UNL     H1   28   0.062  -0.283   0.097
    1UNL     H2   29  -0.019  -0.430   0.166
    1UNL     H3   30  -0.036  -0.271   0.229
    1UNL     H4   31  -0.134  -0.372  -0.047
    1UNL     H5   32  -0.225  -0.355   0.093
    1UNL     H6   33  -0.262  -0.162  -0.073
    1UNL     H7   34  -0.080  -0.179  -0.223
    1UNL     H8   35   0.043  -0.180  -0.084
    1UNL     H9   36   0.021   0.008  -0.334
    1UNL    H10   37   0.075   0.148  -0.240
    1UNL    H11   38   0.277   0.008  -0.320
    1UNL    H12   39   0.211  -0.125  -0.251
    1UNL    H13   40   0.234   0.111   0.205
    1UNL    H14   41   0.513   0.087   0.265
    1UNL    H15   42   0.723   0.036   0.159
    1UNL    H16   43   0.735  -0.026  -0.090
    1UNL    H17   44   0.520  -0.022  -0.216
    1UNL    H18   45   0.024   0.176  -0.007
    1UNL    H19   46   0.026  -0.059   0.172
    1UNL    H20   47  -0.065   0.085   0.192
    1UNL    H21   48  -0.206  -0.109   0.174
    1UNL    H22   49  -0.213   0.100  -0.147
    1UNL    H23   50  -0.436   0.329  -0.243
    1UNL    H24   51  -0.270   0.375  -0.191
    1UNL    H25   52  -0.296   0.219  -0.276
    1UNL    H26   53  -0.632   0.250   0.241
    1UNL    H27   54  -0.491   0.279   0.311
    1UNL    H28   55  -0.536   0.110   0.333
   0.00000   0.00000   0.00000   0.00000   0.00000   0.00000   0.00000   0.00000   0.00000
Generated with MDTraj, t= 84.0
 55
    1UNL     C1    1  -0.036  -0.306   0.158
    1UNL     C2    2  -0.146  -0.309   0.046
    1UNL     C3    3  -0.158  -0.170  -0.021
    1UNL     C4    4  -0.029  -0.144  -0.111
    1UNL     N1    5  -0.013  -0.002  -0.140
    1UNL     C5    6   0.062   0.048  -0.259
    1UNL     C6    7   0.210   0.020  -0.253
    1UNL     C7    8   0.263   0.039  -0.110
    1UNL     C8    9   0.184   0.057   0.006
    1UNL     N2   10   0.258   0.037   0.118
    1UNL     C9   11   0.389   0.013   0.080
    1UNL    C10   12   0.504   0.012   0.156
    1UNL    C11   13   0.625  -0.011   0.106
    1UNL    C12   14   0.642  -0.022  -0.037
    1UNL    C13   15   0.527   0.001  -0.113
    1UNL    C14   16   0.399   0.016  -0.055
    1UNL    C15   17   0.031   0.072  -0.012
    1UNL    C16   18  -0.038   0.020   0.109
    1UNL    C17   19  -0.174  -0.056   0.090
    1UNL    C18   20  -0.283   0.041   0.059
    1UNL    C19   21  -0.283   0.110  -0.061
    1UNL     O1   22  -0.342   0.230  -0.083
    1UNL    C20   23  -0.313   0.277  -0.217
    1UNL    C21   24  -0.375   0.078   0.165
    1UNL     O2   25  -0.361   0.016   0.267
    1UNL     O3   26  -0.474   0.174   0.138
    1UNL    C22   27  -0.552   0.191   0.253
    1UNL     H1   28   0.052  -0.250   0.132
    1UNL     H2   29  -0.010  -0.411   0.181
    1UNL     H3   30  -0.061  -0.263   0.247
    1UNL     H4   31  -0.127  -0.392  -0.022
    1UNL     H5   32  -0.243  -0.338   0.083
    1UNL     H6   33  -0.258  -0.178  -0.070
    1UNL     H7   34  -0.053  -0.188  -0.210
    1UNL     H8   35   0.067  -0.189  -0.075
    1UNL     H9   36   0.014   0.006  -0.342
    1UNL    H10   37   0.039   0.151  -0.263
    1UNL    H11   38   0.272   0.084  -0.319
    1UNL    H12   39   0.243  -0.072  -0.297
    1UNL    H13   40   0.229   0.060   0.220
    1UNL    H14   41   0.486   0.012   0.259
    1UNL    H15   42   0.708  -0.013   0.177
    1UNL    H16   43   0.740  -0.036  -0.078
    1UNL    H17   44   0.544   0.021  -0.218
    1UNL    H18   45   0.011   0.176  -0.035
    1UNL    H19   46   0.031  -0.046   0.157
    1UNL    H20   47  -0.053   0.098   0.186
    1UNL    H21   48  -0.199  -0.116   0.182
    1UNL    H22   49  -0.214   0.083  -0.145
    1UNL    H23   50  -0.346   0.382  -0.211
    1UNL    H24   51  -0.210   0.256  -0.248
    1UNL    H25   52  -0.379   0.220  -0.287
    1UNL    H26   53  -0.625   0.106   0.279
    1UNL    H27   54  -0.618   0.272   0.232
    1UNL    H28   55  -0.485   0.222   0.342
   0.00000   0.00000   0.00000   0.00000   0.00000   0.00000   0.00000   0.00000   0.00000
Generated with MDTraj, t= 85.0
 55
    1UNL     C1    1  -0.040  -0.337   0.142
    1UNL     C2    2  -0.157  -0.299   0.053
    1UNL     C3    3  -0.148  -0.159  -0.007
    1UNL     C4    4  -0.030  -0.143  -0.106
    1UNL     N1    5  -0.013   0.002  -0.127
    1UNL     C5    6   0.060   0.043  -0.249
    1UNL     C6    7   0.215   0.047  -0.249
    1UNL     C7    8   0.268   0.039  -0.103
    1UNL     C8    9   0.186   0.056   0.007
    1UNL     N2   10   0.261   0.044   0.123
    1UNL     C9   11   0.392   0.023   0.087
    1UNL    C10   12   0.510  -0.004   0.161
    1UNL    C11   13   0.624  -0.043   0.089
    1UNL    C12   14   0.624  -0.025  -0.051
    1UNL    C13   15   0.513   0.012  -0.127
    1UNL    C14   16   0.398   0.027  -0.055
    1UNL    C15   17   0.045   0.076   0.001
    1UNL    C16   18  -0.025   0.019   0.119
    1UNL    C17   19  -0.165  -0.041   0.098
    1UNL    C18   20  -0.274   0.059   0.063
    1UNL    C19   21  -0.265   0.123  -0.055
    1UNL     O1   22  -0.357   0.202  -0.108
    1UNL    C20   23  -0.307   0.271  -0.229
    1UNL    C21   24  -0.374   0.085   0.167
    1UNL     O2   25  -0.356   0.040   0.279
    1UNL     O3   26  -0.488   0.153   0.127
    1UNL    C22   27  -0.572   0.177   0.241
    1UNL     H1   28   0.052  -0.342   0.082
    1UNL     H2   29  -0.063  -0.435   0.183
    1UNL     H3   30  -0.014  -0.269   0.218
    1UNL     H4   31  -0.180  -0.370  -0.024
    1UNL     H5   32  -0.244  -0.291   0.114
    1UNL     H6   33  -0.237  -0.144  -0.076
    1UNL     H7   34  -0.025  -0.196  -0.204
    1UNL     H8   35   0.069  -0.173  -0.060
    1UNL     H9   36   0.026  -0.013  -0.329
    1UNL    H10   37   0.010   0.136  -0.256
    1UNL    H11   38   0.263   0.132  -0.303
    1UNL    H12   39   0.257  -0.032  -0.307
    1UNL    H13   40   0.215   0.027   0.220
    1UNL    H14   41   0.498  -0.023   0.268
    1UNL    H15   42   0.708  -0.090   0.135
    1UNL    H16   43   0.724  -0.039  -0.092
    1UNL    H17   44   0.508   0.019  -0.235
    1UNL    H18   45   0.030   0.180  -0.022
    1UNL    H19   46   0.045  -0.052   0.160
    1UNL    H20   47  -0.035   0.091   0.202
    1UNL    H21   48  -0.196  -0.091   0.195
    1UNL    H22   49  -0.187   0.107  -0.121
    1UNL    H23   50  -0.395   0.326  -0.272
    1UNL    H24   51  -0.221   0.337  -0.203
    1UNL    H25   52  -0.260   0.201  -0.304
    1UNL    H26   53  -0.541   0.130   0.344
    1UNL    H27   54  -0.670   0.134   0.228
    1UNL    H28   55  -0.593   0.289   0.257
   0.00000   0.00000   0.00000   0.00000   0.00000   0.00000   0.00000   0.00000   0.00000
Generated with MDTraj, t= 86.0
 55
    1UNL     C1    1  -0.047  -0.352   0.137
    1UNL     C2    2  -0.161  -0.302   0.045
    1UNL     C3    3  -0.145  -0.155  -0.012
    1UNL     C4    4  -0.027  -0.124  -0.100
    1UNL     N1    5  -0.007   0.022  -0.118
    1UNL     C5    6   0.059   0.078  -0.245
    1UNL     C6    7   0.207   0.031  -0.235
    1UNL     C7    8   0.262   0.027  -0.091
    1UNL     C8    9   0.201   0.051   0.028
    1UNL     N2   10   0.285   0.058   0.138
    1UNL     C9   11   0.412   0.026   0.084
    1UNL    C10   12   0.532  -0.005   0.147
    1UNL    C11   13   0.642  -0.039   0.075
    1UNL    C12   14   0.633  -0.039  -0.067
    1UNL    C13   15   0.517  -0.016  -0.131
    1UNL    C14   16   0.403   0.019  -0.057
    1UNL    C15   17   0.050   0.074   0.020
    1UNL    C16   18  -0.026   0.020   0.144
    1UNL    C17   19  -0.165  -0.044   0.099
    1UNL    C18   20  -0.273   0.063   0.062
    1UNL    C19   21  -0.273   0.119  -0.061
    1UNL     O1   22  -0.366   0.211  -0.102
    1UNL    C20   23  -0.342   0.255  -0.236
    1UNL    C21   24  -0.382   0.092   0.162
    1UNL     O2   25  -0.373   0.051   0.277
    1UNL     O3   26  -0.490   0.155   0.117
    1UNL    C22   27  -0.587   0.162   0.220
    1UNL     H1   28   0.039  -0.358   0.069
    1UNL     H2   29  -0.073  -0.447   0.174
    1UNL     H3   30  -0.007  -0.286   0.217
    1UNL     H4   31  -0.170  -0.361  -0.043
    1UNL     H5   32  -0.253  -0.299   0.098
    1UNL     H6   33  -0.228  -0.132  -0.087
    1UNL     H7   34  -0.045  -0.155  -0.204
    1UNL     H8   35   0.081  -0.160  -0.086
    1UNL     H9   36   0.005   0.024  -0.317
    1UNL    H10   37   0.051   0.182  -0.256
    1UNL    H11   38   0.258   0.111  -0.294
    1UNL    H12   39   0.222  -0.056  -0.294
    1UNL    H13   40   0.271   0.093   0.240
    1UNL    H14   41   0.528  -0.010   0.255
    1UNL    H15   42   0.731  -0.073   0.128
    1UNL    H16   43   0.714  -0.059  -0.135
    1UNL    H17   44   0.515  -0.031  -0.236
    1UNL    H18   45   0.043   0.182   0.015
    1UNL    H19   46   0.032  -0.053   0.198
    1UNL    H20   47  -0.033   0.102   0.217
    1UNL    H21   48  -0.200  -0.103   0.189
    1UNL    H22   49  -0.188   0.097  -0.130
    1UNL    H23   50  -0.403   0.194  -0.308
    1UNL    H24   51  -0.380   0.359  -0.228
    1UNL    H25   52  -0.236   0.271  -0.269
    1UNL    H26   53  -0.574   0.238   0.305
    1UNL    H27   54  -0.595   0.072   0.276
    1UNL    H28   55  -0.692   0.172   0.181
   0.00000   0.00000   0.00000   0.00000   0.00000   0.00000   0.00000   0.00000   0.00000
Generated with MDTraj, t= 87.0
 55
    1UNL     C1    1  -0.049  -0.316   0.141
    1UNL     C2    2  -0.146  -0.277   0.034
    1UNL     C3    3  -0.154  -0.131  -0.023
    1UNL     C4    4  -0.051  -0.100  -0.126
    1UNL     N1    5  -0.012   0.041  -0.116
    1UNL     C5    6   0.067   0.081  -0.235
    1UNL     C6    7   0.207   0.013  -0.234
    1UNL     C7    8   0.272   0.007  -0.095
    1UNL     C8    9   0.195   0.039   0.021
    1UNL     N2   10   0.289   0.046   0.124
    1UNL     C9   11   0.415   0.009   0.087
    1UNL    C10   12   0.538   0.003   0.152
    1UNL    C11   13   0.649  -0.014   0.074
    1UNL    C12   14   0.649  -0.039  -0.060
    1UNL    C13   15   0.524  -0.051  -0.122
    1UNL    C14   16   0.408  -0.011  -0.054
    1UNL    C15   17   0.054   0.077   0.020
    1UNL    C16   18  -0.025   0.025   0.140
    1UNL    C17   19  -0.161  -0.033   0.095
    1UNL    C18   20  -0.274   0.069   0.070
    1UNL    C19   21  -0.272   0.135  -0.048
    1UNL     O1   22  -0.362   0.214  -0.100
    1UNL    C20   23  -0.358   0.237  -0.240
    1UNL    C21   24  -0.388   0.074   0.168
    1UNL     O2   25  -0.382   0.027   0.280
    1UNL     O3   26  -0.496   0.144   0.122
    1UNL    C22   27  -0.589   0.159   0.222
    1UNL     H1   28   0.047  -0.277   0.108
    1UNL     H2   29  -0.044  -0.419   0.148
    1UNL     H3   30  -0.059  -0.265   0.243
    1UNL     H4   31  -0.134  -0.346  -0.046
    1UNL     H5   32  -0.245  -0.276   0.072
    1UNL     H6   33  -0.257  -0.119  -0.075
    1UNL     H7   34  -0.062  -0.131  -0.230
    1UNL     H8   35   0.051  -0.143  -0.098
    1UNL     H9   36   0.014   0.040  -0.317
    1UNL    H10   37   0.067   0.187  -0.232
    1UNL    H11   38   0.269   0.083  -0.295
    1UNL    H12   39   0.202  -0.077  -0.292
    1UNL    H13   40   0.258   0.078   0.219
    1UNL    H14   41   0.542   0.028   0.255
    1UNL    H15   42   0.742  -0.007   0.123
    1UNL    H16   43   0.738  -0.051  -0.120
    1UNL    H17   44   0.511  -0.063  -0.232
    1UNL    H18   45   0.049   0.185   0.032
    1UNL    H19   46   0.048  -0.044   0.181
    1UNL    H20   47  -0.042   0.102   0.216
    1UNL    H21   48  -0.195  -0.095   0.184
    1UNL    H22   49  -0.183   0.122  -0.102
    1UNL    H23   50  -0.279   0.174  -0.285
    1UNL    H24   51  -0.457   0.222  -0.283
    1UNL    H25   52  -0.333   0.341  -0.259
    1UNL    H26   53  -0.637   0.259   0.218
    1UNL    H27   54  -0.559   0.150   0.321
    1UNL    H28   55  -0.664   0.080   0.216
   0.00000   0.00000   0.00000   0.00000   0.00000   0.00000   0.00000   0.00000   0.00000
Generated with MDTraj, t= 88.0
 55
    1UNL     C1    1  -0.016  -0.292   0.134
    1UNL     C2    2  -0.148  -0.276   0.047
    1UNL     C3    3  -0.155  -0.133  -0.023
    1UNL     C4    4  -0.034  -0.114  -0.118
    1UNL     N1    5  -0.008   0.031  -0.131
    1UNL     C5    6   0.071   0.059  -0.261
    1UNL     C6    7   0.212  -0.001  -0.235
    1UNL     C7    8   0.268   0.009  -0.097
    1UNL     C8    9   0.199   0.037   0.014
    1UNL     N2   10   0.283   0.036   0.122
    1UNL     C9   11   0.415   0.011   0.086
    1UNL    C10   12   0.533   0.003   0.161
    1UNL    C11   13   0.649  -0.020   0.094
    1UNL    C12   14   0.644  -0.046  -0.044
    1UNL    C13   15   0.528  -0.050  -0.121
    1UNL    C14   16   0.408  -0.010  -0.051
    1UNL    C15   17   0.054   0.089   0.007
    1UNL    C16   18  -0.032   0.048   0.124
    1UNL    C17   19  -0.167  -0.021   0.092
    1UNL    C18   20  -0.280   0.073   0.068
    1UNL    C19   21  -0.281   0.143  -0.048
    1UNL     O1   22  -0.385   0.220  -0.104
    1UNL    C20   23  -0.368   0.270  -0.236
    1UNL    C21   24  -0.390   0.075   0.167
    1UNL     O2   25  -0.376  -0.006   0.256
    1UNL     O3   26  -0.491   0.164   0.152
    1UNL    C22   27  -0.592   0.140   0.241
    1UNL     H1   28   0.061  -0.249   0.073
    1UNL     H2   29   0.009  -0.391   0.159
    1UNL     H3   30  -0.005  -0.224   0.224
    1UNL     H4   31  -0.160  -0.346  -0.033
    1UNL     H5   32  -0.226  -0.290   0.115
    1UNL     H6   33  -0.254  -0.147  -0.085
    1UNL     H7   34  -0.063  -0.143  -0.220
    1UNL     H8   35   0.056  -0.180  -0.095
    1UNL     H9   36   0.027   0.016  -0.349
    1UNL    H10   37   0.077   0.163  -0.270
    1UNL    H11   38   0.282   0.030  -0.313
    1UNL    H12   39   0.204  -0.108  -0.245
    1UNL    H13   40   0.246   0.034   0.218
    1UNL    H14   41   0.538   0.019   0.271
    1UNL    H15   42   0.750  -0.033   0.140
    1UNL    H16   43   0.740  -0.053  -0.089
    1UNL    H17   44   0.531  -0.068  -0.224
    1UNL    H18   45   0.041   0.199  -0.004
    1UNL    H19   46   0.033  -0.019   0.177
    1UNL    H20   47  -0.038   0.136   0.188
    1UNL    H21   48  -0.196  -0.089   0.178
    1UNL    H22   49  -0.194   0.126  -0.111
    1UNL    H23   50  -0.306   0.200  -0.293
    1UNL    H24   51  -0.460   0.300  -0.283
    1UNL    H25   52  -0.305   0.353  -0.233
    1UNL    H26   53  -0.689   0.127   0.192
    1UNL    H27   54  -0.617   0.222   0.301
    1UNL    H28   55  -0.568   0.068   0.315
   0.00000   0.00000   0.00000   0.00000   0.00000   0.00000   0.00000   0.00000   0.00000
Generated with MDTraj, t= 89.0
 55
    1UNL     C1    1  -0.007  -0.296   0.154
    1UNL     C2    2  -0.129  -0.278   0.069
    1UNL     C3    3  -0.144  -0.148  -0.013
    1UNL     C4    4  -0.026  -0.123  -0.117
    1UNL     N1    5  -0.004   0.023  -0.151
    1UNL     C5    6   0.079   0.056  -0.266
    1UNL     C6    7   0.217   0.005  -0.250
    1UNL     C7    8   0.283   0.025  -0.113
    1UNL     C8    9   0.195   0.056  -0.011
    1UNL     N2   10   0.261   0.060   0.113
    1UNL     C9   11   0.394   0.019   0.089
    1UNL    C10   12   0.510   0.005   0.170
    1UNL    C11   13   0.623  -0.038   0.109
    1UNL    C12   14   0.634  -0.070  -0.029
    1UNL    C13   15   0.531  -0.050  -0.112
    1UNL    C14   16   0.409  -0.005  -0.057
    1UNL    C15   17   0.049   0.093  -0.025
    1UNL    C16   18  -0.031   0.064   0.099
    1UNL    C17   19  -0.156  -0.022   0.084
    1UNL    C18   20  -0.278   0.058   0.056
    1UNL    C19   21  -0.278   0.137  -0.050
    1UNL     O1   22  -0.383   0.217  -0.084
    1UNL    C20   23  -0.363   0.301  -0.192
    1UNL    C21   24  -0.392   0.057   0.154
    1UNL     O2   25  -0.395  -0.028   0.243
    1UNL     O3   26  -0.481   0.164   0.152
    1UNL    C22   27  -0.578   0.156   0.253
    1UNL     H1   28   0.079  -0.282   0.094
    1UNL     H2   29  -0.005  -0.390   0.210
    1UNL     H3   30   0.009  -0.213   0.224
    1UNL     H4   31  -0.137  -0.366   0.010
    1UNL     H5   32  -0.215  -0.284   0.131
    1UNL     H6   33  -0.246  -0.163  -0.068
    1UNL     H7   34  -0.047  -0.194  -0.198
    1UNL     H8   35   0.069  -0.160  -0.067
    1UNL     H9   36   0.025   0.003  -0.342
    1UNL    H10   37   0.073   0.159  -0.282
    1UNL    H11   38   0.290   0.051  -0.317
    1UNL    H12   39   0.219  -0.099  -0.275
    1UNL    H13   40   0.228   0.091   0.201
    1UNL    H14   41   0.510  -0.006   0.275
    1UNL    H15   42   0.703  -0.060   0.174
    1UNL    H16   43   0.727  -0.111  -0.072
    1UNL    H17   44   0.538  -0.070  -0.220
    1UNL    H18   45   0.051   0.204  -0.040
    1UNL    H19   46   0.041   0.014   0.163
    1UNL    H20   47  -0.060   0.154   0.154
    1UNL    H21   48  -0.178  -0.070   0.184
    1UNL    H22   49  -0.186   0.133  -0.112
    1UNL    H23   50  -0.422   0.269  -0.278
    1UNL    H24   51  -0.396   0.397  -0.158
    1UNL    H25   52  -0.266   0.307  -0.231
    1UNL    H26   53  -0.611   0.054   0.281
    1UNL    H27   54  -0.670   0.201   0.229
    1UNL    H28   55  -0.541   0.211   0.336
   0.00000   0.00000   0.00000   0.00000   0.00000   0.00000   0.00000   0.00000   0.00000
Generated with MDTraj, t= 90.0
 55
    1UNL     C1    1  -0.005  -0.295   0.173
    1UNL     C2    2  -0.116  -0.290   0.068
    1UNL     C3    3  -0.139  -0.161  -0.010
    1UNL     C4    4  -0.017  -0.129  -0.110
    1UNL     N1    5  -0.007   0.013  -0.151
    1UNL     C5    6   0.072   0.046  -0.275
    1UNL     C6    7   0.228   0.006  -0.250
    1UNL     C7    8   0.268   0.029  -0.112
    1UNL     C8    9   0.191   0.095  -0.014
    1UNL     N2   10   0.266   0.096   0.100
    1UNL     C9   11   0.389   0.036   0.082
    1UNL    C10   12   0.501   0.012   0.167
    1UNL    C11   13   0.607  -0.058   0.109
    1UNL    C12   14   0.609  -0.093  -0.023
    1UNL    C13   15   0.509  -0.058  -0.105
    1UNL    C14   16   0.394   0.000  -0.049
    1UNL    C15   17   0.032   0.100  -0.033
    1UNL    C16   18  -0.028   0.057   0.099
    1UNL    C17   19  -0.155  -0.036   0.084
    1UNL    C18   20  -0.276   0.053   0.045
    1UNL    C19   21  -0.273   0.144  -0.055
    1UNL     O1   22  -0.369   0.227  -0.084
    1UNL    C20   23  -0.337   0.321  -0.183
    1UNL    C21   24  -0.389   0.053   0.146
    1UNL     O2   25  -0.383  -0.033   0.231
    1UNL     O3   26  -0.484   0.152   0.152
    1UNL    C22   27  -0.563   0.146   0.266
    1UNL     H1   28   0.084  -0.251   0.136
    1UNL     H2   29   0.015  -0.394   0.222
    1UNL     H3   30  -0.020  -0.224   0.251
    1UNL     H4   31  -0.107  -0.375   0.004
    1UNL     H5   32  -0.207  -0.310   0.119
    1UNL     H6   33  -0.231  -0.154  -0.080
    1UNL     H7   34  -0.036  -0.185  -0.202
    1UNL     H8   35   0.074  -0.175  -0.063
    1UNL     H9   36   0.027  -0.002  -0.357
    1UNL    H10   37   0.048   0.149  -0.278
    1UNL    H11   38   0.292   0.059  -0.319
    1UNL    H12   39   0.257  -0.099  -0.261
    1UNL    H13   40   0.249   0.132   0.189
    1UNL    H14   41   0.478   0.032   0.273
    1UNL    H15   42   0.691  -0.093   0.171
    1UNL    H16   43   0.694  -0.146  -0.059
    1UNL    H17   44   0.510  -0.081  -0.210
    1UNL    H18   45   0.011   0.207  -0.055
    1UNL    H19   46   0.039   0.002   0.164
    1UNL    H20   47  -0.058   0.142   0.159
    1UNL    H21   48  -0.182  -0.064   0.188
    1UNL    H22   49  -0.193   0.147  -0.120
    1UNL    H23   50  -0.378   0.292  -0.282
    1UNL    H24   51  -0.386   0.414  -0.152
    1UNL    H25   52  -0.234   0.340  -0.196
    1UNL    H26   53  -0.508   0.108   0.356
    1UNL    H27   54  -0.651   0.081   0.254
    1UNL    H28   55  -0.610   0.242   0.295
   0.00000   0.00000   0.00000   0.00000   0.00000   0.00000   0.00000   0.00000   0.00000
Generated with MDTraj, t= 91.0
 55
    1UNL     C1    1  -0.007  -0.283   0.155
    1UNL     C2    2  -0.124  -0.284   0.056
    1UNL     C3    3  -0.145  -0.153  -0.011
    1UNL     C4    4  -0.029  -0.119  -0.114
    1UNL     N1    5  -0.014   0.024  -0.149
    1UNL     C5    6   0.066   0.049  -0.266
    1UNL     C6    7   0.209   0.002  -0.254
    1UNL     C7    8   0.261   0.029  -0.118
    1UNL     C8    9   0.189   0.082  -0.015
    1UNL     N2   10   0.264   0.101   0.101
    1UNL     C9   11   0.387   0.041   0.077
    1UNL    C10   12   0.504   0.029   0.160
    1UNL    C11   13   0.607  -0.058   0.118
    1UNL    C12   14   0.618  -0.103  -0.016
    1UNL    C13   15   0.512  -0.069  -0.103
    1UNL    C14   16   0.385  -0.007  -0.065
    1UNL    C15   17   0.040   0.099  -0.024
    1UNL    C16   18  -0.028   0.050   0.106
    1UNL    C17   19  -0.156  -0.037   0.091
    1UNL    C18   20  -0.267   0.061   0.069
    1UNL    C19   21  -0.261   0.143  -0.039
    1UNL     O1   22  -0.361   0.224  -0.091
    1UNL    C20   23  -0.306   0.311  -0.195
    1UNL    C21   24  -0.379   0.055   0.165
    1UNL     O2   25  -0.375  -0.037   0.244
    1UNL     O3   26  -0.485   0.147   0.153
    1UNL    C22   27  -0.586   0.135   0.248
    1UNL     H1   28   0.078  -0.244   0.104
    1UNL     H2   29   0.011  -0.384   0.204
    1UNL     H3   30  -0.015  -0.210   0.227
    1UNL     H4   31  -0.110  -0.359  -0.020
    1UNL     H5   32  -0.207  -0.321   0.112
    1UNL     H6   33  -0.235  -0.158  -0.082
    1UNL     H7   34  -0.035  -0.192  -0.197
    1UNL     H8   35   0.067  -0.148  -0.066
    1UNL     H9   36   0.010   0.002  -0.342
    1UNL    H10   37   0.062   0.154  -0.271
    1UNL    H11   38   0.278   0.054  -0.318
    1UNL    H12   39   0.212  -0.104  -0.278
    1UNL    H13   40   0.232   0.144   0.181
    1UNL    H14   41   0.529   0.088   0.245
    1UNL    H15   42   0.682  -0.077   0.190
    1UNL    H16   43   0.717  -0.134  -0.052
    1UNL    H17   44   0.528  -0.080  -0.207
    1UNL    H18   45   0.018   0.207  -0.042
    1UNL    H19   46   0.038  -0.012   0.167
    1UNL    H20   47  -0.053   0.132   0.172
    1UNL    H21   48  -0.183  -0.066   0.193
    1UNL    H22   49  -0.175   0.131  -0.109
    1UNL    H23   50  -0.242   0.256  -0.272
    1UNL    H24   51  -0.389   0.360  -0.254
    1UNL    H25   52  -0.250   0.391  -0.153
    1UNL    H26   53  -0.584   0.208   0.334
    1UNL    H27   54  -0.597   0.027   0.280
    1UNL    H28   55  -0.691   0.145   0.204
   0.00000   0.00000   0.00000   0.00000   0.00000   0.00000   0.00000   0.00000   0.00000
Generated with MDTraj, t= 92.0
 55
    1UNL     C1    1  -0.001  -0.303   0.122
    1UNL     C2    2  -0.139  -0.273   0.057
    1UNL     C3    3  -0.149  -0.137  -0.003
    1UNL     C4    4  -0.036  -0.114  -0.104
    1UNL     N1    5  -0.019   0.029  -0.130
    1UNL     C5    6   0.065   0.051  -0.252
    1UNL     C6    7   0.215  -0.013  -0.238
    1UNL     C7    8   0.272   0.009  -0.104
    1UNL     C8    9   0.201   0.066  -0.003
    1UNL     N2   10   0.277   0.073   0.116
    1UNL     C9   11   0.405   0.025   0.077
    1UNL    C10   12   0.523   0.021   0.151
    1UNL    C11   13   0.636  -0.037   0.100
    1UNL    C12   14   0.630  -0.082  -0.036
    1UNL    C13   15   0.519  -0.062  -0.115
    1UNL    C14   16   0.404  -0.000  -0.057
    1UNL    C15   17   0.042   0.098  -0.015
    1UNL    C16   18  -0.029   0.055   0.114
    1UNL    C17   19  -0.161  -0.024   0.099
    1UNL    C18   20  -0.276   0.067   0.070
    1UNL    C19   21  -0.270   0.149  -0.036
    1UNL     O1   22  -0.366   0.231  -0.080
    1UNL    C20   23  -0.339   0.292  -0.205
    1UNL    C21   24  -0.387   0.061   0.162
    1UNL     O2   25  -0.378  -0.008   0.263
    1UNL     O3   26  -0.501   0.131   0.125
    1UNL    C22   27  -0.600   0.131   0.218
    1UNL     H1   28   0.078  -0.300   0.049
    1UNL     H2   29   0.004  -0.400   0.175
    1UNL     H3   30   0.036  -0.225   0.183
    1UNL     H4   31  -0.156  -0.358  -0.010
    1UNL     H5   32  -0.225  -0.282   0.122
    1UNL     H6   33  -0.248  -0.150  -0.058
    1UNL     H7   34  -0.060  -0.157  -0.203
    1UNL     H8   35   0.058  -0.166  -0.078
    1UNL     H9   36   0.011   0.016  -0.333
    1UNL    H10   37   0.076   0.157  -0.251
    1UNL    H11   38   0.271   0.036  -0.315
    1UNL    H12   39   0.217  -0.121  -0.259
    1UNL    H13   40   0.256   0.117   0.201
    1UNL    H14   41   0.531   0.068   0.249
    1UNL    H15   42   0.730  -0.046   0.156
    1UNL    H16   43   0.709  -0.142  -0.076
    1UNL    H17   44   0.528  -0.094  -0.220
    1UNL    H18   45   0.020   0.206  -0.030
    1UNL    H19   46   0.045  -0.010   0.164
    1UNL    H20   47  -0.047   0.139   0.178
    1UNL    H21   48  -0.177  -0.070   0.196
    1UNL    H22   49  -0.180   0.154  -0.091
    1UNL    H23   50  -0.367   0.216  -0.286
    1UNL    H24   51  -0.406   0.383  -0.216
    1UNL    H25   52  -0.237   0.326  -0.208
    1UNL    H26   53  -0.574   0.170   0.319
    1UNL    H27   54  -0.663   0.039   0.202
    1UNL    H28   55  -0.672   0.210   0.177
   0.00000   0.00000   0.00000   0.00000   0.00000   0.00000   0.00000   0.00000   0.00000
Generated with MDTraj, t= 93.0
 55
    1UNL     C1    1  -0.024  -0.321   0.134
    1UNL     C2    2  -0.152  -0.284   0.065
    1UNL     C3    3  -0.151  -0.145   0.000
    1UNL     C4    4  -0.044  -0.114  -0.109
    1UNL     N1    5  -0.005   0.033  -0.123
    1UNL     C5    6   0.078   0.061  -0.246
    1UNL     C6    7   0.215  -0.004  -0.236
    1UNL     C7    8   0.280   0.010  -0.098
    1UNL     C8    9   0.202   0.046   0.016
    1UNL     N2   10   0.292   0.047   0.133
    1UNL     C9   11   0.417   0.010   0.086
    1UNL    C10   12   0.546   0.007   0.151
    1UNL    C11   13   0.659  -0.017   0.072
    1UNL    C12   14   0.650  -0.045  -0.064
    1UNL    C13   15   0.525  -0.052  -0.122
    1UNL    C14   16   0.409  -0.017  -0.053
    1UNL    C15   17   0.057   0.081   0.000
    1UNL    C16   18  -0.028   0.040   0.125
    1UNL    C17   19  -0.164  -0.025   0.100
    1UNL    C18   20  -0.277   0.073   0.061
    1UNL    C19   21  -0.277   0.154  -0.049
    1UNL     O1   22  -0.370   0.247  -0.083
    1UNL    C20   23  -0.375   0.284  -0.216
    1UNL    C21   24  -0.392   0.087   0.158
    1UNL     O2   25  -0.378   0.034   0.267
    1UNL     O3   26  -0.511   0.138   0.116
    1UNL    C22   27  -0.624   0.110   0.207
    1UNL     H1   28   0.061  -0.306   0.069
    1UNL     H2   29  -0.019  -0.418   0.176
    1UNL     H3   30   0.007  -0.248   0.213
    1UNL     H4   31  -0.185  -0.355  -0.012
    1UNL     H5   32  -0.230  -0.297   0.142
    1UNL     H6   33  -0.250  -0.160  -0.049
    1UNL     H7   34  -0.056  -0.160  -0.210
    1UNL     H8   35   0.052  -0.160  -0.081
    1UNL     H9   36   0.025   0.023  -0.327
    1UNL    H10   37   0.091   0.166  -0.250
    1UNL    H11   38   0.278   0.046  -0.305
    1UNL    H12   39   0.205  -0.109  -0.269
    1UNL    H13   40   0.273   0.083   0.227
    1UNL    H14   41   0.545   0.017   0.258
    1UNL    H15   42   0.755  -0.036   0.113
    1UNL    H16   43   0.741  -0.070  -0.118
    1UNL    H17   44   0.507  -0.074  -0.223
    1UNL    H18   45   0.044   0.190  -0.000
    1UNL    H19   46   0.032  -0.035   0.181
    1UNL    H20   47  -0.039   0.132   0.180
    1UNL    H21   48  -0.186  -0.064   0.199
    1UNL    H22   49  -0.199   0.137  -0.120
    1UNL    H23   50  -0.400   0.190  -0.276
    1UNL    H24   51  -0.459   0.356  -0.229
    1UNL    H25   52  -0.282   0.335  -0.233
    1UNL    H26   53  -0.598   0.094   0.312
    1UNL    H27   54  -0.679   0.021   0.174
    1UNL    H28   55  -0.703   0.188   0.194
   0.00000   0.00000   0.00000   0.00000   0.00000   0.00000   0.00000   0.00000   0.00000
Generated with MDTraj, t= 94.0
 55
    1UNL     C1    1  -0.068  -0.306   0.171
    1UNL     C2    2  -0.167  -0.269   0.051
    1UNL     C3    3  -0.167  -0.130  -0.011
    1UNL     C4    4  -0.049  -0.109  -0.112
    1UNL     N1    5  -0.009   0.035  -0.121
    1UNL     C5    6   0.073   0.067  -0.249
    1UNL     C6    7   0.214   0.013  -0.241
    1UNL     C7    8   0.269   0.010  -0.103
    1UNL     C8    9   0.203   0.024   0.011
    1UNL     N2   10   0.281   0.028   0.123
    1UNL     C9   11   0.414   0.010   0.082
    1UNL    C10   12   0.538  -0.001   0.154
    1UNL    C11   13   0.652  -0.009   0.077
    1UNL    C12   14   0.644  -0.023  -0.067
    1UNL    C13   15   0.527  -0.028  -0.130
    1UNL    C14   16   0.407  -0.007  -0.060
    1UNL    C15   17   0.060   0.079   0.004
    1UNL    C16   18  -0.017   0.026   0.131
    1UNL    C17   19  -0.162  -0.028   0.104
    1UNL    C18   20  -0.266   0.077   0.076
    1UNL    C19   21  -0.258   0.144  -0.041
    1UNL     O1   22  -0.360   0.220  -0.092
    1UNL    C20   23  -0.333   0.265  -0.225
    1UNL    C21   24  -0.388   0.078   0.166
    1UNL     O2   25  -0.376   0.031   0.278
    1UNL     O3   26  -0.503   0.123   0.110
    1UNL    C22   27  -0.613   0.123   0.208
    1UNL     H1   28   0.032  -0.285   0.134
    1UNL     H2   29  -0.080  -0.403   0.202
    1UNL     H3   30  -0.082  -0.232   0.257
    1UNL     H4   31  -0.149  -0.339  -0.034
    1UNL     H5   32  -0.271  -0.294   0.082
    1UNL     H6   33  -0.259  -0.113  -0.067
    1UNL     H7   34  -0.077  -0.142  -0.216
    1UNL     H8   35   0.038  -0.174  -0.091
    1UNL     H9   36   0.020   0.043  -0.335
    1UNL    H10   37   0.096   0.170  -0.238
    1UNL    H11   38   0.274   0.065  -0.312
    1UNL    H12   39   0.215  -0.091  -0.278
    1UNL    H13   40   0.268   0.021   0.228
    1UNL    H14   41   0.535  -0.022   0.258
    1UNL    H15   42   0.749  -0.017   0.126
    1UNL    H16   43   0.730  -0.018  -0.132
    1UNL    H17   44   0.528  -0.038  -0.241
    1UNL    H18   45   0.057   0.189   0.003
    1UNL    H19   46   0.049  -0.053   0.173
    1UNL    H20   47  -0.031   0.106   0.203
    1UNL    H21   48  -0.192  -0.065   0.201
    1UNL    H22   49  -0.158   0.131  -0.087
    1UNL    H23   50  -0.314   0.174  -0.284
    1UNL    H24   51  -0.418   0.317  -0.269
    1UNL    H25   52  -0.252   0.332  -0.209
    1UNL    H26   53  -0.621   0.212   0.270
    1UNL    H27   54  -0.595   0.056   0.289
    1UNL    H28   55  -0.704   0.089   0.157
   0.00000   0.00000   0.00000   0.00000   0.00000   0.00000   0.00000   0.00000   0.00000
Generated with MDTraj, t= 95.0
 55
    1UNL     C1    1  -0.073  -0.327   0.159
    1UNL     C2    2  -0.169  -0.287   0.051
    1UNL     C3    3  -0.150  -0.150  -0.007
    1UNL     C4    4  -0.026  -0.133  -0.092
    1UNL     N1    5  -0.008   0.009  -0.115
    1UNL     C5    6   0.053   0.047  -0.250
    1UNL     C6    7   0.208   0.028  -0.238
    1UNL     C7    8   0.269   0.025  -0.100
    1UNL     C8    9   0.190   0.041   0.014
    1UNL     N2   10   0.281   0.043   0.124
    1UNL     C9   11   0.410   0.025   0.079
    1UNL    C10   12   0.530  -0.008   0.146
    1UNL    C11   13   0.646  -0.028   0.073
    1UNL    C12   14   0.645  -0.029  -0.066
    1UNL    C13   15   0.525  -0.006  -0.137
    1UNL    C14   16   0.408   0.023  -0.065
    1UNL    C15   17   0.040   0.076   0.008
    1UNL    C16   18  -0.034   0.031   0.139
    1UNL    C17   19  -0.163  -0.042   0.102
    1UNL    C18   20  -0.274   0.068   0.066
    1UNL    C19   21  -0.266   0.129  -0.051
    1UNL     O1   22  -0.344   0.229  -0.100
    1UNL    C20   23  -0.299   0.283  -0.229
    1UNL    C21   24  -0.388   0.084   0.160
    1UNL     O2   25  -0.375   0.028   0.266
    1UNL     O3   26  -0.501   0.148   0.124
    1UNL    C22   27  -0.598   0.135   0.224
    1UNL     H1   28   0.025  -0.286   0.134
    1UNL     H2   29  -0.071  -0.429   0.175
    1UNL     H3   30  -0.101  -0.275   0.253
    1UNL     H4   31  -0.168  -0.372  -0.022
    1UNL     H5   32  -0.278  -0.282   0.084
    1UNL     H6   33  -0.231  -0.131  -0.075
    1UNL     H7   34  -0.014  -0.198  -0.183
    1UNL     H8   35   0.058  -0.164  -0.027
    1UNL     H9   36   0.010  -0.009  -0.325
    1UNL    H10   37   0.022   0.147  -0.258
    1UNL    H11   38   0.268   0.100  -0.287
    1UNL    H12   39   0.245  -0.062  -0.291
    1UNL    H13   40   0.257   0.043   0.229
    1UNL    H14   41   0.529  -0.030   0.254
    1UNL    H15   42   0.735  -0.034   0.133
    1UNL    H16   43   0.739  -0.043  -0.118
    1UNL    H17   44   0.522  -0.001  -0.241
    1UNL    H18   45   0.018   0.181  -0.014
    1UNL    H19   46   0.027  -0.046   0.190
    1UNL    H20   47  -0.037   0.117   0.205
    1UNL    H21   48  -0.205  -0.092   0.189
    1UNL    H22   49  -0.188   0.097  -0.112
    1UNL    H23   50  -0.308   0.201  -0.298
    1UNL    H24   51  -0.359   0.365  -0.264
    1UNL    H25   52  -0.202   0.318  -0.208
    1UNL    H26   53  -0.674   0.209   0.209
    1UNL    H27   54  -0.563   0.165   0.320
    1UNL    H28   55  -0.632   0.031   0.212
   0.00000   0.00000   0.00000   0.00000   0.00000   0.00000   0.00000   0.00000   0.00000
Generated with MDTraj, t= 96.0
 55
    1UNL     C1    1  -0.048  -0.350   0.151
    1UNL     C2    2  -0.172  -0.304   0.071
    1UNL     C3    3  -0.155  -0.165  -0.005
    1UNL     C4    4  -0.030  -0.153  -0.098
    1UNL     N1    5  -0.010  -0.006  -0.126
    1UNL     C5    6   0.055   0.034  -0.259
    1UNL     C6    7   0.209   0.052  -0.243
    1UNL     C7    8   0.265   0.054  -0.109
    1UNL     C8    9   0.193   0.064   0.006
    1UNL     N2   10   0.270   0.066   0.122
    1UNL     C9   11   0.401   0.037   0.083
    1UNL    C10   12   0.516   0.007   0.159
    1UNL    C11   13   0.625  -0.034   0.083
    1UNL    C12   14   0.633  -0.035  -0.059
    1UNL    C13   15   0.518  -0.011  -0.134
    1UNL    C14   16   0.401   0.027  -0.058
    1UNL    C15   17   0.037   0.063  -0.002
    1UNL    C16   18  -0.027   0.010   0.131
    1UNL    C17   19  -0.164  -0.051   0.101
    1UNL    C18   20  -0.270   0.050   0.062
    1UNL    C19   21  -0.264   0.125  -0.052
    1UNL     O1   22  -0.344   0.229  -0.087
    1UNL    C20   23  -0.301   0.297  -0.201
    1UNL    C21   24  -0.379   0.069   0.155
    1UNL     O2   25  -0.386   0.011   0.260
    1UNL     O3   26  -0.474   0.162   0.119
    1UNL    C22   27  -0.570   0.190   0.216
    1UNL     H1   28   0.039  -0.372   0.091
    1UNL     H2   29  -0.067  -0.434   0.216
    1UNL     H3   30  -0.008  -0.275   0.216
    1UNL     H4   31  -0.218  -0.368  -0.011
    1UNL     H5   32  -0.261  -0.306   0.143
    1UNL     H6   33  -0.226  -0.163  -0.085
    1UNL     H7   34  -0.034  -0.211  -0.194
    1UNL     H8   35   0.053  -0.196  -0.043
    1UNL     H9   36   0.033  -0.046  -0.321
    1UNL    H10   37   0.013   0.120  -0.295
    1UNL    H11   38   0.240   0.144  -0.286
    1UNL    H12   39   0.271  -0.018  -0.303
    1UNL    H13   40   0.243   0.092   0.224
    1UNL    H14   41   0.519   0.022   0.264
    1UNL    H15   42   0.716  -0.071   0.130
    1UNL    H16   43   0.732  -0.051  -0.101
    1UNL    H17   44   0.521  -0.022  -0.243
    1UNL    H18   45   0.013   0.169  -0.013
    1UNL    H19   46   0.051  -0.062   0.166
    1UNL    H20   47  -0.036   0.080   0.213
    1UNL    H21   48  -0.214  -0.099   0.186
    1UNL    H22   49  -0.185   0.107  -0.129
    1UNL    H23   50  -0.307   0.228  -0.285
    1UNL    H24   51  -0.382   0.366  -0.216
    1UNL    H25   52  -0.212   0.354  -0.180
    1UNL    H26   53  -0.660   0.214   0.164
    1UNL    H27   54  -0.541   0.281   0.265
    1UNL    H28   55  -0.582   0.104   0.284
   0.00000   0.00000   0.00000   0.00000   0.00000   0.00000   0.00000   0.00000   0.00000
Generated with MDTraj, t= 97.0
 55
    1UNL     C1    1  -0.033  -0.343   0.146
    1UNL     C2    2  -0.151  -0.311   0.052
    1UNL     C3    3  -0.161  -0.167  -0.015
    1UNL     C4    4  -0.034  -0.141  -0.114
    1UNL     N1    5  -0.008   0.005  -0.133
    1UNL     C5    6   0.061   0.038  -0.264
    1UNL     C6    7   0.212   0.001  -0.246
    1UNL     C7    8   0.263   0.027  -0.107
    1UNL     C8    9   0.182   0.068  -0.002
    1UNL     N2   10   0.260   0.062   0.117
    1UNL     C9   11   0.387   0.025   0.086
    1UNL    C10   12   0.508   0.017   0.163
    1UNL    C11   13   0.625  -0.006   0.095
    1UNL    C12   14   0.629  -0.021  -0.046
    1UNL    C13   15   0.518  -0.004  -0.121
    1UNL    C14   16   0.394   0.022  -0.062
    1UNL    C15   17   0.031   0.081  -0.005
    1UNL    C16   18  -0.032   0.008   0.114
    1UNL    C17   19  -0.172  -0.051   0.094
    1UNL    C18   20  -0.279   0.048   0.062
    1UNL    C19   21  -0.271   0.123  -0.052
    1UNL     O1   22  -0.343   0.228  -0.095
    1UNL    C20   23  -0.277   0.285  -0.207
    1UNL    C21   24  -0.384   0.067   0.166
    1UNL     O2   25  -0.388   0.006   0.272
    1UNL     O3   26  -0.469   0.178   0.138
    1UNL    C22   27  -0.555   0.204   0.248
    1UNL     H1   28   0.065  -0.321   0.109
    1UNL     H2   29  -0.053  -0.448   0.180
    1UNL     H3   30  -0.051  -0.284   0.228
    1UNL     H4   31  -0.133  -0.392  -0.026
    1UNL     H5   32  -0.256  -0.336   0.088
    1UNL     H6   33  -0.248  -0.172  -0.074
    1UNL     H7   34  -0.055  -0.196  -0.210
    1UNL     H8   35   0.056  -0.186  -0.076
    1UNL     H9   36   0.019  -0.012  -0.345
    1UNL    H10   37   0.062   0.140  -0.271
    1UNL    H11   38   0.280   0.041  -0.318
    1UNL    H12   39   0.220  -0.108  -0.259
    1UNL    H13   40   0.226   0.069   0.219
    1UNL    H14   41   0.518   0.044   0.270
    1UNL    H15   42   0.713  -0.024   0.155
    1UNL    H16   43   0.712  -0.058  -0.105
    1UNL    H17   44   0.519  -0.018  -0.228
    1UNL    H18   45   0.007   0.187  -0.017
    1UNL    H19   46   0.028  -0.083   0.137
    1UNL    H20   47  -0.016   0.067   0.203
    1UNL    H21   48  -0.212  -0.107   0.180
    1UNL    H22   49  -0.192   0.102  -0.119
    1UNL    H23   50  -0.277   0.213  -0.290
    1UNL    H24   51  -0.345   0.363  -0.241
    1UNL    H25   52  -0.181   0.334  -0.181
    1UNL    H26   53  -0.600   0.300   0.232
    1UNL    H27   54  -0.493   0.185   0.338
    1UNL    H28   55  -0.633   0.121   0.252
   0.00000   0.00000   0.00000   0.00000   0.00000   0.00000   0.00000   0.00000   0.00000
Generated with MDTraj, t= 98.0
 55
    1UNL     C1    1  -0.034  -0.313   0.129
    1UNL     C2    2  -0.152  -0.309   0.032
    1UNL     C3    3  -0.171  -0.168  -0.032
    1UNL     C4    4  -0.057  -0.133  -0.131
    1UNL     N1    5  -0.021   0.018  -0.135
    1UNL     C5    6   0.068   0.043  -0.247
    1UNL     C6    7   0.214  -0.022  -0.232
    1UNL     C7    8   0.266  -0.002  -0.096
    1UNL     C8    9   0.185   0.025   0.015
    1UNL     N2   10   0.262   0.039   0.125
    1UNL     C9   11   0.395   0.027   0.088
    1UNL    C10   12   0.511   0.074   0.153
    1UNL    C11   13   0.630   0.035   0.095
    1UNL    C12   14   0.639  -0.018  -0.036
    1UNL    C13   15   0.527  -0.039  -0.109
    1UNL    C14   16   0.403  -0.017  -0.045
    1UNL    C15   17   0.033   0.064  -0.001
    1UNL    C16   18  -0.037   0.007   0.119
    1UNL    C17   19  -0.174  -0.053   0.081
    1UNL    C18   20  -0.282   0.053   0.052
    1UNL    C19   21  -0.283   0.128  -0.059
    1UNL     O1   22  -0.363   0.232  -0.107
    1UNL    C20   23  -0.312   0.297  -0.229
    1UNL    C21   24  -0.372   0.080   0.166
    1UNL     O2   25  -0.369  -0.000   0.259
    1UNL     O3   26  -0.453   0.193   0.166
    1UNL    C22   27  -0.535   0.185   0.271
    1UNL     H1   28   0.055  -0.254   0.117
    1UNL     H2   29  -0.019  -0.421   0.154
    1UNL     H3   30  -0.076  -0.277   0.217
    1UNL     H4   31  -0.151  -0.388  -0.049
    1UNL     H5   32  -0.246  -0.338   0.090
    1UNL     H6   33  -0.259  -0.159  -0.090
    1UNL     H7   34  -0.083  -0.158  -0.237
    1UNL     H8   35   0.022  -0.202  -0.107
    1UNL     H9   36   0.030   0.005  -0.335
    1UNL    H10   37   0.088   0.143  -0.244
    1UNL    H11   38   0.274   0.030  -0.304
    1UNL    H12   39   0.215  -0.126  -0.263
    1UNL    H13   40   0.235   0.081   0.217
    1UNL    H14   41   0.503   0.125   0.245
    1UNL    H15   42   0.728   0.049   0.139
    1UNL    H16   43   0.736  -0.040  -0.074
    1UNL    H17   44   0.528  -0.072  -0.211
    1UNL    H18   45   0.028   0.173  -0.004
    1UNL    H19   46   0.026  -0.060   0.180
    1UNL    H20   47  -0.064   0.081   0.194
    1UNL    H21   48  -0.206  -0.110   0.170
    1UNL    H22   49  -0.211   0.091  -0.131
    1UNL    H23   50  -0.331   0.229  -0.315
    1UNL    H24   51  -0.363   0.392  -0.255
    1UNL    H25   52  -0.201   0.322  -0.223
    1UNL    H26   53  -0.582   0.283   0.268
    1UNL    H27   54  -0.472   0.142   0.357
    1UNL    H28   55  -0.615   0.104   0.248
   0.00000   0.00000   0.00000   0.00000   0.00000   0.00000   0.00000   0.00000   0.00000
Generated with MDTraj, t= 99.0
 55
    1UNL     C1    1  -0.049  -0.342   0.088
    1UNL     C2    2  -0.178  -0.300   0.017
    1UNL     C3    3  -0.174  -0.154  -0.041
    1UNL     C4    4  -0.049  -0.136  -0.124
    1UNL     N1    5  -0.002   0.004  -0.140
    1UNL     C5    6   0.091   0.028  -0.255
    1UNL     C6    7   0.227  -0.046  -0.232
    1UNL     C7    8   0.271  -0.021  -0.088
    1UNL     C8    9   0.190   0.036   0.011
    1UNL     N2   10   0.274   0.063   0.127
    1UNL     C9   11   0.404   0.037   0.091
    1UNL    C10   12   0.524   0.064   0.158
    1UNL    C11   13   0.644   0.038   0.098
    1UNL    C12   14   0.653  -0.013  -0.030
    1UNL    C13   15   0.534  -0.026  -0.103
    1UNL    C14   16   0.403  -0.016  -0.041
    1UNL    C15   17   0.043   0.063  -0.008
    1UNL    C16   18  -0.042   0.020   0.115
    1UNL    C17   19  -0.174  -0.049   0.082
    1UNL    C18   20  -0.280   0.055   0.061
    1UNL    C19   21  -0.282   0.130  -0.052
    1UNL     O1   22  -0.372   0.229  -0.077
    1UNL    C20   23  -0.377   0.274  -0.207
    1UNL    C21   24  -0.382   0.078   0.166
    1UNL     O2   25  -0.390   0.001   0.260
    1UNL     O3   26  -0.453   0.190   0.150
    1UNL    C22   27  -0.526   0.222   0.269
    1UNL     H1   28   0.036  -0.358   0.028
    1UNL     H2   29  -0.068  -0.439   0.141
    1UNL     H3   30  -0.014  -0.276   0.165
    1UNL     H4   31  -0.184  -0.361  -0.076
    1UNL     H5   32  -0.277  -0.324   0.068
    1UNL     H6   33  -0.254  -0.125  -0.107
    1UNL     H7   34  -0.065  -0.190  -0.220
    1UNL     H8   35   0.036  -0.183  -0.079
    1UNL     H9   36   0.050   0.009  -0.348
    1UNL    H10   37   0.122   0.126  -0.251
    1UNL    H11   38   0.310  -0.023  -0.299
    1UNL    H12   39   0.209  -0.152  -0.244
    1UNL    H13   40   0.237   0.118   0.202
    1UNL    H14   41   0.521   0.095   0.262
    1UNL    H15   42   0.736   0.060   0.152
    1UNL    H16   43   0.747  -0.018  -0.083
    1UNL    H17   44   0.532  -0.049  -0.211
    1UNL    H18   45   0.029   0.170  -0.028
    1UNL    H19   46   0.019  -0.057   0.166
    1UNL    H20   47  -0.049   0.093   0.195
    1UNL    H21   48  -0.205  -0.105   0.174
    1UNL    H22   49  -0.200   0.123  -0.126
    1UNL    H23   50  -0.358   0.189  -0.275
    1UNL    H24   51  -0.475   0.321  -0.230
    1UNL    H25   52  -0.293   0.351  -0.228
    1UNL    H26   53  -0.624   0.256   0.238
    1UNL    H27   54  -0.458   0.282   0.335
    1UNL    H28   55  -0.534   0.120   0.325
   0.00000   0.00000   0.00000   0.00000   0.00000   0.00000   0.00000   0.00000   0.00000
