[ moleculetype ]
; name        nrexcl
res           1

[ atoms ]
;    nr  type resnr resid  atom  cgnr     charge       mass
      1 SC4       1 res   C1        1      0.000     54.000
      2 TC5       1 res   C2        2      0.000     36.000
      3 TC5e      1 res   C3        3      0.000     36.000
      4 TC5       1 res   C4        4      0.000     36.000
      5 TC5       1 res   C5        5      0.000     36.000
      6 TN4a      1 res   C6        6      0.000     36.000
      7 SC4       1 res   C7        7      0.000     54.000
      8 TN4a      1 res   C8        8      0.000     36.000
      9 TN6a      1 res   C9        9      0.000     36.000

[ bonds ]
;  ai    aj   funct      b0(nm)        k
    1     2     1      0.37814    20000
    1     3     1      0.28988    20000
    2     3     1      0.25343    20000
    3     4     1      0.21063    20000
    3     5     1      0.25532    20000
    4     5     1      0.25045    20000
    4     6     1      0.19163    20000
    4     9     1      0.23280    20000
    6     7     1      0.31650    20000
    6     8     1      0.27606    20000
    6     9     1      0.23153    20000
    7     8     1      0.24898    20000
