Generated with MDTraj, t= 0.0
 53
    1UNL     C1    1   0.068   0.357  -0.095
    1UNL     O1    2   0.045   0.224  -0.060
    1UNL     C2    3   0.082   0.204   0.069
    1UNL     O2    4   0.122   0.291   0.143
    1UNL     C3    5   0.072   0.062   0.127
    1UNL     C4    6  -0.018   0.073   0.251
    1UNL     C5    7  -0.160   0.114   0.205
    1UNL     C6    8  -0.219   0.013   0.100
    1UNL     C7    9  -0.358   0.053   0.045
    1UNL     C8   10  -0.414  -0.054  -0.052
    1UNL     C9   11  -0.313  -0.101  -0.159
    1UNL     N1   12  -0.171  -0.108  -0.114
    1UNL    C10   13  -0.112  -0.235  -0.060
    1UNL    C11   14  -0.019  -0.191   0.058
    1UNL    C12   15  -0.099  -0.195   0.185
    1UNL     O3   16  -0.060  -0.247   0.286
    1UNL    C13   17  -0.231  -0.124   0.175
    1UNL    C14   18   0.016  -0.041   0.021
    1UNL    C15   19   0.136  -0.048  -0.073
    1UNL    C16   20   0.146  -0.076  -0.208
    1UNL    C17   21   0.271  -0.081  -0.268
    1UNL    C18   22   0.385  -0.056  -0.192
    1UNL    C19   23   0.376  -0.027  -0.054
    1UNL    C20   24   0.250  -0.025   0.006
    1UNL     N2   25   0.213   0.017   0.137
    1UNL     O4   26   0.504  -0.005  -0.002
    1UNL    C21   27   0.591  -0.023  -0.113
    1UNL     O5   28   0.519  -0.055  -0.231
    1UNL    C22   29  -0.124   0.004  -0.026
    1UNL     H1   30   0.044   0.371  -0.200
    1UNL     H2   31   0.005   0.421  -0.032
    1UNL     H3   32   0.173   0.380  -0.077
    1UNL     H4   33  -0.018  -0.022   0.306
    1UNL     H5   34   0.024   0.148   0.319
    1UNL     H6   35  -0.228   0.122   0.290
    1UNL     H7   36  -0.157   0.214   0.159
    1UNL     H8   37  -0.350   0.150  -0.006
    1UNL     H9   38  -0.427   0.069   0.129
    1UNL    H10   39  -0.451  -0.140   0.004
    1UNL    H11   40  -0.503  -0.014  -0.102
    1UNL    H12   41  -0.315  -0.033  -0.245
    1UNL    H13   42  -0.341  -0.199  -0.198
    1UNL    H14   43  -0.057  -0.285  -0.139
    1UNL    H15   44  -0.191  -0.303  -0.026
    1UNL    H16   45   0.071  -0.254   0.067
    1UNL    H17   46  -0.270  -0.108   0.276
    1UNL    H18   47  -0.303  -0.190   0.127
    1UNL    H19   48   0.056  -0.094  -0.264
    1UNL    H20   49   0.281  -0.102  -0.372
    1UNL    H21   50   0.272   0.087   0.183
    1UNL    H22   51   0.647   0.070  -0.129
    1UNL    H23   52   0.660  -0.105  -0.090
    1UNL    H24   53  -0.120   0.098  -0.083
   0.00000   0.00000   0.00000   0.00000   0.00000   0.00000   0.00000   0.00000   0.00000
Generated with MDTraj, t= 1.0
 53
    1UNL     C1    1   0.027   0.366  -0.098
    1UNL     O1    2   0.036   0.230  -0.065
    1UNL     C2    3   0.080   0.213   0.068
    1UNL     O2    4   0.121   0.302   0.140
    1UNL     C3    5   0.071   0.069   0.126
    1UNL     C4    6  -0.010   0.079   0.251
    1UNL     C5    7  -0.160   0.106   0.217
    1UNL     C6    8  -0.217   0.005   0.108
    1UNL     C7    9  -0.357   0.045   0.050
    1UNL     C8   10  -0.405  -0.069  -0.056
    1UNL     C9   11  -0.303  -0.082  -0.174
    1UNL     N1   12  -0.161  -0.098  -0.126
    1UNL    C10   13  -0.116  -0.222  -0.061
    1UNL    C11   14  -0.014  -0.184   0.059
    1UNL    C12   15  -0.099  -0.195   0.184
    1UNL     O3   16  -0.061  -0.264   0.275
    1UNL    C13   17  -0.231  -0.130   0.186
    1UNL    C14   18   0.020  -0.036   0.021
    1UNL    C15   19   0.142  -0.035  -0.070
    1UNL    C16   20   0.144  -0.076  -0.208
    1UNL    C17   21   0.266  -0.085  -0.267
    1UNL    C18   22   0.383  -0.066  -0.193
    1UNL    C19   23   0.378  -0.035  -0.055
    1UNL    C20   24   0.256  -0.019   0.007
    1UNL     N2   25   0.221   0.031   0.139
    1UNL     O4   26   0.504  -0.019   0.002
    1UNL    C21   27   0.591  -0.039  -0.105
    1UNL     O5   28   0.517  -0.074  -0.229
    1UNL    C22   29  -0.123   0.005  -0.023
    1UNL     H1   30   0.033   0.377  -0.211
    1UNL     H2   31  -0.059   0.411  -0.049
    1UNL     H3   32   0.126   0.407  -0.073
    1UNL     H4   33   0.006  -0.006   0.314
    1UNL     H5   34   0.024   0.168   0.306
    1UNL     H6   35  -0.228   0.103   0.298
    1UNL     H7   36  -0.164   0.212   0.182
    1UNL     H8   37  -0.351   0.141   0.004
    1UNL     H9   38  -0.430   0.046   0.133
    1UNL    H10   39  -0.416  -0.157  -0.007
    1UNL    H11   40  -0.506  -0.039  -0.084
    1UNL    H12   41  -0.303   0.003  -0.237
    1UNL    H13   42  -0.321  -0.166  -0.243
    1UNL    H14   43  -0.072  -0.281  -0.145
    1UNL    H15   44  -0.187  -0.287  -0.004
    1UNL    H16   45   0.077  -0.244   0.068
    1UNL    H17   46  -0.251  -0.107   0.293
    1UNL    H18   47  -0.304  -0.182   0.143
    1UNL    H19   48   0.056  -0.108  -0.264
    1UNL    H20   49   0.264  -0.117  -0.370
    1UNL    H21   50   0.286   0.098   0.180
    1UNL    H22   51   0.661   0.044  -0.112
    1UNL    H23   52   0.652  -0.123  -0.080
    1UNL    H24   53  -0.117   0.100  -0.070
   0.00000   0.00000   0.00000   0.00000   0.00000   0.00000   0.00000   0.00000   0.00000
Generated with MDTraj, t= 2.0
 53
    1UNL     C1    1   0.040   0.366  -0.090
    1UNL     O1    2   0.014   0.237  -0.048
    1UNL     C2    3   0.065   0.213   0.073
    1UNL     O2    4   0.108   0.295   0.148
    1UNL     C3    5   0.064   0.070   0.124
    1UNL     C4    6  -0.006   0.072   0.255
    1UNL     C5    7  -0.160   0.096   0.213
    1UNL     C6    8  -0.218   0.009   0.097
    1UNL     C7    9  -0.362   0.056   0.053
    1UNL     C8   10  -0.419  -0.040  -0.051
    1UNL     C9   11  -0.325  -0.103  -0.155
    1UNL     N1   12  -0.177  -0.114  -0.114
    1UNL    C10   13  -0.097  -0.231  -0.068
    1UNL    C11   14  -0.008  -0.187   0.053
    1UNL    C12   15  -0.090  -0.194   0.180
    1UNL     O3   16  -0.037  -0.237   0.279
    1UNL    C13   17  -0.225  -0.131   0.166
    1UNL    C14   18   0.019  -0.035   0.013
    1UNL    C15   19   0.139  -0.030  -0.077
    1UNL    C16   20   0.147  -0.063  -0.212
    1UNL    C17   21   0.275  -0.090  -0.264
    1UNL    C18   22   0.395  -0.070  -0.185
    1UNL    C19   23   0.382  -0.027  -0.053
    1UNL    C20   24   0.255  -0.006   0.001
    1UNL     N2   25   0.211   0.036   0.128
    1UNL     O4   26   0.510  -0.014  -0.001
    1UNL    C21   27   0.598  -0.062  -0.104
    1UNL     O5   28   0.526  -0.090  -0.225
    1UNL    C22   29  -0.126   0.002  -0.035
    1UNL     H1   30  -0.003   0.384  -0.197
    1UNL     H2   31   0.011   0.438  -0.019
    1UNL     H3   32   0.149   0.366  -0.120
    1UNL     H4   33   0.007  -0.017   0.312
    1UNL     H5   34   0.026   0.152   0.322
    1UNL     H6   35  -0.216   0.095   0.299
    1UNL     H7   36  -0.189   0.199   0.170
    1UNL     H8   37  -0.353   0.147   0.002
    1UNL     H9   38  -0.433   0.060   0.140
    1UNL    H10   39  -0.472  -0.110   0.001
    1UNL    H11   40  -0.489   0.024  -0.102
    1UNL    H12   41  -0.315  -0.046  -0.243
    1UNL    H13   42  -0.365  -0.203  -0.187
    1UNL    H14   43  -0.058  -0.258  -0.173
    1UNL    H15   44  -0.162  -0.312  -0.029
    1UNL    H16   45   0.082  -0.249   0.058
    1UNL    H17   46  -0.267  -0.115   0.266
    1UNL    H18   47  -0.285  -0.194   0.101
    1UNL    H19   48   0.055  -0.071  -0.265
    1UNL    H20   49   0.298  -0.131  -0.362
    1UNL    H21   50   0.278   0.078   0.193
    1UNL    H22   51   0.659   0.022  -0.129
    1UNL    H23   52   0.669  -0.135  -0.069
    1UNL    H24   53  -0.121   0.089  -0.090
   0.00000   0.00000   0.00000   0.00000   0.00000   0.00000   0.00000   0.00000   0.00000
Generated with MDTraj, t= 3.0
 53
    1UNL     C1    1   0.038   0.386  -0.077
    1UNL     O1    2   0.040   0.246  -0.056
    1UNL     C2    3   0.086   0.216   0.070
    1UNL     O2    4   0.124   0.299   0.149
    1UNL     C3    5   0.069   0.068   0.117
    1UNL     C4    6  -0.020   0.087   0.240
    1UNL     C5    7  -0.159   0.126   0.196
    1UNL     C6    8  -0.216   0.007   0.104
    1UNL     C7    9  -0.365   0.036   0.059
    1UNL     C8   10  -0.415  -0.073  -0.048
    1UNL     C9   11  -0.314  -0.090  -0.165
    1UNL     N1   12  -0.174  -0.113  -0.116
    1UNL    C10   13  -0.104  -0.232  -0.067
    1UNL    C11   14  -0.010  -0.187   0.049
    1UNL    C12   15  -0.080  -0.195   0.184
    1UNL     O3   16  -0.057  -0.258   0.284
    1UNL    C13   17  -0.215  -0.126   0.180
    1UNL    C14   18   0.014  -0.030   0.010
    1UNL    C15   19   0.130  -0.036  -0.085
    1UNL    C16   20   0.147  -0.078  -0.218
    1UNL    C17   21   0.275  -0.094  -0.267
    1UNL    C18   22   0.386  -0.070  -0.184
    1UNL    C19   23   0.374  -0.034  -0.047
    1UNL    C20   24   0.246  -0.022   0.002
    1UNL     N2   25   0.213   0.025   0.126
    1UNL     O4   26   0.501  -0.016   0.004
    1UNL    C21   27   0.591  -0.048  -0.105
    1UNL     O5   28   0.525  -0.076  -0.221
    1UNL    C22   29  -0.132   0.003  -0.028
    1UNL     H1   30  -0.050   0.419  -0.148
    1UNL     H2   31   0.016   0.434   0.011
    1UNL     H3   32   0.139   0.417  -0.115
    1UNL     H4   33  -0.035   0.005   0.307
    1UNL     H5   34   0.014   0.168   0.305
    1UNL     H6   35  -0.229   0.131   0.271
    1UNL     H7   36  -0.162   0.236   0.161
    1UNL     H8   37  -0.375   0.134   0.022
    1UNL     H9   38  -0.430   0.026   0.149
    1UNL    H10   39  -0.435  -0.169   0.002
    1UNL    H11   40  -0.514  -0.048  -0.079
    1UNL    H12   41  -0.312   0.003  -0.213
    1UNL    H13   42  -0.331  -0.174  -0.239
    1UNL    H14   43  -0.035  -0.261  -0.155
    1UNL    H15   44  -0.176  -0.314  -0.038
    1UNL    H16   45   0.091  -0.229   0.048
    1UNL    H17   46  -0.242  -0.105   0.283
    1UNL    H18   47  -0.288  -0.208   0.129
    1UNL    H19   48   0.061  -0.094  -0.283
    1UNL    H20   49   0.294  -0.123  -0.368
    1UNL    H21   50   0.272   0.081   0.189
    1UNL    H22   51   0.674   0.020  -0.116
    1UNL    H23   52   0.635  -0.144  -0.075
    1UNL    H24   53  -0.146   0.094  -0.074
   0.00000   0.00000   0.00000   0.00000   0.00000   0.00000   0.00000   0.00000   0.00000
Generated with MDTraj, t= 4.0
 53
    1UNL     C1    1   0.062   0.359  -0.098
    1UNL     O1    2   0.013   0.239  -0.039
    1UNL     C2    3   0.075   0.208   0.074
    1UNL     O2    4   0.149   0.282   0.131
    1UNL     C3    5   0.067   0.071   0.126
    1UNL     C4    6  -0.016   0.079   0.249
    1UNL     C5    7  -0.168   0.111   0.212
    1UNL     C6    8  -0.213   0.007   0.099
    1UNL     C7    9  -0.358   0.042   0.041
    1UNL     C8   10  -0.412  -0.065  -0.053
    1UNL     C9   11  -0.313  -0.090  -0.163
    1UNL     N1   12  -0.173  -0.105  -0.114
    1UNL    C10   13  -0.104  -0.233  -0.074
    1UNL    C11   14  -0.012  -0.189   0.051
    1UNL    C12   15  -0.086  -0.195   0.180
    1UNL     O3   16  -0.052  -0.237   0.288
    1UNL    C13   17  -0.225  -0.133   0.175
    1UNL    C14   18   0.015  -0.035   0.019
    1UNL    C15   19   0.134  -0.041  -0.076
    1UNL    C16   20   0.144  -0.066  -0.215
    1UNL    C17   21   0.273  -0.086  -0.266
    1UNL    C18   22   0.380  -0.066  -0.186
    1UNL    C19   23   0.376  -0.034  -0.040
    1UNL    C20   24   0.245  -0.016   0.013
    1UNL     N2   25   0.208   0.028   0.140
    1UNL     O4   26   0.510  -0.017  -0.001
    1UNL    C21   27   0.591  -0.036  -0.114
    1UNL     O5   28   0.513  -0.065  -0.225
    1UNL    C22   29  -0.125   0.004  -0.026
    1UNL     H1   30   0.042   0.353  -0.215
    1UNL     H2   31  -0.006   0.431  -0.077
    1UNL     H3   32   0.164   0.382  -0.060
    1UNL     H4   33  -0.023  -0.012   0.305
    1UNL     H5   34   0.022   0.155   0.317
    1UNL     H6   35  -0.239   0.133   0.290
    1UNL     H7   36  -0.174   0.211   0.160
    1UNL     H8   37  -0.349   0.134  -0.013
    1UNL     H9   38  -0.429   0.066   0.122
    1UNL    H10   39  -0.460  -0.160  -0.011
    1UNL    H11   40  -0.495  -0.026  -0.104
    1UNL    H12   41  -0.312  -0.013  -0.235
    1UNL    H13   42  -0.344  -0.189  -0.212
    1UNL    H14   43  -0.025  -0.283  -0.143
    1UNL    H15   44  -0.183  -0.306  -0.046
    1UNL    H16   45   0.075  -0.255   0.050
    1UNL    H17   46  -0.272  -0.126   0.275
    1UNL    H18   47  -0.280  -0.201   0.109
    1UNL    H19   48   0.058  -0.069  -0.276
    1UNL    H20   49   0.283  -0.106  -0.373
    1UNL    H21   50   0.258   0.096   0.198
    1UNL    H22   51   0.639   0.063  -0.128
    1UNL    H23   52   0.669  -0.112  -0.097
    1UNL    H24   53  -0.117   0.092  -0.079
   0.00000   0.00000   0.00000   0.00000   0.00000   0.00000   0.00000   0.00000   0.00000
Generated with MDTraj, t= 5.0
 53
    1UNL     C1    1   0.056   0.354  -0.097
    1UNL     O1    2   0.022   0.227  -0.049
    1UNL     C2    3   0.093   0.198   0.064
    1UNL     O2    4   0.164   0.276   0.123
    1UNL     C3    5   0.071   0.058   0.129
    1UNL     C4    6  -0.015   0.078   0.253
    1UNL     C5    7  -0.161   0.111   0.205
    1UNL     C6    8  -0.220   0.012   0.095
    1UNL     C7    9  -0.354   0.060   0.037
    1UNL     C8   10  -0.414  -0.045  -0.065
    1UNL     C9   11  -0.313  -0.106  -0.168
    1UNL     N1   12  -0.174  -0.118  -0.110
    1UNL    C10   13  -0.114  -0.242  -0.058
    1UNL    C11   14  -0.026  -0.199   0.063
    1UNL    C12   15  -0.105  -0.197   0.193
    1UNL     O3   16  -0.067  -0.249   0.294
    1UNL    C13   17  -0.236  -0.121   0.181
    1UNL    C14   18   0.018  -0.047   0.023
    1UNL    C15   19   0.136  -0.046  -0.073
    1UNL    C16   20   0.143  -0.060  -0.207
    1UNL    C17   21   0.273  -0.063  -0.269
    1UNL    C18   22   0.387  -0.046  -0.192
    1UNL    C19   23   0.375  -0.021  -0.056
    1UNL    C20   24   0.250  -0.021   0.007
    1UNL     N2   25   0.215   0.018   0.138
    1UNL     O4   26   0.503  -0.002  -0.004
    1UNL    C21   27   0.594  -0.031  -0.106
    1UNL     O5   28   0.518  -0.047  -0.228
    1UNL    C22   29  -0.127  -0.005  -0.024
    1UNL     H1   30   0.007   0.367  -0.201
    1UNL     H2   31   0.023   0.423  -0.031
    1UNL     H3   32   0.165   0.366  -0.094
    1UNL     H4   33  -0.017  -0.006   0.323
    1UNL     H5   34   0.025   0.162   0.309
    1UNL     H6   35  -0.234   0.105   0.292
    1UNL     H7   36  -0.176   0.220   0.188
    1UNL     H8   37  -0.337   0.146  -0.028
    1UNL     H9   38  -0.407   0.101   0.122
    1UNL    H10   39  -0.443  -0.133  -0.002
    1UNL    H11   40  -0.503  -0.025  -0.114
    1UNL    H12   41  -0.319  -0.054  -0.261
    1UNL    H13   42  -0.341  -0.215  -0.185
    1UNL    H14   43  -0.050  -0.300  -0.135
    1UNL    H15   44  -0.197  -0.307  -0.025
    1UNL    H16   45   0.068  -0.253   0.074
    1UNL    H17   46  -0.273  -0.100   0.285
    1UNL    H18   47  -0.297  -0.187   0.138
    1UNL    H19   48   0.056  -0.071  -0.271
    1UNL    H20   49   0.299  -0.104  -0.365
    1UNL    H21   50   0.266   0.083   0.199
    1UNL    H22   51   0.666   0.058  -0.110
    1UNL    H23   52   0.645  -0.124  -0.074
    1UNL    H24   53  -0.136   0.085  -0.077
   0.00000   0.00000   0.00000   0.00000   0.00000   0.00000   0.00000   0.00000   0.00000
Generated with MDTraj, t= 6.0
 53
    1UNL     C1    1   0.053   0.358  -0.093
    1UNL     O1    2   0.029   0.229  -0.050
    1UNL     C2    3   0.097   0.201   0.066
    1UNL     O2    4   0.167   0.277   0.132
    1UNL     C3    5   0.076   0.062   0.125
    1UNL     C4    6  -0.013   0.085   0.244
    1UNL     C5    7  -0.156   0.118   0.198
    1UNL     C6    8  -0.222   0.015   0.096
    1UNL     C7    9  -0.356   0.056   0.034
    1UNL     C8   10  -0.411  -0.057  -0.058
    1UNL     C9   11  -0.320  -0.104  -0.166
    1UNL     N1   12  -0.175  -0.114  -0.118
    1UNL    C10   13  -0.118  -0.243  -0.050
    1UNL    C11   14  -0.026  -0.193   0.067
    1UNL    C12   15  -0.113  -0.189   0.189
    1UNL     O3   16  -0.078  -0.245   0.288
    1UNL    C13   17  -0.240  -0.112   0.192
    1UNL    C14   18   0.017  -0.049   0.024
    1UNL    C15   19   0.138  -0.065  -0.066
    1UNL    C16   20   0.150  -0.081  -0.200
    1UNL    C17   21   0.271  -0.082  -0.268
    1UNL    C18   22   0.389  -0.053  -0.197
    1UNL    C19   23   0.379  -0.051  -0.058
    1UNL    C20   24   0.254  -0.046   0.004
    1UNL     N2   25   0.216   0.001   0.133
    1UNL     O4   26   0.503  -0.020   0.004
    1UNL    C21   27   0.588   0.017  -0.108
    1UNL     O5   28   0.518  -0.013  -0.231
    1UNL    C22   29  -0.121   0.001  -0.031
    1UNL     H1   30  -0.031   0.385  -0.162
    1UNL     H2   31   0.061   0.418  -0.009
    1UNL     H3   32   0.150   0.368  -0.137
    1UNL     H4   33  -0.006  -0.001   0.311
    1UNL     H5   34   0.021   0.174   0.297
    1UNL     H6   35  -0.235   0.160   0.278
    1UNL     H7   36  -0.137   0.210   0.140
    1UNL     H8   37  -0.340   0.152  -0.018
    1UNL     H9   38  -0.429   0.072   0.109
    1UNL    H10   39  -0.440  -0.155  -0.006
    1UNL    H11   40  -0.505  -0.026  -0.092
    1UNL    H12   41  -0.315  -0.030  -0.247
    1UNL    H13   42  -0.364  -0.195  -0.212
    1UNL    H14   43  -0.070  -0.287  -0.144
    1UNL    H15   44  -0.189  -0.322  -0.016
    1UNL    H16   45   0.064  -0.254   0.076
    1UNL    H17   46  -0.271  -0.078   0.293
    1UNL    H18   47  -0.315  -0.184   0.158
    1UNL    H19   48   0.065  -0.104  -0.262
    1UNL    H20   49   0.265  -0.111  -0.373
    1UNL    H21   50   0.287   0.044   0.193
    1UNL    H22   51   0.611   0.129  -0.102
    1UNL    H23   52   0.679  -0.049  -0.102
    1UNL    H24   53  -0.109   0.096  -0.076
   0.00000   0.00000   0.00000   0.00000   0.00000   0.00000   0.00000   0.00000   0.00000
Generated with MDTraj, t= 7.0
 53
    1UNL     C1    1   0.074   0.352  -0.094
    1UNL     O1    2   0.024   0.228  -0.048
    1UNL     C2    3   0.092   0.189   0.063
    1UNL     O2    4   0.176   0.258   0.121
    1UNL     C3    5   0.071   0.049   0.125
    1UNL     C4    6  -0.018   0.078   0.252
    1UNL     C5    7  -0.158   0.118   0.196
    1UNL     C6    8  -0.221   0.007   0.097
    1UNL     C7    9  -0.355   0.063   0.042
    1UNL     C8   10  -0.419  -0.034  -0.064
    1UNL     C9   11  -0.311  -0.089  -0.165
    1UNL     N1   12  -0.173  -0.123  -0.112
    1UNL    C10   13  -0.112  -0.247  -0.060
    1UNL    C11   14  -0.029  -0.209   0.065
    1UNL    C12   15  -0.112  -0.195   0.192
    1UNL     O3   16  -0.061  -0.226   0.295
    1UNL    C13   17  -0.241  -0.128   0.174
    1UNL    C14   18   0.014  -0.060   0.023
    1UNL    C15   19   0.139  -0.061  -0.064
    1UNL    C16   20   0.149  -0.071  -0.205
    1UNL    C17   21   0.273  -0.071  -0.263
    1UNL    C18   22   0.383  -0.051  -0.186
    1UNL    C19   23   0.373  -0.016  -0.054
    1UNL    C20   24   0.253  -0.034   0.009
    1UNL     N2   25   0.210   0.001   0.141
    1UNL     O4   26   0.494   0.036  -0.007
    1UNL    C21   27   0.585  -0.006  -0.115
    1UNL     O5   28   0.515  -0.041  -0.228
    1UNL    C22   29  -0.125  -0.014  -0.022
    1UNL     H1   30   0.060   0.371  -0.204
    1UNL     H2   31   0.037   0.426  -0.030
    1UNL     H3   32   0.178   0.356  -0.070
    1UNL     H4   33  -0.020  -0.011   0.318
    1UNL     H5   34   0.031   0.158   0.307
    1UNL     H6   35  -0.231   0.147   0.286
    1UNL     H7   36  -0.161   0.214   0.140
    1UNL     H8   37  -0.325   0.148  -0.024
    1UNL     H9   38  -0.420   0.094   0.119
    1UNL    H10   39  -0.474  -0.109   0.000
    1UNL    H11   40  -0.499   0.009  -0.122
    1UNL    H12   41  -0.309  -0.016  -0.250
    1UNL    H13   42  -0.341  -0.181  -0.214
    1UNL    H14   43  -0.060  -0.292  -0.149
    1UNL    H15   44  -0.189  -0.322  -0.030
    1UNL    H16   45   0.059  -0.272   0.085
    1UNL    H17   46  -0.283  -0.112   0.275
    1UNL    H18   47  -0.328  -0.191   0.120
    1UNL    H19   48   0.064  -0.104  -0.261
    1UNL    H20   49   0.275  -0.109  -0.363
    1UNL    H21   50   0.271   0.074   0.180
    1UNL    H22   51   0.646   0.087  -0.147
    1UNL    H23   52   0.644  -0.096  -0.085
    1UNL    H24   53  -0.112   0.074  -0.083
   0.00000   0.00000   0.00000   0.00000   0.00000   0.00000   0.00000   0.00000   0.00000
Generated with MDTraj, t= 8.0
 53
    1UNL     C1    1   0.068   0.352  -0.097
    1UNL     O1    2   0.031   0.230  -0.048
    1UNL     C2    3   0.087   0.202   0.069
    1UNL     O2    4   0.147   0.286   0.133
    1UNL     C3    5   0.072   0.063   0.126
    1UNL     C4    6  -0.024   0.081   0.250
    1UNL     C5    7  -0.162   0.128   0.194
    1UNL     C6    8  -0.219   0.018   0.107
    1UNL     C7    9  -0.357   0.054   0.042
    1UNL     C8   10  -0.406  -0.059  -0.052
    1UNL     C9   11  -0.302  -0.096  -0.159
    1UNL     N1   12  -0.171  -0.109  -0.106
    1UNL    C10   13  -0.100  -0.235  -0.066
    1UNL    C11   14  -0.020  -0.195   0.061
    1UNL    C12   15  -0.109  -0.200   0.185
    1UNL     O3   16  -0.087  -0.260   0.286
    1UNL    C13   17  -0.234  -0.120   0.179
    1UNL    C14   18   0.015  -0.042   0.024
    1UNL    C15   19   0.134  -0.056  -0.069
    1UNL    C16   20   0.143  -0.079  -0.207
    1UNL    C17   21   0.271  -0.092  -0.267
    1UNL    C18   22   0.386  -0.060  -0.189
    1UNL    C19   23   0.379  -0.036  -0.053
    1UNL    C20   24   0.254  -0.033   0.010
    1UNL     N2   25   0.217   0.016   0.139
    1UNL     O4   26   0.509  -0.018  -0.003
    1UNL    C21   27   0.588   0.003  -0.122
    1UNL     O5   28   0.512  -0.032  -0.233
    1UNL    C22   29  -0.125   0.003  -0.022
    1UNL     H1   30   0.015   0.373  -0.195
    1UNL     H2   31   0.057   0.425  -0.019
    1UNL     H3   32   0.172   0.340  -0.126
    1UNL     H4   33  -0.025  -0.015   0.305
    1UNL     H5   34   0.025   0.153   0.313
    1UNL     H6   35  -0.242   0.150   0.274
    1UNL     H7   36  -0.152   0.226   0.140
    1UNL     H8   37  -0.359   0.148  -0.020
    1UNL     H9   38  -0.432   0.064   0.113
    1UNL    H10   39  -0.448  -0.152  -0.007
    1UNL    H11   40  -0.492  -0.006  -0.101
    1UNL    H12   41  -0.285  -0.016  -0.240
    1UNL    H13   42  -0.334  -0.183  -0.210
    1UNL    H14   43  -0.031  -0.281  -0.139
    1UNL    H15   44  -0.172  -0.319  -0.050
    1UNL    H16   45   0.063  -0.265   0.082
    1UNL    H17   46  -0.275  -0.105   0.283
    1UNL    H18   47  -0.319  -0.177   0.133
    1UNL    H19   48   0.050  -0.112  -0.254
    1UNL    H20   49   0.297  -0.106  -0.370
    1UNL    H21   50   0.272   0.090   0.181
    1UNL    H22   51   0.623   0.112  -0.129
    1UNL    H23   52   0.665  -0.073  -0.116
    1UNL    H24   53  -0.123   0.092  -0.087
   0.00000   0.00000   0.00000   0.00000   0.00000   0.00000   0.00000   0.00000   0.00000
Generated with MDTraj, t= 9.0
 53
    1UNL     C1    1   0.050   0.362  -0.095
    1UNL     O1    2   0.056   0.224  -0.058
    1UNL     C2    3   0.085   0.200   0.070
    1UNL     O2    4   0.124   0.292   0.138
    1UNL     C3    5   0.071   0.058   0.130
    1UNL     C4    6  -0.021   0.070   0.255
    1UNL     C5    7  -0.160   0.112   0.206
    1UNL     C6    8  -0.218   0.013   0.107
    1UNL     C7    9  -0.355   0.053   0.042
    1UNL     C8   10  -0.413  -0.049  -0.057
    1UNL     C9   11  -0.306  -0.098  -0.163
    1UNL     N1   12  -0.171  -0.111  -0.111
    1UNL    C10   13  -0.116  -0.239  -0.060
    1UNL    C11   14  -0.017  -0.198   0.057
    1UNL    C12   15  -0.094  -0.196   0.186
    1UNL     O3   16  -0.063  -0.245   0.294
    1UNL    C13   17  -0.233  -0.127   0.178
    1UNL    C14   18   0.010  -0.045   0.024
    1UNL    C15   19   0.130  -0.046  -0.079
    1UNL    C16   20   0.144  -0.065  -0.216
    1UNL    C17   21   0.270  -0.074  -0.273
    1UNL    C18   22   0.385  -0.060  -0.195
    1UNL    C19   23   0.373  -0.024  -0.056
    1UNL    C20   24   0.244  -0.011   0.001
    1UNL     N2   25   0.216   0.020   0.137
    1UNL     O4   26   0.507  -0.004  -0.002
    1UNL    C21   27   0.598  -0.040  -0.105
    1UNL     O5   28   0.520  -0.058  -0.226
    1UNL    C22   29  -0.122  -0.001  -0.025
    1UNL     H1   30  -0.004   0.391  -0.190
    1UNL     H2   31   0.009   0.419  -0.010
    1UNL     H3   32   0.155   0.386  -0.119
    1UNL     H4   33  -0.015  -0.028   0.306
    1UNL     H5   34   0.033   0.143   0.315
    1UNL     H6   35  -0.227   0.125   0.292
    1UNL     H7   36  -0.155   0.217   0.160
    1UNL     H8   37  -0.350   0.153  -0.006
    1UNL     H9   38  -0.431   0.064   0.115
    1UNL    H10   39  -0.457  -0.128   0.004
    1UNL    H11   40  -0.503  -0.014  -0.122
    1UNL    H12   41  -0.304  -0.011  -0.239
    1UNL    H13   42  -0.323  -0.188  -0.218
    1UNL    H14   43  -0.057  -0.289  -0.136
    1UNL    H15   44  -0.204  -0.305  -0.042
    1UNL    H16   45   0.067  -0.269   0.058
    1UNL    H17   46  -0.262  -0.098   0.286
    1UNL    H18   47  -0.313  -0.184   0.152
    1UNL    H19   48   0.059  -0.088  -0.274
    1UNL    H20   49   0.288  -0.086  -0.380
    1UNL    H21   50   0.274   0.093   0.177
    1UNL    H22   51   0.669   0.044  -0.118
    1UNL    H23   52   0.650  -0.128  -0.075
    1UNL    H24   53  -0.118   0.100  -0.076
   0.00000   0.00000   0.00000   0.00000   0.00000   0.00000   0.00000   0.00000   0.00000
Generated with MDTraj, t= 10.0
 53
    1UNL     C1    1   0.063   0.365  -0.102
    1UNL     O1    2   0.034   0.237  -0.057
    1UNL     C2    3   0.067   0.211   0.074
    1UNL     O2    4   0.098   0.302   0.147
    1UNL     C3    5   0.068   0.069   0.126
    1UNL     C4    6  -0.017   0.065   0.257
    1UNL     C5    7  -0.161   0.106   0.212
    1UNL     C6    8  -0.219   0.008   0.108
    1UNL     C7    9  -0.357   0.048   0.053
    1UNL     C8   10  -0.412  -0.054  -0.047
    1UNL     C9   11  -0.320  -0.098  -0.163
    1UNL     N1   12  -0.175  -0.104  -0.122
    1UNL    C10   13  -0.113  -0.231  -0.069
    1UNL    C11   14  -0.023  -0.194   0.043
    1UNL    C12   15  -0.094  -0.195   0.179
    1UNL     O3   16  -0.039  -0.234   0.280
    1UNL    C13   17  -0.225  -0.131   0.174
    1UNL    C14   18   0.015  -0.038   0.016
    1UNL    C15   19   0.145  -0.036  -0.073
    1UNL    C16   20   0.154  -0.066  -0.205
    1UNL    C17   21   0.274  -0.086  -0.264
    1UNL    C18   22   0.388  -0.068  -0.194
    1UNL    C19   23   0.381  -0.034  -0.051
    1UNL    C20   24   0.255  -0.013   0.009
    1UNL     N2   25   0.213   0.033   0.137
    1UNL     O4   26   0.507  -0.023  -0.001
    1UNL    C21   27   0.594  -0.043  -0.111
    1UNL     O5   28   0.523  -0.074  -0.228
    1UNL    C22   29  -0.126   0.004  -0.026
    1UNL     H1   30   0.107   0.376  -0.205
    1UNL     H2   31  -0.032   0.429  -0.095
    1UNL     H3   32   0.147   0.403  -0.040
    1UNL     H4   33  -0.004  -0.038   0.289
    1UNL     H5   34   0.032   0.132   0.328
    1UNL     H6   35  -0.209   0.087   0.307
    1UNL     H7   36  -0.185   0.218   0.189
    1UNL     H8   37  -0.347   0.143   0.002
    1UNL     H9   38  -0.426   0.069   0.133
    1UNL    H10   39  -0.451  -0.146  -0.006
    1UNL    H11   40  -0.513  -0.012  -0.092
    1UNL    H12   41  -0.314  -0.030  -0.256
    1UNL    H13   42  -0.357  -0.192  -0.200
    1UNL    H14   43  -0.055  -0.276  -0.147
    1UNL    H15   44  -0.190  -0.302  -0.031
    1UNL    H16   45   0.065  -0.260   0.058
    1UNL    H17   46  -0.260  -0.123   0.281
    1UNL    H18   47  -0.299  -0.194   0.130
    1UNL    H19   48   0.060  -0.078  -0.263
    1UNL    H20   49   0.273  -0.141  -0.354
    1UNL    H21   50   0.278   0.093   0.190
    1UNL    H22   51   0.650   0.051  -0.115
    1UNL    H23   52   0.670  -0.114  -0.085
    1UNL    H24   53  -0.131   0.104  -0.076
   0.00000   0.00000   0.00000   0.00000   0.00000   0.00000   0.00000   0.00000   0.00000
Generated with MDTraj, t= 11.0
 53
    1UNL     C1    1   0.053   0.371  -0.099
    1UNL     O1    2   0.069   0.243  -0.067
    1UNL     C2    3   0.079   0.219   0.067
    1UNL     O2    4   0.090   0.309   0.146
    1UNL     C3    5   0.075   0.077   0.124
    1UNL     C4    6  -0.014   0.079   0.256
    1UNL     C5    7  -0.159   0.111   0.210
    1UNL     C6    8  -0.220   0.008   0.108
    1UNL     C7    9  -0.360   0.035   0.064
    1UNL     C8   10  -0.410  -0.072  -0.041
    1UNL     C9   11  -0.312  -0.089  -0.156
    1UNL     N1   12  -0.165  -0.100  -0.119
    1UNL    C10   13  -0.097  -0.230  -0.074
    1UNL    C11   14  -0.010  -0.180   0.051
    1UNL    C12   15  -0.100  -0.203   0.174
    1UNL     O3   16  -0.061  -0.273   0.261
    1UNL    C13   17  -0.221  -0.127   0.188
    1UNL    C14   18   0.014  -0.035   0.020
    1UNL    C15   19   0.131  -0.032  -0.079
    1UNL    C16   20   0.147  -0.070  -0.207
    1UNL    C17   21   0.272  -0.094  -0.267
    1UNL    C18   22   0.386  -0.071  -0.190
    1UNL    C19   23   0.371  -0.037  -0.055
    1UNL    C20   24   0.246  -0.013   0.001
    1UNL     N2   25   0.215   0.029   0.129
    1UNL     O4   26   0.497  -0.004   0.003
    1UNL    C21   27   0.584  -0.048  -0.102
    1UNL     O5   28   0.523  -0.083  -0.221
    1UNL    C22   29  -0.127   0.009  -0.026
    1UNL     H1   30   0.032   0.389  -0.205
    1UNL     H2   31  -0.041   0.411  -0.034
    1UNL     H3   32   0.146   0.427  -0.082
    1UNL     H4   33   0.016  -0.014   0.304
    1UNL     H5   34   0.023   0.166   0.310
    1UNL     H6   35  -0.224   0.140   0.290
    1UNL     H7   36  -0.139   0.211   0.152
    1UNL     H8   37  -0.364   0.135   0.030
    1UNL     H9   38  -0.423   0.032   0.154
    1UNL    H10   39  -0.434  -0.170   0.000
    1UNL    H11   40  -0.516  -0.042  -0.082
    1UNL    H12   41  -0.337  -0.008  -0.232
    1UNL    H13   42  -0.324  -0.182  -0.213
    1UNL    H14   43  -0.049  -0.262  -0.164
    1UNL    H15   44  -0.176  -0.295  -0.035
    1UNL    H16   45   0.080  -0.242   0.072
    1UNL    H17   46  -0.234  -0.098   0.293
    1UNL    H18   47  -0.316  -0.194   0.168
    1UNL    H19   48   0.058  -0.082  -0.260
    1UNL    H20   49   0.289  -0.156  -0.358
    1UNL    H21   50   0.293   0.050   0.193
    1UNL    H22   51   0.669   0.017  -0.113
    1UNL    H23   52   0.629  -0.135  -0.058
    1UNL    H24   53  -0.111   0.105  -0.083
   0.00000   0.00000   0.00000   0.00000   0.00000   0.00000   0.00000   0.00000   0.00000
Generated with MDTraj, t= 12.0
 53
    1UNL     C1    1   0.080   0.351  -0.105
    1UNL     O1    2   0.031   0.228  -0.060
    1UNL     C2    3   0.059   0.211   0.076
    1UNL     O2    4   0.070   0.302   0.155
    1UNL     C3    5   0.071   0.064   0.120
    1UNL     C4    6  -0.018   0.068   0.251
    1UNL     C5    7  -0.161   0.105   0.209
    1UNL     C6    8  -0.224   0.013   0.105
    1UNL     C7    9  -0.360   0.052   0.064
    1UNL     C8   10  -0.417  -0.035  -0.055
    1UNL     C9   11  -0.316  -0.086  -0.162
    1UNL     N1   12  -0.174  -0.106  -0.113
    1UNL    C10   13  -0.103  -0.239  -0.066
    1UNL    C11   14  -0.013  -0.195   0.047
    1UNL    C12   15  -0.088  -0.198   0.178
    1UNL     O3   16  -0.036  -0.237   0.281
    1UNL    C13   17  -0.229  -0.138   0.175
    1UNL    C14   18   0.017  -0.038   0.015
    1UNL    C15   19   0.142  -0.035  -0.077
    1UNL    C16   20   0.147  -0.069  -0.211
    1UNL    C17   21   0.272  -0.085  -0.262
    1UNL    C18   22   0.388  -0.070  -0.183
    1UNL    C19   23   0.383  -0.024  -0.054
    1UNL    C20   24   0.257  -0.004  -0.001
    1UNL     N2   25   0.212   0.029   0.130
    1UNL     O4   26   0.515  -0.013  -0.004
    1UNL    C21   27   0.599  -0.053  -0.111
    1UNL     O5   28   0.523  -0.076  -0.225
    1UNL    C22   29  -0.131   0.002  -0.021
    1UNL     H1   30   0.069   0.387  -0.204
    1UNL     H2   31   0.030   0.430  -0.030
    1UNL     H3   32   0.184   0.357  -0.083
    1UNL     H4   33  -0.010  -0.028   0.300
    1UNL     H5   34   0.035   0.143   0.313
    1UNL     H6   35  -0.220   0.104   0.299
    1UNL     H7   36  -0.161   0.212   0.170
    1UNL     H8   37  -0.362   0.152   0.038
    1UNL     H9   38  -0.423   0.036   0.153
    1UNL    H10   39  -0.460  -0.124  -0.009
    1UNL    H11   40  -0.512   0.016  -0.100
    1UNL    H12   41  -0.306  -0.019  -0.248
    1UNL    H13   42  -0.355  -0.181  -0.206
    1UNL    H14   43  -0.037  -0.262  -0.146
    1UNL    H15   44  -0.171  -0.316  -0.031
    1UNL    H16   45   0.087  -0.240   0.061
    1UNL    H17   46  -0.262  -0.146   0.279
    1UNL    H18   47  -0.303  -0.208   0.121
    1UNL    H19   48   0.054  -0.074  -0.271
    1UNL    H20   49   0.274  -0.120  -0.360
    1UNL    H21   50   0.261   0.111   0.169
    1UNL    H22   51   0.667   0.031  -0.127
    1UNL    H23   52   0.664  -0.134  -0.078
    1UNL    H24   53  -0.151   0.097  -0.078
   0.00000   0.00000   0.00000   0.00000   0.00000   0.00000   0.00000   0.00000   0.00000
Generated with MDTraj, t= 13.0
 53
    1UNL     C1    1   0.060   0.355  -0.102
    1UNL     O1    2   0.077   0.227  -0.066
    1UNL     C2    3   0.084   0.209   0.068
    1UNL     O2    4   0.109   0.297   0.144
    1UNL     C3    5   0.077   0.068   0.127
    1UNL     C4    6  -0.014   0.079   0.256
    1UNL     C5    7  -0.156   0.113   0.210
    1UNL     C6    8  -0.218   0.010   0.104
    1UNL     C7    9  -0.360   0.041   0.051
    1UNL     C8   10  -0.411  -0.058  -0.053
    1UNL     C9   11  -0.309  -0.091  -0.161
    1UNL     N1   12  -0.170  -0.104  -0.111
    1UNL    C10   13  -0.111  -0.234  -0.065
    1UNL    C11   14  -0.019  -0.184   0.056
    1UNL    C12   15  -0.098  -0.201   0.182
    1UNL     O3   16  -0.064  -0.251   0.286
    1UNL    C13   17  -0.234  -0.134   0.176
    1UNL    C14   18   0.013  -0.038   0.023
    1UNL    C15   19   0.132  -0.045  -0.075
    1UNL    C16   20   0.141  -0.072  -0.215
    1UNL    C17   21   0.269  -0.084  -0.268
    1UNL    C18   22   0.380  -0.056  -0.189
    1UNL    C19   23   0.373  -0.027  -0.050
    1UNL    C20   24   0.246  -0.025   0.002
    1UNL     N2   25   0.209   0.015   0.137
    1UNL     O4   26   0.505  -0.014   0.002
    1UNL    C21   27   0.592  -0.024  -0.112
    1UNL     O5   28   0.512  -0.057  -0.227
    1UNL    C22   29  -0.122   0.007  -0.029
    1UNL     H1   30   0.036   0.359  -0.203
    1UNL     H2   31  -0.025   0.398  -0.034
    1UNL     H3   32   0.139   0.417  -0.071
    1UNL     H4   33  -0.005  -0.019   0.300
    1UNL     H5   34   0.032   0.145   0.331
    1UNL     H6   35  -0.227   0.134   0.292
    1UNL     H7   36  -0.142   0.206   0.160
    1UNL     H8   37  -0.350   0.124  -0.010
    1UNL     H9   38  -0.431   0.063   0.135
    1UNL    H10   39  -0.437  -0.153  -0.003
    1UNL    H11   40  -0.511  -0.018  -0.094
    1UNL    H12   41  -0.309  -0.015  -0.233
    1UNL    H13   42  -0.339  -0.186  -0.215
    1UNL    H14   43  -0.048  -0.285  -0.133
    1UNL    H15   44  -0.199  -0.286  -0.035
    1UNL    H16   45   0.064  -0.258   0.050
    1UNL    H17   46  -0.275  -0.113   0.278
    1UNL    H18   47  -0.296  -0.203   0.135
    1UNL    H19   48   0.053  -0.108  -0.264
    1UNL    H20   49   0.272  -0.095  -0.379
    1UNL    H21   50   0.265   0.093   0.174
    1UNL    H22   51   0.651   0.072  -0.115
    1UNL    H23   52   0.663  -0.106  -0.091
    1UNL    H24   53  -0.107   0.099  -0.094
   0.00000   0.00000   0.00000   0.00000   0.00000   0.00000   0.00000   0.00000   0.00000
Generated with MDTraj, t= 14.0
 53
    1UNL     C1    1   0.087   0.347  -0.100
    1UNL     O1    2   0.040   0.225  -0.062
    1UNL     C2    3   0.082   0.198   0.068
    1UNL     O2    4   0.129   0.280   0.142
    1UNL     C3    5   0.075   0.060   0.128
    1UNL     C4    6  -0.017   0.075   0.252
    1UNL     C5    7  -0.152   0.127   0.204
    1UNL     C6    8  -0.213   0.018   0.098
    1UNL     C7    9  -0.351   0.060   0.035
    1UNL     C8   10  -0.409  -0.059  -0.051
    1UNL     C9   11  -0.312  -0.103  -0.164
    1UNL     N1   12  -0.173  -0.114  -0.115
    1UNL    C10   13  -0.123  -0.240  -0.056
    1UNL    C11   14  -0.030  -0.198   0.060
    1UNL    C12   15  -0.108  -0.202   0.191
    1UNL     O3   16  -0.085  -0.259   0.295
    1UNL    C13   17  -0.233  -0.118   0.178
    1UNL    C14   18   0.017  -0.049   0.022
    1UNL    C15   19   0.140  -0.052  -0.070
    1UNL    C16   20   0.146  -0.078  -0.206
    1UNL    C17   21   0.270  -0.072  -0.270
    1UNL    C18   22   0.384  -0.050  -0.191
    1UNL    C19   23   0.376  -0.019  -0.055
    1UNL    C20   24   0.254  -0.025   0.011
    1UNL     N2   25   0.214   0.017   0.140
    1UNL     O4   26   0.502  -0.005  -0.002
    1UNL    C21   27   0.590  -0.010  -0.121
    1UNL     O5   28   0.515  -0.037  -0.237
    1UNL    C22   29  -0.120  -0.000  -0.027
    1UNL     H1   30   0.099   0.349  -0.203
    1UNL     H2   31   0.011   0.427  -0.066
    1UNL     H3   32   0.168   0.379  -0.042
    1UNL     H4   33  -0.017  -0.018   0.307
    1UNL     H5   34   0.025   0.145   0.327
    1UNL     H6   35  -0.223   0.123   0.289
    1UNL     H7   36  -0.144   0.224   0.170
    1UNL     H8   37  -0.339   0.148  -0.022
    1UNL     H9   38  -0.416   0.079   0.122
    1UNL    H10   39  -0.433  -0.144   0.019
    1UNL    H11   40  -0.510  -0.031  -0.095
    1UNL    H12   41  -0.317  -0.027  -0.236
    1UNL    H13   42  -0.345  -0.200  -0.215
    1UNL    H14   43  -0.053  -0.288  -0.118
    1UNL    H15   44  -0.203  -0.299  -0.021
    1UNL    H16   45   0.069  -0.245   0.083
    1UNL    H17   46  -0.251  -0.097   0.285
    1UNL    H18   47  -0.315  -0.175   0.146
    1UNL    H19   48   0.064  -0.126  -0.259
    1UNL    H20   49   0.302  -0.069  -0.370
    1UNL    H21   50   0.266   0.081   0.200
    1UNL    H22   51   0.635   0.094  -0.129
    1UNL    H23   52   0.663  -0.091  -0.098
    1UNL    H24   53  -0.121   0.095  -0.088
   0.00000   0.00000   0.00000   0.00000   0.00000   0.00000   0.00000   0.00000   0.00000
Generated with MDTraj, t= 15.0
 53
    1UNL     C1    1   0.085   0.335  -0.109
    1UNL     O1    2   0.041   0.209  -0.059
    1UNL     C2    3   0.094   0.189   0.066
    1UNL     O2    4   0.155   0.273   0.129
    1UNL     C3    5   0.072   0.057   0.136
    1UNL     C4    6  -0.016   0.072   0.258
    1UNL     C5    7  -0.169   0.107   0.212
    1UNL     C6    8  -0.221   0.010   0.097
    1UNL     C7    9  -0.357   0.062   0.041
    1UNL     C8   10  -0.417  -0.024  -0.074
    1UNL     C9   11  -0.317  -0.097  -0.164
    1UNL     N1   12  -0.175  -0.110  -0.110
    1UNL    C10   13  -0.106  -0.237  -0.057
    1UNL    C11   14  -0.014  -0.201   0.066
    1UNL    C12   15  -0.104  -0.198   0.187
    1UNL     O3   16  -0.070  -0.229   0.298
    1UNL    C13   17  -0.236  -0.126   0.172
    1UNL    C14   18   0.015  -0.053   0.030
    1UNL    C15   19   0.135  -0.064  -0.067
    1UNL    C16   20   0.141  -0.076  -0.203
    1UNL    C17   21   0.266  -0.082  -0.262
    1UNL    C18   22   0.384  -0.045  -0.196
    1UNL    C19   23   0.374  -0.020  -0.052
    1UNL    C20   24   0.247  -0.033   0.012
    1UNL     N2   25   0.209  -0.001   0.146
    1UNL     O4   26   0.499   0.013  -0.002
    1UNL    C21   27   0.586   0.011  -0.122
    1UNL     O5   28   0.516  -0.030  -0.233
    1UNL    C22   29  -0.124  -0.003  -0.029
    1UNL     H1   30   0.019   0.377  -0.181
    1UNL     H2   31   0.099   0.413  -0.026
    1UNL     H3   32   0.182   0.329  -0.146
    1UNL     H4   33  -0.012  -0.020   0.316
    1UNL     H5   34   0.027   0.149   0.325
    1UNL     H6   35  -0.232   0.100   0.303
    1UNL     H7   36  -0.186   0.196   0.163
    1UNL     H8   37  -0.340   0.167   0.025
    1UNL     H9   38  -0.427   0.053   0.123
    1UNL    H10   39  -0.490  -0.105  -0.036
    1UNL    H11   40  -0.484   0.040  -0.136
    1UNL    H12   41  -0.303  -0.043  -0.254
    1UNL    H13   42  -0.364  -0.198  -0.189
    1UNL    H14   43  -0.059  -0.279  -0.142
    1UNL    H15   44  -0.176  -0.309  -0.026
    1UNL    H16   45   0.074  -0.269   0.065
    1UNL    H17   46  -0.281  -0.109   0.266
    1UNL    H18   47  -0.312  -0.195   0.119
    1UNL    H19   48   0.049  -0.089  -0.257
    1UNL    H20   49   0.264  -0.103  -0.371
    1UNL    H21   50   0.279   0.048   0.200
    1UNL    H22   51   0.612   0.120  -0.137
    1UNL    H23   52   0.672  -0.057  -0.096
    1UNL    H24   53  -0.112   0.090  -0.094
   0.00000   0.00000   0.00000   0.00000   0.00000   0.00000   0.00000   0.00000   0.00000
Generated with MDTraj, t= 16.0
 53
    1UNL     C1    1   0.075   0.348  -0.094
    1UNL     O1    2   0.033   0.225  -0.054
    1UNL     C2    3   0.095   0.196   0.064
    1UNL     O2    4   0.157   0.276   0.135
    1UNL     C3    5   0.072   0.053   0.128
    1UNL     C4    6  -0.020   0.085   0.243
    1UNL     C5    7  -0.153   0.134   0.188
    1UNL     C6    8  -0.220   0.020   0.095
    1UNL     C7    9  -0.363   0.053   0.044
    1UNL     C8   10  -0.406  -0.058  -0.054
    1UNL     C9   11  -0.310  -0.087  -0.169
    1UNL     N1   12  -0.173  -0.113  -0.118
    1UNL    C10   13  -0.122  -0.241  -0.051
    1UNL    C11   14  -0.033  -0.204   0.070
    1UNL    C12   15  -0.113  -0.197   0.196
    1UNL     O3   16  -0.086  -0.263   0.296
    1UNL    C13   17  -0.231  -0.106   0.185
    1UNL    C14   18   0.020  -0.052   0.023
    1UNL    C15   19   0.139  -0.067  -0.070
    1UNL    C16   20   0.150  -0.094  -0.207
    1UNL    C17   21   0.272  -0.069  -0.271
    1UNL    C18   22   0.382  -0.045  -0.198
    1UNL    C19   23   0.377  -0.038  -0.054
    1UNL    C20   24   0.253  -0.043   0.012
    1UNL     N2   25   0.220  -0.005   0.141
    1UNL     O4   26   0.500   0.009   0.001
    1UNL    C21   27   0.584   0.012  -0.115
    1UNL     O5   28   0.517  -0.017  -0.233
    1UNL    C22   29  -0.119  -0.007  -0.032
    1UNL     H1   30  -0.005   0.393  -0.155
    1UNL     H2   31   0.102   0.424  -0.014
    1UNL     H3   32   0.156   0.327  -0.161
    1UNL     H4   33  -0.036   0.006   0.318
    1UNL     H5   34   0.029   0.171   0.292
    1UNL     H6   35  -0.230   0.134   0.266
    1UNL     H7   36  -0.147   0.230   0.144
    1UNL     H8   37  -0.354   0.147  -0.014
    1UNL     H9   38  -0.417   0.068   0.134
    1UNL    H10   39  -0.430  -0.156   0.003
    1UNL    H11   40  -0.508  -0.037  -0.093
    1UNL    H12   41  -0.317   0.002  -0.229
    1UNL    H13   42  -0.332  -0.173  -0.233
    1UNL    H14   43  -0.085  -0.299  -0.132
    1UNL    H15   44  -0.199  -0.300  -0.010
    1UNL    H16   45   0.051  -0.275   0.086
    1UNL    H17   46  -0.242  -0.073   0.283
    1UNL    H18   47  -0.327  -0.167   0.168
    1UNL    H19   48   0.060  -0.109  -0.265
    1UNL    H20   49   0.283  -0.103  -0.371
    1UNL    H21   50   0.278   0.064   0.188
    1UNL    H22   51   0.639   0.110  -0.111
    1UNL    H23   52   0.647  -0.078  -0.096
    1UNL    H24   53  -0.103   0.088  -0.096
   0.00000   0.00000   0.00000   0.00000   0.00000   0.00000   0.00000   0.00000   0.00000
Generated with MDTraj, t= 17.0
 53
    1UNL     C1    1   0.061   0.360  -0.092
    1UNL     O1    2   0.028   0.229  -0.048
    1UNL     C2    3   0.094   0.199   0.065
    1UNL     O2    4   0.177   0.274   0.116
    1UNL     C3    5   0.068   0.064   0.124
    1UNL     C4    6  -0.014   0.083   0.250
    1UNL     C5    7  -0.161   0.111   0.206
    1UNL     C6    8  -0.217   0.004   0.098
    1UNL     C7    9  -0.349   0.063   0.034
    1UNL     C8   10  -0.419  -0.040  -0.053
    1UNL     C9   11  -0.320  -0.110  -0.153
    1UNL     N1   12  -0.175  -0.114  -0.108
    1UNL    C10   13  -0.104  -0.243  -0.057
    1UNL    C11   14  -0.019  -0.193   0.060
    1UNL    C12   15  -0.106  -0.199   0.183
    1UNL     O3   16  -0.070  -0.243   0.289
    1UNL    C13   17  -0.240  -0.136   0.161
    1UNL    C14   18   0.017  -0.043   0.019
    1UNL    C15   19   0.132  -0.059  -0.067
    1UNL    C16   20   0.142  -0.074  -0.204
    1UNL    C17   21   0.270  -0.067  -0.269
    1UNL    C18   22   0.384  -0.045  -0.188
    1UNL    C19   23   0.374  -0.029  -0.050
    1UNL    C20   24   0.247  -0.033   0.015
    1UNL     N2   25   0.208   0.012   0.144
    1UNL     O4   26   0.503  -0.003   0.000
    1UNL    C21   27   0.589  -0.004  -0.114
    1UNL     O5   28   0.514  -0.047  -0.228
    1UNL    C22   29  -0.125  -0.004  -0.024
    1UNL     H1   30   0.062   0.359  -0.207
    1UNL     H2   31  -0.013   0.439  -0.066
    1UNL     H3   32   0.169   0.373  -0.069
    1UNL     H4   33  -0.020  -0.006   0.316
    1UNL     H5   34   0.026   0.171   0.302
    1UNL     H6   35  -0.228   0.118   0.287
    1UNL     H7   36  -0.172   0.200   0.145
    1UNL     H8   37  -0.304   0.150  -0.021
    1UNL     H9   38  -0.416   0.096   0.106
    1UNL    H10   39  -0.475  -0.113   0.015
    1UNL    H11   40  -0.502   0.016  -0.099
    1UNL    H12   41  -0.316  -0.058  -0.249
    1UNL    H13   42  -0.355  -0.206  -0.173
    1UNL    H14   43  -0.042  -0.292  -0.131
    1UNL    H15   44  -0.167  -0.325  -0.034
    1UNL    H16   45   0.064  -0.268   0.072
    1UNL    H17   46  -0.291  -0.126   0.254
    1UNL    H18   47  -0.296  -0.195   0.095
    1UNL    H19   48   0.052  -0.064  -0.264
    1UNL    H20   49   0.286  -0.115  -0.366
    1UNL    H21   50   0.265   0.088   0.184
    1UNL    H22   51   0.615   0.104  -0.124
    1UNL    H23   52   0.678  -0.060  -0.086
    1UNL    H24   53  -0.125   0.095  -0.084
   0.00000   0.00000   0.00000   0.00000   0.00000   0.00000   0.00000   0.00000   0.00000
Generated with MDTraj, t= 18.0
 53
    1UNL     C1    1   0.039   0.361  -0.087
    1UNL     O1    2   0.010   0.232  -0.030
    1UNL     C2    3   0.089   0.200   0.073
    1UNL     O2    4   0.154   0.283   0.131
    1UNL     C3    5   0.076   0.058   0.128
    1UNL     C4    6  -0.021   0.081   0.246
    1UNL     C5    7  -0.169   0.122   0.201
    1UNL     C6    8  -0.222   0.006   0.100
    1UNL     C7    9  -0.365   0.050   0.037
    1UNL     C8   10  -0.409  -0.062  -0.056
    1UNL     C9   11  -0.309  -0.092  -0.167
    1UNL     N1   12  -0.172  -0.108  -0.115
    1UNL    C10   13  -0.119  -0.239  -0.054
    1UNL    C11   14  -0.022  -0.189   0.060
    1UNL    C12   15  -0.094  -0.191   0.191
    1UNL     O3   16  -0.050  -0.243   0.288
    1UNL    C13   17  -0.232  -0.126   0.181
    1UNL    C14   18   0.010  -0.041   0.018
    1UNL    C15   19   0.135  -0.047  -0.076
    1UNL    C16   20   0.150  -0.074  -0.215
    1UNL    C17   21   0.276  -0.071  -0.273
    1UNL    C18   22   0.391  -0.053  -0.192
    1UNL    C19   23   0.375  -0.028  -0.056
    1UNL    C20   24   0.250  -0.012  -0.005
    1UNL     N2   25   0.219   0.023   0.131
    1UNL     O4   26   0.513  -0.019   0.004
    1UNL    C21   27   0.597  -0.042  -0.107
    1UNL     O5   28   0.524  -0.057  -0.230
    1UNL    C22   29  -0.127   0.001  -0.029
    1UNL     H1   30   0.051   0.352  -0.204
    1UNL     H2   31  -0.043   0.429  -0.072
    1UNL     H3   32   0.140   0.392  -0.050
    1UNL     H4   33  -0.024  -0.000   0.322
    1UNL     H5   34   0.013   0.170   0.298
    1UNL     H6   35  -0.240   0.127   0.275
    1UNL     H7   36  -0.177   0.215   0.142
    1UNL     H8   37  -0.348   0.139  -0.028
    1UNL     H9   38  -0.430   0.071   0.114
    1UNL    H10   39  -0.426  -0.150   0.014
    1UNL    H11   40  -0.507  -0.034  -0.101
    1UNL    H12   41  -0.317  -0.005  -0.236
    1UNL    H13   42  -0.329  -0.180  -0.216
    1UNL    H14   43  -0.071  -0.310  -0.120
    1UNL    H15   44  -0.201  -0.297  -0.023
    1UNL    H16   45   0.080  -0.233   0.065
    1UNL    H17   46  -0.277  -0.104   0.277
    1UNL    H18   47  -0.288  -0.191   0.129
    1UNL    H19   48   0.066  -0.095  -0.278
    1UNL    H20   49   0.290  -0.085  -0.379
    1UNL    H21   50   0.272   0.089   0.188
    1UNL    H22   51   0.674   0.036  -0.107
    1UNL    H23   52   0.646  -0.133  -0.079
    1UNL    H24   53  -0.134   0.100  -0.089
   0.00000   0.00000   0.00000   0.00000   0.00000   0.00000   0.00000   0.00000   0.00000
Generated with MDTraj, t= 19.0
 53
    1UNL     C1    1   0.025   0.383  -0.073
    1UNL     O1    2   0.020   0.246  -0.051
    1UNL     C2    3   0.081   0.215   0.066
    1UNL     O2    4   0.141   0.301   0.128
    1UNL     C3    5   0.070   0.077   0.124
    1UNL     C4    6  -0.020   0.088   0.242
    1UNL     C5    7  -0.166   0.108   0.209
    1UNL     C6    8  -0.217   0.003   0.101
    1UNL     C7    9  -0.364   0.040   0.045
    1UNL     C8   10  -0.411  -0.066  -0.052
    1UNL     C9   11  -0.305  -0.099  -0.158
    1UNL     N1   12  -0.164  -0.098  -0.116
    1UNL    C10   13  -0.098  -0.228  -0.067
    1UNL    C11   14  -0.010  -0.181   0.056
    1UNL    C12   15  -0.089  -0.197   0.179
    1UNL     O3   16  -0.047  -0.255   0.275
    1UNL    C13   17  -0.219  -0.132   0.178
    1UNL    C14   18   0.016  -0.028   0.014
    1UNL    C15   19   0.137  -0.039  -0.074
    1UNL    C16   20   0.143  -0.064  -0.213
    1UNL    C17   21   0.268  -0.088  -0.264
    1UNL    C18   22   0.387  -0.073  -0.188
    1UNL    C19   23   0.376  -0.037  -0.051
    1UNL    C20   24   0.252  -0.028   0.004
    1UNL     N2   25   0.211   0.029   0.130
    1UNL     O4   26   0.500  -0.030   0.005
    1UNL    C21   27   0.591  -0.048  -0.105
    1UNL     O5   28   0.522  -0.082  -0.219
    1UNL    C22   29  -0.128   0.005  -0.026
    1UNL     H1   30  -0.055   0.400  -0.158
    1UNL     H2   31  -0.017   0.427   0.015
    1UNL     H3   32   0.127   0.423  -0.101
    1UNL     H4   33  -0.005  -0.001   0.309
    1UNL     H5   34   0.011   0.172   0.304
    1UNL     H6   35  -0.232   0.093   0.287
    1UNL     H7   36  -0.189   0.211   0.175
    1UNL     H8   37  -0.353   0.133  -0.016
    1UNL     H9   38  -0.425   0.059   0.127
    1UNL    H10   39  -0.434  -0.161   0.004
    1UNL    H11   40  -0.505  -0.029  -0.098
    1UNL    H12   41  -0.307  -0.016  -0.232
    1UNL    H13   42  -0.333  -0.189  -0.199
    1UNL    H14   43  -0.037  -0.271  -0.144
    1UNL    H15   44  -0.168  -0.307  -0.045
    1UNL    H16   45   0.090  -0.229   0.070
    1UNL    H17   46  -0.257  -0.120   0.277
    1UNL    H18   47  -0.281  -0.208   0.121
    1UNL    H19   48   0.054  -0.099  -0.268
    1UNL    H20   49   0.271  -0.128  -0.363
    1UNL    H21   50   0.273   0.093   0.180
    1UNL    H22   51   0.644   0.046  -0.113
    1UNL    H23   52   0.663  -0.123  -0.080
    1UNL    H24   53  -0.155   0.107  -0.073
   0.00000   0.00000   0.00000   0.00000   0.00000   0.00000   0.00000   0.00000   0.00000
Generated with MDTraj, t= 20.0
 53
    1UNL     C1    1   0.041   0.378  -0.079
    1UNL     O1    2  -0.011   0.249  -0.040
    1UNL     C2    3   0.057   0.215   0.076
    1UNL     O2    4   0.126   0.294   0.140
    1UNL     C3    5   0.063   0.067   0.126
    1UNL     C4    6  -0.017   0.069   0.250
    1UNL     C5    7  -0.166   0.108   0.213
    1UNL     C6    8  -0.217   0.010   0.093
    1UNL     C7    9  -0.363   0.045   0.055
    1UNL     C8   10  -0.417  -0.054  -0.044
    1UNL     C9   11  -0.322  -0.109  -0.158
    1UNL     N1   12  -0.173  -0.108  -0.121
    1UNL    C10   13  -0.098  -0.229  -0.073
    1UNL    C11   14  -0.003  -0.178   0.046
    1UNL    C12   15  -0.084  -0.190   0.177
    1UNL     O3   16  -0.038  -0.238   0.277
    1UNL    C13   17  -0.222  -0.128   0.171
    1UNL    C14   18   0.024  -0.034   0.013
    1UNL    C15   19   0.143  -0.031  -0.079
    1UNL    C16   20   0.160  -0.062  -0.213
    1UNL    C17   21   0.282  -0.089  -0.272
    1UNL    C18   22   0.391  -0.077  -0.188
    1UNL    C19   23   0.378  -0.029  -0.056
    1UNL    C20   24   0.253  -0.006   0.005
    1UNL     N2   25   0.213   0.039   0.130
    1UNL     O4   26   0.509  -0.004  -0.004
    1UNL    C21   27   0.593  -0.076  -0.101
    1UNL     O5   28   0.523  -0.100  -0.217
    1UNL    C22   29  -0.125   0.000  -0.034
    1UNL     H1   30  -0.040   0.427  -0.143
    1UNL     H2   31   0.047   0.434   0.008
    1UNL     H3   32   0.145   0.379  -0.127
    1UNL     H4   33  -0.007  -0.025   0.310
    1UNL     H5   34   0.027   0.149   0.311
    1UNL     H6   35  -0.233   0.121   0.293
    1UNL     H7   36  -0.166   0.204   0.160
    1UNL     H8   37  -0.348   0.143   0.006
    1UNL     H9   38  -0.420   0.059   0.145
    1UNL    H10   39  -0.456  -0.141   0.014
    1UNL    H11   40  -0.508  -0.012  -0.094
    1UNL    H12   41  -0.343  -0.035  -0.236
    1UNL    H13   42  -0.345  -0.205  -0.192
    1UNL    H14   43  -0.046  -0.262  -0.160
    1UNL    H15   44  -0.157  -0.313  -0.035
    1UNL    H16   45   0.089  -0.239   0.050
    1UNL    H17   46  -0.264  -0.125   0.269
    1UNL    H18   47  -0.277  -0.211   0.108
    1UNL    H19   48   0.070  -0.101  -0.254
    1UNL    H20   49   0.298  -0.133  -0.370
    1UNL    H21   50   0.277   0.084   0.196
    1UNL    H22   51   0.681  -0.016  -0.122
    1UNL    H23   52   0.630  -0.168  -0.059
    1UNL    H24   53  -0.114   0.093  -0.102
   0.00000   0.00000   0.00000   0.00000   0.00000   0.00000   0.00000   0.00000   0.00000
Generated with MDTraj, t= 21.0
 53
    1UNL     C1    1   0.016   0.379  -0.073
    1UNL     O1    2   0.024   0.242  -0.054
    1UNL     C2    3   0.085   0.216   0.064
    1UNL     O2    4   0.134   0.303   0.132
    1UNL     C3    5   0.069   0.074   0.121
    1UNL     C4    6  -0.019   0.075   0.252
    1UNL     C5    7  -0.157   0.110   0.204
    1UNL     C6    8  -0.219   0.006   0.100
    1UNL     C7    9  -0.366   0.032   0.062
    1UNL     C8   10  -0.410  -0.066  -0.053
    1UNL     C9   11  -0.308  -0.090  -0.172
    1UNL     N1   12  -0.170  -0.097  -0.120
    1UNL    C10   13  -0.101  -0.223  -0.063
    1UNL    C11   14  -0.009  -0.184   0.050
    1UNL    C12   15  -0.079  -0.192   0.184
    1UNL     O3   16  -0.046  -0.255   0.281
    1UNL    C13   17  -0.216  -0.122   0.177
    1UNL    C14   18   0.019  -0.028   0.016
    1UNL    C15   19   0.135  -0.031  -0.085
    1UNL    C16   20   0.148  -0.075  -0.214
    1UNL    C17   21   0.275  -0.096  -0.263
    1UNL    C18   22   0.385  -0.077  -0.189
    1UNL    C19   23   0.371  -0.041  -0.056
    1UNL    C20   24   0.247  -0.017   0.001
    1UNL     N2   25   0.211   0.032   0.133
    1UNL     O4   26   0.494  -0.032   0.001
    1UNL    C21   27   0.594  -0.043  -0.101
    1UNL     O5   28   0.523  -0.082  -0.216
    1UNL    C22   29  -0.129   0.008  -0.029
    1UNL     H1   30  -0.017   0.385  -0.179
    1UNL     H2   31  -0.051   0.418  -0.009
    1UNL     H3   32   0.115   0.433  -0.055
    1UNL     H4   33  -0.028  -0.025   0.300
    1UNL     H5   34   0.025   0.146   0.324
    1UNL     H6   35  -0.231   0.109   0.287
    1UNL     H7   36  -0.155   0.210   0.166
    1UNL     H8   37  -0.383   0.137   0.044
    1UNL     H9   38  -0.415   0.003   0.158
    1UNL    H10   39  -0.446  -0.166  -0.020
    1UNL    H11   40  -0.504  -0.022  -0.097
    1UNL    H12   41  -0.300  -0.001  -0.226
    1UNL    H13   42  -0.336  -0.173  -0.232
    1UNL    H14   43  -0.046  -0.268  -0.142
    1UNL    H15   44  -0.174  -0.294  -0.020
    1UNL    H16   45   0.089  -0.235   0.057
    1UNL    H17   46  -0.249  -0.114   0.283
    1UNL    H18   47  -0.284  -0.196   0.128
    1UNL    H19   48   0.061  -0.096  -0.276
    1UNL    H20   49   0.290  -0.133  -0.362
    1UNL    H21   50   0.264   0.105   0.180
    1UNL    H22   51   0.651   0.052  -0.113
    1UNL    H23   52   0.661  -0.120  -0.059
    1UNL    H24   53  -0.135   0.107  -0.083
   0.00000   0.00000   0.00000   0.00000   0.00000   0.00000   0.00000   0.00000   0.00000
Generated with MDTraj, t= 22.0
 53
    1UNL     C1    1   0.040   0.368  -0.090
    1UNL     O1    2   0.020   0.230  -0.050
    1UNL     C2    3   0.080   0.208   0.070
    1UNL     O2    4   0.134   0.292   0.134
    1UNL     C3    5   0.077   0.062   0.126
    1UNL     C4    6  -0.021   0.063   0.246
    1UNL     C5    7  -0.161   0.116   0.202
    1UNL     C6    8  -0.220   0.010   0.101
    1UNL     C7    9  -0.360   0.047   0.049
    1UNL     C8   10  -0.413  -0.054  -0.054
    1UNL     C9   11  -0.314  -0.099  -0.160
    1UNL     N1   12  -0.175  -0.110  -0.116
    1UNL    C10   13  -0.118  -0.234  -0.059
    1UNL    C11   14  -0.015  -0.186   0.053
    1UNL    C12   15  -0.089  -0.194   0.181
    1UNL     O3   16  -0.059  -0.248   0.286
    1UNL    C13   17  -0.221  -0.122   0.172
    1UNL    C14   18   0.016  -0.038   0.020
    1UNL    C15   19   0.138  -0.042  -0.071
    1UNL    C16   20   0.145  -0.074  -0.206
    1UNL    C17   21   0.274  -0.078  -0.264
    1UNL    C18   22   0.386  -0.056  -0.188
    1UNL    C19   23   0.385  -0.026  -0.048
    1UNL    C20   24   0.255  -0.015   0.007
    1UNL     N2   25   0.215   0.028   0.137
    1UNL     O4   26   0.513  -0.015  -0.001
    1UNL    C21   27   0.601  -0.046  -0.113
    1UNL     O5   28   0.514  -0.065  -0.225
    1UNL    C22   29  -0.124   0.000  -0.034
    1UNL     H1   30   0.043   0.366  -0.198
    1UNL     H2   31  -0.029   0.430  -0.048
    1UNL     H3   32   0.137   0.408  -0.054
    1UNL     H4   33  -0.024  -0.035   0.297
    1UNL     H5   34   0.022   0.143   0.310
    1UNL     H6   35  -0.216   0.146   0.298
    1UNL     H7   36  -0.152   0.205   0.145
    1UNL     H8   37  -0.347   0.142   0.005
    1UNL     H9   38  -0.435   0.046   0.135
    1UNL    H10   39  -0.463  -0.135  -0.001
    1UNL    H11   40  -0.498   0.001  -0.107
    1UNL    H12   41  -0.323  -0.034  -0.239
    1UNL    H13   42  -0.333  -0.198  -0.199
    1UNL    H14   43  -0.075  -0.298  -0.134
    1UNL    H15   44  -0.214  -0.281  -0.027
    1UNL    H16   45   0.069  -0.257   0.046
    1UNL    H17   46  -0.261  -0.092   0.276
    1UNL    H18   47  -0.285  -0.195   0.136
    1UNL    H19   48   0.062  -0.074  -0.276
    1UNL    H20   49   0.283  -0.098  -0.372
    1UNL    H21   50   0.273   0.094   0.189
    1UNL    H22   51   0.669   0.044  -0.122
    1UNL    H23   52   0.664  -0.135  -0.093
    1UNL    H24   53  -0.112   0.097  -0.085
   0.00000   0.00000   0.00000   0.00000   0.00000   0.00000   0.00000   0.00000   0.00000
Generated with MDTraj, t= 23.0
 53
    1UNL     C1    1   0.078   0.356  -0.101
    1UNL     O1    2   0.039   0.225  -0.058
    1UNL     C2    3   0.082   0.204   0.069
    1UNL     O2    4   0.138   0.285   0.137
    1UNL     C3    5   0.076   0.059   0.127
    1UNL     C4    6  -0.009   0.061   0.251
    1UNL     C5    7  -0.153   0.107   0.197
    1UNL     C6    8  -0.216   0.010   0.098
    1UNL     C7    9  -0.352   0.060   0.040
    1UNL     C8   10  -0.416  -0.049  -0.054
    1UNL     C9   11  -0.307  -0.105  -0.150
    1UNL     N1   12  -0.165  -0.112  -0.114
    1UNL    C10   13  -0.116  -0.242  -0.050
    1UNL    C11   14  -0.024  -0.197   0.063
    1UNL    C12   15  -0.105  -0.190   0.188
    1UNL     O3   16  -0.069  -0.241   0.292
    1UNL    C13   17  -0.240  -0.126   0.165
    1UNL    C14   18   0.014  -0.041   0.021
    1UNL    C15   19   0.139  -0.048  -0.074
    1UNL    C16   20   0.145  -0.071  -0.210
    1UNL    C17   21   0.271  -0.073  -0.272
    1UNL    C18   22   0.379  -0.049  -0.188
    1UNL    C19   23   0.371  -0.027  -0.052
    1UNL    C20   24   0.249  -0.029   0.007
    1UNL     N2   25   0.214   0.011   0.137
    1UNL     O4   26   0.500   0.004   0.003
    1UNL    C21   27   0.583  -0.014  -0.115
    1UNL     O5   28   0.512  -0.049  -0.228
    1UNL    C22   29  -0.125   0.003  -0.029
    1UNL     H1   30   0.011   0.375  -0.181
    1UNL     H2   31   0.089   0.423  -0.022
    1UNL     H3   32   0.176   0.350  -0.150
    1UNL     H4   33   0.002  -0.041   0.287
    1UNL     H5   34   0.040   0.132   0.322
    1UNL     H6   35  -0.217   0.106   0.293
    1UNL     H7   36  -0.162   0.206   0.164
    1UNL     H8   37  -0.340   0.151  -0.010
    1UNL     H9   38  -0.421   0.072   0.131
    1UNL    H10   39  -0.469  -0.125   0.003
    1UNL    H11   40  -0.502  -0.005  -0.117
    1UNL    H12   41  -0.301  -0.050  -0.236
    1UNL    H13   42  -0.341  -0.202  -0.185
    1UNL    H14   43  -0.046  -0.291  -0.118
    1UNL    H15   44  -0.191  -0.319  -0.018
    1UNL    H16   45   0.069  -0.251   0.090
    1UNL    H17   46  -0.296  -0.125   0.266
    1UNL    H18   47  -0.300  -0.181   0.099
    1UNL    H19   48   0.052  -0.072  -0.263
    1UNL    H20   49   0.294  -0.091  -0.374
    1UNL    H21   50   0.268   0.073   0.198
    1UNL    H22   51   0.642   0.082  -0.133
    1UNL    H23   52   0.654  -0.100  -0.099
    1UNL    H24   53  -0.134   0.093  -0.092
   0.00000   0.00000   0.00000   0.00000   0.00000   0.00000   0.00000   0.00000   0.00000
Generated with MDTraj, t= 24.0
 53
    1UNL     C1    1   0.091   0.341  -0.102
    1UNL     O1    2   0.058   0.214  -0.066
    1UNL     C2    3   0.095   0.192   0.068
    1UNL     O2    4   0.144   0.277   0.140
    1UNL     C3    5   0.072   0.056   0.130
    1UNL     C4    6  -0.027   0.079   0.247
    1UNL     C5    7  -0.158   0.119   0.189
    1UNL     C6    8  -0.222   0.017   0.103
    1UNL     C7    9  -0.361   0.051   0.046
    1UNL     C8   10  -0.408  -0.054  -0.055
    1UNL     C9   11  -0.306  -0.083  -0.168
    1UNL     N1   12  -0.170  -0.112  -0.116
    1UNL    C10   13  -0.121  -0.240  -0.047
    1UNL    C11   14  -0.022  -0.181   0.069
    1UNL    C12   15  -0.110  -0.191   0.192
    1UNL     O3   16  -0.073  -0.254   0.286
    1UNL    C13   17  -0.235  -0.119   0.180
    1UNL    C14   18   0.012  -0.049   0.029
    1UNL    C15   19   0.131  -0.056  -0.065
    1UNL    C16   20   0.147  -0.090  -0.200
    1UNL    C17   21   0.266  -0.087  -0.266
    1UNL    C18   22   0.381  -0.044  -0.196
    1UNL    C19   23   0.377  -0.028  -0.053
    1UNL    C20   24   0.252  -0.040   0.013
    1UNL     N2   25   0.209  -0.001   0.140
    1UNL     O4   26   0.505   0.002  -0.002
    1UNL    C21   27   0.583   0.014  -0.120
    1UNL     O5   28   0.510  -0.015  -0.237
    1UNL    C22   29  -0.127  -0.001  -0.026
    1UNL     H1   30   0.068   0.340  -0.205
    1UNL     H2   31   0.053   0.414  -0.034
    1UNL     H3   32   0.203   0.341  -0.101
    1UNL     H4   33  -0.030  -0.013   0.304
    1UNL     H5   34   0.028   0.153   0.311
    1UNL     H6   35  -0.232   0.148   0.270
    1UNL     H7   36  -0.146   0.212   0.138
    1UNL     H8   37  -0.352   0.142  -0.005
    1UNL     H9   38  -0.443   0.062   0.127
    1UNL    H10   39  -0.427  -0.152  -0.013
    1UNL    H11   40  -0.513  -0.026  -0.096
    1UNL    H12   41  -0.314  -0.008  -0.240
    1UNL    H13   42  -0.329  -0.174  -0.220
    1UNL    H14   43  -0.084  -0.316  -0.121
    1UNL    H15   44  -0.201  -0.300   0.001
    1UNL    H16   45   0.059  -0.253   0.081
    1UNL    H17   46  -0.273  -0.090   0.281
    1UNL    H18   47  -0.319  -0.183   0.135
    1UNL    H19   48   0.055  -0.110  -0.252
    1UNL    H20   49   0.258  -0.113  -0.371
    1UNL    H21   50   0.283   0.047   0.194
    1UNL    H22   51   0.617   0.122  -0.133
    1UNL    H23   52   0.669  -0.054  -0.105
    1UNL    H24   53  -0.120   0.086  -0.091
   0.00000   0.00000   0.00000   0.00000   0.00000   0.00000   0.00000   0.00000   0.00000
Generated with MDTraj, t= 25.0
 53
    1UNL     C1    1   0.099   0.332  -0.114
    1UNL     O1    2   0.059   0.205  -0.070
    1UNL     C2    3   0.089   0.188   0.063
    1UNL     O2    4   0.137   0.273   0.137
    1UNL     C3    5   0.075   0.047   0.131
    1UNL     C4    6  -0.020   0.072   0.254
    1UNL     C5    7  -0.162   0.106   0.204
    1UNL     C6    8  -0.225   0.017   0.097
    1UNL     C7    9  -0.353   0.072   0.040
    1UNL     C8   10  -0.417  -0.022  -0.055
    1UNL     C9   11  -0.315  -0.091  -0.159
    1UNL     N1   12  -0.172  -0.117  -0.109
    1UNL    C10   13  -0.114  -0.246  -0.042
    1UNL    C11   14  -0.027  -0.206   0.070
    1UNL    C12   15  -0.109  -0.192   0.193
    1UNL     O3   16  -0.072  -0.250   0.293
    1UNL    C13   17  -0.239  -0.122   0.169
    1UNL    C14   18   0.017  -0.056   0.024
    1UNL    C15   19   0.135  -0.058  -0.068
    1UNL    C16   20   0.146  -0.077  -0.204
    1UNL    C17   21   0.266  -0.073  -0.265
    1UNL    C18   22   0.380  -0.046  -0.194
    1UNL    C19   23   0.372  -0.019  -0.055
    1UNL    C20   24   0.249  -0.034   0.009
    1UNL     N2   25   0.210  -0.004   0.141
    1UNL     O4   26   0.500   0.027  -0.008
    1UNL    C21   27   0.587   0.016  -0.116
    1UNL     O5   28   0.516  -0.025  -0.235
    1UNL    C22   29  -0.122  -0.008  -0.024
    1UNL     H1   30   0.154   0.321  -0.202
    1UNL     H2   31   0.018   0.404  -0.113
    1UNL     H3   32   0.181   0.365  -0.040
    1UNL     H4   33  -0.009  -0.022   0.305
    1UNL     H5   34   0.029   0.146   0.323
    1UNL     H6   35  -0.229   0.131   0.291
    1UNL     H7   36  -0.152   0.204   0.156
    1UNL     H8   37  -0.344   0.168  -0.008
    1UNL     H9   38  -0.421   0.084   0.130
    1UNL    H10   39  -0.465  -0.100   0.002
    1UNL    H11   40  -0.509   0.021  -0.112
    1UNL    H12   41  -0.302  -0.033  -0.247
    1UNL    H13   42  -0.360  -0.176  -0.201
    1UNL    H14   43  -0.064  -0.301  -0.127
    1UNL    H15   44  -0.190  -0.317  -0.004
    1UNL    H16   45   0.060  -0.268   0.098
    1UNL    H17   46  -0.287  -0.107   0.268
    1UNL    H18   47  -0.316  -0.187   0.109
    1UNL    H19   48   0.050  -0.097  -0.248
    1UNL    H20   49   0.275  -0.065  -0.372
    1UNL    H21   50   0.260   0.070   0.193
    1UNL    H22   51   0.635   0.118  -0.127
    1UNL    H23   52   0.660  -0.059  -0.086
    1UNL    H24   53  -0.120   0.085  -0.081
   0.00000   0.00000   0.00000   0.00000   0.00000   0.00000   0.00000   0.00000   0.00000
Generated with MDTraj, t= 26.0
 53
    1UNL     C1    1   0.085   0.338  -0.107
    1UNL     O1    2   0.069   0.207  -0.073
    1UNL     C2    3   0.080   0.198   0.064
    1UNL     O2    4   0.104   0.292   0.141
    1UNL     C3    5   0.080   0.053   0.126
    1UNL     C4    6  -0.023   0.064   0.255
    1UNL     C5    7  -0.159   0.112   0.208
    1UNL     C6    8  -0.217   0.018   0.099
    1UNL     C7    9  -0.347   0.066   0.039
    1UNL     C8   10  -0.412  -0.045  -0.042
    1UNL     C9   11  -0.311  -0.092  -0.157
    1UNL     N1   12  -0.174  -0.106  -0.106
    1UNL    C10   13  -0.121  -0.234  -0.053
    1UNL    C11   14  -0.024  -0.196   0.065
    1UNL    C12   15  -0.109  -0.198   0.189
    1UNL     O3   16  -0.083  -0.251   0.293
    1UNL    C13   17  -0.237  -0.121   0.172
    1UNL    C14   18   0.022  -0.051   0.023
    1UNL    C15   19   0.142  -0.064  -0.069
    1UNL    C16   20   0.151  -0.084  -0.204
    1UNL    C17   21   0.271  -0.081  -0.269
    1UNL    C18   22   0.384  -0.044  -0.194
    1UNL    C19   23   0.375  -0.029  -0.051
    1UNL    C20   24   0.252  -0.050   0.017
    1UNL     N2   25   0.215   0.010   0.139
    1UNL     O4   26   0.503  -0.001  -0.006
    1UNL    C21   27   0.588   0.008  -0.119
    1UNL     O5   28   0.512  -0.022  -0.239
    1UNL    C22   29  -0.117   0.003  -0.026
    1UNL     H1   30   0.064   0.366  -0.208
    1UNL     H2   31   0.019   0.396  -0.037
    1UNL     H3   32   0.199   0.353  -0.090
    1UNL     H4   33  -0.015  -0.025   0.318
    1UNL     H5   34   0.015   0.150   0.315
    1UNL     H6   35  -0.218   0.116   0.303
    1UNL     H7   36  -0.158   0.223   0.178
    1UNL     H8   37  -0.328   0.157  -0.022
    1UNL     H9   38  -0.421   0.098   0.117
    1UNL    H10   39  -0.455  -0.128   0.011
    1UNL    H11   40  -0.506  -0.004  -0.096
    1UNL    H12   41  -0.312  -0.028  -0.243
    1UNL    H13   42  -0.335  -0.182  -0.199
    1UNL    H14   43  -0.057  -0.280  -0.136
    1UNL    H15   44  -0.210  -0.299  -0.041
    1UNL    H16   45   0.063  -0.263   0.073
    1UNL    H17   46  -0.294  -0.097   0.266
    1UNL    H18   47  -0.301  -0.179   0.109
    1UNL    H19   48   0.059  -0.103  -0.259
    1UNL    H20   49   0.279  -0.070  -0.376
    1UNL    H21   50   0.273   0.092   0.159
    1UNL    H22   51   0.624   0.114  -0.112
    1UNL    H23   52   0.668  -0.062  -0.113
    1UNL    H24   53  -0.100   0.095  -0.079
   0.00000   0.00000   0.00000   0.00000   0.00000   0.00000   0.00000   0.00000   0.00000
Generated with MDTraj, t= 27.0
 53
    1UNL     C1    1   0.086   0.341  -0.100
    1UNL     O1    2   0.072   0.210  -0.059
    1UNL     C2    3   0.075   0.201   0.075
    1UNL     O2    4   0.093   0.298   0.148
    1UNL     C3    5   0.069   0.065   0.131
    1UNL     C4    6  -0.023   0.072   0.259
    1UNL     C5    7  -0.169   0.113   0.211
    1UNL     C6    8  -0.220   0.011   0.106
    1UNL     C7    9  -0.357   0.053   0.044
    1UNL     C8   10  -0.411  -0.045  -0.064
    1UNL     C9   11  -0.307  -0.092  -0.166
    1UNL     N1   12  -0.174  -0.105  -0.112
    1UNL    C10   13  -0.124  -0.229  -0.056
    1UNL    C11   14  -0.016  -0.196   0.060
    1UNL    C12   15  -0.090  -0.199   0.191
    1UNL     O3   16  -0.061  -0.255   0.295
    1UNL    C13   17  -0.226  -0.127   0.179
    1UNL    C14   18   0.022  -0.045   0.022
    1UNL    C15   19   0.138  -0.051  -0.076
    1UNL    C16   20   0.147  -0.083  -0.208
    1UNL    C17   21   0.268  -0.078  -0.276
    1UNL    C18   22   0.383  -0.059  -0.195
    1UNL    C19   23   0.377  -0.025  -0.055
    1UNL    C20   24   0.250  -0.025   0.003
    1UNL     N2   25   0.211   0.026   0.133
    1UNL     O4   26   0.501   0.005  -0.007
    1UNL    C21   27   0.589  -0.022  -0.116
    1UNL     O5   28   0.519  -0.054  -0.234
    1UNL    C22   29  -0.122   0.004  -0.022
    1UNL     H1   30   0.032   0.355  -0.195
    1UNL     H2   31   0.017   0.400  -0.032
    1UNL     H3   32   0.199   0.366  -0.106
    1UNL     H4   33  -0.028  -0.031   0.296
    1UNL     H5   34   0.031   0.135   0.333
    1UNL     H6   35  -0.235   0.130   0.299
    1UNL     H7   36  -0.155   0.219   0.164
    1UNL     H8   37  -0.350   0.155  -0.009
    1UNL     H9   38  -0.437   0.070   0.118
    1UNL    H10   39  -0.462  -0.130  -0.021
    1UNL    H11   40  -0.500  -0.001  -0.126
    1UNL    H12   41  -0.297  -0.013  -0.240
    1UNL    H13   42  -0.333  -0.171  -0.223
    1UNL    H14   43  -0.073  -0.307  -0.125
    1UNL    H15   44  -0.216  -0.275  -0.018
    1UNL    H16   45   0.080  -0.250   0.074
    1UNL    H17   46  -0.270  -0.113   0.283
    1UNL    H18   47  -0.294  -0.181   0.126
    1UNL    H19   48   0.060  -0.086  -0.267
    1UNL    H20   49   0.270  -0.047  -0.381
    1UNL    H21   50   0.270   0.104   0.160
    1UNL    H22   51   0.647   0.068  -0.140
    1UNL    H23   52   0.647  -0.103  -0.082
    1UNL    H24   53  -0.116   0.093  -0.082
   0.00000   0.00000   0.00000   0.00000   0.00000   0.00000   0.00000   0.00000   0.00000
Generated with MDTraj, t= 28.0
 53
    1UNL     C1    1   0.087   0.360  -0.097
    1UNL     O1    2   0.053   0.230  -0.060
    1UNL     C2    3   0.073   0.217   0.074
    1UNL     O2    4   0.100   0.307   0.153
    1UNL     C3    5   0.064   0.065   0.131
    1UNL     C4    6  -0.022   0.073   0.254
    1UNL     C5    7  -0.171   0.099   0.208
    1UNL     C6    8  -0.218   0.008   0.100
    1UNL     C7    9  -0.362   0.045   0.057
    1UNL     C8   10  -0.420  -0.051  -0.055
    1UNL     C9   11  -0.316  -0.099  -0.157
    1UNL     N1   12  -0.172  -0.101  -0.117
    1UNL    C10   13  -0.105  -0.226  -0.065
    1UNL    C11   14  -0.014  -0.182   0.058
    1UNL    C12   15  -0.090  -0.200   0.184
    1UNL     O3   16  -0.045  -0.250   0.284
    1UNL    C13   17  -0.226  -0.137   0.165
    1UNL    C14   18   0.018  -0.035   0.021
    1UNL    C15   19   0.137  -0.041  -0.074
    1UNL    C16   20   0.140  -0.078  -0.207
    1UNL    C17   21   0.271  -0.092  -0.263
    1UNL    C18   22   0.383  -0.063  -0.191
    1UNL    C19   23   0.375  -0.027  -0.057
    1UNL    C20   24   0.249  -0.022   0.006
    1UNL     N2   25   0.211   0.040   0.128
    1UNL     O4   26   0.506  -0.010  -0.004
    1UNL    C21   27   0.590  -0.038  -0.115
    1UNL     O5   28   0.523  -0.079  -0.231
    1UNL    C22   29  -0.124   0.003  -0.024
    1UNL     H1   30   0.100   0.377  -0.205
    1UNL     H2   31  -0.015   0.408  -0.080
    1UNL     H3   32   0.165   0.401  -0.024
    1UNL     H4   33  -0.015  -0.022   0.311
    1UNL     H5   34   0.015   0.156   0.317
    1UNL     H6   35  -0.232   0.082   0.299
    1UNL     H7   36  -0.187   0.213   0.184
    1UNL     H8   37  -0.383   0.153   0.021
    1UNL     H9   38  -0.430   0.033   0.141
    1UNL    H10   39  -0.454  -0.143  -0.001
    1UNL    H11   40  -0.518  -0.014  -0.103
    1UNL    H12   41  -0.314  -0.026  -0.237
    1UNL    H13   42  -0.343  -0.185  -0.206
    1UNL    H14   43  -0.037  -0.264  -0.150
    1UNL    H15   44  -0.176  -0.310  -0.041
    1UNL    H16   45   0.074  -0.248   0.054
    1UNL    H17   46  -0.274  -0.135   0.262
    1UNL    H18   47  -0.285  -0.203   0.101
    1UNL    H19   48   0.048  -0.067  -0.266
    1UNL    H20   49   0.284  -0.109  -0.367
    1UNL    H21   50   0.268   0.122   0.149
    1UNL    H22   51   0.643   0.055  -0.144
    1UNL    H23   52   0.659  -0.115  -0.090
    1UNL    H24   53  -0.119   0.097  -0.072
   0.00000   0.00000   0.00000   0.00000   0.00000   0.00000   0.00000   0.00000   0.00000
Generated with MDTraj, t= 29.0
 53
    1UNL     C1    1   0.056   0.373  -0.078
    1UNL     O1    2   0.051   0.239  -0.063
    1UNL     C2    3   0.072   0.210   0.069
    1UNL     O2    4   0.091   0.293   0.155
    1UNL     C3    5   0.072   0.073   0.121
    1UNL     C4    6  -0.014   0.085   0.242
    1UNL     C5    7  -0.160   0.114   0.198
    1UNL     C6    8  -0.218   0.007   0.098
    1UNL     C7    9  -0.361   0.043   0.061
    1UNL     C8   10  -0.411  -0.069  -0.032
    1UNL     C9   11  -0.319  -0.091  -0.157
    1UNL     N1   12  -0.168  -0.105  -0.127
    1UNL    C10   13  -0.104  -0.229  -0.067
    1UNL    C11   14  -0.006  -0.185   0.052
    1UNL    C12   15  -0.086  -0.188   0.181
    1UNL     O3   16  -0.051  -0.256   0.273
    1UNL    C13   17  -0.222  -0.125   0.180
    1UNL    C14   18   0.018  -0.033   0.016
    1UNL    C15   19   0.134  -0.035  -0.080
    1UNL    C16   20   0.145  -0.078  -0.214
    1UNL    C17   21   0.272  -0.080  -0.274
    1UNL    C18   22   0.389  -0.065  -0.192
    1UNL    C19   23   0.378  -0.037  -0.054
    1UNL    C20   24   0.250  -0.020   0.003
    1UNL     N2   25   0.215   0.032   0.133
    1UNL     O4   26   0.498  -0.012   0.006
    1UNL    C21   27   0.588  -0.056  -0.096
    1UNL     O5   28   0.519  -0.083  -0.225
    1UNL    C22   29  -0.121   0.002  -0.037
    1UNL     H1   30   0.010   0.394  -0.174
    1UNL     H2   31  -0.017   0.414  -0.002
    1UNL     H3   32   0.157   0.416  -0.049
    1UNL     H4   33  -0.006  -0.009   0.301
    1UNL     H5   34   0.015   0.162   0.314
    1UNL     H6   35  -0.221   0.140   0.287
    1UNL     H7   36  -0.153   0.214   0.140
    1UNL     H8   37  -0.377   0.145   0.008
    1UNL     H9   38  -0.436   0.050   0.142
    1UNL    H10   39  -0.430  -0.164   0.028
    1UNL    H11   40  -0.518  -0.042  -0.062
    1UNL    H12   41  -0.342  -0.018  -0.234
    1UNL    H13   42  -0.341  -0.184  -0.198
    1UNL    H14   43  -0.058  -0.276  -0.161
    1UNL    H15   44  -0.167  -0.307  -0.015
    1UNL    H16   45   0.086  -0.244   0.055
    1UNL    H17   46  -0.252  -0.109   0.278
    1UNL    H18   47  -0.292  -0.208   0.139
    1UNL    H19   48   0.060  -0.079  -0.275
    1UNL    H20   49   0.272  -0.083  -0.384
    1UNL    H21   50   0.272   0.107   0.170
    1UNL    H22   51   0.666   0.025  -0.106
    1UNL    H23   52   0.638  -0.148  -0.070
    1UNL    H24   53  -0.130   0.091  -0.096
   0.00000   0.00000   0.00000   0.00000   0.00000   0.00000   0.00000   0.00000   0.00000
Generated with MDTraj, t= 30.0
 53
    1UNL     C1    1   0.041   0.360  -0.100
    1UNL     O1    2   0.015   0.230  -0.059
    1UNL     C2    3   0.073   0.213   0.069
    1UNL     O2    4   0.127   0.295   0.139
    1UNL     C3    5   0.069   0.074   0.124
    1UNL     C4    6  -0.018   0.072   0.248
    1UNL     C5    7  -0.162   0.098   0.210
    1UNL     C6    8  -0.218  -0.006   0.102
    1UNL     C7    9  -0.359   0.045   0.062
    1UNL     C8   10  -0.419  -0.044  -0.048
    1UNL     C9   11  -0.317  -0.088  -0.161
    1UNL     N1   12  -0.167  -0.103  -0.119
    1UNL    C10   13  -0.099  -0.225  -0.064
    1UNL    C11   14  -0.012  -0.182   0.052
    1UNL    C12   15  -0.092  -0.191   0.183
    1UNL     O3   16  -0.042  -0.240   0.280
    1UNL    C13   17  -0.228  -0.141   0.168
    1UNL    C14   18   0.018  -0.029   0.015
    1UNL    C15   19   0.143  -0.028  -0.079
    1UNL    C16   20   0.145  -0.070  -0.213
    1UNL    C17   21   0.273  -0.079  -0.264
    1UNL    C18   22   0.388  -0.059  -0.189
    1UNL    C19   23   0.381  -0.029  -0.052
    1UNL    C20   24   0.258  -0.020   0.005
    1UNL     N2   25   0.211   0.032   0.135
    1UNL     O4   26   0.507  -0.030   0.008
    1UNL    C21   27   0.595  -0.051  -0.103
    1UNL     O5   28   0.522  -0.081  -0.225
    1UNL    C22   29  -0.129   0.006  -0.027
    1UNL     H1   30   0.021   0.374  -0.203
    1UNL     H2   31  -0.011   0.430  -0.029
    1UNL     H3   32   0.144   0.379  -0.068
    1UNL     H4   33  -0.010  -0.008   0.327
    1UNL     H5   34   0.014   0.153   0.314
    1UNL     H6   35  -0.222   0.085   0.306
    1UNL     H7   36  -0.179   0.206   0.183
    1UNL     H8   37  -0.364   0.152   0.023
    1UNL     H9   38  -0.429   0.054   0.147
    1UNL    H10   39  -0.467  -0.135   0.005
    1UNL    H11   40  -0.508   0.007  -0.096
    1UNL    H12   41  -0.325  -0.026  -0.247
    1UNL    H13   42  -0.345  -0.188  -0.186
    1UNL    H14   43  -0.043  -0.274  -0.151
    1UNL    H15   44  -0.171  -0.303  -0.025
    1UNL    H16   45   0.080  -0.243   0.058
    1UNL    H17   46  -0.279  -0.133   0.259
    1UNL    H18   47  -0.289  -0.211   0.105
    1UNL    H19   48   0.061  -0.070  -0.284
    1UNL    H20   49   0.298  -0.096  -0.365
    1UNL    H21   50   0.254   0.100   0.197
    1UNL    H22   51   0.659   0.041  -0.128
    1UNL    H23   52   0.663  -0.131  -0.077
    1UNL    H24   53  -0.130   0.098  -0.081
   0.00000   0.00000   0.00000   0.00000   0.00000   0.00000   0.00000   0.00000   0.00000
Generated with MDTraj, t= 31.0
 53
    1UNL     C1    1   0.033   0.364  -0.085
    1UNL     O1    2   0.015   0.234  -0.045
    1UNL     C2    3   0.085   0.210   0.068
    1UNL     O2    4   0.157   0.284   0.128
    1UNL     C3    5   0.068   0.067   0.127
    1UNL     C4    6  -0.019   0.080   0.247
    1UNL     C5    7  -0.171   0.115   0.204
    1UNL     C6    8  -0.220   0.012   0.097
    1UNL     C7    9  -0.363   0.052   0.047
    1UNL     C8   10  -0.407  -0.056  -0.059
    1UNL     C9   11  -0.309  -0.099  -0.167
    1UNL     N1   12  -0.167  -0.104  -0.124
    1UNL    C10   13  -0.117  -0.233  -0.055
    1UNL    C11   14  -0.019  -0.186   0.059
    1UNL    C12   15  -0.091  -0.200   0.192
    1UNL     O3   16  -0.053  -0.269   0.285
    1UNL    C13   17  -0.225  -0.120   0.183
    1UNL    C14   18   0.017  -0.036   0.019
    1UNL    C15   19   0.133  -0.040  -0.077
    1UNL    C16   20   0.146  -0.074  -0.213
    1UNL    C17   21   0.276  -0.083  -0.264
    1UNL    C18   22   0.393  -0.054  -0.191
    1UNL    C19   23   0.379  -0.021  -0.050
    1UNL    C20   24   0.248  -0.021   0.002
    1UNL     N2   25   0.211   0.016   0.134
    1UNL     O4   26   0.507  -0.010   0.004
    1UNL    C21   27   0.595  -0.043  -0.110
    1UNL     O5   28   0.521  -0.066  -0.228
    1UNL    C22   29  -0.124   0.007  -0.030
    1UNL     H1   30  -0.025   0.378  -0.172
    1UNL     H2   31   0.031   0.439  -0.005
    1UNL     H3   32   0.138   0.362  -0.111
    1UNL     H4   33  -0.015  -0.008   0.315
    1UNL     H5   34   0.022   0.151   0.319
    1UNL     H6   35  -0.245   0.140   0.291
    1UNL     H7   36  -0.164   0.207   0.145
    1UNL     H8   37  -0.371   0.156   0.011
    1UNL     H9   38  -0.445   0.062   0.125
    1UNL    H10   39  -0.438  -0.151  -0.003
    1UNL    H11   40  -0.502  -0.025  -0.110
    1UNL    H12   41  -0.311  -0.025  -0.242
    1UNL    H13   42  -0.329  -0.197  -0.206
    1UNL    H14   43  -0.064  -0.300  -0.125
    1UNL    H15   44  -0.214  -0.285  -0.024
    1UNL    H16   45   0.073  -0.250   0.066
    1UNL    H17   46  -0.269  -0.096   0.279
    1UNL    H18   47  -0.294  -0.180   0.138
    1UNL    H19   48   0.059  -0.074  -0.275
    1UNL    H20   49   0.290  -0.079  -0.374
    1UNL    H21   50   0.274   0.071   0.192
    1UNL    H22   51   0.668   0.043  -0.139
    1UNL    H23   52   0.658  -0.131  -0.094
    1UNL    H24   53  -0.116   0.098  -0.080
   0.00000   0.00000   0.00000   0.00000   0.00000   0.00000   0.00000   0.00000   0.00000
Generated with MDTraj, t= 32.0
 53
    1UNL     C1    1   0.046   0.383  -0.068
    1UNL     O1    2   0.015   0.250  -0.038
    1UNL     C2    3   0.094   0.206   0.065
    1UNL     O2    4   0.180   0.273   0.118
    1UNL     C3    5   0.062   0.063   0.124
    1UNL     C4    6  -0.020   0.070   0.247
    1UNL     C5    7  -0.162   0.112   0.198
    1UNL     C6    8  -0.215   0.010   0.095
    1UNL     C7    9  -0.348   0.053   0.037
    1UNL     C8   10  -0.410  -0.058  -0.057
    1UNL     C9   11  -0.313  -0.110  -0.159
    1UNL     N1   12  -0.171  -0.110  -0.117
    1UNL    C10   13  -0.112  -0.234  -0.057
    1UNL    C11   14  -0.015  -0.191   0.063
    1UNL    C12   15  -0.098  -0.190   0.188
    1UNL     O3   16  -0.076  -0.235   0.298
    1UNL    C13   17  -0.233  -0.126   0.171
    1UNL    C14   18   0.021  -0.039   0.016
    1UNL    C15   19   0.135  -0.054  -0.078
    1UNL    C16   20   0.149  -0.090  -0.210
    1UNL    C17   21   0.273  -0.085  -0.266
    1UNL    C18   22   0.386  -0.060  -0.188
    1UNL    C19   23   0.375  -0.034  -0.051
    1UNL    C20   24   0.245  -0.041   0.009
    1UNL     N2   25   0.204   0.007   0.136
    1UNL     O4   26   0.504  -0.005  -0.000
    1UNL    C21   27   0.586  -0.009  -0.116
    1UNL     O5   28   0.518  -0.046  -0.230
    1UNL    C22   29  -0.119  -0.003  -0.031
    1UNL     H1   30  -0.013   0.415  -0.151
    1UNL     H2   31   0.050   0.452   0.016
    1UNL     H3   32   0.143   0.366  -0.108
    1UNL     H4   33  -0.037  -0.022   0.306
    1UNL     H5   34   0.021   0.135   0.323
    1UNL     H6   35  -0.246   0.118   0.282
    1UNL     H7   36  -0.152   0.210   0.158
    1UNL     H8   37  -0.341   0.144  -0.019
    1UNL     H9   38  -0.418   0.095   0.118
    1UNL    H10   39  -0.451  -0.143   0.009
    1UNL    H11   40  -0.502  -0.026  -0.112
    1UNL    H12   41  -0.309  -0.050  -0.243
    1UNL    H13   42  -0.335  -0.213  -0.188
    1UNL    H14   43  -0.053  -0.288  -0.132
    1UNL    H15   44  -0.203  -0.299  -0.034
    1UNL    H16   45   0.083  -0.240   0.080
    1UNL    H17   46  -0.287  -0.121   0.265
    1UNL    H18   47  -0.293  -0.186   0.109
    1UNL    H19   48   0.062  -0.095  -0.272
    1UNL    H20   49   0.280  -0.075  -0.369
    1UNL    H21   50   0.264   0.077   0.179
    1UNL    H22   51   0.636   0.095  -0.133
    1UNL    H23   52   0.670  -0.081  -0.114
    1UNL    H24   53  -0.125   0.088  -0.080
   0.00000   0.00000   0.00000   0.00000   0.00000   0.00000   0.00000   0.00000   0.00000
Generated with MDTraj, t= 33.0
 53
    1UNL     C1    1   0.040   0.370  -0.074
    1UNL     O1    2   0.006   0.240  -0.024
    1UNL     C2    3   0.091   0.192   0.071
    1UNL     O2    4   0.186   0.257   0.106
    1UNL     C3    5   0.071   0.051   0.127
    1UNL     C4    6  -0.022   0.069   0.246
    1UNL     C5    7  -0.160   0.125   0.187
    1UNL     C6    8  -0.217   0.015   0.089
    1UNL     C7    9  -0.354   0.058   0.029
    1UNL     C8   10  -0.411  -0.044  -0.064
    1UNL     C9   11  -0.312  -0.097  -0.167
    1UNL     N1   12  -0.166  -0.121  -0.114
    1UNL    C10   13  -0.116  -0.243  -0.053
    1UNL    C11   14  -0.022  -0.198   0.072
    1UNL    C12   15  -0.105  -0.188   0.197
    1UNL     O3   16  -0.073  -0.235   0.303
    1UNL    C13   17  -0.231  -0.116   0.174
    1UNL    C14   18   0.021  -0.055   0.019
    1UNL    C15   19   0.142  -0.055  -0.073
    1UNL    C16   20   0.154  -0.078  -0.206
    1UNL    C17   21   0.277  -0.080  -0.267
    1UNL    C18   22   0.381  -0.043  -0.192
    1UNL    C19   23   0.375  -0.024  -0.053
    1UNL    C20   24   0.253  -0.037   0.014
    1UNL     N2   25   0.207  -0.004   0.150
    1UNL     O4   26   0.505   0.006  -0.008
    1UNL    C21   27   0.586  -0.007  -0.117
    1UNL     O5   28   0.514  -0.041  -0.237
    1UNL    C22   29  -0.119  -0.010  -0.030
    1UNL     H1   30  -0.015   0.400  -0.166
    1UNL     H2   31   0.030   0.445   0.008
    1UNL     H3   32   0.137   0.356  -0.111
    1UNL     H4   33  -0.051  -0.011   0.317
    1UNL     H5   34   0.018   0.148   0.309
    1UNL     H6   35  -0.232   0.149   0.274
    1UNL     H7   36  -0.140   0.217   0.136
    1UNL     H8   37  -0.353   0.152  -0.018
    1UNL     H9   38  -0.431   0.085   0.111
    1UNL    H10   39  -0.462  -0.128  -0.007
    1UNL    H11   40  -0.493   0.009  -0.120
    1UNL    H12   41  -0.307  -0.033  -0.247
    1UNL    H13   42  -0.344  -0.194  -0.206
    1UNL    H14   43  -0.067  -0.299  -0.134
    1UNL    H15   44  -0.201  -0.307  -0.016
    1UNL    H16   45   0.057  -0.275   0.080
    1UNL    H17   46  -0.293  -0.093   0.257
    1UNL    H18   47  -0.291  -0.187   0.107
    1UNL    H19   48   0.063  -0.098  -0.261
    1UNL    H20   49   0.288  -0.093  -0.376
    1UNL    H21   50   0.264   0.069   0.195
    1UNL    H22   51   0.636   0.093  -0.138
    1UNL    H23   52   0.667  -0.075  -0.100
    1UNL    H24   53  -0.106   0.074  -0.090
   0.00000   0.00000   0.00000   0.00000   0.00000   0.00000   0.00000   0.00000   0.00000
Generated with MDTraj, t= 34.0
 53
    1UNL     C1    1   0.029   0.366  -0.095
    1UNL     O1    2   0.010   0.240  -0.036
    1UNL     C2    3   0.093   0.197   0.061
    1UNL     O2    4   0.182   0.269   0.100
    1UNL     C3    5   0.078   0.055   0.125
    1UNL     C4    6  -0.016   0.077   0.248
    1UNL     C5    7  -0.156   0.114   0.189
    1UNL     C6    8  -0.216   0.009   0.091
    1UNL     C7    9  -0.355   0.056   0.042
    1UNL     C8   10  -0.409  -0.042  -0.062
    1UNL     C9   11  -0.302  -0.090  -0.170
    1UNL     N1   12  -0.160  -0.112  -0.109
    1UNL    C10   13  -0.109  -0.239  -0.050
    1UNL    C11   14  -0.021  -0.198   0.068
    1UNL    C12   15  -0.107  -0.189   0.199
    1UNL     O3   16  -0.087  -0.260   0.294
    1UNL    C13   17  -0.232  -0.117   0.177
    1UNL    C14   18   0.017  -0.048   0.023
    1UNL    C15   19   0.133  -0.055  -0.064
    1UNL    C16   20   0.142  -0.082  -0.198
    1UNL    C17   21   0.266  -0.079  -0.269
    1UNL    C18   22   0.383  -0.051  -0.196
    1UNL    C19   23   0.377  -0.029  -0.053
    1UNL    C20   24   0.250  -0.034   0.010
    1UNL     N2   25   0.214   0.000   0.141
    1UNL     O4   26   0.505  -0.016   0.000
    1UNL    C21   27   0.592  -0.003  -0.105
    1UNL     O5   28   0.518  -0.028  -0.233
    1UNL    C22   29  -0.117  -0.002  -0.024
    1UNL     H1   30  -0.062   0.399  -0.156
    1UNL     H2   31   0.036   0.435  -0.004
    1UNL     H3   32   0.108   0.365  -0.163
    1UNL     H4   33  -0.016  -0.014   0.307
    1UNL     H5   34   0.008   0.162   0.313
    1UNL     H6   35  -0.223   0.134   0.274
    1UNL     H7   36  -0.134   0.208   0.138
    1UNL     H8   37  -0.352   0.154   0.005
    1UNL     H9   38  -0.433   0.073   0.126
    1UNL    H10   39  -0.460  -0.127  -0.008
    1UNL    H11   40  -0.488   0.016  -0.120
    1UNL    H12   41  -0.291  -0.022  -0.248
    1UNL    H13   42  -0.336  -0.183  -0.217
    1UNL    H14   43  -0.048  -0.287  -0.126
    1UNL    H15   44  -0.176  -0.317  -0.008
    1UNL    H16   45   0.072  -0.253   0.089
    1UNL    H17   46  -0.275  -0.094   0.272
    1UNL    H18   47  -0.311  -0.184   0.125
    1UNL    H19   48   0.052  -0.088  -0.256
    1UNL    H20   49   0.260  -0.085  -0.375
    1UNL    H21   50   0.275   0.051   0.206
    1UNL    H22   51   0.640   0.097  -0.111
    1UNL    H23   52   0.672  -0.070  -0.092
    1UNL    H24   53  -0.119   0.081  -0.088
   0.00000   0.00000   0.00000   0.00000   0.00000   0.00000   0.00000   0.00000   0.00000
Generated with MDTraj, t= 35.0
 53
    1UNL     C1    1   0.047   0.364  -0.097
    1UNL     O1    2   0.005   0.243  -0.037
    1UNL     C2    3   0.087   0.198   0.065
    1UNL     O2    4   0.169   0.272   0.119
    1UNL     C3    5   0.075   0.057   0.130
    1UNL     C4    6  -0.019   0.067   0.254
    1UNL     C5    7  -0.157   0.110   0.194
    1UNL     C6    8  -0.215   0.011   0.102
    1UNL     C7    9  -0.357   0.055   0.046
    1UNL     C8   10  -0.416  -0.052  -0.051
    1UNL     C9   11  -0.321  -0.106  -0.159
    1UNL     N1   12  -0.172  -0.109  -0.120
    1UNL    C10   13  -0.116  -0.240  -0.061
    1UNL    C11   14  -0.024  -0.189   0.060
    1UNL    C12   15  -0.101  -0.191   0.185
    1UNL     O3   16  -0.060  -0.233   0.289
    1UNL    C13   17  -0.232  -0.124   0.169
    1UNL    C14   18   0.013  -0.044   0.017
    1UNL    C15   19   0.140  -0.042  -0.072
    1UNL    C16   20   0.151  -0.071  -0.203
    1UNL    C17   21   0.273  -0.078  -0.269
    1UNL    C18   22   0.389  -0.048  -0.191
    1UNL    C19   23   0.378  -0.024  -0.051
    1UNL    C20   24   0.252  -0.025   0.008
    1UNL     N2   25   0.215   0.005   0.137
    1UNL     O4   26   0.509  -0.004   0.001
    1UNL    C21   27   0.593  -0.022  -0.105
    1UNL     O5   28   0.524  -0.059  -0.226
    1UNL    C22   29  -0.131  -0.001  -0.027
    1UNL     H1   30  -0.015   0.393  -0.189
    1UNL     H2   31   0.012   0.438  -0.016
    1UNL     H3   32   0.150   0.370  -0.112
    1UNL     H4   33  -0.019  -0.028   0.306
    1UNL     H5   34   0.020   0.145   0.318
    1UNL     H6   35  -0.224   0.119   0.276
    1UNL     H7   36  -0.136   0.203   0.138
    1UNL     H8   37  -0.349   0.143  -0.015
    1UNL     H9   38  -0.431   0.098   0.118
    1UNL    H10   39  -0.454  -0.136   0.009
    1UNL    H11   40  -0.506  -0.006  -0.107
    1UNL    H12   41  -0.335  -0.052  -0.248
    1UNL    H13   42  -0.341  -0.210  -0.185
    1UNL    H14   43  -0.070  -0.298  -0.143
    1UNL    H15   44  -0.201  -0.302  -0.033
    1UNL    H16   45   0.063  -0.257   0.058
    1UNL    H17   46  -0.292  -0.113   0.262
    1UNL    H18   47  -0.302  -0.185   0.111
    1UNL    H19   48   0.061  -0.091  -0.259
    1UNL    H20   49   0.282  -0.103  -0.373
    1UNL    H21   50   0.270   0.071   0.193
    1UNL    H22   51   0.648   0.071  -0.126
    1UNL    H23   52   0.664  -0.098  -0.093
    1UNL    H24   53  -0.125   0.095  -0.073
   0.00000   0.00000   0.00000   0.00000   0.00000   0.00000   0.00000   0.00000   0.00000
Generated with MDTraj, t= 36.0
 53
    1UNL     C1    1   0.055   0.380  -0.082
    1UNL     O1    2   0.028   0.246  -0.058
    1UNL     C2    3   0.081   0.215   0.065
    1UNL     O2    4   0.147   0.289   0.139
    1UNL     C3    5   0.066   0.072   0.117
    1UNL     C4    6  -0.017   0.074   0.243
    1UNL     C5    7  -0.163   0.116   0.198
    1UNL     C6    8  -0.219   0.010   0.108
    1UNL     C7    9  -0.357   0.037   0.047
    1UNL     C8   10  -0.414  -0.069  -0.052
    1UNL     C9   11  -0.316  -0.103  -0.156
    1UNL     N1   12  -0.172  -0.100  -0.119
    1UNL    C10   13  -0.118  -0.230  -0.064
    1UNL    C11   14  -0.018  -0.196   0.059
    1UNL    C12   15  -0.093  -0.192   0.186
    1UNL     O3   16  -0.042  -0.249   0.280
    1UNL    C13   17  -0.226  -0.126   0.181
    1UNL    C14   18   0.016  -0.040   0.021
    1UNL    C15   19   0.132  -0.042  -0.077
    1UNL    C16   20   0.155  -0.076  -0.213
    1UNL    C17   21   0.278  -0.083  -0.274
    1UNL    C18   22   0.386  -0.065  -0.189
    1UNL    C19   23   0.373  -0.030  -0.050
    1UNL    C20   24   0.245  -0.018   0.003
    1UNL     N2   25   0.204   0.017   0.131
    1UNL     O4   26   0.501  -0.016   0.005
    1UNL    C21   27   0.587  -0.036  -0.101
    1UNL     O5   28   0.520  -0.068  -0.222
    1UNL    C22   29  -0.127   0.003  -0.025
    1UNL     H1   30  -0.009   0.425  -0.167
    1UNL     H2   31   0.002   0.431   0.008
    1UNL     H3   32   0.156   0.398  -0.070
    1UNL     H4   33   0.000  -0.018   0.296
    1UNL     H5   34   0.041   0.143   0.305
    1UNL     H6   35  -0.221   0.138   0.281
    1UNL     H7   36  -0.146   0.203   0.131
    1UNL     H8   37  -0.358   0.137   0.008
    1UNL     H9   38  -0.427   0.054   0.127
    1UNL    H10   39  -0.445  -0.159  -0.001
    1UNL    H11   40  -0.510  -0.031  -0.108
    1UNL    H12   41  -0.313  -0.037  -0.241
    1UNL    H13   42  -0.339  -0.200  -0.197
    1UNL    H14   43  -0.060  -0.283  -0.140
    1UNL    H15   44  -0.205  -0.288  -0.042
    1UNL    H16   45   0.084  -0.239   0.074
    1UNL    H17   46  -0.271  -0.123   0.287
    1UNL    H18   47  -0.300  -0.186   0.139
    1UNL    H19   48   0.068  -0.088  -0.273
    1UNL    H20   49   0.289  -0.109  -0.380
    1UNL    H21   50   0.266   0.079   0.186
    1UNL    H22   51   0.641   0.057  -0.123
    1UNL    H23   52   0.654  -0.118  -0.087
    1UNL    H24   53  -0.129   0.097  -0.078
   0.00000   0.00000   0.00000   0.00000   0.00000   0.00000   0.00000   0.00000   0.00000
Generated with MDTraj, t= 37.0
 53
    1UNL     C1    1   0.054   0.363  -0.092
    1UNL     O1    2   0.030   0.235  -0.056
    1UNL     C2    3   0.074   0.216   0.072
    1UNL     O2    4   0.111   0.304   0.147
    1UNL     C3    5   0.072   0.073   0.132
    1UNL     C4    6  -0.031   0.076   0.257
    1UNL     C5    7  -0.171   0.110   0.203
    1UNL     C6    8  -0.229   0.004   0.105
    1UNL     C7    9  -0.367   0.043   0.055
    1UNL     C8   10  -0.411  -0.060  -0.050
    1UNL     C9   11  -0.308  -0.099  -0.164
    1UNL     N1   12  -0.168  -0.102  -0.116
    1UNL    C10   13  -0.097  -0.222  -0.070
    1UNL    C11   14  -0.005  -0.180   0.050
    1UNL    C12   15  -0.084  -0.195   0.178
    1UNL     O3   16  -0.053  -0.250   0.279
    1UNL    C13   17  -0.221  -0.130   0.177
    1UNL    C14   18   0.015  -0.028   0.025
    1UNL    C15   19   0.135  -0.030  -0.078
    1UNL    C16   20   0.147  -0.072  -0.212
    1UNL    C17   21   0.274  -0.087  -0.266
    1UNL    C18   22   0.385  -0.065  -0.191
    1UNL    C19   23   0.381  -0.029  -0.055
    1UNL    C20   24   0.253  -0.015  -0.001
    1UNL     N2   25   0.214   0.029   0.126
    1UNL     O4   26   0.510  -0.025  -0.004
    1UNL    C21   27   0.599  -0.054  -0.108
    1UNL     O5   28   0.518  -0.082  -0.225
    1UNL    C22   29  -0.134   0.007  -0.017
    1UNL     H1   30   0.010   0.384  -0.194
    1UNL     H2   31   0.004   0.438  -0.024
    1UNL     H3   32   0.153   0.372  -0.077
    1UNL     H4   33  -0.018  -0.019   0.305
    1UNL     H5   34   0.000   0.139   0.340
    1UNL     H6   35  -0.229   0.109   0.288
    1UNL     H7   36  -0.167   0.210   0.156
    1UNL     H8   37  -0.364   0.147   0.026
    1UNL     H9   38  -0.433   0.050   0.135
    1UNL    H10   39  -0.438  -0.152  -0.002
    1UNL    H11   40  -0.507  -0.020  -0.103
    1UNL    H12   41  -0.318  -0.036  -0.252
    1UNL    H13   42  -0.313  -0.198  -0.201
    1UNL    H14   43  -0.027  -0.244  -0.151
    1UNL    H15   44  -0.160  -0.304  -0.051
    1UNL    H16   45   0.079  -0.252   0.060
    1UNL    H17   46  -0.265  -0.123   0.283
    1UNL    H18   47  -0.293  -0.194   0.135
    1UNL    H19   48   0.050  -0.092  -0.256
    1UNL    H20   49   0.290  -0.115  -0.366
    1UNL    H21   50   0.284   0.090   0.173
    1UNL    H22   51   0.665   0.031  -0.141
    1UNL    H23   52   0.650  -0.146  -0.084
    1UNL    H24   53  -0.115   0.103  -0.065
   0.00000   0.00000   0.00000   0.00000   0.00000   0.00000   0.00000   0.00000   0.00000
Generated with MDTraj, t= 38.0
 53
    1UNL     C1    1   0.051   0.364  -0.089
    1UNL     O1    2   0.050   0.230  -0.065
    1UNL     C2    3   0.067   0.213   0.069
    1UNL     O2    4   0.091   0.303   0.145
    1UNL     C3    5   0.069   0.070   0.126
    1UNL     C4    6  -0.018   0.073   0.251
    1UNL     C5    7  -0.161   0.102   0.209
    1UNL     C6    8  -0.224   0.007   0.102
    1UNL     C7    9  -0.353   0.053   0.051
    1UNL     C8   10  -0.411  -0.048  -0.048
    1UNL     C9   11  -0.308  -0.088  -0.162
    1UNL     N1   12  -0.168  -0.111  -0.111
    1UNL    C10   13  -0.093  -0.233  -0.077
    1UNL    C11   14  -0.015  -0.195   0.055
    1UNL    C12   15  -0.091  -0.193   0.191
    1UNL     O3   16  -0.046  -0.247   0.290
    1UNL    C13   17  -0.224  -0.130   0.173
    1UNL    C14   18   0.016  -0.042   0.026
    1UNL    C15   19   0.137  -0.040  -0.076
    1UNL    C16   20   0.147  -0.065  -0.212
    1UNL    C17   21   0.266  -0.073  -0.274
    1UNL    C18   22   0.380  -0.063  -0.193
    1UNL    C19   23   0.374  -0.027  -0.059
    1UNL    C20   24   0.250  -0.012   0.001
    1UNL     N2   25   0.209   0.034   0.134
    1UNL     O4   26   0.499  -0.013  -0.005
    1UNL    C21   27   0.596  -0.059  -0.100
    1UNL     O5   28   0.519  -0.084  -0.224
    1UNL    C22   29  -0.116  -0.001  -0.025
    1UNL     H1   30   0.044   0.380  -0.197
    1UNL     H2   31  -0.021   0.423  -0.028
    1UNL     H3   32   0.141   0.392  -0.057
    1UNL     H4   33  -0.011  -0.023   0.299
    1UNL     H5   34   0.025   0.141   0.324
    1UNL     H6   35  -0.217   0.105   0.298
    1UNL     H7   36  -0.156   0.201   0.161
    1UNL     H8   37  -0.347   0.154   0.009
    1UNL     H9   38  -0.412   0.067   0.133
    1UNL    H10   39  -0.450  -0.136   0.004
    1UNL    H11   40  -0.496   0.011  -0.101
    1UNL    H12   41  -0.285  -0.015  -0.242
    1UNL    H13   42  -0.343  -0.172  -0.213
    1UNL    H14   43  -0.032  -0.269  -0.158
    1UNL    H15   44  -0.156  -0.308  -0.040
    1UNL    H16   45   0.078  -0.255   0.067
    1UNL    H17   46  -0.268  -0.120   0.276
    1UNL    H18   47  -0.294  -0.210   0.129
    1UNL    H19   48   0.059  -0.078  -0.270
    1UNL    H20   49   0.286  -0.082  -0.382
    1UNL    H21   50   0.267   0.098   0.190
    1UNL    H22   51   0.662   0.030  -0.128
    1UNL    H23   52   0.647  -0.153  -0.072
    1UNL    H24   53  -0.112   0.093  -0.082
   0.00000   0.00000   0.00000   0.00000   0.00000   0.00000   0.00000   0.00000   0.00000
Generated with MDTraj, t= 39.0
 53
    1UNL     C1    1   0.060   0.360  -0.096
    1UNL     O1    2   0.066   0.223  -0.064
    1UNL     C2    3   0.070   0.213   0.076
    1UNL     O2    4   0.086   0.307   0.150
    1UNL     C3    5   0.073   0.063   0.128
    1UNL     C4    6  -0.021   0.072   0.253
    1UNL     C5    7  -0.161   0.116   0.207
    1UNL     C6    8  -0.218   0.014   0.109
    1UNL     C7    9  -0.355   0.051   0.048
    1UNL     C8   10  -0.421  -0.060  -0.042
    1UNL     C9   11  -0.323  -0.090  -0.156
    1UNL     N1   12  -0.177  -0.107  -0.127
    1UNL    C10   13  -0.111  -0.231  -0.072
    1UNL    C11   14  -0.020  -0.185   0.053
    1UNL    C12   15  -0.097  -0.193   0.182
    1UNL     O3   16  -0.055  -0.250   0.281
    1UNL    C13   17  -0.230  -0.123   0.182
    1UNL    C14   18   0.019  -0.043   0.021
    1UNL    C15   19   0.148  -0.054  -0.072
    1UNL    C16   20   0.153  -0.086  -0.207
    1UNL    C17   21   0.276  -0.087  -0.271
    1UNL    C18   22   0.390  -0.063  -0.192
    1UNL    C19   23   0.380  -0.033  -0.054
    1UNL    C20   24   0.256  -0.029   0.012
    1UNL     N2   25   0.216   0.028   0.138
    1UNL     O4   26   0.506  -0.023  -0.001
    1UNL    C21   27   0.595  -0.023  -0.114
    1UNL     O5   28   0.523  -0.058  -0.234
    1UNL    C22   29  -0.129   0.002  -0.027
    1UNL     H1   30   0.070   0.373  -0.203
    1UNL     H2   31  -0.017   0.414  -0.037
    1UNL     H3   32   0.145   0.404  -0.060
    1UNL     H4   33  -0.018  -0.019   0.312
    1UNL     H5   34   0.017   0.154   0.312
    1UNL     H6   35  -0.224   0.123   0.294
    1UNL     H7   36  -0.157   0.208   0.153
    1UNL     H8   37  -0.347   0.144  -0.005
    1UNL     H9   38  -0.420   0.073   0.126
    1UNL    H10   39  -0.440  -0.147   0.022
    1UNL    H11   40  -0.520  -0.017  -0.084
    1UNL    H12   41  -0.328   0.000  -0.223
    1UNL    H13   42  -0.347  -0.165  -0.225
    1UNL    H14   43  -0.050  -0.268  -0.152
    1UNL    H15   44  -0.181  -0.302  -0.038
    1UNL    H16   45   0.065  -0.255   0.051
    1UNL    H17   46  -0.278  -0.121   0.283
    1UNL    H18   47  -0.298  -0.194   0.116
    1UNL    H19   48   0.061  -0.092  -0.263
    1UNL    H20   49   0.283  -0.104  -0.375
    1UNL    H21   50   0.271   0.113   0.153
    1UNL    H22   51   0.643   0.079  -0.130
    1UNL    H23   52   0.673  -0.104  -0.113
    1UNL    H24   53  -0.130   0.098  -0.081
   0.00000   0.00000   0.00000   0.00000   0.00000   0.00000   0.00000   0.00000   0.00000
Generated with MDTraj, t= 40.0
 53
    1UNL     C1    1   0.094   0.338  -0.107
    1UNL     O1    2   0.063   0.212  -0.063
    1UNL     C2    3   0.085   0.203   0.072
    1UNL     O2    4   0.111   0.295   0.145
    1UNL     C3    5   0.074   0.061   0.127
    1UNL     C4    6  -0.013   0.070   0.253
    1UNL     C5    7  -0.165   0.105   0.213
    1UNL     C6    8  -0.220   0.008   0.109
    1UNL     C7    9  -0.357   0.058   0.050
    1UNL     C8   10  -0.415  -0.037  -0.059
    1UNL     C9   11  -0.312  -0.087  -0.159
    1UNL     N1   12  -0.181  -0.105  -0.108
    1UNL    C10   13  -0.120  -0.237  -0.063
    1UNL    C11   14  -0.020  -0.196   0.059
    1UNL    C12   15  -0.099  -0.198   0.188
    1UNL     O3   16  -0.062  -0.259   0.285
    1UNL    C13   17  -0.235  -0.128   0.182
    1UNL    C14   18   0.017  -0.047   0.020
    1UNL    C15   19   0.130  -0.055  -0.074
    1UNL    C16   20   0.141  -0.084  -0.208
    1UNL    C17   21   0.273  -0.082  -0.266
    1UNL    C18   22   0.389  -0.055  -0.195
    1UNL    C19   23   0.374  -0.022  -0.056
    1UNL    C20   24   0.247  -0.022  -0.003
    1UNL     N2   25   0.214   0.020   0.125
    1UNL     O4   26   0.493   0.024  -0.006
    1UNL    C21   27   0.586  -0.012  -0.104
    1UNL     O5   28   0.529  -0.057  -0.227
    1UNL    C22   29  -0.132   0.001  -0.021
    1UNL     H1   30   0.105   0.321  -0.215
    1UNL     H2   31   0.020   0.413  -0.069
    1UNL     H3   32   0.186   0.378  -0.077
    1UNL     H4   33   0.004  -0.028   0.299
    1UNL     H5   34   0.025   0.150   0.314
    1UNL     H6   35  -0.234   0.105   0.298
    1UNL     H7   36  -0.168   0.199   0.172
    1UNL     H8   37  -0.331   0.146  -0.002
    1UNL     H9   38  -0.428   0.092   0.124
    1UNL    H10   39  -0.448  -0.129  -0.005
    1UNL    H11   40  -0.500   0.018  -0.114
    1UNL    H12   41  -0.297  -0.026  -0.252
    1UNL    H13   42  -0.344  -0.181  -0.199
    1UNL    H14   43  -0.053  -0.263  -0.141
    1UNL    H15   44  -0.200  -0.303  -0.038
    1UNL    H16   45   0.078  -0.246   0.078
    1UNL    H17   46  -0.264  -0.114   0.293
    1UNL    H18   47  -0.315  -0.189   0.137
    1UNL    H19   48   0.048  -0.099  -0.262
    1UNL    H20   49   0.275  -0.082  -0.375
    1UNL    H21   50   0.261   0.098   0.168
    1UNL    H22   51   0.656   0.071  -0.136
    1UNL    H23   52   0.649  -0.094  -0.067
    1UNL    H24   53  -0.123   0.090  -0.085
   0.00000   0.00000   0.00000   0.00000   0.00000   0.00000   0.00000   0.00000   0.00000
Generated with MDTraj, t= 41.0
 53
    1UNL     C1    1   0.103   0.336  -0.109
    1UNL     O1    2   0.057   0.211  -0.065
    1UNL     C2    3   0.083   0.197   0.069
    1UNL     O2    4   0.120   0.286   0.140
    1UNL     C3    5   0.074   0.056   0.132
    1UNL     C4    6  -0.020   0.071   0.258
    1UNL     C5    7  -0.162   0.115   0.207
    1UNL     C6    8  -0.220   0.019   0.101
    1UNL     C7    9  -0.366   0.059   0.037
    1UNL     C8   10  -0.419  -0.047  -0.057
    1UNL     C9   11  -0.315  -0.092  -0.163
    1UNL     N1   12  -0.175  -0.103  -0.111
    1UNL    C10   13  -0.116  -0.235  -0.060
    1UNL    C11   14  -0.032  -0.196   0.064
    1UNL    C12   15  -0.109  -0.198   0.190
    1UNL     O3   16  -0.070  -0.255   0.287
    1UNL    C13   17  -0.237  -0.119   0.177
    1UNL    C14   18   0.020  -0.051   0.027
    1UNL    C15   19   0.137  -0.063  -0.066
    1UNL    C16   20   0.144  -0.086  -0.202
    1UNL    C17   21   0.269  -0.082  -0.260
    1UNL    C18   22   0.386  -0.051  -0.187
    1UNL    C19   23   0.383  -0.027  -0.047
    1UNL    C20   24   0.255  -0.040   0.017
    1UNL     N2   25   0.214   0.018   0.135
    1UNL     O4   26   0.516   0.004  -0.005
    1UNL    C21   27   0.585   0.006  -0.125
    1UNL     O5   28   0.509  -0.025  -0.245
    1UNL    C22   29  -0.120   0.002  -0.022
    1UNL     H1   30   0.056   0.349  -0.206
    1UNL     H2   31   0.068   0.416  -0.037
    1UNL     H3   32   0.209   0.346  -0.120
    1UNL     H4   33  -0.023  -0.021   0.319
    1UNL     H5   34   0.017   0.152   0.319
    1UNL     H6   35  -0.233   0.125   0.290
    1UNL     H7   36  -0.169   0.207   0.162
    1UNL     H8   37  -0.363   0.151  -0.008
    1UNL     H9   38  -0.434   0.075   0.121
    1UNL    H10   39  -0.436  -0.138   0.006
    1UNL    H11   40  -0.511  -0.014  -0.115
    1UNL    H12   41  -0.318  -0.025  -0.252
    1UNL    H13   42  -0.337  -0.188  -0.208
    1UNL    H14   43  -0.057  -0.276  -0.135
    1UNL    H15   44  -0.202  -0.293  -0.036
    1UNL    H16   45   0.057  -0.263   0.074
    1UNL    H17   46  -0.283  -0.098   0.281
    1UNL    H18   47  -0.304  -0.186   0.134
    1UNL    H19   48   0.059  -0.094  -0.266
    1UNL    H20   49   0.275  -0.114  -0.363
    1UNL    H21   50   0.275   0.072   0.193
    1UNL    H22   51   0.623   0.108  -0.143
    1UNL    H23   52   0.678  -0.051  -0.118
    1UNL    H24   53  -0.106   0.099  -0.073
   0.00000   0.00000   0.00000   0.00000   0.00000   0.00000   0.00000   0.00000   0.00000
Generated with MDTraj, t= 42.0
 53
    1UNL     C1    1   0.083   0.348  -0.096
    1UNL     O1    2   0.062   0.209  -0.071
    1UNL     C2    3   0.086   0.191   0.061
    1UNL     O2    4   0.131   0.271   0.141
    1UNL     C3    5   0.074   0.053   0.126
    1UNL     C4    6  -0.013   0.071   0.250
    1UNL     C5    7  -0.145   0.121   0.204
    1UNL     C6    8  -0.219   0.015   0.103
    1UNL     C7    9  -0.353   0.062   0.032
    1UNL     C8   10  -0.408  -0.046  -0.058
    1UNL     C9   11  -0.306  -0.093  -0.171
    1UNL     N1   12  -0.169  -0.115  -0.106
    1UNL    C10   13  -0.108  -0.246  -0.053
    1UNL    C11   14  -0.020  -0.198   0.070
    1UNL    C12   15  -0.109  -0.190   0.194
    1UNL     O3   16  -0.082  -0.240   0.300
    1UNL    C13   17  -0.241  -0.116   0.180
    1UNL    C14   18   0.019  -0.050   0.020
    1UNL    C15   19   0.137  -0.060  -0.076
    1UNL    C16   20   0.141  -0.074  -0.211
    1UNL    C17   21   0.261  -0.070  -0.273
    1UNL    C18   22   0.377  -0.040  -0.198
    1UNL    C19   23   0.372  -0.033  -0.054
    1UNL    C20   24   0.247  -0.044   0.010
    1UNL     N2   25   0.211   0.003   0.146
    1UNL     O4   26   0.493   0.012  -0.001
    1UNL    C21   27   0.580   0.005  -0.111
    1UNL     O5   28   0.512  -0.029  -0.238
    1UNL    C22   29  -0.119  -0.006  -0.020
    1UNL     H1   30   0.046   0.374  -0.195
    1UNL     H2   31   0.005   0.403  -0.034
    1UNL     H3   32   0.187   0.382  -0.072
    1UNL     H4   33  -0.035  -0.020   0.309
    1UNL     H5   34   0.028   0.143   0.318
    1UNL     H6   35  -0.218   0.147   0.281
    1UNL     H7   36  -0.137   0.216   0.159
    1UNL     H8   37  -0.339   0.159  -0.002
    1UNL     H9   38  -0.423   0.078   0.115
    1UNL    H10   39  -0.444  -0.140  -0.003
    1UNL    H11   40  -0.495  -0.002  -0.113
    1UNL    H12   41  -0.291  -0.023  -0.255
    1UNL    H13   42  -0.336  -0.185  -0.224
    1UNL    H14   43  -0.061  -0.304  -0.128
    1UNL    H15   44  -0.180  -0.310  -0.007
    1UNL    H16   45   0.070  -0.261   0.075
    1UNL    H17   46  -0.285  -0.100   0.281
    1UNL    H18   47  -0.305  -0.183   0.128
    1UNL    H19   48   0.050  -0.098  -0.264
    1UNL    H20   49   0.274  -0.079  -0.377
    1UNL    H21   50   0.274   0.042   0.215
    1UNL    H22   51   0.646   0.090  -0.113
    1UNL    H23   52   0.648  -0.076  -0.098
    1UNL    H24   53  -0.120   0.091  -0.077
   0.00000   0.00000   0.00000   0.00000   0.00000   0.00000   0.00000   0.00000   0.00000
Generated with MDTraj, t= 43.0
 53
    1UNL     C1    1   0.077   0.349  -0.104
    1UNL     O1    2   0.035   0.219  -0.054
    1UNL     C2    3   0.088   0.192   0.067
    1UNL     O2    4   0.142   0.274   0.141
    1UNL     C3    5   0.073   0.053   0.132
    1UNL     C4    6  -0.015   0.066   0.256
    1UNL     C5    7  -0.159   0.114   0.201
    1UNL     C6    8  -0.223   0.014   0.093
    1UNL     C7    9  -0.361   0.059   0.040
    1UNL     C8   10  -0.418  -0.042  -0.058
    1UNL     C9   11  -0.317  -0.098  -0.162
    1UNL     N1   12  -0.176  -0.119  -0.105
    1UNL    C10   13  -0.115  -0.242  -0.057
    1UNL    C11   14  -0.018  -0.193   0.063
    1UNL    C12   15  -0.108  -0.191   0.186
    1UNL     O3   16  -0.072  -0.239   0.291
    1UNL    C13   17  -0.240  -0.115   0.171
    1UNL    C14   18   0.019  -0.044   0.022
    1UNL    C15   19   0.133  -0.046  -0.067
    1UNL    C16   20   0.144  -0.080  -0.201
    1UNL    C17   21   0.269  -0.079  -0.259
    1UNL    C18   22   0.385  -0.048  -0.191
    1UNL    C19   23   0.379  -0.022  -0.051
    1UNL    C20   24   0.251  -0.022   0.009
    1UNL     N2   25   0.216   0.013   0.149
    1UNL     O4   26   0.510  -0.014  -0.007
    1UNL    C21   27   0.596  -0.006  -0.124
    1UNL     O5   28   0.518  -0.028  -0.240
    1UNL    C22   29  -0.120  -0.007  -0.029
    1UNL     H1   30   0.069   0.347  -0.212
    1UNL     H2   31  -0.004   0.428  -0.091
    1UNL     H3   32   0.182   0.374  -0.066
    1UNL     H4   33  -0.032  -0.028   0.310
    1UNL     H5   34   0.023   0.136   0.327
    1UNL     H6   35  -0.231   0.128   0.279
    1UNL     H7   36  -0.165   0.215   0.158
    1UNL     H8   37  -0.343   0.152  -0.009
    1UNL     H9   38  -0.420   0.086   0.128
    1UNL    H10   39  -0.461  -0.133  -0.001
    1UNL    H11   40  -0.502   0.005  -0.114
    1UNL    H12   41  -0.312  -0.038  -0.251
    1UNL    H13   42  -0.343  -0.198  -0.206
    1UNL    H14   43  -0.059  -0.286  -0.131
    1UNL    H15   44  -0.177  -0.323  -0.020
    1UNL    H16   45   0.065  -0.262   0.088
    1UNL    H17   46  -0.283  -0.099   0.263
    1UNL    H18   47  -0.304  -0.188   0.114
    1UNL    H19   48   0.055  -0.088  -0.260
    1UNL    H20   49   0.292  -0.109  -0.364
    1UNL    H21   50   0.277   0.073   0.203
    1UNL    H22   51   0.627   0.095  -0.135
    1UNL    H23   52   0.684  -0.069  -0.122
    1UNL    H24   53  -0.122   0.080  -0.102
   0.00000   0.00000   0.00000   0.00000   0.00000   0.00000   0.00000   0.00000   0.00000
Generated with MDTraj, t= 44.0
 53
    1UNL     C1    1   0.059   0.370  -0.101
    1UNL     O1    2   0.044   0.236  -0.062
    1UNL     C2    3   0.094   0.207   0.062
    1UNL     O2    4   0.143   0.290   0.137
    1UNL     C3    5   0.076   0.060   0.125
    1UNL     C4    6  -0.011   0.066   0.245
    1UNL     C5    7  -0.155   0.115   0.207
    1UNL     C6    8  -0.216   0.012   0.103
    1UNL     C7    9  -0.366   0.049   0.045
    1UNL     C8   10  -0.412  -0.060  -0.060
    1UNL     C9   11  -0.313  -0.095  -0.160
    1UNL     N1   12  -0.170  -0.112  -0.115
    1UNL    C10   13  -0.120  -0.240  -0.053
    1UNL    C11   14  -0.022  -0.190   0.058
    1UNL    C12   15  -0.099  -0.200   0.185
    1UNL     O3   16  -0.063  -0.259   0.282
    1UNL    C13   17  -0.224  -0.120   0.182
    1UNL    C14   18   0.016  -0.040   0.021
    1UNL    C15   19   0.133  -0.045  -0.075
    1UNL    C16   20   0.138  -0.071  -0.211
    1UNL    C17   21   0.266  -0.089  -0.258
    1UNL    C18   22   0.384  -0.057  -0.188
    1UNL    C19   23   0.372  -0.021  -0.055
    1UNL    C20   24   0.249  -0.017   0.005
    1UNL     N2   25   0.218   0.008   0.140
    1UNL     O4   26   0.497   0.000   0.002
    1UNL    C21   27   0.587  -0.019  -0.106
    1UNL     O5   28   0.517  -0.060  -0.219
    1UNL    C22   29  -0.127  -0.002  -0.030
    1UNL     H1   30  -0.025   0.393  -0.162
    1UNL     H2   31   0.049   0.443  -0.017
    1UNL     H3   32   0.157   0.382  -0.159
    1UNL     H4   33  -0.023  -0.029   0.298
    1UNL     H5   34   0.035   0.137   0.313
    1UNL     H6   35  -0.226   0.127   0.285
    1UNL     H7   36  -0.157   0.218   0.160
    1UNL     H8   37  -0.360   0.149   0.002
    1UNL     H9   38  -0.438   0.050   0.124
    1UNL    H10   39  -0.435  -0.158  -0.001
    1UNL    H11   40  -0.502  -0.026  -0.116
    1UNL    H12   41  -0.306  -0.006  -0.220
    1UNL    H13   42  -0.344  -0.170  -0.239
    1UNL    H14   43  -0.066  -0.288  -0.127
    1UNL    H15   44  -0.199  -0.310  -0.027
    1UNL    H16   45   0.066  -0.255   0.071
    1UNL    H17   46  -0.255  -0.111   0.280
    1UNL    H18   47  -0.297  -0.186   0.128
    1UNL    H19   48   0.048  -0.068  -0.273
    1UNL    H20   49   0.278  -0.110  -0.359
    1UNL    H21   50   0.276   0.074   0.193
    1UNL    H22   51   0.643   0.069  -0.139
    1UNL    H23   52   0.654  -0.104  -0.079
    1UNL    H24   53  -0.115   0.098  -0.083
   0.00000   0.00000   0.00000   0.00000   0.00000   0.00000   0.00000   0.00000   0.00000
Generated with MDTraj, t= 45.0
 53
    1UNL     C1    1   0.053   0.366  -0.102
    1UNL     O1    2   0.012   0.245  -0.048
    1UNL     C2    3   0.072   0.215   0.077
    1UNL     O2    4   0.128   0.299   0.145
    1UNL     C3    5   0.069   0.068   0.121
    1UNL     C4    6  -0.012   0.061   0.251
    1UNL     C5    7  -0.153   0.110   0.209
    1UNL     C6    8  -0.217   0.005   0.102
    1UNL     C7    9  -0.365   0.043   0.052
    1UNL     C8   10  -0.419  -0.068  -0.052
    1UNL     C9   11  -0.318  -0.097  -0.159
    1UNL     N1   12  -0.176  -0.100  -0.109
    1UNL    C10   13  -0.114  -0.229  -0.065
    1UNL    C11   14  -0.013  -0.186   0.042
    1UNL    C12   15  -0.089  -0.187   0.175
    1UNL     O3   16  -0.048  -0.234   0.279
    1UNL    C13   17  -0.231  -0.132   0.172
    1UNL    C14   18   0.017  -0.032   0.013
    1UNL    C15   19   0.139  -0.032  -0.076
    1UNL    C16   20   0.151  -0.077  -0.209
    1UNL    C17   21   0.277  -0.089  -0.266
    1UNL    C18   22   0.389  -0.071  -0.186
    1UNL    C19   23   0.381  -0.036  -0.049
    1UNL    C20   24   0.254  -0.023   0.011
    1UNL     N2   25   0.211   0.016   0.138
    1UNL     O4   26   0.512  -0.011   0.003
    1UNL    C21   27   0.598  -0.042  -0.108
    1UNL     O5   28   0.519  -0.068  -0.225
    1UNL    C22   29  -0.128   0.006  -0.030
    1UNL     H1   30  -0.018   0.406  -0.166
    1UNL     H2   31   0.083   0.436  -0.023
    1UNL     H3   32   0.143   0.347  -0.170
    1UNL     H4   33  -0.013  -0.039   0.293
    1UNL     H5   34   0.031   0.126   0.329
    1UNL     H6   35  -0.217   0.134   0.290
    1UNL     H7   36  -0.151   0.213   0.157
    1UNL     H8   37  -0.354   0.141  -0.005
    1UNL     H9   38  -0.431   0.055   0.134
    1UNL    H10   39  -0.441  -0.166   0.004
    1UNL    H11   40  -0.507  -0.019  -0.099
    1UNL    H12   41  -0.319  -0.017  -0.231
    1UNL    H13   42  -0.338  -0.187  -0.225
    1UNL    H14   43  -0.085  -0.280  -0.152
    1UNL    H15   44  -0.193  -0.294  -0.032
    1UNL    H16   45   0.090  -0.227   0.046
    1UNL    H17   46  -0.263  -0.109   0.272
    1UNL    H18   47  -0.295  -0.207   0.135
    1UNL    H19   48   0.067  -0.102  -0.269
    1UNL    H20   49   0.281  -0.121  -0.374
    1UNL    H21   50   0.259   0.083   0.197
    1UNL    H22   51   0.669   0.042  -0.127
    1UNL    H23   52   0.653  -0.142  -0.098
    1UNL    H24   53  -0.138   0.102  -0.093
   0.00000   0.00000   0.00000   0.00000   0.00000   0.00000   0.00000   0.00000   0.00000
Generated with MDTraj, t= 46.0
 53
    1UNL     C1    1   0.022   0.382  -0.085
    1UNL     O1    2   0.020   0.244  -0.054
    1UNL     C2    3   0.082   0.213   0.063
    1UNL     O2    4   0.144   0.294   0.124
    1UNL     C3    5   0.071   0.072   0.127
    1UNL     C4    6  -0.015   0.070   0.252
    1UNL     C5    7  -0.156   0.113   0.205
    1UNL     C6    8  -0.219   0.011   0.100
    1UNL     C7    9  -0.367   0.045   0.054
    1UNL     C8   10  -0.410  -0.056  -0.056
    1UNL     C9   11  -0.314  -0.100  -0.167
    1UNL     N1   12  -0.173  -0.110  -0.103
    1UNL    C10   13  -0.093  -0.234  -0.056
    1UNL    C11   14  -0.009  -0.185   0.052
    1UNL    C12   15  -0.089  -0.201   0.181
    1UNL     O3   16  -0.042  -0.258   0.277
    1UNL    C13   17  -0.226  -0.127   0.173
    1UNL    C14   18   0.016  -0.032   0.014
    1UNL    C15   19   0.138  -0.028  -0.080
    1UNL    C16   20   0.147  -0.055  -0.215
    1UNL    C17   21   0.277  -0.083  -0.267
    1UNL    C18   22   0.384  -0.063  -0.186
    1UNL    C19   23   0.378  -0.026  -0.051
    1UNL    C20   24   0.250  -0.012   0.001
    1UNL     N2   25   0.208   0.022   0.131
    1UNL     O4   26   0.502  -0.018   0.008
    1UNL    C21   27   0.591  -0.063  -0.097
    1UNL     O5   28   0.512  -0.083  -0.221
    1UNL    C22   29  -0.130   0.002  -0.020
    1UNL     H1   30   0.030   0.396  -0.187
    1UNL     H2   31  -0.048   0.437  -0.025
    1UNL     H3   32   0.122   0.429  -0.054
    1UNL     H4   33  -0.014  -0.028   0.297
    1UNL     H5   34   0.027   0.144   0.322
    1UNL     H6   35  -0.223   0.124   0.289
    1UNL     H7   36  -0.154   0.220   0.168
    1UNL     H8   37  -0.375   0.154   0.018
    1UNL     H9   38  -0.424   0.030   0.141
    1UNL    H10   39  -0.448  -0.148  -0.000
    1UNL    H11   40  -0.488  -0.001  -0.114
    1UNL    H12   41  -0.320  -0.035  -0.255
    1UNL    H13   42  -0.343  -0.201  -0.207
    1UNL    H14   43  -0.042  -0.275  -0.141
    1UNL    H15   44  -0.160  -0.317  -0.039
    1UNL    H16   45   0.076  -0.254   0.048
    1UNL    H17   46  -0.272  -0.117   0.273
    1UNL    H18   47  -0.282  -0.187   0.113
    1UNL    H19   48   0.060  -0.090  -0.272
    1UNL    H20   49   0.295  -0.117  -0.365
    1UNL    H21   50   0.258   0.090   0.187
    1UNL    H22   51   0.658   0.023  -0.125
    1UNL    H23   52   0.648  -0.160  -0.070
    1UNL    H24   53  -0.133   0.096  -0.087
   0.00000   0.00000   0.00000   0.00000   0.00000   0.00000   0.00000   0.00000   0.00000
Generated with MDTraj, t= 47.0
 53
    1UNL     C1    1   0.019   0.379  -0.075
    1UNL     O1    2   0.001   0.245  -0.040
    1UNL     C2    3   0.072   0.212   0.071
    1UNL     O2    4   0.143   0.287   0.131
    1UNL     C3    5   0.066   0.067   0.121
    1UNL     C4    6  -0.021   0.075   0.246
    1UNL     C5    7  -0.161   0.118   0.204
    1UNL     C6    8  -0.222   0.015   0.096
    1UNL     C7    9  -0.366   0.042   0.046
    1UNL     C8   10  -0.415  -0.070  -0.053
    1UNL     C9   11  -0.309  -0.098  -0.164
    1UNL     N1   12  -0.165  -0.106  -0.116
    1UNL    C10   13  -0.099  -0.233  -0.063
    1UNL    C11   14  -0.008  -0.189   0.058
    1UNL    C12   15  -0.089  -0.186   0.180
    1UNL     O3   16  -0.053  -0.241   0.279
    1UNL    C13   17  -0.221  -0.120   0.178
    1UNL    C14   18   0.013  -0.035   0.020
    1UNL    C15   19   0.134  -0.036  -0.074
    1UNL    C16   20   0.147  -0.069  -0.206
    1UNL    C17   21   0.272  -0.081  -0.265
    1UNL    C18   22   0.390  -0.068  -0.190
    1UNL    C19   23   0.381  -0.033  -0.053
    1UNL    C20   24   0.253  -0.011  -0.001
    1UNL     N2   25   0.214   0.027   0.128
    1UNL     O4   26   0.512  -0.041   0.003
    1UNL    C21   27   0.602  -0.050  -0.107
    1UNL     O5   28   0.527  -0.076  -0.229
    1UNL    C22   29  -0.126   0.003  -0.027
    1UNL     H1   30   0.048   0.377  -0.173
    1UNL     H2   31  -0.059   0.443  -0.038
    1UNL     H3   32   0.114   0.420  -0.023
    1UNL     H4   33  -0.019  -0.018   0.300
    1UNL     H5   34   0.029   0.155   0.305
    1UNL     H6   35  -0.230   0.148   0.287
    1UNL     H7   36  -0.138   0.217   0.156
    1UNL     H8   37  -0.357   0.146  -0.002
    1UNL     H9   38  -0.430   0.052   0.131
    1UNL    H10   39  -0.423  -0.170   0.003
    1UNL    H11   40  -0.509  -0.038  -0.103
    1UNL    H12   41  -0.314  -0.013  -0.235
    1UNL    H13   42  -0.333  -0.187  -0.224
    1UNL    H14   43  -0.050  -0.294  -0.136
    1UNL    H15   44  -0.174  -0.302  -0.029
    1UNL    H16   45   0.089  -0.235   0.083
    1UNL    H17   46  -0.228  -0.098   0.286
    1UNL    H18   47  -0.300  -0.197   0.156
    1UNL    H19   48   0.064  -0.097  -0.266
    1UNL    H20   49   0.283  -0.087  -0.374
    1UNL    H21   50   0.278   0.077   0.189
    1UNL    H22   51   0.669   0.037  -0.121
    1UNL    H23   52   0.655  -0.150  -0.089
    1UNL    H24   53  -0.131   0.089  -0.107
   0.00000   0.00000   0.00000   0.00000   0.00000   0.00000   0.00000   0.00000   0.00000
Generated with MDTraj, t= 48.0
 53
    1UNL     C1    1   0.030   0.381  -0.071
    1UNL     O1    2   0.017   0.242  -0.047
    1UNL     C2    3   0.087   0.205   0.066
    1UNL     O2    4   0.155   0.283   0.127
    1UNL     C3    5   0.075   0.067   0.123
    1UNL     C4    6  -0.016   0.074   0.253
    1UNL     C5    7  -0.167   0.109   0.205
    1UNL     C6    8  -0.219   0.010   0.103
    1UNL     C7    9  -0.352   0.046   0.041
    1UNL     C8   10  -0.410  -0.055  -0.057
    1UNL     C9   11  -0.314  -0.103  -0.163
    1UNL     N1   12  -0.169  -0.112  -0.118
    1UNL    C10   13  -0.099  -0.239  -0.064
    1UNL    C11   14  -0.014  -0.188   0.056
    1UNL    C12   15  -0.100  -0.196   0.178
    1UNL     O3   16  -0.051  -0.227   0.283
    1UNL    C13   17  -0.236  -0.123   0.177
    1UNL    C14   18   0.017  -0.038   0.020
    1UNL    C15   19   0.139  -0.045  -0.074
    1UNL    C16   20   0.149  -0.080  -0.207
    1UNL    C17   21   0.268  -0.083  -0.272
    1UNL    C18   22   0.383  -0.060  -0.190
    1UNL    C19   23   0.373  -0.028  -0.054
    1UNL    C20   24   0.251  -0.024   0.008
    1UNL     N2   25   0.219   0.023   0.135
    1UNL     O4   26   0.499  -0.006  -0.002
    1UNL    C21   27   0.585  -0.040  -0.103
    1UNL     O5   28   0.518  -0.077  -0.221
    1UNL    C22   29  -0.127   0.000  -0.032
    1UNL     H1   30  -0.046   0.414  -0.130
    1UNL     H2   31   0.043   0.440   0.021
    1UNL     H3   32   0.132   0.387  -0.128
    1UNL     H4   33  -0.009  -0.020   0.305
    1UNL     H5   34   0.028   0.147   0.324
    1UNL     H6   35  -0.228   0.093   0.302
    1UNL     H7   36  -0.191   0.212   0.178
    1UNL     H8   37  -0.327   0.141  -0.016
    1UNL     H9   38  -0.418   0.081   0.120
    1UNL    H10   39  -0.445  -0.148  -0.005
    1UNL    H11   40  -0.497  -0.015  -0.114
    1UNL    H12   41  -0.318  -0.032  -0.250
    1UNL    H13   42  -0.335  -0.201  -0.203
    1UNL    H14   43  -0.029  -0.276  -0.138
    1UNL    H15   44  -0.156  -0.329  -0.043
    1UNL    H16   45   0.079  -0.244   0.066
    1UNL    H17   46  -0.279  -0.113   0.278
    1UNL    H18   47  -0.305  -0.194   0.112
    1UNL    H19   48   0.051  -0.097  -0.250
    1UNL    H20   49   0.275  -0.115  -0.374
    1UNL    H21   50   0.284   0.098   0.159
    1UNL    H22   51   0.629   0.055  -0.132
    1UNL    H23   52   0.661  -0.115  -0.072
    1UNL    H24   53  -0.119   0.107  -0.077
   0.00000   0.00000   0.00000   0.00000   0.00000   0.00000   0.00000   0.00000   0.00000
Generated with MDTraj, t= 49.0
 53
    1UNL     C1    1   0.051   0.360  -0.092
    1UNL     O1    2   0.005   0.244  -0.023
    1UNL     C2    3   0.089   0.210   0.075
    1UNL     O2    4   0.169   0.285   0.127
    1UNL     C3    5   0.072   0.063   0.126
    1UNL     C4    6  -0.018   0.081   0.247
    1UNL     C5    7  -0.159   0.122   0.196
    1UNL     C6    8  -0.227   0.014   0.101
    1UNL     C7    9  -0.365   0.051   0.036
    1UNL     C8   10  -0.422  -0.056  -0.059
    1UNL     C9   11  -0.313  -0.099  -0.161
    1UNL     N1   12  -0.171  -0.111  -0.111
    1UNL    C10   13  -0.112  -0.239  -0.064
    1UNL    C11   14  -0.027  -0.194   0.058
    1UNL    C12   15  -0.109  -0.196   0.188
    1UNL     O3   16  -0.062  -0.260   0.283
    1UNL    C13   17  -0.237  -0.116   0.180
    1UNL    C14   18   0.013  -0.044   0.019
    1UNL    C15   19   0.141  -0.065  -0.065
    1UNL    C16   20   0.160  -0.092  -0.204
    1UNL    C17   21   0.279  -0.085  -0.274
    1UNL    C18   22   0.387  -0.055  -0.193
    1UNL    C19   23   0.377  -0.029  -0.053
    1UNL    C20   24   0.253  -0.029   0.011
    1UNL     N2   25   0.214   0.022   0.136
    1UNL     O4   26   0.505   0.002  -0.009
    1UNL    C21   27   0.596  -0.018  -0.114
    1UNL     O5   28   0.526  -0.056  -0.231
    1UNL    C22   29  -0.128  -0.001  -0.030
    1UNL     H1   30  -0.025   0.398  -0.151
    1UNL     H2   31   0.088   0.434  -0.017
    1UNL     H3   32   0.147   0.319  -0.148
    1UNL     H4   33   0.001  -0.003   0.314
    1UNL     H5   34   0.026   0.165   0.305
    1UNL     H6   35  -0.230   0.139   0.289
    1UNL     H7   36  -0.157   0.221   0.151
    1UNL     H8   37  -0.352   0.151  -0.010
    1UNL     H9   38  -0.440   0.072   0.116
    1UNL    H10   39  -0.452  -0.146  -0.004
    1UNL    H11   40  -0.515  -0.024  -0.112
    1UNL    H12   41  -0.293  -0.032  -0.251
    1UNL    H13   42  -0.334  -0.195  -0.206
    1UNL    H14   43  -0.043  -0.291  -0.135
    1UNL    H15   44  -0.190  -0.304  -0.032
    1UNL    H16   45   0.070  -0.237   0.087
    1UNL    H17   46  -0.263  -0.079   0.286
    1UNL    H18   47  -0.322  -0.183   0.151
    1UNL    H19   48   0.063  -0.097  -0.250
    1UNL    H20   49   0.294  -0.103  -0.379
    1UNL    H21   50   0.272   0.091   0.180
    1UNL    H22   51   0.652   0.070  -0.129
    1UNL    H23   52   0.665  -0.096  -0.085
    1UNL    H24   53  -0.117   0.102  -0.083
   0.00000   0.00000   0.00000   0.00000   0.00000   0.00000   0.00000   0.00000   0.00000
Generated with MDTraj, t= 50.0
 53
    1UNL     C1    1   0.043   0.359  -0.088
    1UNL     O1    2   0.020   0.229  -0.042
    1UNL     C2    3   0.098   0.198   0.062
    1UNL     O2    4   0.188   0.268   0.100
    1UNL     C3    5   0.076   0.060   0.125
    1UNL     C4    6  -0.027   0.087   0.249
    1UNL     C5    7  -0.167   0.117   0.207
    1UNL     C6    8  -0.224   0.013   0.105
    1UNL     C7    9  -0.356   0.058   0.037
    1UNL     C8   10  -0.409  -0.042  -0.062
    1UNL     C9   11  -0.312  -0.091  -0.172
    1UNL     N1   12  -0.178  -0.111  -0.105
    1UNL    C10   13  -0.103  -0.239  -0.060
    1UNL    C11   14  -0.020  -0.197   0.064
    1UNL    C12   15  -0.102  -0.195   0.186
    1UNL     O3   16  -0.066  -0.242   0.289
    1UNL    C13   17  -0.235  -0.133   0.176
    1UNL    C14   18   0.014  -0.049   0.027
    1UNL    C15   19   0.135  -0.068  -0.070
    1UNL    C16   20   0.142  -0.088  -0.205
    1UNL    C17   21   0.264  -0.070  -0.267
    1UNL    C18   22   0.381  -0.052  -0.191
    1UNL    C19   23   0.378  -0.032  -0.048
    1UNL    C20   24   0.250  -0.041   0.007
    1UNL     N2   25   0.214   0.007   0.133
    1UNL     O4   26   0.504  -0.002  -0.001
    1UNL    C21   27   0.591   0.009  -0.107
    1UNL     O5   28   0.518  -0.048  -0.221
    1UNL    C22   29  -0.128   0.000  -0.017
    1UNL     H1   30  -0.003   0.364  -0.183
    1UNL     H2   31  -0.018   0.427  -0.024
    1UNL     H3   32   0.159   0.377  -0.075
    1UNL     H4   33  -0.015   0.002   0.318
    1UNL     H5   34   0.013   0.170   0.310
    1UNL     H6   35  -0.230   0.133   0.304
    1UNL     H7   36  -0.172   0.215   0.157
    1UNL     H8   37  -0.354   0.162  -0.000
    1UNL     H9   38  -0.436   0.062   0.119
    1UNL    H10   39  -0.456  -0.118  -0.003
    1UNL    H11   40  -0.493   0.013  -0.115
    1UNL    H12   41  -0.303  -0.011  -0.253
    1UNL    H13   42  -0.329  -0.182  -0.228
    1UNL    H14   43  -0.031  -0.274  -0.138
    1UNL    H15   44  -0.178  -0.311  -0.032
    1UNL    H16   45   0.061  -0.270   0.074
    1UNL    H17   46  -0.271  -0.122   0.287
    1UNL    H18   47  -0.309  -0.191   0.129
    1UNL    H19   48   0.054  -0.092  -0.265
    1UNL    H20   49   0.274  -0.087  -0.375
    1UNL    H21   50   0.281   0.079   0.157
    1UNL    H22   51   0.628   0.107  -0.117
    1UNL    H23   52   0.679  -0.051  -0.083
    1UNL    H24   53  -0.115   0.088  -0.089
   0.00000   0.00000   0.00000   0.00000   0.00000   0.00000   0.00000   0.00000   0.00000
Generated with MDTraj, t= 51.0
 53
    1UNL     C1    1   0.054   0.356  -0.079
    1UNL     O1    2   0.011   0.226  -0.041
    1UNL     C2    3   0.088   0.190   0.065
    1UNL     O2    4   0.165   0.263   0.125
    1UNL     C3    5   0.073   0.052   0.123
    1UNL     C4    6  -0.017   0.084   0.243
    1UNL     C5    7  -0.159   0.129   0.191
    1UNL     C6    8  -0.220   0.026   0.092
    1UNL     C7    9  -0.351   0.062   0.028
    1UNL     C8   10  -0.416  -0.056  -0.049
    1UNL     C9   11  -0.310  -0.098  -0.161
    1UNL     N1   12  -0.173  -0.117  -0.110
    1UNL    C10   13  -0.116  -0.245  -0.050
    1UNL    C11   14  -0.027  -0.207   0.066
    1UNL    C12   15  -0.107  -0.192   0.193
    1UNL     O3   16  -0.065  -0.233   0.297
    1UNL    C13   17  -0.237  -0.114   0.175
    1UNL    C14   18   0.017  -0.059   0.024
    1UNL    C15   19   0.138  -0.064  -0.074
    1UNL    C16   20   0.155  -0.081  -0.205
    1UNL    C17   21   0.277  -0.055  -0.271
    1UNL    C18   22   0.387  -0.033  -0.192
    1UNL    C19   23   0.375  -0.026  -0.053
    1UNL    C20   24   0.248  -0.035   0.004
    1UNL     N2   25   0.210   0.009   0.135
    1UNL     O4   26   0.501  -0.013  -0.001
    1UNL    C21   27   0.590  -0.020  -0.111
    1UNL     O5   28   0.522  -0.028  -0.235
    1UNL    C22   29  -0.120  -0.010  -0.028
    1UNL     H1   30  -0.009   0.394  -0.155
    1UNL     H2   31   0.029   0.416   0.010
    1UNL     H3   32   0.169   0.344  -0.096
    1UNL     H4   33  -0.021  -0.008   0.306
    1UNL     H5   34   0.045   0.157   0.299
    1UNL     H6   35  -0.229   0.130   0.280
    1UNL     H7   36  -0.155   0.236   0.154
    1UNL     H8   37  -0.336   0.135  -0.050
    1UNL     H9   38  -0.424   0.117   0.100
    1UNL    H10   39  -0.428  -0.137   0.016
    1UNL    H11   40  -0.517  -0.021  -0.089
    1UNL    H12   41  -0.292  -0.026  -0.247
    1UNL    H13   42  -0.341  -0.193  -0.207
    1UNL    H14   43  -0.062  -0.285  -0.140
    1UNL    H15   44  -0.198  -0.303  -0.008
    1UNL    H16   45   0.058  -0.275   0.068
    1UNL    H17   46  -0.276  -0.089   0.281
    1UNL    H18   47  -0.321  -0.170   0.143
    1UNL    H19   48   0.079  -0.130  -0.266
    1UNL    H20   49   0.295  -0.058  -0.376
    1UNL    H21   50   0.267   0.077   0.185
    1UNL    H22   51   0.639   0.075  -0.115
    1UNL    H23   52   0.673  -0.094  -0.092
    1UNL    H24   53  -0.109   0.066  -0.110
   0.00000   0.00000   0.00000   0.00000   0.00000   0.00000   0.00000   0.00000   0.00000
Generated with MDTraj, t= 52.0
 53
    1UNL     C1    1   0.064   0.366  -0.093
    1UNL     O1    2   0.037   0.234  -0.053
    1UNL     C2    3   0.092   0.205   0.067
    1UNL     O2    4   0.165   0.279   0.130
    1UNL     C3    5   0.075   0.067   0.133
    1UNL     C4    6  -0.021   0.086   0.256
    1UNL     C5    7  -0.170   0.110   0.209
    1UNL     C6    8  -0.226   0.011   0.100
    1UNL     C7    9  -0.356   0.053   0.040
    1UNL     C8   10  -0.418  -0.044  -0.068
    1UNL     C9   11  -0.317  -0.124  -0.151
    1UNL     N1   12  -0.176  -0.115  -0.109
    1UNL    C10   13  -0.097  -0.239  -0.060
    1UNL    C11   14  -0.011  -0.187   0.068
    1UNL    C12   15  -0.108  -0.197   0.183
    1UNL     O3   16  -0.070  -0.246   0.287
    1UNL    C13   17  -0.238  -0.131   0.167
    1UNL    C14   18   0.021  -0.040   0.024
    1UNL    C15   19   0.140  -0.054  -0.070
    1UNL    C16   20   0.145  -0.068  -0.210
    1UNL    C17   21   0.271  -0.071  -0.274
    1UNL    C18   22   0.382  -0.051  -0.195
    1UNL    C19   23   0.373  -0.025  -0.057
    1UNL    C20   24   0.250  -0.030   0.010
    1UNL     N2   25   0.211   0.010   0.139
    1UNL     O4   26   0.498  -0.018   0.002
    1UNL    C21   27   0.580  -0.009  -0.115
    1UNL     O5   28   0.518  -0.055  -0.230
    1UNL    C22   29  -0.123   0.002  -0.027
    1UNL     H1   30  -0.017   0.399  -0.151
    1UNL     H2   31   0.064   0.420   0.001
    1UNL     H3   32   0.160   0.361  -0.154
    1UNL     H4   33  -0.002  -0.013   0.307
    1UNL     H5   34   0.012   0.171   0.318
    1UNL     H6   35  -0.230   0.115   0.301
    1UNL     H7   36  -0.165   0.219   0.167
    1UNL     H8   37  -0.348   0.152  -0.003
    1UNL     H9   38  -0.436   0.072   0.124
    1UNL    H10   39  -0.478  -0.117  -0.022
    1UNL    H11   40  -0.474   0.019  -0.144
    1UNL    H12   41  -0.324  -0.077  -0.251
    1UNL    H13   42  -0.337  -0.233  -0.161
    1UNL    H14   43  -0.029  -0.265  -0.145
    1UNL    H15   44  -0.169  -0.317  -0.028
    1UNL    H16   45   0.083  -0.238   0.091
    1UNL    H17   46  -0.280  -0.113   0.265
    1UNL    H18   47  -0.320  -0.195   0.126
    1UNL    H19   48   0.056  -0.088  -0.267
    1UNL    H20   49   0.277  -0.073  -0.384
    1UNL    H21   50   0.279   0.063   0.190
    1UNL    H22   51   0.626   0.091  -0.130
    1UNL    H23   52   0.667  -0.083  -0.101
    1UNL    H24   53  -0.120   0.097  -0.084
   0.00000   0.00000   0.00000   0.00000   0.00000   0.00000   0.00000   0.00000   0.00000
Generated with MDTraj, t= 53.0
 53
    1UNL     C1    1   0.071   0.357  -0.102
    1UNL     O1    2   0.021   0.240  -0.048
    1UNL     C2    3   0.079   0.211   0.074
    1UNL     O2    4   0.134   0.291   0.148
    1UNL     C3    5   0.073   0.065   0.133
    1UNL     C4    6  -0.022   0.075   0.252
    1UNL     C5    7  -0.164   0.117   0.201
    1UNL     C6    8  -0.220   0.012   0.098
    1UNL     C7    9  -0.365   0.045   0.048
    1UNL     C8   10  -0.417  -0.061  -0.061
    1UNL     C9   11  -0.310  -0.090  -0.168
    1UNL     N1   12  -0.171  -0.109  -0.116
    1UNL    C10   13  -0.117  -0.234  -0.063
    1UNL    C11   14  -0.022  -0.192   0.050
    1UNL    C12   15  -0.094  -0.203   0.182
    1UNL     O3   16  -0.058  -0.251   0.288
    1UNL    C13   17  -0.220  -0.123   0.183
    1UNL    C14   18   0.014  -0.039   0.023
    1UNL    C15   19   0.139  -0.047  -0.070
    1UNL    C16   20   0.145  -0.086  -0.201
    1UNL    C17   21   0.265  -0.078  -0.266
    1UNL    C18   22   0.388  -0.057  -0.198
    1UNL    C19   23   0.380  -0.022  -0.060
    1UNL    C20   24   0.256  -0.018   0.004
    1UNL     N2   25   0.213   0.015   0.138
    1UNL     O4   26   0.509   0.004  -0.005
    1UNL    C21   27   0.596  -0.042  -0.110
    1UNL     O5   28   0.524  -0.063  -0.230
    1UNL    C22   29  -0.129   0.006  -0.030
    1UNL     H1   30   0.061   0.354  -0.210
    1UNL     H2   31   0.019   0.431  -0.047
    1UNL     H3   32   0.182   0.350  -0.087
    1UNL     H4   33  -0.021  -0.017   0.316
    1UNL     H5   34   0.019   0.159   0.312
    1UNL     H6   35  -0.222   0.126   0.293
    1UNL     H7   36  -0.155   0.223   0.152
    1UNL     H8   37  -0.377   0.153   0.033
    1UNL     H9   38  -0.439   0.030   0.136
    1UNL    H10   39  -0.436  -0.153  -0.014
    1UNL    H11   40  -0.512  -0.037  -0.115
    1UNL    H12   41  -0.293  -0.007  -0.235
    1UNL    H13   42  -0.345  -0.178  -0.232
    1UNL    H14   43  -0.056  -0.292  -0.135
    1UNL    H15   44  -0.199  -0.294  -0.015
    1UNL    H16   45   0.069  -0.248   0.062
    1UNL    H17   46  -0.254  -0.114   0.280
    1UNL    H18   47  -0.308  -0.186   0.144
    1UNL    H19   48   0.052  -0.119  -0.245
    1UNL    H20   49   0.250  -0.104  -0.367
    1UNL    H21   50   0.269   0.079   0.193
    1UNL    H22   51   0.668   0.042  -0.125
    1UNL    H23   52   0.655  -0.138  -0.081
    1UNL    H24   53  -0.121   0.100  -0.085
   0.00000   0.00000   0.00000   0.00000   0.00000   0.00000   0.00000   0.00000   0.00000
Generated with MDTraj, t= 54.0
 53
    1UNL     C1    1   0.038   0.372  -0.106
    1UNL     O1    2   0.051   0.234  -0.068
    1UNL     C2    3   0.080   0.210   0.069
    1UNL     O2    4   0.103   0.304   0.144
    1UNL     C3    5   0.077   0.066   0.123
    1UNL     C4    6  -0.004   0.073   0.254
    1UNL     C5    7  -0.154   0.108   0.214
    1UNL     C6    8  -0.218   0.011   0.100
    1UNL     C7    9  -0.361   0.040   0.059
    1UNL     C8   10  -0.413  -0.056  -0.044
    1UNL     C9   11  -0.316  -0.074  -0.164
    1UNL     N1   12  -0.173  -0.099  -0.113
    1UNL    C10   13  -0.107  -0.229  -0.071
    1UNL    C11   14  -0.014  -0.192   0.048
    1UNL    C12   15  -0.092  -0.196   0.182
    1UNL     O3   16  -0.044  -0.245   0.280
    1UNL    C13   17  -0.225  -0.131   0.163
    1UNL    C14   18   0.020  -0.037   0.020
    1UNL    C15   19   0.136  -0.046  -0.077
    1UNL    C16   20   0.147  -0.080  -0.211
    1UNL    C17   21   0.272  -0.094  -0.262
    1UNL    C18   22   0.383  -0.068  -0.185
    1UNL    C19   23   0.372  -0.032  -0.050
    1UNL    C20   24   0.247  -0.021   0.007
    1UNL     N2   25   0.209   0.011   0.141
    1UNL     O4   26   0.503  -0.016   0.011
    1UNL    C21   27   0.586  -0.023  -0.108
    1UNL     O5   28   0.514  -0.078  -0.221
    1UNL    C22   29  -0.120   0.011  -0.030
    1UNL     H1   30   0.031   0.374  -0.216
    1UNL     H2   31  -0.041   0.408  -0.047
    1UNL     H3   32   0.139   0.413  -0.083
    1UNL     H4   33  -0.005  -0.030   0.297
    1UNL     H5   34   0.051   0.128   0.335
    1UNL     H6   35  -0.213   0.106   0.306
    1UNL     H7   36  -0.156   0.216   0.177
    1UNL     H8   37  -0.367   0.141   0.015
    1UNL     H9   38  -0.420   0.050   0.155
    1UNL    H10   39  -0.446  -0.147  -0.005
    1UNL    H11   40  -0.507  -0.011  -0.083
    1UNL    H12   41  -0.319   0.007  -0.233
    1UNL    H13   42  -0.325  -0.167  -0.232
    1UNL    H14   43  -0.044  -0.275  -0.149
    1UNL    H15   44  -0.186  -0.308  -0.047
    1UNL    H16   45   0.072  -0.257   0.055
    1UNL    H17   46  -0.275  -0.117   0.253
    1UNL    H18   47  -0.295  -0.209   0.122
    1UNL    H19   48   0.062  -0.093  -0.275
    1UNL    H20   49   0.300  -0.144  -0.356
    1UNL    H21   50   0.263   0.086   0.182
    1UNL    H22   51   0.617   0.078  -0.136
    1UNL    H23   52   0.674  -0.092  -0.079
    1UNL    H24   53  -0.113   0.103  -0.084
   0.00000   0.00000   0.00000   0.00000   0.00000   0.00000   0.00000   0.00000   0.00000
Generated with MDTraj, t= 55.0
 53
    1UNL     C1    1   0.052   0.366  -0.096
    1UNL     O1    2   0.042   0.232  -0.067
    1UNL     C2    3   0.062   0.210   0.066
    1UNL     O2    4   0.072   0.293   0.154
    1UNL     C3    5   0.072   0.059   0.120
    1UNL     C4    6  -0.012   0.064   0.243
    1UNL     C5    7  -0.145   0.109   0.212
    1UNL     C6    8  -0.213   0.013   0.111
    1UNL     C7    9  -0.353   0.060   0.051
    1UNL     C8   10  -0.420  -0.041  -0.045
    1UNL     C9   11  -0.327  -0.095  -0.152
    1UNL     N1   12  -0.181  -0.110  -0.104
    1UNL    C10   13  -0.111  -0.237  -0.054
    1UNL    C11   14  -0.010  -0.189   0.051
    1UNL    C12   15  -0.093  -0.197   0.171
    1UNL     O3   16  -0.067  -0.250   0.276
    1UNL    C13   17  -0.227  -0.127   0.173
    1UNL    C14   18   0.020  -0.038   0.010
    1UNL    C15   19   0.141  -0.038  -0.079
    1UNL    C16   20   0.155  -0.081  -0.210
    1UNL    C17   21   0.283  -0.079  -0.267
    1UNL    C18   22   0.397  -0.058  -0.187
    1UNL    C19   23   0.391  -0.016  -0.050
    1UNL    C20   24   0.256   0.007  -0.006
    1UNL     N2   25   0.216   0.028   0.134
    1UNL     O4   26   0.515  -0.014   0.002
    1UNL    C21   27   0.601  -0.057  -0.109
    1UNL     O5   28   0.523  -0.076  -0.228
    1UNL    C22   29  -0.127  -0.001  -0.025
    1UNL     H1   30   0.041   0.375  -0.208
    1UNL     H2   31  -0.015   0.419  -0.033
    1UNL     H3   32   0.159   0.387  -0.076
    1UNL     H4   33  -0.016  -0.032   0.300
    1UNL     H5   34   0.038   0.127   0.322
    1UNL     H6   35  -0.213   0.121   0.300
    1UNL     H7   36  -0.128   0.208   0.168
    1UNL     H8   37  -0.350   0.161  -0.000
    1UNL     H9   38  -0.420   0.081   0.135
    1UNL    H10   39  -0.451  -0.120   0.016
    1UNL    H11   40  -0.513   0.000  -0.087
    1UNL    H12   41  -0.318  -0.047  -0.247
    1UNL    H13   42  -0.361  -0.199  -0.185
    1UNL    H14   43  -0.065  -0.285  -0.143
    1UNL    H15   44  -0.180  -0.322  -0.018
    1UNL    H16   45   0.069  -0.262   0.059
    1UNL    H17   46  -0.263  -0.129   0.273
    1UNL    H18   47  -0.305  -0.181   0.128
    1UNL    H19   48   0.064  -0.112  -0.259
    1UNL    H20   49   0.304  -0.114  -0.367
    1UNL    H21   50   0.263   0.095   0.192
    1UNL    H22   51   0.674   0.020  -0.123
    1UNL    H23   52   0.635  -0.159  -0.075
    1UNL    H24   53  -0.140   0.088  -0.080
   0.00000   0.00000   0.00000   0.00000   0.00000   0.00000   0.00000   0.00000   0.00000
Generated with MDTraj, t= 56.0
 53
    1UNL     C1    1   0.062   0.360  -0.108
    1UNL     O1    2   0.064   0.224  -0.067
    1UNL     C2    3   0.080   0.213   0.071
    1UNL     O2    4   0.092   0.302   0.151
    1UNL     C3    5   0.075   0.062   0.129
    1UNL     C4    6  -0.008   0.067   0.258
    1UNL     C5    7  -0.164   0.110   0.217
    1UNL     C6    8  -0.217   0.012   0.103
    1UNL     C7    9  -0.367   0.046   0.049
    1UNL     C8   10  -0.409  -0.054  -0.062
    1UNL     C9   11  -0.305  -0.091  -0.167
    1UNL     N1   12  -0.167  -0.101  -0.111
    1UNL    C10   13  -0.102  -0.232  -0.064
    1UNL    C11   14  -0.011  -0.184   0.059
    1UNL    C12   15  -0.095  -0.192   0.184
    1UNL     O3   16  -0.052  -0.255   0.279
    1UNL    C13   17  -0.226  -0.127   0.176
    1UNL    C14   18   0.014  -0.029   0.021
    1UNL    C15   19   0.129  -0.034  -0.075
    1UNL    C16   20   0.135  -0.070  -0.209
    1UNL    C17   21   0.261  -0.090  -0.261
    1UNL    C18   22   0.378  -0.066  -0.192
    1UNL    C19   23   0.373  -0.032  -0.055
    1UNL    C20   24   0.246  -0.018   0.004
    1UNL     N2   25   0.212   0.013   0.135
    1UNL     O4   26   0.507  -0.015   0.001
    1UNL    C21   27   0.590  -0.031  -0.114
    1UNL     O5   28   0.520  -0.070  -0.226
    1UNL    C22   29  -0.124   0.015  -0.023
    1UNL     H1   30   0.071   0.368  -0.224
    1UNL     H2   31  -0.019   0.411  -0.061
    1UNL     H3   32   0.158   0.394  -0.068
    1UNL     H4   33  -0.002  -0.028   0.315
    1UNL     H5   34   0.040   0.132   0.336
    1UNL     H6   35  -0.229   0.100   0.309
    1UNL     H7   36  -0.179   0.206   0.175
    1UNL     H8   37  -0.372   0.156   0.015
    1UNL     H9   38  -0.443   0.042   0.126
    1UNL    H10   39  -0.440  -0.145  -0.014
    1UNL    H11   40  -0.493  -0.012  -0.116
    1UNL    H12   41  -0.311  -0.021  -0.249
    1UNL    H13   42  -0.320  -0.192  -0.216
    1UNL    H14   43  -0.050  -0.276  -0.152
    1UNL    H15   44  -0.178  -0.311  -0.034
    1UNL    H16   45   0.090  -0.223   0.071
    1UNL    H17   46  -0.263  -0.115   0.279
    1UNL    H18   47  -0.296  -0.189   0.134
    1UNL    H19   48   0.055  -0.114  -0.264
    1UNL    H20   49   0.275  -0.144  -0.353
    1UNL    H21   50   0.272   0.080   0.179
    1UNL    H22   51   0.621   0.067  -0.136
    1UNL    H23   52   0.667  -0.106  -0.094
    1UNL    H24   53  -0.136   0.100  -0.085
   0.00000   0.00000   0.00000   0.00000   0.00000   0.00000   0.00000   0.00000   0.00000
Generated with MDTraj, t= 57.0
 53
    1UNL     C1    1   0.094   0.360  -0.100
    1UNL     O1    2   0.056   0.232  -0.066
    1UNL     C2    3   0.082   0.203   0.070
    1UNL     O2    4   0.109   0.288   0.151
    1UNL     C3    5   0.070   0.069   0.130
    1UNL     C4    6  -0.016   0.071   0.255
    1UNL     C5    7  -0.161   0.113   0.212
    1UNL     C6    8  -0.218   0.007   0.105
    1UNL     C7    9  -0.370   0.041   0.047
    1UNL     C8   10  -0.412  -0.068  -0.063
    1UNL     C9   11  -0.305  -0.088  -0.174
    1UNL     N1   12  -0.167  -0.107  -0.118
    1UNL    C10   13  -0.116  -0.233  -0.060
    1UNL    C11   14  -0.027  -0.187   0.060
    1UNL    C12   15  -0.103  -0.196   0.190
    1UNL     O3   16  -0.051  -0.240   0.289
    1UNL    C13   17  -0.235  -0.117   0.184
    1UNL    C14   18   0.018  -0.039   0.019
    1UNL    C15   19   0.137  -0.059  -0.069
    1UNL    C16   20   0.142  -0.076  -0.202
    1UNL    C17   21   0.266  -0.083  -0.269
    1UNL    C18   22   0.383  -0.063  -0.189
    1UNL    C19   23   0.377  -0.026  -0.053
    1UNL    C20   24   0.250  -0.027   0.008
    1UNL     N2   25   0.212   0.013   0.141
    1UNL     O4   26   0.506   0.003  -0.008
    1UNL    C21   27   0.587  -0.023  -0.121
    1UNL     O5   28   0.510  -0.053  -0.234
    1UNL    C22   29  -0.126   0.005  -0.028
    1UNL     H1   30   0.114   0.358  -0.218
    1UNL     H2   31   0.024   0.434  -0.066
    1UNL     H3   32   0.193   0.375  -0.056
    1UNL     H4   33  -0.020  -0.027   0.303
    1UNL     H5   34   0.029   0.138   0.334
    1UNL     H6   35  -0.232   0.109   0.301
    1UNL     H7   36  -0.161   0.208   0.169
    1UNL     H8   37  -0.375   0.149   0.005
    1UNL     H9   38  -0.440   0.046   0.127
    1UNL    H10   39  -0.436  -0.168  -0.019
    1UNL    H11   40  -0.497  -0.036  -0.120
    1UNL    H12   41  -0.301   0.000  -0.240
    1UNL    H13   42  -0.335  -0.174  -0.234
    1UNL    H14   43  -0.058  -0.282  -0.145
    1UNL    H15   44  -0.202  -0.299  -0.026
    1UNL    H16   45   0.058  -0.252   0.057
    1UNL    H17   46  -0.275  -0.086   0.282
    1UNL    H18   47  -0.308  -0.175   0.129
    1UNL    H19   48   0.049  -0.108  -0.246
    1UNL    H20   49   0.264  -0.110  -0.374
    1UNL    H21   50   0.268   0.077   0.194
    1UNL    H22   51   0.653   0.057  -0.134
    1UNL    H23   52   0.636  -0.117  -0.090
    1UNL    H24   53  -0.121   0.097  -0.078
   0.00000   0.00000   0.00000   0.00000   0.00000   0.00000   0.00000   0.00000   0.00000
Generated with MDTraj, t= 58.0
 53
    1UNL     C1    1   0.093   0.348  -0.102
    1UNL     O1    2   0.059   0.221  -0.069
    1UNL     C2    3   0.085   0.203   0.069
    1UNL     O2    4   0.126   0.284   0.151
    1UNL     C3    5   0.069   0.054   0.126
    1UNL     C4    6  -0.018   0.067   0.250
    1UNL     C5    7  -0.152   0.119   0.204
    1UNL     C6    8  -0.222   0.015   0.098
    1UNL     C7    9  -0.355   0.068   0.037
    1UNL     C8   10  -0.418  -0.042  -0.049
    1UNL     C9   11  -0.325  -0.117  -0.150
    1UNL     N1   12  -0.182  -0.124  -0.100
    1UNL    C10   13  -0.109  -0.244  -0.060
    1UNL    C11   14  -0.020  -0.194   0.060
    1UNL    C12   15  -0.103  -0.189   0.181
    1UNL     O3   16  -0.080  -0.244   0.284
    1UNL    C13   17  -0.237  -0.123   0.174
    1UNL    C14   18   0.018  -0.039   0.016
    1UNL    C15   19   0.135  -0.060  -0.065
    1UNL    C16   20   0.147  -0.074  -0.208
    1UNL    C17   21   0.274  -0.069  -0.269
    1UNL    C18   22   0.386  -0.050  -0.193
    1UNL    C19   23   0.370  -0.027  -0.054
    1UNL    C20   24   0.246  -0.031   0.012
    1UNL     N2   25   0.216   0.011   0.142
    1UNL     O4   26   0.502   0.008  -0.003
    1UNL    C21   27   0.589  -0.008  -0.114
    1UNL     O5   28   0.518  -0.043  -0.235
    1UNL    C22   29  -0.127  -0.006  -0.027
    1UNL     H1   30   0.044   0.377  -0.207
    1UNL     H2   31   0.063   0.417  -0.025
    1UNL     H3   32   0.200   0.354  -0.117
    1UNL     H4   33  -0.029  -0.025   0.307
    1UNL     H5   34   0.029   0.144   0.318
    1UNL     H6   35  -0.216   0.133   0.294
    1UNL     H7   36  -0.133   0.212   0.158
    1UNL     H8   37  -0.338   0.163  -0.024
    1UNL     H9   38  -0.419   0.098   0.119
    1UNL    H10   39  -0.469  -0.124   0.014
    1UNL    H11   40  -0.488   0.006  -0.113
    1UNL    H12   41  -0.318  -0.047  -0.238
    1UNL    H13   42  -0.360  -0.213  -0.176
    1UNL    H14   43  -0.038  -0.287  -0.141
    1UNL    H15   44  -0.185  -0.319  -0.026
    1UNL    H16   45   0.068  -0.253   0.079
    1UNL    H17   46  -0.254  -0.105   0.281
    1UNL    H18   47  -0.311  -0.205   0.136
    1UNL    H19   48   0.070  -0.102  -0.280
    1UNL    H20   49   0.284  -0.089  -0.372
    1UNL    H21   50   0.273   0.083   0.184
    1UNL    H22   51   0.634   0.087  -0.126
    1UNL    H23   52   0.671  -0.078  -0.084
    1UNL    H24   53  -0.135   0.083  -0.081
   0.00000   0.00000   0.00000   0.00000   0.00000   0.00000   0.00000   0.00000   0.00000
Generated with MDTraj, t= 59.0
 53
    1UNL     C1    1   0.066   0.337  -0.112
    1UNL     O1    2   0.050   0.208  -0.058
    1UNL     C2    3   0.094   0.195   0.066
    1UNL     O2    4   0.148   0.280   0.132
    1UNL     C3    5   0.076   0.056   0.132
    1UNL     C4    6  -0.013   0.072   0.252
    1UNL     C5    7  -0.163   0.119   0.205
    1UNL     C6    8  -0.219   0.020   0.095
    1UNL     C7    9  -0.359   0.061   0.043
    1UNL     C8   10  -0.415  -0.044  -0.054
    1UNL     C9   11  -0.316  -0.081  -0.162
    1UNL     N1   12  -0.178  -0.118  -0.103
    1UNL    C10   13  -0.113  -0.240  -0.056
    1UNL    C11   14  -0.024  -0.204   0.068
    1UNL    C12   15  -0.109  -0.197   0.189
    1UNL     O3   16  -0.069  -0.248   0.292
    1UNL    C13   17  -0.238  -0.112   0.174
    1UNL    C14   18   0.018  -0.053   0.026
    1UNL    C15   19   0.133  -0.064  -0.077
    1UNL    C16   20   0.145  -0.083  -0.211
    1UNL    C17   21   0.271  -0.072  -0.267
    1UNL    C18   22   0.386  -0.046  -0.191
    1UNL    C19   23   0.374  -0.030  -0.051
    1UNL    C20   24   0.245  -0.031  -0.003
    1UNL     N2   25   0.216   0.016   0.136
    1UNL     O4   26   0.503  -0.010   0.005
    1UNL    C21   27   0.588   0.007  -0.109
    1UNL     O5   28   0.515  -0.022  -0.228
    1UNL    C22   29  -0.124  -0.004  -0.025
    1UNL     H1   30   0.037   0.349  -0.223
    1UNL     H2   31   0.012   0.412  -0.051
    1UNL     H3   32   0.168   0.368  -0.106
    1UNL     H4   33  -0.039  -0.021   0.300
    1UNL     H5   34   0.043   0.137   0.325
    1UNL     H6   35  -0.233   0.130   0.284
    1UNL     H7   36  -0.155   0.214   0.157
    1UNL     H8   37  -0.343   0.161  -0.003
    1UNL     H9   38  -0.428   0.078   0.126
    1UNL    H10   39  -0.445  -0.135   0.010
    1UNL    H11   40  -0.502  -0.008  -0.101
    1UNL    H12   41  -0.296   0.003  -0.236
    1UNL    H13   42  -0.347  -0.164  -0.219
    1UNL    H14   43  -0.043  -0.282  -0.138
    1UNL    H15   44  -0.183  -0.322  -0.029
    1UNL    H16   45   0.052  -0.280   0.072
    1UNL    H17   46  -0.291  -0.095   0.272
    1UNL    H18   47  -0.304  -0.181   0.109
    1UNL    H19   48   0.059  -0.115  -0.267
    1UNL    H20   49   0.281  -0.109  -0.370
    1UNL    H21   50   0.271   0.097   0.172
    1UNL    H22   51   0.631   0.106  -0.103
    1UNL    H23   52   0.676  -0.065  -0.094
    1UNL    H24   53  -0.112   0.077  -0.090
   0.00000   0.00000   0.00000   0.00000   0.00000   0.00000   0.00000   0.00000   0.00000
Generated with MDTraj, t= 60.0
 53
    1UNL     C1    1   0.061   0.341  -0.099
    1UNL     O1    2   0.038   0.216  -0.060
    1UNL     C2    3   0.091   0.191   0.066
    1UNL     O2    4   0.150   0.276   0.135
    1UNL     C3    5   0.072   0.052   0.122
    1UNL     C4    6  -0.019   0.073   0.246
    1UNL     C5    7  -0.158   0.122   0.202
    1UNL     C6    8  -0.223   0.013   0.103
    1UNL     C7    9  -0.359   0.063   0.038
    1UNL     C8   10  -0.413  -0.048  -0.066
    1UNL     C9   11  -0.311  -0.078  -0.169
    1UNL     N1   12  -0.175  -0.114  -0.112
    1UNL    C10   13  -0.123  -0.246  -0.058
    1UNL    C11   14  -0.023  -0.202   0.062
    1UNL    C12   15  -0.104  -0.195   0.187
    1UNL     O3   16  -0.061  -0.241   0.290
    1UNL    C13   17  -0.231  -0.119   0.181
    1UNL    C14   18   0.017  -0.056   0.026
    1UNL    C15   19   0.136  -0.066  -0.063
    1UNL    C16   20   0.143  -0.076  -0.201
    1UNL    C17   21   0.264  -0.066  -0.266
    1UNL    C18   22   0.382  -0.048  -0.192
    1UNL    C19   23   0.380  -0.029  -0.052
    1UNL    C20   24   0.256  -0.032   0.015
    1UNL     N2   25   0.209   0.021   0.140
    1UNL     O4   26   0.504   0.006   0.000
    1UNL    C21   27   0.589  -0.006  -0.118
    1UNL     O5   28   0.520  -0.042  -0.230
    1UNL    C22   29  -0.125  -0.004  -0.020
    1UNL     H1   30   0.035   0.354  -0.207
    1UNL     H2   31   0.002   0.414  -0.037
    1UNL     H3   32   0.162   0.363  -0.090
    1UNL     H4   33  -0.027  -0.014   0.311
    1UNL     H5   34   0.016   0.154   0.317
    1UNL     H6   35  -0.221   0.132   0.282
    1UNL     H7   36  -0.152   0.223   0.163
    1UNL     H8   37  -0.336   0.151  -0.022
    1UNL     H9   38  -0.424   0.106   0.117
    1UNL    H10   39  -0.445  -0.146  -0.015
    1UNL    H11   40  -0.499  -0.005  -0.106
    1UNL    H12   41  -0.290   0.007  -0.240
    1UNL    H13   42  -0.332  -0.159  -0.232
    1UNL    H14   43  -0.076  -0.307  -0.144
    1UNL    H15   44  -0.200  -0.316  -0.016
    1UNL    H16   45   0.076  -0.248   0.074
    1UNL    H17   46  -0.263  -0.099   0.292
    1UNL    H18   47  -0.311  -0.179   0.140
    1UNL    H19   48   0.056  -0.101  -0.260
    1UNL    H20   49   0.287  -0.096  -0.365
    1UNL    H21   50   0.267   0.093   0.184
    1UNL    H22   51   0.646   0.089  -0.132
    1UNL    H23   52   0.670  -0.087  -0.096
    1UNL    H24   53  -0.119   0.084  -0.074
   0.00000   0.00000   0.00000   0.00000   0.00000   0.00000   0.00000   0.00000   0.00000
Generated with MDTraj, t= 61.0
 53
    1UNL     C1    1   0.074   0.368  -0.092
    1UNL     O1    2   0.037   0.243  -0.050
    1UNL     C2    3   0.079   0.208   0.073
    1UNL     O2    4   0.141   0.286   0.144
    1UNL     C3    5   0.075   0.063   0.132
    1UNL     C4    6  -0.016   0.076   0.252
    1UNL     C5    7  -0.166   0.107   0.208
    1UNL     C6    8  -0.219   0.015   0.100
    1UNL     C7    9  -0.354   0.058   0.033
    1UNL     C8   10  -0.416  -0.052  -0.057
    1UNL     C9   11  -0.318  -0.126  -0.148
    1UNL     N1   12  -0.171  -0.117  -0.105
    1UNL    C10   13  -0.092  -0.235  -0.061
    1UNL    C11   14  -0.020  -0.185   0.063
    1UNL    C12   15  -0.110  -0.187   0.182
    1UNL     O3   16  -0.073  -0.246   0.277
    1UNL    C13   17  -0.243  -0.124   0.174
    1UNL    C14   18   0.014  -0.037   0.021
    1UNL    C15   19   0.137  -0.059  -0.073
    1UNL    C16   20   0.150  -0.080  -0.211
    1UNL    C17   21   0.274  -0.080  -0.272
    1UNL    C18   22   0.385  -0.064  -0.192
    1UNL    C19   23   0.378  -0.039  -0.053
    1UNL    C20   24   0.252  -0.037   0.007
    1UNL     N2   25   0.219   0.019   0.135
    1UNL     O4   26   0.496  -0.001  -0.002
    1UNL    C21   27   0.586  -0.020  -0.118
    1UNL     O5   28   0.519  -0.052  -0.232
    1UNL    C22   29  -0.126   0.006  -0.029
    1UNL     H1   30   0.012   0.400  -0.175
    1UNL     H2   31   0.060   0.445  -0.009
    1UNL     H3   32   0.173   0.374  -0.120
    1UNL     H4   33   0.001  -0.013   0.315
    1UNL     H5   34   0.014   0.160   0.318
    1UNL     H6   35  -0.234   0.121   0.283
    1UNL     H7   36  -0.169   0.203   0.158
    1UNL     H8   37  -0.341   0.150  -0.018
    1UNL     H9   38  -0.429   0.087   0.112
    1UNL    H10   39  -0.459  -0.123   0.021
    1UNL    H11   40  -0.496  -0.020  -0.116
    1UNL    H12   41  -0.312  -0.069  -0.243
    1UNL    H13   42  -0.339  -0.226  -0.176
    1UNL    H14   43  -0.035  -0.271  -0.155
    1UNL    H15   44  -0.161  -0.320  -0.039
    1UNL    H16   45   0.073  -0.235   0.088
    1UNL    H17   46  -0.292  -0.108   0.280
    1UNL    H18   47  -0.305  -0.190   0.120
    1UNL    H19   48   0.057  -0.099  -0.259
    1UNL    H20   49   0.289  -0.116  -0.376
    1UNL    H21   50   0.271   0.099   0.174
    1UNL    H22   51   0.642   0.074  -0.137
    1UNL    H23   52   0.670  -0.095  -0.090
    1UNL    H24   53  -0.122   0.095  -0.084
   0.00000   0.00000   0.00000   0.00000   0.00000   0.00000   0.00000   0.00000   0.00000
Generated with MDTraj, t= 62.0
 53
    1UNL     C1    1   0.059   0.370  -0.080
    1UNL     O1    2   0.029   0.237  -0.048
    1UNL     C2    3   0.085   0.206   0.070
    1UNL     O2    4   0.137   0.285   0.149
    1UNL     C3    5   0.068   0.061   0.123
    1UNL     C4    6  -0.022   0.079   0.245
    1UNL     C5    7  -0.167   0.119   0.201
    1UNL     C6    8  -0.228   0.018   0.100
    1UNL     C7    9  -0.373   0.039   0.042
    1UNL     C8   10  -0.414  -0.067  -0.056
    1UNL     C9   11  -0.302  -0.093  -0.169
    1UNL     N1   12  -0.167  -0.113  -0.116
    1UNL    C10   13  -0.107  -0.234  -0.058
    1UNL    C11   14  -0.020  -0.184   0.055
    1UNL    C12   15  -0.093  -0.187   0.191
    1UNL     O3   16  -0.046  -0.244   0.287
    1UNL    C13   17  -0.231  -0.120   0.182
    1UNL    C14   18   0.014  -0.040   0.021
    1UNL    C15   19   0.138  -0.050  -0.071
    1UNL    C16   20   0.146  -0.068  -0.211
    1UNL    C17   21   0.273  -0.081  -0.267
    1UNL    C18   22   0.390  -0.066  -0.196
    1UNL    C19   23   0.375  -0.026  -0.060
    1UNL    C20   24   0.251  -0.018   0.005
    1UNL     N2   25   0.209   0.022   0.132
    1UNL     O4   26   0.502  -0.003  -0.008
    1UNL    C21   27   0.595  -0.044  -0.110
    1UNL     O5   28   0.522  -0.073  -0.229
    1UNL    C22   29  -0.132   0.001  -0.026
    1UNL     H1   30   0.033   0.402  -0.178
    1UNL     H2   31   0.004   0.439  -0.008
    1UNL     H3   32   0.160   0.389  -0.063
    1UNL     H4   33  -0.023  -0.014   0.306
    1UNL     H5   34   0.023   0.157   0.306
    1UNL     H6   35  -0.228   0.118   0.286
    1UNL     H7   36  -0.177   0.219   0.165
    1UNL     H8   37  -0.381   0.131  -0.009
    1UNL     H9   38  -0.448   0.055   0.126
    1UNL    H10   39  -0.437  -0.166  -0.008
    1UNL    H11   40  -0.500  -0.033  -0.107
    1UNL    H12   41  -0.293  -0.015  -0.246
    1UNL    H13   42  -0.327  -0.187  -0.216
    1UNL    H14   43  -0.046  -0.279  -0.143
    1UNL    H15   44  -0.183  -0.315  -0.036
    1UNL    H16   45   0.069  -0.246   0.056
    1UNL    H17   46  -0.255  -0.095   0.287
    1UNL    H18   47  -0.308  -0.184   0.143
    1UNL    H19   48   0.061  -0.096  -0.274
    1UNL    H20   49   0.275  -0.116  -0.367
    1UNL    H21   50   0.263   0.099   0.176
    1UNL    H22   51   0.680   0.023  -0.116
    1UNL    H23   52   0.639  -0.142  -0.070
    1UNL    H24   53  -0.136   0.085  -0.089
   0.00000   0.00000   0.00000   0.00000   0.00000   0.00000   0.00000   0.00000   0.00000
Generated with MDTraj, t= 63.0
 53
    1UNL     C1    1   0.034   0.370  -0.093
    1UNL     O1    2   0.023   0.238  -0.057
    1UNL     C2    3   0.080   0.209   0.066
    1UNL     O2    4   0.138   0.294   0.131
    1UNL     C3    5   0.067   0.076   0.126
    1UNL     C4    6  -0.024   0.077   0.256
    1UNL     C5    7  -0.168   0.108   0.216
    1UNL     C6    8  -0.223   0.006   0.107
    1UNL     C7    9  -0.357   0.040   0.048
    1UNL     C8   10  -0.417  -0.055  -0.057
    1UNL     C9   11  -0.310  -0.085  -0.169
    1UNL     N1   12  -0.174  -0.110  -0.116
    1UNL    C10   13  -0.097  -0.229  -0.068
    1UNL    C11   14  -0.002  -0.186   0.048
    1UNL    C12   15  -0.079  -0.187   0.173
    1UNL     O3   16  -0.038  -0.242   0.275
    1UNL    C13   17  -0.220  -0.133   0.175
    1UNL    C14   18   0.016  -0.037   0.018
    1UNL    C15   19   0.134  -0.033  -0.076
    1UNL    C16   20   0.136  -0.065  -0.209
    1UNL    C17   21   0.266  -0.081  -0.265
    1UNL    C18   22   0.381  -0.069  -0.181
    1UNL    C19   23   0.374  -0.042  -0.046
    1UNL    C20   24   0.248  -0.018   0.004
    1UNL     N2   25   0.215   0.032   0.136
    1UNL     O4   26   0.509  -0.038   0.007
    1UNL    C21   27   0.594  -0.043  -0.104
    1UNL     O5   28   0.516  -0.076  -0.220
    1UNL    C22   29  -0.127   0.006  -0.024
    1UNL     H1   30   0.003   0.376  -0.193
    1UNL     H2   31  -0.046   0.432  -0.035
    1UNL     H3   32   0.130   0.411  -0.077
    1UNL     H4   33  -0.020  -0.028   0.294
    1UNL     H5   34   0.020   0.144   0.329
    1UNL     H6   35  -0.232   0.118   0.304
    1UNL     H7   36  -0.166   0.204   0.174
    1UNL     H8   37  -0.360   0.144   0.023
    1UNL     H9   38  -0.428   0.045   0.136
    1UNL    H10   39  -0.453  -0.150  -0.016
    1UNL    H11   40  -0.497  -0.001  -0.105
    1UNL    H12   41  -0.308   0.001  -0.234
    1UNL    H13   42  -0.335  -0.176  -0.226
    1UNL    H14   43  -0.042  -0.275  -0.154
    1UNL    H15   44  -0.172  -0.308  -0.033
    1UNL    H16   45   0.084  -0.252   0.069
    1UNL    H17   46  -0.248  -0.122   0.273
    1UNL    H18   47  -0.287  -0.208   0.124
    1UNL    H19   48   0.053  -0.105  -0.261
    1UNL    H20   49   0.286  -0.118  -0.366
    1UNL    H21   50   0.270   0.110   0.176
    1UNL    H22   51   0.628   0.057  -0.108
    1UNL    H23   52   0.679  -0.108  -0.081
    1UNL    H24   53  -0.127   0.094  -0.082
   0.00000   0.00000   0.00000   0.00000   0.00000   0.00000   0.00000   0.00000   0.00000
Generated with MDTraj, t= 64.0
 53
    1UNL     C1    1   0.032   0.371  -0.093
    1UNL     O1    2   0.011   0.239  -0.051
    1UNL     C2    3   0.074   0.218   0.070
    1UNL     O2    4   0.134   0.295   0.140
    1UNL     C3    5   0.074   0.068   0.121
    1UNL     C4    6  -0.009   0.062   0.247
    1UNL     C5    7  -0.153   0.112   0.199
    1UNL     C6    8  -0.219   0.020   0.100
    1UNL     C7    9  -0.358   0.054   0.052
    1UNL     C8   10  -0.416  -0.063  -0.038
    1UNL     C9   11  -0.321  -0.108  -0.145
    1UNL     N1   12  -0.179  -0.115  -0.112
    1UNL    C10   13  -0.105  -0.237  -0.063
    1UNL    C11   14  -0.016  -0.187   0.049
    1UNL    C12   15  -0.100  -0.202   0.176
    1UNL     O3   16  -0.067  -0.259   0.277
    1UNL    C13   17  -0.224  -0.119   0.169
    1UNL    C14   18   0.014  -0.035   0.013
    1UNL    C15   19   0.142  -0.036  -0.082
    1UNL    C16   20   0.162  -0.067  -0.218
    1UNL    C17   21   0.288  -0.073  -0.274
    1UNL    C18   22   0.394  -0.058  -0.185
    1UNL    C19   23   0.378  -0.019  -0.050
    1UNL    C20   24   0.250  -0.002   0.002
    1UNL     N2   25   0.212   0.033   0.133
    1UNL     O4   26   0.506  -0.014   0.001
    1UNL    C21   27   0.593  -0.067  -0.099
    1UNL     O5   28   0.529  -0.081  -0.220
    1UNL    C22   29  -0.123   0.009  -0.029
    1UNL     H1   30  -0.040   0.398  -0.165
    1UNL     H2   31   0.014   0.441  -0.000
    1UNL     H3   32   0.133   0.384  -0.126
    1UNL     H4   33   0.005  -0.038   0.299
    1UNL     H5   34   0.030   0.142   0.309
    1UNL     H6   35  -0.207   0.113   0.296
    1UNL     H7   36  -0.154   0.209   0.165
    1UNL     H8   37  -0.349   0.152   0.006
    1UNL     H9   38  -0.425   0.081   0.137
    1UNL    H10   39  -0.432  -0.149   0.025
    1UNL    H11   40  -0.513  -0.039  -0.082
    1UNL    H12   41  -0.315  -0.037  -0.225
    1UNL    H13   42  -0.358  -0.203  -0.192
    1UNL    H14   43  -0.046  -0.284  -0.143
    1UNL    H15   44  -0.188  -0.310  -0.032
    1UNL    H16   45   0.074  -0.247   0.063
    1UNL    H17   46  -0.254  -0.114   0.267
    1UNL    H18   47  -0.294  -0.188   0.120
    1UNL    H19   48   0.076  -0.104  -0.275
    1UNL    H20   49   0.300  -0.110  -0.374
    1UNL    H21   50   0.274   0.092   0.192
    1UNL    H22   51   0.678  -0.007  -0.105
    1UNL    H23   52   0.612  -0.166  -0.057
    1UNL    H24   53  -0.113   0.103  -0.078
   0.00000   0.00000   0.00000   0.00000   0.00000   0.00000   0.00000   0.00000   0.00000
Generated with MDTraj, t= 65.0
 53
    1UNL     C1    1   0.036   0.383  -0.084
    1UNL     O1    2   0.017   0.246  -0.046
    1UNL     C2    3   0.082   0.217   0.067
    1UNL     O2    4   0.147   0.290   0.132
    1UNL     C3    5   0.074   0.071   0.120
    1UNL     C4    6  -0.018   0.074   0.253
    1UNL     C5    7  -0.163   0.109   0.201
    1UNL     C6    8  -0.220   0.008   0.100
    1UNL     C7    9  -0.359   0.045   0.056
    1UNL     C8   10  -0.415  -0.051  -0.062
    1UNL     C9   11  -0.311  -0.098  -0.166
    1UNL     N1   12  -0.174  -0.110  -0.117
    1UNL    C10   13  -0.110  -0.236  -0.062
    1UNL    C11   14  -0.011  -0.188   0.050
    1UNL    C12   15  -0.084  -0.190   0.180
    1UNL     O3   16  -0.041  -0.239   0.281
    1UNL    C13   17  -0.228  -0.127   0.171
    1UNL    C14   18   0.015  -0.033   0.016
    1UNL    C15   19   0.139  -0.052  -0.075
    1UNL    C16   20   0.149  -0.075  -0.213
    1UNL    C17   21   0.270  -0.094  -0.267
    1UNL    C18   22   0.381  -0.070  -0.185
    1UNL    C19   23   0.379  -0.039  -0.045
    1UNL    C20   24   0.250  -0.026   0.008
    1UNL     N2   25   0.206   0.010   0.136
    1UNL     O4   26   0.508  -0.016   0.005
    1UNL    C21   27   0.591  -0.024  -0.110
    1UNL     O5   28   0.519  -0.073  -0.218
    1UNL    C22   29  -0.130   0.006  -0.032
    1UNL     H1   30  -0.016   0.402  -0.176
    1UNL     H2   31  -0.010   0.453  -0.003
    1UNL     H3   32   0.145   0.404  -0.090
    1UNL     H4   33  -0.013  -0.031   0.290
    1UNL     H5   34   0.018   0.135   0.336
    1UNL     H6   35  -0.237   0.114   0.284
    1UNL     H7   36  -0.154   0.204   0.161
    1UNL     H8   37  -0.356   0.149   0.019
    1UNL     H9   38  -0.426   0.057   0.143
    1UNL    H10   39  -0.468  -0.129  -0.019
    1UNL    H11   40  -0.494   0.011  -0.110
    1UNL    H12   41  -0.307  -0.043  -0.256
    1UNL    H13   42  -0.330  -0.202  -0.205
    1UNL    H14   43  -0.060  -0.283  -0.149
    1UNL    H15   44  -0.193  -0.304  -0.023
    1UNL    H16   45   0.087  -0.233   0.069
    1UNL    H17   46  -0.259  -0.115   0.273
    1UNL    H18   47  -0.294  -0.203   0.139
    1UNL    H19   48   0.057  -0.078  -0.265
    1UNL    H20   49   0.278  -0.135  -0.367
    1UNL    H21   50   0.282   0.064   0.181
    1UNL    H22   51   0.613   0.077  -0.127
    1UNL    H23   52   0.675  -0.091  -0.087
    1UNL    H24   53  -0.136   0.101  -0.085
   0.00000   0.00000   0.00000   0.00000   0.00000   0.00000   0.00000   0.00000   0.00000
Generated with MDTraj, t= 66.0
 53
    1UNL     C1    1   0.049   0.372  -0.080
    1UNL     O1    2   0.014   0.238  -0.041
    1UNL     C2    3   0.091   0.204   0.071
    1UNL     O2    4   0.166   0.273   0.132
    1UNL     C3    5   0.071   0.062   0.124
    1UNL     C4    6  -0.028   0.075   0.246
    1UNL     C5    7  -0.164   0.119   0.199
    1UNL     C6    8  -0.219   0.017   0.097
    1UNL     C7    9  -0.365   0.040   0.039
    1UNL     C8   10  -0.409  -0.064  -0.063
    1UNL     C9   11  -0.300  -0.090  -0.170
    1UNL     N1   12  -0.159  -0.110  -0.122
    1UNL    C10   13  -0.111  -0.233  -0.054
    1UNL    C11   14  -0.022  -0.187   0.062
    1UNL    C12   15  -0.103  -0.191   0.188
    1UNL     O3   16  -0.065  -0.240   0.293
    1UNL    C13   17  -0.232  -0.121   0.179
    1UNL    C14   18   0.015  -0.044   0.026
    1UNL    C15   19   0.133  -0.045  -0.071
    1UNL    C16   20   0.147  -0.089  -0.199
    1UNL    C17   21   0.268  -0.085  -0.269
    1UNL    C18   22   0.384  -0.058  -0.192
    1UNL    C19   23   0.379  -0.027  -0.054
    1UNL    C20   24   0.252  -0.023   0.005
    1UNL     N2   25   0.212   0.005   0.141
    1UNL     O4   26   0.508   0.004  -0.008
    1UNL    C21   27   0.597  -0.027  -0.117
    1UNL     O5   28   0.519  -0.054  -0.235
    1UNL    C22   29  -0.130   0.003  -0.028
    1UNL     H1   30   0.007   0.384  -0.180
    1UNL     H2   31  -0.002   0.446  -0.014
    1UNL     H3   32   0.162   0.379  -0.073
    1UNL     H4   33  -0.017  -0.016   0.308
    1UNL     H5   34   0.019   0.151   0.310
    1UNL     H6   35  -0.235   0.131   0.280
    1UNL     H7   36  -0.146   0.217   0.152
    1UNL     H8   37  -0.386   0.139  -0.008
    1UNL     H9   38  -0.438   0.044   0.120
    1UNL    H10   39  -0.437  -0.149  -0.013
    1UNL    H11   40  -0.501  -0.023  -0.111
    1UNL    H12   41  -0.298  -0.017  -0.248
    1UNL    H13   42  -0.334  -0.181  -0.227
    1UNL    H14   43  -0.055  -0.296  -0.127
    1UNL    H15   44  -0.205  -0.288  -0.023
    1UNL    H16   45   0.058  -0.261   0.066
    1UNL    H17   46  -0.254  -0.118   0.289
    1UNL    H18   47  -0.303  -0.185   0.139
    1UNL    H19   48   0.050  -0.123  -0.237
    1UNL    H20   49   0.300  -0.128  -0.363
    1UNL    H21   50   0.276   0.061   0.195
    1UNL    H22   51   0.663   0.057  -0.124
    1UNL    H23   52   0.644  -0.123  -0.080
    1UNL    H24   53  -0.112   0.092  -0.087
   0.00000   0.00000   0.00000   0.00000   0.00000   0.00000   0.00000   0.00000   0.00000
Generated with MDTraj, t= 67.0
 53
    1UNL     C1    1   0.055   0.365  -0.091
    1UNL     O1    2   0.016   0.234  -0.048
    1UNL     C2    3   0.086   0.199   0.065
    1UNL     O2    4   0.160   0.272   0.125
    1UNL     C3    5   0.073   0.055   0.126
    1UNL     C4    6  -0.016   0.075   0.254
    1UNL     C5    7  -0.157   0.116   0.201
    1UNL     C6    8  -0.212   0.019   0.092
    1UNL     C7    9  -0.346   0.064   0.034
    1UNL     C8   10  -0.406  -0.039  -0.057
    1UNL     C9   11  -0.306  -0.119  -0.153
    1UNL     N1   12  -0.162  -0.118  -0.109
    1UNL    C10   13  -0.096  -0.238  -0.051
    1UNL    C11   14  -0.019  -0.196   0.071
    1UNL    C12   15  -0.112  -0.190   0.189
    1UNL     O3   16  -0.085  -0.248   0.291
    1UNL    C13   17  -0.242  -0.122   0.163
    1UNL    C14   18   0.016  -0.050   0.024
    1UNL    C15   19   0.137  -0.057  -0.069
    1UNL    C16   20   0.147  -0.068  -0.212
    1UNL    C17   21   0.272  -0.073  -0.270
    1UNL    C18   22   0.384  -0.044  -0.194
    1UNL    C19   23   0.371  -0.025  -0.052
    1UNL    C20   24   0.249  -0.026   0.013
    1UNL     N2   25   0.211   0.004   0.142
    1UNL     O4   26   0.499  -0.015  -0.003
    1UNL    C21   27   0.587  -0.007  -0.116
    1UNL     O5   28   0.514  -0.047  -0.234
    1UNL    C22   29  -0.117  -0.001  -0.024
    1UNL     H1   30  -0.033   0.397  -0.147
    1UNL     H2   31   0.076   0.430  -0.008
    1UNL     H3   32   0.149   0.352  -0.157
    1UNL     H4   33   0.002  -0.020   0.306
    1UNL     H5   34   0.033   0.146   0.322
    1UNL     H6   35  -0.225   0.123   0.283
    1UNL     H7   36  -0.153   0.219   0.150
    1UNL     H8   37  -0.347   0.159  -0.028
    1UNL     H9   38  -0.415   0.097   0.110
    1UNL    H10   39  -0.450  -0.114   0.004
    1UNL    H11   40  -0.483   0.011  -0.118
    1UNL    H12   41  -0.312  -0.071  -0.249
    1UNL    H13   42  -0.349  -0.223  -0.172
    1UNL    H14   43  -0.029  -0.281  -0.129
    1UNL    H15   44  -0.168  -0.318  -0.021
    1UNL    H16   45   0.073  -0.250   0.100
    1UNL    H17   46  -0.292  -0.101   0.261
    1UNL    H18   47  -0.312  -0.199   0.122
    1UNL    H19   48   0.066  -0.090  -0.278
    1UNL    H20   49   0.285  -0.099  -0.373
    1UNL    H21   50   0.264   0.077   0.185
    1UNL    H22   51   0.616   0.100  -0.124
    1UNL    H23   52   0.677  -0.075  -0.090
    1UNL    H24   53  -0.114   0.087  -0.092
   0.00000   0.00000   0.00000   0.00000   0.00000   0.00000   0.00000   0.00000   0.00000
Generated with MDTraj, t= 68.0
 53
    1UNL     C1    1   0.053   0.357  -0.097
    1UNL     O1    2   0.027   0.220  -0.049
    1UNL     C2    3   0.090   0.192   0.060
    1UNL     O2    4   0.162   0.266   0.123
    1UNL     C3    5   0.072   0.056   0.128
    1UNL     C4    6  -0.024   0.081   0.248
    1UNL     C5    7  -0.156   0.121   0.192
    1UNL     C6    8  -0.220   0.012   0.099
    1UNL     C7    9  -0.357   0.059   0.046
    1UNL     C8   10  -0.415  -0.048  -0.056
    1UNL     C9   11  -0.313  -0.092  -0.167
    1UNL     N1   12  -0.177  -0.116  -0.115
    1UNL    C10   13  -0.128  -0.241  -0.054
    1UNL    C11   14  -0.019  -0.199   0.060
    1UNL    C12   15  -0.104  -0.196   0.191
    1UNL     O3   16  -0.068  -0.235   0.296
    1UNL    C13   17  -0.236  -0.118   0.182
    1UNL    C14   18   0.011  -0.057   0.018
    1UNL    C15   19   0.143  -0.063  -0.067
    1UNL    C16   20   0.149  -0.085  -0.204
    1UNL    C17   21   0.271  -0.059  -0.268
    1UNL    C18   22   0.387  -0.045  -0.189
    1UNL    C19   23   0.379  -0.025  -0.049
    1UNL    C20   24   0.253  -0.033   0.011
    1UNL     N2   25   0.212   0.005   0.142
    1UNL     O4   26   0.512  -0.011   0.002
    1UNL    C21   27   0.594  -0.009  -0.114
    1UNL     O5   28   0.518  -0.025  -0.230
    1UNL    C22   29  -0.120  -0.006  -0.032
    1UNL     H1   30   0.003   0.363  -0.194
    1UNL     H2   31   0.015   0.427  -0.030
    1UNL     H3   32   0.167   0.372  -0.105
    1UNL     H4   33  -0.022  -0.007   0.312
    1UNL     H5   34   0.028   0.164   0.301
    1UNL     H6   35  -0.228   0.136   0.270
    1UNL     H7   36  -0.137   0.224   0.140
    1UNL     H8   37  -0.343   0.159  -0.007
    1UNL     H9   38  -0.430   0.095   0.118
    1UNL    H10   39  -0.446  -0.136   0.002
    1UNL    H11   40  -0.501  -0.014  -0.113
    1UNL    H12   41  -0.315  -0.018  -0.249
    1UNL    H13   42  -0.351  -0.186  -0.215
    1UNL    H14   43  -0.086  -0.304  -0.137
    1UNL    H15   44  -0.210  -0.301  -0.013
    1UNL    H16   45   0.074  -0.257   0.045
    1UNL    H17   46  -0.282  -0.097   0.282
    1UNL    H18   47  -0.317  -0.184   0.132
    1UNL    H19   48   0.063  -0.118  -0.261
    1UNL    H20   49   0.262  -0.066  -0.376
    1UNL    H21   50   0.261   0.068   0.200
    1UNL    H22   51   0.642   0.092  -0.113
    1UNL    H23   52   0.676  -0.091  -0.104
    1UNL    H24   53  -0.110   0.095  -0.081
   0.00000   0.00000   0.00000   0.00000   0.00000   0.00000   0.00000   0.00000   0.00000
Generated with MDTraj, t= 69.0
 53
    1UNL     C1    1   0.068   0.354  -0.107
    1UNL     O1    2   0.041   0.222  -0.051
    1UNL     C2    3   0.099   0.202   0.069
    1UNL     O2    4   0.173   0.282   0.130
    1UNL     C3    5   0.070   0.062   0.118
    1UNL     C4    6  -0.018   0.078   0.249
    1UNL     C5    7  -0.164   0.118   0.200
    1UNL     C6    8  -0.222   0.012   0.096
    1UNL     C7    9  -0.360   0.048   0.047
    1UNL     C8   10  -0.418  -0.055  -0.055
    1UNL     C9   11  -0.316  -0.095  -0.157
    1UNL     N1   12  -0.175  -0.110  -0.112
    1UNL    C10   13  -0.119  -0.235  -0.063
    1UNL    C11   14  -0.027  -0.196   0.061
    1UNL    C12   15  -0.101  -0.200   0.191
    1UNL     O3   16  -0.060  -0.246   0.293
    1UNL    C13   17  -0.227  -0.128   0.181
    1UNL    C14   18   0.015  -0.042   0.016
    1UNL    C15   19   0.132  -0.057  -0.076
    1UNL    C16   20   0.138  -0.076  -0.213
    1UNL    C17   21   0.274  -0.078  -0.268
    1UNL    C18   22   0.384  -0.043  -0.191
    1UNL    C19   23   0.369  -0.030  -0.056
    1UNL    C20   24   0.248  -0.040   0.006
    1UNL     N2   25   0.211   0.003   0.135
    1UNL     O4   26   0.490   0.004   0.007
    1UNL    C21   27   0.582   0.000  -0.102
    1UNL     O5   28   0.524  -0.045  -0.218
    1UNL    C22   29  -0.124   0.005  -0.027
    1UNL     H1   30   0.038   0.347  -0.211
    1UNL     H2   31   0.018   0.425  -0.057
    1UNL     H3   32   0.181   0.377  -0.101
    1UNL     H4   33  -0.017  -0.011   0.309
    1UNL     H5   34   0.030   0.164   0.304
    1UNL     H6   35  -0.228   0.121   0.290
    1UNL     H7   36  -0.173   0.220   0.148
    1UNL     H8   37  -0.369   0.158   0.016
    1UNL     H9   38  -0.424   0.053   0.133
    1UNL    H10   39  -0.450  -0.152  -0.006
    1UNL    H11   40  -0.507  -0.013  -0.100
    1UNL    H12   41  -0.313  -0.018  -0.239
    1UNL    H13   42  -0.352  -0.182  -0.219
    1UNL    H14   43  -0.052  -0.295  -0.131
    1UNL    H15   44  -0.195  -0.304  -0.031
    1UNL    H16   45   0.063  -0.257   0.078
    1UNL    H17   46  -0.275  -0.104   0.283
    1UNL    H18   47  -0.304  -0.198   0.132
    1UNL    H19   48   0.056  -0.110  -0.276
    1UNL    H20   49   0.299  -0.100  -0.372
    1UNL    H21   50   0.273   0.071   0.169
    1UNL    H22   51   0.630   0.099  -0.115
    1UNL    H23   52   0.662  -0.077  -0.074
    1UNL    H24   53  -0.127   0.103  -0.086
   0.00000   0.00000   0.00000   0.00000   0.00000   0.00000   0.00000   0.00000   0.00000
Generated with MDTraj, t= 70.0
 53
    1UNL     C1    1   0.089   0.355  -0.103
    1UNL     O1    2   0.032   0.237  -0.050
    1UNL     C2    3   0.083   0.209   0.070
    1UNL     O2    4   0.133   0.292   0.148
    1UNL     C3    5   0.064   0.064   0.125
    1UNL     C4    6  -0.022   0.078   0.254
    1UNL     C5    7  -0.166   0.116   0.207
    1UNL     C6    8  -0.222   0.010   0.093
    1UNL     C7    9  -0.361   0.052   0.043
    1UNL     C8   10  -0.421  -0.053  -0.050
    1UNL     C9   11  -0.324  -0.107  -0.151
    1UNL     N1   12  -0.175  -0.112  -0.115
    1UNL    C10   13  -0.108  -0.234  -0.065
    1UNL    C11   14  -0.019  -0.194   0.056
    1UNL    C12   15  -0.099  -0.196   0.183
    1UNL     O3   16  -0.064  -0.253   0.284
    1UNL    C13   17  -0.234  -0.130   0.172
    1UNL    C14   18   0.016  -0.040   0.022
    1UNL    C15   19   0.139  -0.058  -0.070
    1UNL    C16   20   0.154  -0.082  -0.203
    1UNL    C17   21   0.276  -0.076  -0.268
    1UNL    C18   22   0.389  -0.061  -0.187
    1UNL    C19   23   0.381  -0.024  -0.051
    1UNL    C20   24   0.252  -0.023   0.008
    1UNL     N2   25   0.213   0.028   0.141
    1UNL     O4   26   0.505  -0.002  -0.001
    1UNL    C21   27   0.593  -0.025  -0.120
    1UNL     O5   28   0.517  -0.056  -0.235
    1UNL    C22   29  -0.126  -0.003  -0.030
    1UNL     H1   30   0.030   0.376  -0.191
    1UNL     H2   31   0.097   0.429  -0.035
    1UNL     H3   32   0.196   0.334  -0.139
    1UNL     H4   33  -0.031  -0.011   0.312
    1UNL     H5   34   0.027   0.162   0.310
    1UNL     H6   35  -0.249   0.122   0.284
    1UNL     H7   36  -0.157   0.218   0.160
    1UNL     H8   37  -0.352   0.153  -0.012
    1UNL     H9   38  -0.425   0.086   0.124
    1UNL    H10   39  -0.469  -0.131   0.019
    1UNL    H11   40  -0.509  -0.019  -0.099
    1UNL    H12   41  -0.341  -0.071  -0.258
    1UNL    H13   42  -0.348  -0.214  -0.180
    1UNL    H14   43  -0.040  -0.276  -0.142
    1UNL    H15   44  -0.183  -0.305  -0.034
    1UNL    H16   45   0.065  -0.266   0.059
    1UNL    H17   46  -0.270  -0.113   0.283
    1UNL    H18   47  -0.312  -0.187   0.123
    1UNL    H19   48   0.063  -0.077  -0.259
    1UNL    H20   49   0.278  -0.088  -0.375
    1UNL    H21   50   0.277   0.092   0.180
    1UNL    H22   51   0.645   0.069  -0.135
    1UNL    H23   52   0.672  -0.099  -0.095
    1UNL    H24   53  -0.099   0.094  -0.089
   0.00000   0.00000   0.00000   0.00000   0.00000   0.00000   0.00000   0.00000   0.00000
Generated with MDTraj, t= 71.0
 53
    1UNL     C1    1   0.050   0.363  -0.085
    1UNL     O1    2   0.053   0.223  -0.064
    1UNL     C2    3   0.079   0.204   0.063
    1UNL     O2    4   0.110   0.288   0.147
    1UNL     C3    5   0.068   0.064   0.126
    1UNL     C4    6  -0.019   0.081   0.252
    1UNL     C5    7  -0.162   0.115   0.207
    1UNL     C6    8  -0.216   0.006   0.104
    1UNL     C7    9  -0.354   0.046   0.048
    1UNL     C8   10  -0.402  -0.055  -0.062
    1UNL     C9   11  -0.303  -0.085  -0.171
    1UNL     N1   12  -0.162  -0.104  -0.117
    1UNL    C10   13  -0.101  -0.235  -0.057
    1UNL    C11   14  -0.014  -0.195   0.059
    1UNL    C12   15  -0.094  -0.195   0.189
    1UNL     O3   16  -0.059  -0.239   0.294
    1UNL    C13   17  -0.230  -0.131   0.180
    1UNL    C14   18   0.018  -0.039   0.023
    1UNL    C15   19   0.133  -0.044  -0.071
    1UNL    C16   20   0.143  -0.079  -0.212
    1UNL    C17   21   0.265  -0.074  -0.268
    1UNL    C18   22   0.381  -0.055  -0.201
    1UNL    C19   23   0.374  -0.032  -0.061
    1UNL    C20   24   0.248  -0.020   0.004
    1UNL     N2   25   0.213   0.022   0.137
    1UNL     O4   26   0.498  -0.007  -0.003
    1UNL    C21   27   0.589  -0.037  -0.109
    1UNL     O5   28   0.519  -0.073  -0.229
    1UNL    C22   29  -0.124   0.002  -0.024
    1UNL     H1   30   0.031   0.381  -0.191
    1UNL     H2   31  -0.015   0.409  -0.020
    1UNL     H3   32   0.151   0.411  -0.060
    1UNL     H4   33  -0.031  -0.010   0.309
    1UNL     H5   34   0.010   0.162   0.320
    1UNL     H6   35  -0.239   0.109   0.296
    1UNL     H7   36  -0.174   0.215   0.161
    1UNL     H8   37  -0.349   0.148  -0.004
    1UNL     H9   38  -0.429   0.070   0.122
    1UNL    H10   39  -0.432  -0.154  -0.016
    1UNL    H11   40  -0.493  -0.014  -0.098
    1UNL    H12   41  -0.306  -0.017  -0.264
    1UNL    H13   42  -0.334  -0.178  -0.226
    1UNL    H14   43  -0.042  -0.273  -0.140
    1UNL    H15   44  -0.178  -0.302  -0.022
    1UNL    H16   45   0.083  -0.249   0.058
    1UNL    H17   46  -0.277  -0.091   0.278
    1UNL    H18   47  -0.299  -0.202   0.141
    1UNL    H19   48   0.059  -0.095  -0.277
    1UNL    H20   49   0.285  -0.090  -0.372
    1UNL    H21   50   0.266   0.101   0.166
    1UNL    H22   51   0.657   0.043  -0.121
    1UNL    H23   52   0.652  -0.116  -0.070
    1UNL    H24   53  -0.123   0.109  -0.070
   0.00000   0.00000   0.00000   0.00000   0.00000   0.00000   0.00000   0.00000   0.00000
Generated with MDTraj, t= 72.0
 53
    1UNL     C1    1   0.041   0.358  -0.092
    1UNL     O1    2   0.032   0.221  -0.059
    1UNL     C2    3   0.066   0.207   0.074
    1UNL     O2    4   0.102   0.295   0.149
    1UNL     C3    5   0.069   0.069   0.130
    1UNL     C4    6  -0.018   0.074   0.251
    1UNL     C5    7  -0.168   0.118   0.213
    1UNL     C6    8  -0.217   0.016   0.100
    1UNL     C7    9  -0.360   0.054   0.047
    1UNL     C8   10  -0.416  -0.051  -0.056
    1UNL     C9   11  -0.310  -0.093  -0.160
    1UNL     N1   12  -0.160  -0.099  -0.117
    1UNL    C10   13  -0.096  -0.227  -0.070
    1UNL    C11   14  -0.017  -0.189   0.063
    1UNL    C12   15  -0.099  -0.197   0.189
    1UNL     O3   16  -0.051  -0.248   0.284
    1UNL    C13   17  -0.229  -0.128   0.175
    1UNL    C14   18   0.016  -0.038   0.022
    1UNL    C15   19   0.135  -0.038  -0.076
    1UNL    C16   20   0.148  -0.082  -0.211
    1UNL    C17   21   0.274  -0.095  -0.269
    1UNL    C18   22   0.394  -0.066  -0.194
    1UNL    C19   23   0.386  -0.032  -0.053
    1UNL    C20   24   0.256  -0.019   0.003
    1UNL     N2   25   0.218   0.031   0.136
    1UNL     O4   26   0.514  -0.031  -0.001
    1UNL    C21   27   0.597  -0.035  -0.118
    1UNL     O5   28   0.521  -0.067  -0.231
    1UNL    C22   29  -0.119   0.012  -0.024
    1UNL     H1   30   0.107   0.370  -0.182
    1UNL     H2   31  -0.055   0.394  -0.109
    1UNL     H3   32   0.086   0.426  -0.012
    1UNL     H4   33  -0.010  -0.010   0.319
    1UNL     H5   34   0.015   0.159   0.311
    1UNL     H6   35  -0.248   0.120   0.299
    1UNL     H7   36  -0.177   0.220   0.168
    1UNL     H8   37  -0.368   0.159   0.009
    1UNL     H9   38  -0.431   0.062   0.130
    1UNL    H10   39  -0.448  -0.141   0.004
    1UNL    H11   40  -0.503  -0.018  -0.110
    1UNL    H12   41  -0.324  -0.019  -0.248
    1UNL    H13   42  -0.347  -0.187  -0.209
    1UNL    H14   43  -0.040  -0.263  -0.154
    1UNL    H15   44  -0.178  -0.293  -0.045
    1UNL    H16   45   0.081  -0.240   0.073
    1UNL    H17   46  -0.265  -0.116   0.272
    1UNL    H18   47  -0.302  -0.189   0.121
    1UNL    H19   48   0.051  -0.092  -0.261
    1UNL    H20   49   0.291  -0.130  -0.371
    1UNL    H21   50   0.259   0.112   0.179
    1UNL    H22   51   0.647   0.057  -0.124
    1UNL    H23   52   0.675  -0.108  -0.101
    1UNL    H24   53  -0.133   0.115  -0.077
   0.00000   0.00000   0.00000   0.00000   0.00000   0.00000   0.00000   0.00000   0.00000
Generated with MDTraj, t= 73.0
 53
    1UNL     C1    1   0.055   0.369  -0.092
    1UNL     O1    2   0.044   0.233  -0.068
    1UNL     C2    3   0.080   0.208   0.062
    1UNL     O2    4   0.114   0.290   0.141
    1UNL     C3    5   0.069   0.069   0.121
    1UNL     C4    6  -0.013   0.075   0.251
    1UNL     C5    7  -0.156   0.110   0.205
    1UNL     C6    8  -0.214   0.007   0.105
    1UNL     C7    9  -0.356   0.059   0.054
    1UNL     C8   10  -0.416  -0.045  -0.044
    1UNL     C9   11  -0.318  -0.098  -0.153
    1UNL     N1   12  -0.177  -0.110  -0.112
    1UNL    C10   13  -0.115  -0.234  -0.062
    1UNL    C11   14  -0.014  -0.190   0.052
    1UNL    C12   15  -0.097  -0.207   0.179
    1UNL     O3   16  -0.057  -0.259   0.280
    1UNL    C13   17  -0.229  -0.134   0.180
    1UNL    C14   18   0.014  -0.039   0.014
    1UNL    C15   19   0.139  -0.048  -0.078
    1UNL    C16   20   0.149  -0.074  -0.214
    1UNL    C17   21   0.276  -0.084  -0.269
    1UNL    C18   22   0.392  -0.068  -0.190
    1UNL    C19   23   0.373  -0.018  -0.057
    1UNL    C20   24   0.251  -0.012   0.002
    1UNL     N2   25   0.213   0.025   0.127
    1UNL     O4   26   0.505   0.013   0.003
    1UNL    C21   27   0.592  -0.046  -0.098
    1UNL     O5   28   0.527  -0.078  -0.217
    1UNL    C22   29  -0.127   0.002  -0.021
    1UNL     H1   30   0.127   0.391  -0.175
    1UNL     H2   31  -0.045   0.400  -0.116
    1UNL     H3   32   0.092   0.438  -0.010
    1UNL     H4   33  -0.015  -0.022   0.300
    1UNL     H5   34   0.022   0.145   0.326
    1UNL     H6   35  -0.239   0.117   0.284
    1UNL     H7   36  -0.158   0.215   0.159
    1UNL     H8   37  -0.351   0.155  -0.000
    1UNL     H9   38  -0.427   0.091   0.133
    1UNL    H10   39  -0.456  -0.136   0.004
    1UNL    H11   40  -0.500  -0.002  -0.096
    1UNL    H12   41  -0.336  -0.034  -0.249
    1UNL    H13   42  -0.354  -0.201  -0.177
    1UNL    H14   43  -0.062  -0.279  -0.140
    1UNL    H15   44  -0.186  -0.308  -0.026
    1UNL    H16   45   0.073  -0.259   0.056
    1UNL    H17   46  -0.260  -0.123   0.275
    1UNL    H18   47  -0.308  -0.195   0.138
    1UNL    H19   48   0.065  -0.074  -0.277
    1UNL    H20   49   0.287  -0.082  -0.376
    1UNL    H21   50   0.265   0.101   0.174
    1UNL    H22   51   0.669   0.024  -0.122
    1UNL    H23   52   0.642  -0.140  -0.064
    1UNL    H24   53  -0.136   0.096  -0.090
   0.00000   0.00000   0.00000   0.00000   0.00000   0.00000   0.00000   0.00000   0.00000
Generated with MDTraj, t= 74.0
 53
    1UNL     C1    1   0.072   0.351  -0.111
    1UNL     O1    2   0.031   0.228  -0.055
    1UNL     C2    3   0.083   0.215   0.073
    1UNL     O2    4   0.124   0.300   0.144
    1UNL     C3    5   0.069   0.067   0.126
    1UNL     C4    6  -0.019   0.072   0.252
    1UNL     C5    7  -0.163   0.109   0.204
    1UNL     C6    8  -0.222   0.009   0.099
    1UNL     C7    9  -0.361   0.044   0.053
    1UNL     C8   10  -0.416  -0.064  -0.043
    1UNL     C9   11  -0.319  -0.091  -0.158
    1UNL     N1   12  -0.177  -0.099  -0.117
    1UNL    C10   13  -0.117  -0.222  -0.068
    1UNL    C11   14  -0.019  -0.186   0.048
    1UNL    C12   15  -0.094  -0.195   0.180
    1UNL     O3   16  -0.043  -0.235   0.284
    1UNL    C13   17  -0.233  -0.134   0.171
    1UNL    C14   18   0.016  -0.035   0.015
    1UNL    C15   19   0.136  -0.040  -0.073
    1UNL    C16   20   0.150  -0.075  -0.207
    1UNL    C17   21   0.280  -0.097  -0.261
    1UNL    C18   22   0.390  -0.065  -0.186
    1UNL    C19   23   0.377  -0.042  -0.049
    1UNL    C20   24   0.248  -0.038   0.008
    1UNL     N2   25   0.217   0.017   0.138
    1UNL     O4   26   0.502  -0.021   0.007
    1UNL    C21   27   0.590  -0.015  -0.111
    1UNL     O5   28   0.521  -0.054  -0.230
    1UNL    C22   29  -0.126   0.007  -0.029
    1UNL     H1   30   0.134   0.344  -0.205
    1UNL     H2   31  -0.020   0.414  -0.121
    1UNL     H3   32   0.143   0.405  -0.044
    1UNL     H4   33  -0.035  -0.025   0.303
    1UNL     H5   34   0.025   0.132   0.329
    1UNL     H6   35  -0.238   0.125   0.286
    1UNL     H7   36  -0.156   0.215   0.155
    1UNL     H8   37  -0.375   0.138   0.003
    1UNL     H9   38  -0.429   0.057   0.142
    1UNL    H10   39  -0.433  -0.156   0.013
    1UNL    H11   40  -0.516  -0.037  -0.078
    1UNL    H12   41  -0.321  -0.003  -0.236
    1UNL    H13   42  -0.356  -0.182  -0.212
    1UNL    H14   43  -0.062  -0.270  -0.142
    1UNL    H15   44  -0.195  -0.293  -0.040
    1UNL    H16   45   0.071  -0.251   0.056
    1UNL    H17   46  -0.255  -0.116   0.276
    1UNL    H18   47  -0.298  -0.213   0.151
    1UNL    H19   48   0.063  -0.096  -0.273
    1UNL    H20   49   0.275  -0.110  -0.367
    1UNL    H21   50   0.271   0.101   0.168
    1UNL    H22   51   0.632   0.086  -0.123
    1UNL    H23   52   0.667  -0.095  -0.087
    1UNL    H24   53  -0.129   0.114  -0.074
   0.00000   0.00000   0.00000   0.00000   0.00000   0.00000   0.00000   0.00000   0.00000
Generated with MDTraj, t= 75.0
 53
    1UNL     C1    1   0.072   0.354  -0.100
    1UNL     O1    2   0.057   0.220  -0.065
    1UNL     C2    3   0.089   0.205   0.069
    1UNL     O2    4   0.143   0.290   0.135
    1UNL     C3    5   0.072   0.061   0.122
    1UNL     C4    6  -0.021   0.071   0.248
    1UNL     C5    7  -0.163   0.117   0.200
    1UNL     C6    8  -0.222   0.009   0.099
    1UNL     C7    9  -0.361   0.050   0.041
    1UNL     C8   10  -0.418  -0.052  -0.063
    1UNL     C9   11  -0.313  -0.092  -0.166
    1UNL     N1   12  -0.168  -0.121  -0.115
    1UNL    C10   13  -0.113  -0.237  -0.046
    1UNL    C11   14  -0.019  -0.198   0.067
    1UNL    C12   15  -0.101  -0.205   0.194
    1UNL     O3   16  -0.059  -0.253   0.296
    1UNL    C13   17  -0.236  -0.125   0.184
    1UNL    C14   18   0.019  -0.047   0.024
    1UNL    C15   19   0.137  -0.040  -0.075
    1UNL    C16   20   0.139  -0.060  -0.209
    1UNL    C17   21   0.266  -0.068  -0.271
    1UNL    C18   22   0.380  -0.054  -0.193
    1UNL    C19   23   0.375  -0.020  -0.060
    1UNL    C20   24   0.249  -0.020   0.005
    1UNL     N2   25   0.208   0.014   0.143
    1UNL     O4   26   0.500   0.005  -0.002
    1UNL    C21   27   0.586  -0.036  -0.102
    1UNL     O5   28   0.515  -0.048  -0.230
    1UNL    C22   29  -0.120  -0.004  -0.029
    1UNL     H1   30   0.025   0.377  -0.196
    1UNL     H2   31   0.019   0.412  -0.014
    1UNL     H3   32   0.178   0.374  -0.112
    1UNL     H4   33  -0.023  -0.024   0.305
    1UNL     H5   34   0.006   0.146   0.319
    1UNL     H6   35  -0.228   0.146   0.286
    1UNL     H7   36  -0.144   0.220   0.147
    1UNL     H8   37  -0.368   0.150   0.004
    1UNL     H9   38  -0.440   0.052   0.122
    1UNL    H10   39  -0.463  -0.134  -0.009
    1UNL    H11   40  -0.508  -0.008  -0.108
    1UNL    H12   41  -0.303  -0.004  -0.241
    1UNL    H13   42  -0.343  -0.181  -0.229
    1UNL    H14   43  -0.074  -0.305  -0.115
    1UNL    H15   44  -0.202  -0.286  -0.008
    1UNL    H16   45   0.064  -0.271   0.076
    1UNL    H17   46  -0.271  -0.122   0.293
    1UNL    H18   47  -0.305  -0.190   0.140
    1UNL    H19   48   0.052  -0.064  -0.269
    1UNL    H20   49   0.276  -0.082  -0.379
    1UNL    H21   50   0.278   0.084   0.179
    1UNL    H22   51   0.657   0.052  -0.107
    1UNL    H23   52   0.630  -0.138  -0.066
    1UNL    H24   53  -0.094   0.097  -0.082
   0.00000   0.00000   0.00000   0.00000   0.00000   0.00000   0.00000   0.00000   0.00000
Generated with MDTraj, t= 76.0
 53
    1UNL     C1    1   0.077   0.351  -0.100
    1UNL     O1    2   0.033   0.228  -0.051
    1UNL     C2    3   0.079   0.200   0.070
    1UNL     O2    4   0.137   0.282   0.137
    1UNL     C3    5   0.071   0.059   0.132
    1UNL     C4    6  -0.027   0.066   0.258
    1UNL     C5    7  -0.161   0.116   0.192
    1UNL     C6    8  -0.219   0.014   0.090
    1UNL     C7    9  -0.349   0.070   0.037
    1UNL     C8   10  -0.415  -0.050  -0.056
    1UNL     C9   11  -0.314  -0.114  -0.157
    1UNL     N1   12  -0.173  -0.119  -0.110
    1UNL    C10   13  -0.103  -0.239  -0.052
    1UNL    C11   14  -0.010  -0.192   0.065
    1UNL    C12   15  -0.105  -0.191   0.188
    1UNL     O3   16  -0.080  -0.241   0.295
    1UNL    C13   17  -0.240  -0.125   0.166
    1UNL    C14   18   0.020  -0.039   0.021
    1UNL    C15   19   0.141  -0.044  -0.070
    1UNL    C16   20   0.146  -0.069  -0.199
    1UNL    C17   21   0.264  -0.083  -0.262
    1UNL    C18   22   0.380  -0.052  -0.192
    1UNL    C19   23   0.381  -0.038  -0.051
    1UNL    C20   24   0.258  -0.032   0.012
    1UNL     N2   25   0.212   0.015   0.145
    1UNL     O4   26   0.512  -0.026  -0.007
    1UNL    C21   27   0.591  -0.003  -0.125
    1UNL     O5   28   0.516  -0.033  -0.241
    1UNL    C22   29  -0.123   0.003  -0.029
    1UNL     H1   30  -0.000   0.400  -0.158
    1UNL     H2   31   0.103   0.412  -0.006
    1UNL     H3   32   0.157   0.327  -0.163
    1UNL     H4   33  -0.033  -0.035   0.301
    1UNL     H5   34   0.005   0.133   0.335
    1UNL     H6   35  -0.230   0.123   0.279
    1UNL     H7   36  -0.145   0.222   0.153
    1UNL     H8   37  -0.335   0.159  -0.017
    1UNL     H9   38  -0.420   0.104   0.119
    1UNL    H10   39  -0.466  -0.125   0.003
    1UNL    H11   40  -0.498   0.001  -0.105
    1UNL    H12   41  -0.307  -0.074  -0.266
    1UNL    H13   42  -0.346  -0.224  -0.162
    1UNL    H14   43  -0.053  -0.284  -0.133
    1UNL    H15   44  -0.175  -0.310  -0.019
    1UNL    H16   45   0.090  -0.238   0.087
    1UNL    H17   46  -0.277  -0.101   0.272
    1UNL    H18   47  -0.316  -0.201   0.121
    1UNL    H19   48   0.055  -0.077  -0.257
    1UNL    H20   49   0.278  -0.093  -0.366
    1UNL    H21   50   0.265   0.100   0.181
    1UNL    H22   51   0.622   0.104  -0.117
    1UNL    H23   52   0.679  -0.078  -0.123
    1UNL    H24   53  -0.111   0.091  -0.104
   0.00000   0.00000   0.00000   0.00000   0.00000   0.00000   0.00000   0.00000   0.00000
Generated with MDTraj, t= 77.0
 53
    1UNL     C1    1   0.058   0.362  -0.085
    1UNL     O1    2   0.033   0.223  -0.057
    1UNL     C2    3   0.090   0.186   0.059
    1UNL     O2    4   0.160   0.267   0.121
    1UNL     C3    5   0.074   0.051   0.128
    1UNL     C4    6  -0.016   0.068   0.248
    1UNL     C5    7  -0.156   0.114   0.196
    1UNL     C6    8  -0.216   0.020   0.099
    1UNL     C7    9  -0.356   0.054   0.040
    1UNL     C8   10  -0.406  -0.050  -0.063
    1UNL     C9   11  -0.302  -0.083  -0.165
    1UNL     N1   12  -0.164  -0.112  -0.117
    1UNL    C10   13  -0.117  -0.236  -0.047
    1UNL    C11   14  -0.027  -0.193   0.071
    1UNL    C12   15  -0.106  -0.196   0.196
    1UNL     O3   16  -0.068  -0.240   0.303
    1UNL    C13   17  -0.237  -0.123   0.178
    1UNL    C14   18   0.014  -0.053   0.021
    1UNL    C15   19   0.130  -0.053  -0.071
    1UNL    C16   20   0.149  -0.081  -0.211
    1UNL    C17   21   0.275  -0.088  -0.269
    1UNL    C18   22   0.388  -0.059  -0.192
    1UNL    C19   23   0.370  -0.019  -0.048
    1UNL    C20   24   0.244  -0.031   0.012
    1UNL     N2   25   0.212   0.006   0.137
    1UNL     O4   26   0.489   0.025  -0.003
    1UNL    C21   27   0.582  -0.013  -0.111
    1UNL     O5   28   0.517  -0.041  -0.232
    1UNL    C22   29  -0.121   0.003  -0.029
    1UNL     H1   30   0.044   0.382  -0.188
    1UNL     H2   31  -0.015   0.416  -0.016
    1UNL     H3   32   0.156   0.375  -0.060
    1UNL     H4   33  -0.011  -0.029   0.299
    1UNL     H5   34   0.035   0.138   0.312
    1UNL     H6   35  -0.225   0.141   0.282
    1UNL     H7   36  -0.133   0.208   0.144
    1UNL     H8   37  -0.365   0.150  -0.004
    1UNL     H9   38  -0.433   0.064   0.124
    1UNL    H10   39  -0.421  -0.137  -0.004
    1UNL    H11   40  -0.501  -0.028  -0.116
    1UNL    H12   41  -0.298   0.011  -0.232
    1UNL    H13   42  -0.332  -0.181  -0.219
    1UNL    H14   43  -0.067  -0.293  -0.123
    1UNL    H15   44  -0.201  -0.291  -0.019
    1UNL    H16   45   0.055  -0.269   0.070
    1UNL    H17   46  -0.270  -0.095   0.285
    1UNL    H18   47  -0.319  -0.192   0.128
    1UNL    H19   48   0.060  -0.075  -0.271
    1UNL    H20   49   0.283  -0.100  -0.379
    1UNL    H21   50   0.279   0.071   0.187
    1UNL    H22   51   0.661   0.057  -0.136
    1UNL    H23   52   0.633  -0.108  -0.077
    1UNL    H24   53  -0.111   0.100  -0.090
   0.00000   0.00000   0.00000   0.00000   0.00000   0.00000   0.00000   0.00000   0.00000
Generated with MDTraj, t= 78.0
 53
    1UNL     C1    1   0.054   0.359  -0.094
    1UNL     O1    2   0.011   0.236  -0.046
    1UNL     C2    3   0.084   0.201   0.066
    1UNL     O2    4   0.163   0.281   0.122
    1UNL     C3    5   0.071   0.061   0.125
    1UNL     C4    6  -0.025   0.075   0.246
    1UNL     C5    7  -0.159   0.122   0.195
    1UNL     C6    8  -0.218   0.018   0.102
    1UNL     C7    9  -0.354   0.052   0.041
    1UNL     C8   10  -0.424  -0.047  -0.054
    1UNL     C9   11  -0.321  -0.096  -0.160
    1UNL     N1   12  -0.173  -0.107  -0.118
    1UNL    C10   13  -0.117  -0.232  -0.054
    1UNL    C11   14  -0.021  -0.189   0.059
    1UNL    C12   15  -0.098  -0.193   0.183
    1UNL     O3   16  -0.063  -0.254   0.281
    1UNL    C13   17  -0.234  -0.128   0.176
    1UNL    C14   18   0.016  -0.041   0.019
    1UNL    C15   19   0.146  -0.052  -0.068
    1UNL    C16   20   0.147  -0.085  -0.205
    1UNL    C17   21   0.272  -0.105  -0.256
    1UNL    C18   22   0.390  -0.066  -0.185
    1UNL    C19   23   0.384  -0.042  -0.044
    1UNL    C20   24   0.257  -0.038   0.016
    1UNL     N2   25   0.217   0.010   0.138
    1UNL     O4   26   0.516  -0.004   0.000
    1UNL    C21   27   0.588   0.005  -0.116
    1UNL     O5   28   0.517  -0.042  -0.231
    1UNL    C22   29  -0.127   0.006  -0.028
    1UNL     H1   30   0.045   0.357  -0.199
    1UNL     H2   31  -0.019   0.431  -0.043
    1UNL     H3   32   0.148   0.369  -0.059
    1UNL     H4   33  -0.026  -0.026   0.284
    1UNL     H5   34   0.027   0.129   0.323
    1UNL     H6   35  -0.229   0.137   0.283
    1UNL     H7   36  -0.146   0.218   0.150
    1UNL     H8   37  -0.347   0.146  -0.011
    1UNL     H9   38  -0.431   0.079   0.120
    1UNL    H10   39  -0.463  -0.132  -0.009
    1UNL    H11   40  -0.506   0.010  -0.102
    1UNL    H12   41  -0.311  -0.018  -0.243
    1UNL    H13   42  -0.359  -0.201  -0.194
    1UNL    H14   43  -0.066  -0.295  -0.125
    1UNL    H15   44  -0.196  -0.286  -0.013
    1UNL    H16   45   0.075  -0.247   0.061
    1UNL    H17   46  -0.256  -0.108   0.290
    1UNL    H18   47  -0.313  -0.189   0.126
    1UNL    H19   48   0.050  -0.085  -0.254
    1UNL    H20   49   0.290  -0.122  -0.358
    1UNL    H21   50   0.261   0.095   0.186
    1UNL    H22   51   0.614   0.106  -0.133
    1UNL    H23   52   0.683  -0.047  -0.104
    1UNL    H24   53  -0.132   0.101  -0.091
   0.00000   0.00000   0.00000   0.00000   0.00000   0.00000   0.00000   0.00000   0.00000
Generated with MDTraj, t= 79.0
 53
    1UNL     C1    1   0.044   0.366  -0.087
    1UNL     O1    2   0.023   0.234  -0.051
    1UNL     C2    3   0.084   0.205   0.064
    1UNL     O2    4   0.151   0.283   0.131
    1UNL     C3    5   0.078   0.064   0.121
    1UNL     C4    6  -0.014   0.069   0.246
    1UNL     C5    7  -0.156   0.105   0.197
    1UNL     C6    8  -0.223   0.009   0.094
    1UNL     C7    9  -0.358   0.060   0.043
    1UNL     C8   10  -0.418  -0.048  -0.052
    1UNL     C9   11  -0.317  -0.103  -0.163
    1UNL     N1   12  -0.171  -0.118  -0.109
    1UNL    C10   13  -0.114  -0.236  -0.051
    1UNL    C11   14  -0.014  -0.189   0.063
    1UNL    C12   15  -0.101  -0.199   0.192
    1UNL     O3   16  -0.064  -0.247   0.294
    1UNL    C13   17  -0.236  -0.127   0.172
    1UNL    C14   18   0.013  -0.041   0.020
    1UNL    C15   19   0.133  -0.039  -0.080
    1UNL    C16   20   0.149  -0.071  -0.213
    1UNL    C17   21   0.274  -0.079  -0.271
    1UNL    C18   22   0.389  -0.062  -0.190
    1UNL    C19   23   0.378  -0.023  -0.055
    1UNL    C20   24   0.253  -0.019  -0.000
    1UNL     N2   25   0.216   0.021   0.133
    1UNL     O4   26   0.502   0.005  -0.002
    1UNL    C21   27   0.594  -0.039  -0.095
    1UNL     O5   28   0.526  -0.063  -0.225
    1UNL    C22   29  -0.127   0.002  -0.030
    1UNL     H1   30  -0.056   0.398  -0.121
    1UNL     H2   31   0.073   0.421   0.010
    1UNL     H3   32   0.122   0.370  -0.151
    1UNL     H4   33   0.001  -0.024   0.298
    1UNL     H5   34   0.029   0.141   0.313
    1UNL     H6   35  -0.212   0.120   0.295
    1UNL     H7   36  -0.159   0.202   0.155
    1UNL     H8   37  -0.345   0.154  -0.009
    1UNL     H9   38  -0.418   0.082   0.135
    1UNL    H10   39  -0.470  -0.118   0.006
    1UNL    H11   40  -0.498  -0.000  -0.111
    1UNL    H12   41  -0.317  -0.053  -0.265
    1UNL    H13   42  -0.336  -0.218  -0.180
    1UNL    H14   43  -0.055  -0.287  -0.126
    1UNL    H15   44  -0.188  -0.296  -0.011
    1UNL    H16   45   0.078  -0.253   0.066
    1UNL    H17   46  -0.274  -0.093   0.277
    1UNL    H18   47  -0.306  -0.184   0.120
    1UNL    H19   48   0.065  -0.092  -0.276
    1UNL    H20   49   0.285  -0.104  -0.378
    1UNL    H21   50   0.268   0.109   0.156
    1UNL    H22   51   0.672   0.030  -0.092
    1UNL    H23   52   0.636  -0.134  -0.067
    1UNL    H24   53  -0.114   0.091  -0.099
   0.00000   0.00000   0.00000   0.00000   0.00000   0.00000   0.00000   0.00000   0.00000
Generated with MDTraj, t= 80.0
 53
    1UNL     C1    1   0.036   0.367  -0.090
    1UNL     O1    2   0.013   0.234  -0.048
    1UNL     C2    3   0.077   0.213   0.073
    1UNL     O2    4   0.140   0.294   0.138
    1UNL     C3    5   0.072   0.064   0.129
    1UNL     C4    6  -0.025   0.078   0.254
    1UNL     C5    7  -0.164   0.109   0.194
    1UNL     C6    8  -0.219   0.011   0.093
    1UNL     C7    9  -0.360   0.043   0.040
    1UNL     C8   10  -0.407  -0.072  -0.054
    1UNL     C9   11  -0.316  -0.096  -0.167
    1UNL     N1   12  -0.166  -0.106  -0.123
    1UNL    C10   13  -0.103  -0.223  -0.060
    1UNL    C11   14  -0.013  -0.186   0.062
    1UNL    C12   15  -0.089  -0.188   0.187
    1UNL     O3   16  -0.043  -0.235   0.289
    1UNL    C13   17  -0.222  -0.127   0.173
    1UNL    C14   18   0.017  -0.034   0.021
    1UNL    C15   19   0.139  -0.041  -0.071
    1UNL    C16   20   0.146  -0.060  -0.209
    1UNL    C17   21   0.270  -0.083  -0.271
    1UNL    C18   22   0.378  -0.066  -0.187
    1UNL    C19   23   0.377  -0.040  -0.048
    1UNL    C20   24   0.251  -0.024   0.010
    1UNL     N2   25   0.212   0.033   0.139
    1UNL     O4   26   0.504  -0.042   0.003
    1UNL    C21   27   0.592  -0.044  -0.111
    1UNL     O5   28   0.518  -0.066  -0.231
    1UNL    C22   29  -0.121   0.007  -0.035
    1UNL     H1   30  -0.058   0.405  -0.139
    1UNL     H2   31   0.058   0.431   0.006
    1UNL     H3   32   0.127   0.372  -0.138
    1UNL     H4   33  -0.021  -0.012   0.308
    1UNL     H5   34   0.012   0.157   0.320
    1UNL     H6   35  -0.235   0.128   0.276
    1UNL     H7   36  -0.157   0.205   0.144
    1UNL     H8   37  -0.357   0.146  -0.002
    1UNL     H9   38  -0.426   0.040   0.126
    1UNL    H10   39  -0.416  -0.162  -0.003
    1UNL    H11   40  -0.511  -0.051  -0.083
    1UNL    H12   41  -0.305  -0.011  -0.240
    1UNL    H13   42  -0.338  -0.191  -0.234
    1UNL    H14   43  -0.042  -0.270  -0.133
    1UNL    H15   44  -0.178  -0.291  -0.030
    1UNL    H16   45   0.079  -0.247   0.082
    1UNL    H17   46  -0.261  -0.105   0.272
    1UNL    H18   47  -0.284  -0.198   0.125
    1UNL    H19   48   0.057  -0.069  -0.266
    1UNL    H20   49   0.282  -0.099  -0.375
    1UNL    H21   50   0.276   0.113   0.158
    1UNL    H22   51   0.640   0.048  -0.127
    1UNL    H23   52   0.673  -0.120  -0.098
    1UNL    H24   53  -0.116   0.108  -0.083
   0.00000   0.00000   0.00000   0.00000   0.00000   0.00000   0.00000   0.00000   0.00000
Generated with MDTraj, t= 81.0
 53
    1UNL     C1    1   0.045   0.377  -0.079
    1UNL     O1    2   0.018   0.246  -0.054
    1UNL     C2    3   0.085   0.217   0.064
    1UNL     O2    4   0.156   0.287   0.130
    1UNL     C3    5   0.064   0.074   0.119
    1UNL     C4    6  -0.028   0.085   0.247
    1UNL     C5    7  -0.176   0.112   0.205
    1UNL     C6    8  -0.222   0.004   0.105
    1UNL     C7    9  -0.363   0.038   0.049
    1UNL     C8   10  -0.417  -0.063  -0.057
    1UNL     C9   11  -0.315  -0.097  -0.160
    1UNL     N1   12  -0.171  -0.113  -0.120
    1UNL    C10   13  -0.094  -0.231  -0.062
    1UNL    C11   14  -0.001  -0.180   0.058
    1UNL    C12   15  -0.079  -0.195   0.185
    1UNL     O3   16  -0.050  -0.253   0.289
    1UNL    C13   17  -0.217  -0.136   0.174
    1UNL    C14   18   0.019  -0.029   0.021
    1UNL    C15   19   0.139  -0.031  -0.077
    1UNL    C16   20   0.143  -0.062  -0.209
    1UNL    C17   21   0.268  -0.076  -0.271
    1UNL    C18   22   0.382  -0.069  -0.187
    1UNL    C19   23   0.376  -0.034  -0.053
    1UNL    C20   24   0.246  -0.018   0.004
    1UNL     N2   25   0.210   0.036   0.132
    1UNL     O4   26   0.501  -0.016   0.002
    1UNL    C21   27   0.588  -0.058  -0.102
    1UNL     O5   28   0.520  -0.083  -0.221
    1UNL    C22   29  -0.130  -0.003  -0.029
    1UNL     H1   30   0.045   0.387  -0.192
    1UNL     H2   31  -0.040   0.445  -0.038
    1UNL     H3   32   0.133   0.408  -0.028
    1UNL     H4   33  -0.030  -0.013   0.289
    1UNL     H5   34   0.019   0.159   0.312
    1UNL     H6   35  -0.239   0.114   0.291
    1UNL     H7   36  -0.185   0.211   0.159
    1UNL     H8   37  -0.343   0.130  -0.014
    1UNL     H9   38  -0.430   0.057   0.131
    1UNL    H10   39  -0.453  -0.150  -0.009
    1UNL    H11   40  -0.501  -0.022  -0.115
    1UNL    H12   41  -0.312  -0.026  -0.248
    1UNL    H13   42  -0.339  -0.200  -0.211
    1UNL    H14   43  -0.041  -0.276  -0.141
    1UNL    H15   44  -0.169  -0.301  -0.031
    1UNL    H16   45   0.097  -0.232   0.059
    1UNL    H17   46  -0.248  -0.122   0.269
    1UNL    H18   47  -0.293  -0.206   0.135
    1UNL    H19   48   0.046  -0.088  -0.252
    1UNL    H20   49   0.275  -0.090  -0.379
    1UNL    H21   50   0.276   0.100   0.179
    1UNL    H22   51   0.670   0.010  -0.131
    1UNL    H23   52   0.635  -0.157  -0.072
    1UNL    H24   53  -0.140   0.098  -0.073
   0.00000   0.00000   0.00000   0.00000   0.00000   0.00000   0.00000   0.00000   0.00000
Generated with MDTraj, t= 82.0
 53
    1UNL     C1    1   0.042   0.366  -0.080
    1UNL     O1    2   0.013   0.238  -0.046
    1UNL     C2    3   0.076   0.210   0.075
    1UNL     O2    4   0.140   0.286   0.140
    1UNL     C3    5   0.070   0.068   0.122
    1UNL     C4    6  -0.023   0.080   0.246
    1UNL     C5    7  -0.170   0.114   0.202
    1UNL     C6    8  -0.213   0.013   0.096
    1UNL     C7    9  -0.362   0.049   0.046
    1UNL     C8   10  -0.423  -0.064  -0.043
    1UNL     C9   11  -0.319  -0.102  -0.153
    1UNL     N1   12  -0.175  -0.105  -0.115
    1UNL    C10   13  -0.104  -0.227  -0.065
    1UNL    C11   14  -0.013  -0.183   0.051
    1UNL    C12   15  -0.086  -0.192   0.188
    1UNL     O3   16  -0.045  -0.250   0.286
    1UNL    C13   17  -0.221  -0.121   0.180
    1UNL    C14   18   0.016  -0.033   0.014
    1UNL    C15   19   0.131  -0.045  -0.085
    1UNL    C16   20   0.156  -0.074  -0.219
    1UNL    C17   21   0.283  -0.089  -0.268
    1UNL    C18   22   0.394  -0.068  -0.190
    1UNL    C19   23   0.376  -0.032  -0.054
    1UNL    C20   24   0.248  -0.023   0.000
    1UNL     N2   25   0.212   0.027   0.125
    1UNL     O4   26   0.503  -0.010  -0.001
    1UNL    C21   27   0.594  -0.047  -0.098
    1UNL     O5   28   0.527  -0.074  -0.221
    1UNL    C22   29  -0.125   0.011  -0.033
    1UNL     H1   30  -0.003   0.375  -0.184
    1UNL     H2   31  -0.012   0.438  -0.012
    1UNL     H3   32   0.147   0.386  -0.079
    1UNL     H4   33  -0.021  -0.014   0.297
    1UNL     H5   34   0.017   0.163   0.303
    1UNL     H6   35  -0.235   0.112   0.283
    1UNL     H7   36  -0.178   0.216   0.162
    1UNL     H8   37  -0.359   0.145  -0.014
    1UNL     H9   38  -0.417   0.059   0.136
    1UNL    H10   39  -0.451  -0.158   0.003
    1UNL    H11   40  -0.511  -0.031  -0.098
    1UNL    H12   41  -0.330  -0.026  -0.236
    1UNL    H13   42  -0.346  -0.203  -0.204
    1UNL    H14   43  -0.046  -0.253  -0.147
    1UNL    H15   44  -0.174  -0.308  -0.047
    1UNL    H16   45   0.077  -0.249   0.060
    1UNL    H17   46  -0.274  -0.111   0.267
    1UNL    H18   47  -0.291  -0.190   0.126
    1UNL    H19   48   0.078  -0.089  -0.289
    1UNL    H20   49   0.301  -0.126  -0.367
    1UNL    H21   50   0.267   0.107   0.158
    1UNL    H22   51   0.664   0.040  -0.114
    1UNL    H23   52   0.651  -0.144  -0.072
    1UNL    H24   53  -0.135   0.106  -0.091
   0.00000   0.00000   0.00000   0.00000   0.00000   0.00000   0.00000   0.00000   0.00000
Generated with MDTraj, t= 83.0
 53
    1UNL     C1    1   0.033   0.368  -0.094
    1UNL     O1    2   0.024   0.231  -0.058
    1UNL     C2    3   0.081   0.208   0.066
    1UNL     O2    4   0.138   0.288   0.134
    1UNL     C3    5   0.073   0.066   0.128
    1UNL     C4    6  -0.017   0.078   0.250
    1UNL     C5    7  -0.161   0.107   0.208
    1UNL     C6    8  -0.218   0.004   0.100
    1UNL     C7    9  -0.361   0.060   0.045
    1UNL     C8   10  -0.412  -0.047  -0.050
    1UNL     C9   11  -0.314  -0.089  -0.170
    1UNL     N1   12  -0.173  -0.103  -0.118
    1UNL    C10   13  -0.116  -0.229  -0.066
    1UNL    C11   14  -0.019  -0.189   0.055
    1UNL    C12   15  -0.094  -0.194   0.189
    1UNL     O3   16  -0.048  -0.244   0.289
    1UNL    C13   17  -0.224  -0.136   0.174
    1UNL    C14   18   0.016  -0.040   0.018
    1UNL    C15   19   0.137  -0.064  -0.072
    1UNL    C16   20   0.152  -0.084  -0.210
    1UNL    C17   21   0.278  -0.088  -0.264
    1UNL    C18   22   0.389  -0.068  -0.189
    1UNL    C19   23   0.375  -0.041  -0.048
    1UNL    C20   24   0.251  -0.031   0.010
    1UNL     N2   25   0.214   0.028   0.134
    1UNL     O4   26   0.507  -0.014   0.000
    1UNL    C21   27   0.597  -0.019  -0.107
    1UNL     O5   28   0.520  -0.059  -0.225
    1UNL    C22   29  -0.126   0.006  -0.022
    1UNL     H1   30  -0.062   0.409  -0.140
    1UNL     H2   31   0.049   0.429  -0.003
    1UNL     H3   32   0.111   0.390  -0.166
    1UNL     H4   33  -0.007  -0.005   0.317
    1UNL     H5   34   0.028   0.163   0.300
    1UNL     H6   35  -0.222   0.107   0.292
    1UNL     H7   36  -0.166   0.207   0.167
    1UNL     H8   37  -0.332   0.156  -0.007
    1UNL     H9   38  -0.426   0.071   0.126
    1UNL    H10   39  -0.437  -0.138   0.003
    1UNL    H11   40  -0.502  -0.017  -0.103
    1UNL    H12   41  -0.319  -0.015  -0.256
    1UNL    H13   42  -0.358  -0.185  -0.216
    1UNL    H14   43  -0.074  -0.281  -0.144
    1UNL    H15   44  -0.203  -0.284  -0.032
    1UNL    H16   45   0.075  -0.249   0.071
    1UNL    H17   46  -0.275  -0.126   0.274
    1UNL    H18   47  -0.292  -0.210   0.131
    1UNL    H19   48   0.060  -0.077  -0.269
    1UNL    H20   49   0.293  -0.103  -0.368
    1UNL    H21   50   0.244   0.108   0.189
    1UNL    H22   51   0.643   0.082  -0.123
    1UNL    H23   52   0.677  -0.101  -0.098
    1UNL    H24   53  -0.135   0.100  -0.077
   0.00000   0.00000   0.00000   0.00000   0.00000   0.00000   0.00000   0.00000   0.00000
Generated with MDTraj, t= 84.0
 53
    1UNL     C1    1   0.060   0.347  -0.095
    1UNL     O1    2   0.023   0.226  -0.046
    1UNL     C2    3   0.086   0.199   0.069
    1UNL     O2    4   0.154   0.275   0.136
    1UNL     C3    5   0.075   0.060   0.125
    1UNL     C4    6  -0.019   0.081   0.248
    1UNL     C5    7  -0.162   0.117   0.201
    1UNL     C6    8  -0.217   0.008   0.101
    1UNL     C7    9  -0.352   0.056   0.036
    1UNL     C8   10  -0.409  -0.047  -0.055
    1UNL     C9   11  -0.308  -0.094  -0.162
    1UNL     N1   12  -0.169  -0.113  -0.118
    1UNL    C10   13  -0.113  -0.237  -0.053
    1UNL    C11   14  -0.021  -0.193   0.068
    1UNL    C12   15  -0.108  -0.201   0.190
    1UNL     O3   16  -0.078  -0.262   0.290
    1UNL    C13   17  -0.234  -0.120   0.179
    1UNL    C14   18   0.020  -0.046   0.023
    1UNL    C15   19   0.136  -0.044  -0.069
    1UNL    C16   20   0.142  -0.080  -0.207
    1UNL    C17   21   0.264  -0.072  -0.270
    1UNL    C18   22   0.386  -0.050  -0.198
    1UNL    C19   23   0.377  -0.021  -0.059
    1UNL    C20   24   0.249  -0.016   0.009
    1UNL     N2   25   0.217   0.027   0.140
    1UNL     O4   26   0.505   0.012  -0.008
    1UNL    C21   27   0.600  -0.024  -0.111
    1UNL     O5   28   0.519  -0.057  -0.226
    1UNL    C22   29  -0.117  -0.005  -0.026
    1UNL     H1   30   0.025   0.357  -0.201
    1UNL     H2   31   0.014   0.427  -0.041
    1UNL     H3   32   0.170   0.358  -0.110
    1UNL     H4   33  -0.027  -0.011   0.307
    1UNL     H5   34   0.017   0.145   0.327
    1UNL     H6   35  -0.233   0.133   0.278
    1UNL     H7   36  -0.160   0.205   0.141
    1UNL     H8   37  -0.323   0.139  -0.037
    1UNL     H9   38  -0.414   0.084   0.117
    1UNL    H10   39  -0.442  -0.137  -0.001
    1UNL    H11   40  -0.496  -0.006  -0.104
    1UNL    H12   41  -0.317  -0.029  -0.257
    1UNL    H13   42  -0.343  -0.195  -0.200
    1UNL    H14   43  -0.065  -0.287  -0.130
    1UNL    H15   44  -0.195  -0.299  -0.019
    1UNL    H16   45   0.063  -0.268   0.067
    1UNL    H17   46  -0.299  -0.108   0.280
    1UNL    H18   47  -0.302  -0.183   0.126
    1UNL    H19   48   0.050  -0.113  -0.252
    1UNL    H20   49   0.272  -0.121  -0.368
    1UNL    H21   50   0.268   0.102   0.181
    1UNL    H22   51   0.665   0.055  -0.154
    1UNL    H23   52   0.658  -0.114  -0.080
    1UNL    H24   53  -0.128   0.087  -0.080
   0.00000   0.00000   0.00000   0.00000   0.00000   0.00000   0.00000   0.00000   0.00000
Generated with MDTraj, t= 85.0
 53
    1UNL     C1    1   0.074   0.360  -0.093
    1UNL     O1    2   0.048   0.228  -0.058
    1UNL     C2    3   0.095   0.202   0.070
    1UNL     O2    4   0.158   0.280   0.145
    1UNL     C3    5   0.073   0.056   0.129
    1UNL     C4    6  -0.020   0.078   0.246
    1UNL     C5    7  -0.162   0.115   0.194
    1UNL     C6    8  -0.220   0.010   0.093
    1UNL     C7    9  -0.362   0.053   0.042
    1UNL     C8   10  -0.422  -0.050  -0.058
    1UNL     C9   11  -0.309  -0.106  -0.153
    1UNL     N1   12  -0.165  -0.112  -0.119
    1UNL    C10   13  -0.106  -0.241  -0.055
    1UNL    C11   14  -0.021  -0.194   0.071
    1UNL    C12   15  -0.106  -0.187   0.194
    1UNL     O3   16  -0.069  -0.236   0.297
    1UNL    C13   17  -0.239  -0.126   0.168
    1UNL    C14   18   0.016  -0.047   0.023
    1UNL    C15   19   0.132  -0.058  -0.073
    1UNL    C16   20   0.142  -0.079  -0.207
    1UNL    C17   21   0.265  -0.085  -0.266
    1UNL    C18   22   0.380  -0.053  -0.191
    1UNL    C19   23   0.372  -0.034  -0.056
    1UNL    C20   24   0.247  -0.035   0.003
    1UNL     N2   25   0.216   0.014   0.142
    1UNL     O4   26   0.499  -0.014   0.001
    1UNL    C21   27   0.579   0.006  -0.117
    1UNL     O5   28   0.515  -0.032  -0.236
    1UNL    C22   29  -0.121  -0.002  -0.031
    1UNL     H1   30   0.074   0.369  -0.202
    1UNL     H2   31   0.009   0.431  -0.054
    1UNL     H3   32   0.183   0.382  -0.077
    1UNL     H4   33  -0.034  -0.002   0.320
    1UNL     H5   34   0.028   0.148   0.311
    1UNL     H6   35  -0.243   0.115   0.265
    1UNL     H7   36  -0.158   0.207   0.147
    1UNL     H8   37  -0.344   0.153  -0.007
    1UNL     H9   38  -0.422   0.052   0.130
    1UNL    H10   39  -0.472  -0.134  -0.005
    1UNL    H11   40  -0.501  -0.002  -0.111
    1UNL    H12   41  -0.304  -0.052  -0.258
    1UNL    H13   42  -0.337  -0.209  -0.190
    1UNL    H14   43  -0.036  -0.275  -0.126
    1UNL    H15   44  -0.180  -0.315  -0.033
    1UNL    H16   45   0.074  -0.250   0.093
    1UNL    H17   46  -0.301  -0.126   0.268
    1UNL    H18   47  -0.300  -0.198   0.114
    1UNL    H19   48   0.056  -0.103  -0.266
    1UNL    H20   49   0.282  -0.115  -0.366
    1UNL    H21   50   0.281   0.068   0.196
    1UNL    H22   51   0.590   0.112  -0.132
    1UNL    H23   52   0.671  -0.051  -0.114
    1UNL    H24   53  -0.115   0.094  -0.077
   0.00000   0.00000   0.00000   0.00000   0.00000   0.00000   0.00000   0.00000   0.00000
Generated with MDTraj, t= 86.0
 53
    1UNL     C1    1   0.085   0.354  -0.094
    1UNL     O1    2   0.053   0.218  -0.063
    1UNL     C2    3   0.084   0.191   0.063
    1UNL     O2    4   0.129   0.273   0.144
    1UNL     C3    5   0.070   0.051   0.127
    1UNL     C4    6  -0.024   0.072   0.245
    1UNL     C5    7  -0.158   0.121   0.185
    1UNL     C6    8  -0.218   0.010   0.098
    1UNL     C7    9  -0.360   0.054   0.048
    1UNL     C8   10  -0.407  -0.051  -0.056
    1UNL     C9   11  -0.314  -0.097  -0.164
    1UNL     N1   12  -0.176  -0.119  -0.112
    1UNL    C10   13  -0.132  -0.242  -0.052
    1UNL    C11   14  -0.026  -0.195   0.059
    1UNL    C12   15  -0.099  -0.193   0.194
    1UNL     O3   16  -0.064  -0.230   0.302
    1UNL    C13   17  -0.225  -0.117   0.182
    1UNL    C14   18   0.018  -0.048   0.022
    1UNL    C15   19   0.139  -0.068  -0.068
    1UNL    C16   20   0.145  -0.070  -0.204
    1UNL    C17   21   0.271  -0.062  -0.265
    1UNL    C18   22   0.386  -0.047  -0.195
    1UNL    C19   23   0.378  -0.022  -0.055
    1UNL    C20   24   0.255  -0.035   0.006
    1UNL     N2   25   0.207   0.003   0.143
    1UNL     O4   26   0.502   0.009  -0.003
    1UNL    C21   27   0.586  -0.011  -0.112
    1UNL     O5   28   0.517  -0.035  -0.238
    1UNL    C22   29  -0.128  -0.001  -0.031
    1UNL     H1   30   0.043   0.378  -0.191
    1UNL     H2   31   0.062   0.426  -0.026
    1UNL     H3   32   0.194   0.359  -0.122
    1UNL     H4   33  -0.029  -0.017   0.309
    1UNL     H5   34   0.001   0.150   0.316
    1UNL     H6   35  -0.227   0.161   0.257
    1UNL     H7   36  -0.146   0.187   0.105
    1UNL     H8   37  -0.344   0.153  -0.002
    1UNL     H9   38  -0.423   0.051   0.134
    1UNL    H10   39  -0.441  -0.141   0.004
    1UNL    H11   40  -0.494  -0.014  -0.105
    1UNL    H12   41  -0.317  -0.025  -0.258
    1UNL    H13   42  -0.345  -0.195  -0.211
    1UNL    H14   43  -0.089  -0.312  -0.122
    1UNL    H15   44  -0.216  -0.284  -0.007
    1UNL    H16   45   0.058  -0.268   0.072
    1UNL    H17   46  -0.264  -0.097   0.281
    1UNL    H18   47  -0.302  -0.187   0.138
    1UNL    H19   48   0.060  -0.089  -0.267
    1UNL    H20   49   0.267  -0.063  -0.374
    1UNL    H21   50   0.279   0.054   0.190
    1UNL    H22   51   0.655   0.069  -0.112
    1UNL    H23   52   0.629  -0.110  -0.100
    1UNL    H24   53  -0.114   0.089  -0.085
   0.00000   0.00000   0.00000   0.00000   0.00000   0.00000   0.00000   0.00000   0.00000
Generated with MDTraj, t= 87.0
 53
    1UNL     C1    1   0.084   0.336  -0.129
    1UNL     O1    2   0.040   0.217  -0.072
    1UNL     C2    3   0.083   0.204   0.062
    1UNL     O2    4   0.133   0.297   0.126
    1UNL     C3    5   0.071   0.066   0.133
    1UNL     C4    6  -0.017   0.068   0.261
    1UNL     C5    7  -0.162   0.109   0.216
    1UNL     C6    8  -0.217   0.009   0.107
    1UNL     C7    9  -0.359   0.056   0.054
    1UNL     C8   10  -0.421  -0.044  -0.049
    1UNL     C9   11  -0.308  -0.102  -0.150
    1UNL     N1   12  -0.163  -0.101  -0.113
    1UNL    C10   13  -0.104  -0.227  -0.065
    1UNL    C11   14  -0.019  -0.191   0.061
    1UNL    C12   15  -0.104  -0.195   0.190
    1UNL     O3   16  -0.077  -0.266   0.287
    1UNL    C13   17  -0.237  -0.130   0.170
    1UNL    C14   18   0.020  -0.040   0.025
    1UNL    C15   19   0.137  -0.043  -0.071
    1UNL    C16   20   0.143  -0.066  -0.207
    1UNL    C17   21   0.270  -0.075  -0.270
    1UNL    C18   22   0.384  -0.054  -0.190
    1UNL    C19   23   0.375  -0.032  -0.052
    1UNL    C20   24   0.246  -0.032   0.015
    1UNL     N2   25   0.210   0.014   0.141
    1UNL     O4   26   0.503  -0.012   0.003
    1UNL    C21   27   0.588  -0.006  -0.110
    1UNL     O5   28   0.515  -0.039  -0.233
    1UNL    C22   29  -0.120   0.007  -0.022
    1UNL     H1   30   0.080   0.321  -0.238
    1UNL     H2   31   0.036   0.419  -0.099
    1UNL     H3   32   0.194   0.347  -0.110
    1UNL     H4   33  -0.021  -0.031   0.311
    1UNL     H5   34   0.016   0.138   0.336
    1UNL     H6   35  -0.226   0.094   0.301
    1UNL     H7   36  -0.162   0.205   0.178
    1UNL     H8   37  -0.342   0.155   0.006
    1UNL     H9   38  -0.418   0.060   0.143
    1UNL    H10   39  -0.482  -0.132  -0.009
    1UNL    H11   40  -0.485   0.013  -0.111
    1UNL    H12   41  -0.309  -0.049  -0.253
    1UNL    H13   42  -0.345  -0.207  -0.171
    1UNL    H14   43  -0.044  -0.275  -0.142
    1UNL    H15   44  -0.175  -0.295  -0.033
    1UNL    H16   45   0.077  -0.249   0.073
    1UNL    H17   46  -0.288  -0.124   0.258
    1UNL    H18   47  -0.299  -0.195   0.100
    1UNL    H19   48   0.055  -0.107  -0.257
    1UNL    H20   49   0.281  -0.119  -0.367
    1UNL    H21   50   0.260   0.088   0.190
    1UNL    H22   51   0.623   0.093  -0.126
    1UNL    H23   52   0.679  -0.067  -0.093
    1UNL    H24   53  -0.119   0.101  -0.068
   0.00000   0.00000   0.00000   0.00000   0.00000   0.00000   0.00000   0.00000   0.00000
Generated with MDTraj, t= 88.0
 53
    1UNL     C1    1   0.064   0.352  -0.099
    1UNL     O1    2   0.054   0.218  -0.070
    1UNL     C2    3   0.078   0.201   0.066
    1UNL     O2    4   0.116   0.289   0.141
    1UNL     C3    5   0.070   0.058   0.125
    1UNL     C4    6  -0.023   0.072   0.243
    1UNL     C5    7  -0.164   0.120   0.200
    1UNL     C6    8  -0.217   0.017   0.105
    1UNL     C7    9  -0.361   0.053   0.048
    1UNL     C8   10  -0.411  -0.050  -0.045
    1UNL     C9   11  -0.311  -0.089  -0.158
    1UNL     N1   12  -0.171  -0.108  -0.121
    1UNL    C10   13  -0.129  -0.232  -0.052
    1UNL    C11   14  -0.023  -0.195   0.061
    1UNL    C12   15  -0.092  -0.195   0.190
    1UNL     O3   16  -0.062  -0.261   0.286
    1UNL    C13   17  -0.226  -0.119   0.186
    1UNL    C14   18   0.015  -0.051   0.016
    1UNL    C15   19   0.138  -0.048  -0.075
    1UNL    C16   20   0.148  -0.076  -0.209
    1UNL    C17   21   0.273  -0.082  -0.269
    1UNL    C18   22   0.388  -0.052  -0.193
    1UNL    C19   23   0.376  -0.019  -0.052
    1UNL    C20   24   0.248  -0.008   0.007
    1UNL     N2   25   0.212   0.010   0.140
    1UNL     O4   26   0.507   0.007  -0.004
    1UNL    C21   27   0.597  -0.030  -0.107
    1UNL     O5   28   0.526  -0.053  -0.228
    1UNL    C22   29  -0.122   0.000  -0.025
    1UNL     H1   30   0.046   0.365  -0.207
    1UNL     H2   31   0.011   0.410  -0.034
    1UNL     H3   32   0.172   0.384  -0.080
    1UNL     H4   33  -0.040  -0.024   0.296
    1UNL     H5   34   0.021   0.145   0.309
    1UNL     H6   35  -0.228   0.127   0.285
    1UNL     H7   36  -0.147   0.211   0.149
    1UNL     H8   37  -0.350   0.152   0.004
    1UNL     H9   38  -0.433   0.052   0.129
    1UNL    H10   39  -0.437  -0.144   0.011
    1UNL    H11   40  -0.500  -0.023  -0.096
    1UNL    H12   41  -0.328  -0.007  -0.236
    1UNL    H13   42  -0.335  -0.190  -0.206
    1UNL    H14   43  -0.087  -0.296  -0.130
    1UNL    H15   44  -0.208  -0.291  -0.017
    1UNL    H16   45   0.056  -0.271   0.036
    1UNL    H17   46  -0.263  -0.097   0.281
    1UNL    H18   47  -0.297  -0.186   0.146
    1UNL    H19   48   0.063  -0.113  -0.261
    1UNL    H20   49   0.285  -0.116  -0.372
    1UNL    H21   50   0.248   0.088   0.199
    1UNL    H22   51   0.678   0.041  -0.128
    1UNL    H23   52   0.658  -0.123  -0.078
    1UNL    H24   53  -0.115   0.089  -0.077
   0.00000   0.00000   0.00000   0.00000   0.00000   0.00000   0.00000   0.00000   0.00000
Generated with MDTraj, t= 89.0
 53
    1UNL     C1    1   0.058   0.375  -0.089
    1UNL     O1    2   0.045   0.236  -0.058
    1UNL     C2    3   0.076   0.211   0.072
    1UNL     O2    4   0.104   0.295   0.151
    1UNL     C3    5   0.072   0.065   0.127
    1UNL     C4    6  -0.021   0.072   0.254
    1UNL     C5    7  -0.168   0.100   0.202
    1UNL     C6    8  -0.220   0.004   0.099
    1UNL     C7    9  -0.353   0.055   0.050
    1UNL     C8   10  -0.408  -0.044  -0.048
    1UNL     C9   11  -0.313  -0.098  -0.158
    1UNL     N1   12  -0.172  -0.112  -0.118
    1UNL    C10   13  -0.110  -0.232  -0.060
    1UNL    C11   14  -0.012  -0.185   0.058
    1UNL    C12   15  -0.089  -0.187   0.181
    1UNL     O3   16  -0.052  -0.225   0.286
    1UNL    C13   17  -0.229  -0.137   0.165
    1UNL    C14   18   0.018  -0.036   0.016
    1UNL    C15   19   0.132  -0.046  -0.078
    1UNL    C16   20   0.146  -0.088  -0.213
    1UNL    C17   21   0.275  -0.095  -0.264
    1UNL    C18   22   0.389  -0.075  -0.189
    1UNL    C19   23   0.377  -0.036  -0.047
    1UNL    C20   24   0.251  -0.023   0.003
    1UNL     N2   25   0.209   0.017   0.135
    1UNL     O4   26   0.506  -0.024  -0.006
    1UNL    C21   27   0.588  -0.012  -0.118
    1UNL     O5   28   0.523  -0.065  -0.227
    1UNL    C22   29  -0.125   0.002  -0.026
    1UNL     H1   30   0.036   0.391  -0.195
    1UNL     H2   31   0.003   0.431  -0.022
    1UNL     H3   32   0.167   0.412  -0.065
    1UNL     H4   33  -0.012  -0.021   0.311
    1UNL     H5   34   0.012   0.150   0.322
    1UNL     H6   35  -0.231   0.109   0.285
    1UNL     H7   36  -0.163   0.194   0.153
    1UNL     H8   37  -0.338   0.149  -0.004
    1UNL     H9   38  -0.415   0.076   0.138
    1UNL    H10   39  -0.442  -0.138   0.004
    1UNL    H11   40  -0.502  -0.012  -0.088
    1UNL    H12   41  -0.297  -0.032  -0.249
    1UNL    H13   42  -0.357  -0.198  -0.194
    1UNL    H14   43  -0.062  -0.295  -0.134
    1UNL    H15   44  -0.187  -0.297  -0.025
    1UNL    H16   45   0.084  -0.240   0.072
    1UNL    H17   46  -0.266  -0.129   0.265
    1UNL    H18   47  -0.295  -0.196   0.116
    1UNL    H19   48   0.062  -0.093  -0.282
    1UNL    H20   49   0.290  -0.132  -0.364
    1UNL    H21   50   0.268   0.094   0.177
    1UNL    H22   51   0.622   0.094  -0.129
    1UNL    H23   52   0.684  -0.076  -0.111
    1UNL    H24   53  -0.133   0.080  -0.095
   0.00000   0.00000   0.00000   0.00000   0.00000   0.00000   0.00000   0.00000   0.00000
Generated with MDTraj, t= 90.0
 53
    1UNL     C1    1   0.052   0.360  -0.093
    1UNL     O1    2   0.038   0.231  -0.054
    1UNL     C2    3   0.083   0.218   0.075
    1UNL     O2    4   0.120   0.300   0.152
    1UNL     C3    5   0.071   0.072   0.125
    1UNL     C4    6  -0.021   0.079   0.248
    1UNL     C5    7  -0.164   0.113   0.199
    1UNL     C6    8  -0.219   0.014   0.098
    1UNL     C7    9  -0.357   0.054   0.047
    1UNL     C8   10  -0.410  -0.062  -0.049
    1UNL     C9   11  -0.303  -0.098  -0.158
    1UNL     N1   12  -0.158  -0.114  -0.117
    1UNL    C10   13  -0.102  -0.237  -0.058
    1UNL    C11   14  -0.016  -0.185   0.065
    1UNL    C12   15  -0.104  -0.202   0.192
    1UNL     O3   16  -0.064  -0.269   0.285
    1UNL    C13   17  -0.235  -0.128   0.176
    1UNL    C14   18   0.019  -0.037   0.022
    1UNL    C15   19   0.140  -0.038  -0.074
    1UNL    C16   20   0.150  -0.068  -0.210
    1UNL    C17   21   0.271  -0.087  -0.269
    1UNL    C18   22   0.384  -0.057  -0.193
    1UNL    C19   23   0.377  -0.018  -0.061
    1UNL    C20   24   0.251  -0.007   0.001
    1UNL     N2   25   0.209   0.026   0.138
    1UNL     O4   26   0.507   0.008  -0.013
    1UNL    C21   27   0.586  -0.059  -0.109
    1UNL     O5   28   0.519  -0.078  -0.233
    1UNL    C22   29  -0.127   0.004  -0.033
    1UNL     H1   30   0.026   0.366  -0.200
    1UNL     H2   31  -0.012   0.416  -0.030
    1UNL     H3   32   0.163   0.397  -0.071
    1UNL     H4   33  -0.006  -0.009   0.311
    1UNL     H5   34   0.015   0.157   0.317
    1UNL     H6   35  -0.232   0.108   0.277
    1UNL     H7   36  -0.170   0.216   0.165
    1UNL     H8   37  -0.349   0.144  -0.009
    1UNL     H9   38  -0.429   0.064   0.130
    1UNL    H10   39  -0.462  -0.143   0.011
    1UNL    H11   40  -0.496  -0.024  -0.100
    1UNL    H12   41  -0.304  -0.015  -0.235
    1UNL    H13   42  -0.314  -0.197  -0.218
    1UNL    H14   43  -0.043  -0.284  -0.132
    1UNL    H15   44  -0.186  -0.302  -0.036
    1UNL    H16   45   0.085  -0.229   0.082
    1UNL    H17   46  -0.297  -0.117   0.261
    1UNL    H18   47  -0.293  -0.188   0.103
    1UNL    H19   48   0.055  -0.090  -0.254
    1UNL    H20   49   0.291  -0.126  -0.367
    1UNL    H21   50   0.279   0.081   0.195
    1UNL    H22   51   0.677   0.001  -0.131
    1UNL    H23   52   0.621  -0.159  -0.062
    1UNL    H24   53  -0.096   0.092  -0.079
   0.00000   0.00000   0.00000   0.00000   0.00000   0.00000   0.00000   0.00000   0.00000
Generated with MDTraj, t= 91.0
 53
    1UNL     C1    1   0.054   0.363  -0.102
    1UNL     O1    2   0.023   0.234  -0.058
    1UNL     C2    3   0.070   0.213   0.072
    1UNL     O2    4   0.125   0.298   0.136
    1UNL     C3    5   0.066   0.074   0.124
    1UNL     C4    6  -0.027   0.085   0.255
    1UNL     C5    7  -0.170   0.108   0.208
    1UNL     C6    8  -0.223   0.005   0.102
    1UNL     C7    9  -0.354   0.049   0.052
    1UNL     C8   10  -0.410  -0.051  -0.056
    1UNL     C9   11  -0.312  -0.094  -0.165
    1UNL     N1   12  -0.164  -0.108  -0.122
    1UNL    C10   13  -0.106  -0.229  -0.059
    1UNL    C11   14  -0.012  -0.185   0.055
    1UNL    C12   15  -0.087  -0.194   0.183
    1UNL     O3   16  -0.050  -0.252   0.283
    1UNL    C13   17  -0.221  -0.131   0.179
    1UNL    C14   18   0.018  -0.032   0.020
    1UNL    C15   19   0.138  -0.042  -0.073
    1UNL    C16   20   0.144  -0.069  -0.208
    1UNL    C17   21   0.265  -0.076  -0.267
    1UNL    C18   22   0.384  -0.066  -0.185
    1UNL    C19   23   0.383  -0.043  -0.049
    1UNL    C20   24   0.253  -0.034   0.009
    1UNL     N2   25   0.212   0.023   0.133
    1UNL     O4   26   0.511  -0.028   0.006
    1UNL    C21   27   0.596  -0.028  -0.112
    1UNL     O5   28   0.517  -0.066  -0.230
    1UNL    C22   29  -0.125   0.001  -0.029
    1UNL     H1   30   0.006   0.377  -0.200
    1UNL     H2   31   0.004   0.426  -0.033
    1UNL     H3   32   0.173   0.378  -0.102
    1UNL     H4   33  -0.009  -0.006   0.311
    1UNL     H5   34  -0.002   0.161   0.332
    1UNL     H6   35  -0.231   0.127   0.290
    1UNL     H7   36  -0.175   0.202   0.154
    1UNL     H8   37  -0.350   0.144   0.007
    1UNL     H9   38  -0.425   0.047   0.137
    1UNL    H10   39  -0.453  -0.141  -0.008
    1UNL    H11   40  -0.500  -0.005  -0.096
    1UNL    H12   41  -0.294  -0.012  -0.241
    1UNL    H13   42  -0.346  -0.194  -0.213
    1UNL    H14   43  -0.056  -0.286  -0.131
    1UNL    H15   44  -0.185  -0.296  -0.020
    1UNL    H16   45   0.085  -0.240   0.063
    1UNL    H17   46  -0.257  -0.115   0.279
    1UNL    H18   47  -0.300  -0.203   0.133
    1UNL    H19   48   0.053  -0.090  -0.263
    1UNL    H20   49   0.265  -0.099  -0.375
    1UNL    H21   50   0.296   0.066   0.182
    1UNL    H22   51   0.638   0.069  -0.132
    1UNL    H23   52   0.678  -0.104  -0.093
    1UNL    H24   53  -0.130   0.097  -0.067
   0.00000   0.00000   0.00000   0.00000   0.00000   0.00000   0.00000   0.00000   0.00000
Generated with MDTraj, t= 92.0
 53
    1UNL     C1    1   0.053   0.359  -0.087
    1UNL     O1    2   0.034   0.223  -0.056
    1UNL     C2    3   0.089   0.201   0.061
    1UNL     O2    4   0.149   0.279   0.132
    1UNL     C3    5   0.066   0.059   0.122
    1UNL     C4    6  -0.018   0.077   0.245
    1UNL     C5    7  -0.162   0.111   0.200
    1UNL     C6    8  -0.223   0.012   0.097
    1UNL     C7    9  -0.364   0.046   0.055
    1UNL     C8   10  -0.414  -0.058  -0.044
    1UNL     C9   11  -0.322  -0.101  -0.156
    1UNL     N1   12  -0.179  -0.104  -0.116
    1UNL    C10   13  -0.119  -0.227  -0.063
    1UNL    C11   14  -0.019  -0.192   0.052
    1UNL    C12   15  -0.092  -0.188   0.185
    1UNL     O3   16  -0.052  -0.228   0.291
    1UNL    C13   17  -0.224  -0.127   0.173
    1UNL    C14   18   0.011  -0.047   0.013
    1UNL    C15   19   0.137  -0.048  -0.081
    1UNL    C16   20   0.153  -0.071  -0.215
    1UNL    C17   21   0.283  -0.073  -0.271
    1UNL    C18   22   0.391  -0.054  -0.192
    1UNL    C19   23   0.371  -0.027  -0.052
    1UNL    C20   24   0.248  -0.025   0.002
    1UNL     N2   25   0.204   0.018   0.132
    1UNL     O4   26   0.497  -0.002   0.005
    1UNL    C21   27   0.593  -0.036  -0.095
    1UNL     O5   28   0.529  -0.057  -0.221
    1UNL    C22   29  -0.126   0.003  -0.028
    1UNL     H1   30  -0.006   0.400  -0.171
    1UNL     H2   31   0.010   0.407   0.000
    1UNL     H3   32   0.169   0.373  -0.086
    1UNL     H4   33  -0.015  -0.005   0.315
    1UNL     H5   34   0.035   0.163   0.294
    1UNL     H6   35  -0.224   0.102   0.287
    1UNL     H7   36  -0.168   0.217   0.182
    1UNL     H8   37  -0.362   0.136   0.002
    1UNL     H9   38  -0.436   0.059   0.139
    1UNL    H10   39  -0.437  -0.142   0.017
    1UNL    H11   40  -0.512  -0.036  -0.088
    1UNL    H12   41  -0.333  -0.031  -0.244
    1UNL    H13   42  -0.341  -0.214  -0.179
    1UNL    H14   43  -0.065  -0.273  -0.141
    1UNL    H15   44  -0.195  -0.299  -0.027
    1UNL    H16   45   0.053  -0.278   0.058
    1UNL    H17   46  -0.263  -0.102   0.279
    1UNL    H18   47  -0.295  -0.202   0.135
    1UNL    H19   48   0.065  -0.090  -0.272
    1UNL    H20   49   0.294  -0.081  -0.375
    1UNL    H21   50   0.264   0.088   0.188
    1UNL    H22   51   0.657   0.048  -0.100
    1UNL    H23   52   0.643  -0.131  -0.072
    1UNL    H24   53  -0.126   0.087  -0.089
   0.00000   0.00000   0.00000   0.00000   0.00000   0.00000   0.00000   0.00000   0.00000
Generated with MDTraj, t= 93.0
 53
    1UNL     C1    1   0.069   0.363  -0.088
    1UNL     O1    2   0.022   0.240  -0.045
    1UNL     C2    3   0.084   0.202   0.065
    1UNL     O2    4   0.158   0.279   0.122
    1UNL     C3    5   0.071   0.068   0.124
    1UNL     C4    6  -0.021   0.086   0.249
    1UNL     C5    7  -0.166   0.127   0.199
    1UNL     C6    8  -0.214   0.018   0.097
    1UNL     C7    9  -0.358   0.052   0.046
    1UNL     C8   10  -0.421  -0.058  -0.050
    1UNL     C9   11  -0.323  -0.114  -0.155
    1UNL     N1   12  -0.176  -0.110  -0.119
    1UNL    C10   13  -0.111  -0.238  -0.059
    1UNL    C11   14  -0.017  -0.197   0.059
    1UNL    C12   15  -0.100  -0.198   0.188
    1UNL     O3   16  -0.070  -0.265   0.284
    1UNL    C13   17  -0.230  -0.116   0.179
    1UNL    C14   18   0.015  -0.045   0.021
    1UNL    C15   19   0.139  -0.050  -0.074
    1UNL    C16   20   0.153  -0.075  -0.214
    1UNL    C17   21   0.280  -0.081  -0.273
    1UNL    C18   22   0.388  -0.053  -0.191
    1UNL    C19   23   0.375  -0.031  -0.051
    1UNL    C20   24   0.250  -0.026   0.010
    1UNL     N2   25   0.216   0.024   0.132
    1UNL     O4   26   0.503  -0.018   0.005
    1UNL    C21   27   0.587  -0.012  -0.106
    1UNL     O5   28   0.519  -0.051  -0.223
    1UNL    C22   29  -0.119  -0.001  -0.030
    1UNL     H1   30   0.023   0.380  -0.185
    1UNL     H2   31   0.024   0.433  -0.018
    1UNL     H3   32   0.182   0.350  -0.084
    1UNL     H4   33  -0.019  -0.008   0.303
    1UNL     H5   34   0.025   0.171   0.308
    1UNL     H6   35  -0.236   0.151   0.282
    1UNL     H7   36  -0.151   0.221   0.155
    1UNL     H8   37  -0.368   0.149   0.006
    1UNL     H9   38  -0.424   0.053   0.135
    1UNL    H10   39  -0.465  -0.141  -0.005
    1UNL    H11   40  -0.513  -0.014  -0.098
    1UNL    H12   41  -0.327  -0.052  -0.247
    1UNL    H13   42  -0.344  -0.227  -0.172
    1UNL    H14   43  -0.051  -0.280  -0.137
    1UNL    H15   44  -0.186  -0.312  -0.026
    1UNL    H16   45   0.068  -0.268   0.071
    1UNL    H17   46  -0.271  -0.102   0.290
    1UNL    H18   47  -0.307  -0.171   0.131
    1UNL    H19   48   0.067  -0.081  -0.280
    1UNL    H20   49   0.307  -0.102  -0.380
    1UNL    H21   50   0.262   0.115   0.165
    1UNL    H22   51   0.617   0.087  -0.119
    1UNL    H23   52   0.663  -0.087  -0.088
    1UNL    H24   53  -0.123   0.080  -0.097
   0.00000   0.00000   0.00000   0.00000   0.00000   0.00000   0.00000   0.00000   0.00000
Generated with MDTraj, t= 94.0
 53
    1UNL     C1    1   0.050   0.354  -0.091
    1UNL     O1    2   0.027   0.221  -0.048
    1UNL     C2    3   0.091   0.198   0.070
    1UNL     O2    4   0.161   0.281   0.127
    1UNL     C3    5   0.069   0.064   0.129
    1UNL     C4    6  -0.021   0.077   0.253
    1UNL     C5    7  -0.162   0.116   0.195
    1UNL     C6    8  -0.213   0.005   0.099
    1UNL     C7    9  -0.357   0.046   0.043
    1UNL     C8   10  -0.414  -0.046  -0.074
    1UNL     C9   11  -0.306  -0.092  -0.173
    1UNL     N1   12  -0.166  -0.108  -0.114
    1UNL    C10   13  -0.107  -0.244  -0.058
    1UNL    C11   14  -0.018  -0.193   0.060
    1UNL    C12   15  -0.100  -0.196   0.187
    1UNL     O3   16  -0.071  -0.234   0.298
    1UNL    C13   17  -0.229  -0.132   0.170
    1UNL    C14   18   0.017  -0.042   0.028
    1UNL    C15   19   0.137  -0.047  -0.064
    1UNL    C16   20   0.136  -0.082  -0.195
    1UNL    C17   21   0.257  -0.074  -0.262
    1UNL    C18   22   0.382  -0.057  -0.192
    1UNL    C19   23   0.379  -0.030  -0.053
    1UNL    C20   24   0.254  -0.029   0.011
    1UNL     N2   25   0.217   0.019   0.137
    1UNL     O4   26   0.500  -0.000  -0.006
    1UNL    C21   27   0.593  -0.018  -0.115
    1UNL     O5   28   0.514  -0.050  -0.229
    1UNL    C22   29  -0.121  -0.000  -0.025
    1UNL     H1   30  -0.022   0.391  -0.159
    1UNL     H2   31   0.053   0.414   0.003
    1UNL     H3   32   0.151   0.340  -0.134
    1UNL     H4   33  -0.017  -0.015   0.312
    1UNL     H5   34   0.017   0.171   0.303
    1UNL     H6   35  -0.226   0.127   0.285
    1UNL     H7   36  -0.166   0.214   0.153
    1UNL     H8   37  -0.352   0.145  -0.002
    1UNL     H9   38  -0.430   0.053   0.122
    1UNL    H10   39  -0.474  -0.118  -0.030
    1UNL    H11   40  -0.491   0.004  -0.140
    1UNL    H12   41  -0.292  -0.015  -0.251
    1UNL    H13   42  -0.329  -0.194  -0.220
    1UNL    H14   43  -0.063  -0.297  -0.144
    1UNL    H15   44  -0.195  -0.296  -0.026
    1UNL    H16   45   0.078  -0.247   0.068
    1UNL    H17   46  -0.275  -0.103   0.271
    1UNL    H18   47  -0.303  -0.204   0.129
    1UNL    H19   48   0.041  -0.085  -0.245
    1UNL    H20   49   0.257  -0.076  -0.367
    1UNL    H21   50   0.267   0.106   0.177
    1UNL    H22   51   0.640   0.074  -0.135
    1UNL    H23   52   0.658  -0.102  -0.083
    1UNL    H24   53  -0.114   0.094  -0.075
   0.00000   0.00000   0.00000   0.00000   0.00000   0.00000   0.00000   0.00000   0.00000
Generated with MDTraj, t= 95.0
 53
    1UNL     C1    1   0.051   0.361  -0.084
    1UNL     O1    2   0.017   0.231  -0.036
    1UNL     C2    3   0.084   0.200   0.074
    1UNL     O2    4   0.147   0.282   0.136
    1UNL     C3    5   0.075   0.058   0.129
    1UNL     C4    6  -0.012   0.082   0.250
    1UNL     C5    7  -0.156   0.115   0.193
    1UNL     C6    8  -0.216   0.012   0.090
    1UNL     C7    9  -0.360   0.057   0.035
    1UNL     C8   10  -0.405  -0.050  -0.062
    1UNL     C9   11  -0.308  -0.099  -0.168
    1UNL     N1   12  -0.166  -0.114  -0.115
    1UNL    C10   13  -0.111  -0.240  -0.049
    1UNL    C11   14  -0.026  -0.200   0.068
    1UNL    C12   15  -0.109  -0.192   0.196
    1UNL     O3   16  -0.071  -0.243   0.298
    1UNL    C13   17  -0.237  -0.120   0.170
    1UNL    C14   18   0.019  -0.046   0.023
    1UNL    C15   19   0.139  -0.059  -0.067
    1UNL    C16   20   0.151  -0.079  -0.206
    1UNL    C17   21   0.274  -0.091  -0.268
    1UNL    C18   22   0.380  -0.053  -0.198
    1UNL    C19   23   0.373  -0.026  -0.058
    1UNL    C20   24   0.255  -0.027   0.007
    1UNL     N2   25   0.223   0.018   0.137
    1UNL     O4   26   0.500   0.000  -0.001
    1UNL    C21   27   0.591  -0.020  -0.115
    1UNL     O5   28   0.517  -0.047  -0.236
    1UNL    C22   29  -0.122  -0.002  -0.037
    1UNL     H1   30   0.027   0.372  -0.185
    1UNL     H2   31   0.014   0.437  -0.011
    1UNL     H3   32   0.160   0.360  -0.075
    1UNL     H4   33  -0.005  -0.014   0.305
    1UNL     H5   34   0.034   0.167   0.309
    1UNL     H6   35  -0.229   0.134   0.276
    1UNL     H7   36  -0.157   0.213   0.149
    1UNL     H8   37  -0.352   0.152  -0.020
    1UNL     H9   38  -0.438   0.070   0.107
    1UNL    H10   39  -0.436  -0.136  -0.010
    1UNL    H11   40  -0.507  -0.015  -0.100
    1UNL    H12   41  -0.297  -0.024  -0.248
    1UNL    H13   42  -0.336  -0.199  -0.213
    1UNL    H14   43  -0.057  -0.291  -0.132
    1UNL    H15   44  -0.193  -0.299  -0.018
    1UNL    H16   45   0.066  -0.258   0.085
    1UNL    H17   46  -0.295  -0.109   0.257
    1UNL    H18   47  -0.299  -0.185   0.099
    1UNL    H19   48   0.063  -0.075  -0.267
    1UNL    H20   49   0.285  -0.091  -0.378
    1UNL    H21   50   0.301   0.090   0.155
    1UNL    H22   51   0.645   0.074  -0.126
    1UNL    H23   52   0.657  -0.111  -0.098
    1UNL    H24   53  -0.104   0.090  -0.092
   0.00000   0.00000   0.00000   0.00000   0.00000   0.00000   0.00000   0.00000   0.00000
Generated with MDTraj, t= 96.0
 53
    1UNL     C1    1   0.048   0.371  -0.078
    1UNL     O1    2   0.033   0.237  -0.055
    1UNL     C2    3   0.092   0.205   0.059
    1UNL     O2    4   0.154   0.284   0.126
    1UNL     C3    5   0.068   0.062   0.119
    1UNL     C4    6  -0.019   0.084   0.245
    1UNL     C5    7  -0.157   0.116   0.198
    1UNL     C6    8  -0.220   0.009   0.093
    1UNL     C7    9  -0.352   0.057   0.036
    1UNL     C8   10  -0.421  -0.050  -0.046
    1UNL     C9   11  -0.323  -0.111  -0.152
    1UNL     N1   12  -0.175  -0.113  -0.109
    1UNL    C10   13  -0.114  -0.237  -0.052
    1UNL    C11   14  -0.013  -0.186   0.062
    1UNL    C12   15  -0.103  -0.198   0.180
    1UNL     O3   16  -0.072  -0.260   0.276
    1UNL    C13   17  -0.236  -0.127   0.170
    1UNL    C14   18   0.019  -0.038   0.019
    1UNL    C15   19   0.135  -0.041  -0.074
    1UNL    C16   20   0.149  -0.078  -0.205
    1UNL    C17   21   0.272  -0.093  -0.267
    1UNL    C18   22   0.389  -0.066  -0.184
    1UNL    C19   23   0.382  -0.030  -0.053
    1UNL    C20   24   0.251  -0.035   0.010
    1UNL     N2   25   0.213   0.015   0.142
    1UNL     O4   26   0.506  -0.003  -0.000
    1UNL    C21   27   0.591  -0.005  -0.111
    1UNL     O5   28   0.522  -0.054  -0.226
    1UNL    C22   29  -0.125  -0.005  -0.024
    1UNL     H1   30   0.024   0.392  -0.179
    1UNL     H2   31  -0.001   0.428   0.009
    1UNL     H3   32   0.154   0.384  -0.064
    1UNL     H4   33  -0.011  -0.001   0.317
    1UNL     H5   34   0.029   0.172   0.294
    1UNL     H6   35  -0.227   0.136   0.283
    1UNL     H7   36  -0.159   0.219   0.158
    1UNL     H8   37  -0.339   0.144  -0.031
    1UNL     H9   38  -0.411   0.087   0.118
    1UNL    H10   39  -0.472  -0.116   0.019
    1UNL    H11   40  -0.508  -0.006  -0.104
    1UNL    H12   41  -0.323  -0.047  -0.244
    1UNL    H13   42  -0.350  -0.215  -0.176
    1UNL    H14   43  -0.048  -0.274  -0.136
    1UNL    H15   44  -0.173  -0.321  -0.022
    1UNL    H16   45   0.080  -0.245   0.076
    1UNL    H17   46  -0.266  -0.101   0.265
    1UNL    H18   47  -0.314  -0.192   0.119
    1UNL    H19   48   0.056  -0.086  -0.262
    1UNL    H20   49   0.279  -0.102  -0.372
    1UNL    H21   50   0.284   0.081   0.186
    1UNL    H22   51   0.630   0.099  -0.125
    1UNL    H23   52   0.674  -0.081  -0.083
    1UNL    H24   53  -0.115   0.090  -0.083
   0.00000   0.00000   0.00000   0.00000   0.00000   0.00000   0.00000   0.00000   0.00000
Generated with MDTraj, t= 97.0
 53
    1UNL     C1    1   0.060   0.350  -0.096
    1UNL     O1    2   0.011   0.227  -0.050
    1UNL     C2    3   0.076   0.199   0.069
    1UNL     O2    4   0.145   0.280   0.124
    1UNL     C3    5   0.069   0.062   0.123
    1UNL     C4    6  -0.020   0.076   0.248
    1UNL     C5    7  -0.167   0.113   0.208
    1UNL     C6    8  -0.226   0.011   0.104
    1UNL     C7    9  -0.364   0.052   0.049
    1UNL     C8   10  -0.411  -0.056  -0.054
    1UNL     C9   11  -0.315  -0.083  -0.171
    1UNL     N1   12  -0.173  -0.105  -0.117
    1UNL    C10   13  -0.121  -0.228  -0.057
    1UNL    C11   14  -0.017  -0.197   0.057
    1UNL    C12   15  -0.091  -0.198   0.186
    1UNL     O3   16  -0.044  -0.235   0.288
    1UNL    C13   17  -0.227  -0.130   0.180
    1UNL    C14   18   0.011  -0.040   0.015
    1UNL    C15   19   0.136  -0.031  -0.077
    1UNL    C16   20   0.149  -0.077  -0.208
    1UNL    C17   21   0.278  -0.091  -0.265
    1UNL    C18   22   0.391  -0.055  -0.192
    1UNL    C19   23   0.380  -0.027  -0.056
    1UNL    C20   24   0.250  -0.017   0.002
    1UNL     N2   25   0.209   0.008   0.133
    1UNL     O4   26   0.511   0.003   0.001
    1UNL    C21   27   0.594  -0.039  -0.099
    1UNL     O5   28   0.529  -0.051  -0.223
    1UNL    C22   29  -0.129  -0.001  -0.023
    1UNL     H1   30   0.004   0.386  -0.181
    1UNL     H2   31   0.064   0.420  -0.004
    1UNL     H3   32   0.158   0.333  -0.126
    1UNL     H4   33  -0.024  -0.019   0.309
    1UNL     H5   34   0.028   0.150   0.316
    1UNL     H6   35  -0.234   0.124   0.295
    1UNL     H7   36  -0.177   0.219   0.170
    1UNL     H8   37  -0.357   0.147  -0.008
    1UNL     H9   38  -0.437   0.069   0.123
    1UNL    H10   39  -0.426  -0.149  -0.002
    1UNL    H11   40  -0.515  -0.032  -0.086
    1UNL    H12   41  -0.310   0.016  -0.224
    1UNL    H13   42  -0.341  -0.167  -0.237
    1UNL    H14   43  -0.083  -0.315  -0.118
    1UNL    H15   44  -0.201  -0.281  -0.010
    1UNL    H16   45   0.072  -0.261   0.051
    1UNL    H17   46  -0.269  -0.115   0.275
    1UNL    H18   47  -0.285  -0.194   0.122
    1UNL    H19   48   0.068  -0.113  -0.265
    1UNL    H20   49   0.290  -0.093  -0.373
    1UNL    H21   50   0.263   0.077   0.191
    1UNL    H22   51   0.671   0.041  -0.116
    1UNL    H23   52   0.646  -0.136  -0.062
    1UNL    H24   53  -0.128   0.099  -0.078
   0.00000   0.00000   0.00000   0.00000   0.00000   0.00000   0.00000   0.00000   0.00000
Generated with MDTraj, t= 98.0
 53
    1UNL     C1    1   0.056   0.363  -0.100
    1UNL     O1    2   0.028   0.231  -0.059
    1UNL     C2    3   0.080   0.217   0.066
    1UNL     O2    4   0.140   0.305   0.121
    1UNL     C3    5   0.071   0.073   0.131
    1UNL     C4    6  -0.019   0.077   0.255
    1UNL     C5    7  -0.164   0.108   0.207
    1UNL     C6    8  -0.216   0.010   0.097
    1UNL     C7    9  -0.359   0.047   0.050
    1UNL     C8   10  -0.410  -0.066  -0.050
    1UNL     C9   11  -0.314  -0.101  -0.160
    1UNL     N1   12  -0.171  -0.103  -0.109
    1UNL    C10   13  -0.099  -0.229  -0.061
    1UNL    C11   14  -0.011  -0.185   0.062
    1UNL    C12   15  -0.094  -0.199   0.185
    1UNL     O3   16  -0.052  -0.258   0.282
    1UNL    C13   17  -0.230  -0.131   0.167
    1UNL    C14   18   0.015  -0.035   0.019
    1UNL    C15   19   0.133  -0.033  -0.076
    1UNL    C16   20   0.150  -0.053  -0.212
    1UNL    C17   21   0.275  -0.088  -0.266
    1UNL    C18   22   0.386  -0.070  -0.187
    1UNL    C19   23   0.370  -0.030  -0.045
    1UNL    C20   24   0.244  -0.033   0.008
    1UNL     N2   25   0.205   0.013   0.136
    1UNL     O4   26   0.502  -0.030   0.009
    1UNL    C21   27   0.588  -0.026  -0.110
    1UNL     O5   28   0.516  -0.064  -0.226
    1UNL    C22   29  -0.122   0.006  -0.028
    1UNL     H1   30   0.007   0.393  -0.194
    1UNL     H2   31   0.023   0.434  -0.011
    1UNL     H3   32   0.157   0.376  -0.107
    1UNL     H4   33  -0.013  -0.016   0.321
    1UNL     H5   34   0.013   0.163   0.317
    1UNL     H6   35  -0.235   0.106   0.291
    1UNL     H7   36  -0.170   0.219   0.179
    1UNL     H8   37  -0.355   0.144  -0.003
    1UNL     H9   38  -0.430   0.062   0.127
    1UNL    H10   39  -0.445  -0.155   0.006
    1UNL    H11   40  -0.504  -0.037  -0.098
    1UNL    H12   41  -0.311  -0.022  -0.239
    1UNL    H13   42  -0.339  -0.198  -0.202
    1UNL    H14   43  -0.037  -0.283  -0.137
    1UNL    H15   44  -0.170  -0.307  -0.033
    1UNL    H16   45   0.086  -0.236   0.070
    1UNL    H17   46  -0.270  -0.108   0.264
    1UNL    H18   47  -0.289  -0.192   0.112
    1UNL    H19   48   0.068  -0.026  -0.280
    1UNL    H20   49   0.273  -0.097  -0.374
    1UNL    H21   50   0.260   0.083   0.190
    1UNL    H22   51   0.631   0.072  -0.120
    1UNL    H23   52   0.678  -0.095  -0.099
    1UNL    H24   53  -0.128   0.104  -0.090
   0.00000   0.00000   0.00000   0.00000   0.00000   0.00000   0.00000   0.00000   0.00000
Generated with MDTraj, t= 99.0
 53
    1UNL     C1    1   0.059   0.369  -0.074
    1UNL     O1    2   0.037   0.237  -0.055
    1UNL     C2    3   0.081   0.212   0.069
    1UNL     O2    4   0.125   0.297   0.141
    1UNL     C3    5   0.071   0.067   0.125
    1UNL     C4    6  -0.022   0.076   0.245
    1UNL     C5    7  -0.164   0.115   0.191
    1UNL     C6    8  -0.218   0.008   0.096
    1UNL     C7    9  -0.358   0.049   0.042
    1UNL     C8   10  -0.419  -0.059  -0.053
    1UNL     C9   11  -0.321  -0.109  -0.159
    1UNL     N1   12  -0.177  -0.120  -0.115
    1UNL    C10   13  -0.112  -0.247  -0.051
    1UNL    C11   14  -0.013  -0.190   0.053
    1UNL    C12   15  -0.089  -0.194   0.185
    1UNL     O3   16  -0.066  -0.247   0.292
    1UNL    C13   17  -0.224  -0.123   0.178
    1UNL    C14   18   0.024  -0.038   0.013
    1UNL    C15   19   0.143  -0.031  -0.076
    1UNL    C16   20   0.154  -0.074  -0.206
    1UNL    C17   21   0.273  -0.073  -0.271
    1UNL    C18   22   0.388  -0.054  -0.194
    1UNL    C19   23   0.380  -0.028  -0.055
    1UNL    C20   24   0.255  -0.010   0.010
    1UNL     N2   25   0.212   0.024   0.140
    1UNL     O4   26   0.508  -0.003  -0.005
    1UNL    C21   27   0.590  -0.064  -0.109
    1UNL     O5   28   0.520  -0.062  -0.231
    1UNL    C22   29  -0.131  -0.005  -0.030
    1UNL     H1   30   0.062   0.382  -0.183
    1UNL     H2   31  -0.038   0.426  -0.035
    1UNL     H3   32   0.144   0.413  -0.033
    1UNL     H4   33  -0.024  -0.022   0.300
    1UNL     H5   34   0.002   0.154   0.321
    1UNL     H6   35  -0.231   0.142   0.274
    1UNL     H7   36  -0.158   0.211   0.129
    1UNL     H8   37  -0.356   0.141  -0.014
    1UNL     H9   38  -0.423   0.065   0.128
    1UNL    H10   39  -0.452  -0.149   0.011
    1UNL    H11   40  -0.513  -0.028  -0.094
    1UNL    H12   41  -0.327  -0.035  -0.242
    1UNL    H13   42  -0.340  -0.209  -0.196
    1UNL    H14   43  -0.058  -0.294  -0.133
    1UNL    H15   44  -0.189  -0.323  -0.018
    1UNL    H16   45   0.079  -0.250   0.058
    1UNL    H17   46  -0.241  -0.093   0.279
    1UNL    H18   47  -0.302  -0.195   0.147
    1UNL    H19   48   0.065  -0.087  -0.261
    1UNL    H20   49   0.288  -0.069  -0.377
    1UNL    H21   50   0.263   0.101   0.190
    1UNL    H22   51   0.683  -0.011  -0.114
    1UNL    H23   52   0.620  -0.167  -0.084
    1UNL    H24   53  -0.138   0.085  -0.104
   0.00000   0.00000   0.00000   0.00000   0.00000   0.00000   0.00000   0.00000   0.00000
