1TPCN02923
13
    1res  C1    1   -0.195   0.112   0.321
    1res  C2    2   -0.326   0.045   0.095
    1res  C3    3   -0.339   0.053  -0.175
    1res  C4    4   -0.321  -0.229  -0.128
    1res  C5    5   -0.069  -0.276  -0.069
    1res  C6    6   -0.053  -0.046   0.060
    1res  C7    7   -0.087   0.189  -0.045
    1res  C8    8    0.087   0.004  -0.113
    1res  C9    9    0.285   0.091  -0.183
    1res  C10   10    0.196  -0.191  -0.051
    1res  C11   11    0.429   0.112   0.049
    1res  C12   12    0.469  -0.072   0.174
    1res  C13   13    0.220   0.095   0.169
  10.00000  10.00000  10.00000
