1TPCN00044
9
    1res  C1    1    0.140  -0.163  -0.152
    1res  C2    2   -0.018   0.104  -0.203
    1res  C3    3    0.206   0.114  -0.006
    1res  C4    4    0.364   0.039   0.227
    1res  C5    5    0.564  -0.161   0.106
    1res  C6    6   -0.203  -0.033   0.099
    1res  C7    7   -0.456  -0.133   0.190
    1res  C8    8   -0.459   0.070   0.066
    1res  C9    9   -0.359   0.042  -0.125
  10.00000  10.00000  10.00000
