1TPCN02104
15
    1res  C1    1   -0.536   0.029  -0.302
    1res  C2    2   -0.308   0.070  -0.397
    1res  C3    3   -0.287  -0.002  -0.150
    1res  C4    4   -0.548  -0.090   0.102
    1res  C5    5   -0.257  -0.210   0.169
    1res  C6    6   -0.074  -0.329   0.087
    1res  C7    7   -0.217  -0.232  -0.083
    1res  C8    8   -0.010  -0.060  -0.023
    1res  C9    9    0.098   0.133  -0.076
    1res  C10   10    0.073   0.237   0.114
    1res  C11   11    0.252   0.097   0.186
    1res  C12   12    0.558   0.091   0.178
    1res  C13   13    0.492   0.201  -0.206
    1res  C14   14    0.355   0.034  -0.343
    1res  C15   15    0.362  -0.047  -0.092
  10.00000  10.00000  10.00000
