1TPCN04381
19
    1res  C1    1    0.799   0.224  -0.089
    1res  C2    2    0.612  -0.006  -0.022
    1res  C3    3    0.423  -0.009   0.030
    1res  C4    4    0.257   0.189   0.072
    1res  C5    5    0.140   0.023  -0.101
    1res  C6    6    0.011  -0.210  -0.114
    1res  C7    7   -0.163   0.047  -0.179
    1res  C8    8   -0.160   0.204   0.111
    1res  C9    9   -0.235  -0.132   0.109
    1res  C10   10   -0.515   0.086  -0.011
    1res  C11   11   -0.711   0.263  -0.107
    1res  C12   12   -0.770  -0.009  -0.008
    1res  C13   13   -0.594  -0.105   0.279
    1res  C14   14   -0.441  -0.248  -0.032
    1res  C15   15    0.268  -0.100   0.243
    1res  C16   16    0.358  -0.291   0.023
    1res  C17   17    0.748  -0.085   0.182
    1res  C18   18    0.919  -0.060   0.046
    1res  C19   19    0.848  -0.032  -0.200
  10.00000  10.00000  10.00000
