11746-25-4
6
    1res  C1    1   -0.103   0.104  -0.010
    1res  C2    2   -0.045  -0.131   0.009
    1res  C3    3   -0.270  -0.236   0.012
    1res  C4    4    0.130  -0.010   0.004
    1res  C5    5    0.319  -0.181   0.019
    1res  C6    6    0.296   0.183  -0.006
  10.00000  10.00000  10.00000
