1TPCN05261
39
    1res  C1    1    1.189  -0.232   0.099
    1res  C2    2    0.972  -0.357   0.046
    1res  C3    3    0.800  -0.130   0.035
    1res  C4    4    1.004   0.098   0.155
    1res  C5    5    1.133   0.398  -0.002
    1res  C6    6    1.255   0.622   0.042
    1res  C7    7    1.226   0.458   0.281
    1res  C8    8    0.585  -0.127  -0.133
    1res  C9    9    0.464  -0.058   0.062
    1res  C10   10    0.259  -0.092  -0.213
    1res  C11   11    0.212   0.251  -0.241
    1res  C12   12   -0.068   0.198  -0.115
    1res  C13   13   -0.158  -0.058  -0.096
    1res  C14   14   -0.244  -0.021   0.133
    1res  C15   15   -0.478  -0.043   0.318
    1res  C16   16   -0.664   0.063   0.577
    1res  C17   17   -0.758  -0.088   0.327
    1res  C18   18   -0.693  -0.001   0.106
    1res  C19   19   -0.987  -0.044   0.030
    1res  C20   20   -1.139  -0.324   0.044
    1res  C21   21   -0.999  -0.238  -0.178
    1res  C22   22   -0.873  -0.056  -0.280
    1res  C23   23   -0.891   0.091  -0.123
    1res  C24   24   -0.822   0.299  -0.083
    1res  C25   25   -0.699   0.538   0.030
    1res  C26   26   -0.734   0.613  -0.230
    1res  C27   27   -0.700   0.441  -0.356
    1res  C28   28   -0.941   0.317  -0.299
    1res  C29   29   -0.519  -0.111   0.083
    1res  C30   30   -0.558  -0.361  -0.074
    1res  C31   31   -0.762  -0.521  -0.202
    1res  C32   32   -0.569  -0.658  -0.004
    1res  C33   33   -0.393  -0.570   0.136
    1res  C34   34   -0.312  -0.374  -0.007
    1res  C35   35   -0.049   0.067   0.258
    1res  C36   36    0.188   0.250   0.062
    1res  C37   37    0.495   0.202  -0.250
    1res  C38   38    0.599   0.218   0.025
    1res  C39   39    0.748  -0.359  -0.147
  10.00000  10.00000  10.00000
