[ moleculetype ]
; name        nrexcl
res           1

[ atoms ]
;    nr  type resnr resid  atom  cgnr     charge       mass
      1 C4        1 res   C1        1      0.000     72.000
      2 SN4a      1 res   C2        2      0.000     54.000
      3 TC3       1 res   C3        3      0.000     36.000
      4 N4a       1 res   C4        4      0.000     72.000
      5 TC5       1 res   C5        5      0.000     36.000
      6 TC5       1 res   C6        6      0.000     36.000
      7 TC5       1 res   C7        7      0.000     36.000
      8 SC5       1 res   C8        8      0.000     54.000
      9 SN4a      1 res   C9        9      0.000     54.000
     10 TC3       1 res   C10      10      0.000     36.000
     11 SC4       1 res   C11      11      0.000     54.000
     12 SC4       1 res   C12      12      0.000     54.000
     13 TC3       1 res   C13      13      0.000     36.000
     14 TN6       1 res   C14      14      0.000     36.000
     15 SN4a      1 res   C15      15      0.000     54.000
     16 SP2       1 res   C16      16      0.000     54.000
     17 TN6       1 res   C17      17      0.000     36.000
     18 TN6       1 res   C18      18      0.000     36.000
     19 SN4a      1 res   C19      19      0.000     54.000
     20 TP1       1 res   C20      20      0.000     36.000
     21 TN6       1 res   C21      21      0.000     36.000
     22 TN6       1 res   C22      22      0.000     36.000
     23 TN6       1 res   C23      23      0.000     36.000
     24 TN4a      1 res   C24      24      0.000     36.000
     25 TC4       1 res   C25      25      0.000     36.000
     26 TN6       1 res   C26      26      0.000     36.000
     27 TN6       1 res   C27      27      0.000     36.000
     28 TN6       1 res   C28      28      0.000     36.000
     29 TN6       1 res   C29      29      0.000     36.000
     30 SN4a      1 res   C30      30      0.000     54.000
     31 TP1       1 res   C31      31      0.000     36.000
     32 TN6       1 res   C32      32      0.000     36.000
     33 TN6       1 res   C33      33      0.000     36.000
     34 TN6       1 res   C34      34      0.000     36.000
     35 SC4       1 res   C35      35      0.000     54.000
     36 TC3       1 res   C36      36      0.000     36.000
     37 TC4       1 res   C37      37      0.000     36.000
     38 SN6       1 res   C38      38      0.000     54.000
     39 SC4       1 res   C39      39      0.000     54.000

[ bonds ]
;  ai    aj   funct      b0(nm)        k
    1     2     1      0.25599    20000
    2     3     1      0.28456    20000
    3     4     1      0.32825    20000
    3     8     1      0.27286    20000
    3    39     1      0.29697    20000
    4     5     1      0.36242    20000
    5     6     1      0.25818    20000
    5     7     1      0.30313    20000
    6     7     1      0.29102    20000
    8     9     1      0.23942    20000
    8    38     1      0.37954    20000
    8    39     1      0.28417    20000
    9    10     1      0.34471    20000
    9    37     1      0.40751    20000
   10    11     1      0.34722    20000
   11    12     1      0.31174    20000
   11    36     1      0.30395    20000
   11    37     1      0.28698    20000
   12    13     1      0.27290    20000
   12    35     1      0.39608    20000
   12    36     1      0.31570    20000
   13    14     1      0.24769    20000
   14    15     1      0.29872    20000
   14    35     1      0.24770    20000
   15    16     1      0.33623    20000
   15    17     1      0.28332    20000
   15    29     1      0.24770    20000
   17    18     1      0.24598    20000
   18    19     1      0.30621    20000
   18    29     1      0.20779    20000
   19    20     1      0.31885    20000
   19    21     1      0.28468    20000
   19    23     1      0.22571    20000
   21    22     1      0.24278    20000
   22    23     1      0.21637    20000
   23    24     1      0.22228    20000
   24    25     1      0.29183    20000
   24    28     1      0.24747    20000
   25    26     1      0.27237    20000
   26    27     1      0.21669    20000
   27    28     1      0.27692    20000
   29    30     1      0.29786    20000
   30    31     1      0.28856    20000
   30    32     1      0.30569    20000
   30    34     1      0.25590    20000
   32    33     1      0.24219    20000
   33    34     1      0.25544    20000
   37    38     1      0.29423    20000
