Generated with MDTraj, t= 0.0
 71
    1UNL     C1    1  -0.125  -0.043  -0.492
    1UNL     O1    2  -0.096  -0.012  -0.359
    1UNL     C2    3   0.024   0.052  -0.352
    1UNL     O2    4   0.093   0.076  -0.451
    1UNL     C3    5   0.071   0.092  -0.220
    1UNL     C4    6   0.193   0.152  -0.207
    1UNL     O3    7   0.253   0.195  -0.092
    1UNL     C5    8   0.185   0.155   0.028
    1UNL     O4    9   0.216   0.022   0.067
    1UNL     C6   10   0.349  -0.014   0.035
    1UNL     O5   11   0.382  -0.147   0.079
    1UNL     C7   12   0.510  -0.191   0.035
    1UNL     C8   13   0.527  -0.337   0.077
    1UNL     O6   14   0.415  -0.411   0.037
    1UNL     C9   15   0.622  -0.100   0.092
    1UNL     O7   16   0.627  -0.112   0.234
    1UNL    C10   17   0.595   0.046   0.048
    1UNL     O8   18   0.610   0.060  -0.093
    1UNL    C11   19   0.452   0.086   0.092
    1UNL     O9   20   0.441   0.090   0.232
    1UNL    C12   21   0.033   0.171   0.011
    1UNL    C13   22  -0.052   0.151   0.141
    1UNL    C14   23  -0.155   0.266   0.153
    1UNL     N1   24  -0.264   0.223   0.060
    1UNL    C15   25  -0.405   0.259   0.092
    1UNL    C16   26  -0.479   0.154   0.174
    1UNL    C17   27  -0.466   0.021   0.108
    1UNL    C18   28  -0.355  -0.013   0.035
    1UNL     N2   29  -0.369  -0.140  -0.016
    1UNL    C19   30  -0.493  -0.189   0.023
    1UNL    C20   31  -0.556  -0.311  -0.001
    1UNL    C21   32  -0.680  -0.332   0.053
    1UNL    C22   33  -0.744  -0.233   0.130
    1UNL    C23   34  -0.684  -0.113   0.154
    1UNL    C24   35  -0.556  -0.089   0.100
    1UNL    C25   36  -0.234   0.076   0.026
    1UNL    C26   37  -0.165   0.075  -0.114
    1UNL    C27   38  -0.011   0.069  -0.097
    1UNL    O10   39  -0.135   0.035   0.126
    1UNL     H1   40  -0.218  -0.101  -0.496
    1UNL     H2   41  -0.043  -0.102  -0.533
    1UNL     H3   42  -0.135   0.049  -0.549
    1UNL     H4   43   0.251   0.170  -0.296
    1UNL     H5   44   0.221   0.220   0.109
    1UNL     H6   45   0.354  -0.015  -0.075
    1UNL     H7   46   0.509  -0.185  -0.075
    1UNL     H8   47   0.617  -0.382   0.035
    1UNL     H9   48   0.534  -0.342   0.187
    1UNL    H10   49   0.335  -0.358   0.054
    1UNL    H11   50   0.719  -0.134   0.053
    1UNL    H12   51   0.691  -0.048   0.271
    1UNL    H13   52   0.667   0.113   0.097
    1UNL    H14   53   0.701   0.036  -0.121
    1UNL    H15   54   0.430   0.187   0.055
    1UNL    H16   55   0.447  -0.002   0.265
    1UNL    H17   56   0.014   0.271  -0.029
    1UNL    H18   57   0.011   0.138   0.231
    1UNL    H19   58  -0.114   0.362   0.122
    1UNL    H20   59  -0.194   0.275   0.254
    1UNL    H21   60  -0.404   0.356   0.143
    1UNL    H22   61  -0.457   0.275  -0.004
    1UNL    H23   62  -0.437   0.148   0.275
    1UNL    H24   63  -0.585   0.179   0.186
    1UNL    H25   64  -0.297  -0.193  -0.065
    1UNL    H26   65  -0.507  -0.386  -0.059
    1UNL    H27   66  -0.731  -0.426   0.036
    1UNL    H28   67  -0.842  -0.253   0.170
    1UNL    H29   68  -0.732  -0.037   0.214
    1UNL    H30   69  -0.200  -0.011  -0.173
    1UNL    H31   70  -0.193   0.164  -0.170
    1UNL    H32   71   0.015  -0.030  -0.058
   0.00000   0.00000   0.00000   0.00000   0.00000   0.00000   0.00000   0.00000   0.00000
Generated with MDTraj, t= 1.0
 71
    1UNL     C1    1  -0.124  -0.061  -0.489
    1UNL     O1    2  -0.093  -0.025  -0.359
    1UNL     C2    3   0.030   0.032  -0.354
    1UNL     O2    4   0.109   0.045  -0.447
    1UNL     C3    5   0.075   0.083  -0.222
    1UNL     C4    6   0.194   0.151  -0.210
    1UNL     O3    7   0.250   0.203  -0.093
    1UNL     C5    8   0.183   0.160   0.026
    1UNL     O4    9   0.220   0.027   0.066
    1UNL     C6   10   0.351  -0.006   0.029
    1UNL     O5   11   0.386  -0.138   0.080
    1UNL     C7   12   0.516  -0.183   0.038
    1UNL     C8   13   0.527  -0.332   0.059
    1UNL     O6   14   0.411  -0.397   0.016
    1UNL     C9   15   0.633  -0.098   0.092
    1UNL     O7   16   0.625  -0.113   0.237
    1UNL    C10   17   0.602   0.060   0.053
    1UNL     O8   18   0.623   0.073  -0.084
    1UNL    C11   19   0.456   0.092   0.098
    1UNL     O9   20   0.437   0.103   0.239
    1UNL    C12   21   0.031   0.163   0.014
    1UNL    C13   22  -0.052   0.132   0.141
    1UNL    C14   23  -0.150   0.248   0.161
    1UNL     N1   24  -0.258   0.216   0.066
    1UNL    C15   25  -0.397   0.248   0.099
    1UNL    C16   26  -0.478   0.149   0.184
    1UNL    C17   27  -0.464   0.011   0.122
    1UNL    C18   28  -0.360  -0.016   0.040
    1UNL     N2   29  -0.376  -0.136  -0.024
    1UNL    C19   30  -0.511  -0.175   0.012
    1UNL    C20   31  -0.582  -0.288  -0.023
    1UNL    C21   32  -0.707  -0.312   0.042
    1UNL    C22   33  -0.754  -0.220   0.139
    1UNL    C23   34  -0.683  -0.110   0.173
    1UNL    C24   35  -0.568  -0.083   0.103
    1UNL    C25   36  -0.237   0.070   0.026
    1UNL    C26   37  -0.163   0.079  -0.113
    1UNL    C27   38  -0.007   0.064  -0.099
    1UNL    O10   39  -0.131   0.017   0.117
    1UNL     H1   40  -0.232  -0.084  -0.492
    1UNL     H2   41  -0.076  -0.149  -0.532
    1UNL     H3   42  -0.064   0.014  -0.553
    1UNL     H4   43   0.266   0.152  -0.301
    1UNL     H5   44   0.221   0.227   0.106
    1UNL     H6   45   0.358   0.016  -0.076
    1UNL     H7   46   0.502  -0.160  -0.066
    1UNL     H8   47   0.613  -0.385   0.014
    1UNL     H9   48   0.540  -0.342   0.164
    1UNL    H10   49   0.338  -0.331  -0.001
    1UNL    H11   50   0.727  -0.138   0.041
    1UNL    H12   51   0.692  -0.065   0.279
    1UNL    H13   52   0.670   0.120   0.109
    1UNL    H14   53   0.589   0.160  -0.102
    1UNL    H15   54   0.434   0.192   0.065
    1UNL    H16   55   0.425   0.012   0.273
    1UNL    H17   56   0.013   0.270  -0.020
    1UNL    H18   57   0.004   0.107   0.230
    1UNL    H19   58  -0.103   0.340   0.137
    1UNL    H20   59  -0.176   0.248   0.272
    1UNL    H21   60  -0.405   0.354   0.128
    1UNL    H22   61  -0.451   0.253   0.006
    1UNL    H23   62  -0.425   0.154   0.279
    1UNL    H24   63  -0.583   0.178   0.191
    1UNL    H25   64  -0.318  -0.156  -0.107
    1UNL    H26   65  -0.529  -0.365  -0.091
    1UNL    H27   66  -0.773  -0.397   0.025
    1UNL    H28   67  -0.836  -0.255   0.202
    1UNL    H29   68  -0.709  -0.048   0.258
    1UNL    H30   69  -0.195  -0.013  -0.160
    1UNL    H31   70  -0.181   0.164  -0.184
    1UNL    H32   71   0.011  -0.036  -0.058
   0.00000   0.00000   0.00000   0.00000   0.00000   0.00000   0.00000   0.00000   0.00000
Generated with MDTraj, t= 2.0
 71
    1UNL     C1    1  -0.109  -0.096  -0.489
    1UNL     O1    2  -0.103  -0.024  -0.367
    1UNL     C2    3   0.026   0.023  -0.351
    1UNL     O2    4   0.111   0.028  -0.440
    1UNL     C3    5   0.068   0.081  -0.225
    1UNL     C4    6   0.193   0.140  -0.206
    1UNL     O3    7   0.248   0.203  -0.095
    1UNL     C5    8   0.185   0.158   0.022
    1UNL     O4    9   0.232   0.034   0.080
    1UNL     C6   10   0.355  -0.000   0.036
    1UNL     O5   11   0.391  -0.138   0.072
    1UNL     C7   12   0.517  -0.172   0.021
    1UNL     C8   13   0.543  -0.320   0.047
    1UNL     O6   14   0.438  -0.407   0.016
    1UNL     C9   15   0.625  -0.087   0.087
    1UNL     O7   16   0.622  -0.112   0.228
    1UNL    C10   17   0.604   0.063   0.059
    1UNL     O8   18   0.640   0.102  -0.070
    1UNL    C11   19   0.457   0.089   0.104
    1UNL     O9   20   0.439   0.084   0.244
    1UNL    C12   21   0.033   0.159   0.013
    1UNL    C13   22  -0.047   0.128   0.138
    1UNL    C14   23  -0.147   0.254   0.158
    1UNL     N1   24  -0.266   0.212   0.076
    1UNL    C15   25  -0.399   0.252   0.130
    1UNL    C16   26  -0.470   0.138   0.208
    1UNL    C17   27  -0.460   0.019   0.120
    1UNL    C18   28  -0.361  -0.014   0.026
    1UNL     N2   29  -0.392  -0.136  -0.034
    1UNL    C19   30  -0.522  -0.174   0.008
    1UNL    C20   31  -0.596  -0.289  -0.024
    1UNL    C21   32  -0.716  -0.303   0.038
    1UNL    C22   33  -0.766  -0.204   0.129
    1UNL    C23   34  -0.691  -0.093   0.156
    1UNL    C24   35  -0.561  -0.078   0.103
    1UNL    C25   36  -0.240   0.073   0.027
    1UNL    C26   37  -0.171   0.071  -0.114
    1UNL    C27   38  -0.014   0.057  -0.103
    1UNL    O10   39  -0.139   0.020   0.118
    1UNL     H1   40  -0.189  -0.168  -0.497
    1UNL     H2   41  -0.020  -0.151  -0.509
    1UNL     H3   42  -0.118  -0.016  -0.571
    1UNL     H4   43   0.250   0.174  -0.288
    1UNL     H5   44   0.221   0.240   0.093
    1UNL     H6   45   0.359   0.021  -0.068
    1UNL     H7   46   0.517  -0.154  -0.084
    1UNL     H8   47   0.642  -0.351   0.008
    1UNL     H9   48   0.560  -0.348   0.149
    1UNL    H10   49   0.357  -0.357   0.000
    1UNL    H11   50   0.711  -0.122   0.017
    1UNL    H12   51   0.678  -0.049   0.271
    1UNL    H13   52   0.667   0.126   0.120
    1UNL    H14   53   0.585   0.062  -0.139
    1UNL    H15   54   0.435   0.190   0.079
    1UNL    H16   55   0.437  -0.014   0.273
    1UNL    H17   56   0.005   0.268  -0.021
    1UNL    H18   57   0.010   0.101   0.224
    1UNL    H19   58  -0.111   0.340   0.111
    1UNL    H20   59  -0.166   0.274   0.271
    1UNL    H21   60  -0.395   0.349   0.187
    1UNL    H22   61  -0.461   0.286   0.053
    1UNL    H23   62  -0.422   0.112   0.302
    1UNL    H24   63  -0.571   0.176   0.219
    1UNL    H25   64  -0.312  -0.195  -0.062
    1UNL    H26   65  -0.568  -0.351  -0.099
    1UNL    H27   66  -0.765  -0.392   0.006
    1UNL    H28   67  -0.863  -0.200   0.172
    1UNL    H29   68  -0.716  -0.022   0.235
    1UNL    H30   69  -0.210  -0.011  -0.170
    1UNL    H31   70  -0.196   0.164  -0.173
    1UNL    H32   71  -0.004  -0.046  -0.067
   0.00000   0.00000   0.00000   0.00000   0.00000   0.00000   0.00000   0.00000   0.00000
Generated with MDTraj, t= 3.0
 71
    1UNL     C1    1  -0.116  -0.102  -0.478
    1UNL     O1    2  -0.092  -0.066  -0.347
    1UNL     C2    3   0.021   0.014  -0.346
    1UNL     O2    4   0.094   0.033  -0.442
    1UNL     C3    5   0.064   0.074  -0.221
    1UNL     C4    6   0.184   0.141  -0.211
    1UNL     O3    7   0.251   0.195  -0.102
    1UNL     C5    8   0.188   0.145   0.021
    1UNL     O4    9   0.226   0.011   0.038
    1UNL     C6   10   0.366  -0.007   0.035
    1UNL     O5   11   0.408  -0.144   0.066
    1UNL     C7   12   0.538  -0.174   0.021
    1UNL     C8   13   0.559  -0.323   0.049
    1UNL     O6   14   0.447  -0.391   0.001
    1UNL     C9   15   0.637  -0.077   0.087
    1UNL     O7   16   0.658  -0.106   0.225
    1UNL    C10   17   0.601   0.072   0.067
    1UNL     O8   18   0.608   0.100  -0.065
    1UNL    C11   19   0.451   0.090   0.117
    1UNL     O9   20   0.432   0.064   0.253
    1UNL    C12   21   0.031   0.166   0.015
    1UNL    C13   22  -0.049   0.135   0.142
    1UNL    C14   23  -0.145   0.252   0.160
    1UNL     N1   24  -0.265   0.222   0.082
    1UNL    C15   25  -0.405   0.261   0.114
    1UNL    C16   26  -0.474   0.149   0.207
    1UNL    C17   27  -0.476   0.027   0.127
    1UNL    C18   28  -0.366  -0.009   0.051
    1UNL     N2   29  -0.392  -0.120  -0.022
    1UNL    C19   30  -0.513  -0.169   0.007
    1UNL    C20   31  -0.592  -0.274  -0.036
    1UNL    C21   32  -0.718  -0.297   0.018
    1UNL    C22   33  -0.777  -0.206   0.109
    1UNL    C23   34  -0.703  -0.100   0.155
    1UNL    C24   35  -0.565  -0.084   0.107
    1UNL    C25   36  -0.242   0.073   0.035
    1UNL    C26   37  -0.169   0.078  -0.106
    1UNL    C27   38  -0.018   0.061  -0.096
    1UNL    O10   39  -0.140   0.026   0.121
    1UNL     H1   40  -0.217  -0.140  -0.496
    1UNL     H2   41  -0.052  -0.185  -0.499
    1UNL     H3   42  -0.126  -0.004  -0.545
    1UNL     H4   43   0.252   0.145  -0.289
    1UNL     H5   44   0.234   0.210   0.101
    1UNL     H6   45   0.383  -0.002  -0.069
    1UNL     H7   46   0.541  -0.155  -0.085
    1UNL     H8   47   0.647  -0.371   0.001
    1UNL     H9   48   0.587  -0.343   0.152
    1UNL    H10   49   0.365  -0.332   0.006
    1UNL    H11   50   0.734  -0.089   0.030
    1UNL    H12   51   0.742  -0.060   0.256
    1UNL    H13   52   0.666   0.123   0.138
    1UNL    H14   53   0.596   0.197  -0.097
    1UNL    H15   54   0.416   0.189   0.103
    1UNL    H16   55   0.455  -0.033   0.275
    1UNL    H17   56   0.007   0.277  -0.024
    1UNL    H18   57   0.017   0.113   0.220
    1UNL    H19   58  -0.098   0.342   0.129
    1UNL    H20   59  -0.179   0.254   0.270
    1UNL    H21   60  -0.411   0.366   0.157
    1UNL    H22   61  -0.457   0.282   0.027
    1UNL    H23   62  -0.405   0.150   0.290
    1UNL    H24   63  -0.578   0.172   0.226
    1UNL    H25   64  -0.340  -0.163  -0.103
    1UNL    H26   65  -0.547  -0.332  -0.118
    1UNL    H27   66  -0.783  -0.370  -0.032
    1UNL    H28   67  -0.881  -0.224   0.142
    1UNL    H29   68  -0.736  -0.016   0.211
    1UNL    H30   69  -0.213  -0.002  -0.163
    1UNL    H31   70  -0.188   0.178  -0.158
    1UNL    H32   71  -0.003  -0.038  -0.051
   0.00000   0.00000   0.00000   0.00000   0.00000   0.00000   0.00000   0.00000   0.00000
Generated with MDTraj, t= 4.0
 71
    1UNL     C1    1  -0.131  -0.126  -0.454
    1UNL     O1    2  -0.108  -0.063  -0.329
    1UNL     C2    3   0.001   0.022  -0.339
    1UNL     O2    4   0.062   0.040  -0.445
    1UNL     C3    5   0.059   0.083  -0.213
    1UNL     C4    6   0.183   0.142  -0.207
    1UNL     O3    7   0.253   0.178  -0.098
    1UNL     C5    8   0.189   0.143   0.031
    1UNL     O4    9   0.219   0.017   0.075
    1UNL     C6   10   0.355  -0.010   0.045
    1UNL     O5   11   0.403  -0.147   0.058
    1UNL     C7   12   0.540  -0.169   0.004
    1UNL     C8   13   0.584  -0.312   0.040
    1UNL     O6   14   0.487  -0.402  -0.002
    1UNL     C9   15   0.640  -0.075   0.084
    1UNL     O7   16   0.636  -0.107   0.222
    1UNL    C10   17   0.600   0.074   0.061
    1UNL     O8   18   0.609   0.117  -0.081
    1UNL    C11   19   0.450   0.091   0.128
    1UNL     O9   20   0.443   0.045   0.257
    1UNL    C12   21   0.033   0.161   0.019
    1UNL    C13   22  -0.050   0.140   0.153
    1UNL    C14   23  -0.146   0.254   0.166
    1UNL     N1   24  -0.254   0.219   0.072
    1UNL    C15   25  -0.397   0.260   0.111
    1UNL    C16   26  -0.475   0.155   0.188
    1UNL    C17   27  -0.469   0.031   0.109
    1UNL    C18   28  -0.362  -0.009   0.037
    1UNL     N2   29  -0.386  -0.133  -0.029
    1UNL    C19   30  -0.516  -0.167   0.002
    1UNL    C20   31  -0.589  -0.278  -0.038
    1UNL    C21   32  -0.720  -0.291   0.003
    1UNL    C22   33  -0.766  -0.195   0.102
    1UNL    C23   34  -0.701  -0.079   0.139
    1UNL    C24   35  -0.568  -0.068   0.091
    1UNL    C25   36  -0.233   0.070   0.033
    1UNL    C26   37  -0.164   0.060  -0.110
    1UNL    C27   38  -0.015   0.059  -0.084
    1UNL    O10   39  -0.140   0.028   0.138
    1UNL     H1   40  -0.205  -0.205  -0.453
    1UNL     H2   41  -0.042  -0.178  -0.474
    1UNL     H3   42  -0.167  -0.056  -0.541
    1UNL     H4   43   0.242   0.142  -0.307
    1UNL     H5   44   0.235   0.204   0.113
    1UNL     H6   45   0.363   0.001  -0.059
    1UNL     H7   46   0.538  -0.159  -0.105
    1UNL     H8   47   0.689  -0.346   0.022
    1UNL     H9   48   0.589  -0.312   0.151
    1UNL    H10   49   0.401  -0.365   0.023
    1UNL    H11   50   0.744  -0.088   0.053
    1UNL    H12   51   0.693  -0.036   0.275
    1UNL    H13   52   0.664   0.147   0.118
    1UNL    H14   53   0.518   0.147  -0.115
    1UNL    H15   54   0.431   0.193   0.102
    1UNL    H16   55   0.457  -0.047   0.250
    1UNL    H17   56  -0.004   0.269  -0.017
    1UNL    H18   57   0.017   0.128   0.232
    1UNL    H19   58  -0.103   0.347   0.124
    1UNL    H20   59  -0.186   0.272   0.268
    1UNL    H21   60  -0.400   0.358   0.173
    1UNL    H22   61  -0.446   0.303   0.030
    1UNL    H23   62  -0.418   0.133   0.276
    1UNL    H24   63  -0.572   0.203   0.199
    1UNL    H25   64  -0.317  -0.174  -0.097
    1UNL    H26   65  -0.547  -0.354  -0.109
    1UNL    H27   66  -0.784  -0.371  -0.027
    1UNL    H28   67  -0.853  -0.227   0.155
    1UNL    H29   68  -0.737   0.004   0.202
    1UNL    H30   69  -0.195  -0.032  -0.156
    1UNL    H31   70  -0.203   0.151  -0.169
    1UNL    H32   71   0.009  -0.043  -0.052
   0.00000   0.00000   0.00000   0.00000   0.00000   0.00000   0.00000   0.00000   0.00000
Generated with MDTraj, t= 5.0
 71
    1UNL     C1    1  -0.143  -0.101  -0.453
    1UNL     O1    2  -0.086  -0.081  -0.330
    1UNL     C2    3   0.017   0.010  -0.337
    1UNL     O2    4   0.065   0.041  -0.445
    1UNL     C3    5   0.064   0.070  -0.212
    1UNL     C4    6   0.187   0.126  -0.201
    1UNL     O3    7   0.248   0.178  -0.092
    1UNL     C5    8   0.188   0.134   0.030
    1UNL     O4    9   0.222   0.001   0.065
    1UNL     C6   10   0.364  -0.021   0.050
    1UNL     O5   11   0.414  -0.148   0.080
    1UNL     C7   12   0.541  -0.169   0.020
    1UNL     C8   13   0.575  -0.314   0.032
    1UNL     O6   14   0.472  -0.387  -0.026
    1UNL     C9   15   0.647  -0.070   0.079
    1UNL     O7   16   0.682  -0.099   0.207
    1UNL    C10   17   0.600   0.077   0.066
    1UNL     O8   18   0.605   0.115  -0.071
    1UNL    C11   19   0.450   0.087   0.119
    1UNL     O9   20   0.450   0.069   0.260
    1UNL    C12   21   0.034   0.154   0.016
    1UNL    C13   22  -0.048   0.135   0.153
    1UNL    C14   23  -0.149   0.252   0.171
    1UNL     N1   24  -0.258   0.216   0.075
    1UNL    C15   25  -0.406   0.270   0.112
    1UNL    C16   26  -0.492   0.163   0.175
    1UNL    C17   27  -0.480   0.034   0.103
    1UNL    C18   28  -0.365  -0.010   0.039
    1UNL     N2   29  -0.381  -0.134  -0.013
    1UNL    C19   30  -0.517  -0.166   0.014
    1UNL    C20   31  -0.588  -0.282  -0.021
    1UNL    C21   32  -0.722  -0.287   0.008
    1UNL    C22   33  -0.789  -0.186   0.080
    1UNL    C23   34  -0.716  -0.078   0.122
    1UNL    C24   35  -0.578  -0.071   0.096
    1UNL    C25   36  -0.235   0.069   0.037
    1UNL    C26   37  -0.170   0.067  -0.105
    1UNL    C27   38  -0.017   0.062  -0.090
    1UNL    O10   39  -0.139   0.021   0.131
    1UNL     H1   40  -0.225  -0.170  -0.434
    1UNL     H2   41  -0.078  -0.147  -0.523
    1UNL     H3   42  -0.172  -0.006  -0.515
    1UNL     H4   43   0.231   0.149  -0.299
    1UNL     H5   44   0.231   0.186   0.114
    1UNL     H6   45   0.378  -0.023  -0.054
    1UNL     H7   46   0.526  -0.149  -0.089
    1UNL     H8   47   0.674  -0.320  -0.020
    1UNL     H9   48   0.599  -0.352   0.134
    1UNL    H10   49   0.383  -0.352   0.010
    1UNL    H11   50   0.741  -0.073   0.029
    1UNL    H12   51   0.761  -0.040   0.245
    1UNL    H13   52   0.654   0.143   0.140
    1UNL    H14   53   0.525   0.160  -0.104
    1UNL    H15   54   0.425   0.190   0.094
    1UNL    H16   55   0.451  -0.027   0.294
    1UNL    H17   56   0.001   0.266  -0.011
    1UNL    H18   57   0.024   0.108   0.224
    1UNL    H19   58  -0.117   0.358   0.143
    1UNL    H20   59  -0.192   0.256   0.269
    1UNL    H21   60  -0.398   0.369   0.171
    1UNL    H22   61  -0.454   0.315   0.030
    1UNL    H23   62  -0.454   0.155   0.275
    1UNL    H24   63  -0.596   0.190   0.168
    1UNL    H25   64  -0.292  -0.188  -0.034
    1UNL    H26   65  -0.549  -0.357  -0.076
    1UNL    H27   66  -0.778  -0.378  -0.014
    1UNL    H28   67  -0.889  -0.177   0.122
    1UNL    H29   68  -0.758  -0.003   0.183
    1UNL    H30   69  -0.208  -0.026  -0.153
    1UNL    H31   70  -0.201   0.164  -0.157
    1UNL    H32   71   0.013  -0.038  -0.050
   0.00000   0.00000   0.00000   0.00000   0.00000   0.00000   0.00000   0.00000   0.00000
Generated with MDTraj, t= 6.0
 71
    1UNL     C1    1  -0.121  -0.101  -0.475
    1UNL     O1    2  -0.110  -0.043  -0.350
    1UNL     C2    3   0.015   0.020  -0.333
    1UNL     O2    4   0.087   0.035  -0.432
    1UNL     C3    5   0.064   0.055  -0.203
    1UNL     C4    6   0.186   0.109  -0.199
    1UNL     O3    7   0.241   0.175  -0.088
    1UNL     C5    8   0.184   0.143   0.041
    1UNL     O4    9   0.238   0.019   0.092
    1UNL     C6   10   0.368   0.002   0.048
    1UNL     O5   11   0.409  -0.132   0.060
    1UNL     C7   12   0.538  -0.161   0.008
    1UNL     C8   13   0.570  -0.305   0.028
    1UNL     O6   14   0.468  -0.391  -0.012
    1UNL     C9   15   0.647  -0.072   0.068
    1UNL     O7   16   0.657  -0.105   0.197
    1UNL    C10   17   0.604   0.075   0.051
    1UNL     O8   18   0.599   0.121  -0.084
    1UNL    C11   19   0.469   0.093   0.124
    1UNL     O9   20   0.477   0.064   0.265
    1UNL    C12   21   0.033   0.143   0.027
    1UNL    C13   22  -0.054   0.123   0.160
    1UNL    C14   23  -0.146   0.241   0.177
    1UNL     N1   24  -0.247   0.211   0.078
    1UNL    C15   25  -0.395   0.266   0.086
    1UNL    C16   26  -0.494   0.180   0.163
    1UNL    C17   27  -0.490   0.044   0.097
    1UNL    C18   28  -0.370  -0.012   0.053
    1UNL     N2   29  -0.394  -0.135  -0.003
    1UNL    C19   30  -0.524  -0.171   0.013
    1UNL    C20   31  -0.588  -0.292  -0.008
    1UNL    C21   32  -0.726  -0.293   0.024
    1UNL    C22   33  -0.791  -0.184   0.072
    1UNL    C23   34  -0.723  -0.074   0.108
    1UNL    C24   35  -0.590  -0.063   0.076
    1UNL    C25   36  -0.236   0.061   0.047
    1UNL    C26   37  -0.171   0.050  -0.095
    1UNL    C27   38  -0.011   0.030  -0.074
    1UNL    O10   39  -0.137   0.008   0.146
    1UNL     H1   40  -0.201  -0.172  -0.467
    1UNL     H2   41  -0.030  -0.141  -0.514
    1UNL     H3   42  -0.135  -0.022  -0.558
    1UNL     H4   43   0.242   0.116  -0.283
    1UNL     H5   44   0.219   0.220   0.106
    1UNL     H6   45   0.360   0.014  -0.058
    1UNL     H7   46   0.518  -0.143  -0.102
    1UNL     H8   47   0.661  -0.340  -0.024
    1UNL     H9   48   0.597  -0.315   0.136
    1UNL    H10   49   0.385  -0.346  -0.003
    1UNL    H11   50   0.741  -0.075   0.019
    1UNL    H12   51   0.711  -0.041   0.252
    1UNL    H13   52   0.675   0.141   0.109
    1UNL    H14   53   0.523   0.160  -0.125
    1UNL    H15   54   0.445   0.197   0.103
    1UNL    H16   55   0.492  -0.026   0.286
    1UNL    H17   56  -0.008   0.246  -0.011
    1UNL    H18   57   0.009   0.121   0.245
    1UNL    H19   58  -0.102   0.346   0.152
    1UNL    H20   59  -0.190   0.250   0.271
    1UNL    H21   60  -0.386   0.372   0.129
    1UNL    H22   61  -0.429   0.293  -0.010
    1UNL    H23   62  -0.465   0.168   0.265
    1UNL    H24   63  -0.592   0.225   0.153
    1UNL    H25   64  -0.320  -0.191  -0.052
    1UNL    H26   65  -0.524  -0.374  -0.058
    1UNL    H27   66  -0.800  -0.362  -0.013
    1UNL    H28   67  -0.895  -0.185   0.098
    1UNL    H29   68  -0.761   0.013   0.164
    1UNL    H30   69  -0.207  -0.043  -0.147
    1UNL    H31   70  -0.184   0.145  -0.152
    1UNL    H32   71   0.024  -0.068  -0.031
   0.00000   0.00000   0.00000   0.00000   0.00000   0.00000   0.00000   0.00000   0.00000
Generated with MDTraj, t= 7.0
 71
    1UNL     C1    1  -0.133  -0.071  -0.462
    1UNL     O1    2  -0.082  -0.043  -0.334
    1UNL     C2    3   0.040   0.017  -0.331
    1UNL     O2    4   0.113   0.023  -0.428
    1UNL     C3    5   0.081   0.066  -0.200
    1UNL     C4    6   0.185   0.154  -0.185
    1UNL     O3    7   0.242   0.203  -0.069
    1UNL     C5    8   0.175   0.141   0.048
    1UNL     O4    9   0.225   0.010   0.082
    1UNL     C6   10   0.355  -0.009   0.051
    1UNL     O5   11   0.411  -0.143   0.086
    1UNL     C7   12   0.534  -0.165   0.013
    1UNL     C8   13   0.564  -0.314   0.011
    1UNL     O6   14   0.452  -0.397  -0.005
    1UNL     C9   15   0.651  -0.070   0.056
    1UNL     O7   16   0.693  -0.098   0.190
    1UNL    C10   17   0.601   0.079   0.040
    1UNL     O8   18   0.601   0.117  -0.093
    1UNL    C11   19   0.453   0.091   0.113
    1UNL     O9   20   0.469   0.073   0.254
    1UNL    C12   21   0.030   0.145   0.033
    1UNL    C13   22  -0.057   0.116   0.153
    1UNL    C14   23  -0.155   0.234   0.169
    1UNL     N1   24  -0.256   0.199   0.075
    1UNL    C15   25  -0.393   0.265   0.071
    1UNL    C16   26  -0.500   0.174   0.132
    1UNL    C17   27  -0.476   0.031   0.091
    1UNL    C18   28  -0.362  -0.030   0.044
    1UNL     N2   29  -0.389  -0.162   0.010
    1UNL    C19   30  -0.524  -0.182   0.031
    1UNL    C20   31  -0.608  -0.293   0.016
    1UNL    C21   32  -0.740  -0.286   0.024
    1UNL    C22   33  -0.796  -0.169   0.082
    1UNL    C23   34  -0.723  -0.058   0.110
    1UNL    C24   35  -0.588  -0.061   0.079
    1UNL    C25   36  -0.230   0.048   0.038
    1UNL    C26   37  -0.173   0.052  -0.105
    1UNL    C27   38  -0.010   0.047  -0.082
    1UNL    O10   39  -0.141   0.003   0.141
    1UNL     H1   40  -0.241  -0.061  -0.460
    1UNL     H2   41  -0.103  -0.164  -0.504
    1UNL     H3   42  -0.082   0.004  -0.533
    1UNL     H4   43   0.250   0.180  -0.274
    1UNL     H5   44   0.203   0.215   0.120
    1UNL     H6   45   0.348  -0.008  -0.056
    1UNL     H7   46   0.498  -0.145  -0.092
    1UNL     H8   47   0.639  -0.339  -0.064
    1UNL     H9   48   0.605  -0.353   0.106
    1UNL    H10   49   0.379  -0.354   0.052
    1UNL    H11   50   0.734  -0.082  -0.013
    1UNL    H12   51   0.774  -0.057   0.216
    1UNL    H13   52   0.645   0.156   0.107
    1UNL    H14   53   0.524   0.170  -0.123
    1UNL    H15   54   0.412   0.191   0.089
    1UNL    H16   55   0.499  -0.026   0.261
    1UNL    H17   56  -0.005   0.244  -0.014
    1UNL    H18   57   0.008   0.092   0.235
    1UNL    H19   58  -0.105   0.336   0.153
    1UNL    H20   59  -0.195   0.240   0.267
    1UNL    H21   60  -0.383   0.370   0.114
    1UNL    H22   61  -0.405   0.282  -0.033
    1UNL    H23   62  -0.500   0.180   0.238
    1UNL    H24   63  -0.596   0.200   0.092
    1UNL    H25   64  -0.318  -0.236  -0.013
    1UNL    H26   65  -0.575  -0.385  -0.028
    1UNL    H27   66  -0.801  -0.365  -0.022
    1UNL    H28   67  -0.904  -0.165   0.099
    1UNL    H29   68  -0.750   0.028   0.167
    1UNL    H30   69  -0.205  -0.035  -0.173
    1UNL    H31   70  -0.192   0.153  -0.143
    1UNL    H32   71   0.008  -0.057  -0.043
   0.00000   0.00000   0.00000   0.00000   0.00000   0.00000   0.00000   0.00000   0.00000
Generated with MDTraj, t= 8.0
 71
    1UNL     C1    1  -0.086  -0.076  -0.479
    1UNL     O1    2  -0.081  -0.022  -0.349
    1UNL     C2    3   0.040   0.031  -0.328
    1UNL     O2    4   0.118   0.057  -0.417
    1UNL     C3    5   0.073   0.065  -0.190
    1UNL     C4    6   0.190   0.131  -0.170
    1UNL     O3    7   0.245   0.188  -0.060
    1UNL     C5    8   0.176   0.141   0.064
    1UNL     O4    9   0.228   0.014   0.102
    1UNL     C6   10   0.353  -0.003   0.047
    1UNL     O5   11   0.402  -0.144   0.052
    1UNL     C7   12   0.532  -0.172   0.000
    1UNL     C8   13   0.565  -0.314   0.045
    1UNL     O6   14   0.460  -0.405   0.007
    1UNL     C9   15   0.638  -0.071   0.045
    1UNL     O7   16   0.674  -0.098   0.180
    1UNL    C10   17   0.596   0.077   0.025
    1UNL     O8   18   0.583   0.113  -0.107
    1UNL    C11   19   0.458   0.098   0.101
    1UNL     O9   20   0.475   0.063   0.235
    1UNL    C12   21   0.026   0.139   0.039
    1UNL    C13   22  -0.061   0.119   0.167
    1UNL    C14   23  -0.166   0.235   0.176
    1UNL     N1   24  -0.254   0.199   0.066
    1UNL    C15   25  -0.390   0.261   0.051
    1UNL    C16   26  -0.491   0.184   0.129
    1UNL    C17   27  -0.492   0.046   0.077
    1UNL    C18   28  -0.373  -0.017   0.042
    1UNL     N2   29  -0.396  -0.150   0.013
    1UNL    C19   30  -0.524  -0.177   0.024
    1UNL    C20   31  -0.594  -0.298   0.018
    1UNL    C21   32  -0.724  -0.301   0.052
    1UNL    C22   33  -0.795  -0.182   0.084
    1UNL    C23   34  -0.735  -0.058   0.103
    1UNL    C24   35  -0.589  -0.062   0.075
    1UNL    C25   36  -0.234   0.045   0.042
    1UNL    C26   37  -0.162   0.041  -0.094
    1UNL    C27   38  -0.004   0.032  -0.069
    1UNL    O10   39  -0.146   0.003   0.151
    1UNL     H1   40  -0.185  -0.114  -0.495
    1UNL     H2   41  -0.010  -0.148  -0.498
    1UNL     H3   42  -0.078   0.017  -0.544
    1UNL     H4   43   0.234   0.183  -0.263
    1UNL     H5   44   0.197   0.223   0.134
    1UNL     H6   45   0.341   0.011  -0.061
    1UNL     H7   46   0.515  -0.169  -0.109
    1UNL     H8   47   0.658  -0.348   0.004
    1UNL     H9   48   0.570  -0.318   0.154
    1UNL    H10   49   0.384  -0.349   0.028
    1UNL    H11   50   0.730  -0.082  -0.018
    1UNL    H12   51   0.742  -0.043   0.210
    1UNL    H13   52   0.671   0.136   0.078
    1UNL    H14   53   0.496   0.153  -0.144
    1UNL    H15   54   0.424   0.204   0.088
    1UNL    H16   55   0.481  -0.033   0.241
    1UNL    H17   56  -0.006   0.241   0.005
    1UNL    H18   57   0.001   0.111   0.257
    1UNL    H19   58  -0.126   0.335   0.155
    1UNL    H20   59  -0.208   0.243   0.277
    1UNL    H21   60  -0.374   0.370   0.079
    1UNL    H22   61  -0.404   0.264  -0.055
    1UNL    H23   62  -0.461   0.170   0.230
    1UNL    H24   63  -0.587   0.229   0.121
    1UNL    H25   64  -0.322  -0.221   0.003
    1UNL    H26   65  -0.547  -0.384  -0.015
    1UNL    H27   66  -0.776  -0.393   0.068
    1UNL    H28   67  -0.898  -0.188   0.110
    1UNL    H29   68  -0.787   0.029   0.142
    1UNL    H30   69  -0.192  -0.052  -0.156
    1UNL    H31   70  -0.181   0.134  -0.145
    1UNL    H32   71   0.015  -0.068  -0.018
   0.00000   0.00000   0.00000   0.00000   0.00000   0.00000   0.00000   0.00000   0.00000
Generated with MDTraj, t= 9.0
 71
    1UNL     C1    1  -0.076  -0.066  -0.477
    1UNL     O1    2  -0.051  -0.050  -0.337
    1UNL     C2    3   0.049   0.043  -0.329
    1UNL     O2    4   0.122   0.085  -0.420
    1UNL     C3    5   0.078   0.086  -0.190
    1UNL     C4    6   0.189   0.160  -0.170
    1UNL     O3    7   0.241   0.194  -0.047
    1UNL     C5    8   0.179   0.131   0.062
    1UNL     O4    9   0.220   0.000   0.087
    1UNL     C6   10   0.357  -0.025   0.054
    1UNL     O5   11   0.415  -0.153   0.082
    1UNL     C7   12   0.526  -0.176   0.003
    1UNL     C8   13   0.570  -0.323   0.021
    1UNL     O6   14   0.458  -0.415   0.023
    1UNL     C9   15   0.642  -0.081   0.048
    1UNL     O7   16   0.690  -0.105   0.181
    1UNL    C10   17   0.593   0.062   0.015
    1UNL     O8   18   0.562   0.087  -0.123
    1UNL    C11   19   0.456   0.087   0.092
    1UNL     O9   20   0.469   0.085   0.230
    1UNL    C12   21   0.026   0.148   0.043
    1UNL    C13   22  -0.072   0.134   0.171
    1UNL    C14   23  -0.178   0.238   0.171
    1UNL     N1   24  -0.268   0.204   0.061
    1UNL    C15   25  -0.408   0.276   0.066
    1UNL    C16   26  -0.517   0.182   0.106
    1UNL    C17   27  -0.493   0.041   0.067
    1UNL    C18   28  -0.368  -0.015   0.040
    1UNL     N2   29  -0.390  -0.148   0.008
    1UNL    C19   30  -0.519  -0.181   0.046
    1UNL    C20   31  -0.586  -0.303   0.029
    1UNL    C21   32  -0.723  -0.300   0.050
    1UNL    C22   33  -0.795  -0.191   0.101
    1UNL    C23   34  -0.724  -0.070   0.111
    1UNL    C24   35  -0.587  -0.066   0.081
    1UNL    C25   36  -0.240   0.058   0.030
    1UNL    C26   37  -0.164   0.052  -0.104
    1UNL    C27   38  -0.005   0.053  -0.074
    1UNL    O10   39  -0.148   0.004   0.140
    1UNL     H1   40  -0.151  -0.142  -0.490
    1UNL     H2   41   0.016  -0.086  -0.531
    1UNL     H3   42  -0.139   0.027  -0.502
    1UNL     H4   43   0.258   0.183  -0.243
    1UNL     H5   44   0.206   0.183   0.158
    1UNL     H6   45   0.362  -0.020  -0.057
    1UNL     H7   46   0.489  -0.155  -0.097
    1UNL     H8   47   0.630  -0.358  -0.060
    1UNL     H9   48   0.626  -0.328   0.115
    1UNL    H10   49   0.386  -0.354   0.062
    1UNL    H11   50   0.732  -0.097  -0.021
    1UNL    H12   51   0.740  -0.026   0.214
    1UNL    H13   52   0.665   0.131   0.056
    1UNL    H14   53   0.547   0.187  -0.130
    1UNL    H15   54   0.414   0.189   0.067
    1UNL    H16   55   0.490  -0.011   0.261
    1UNL    H17   56   0.004   0.251   0.010
    1UNL    H18   57  -0.012   0.127   0.265
    1UNL    H19   58  -0.141   0.334   0.148
    1UNL    H20   59  -0.229   0.239   0.273
    1UNL    H21   60  -0.394   0.362   0.136
    1UNL    H22   61  -0.417   0.322  -0.032
    1UNL    H23   62  -0.516   0.186   0.212
    1UNL    H24   63  -0.610   0.218   0.070
    1UNL    H25   64  -0.324  -0.221  -0.019
    1UNL    H26   65  -0.538  -0.403  -0.004
    1UNL    H27   66  -0.788  -0.388   0.034
    1UNL    H28   67  -0.889  -0.211   0.155
    1UNL    H29   68  -0.772   0.025   0.137
    1UNL    H30   69  -0.175  -0.051  -0.157
    1UNL    H31   70  -0.190   0.133  -0.170
    1UNL    H32   71   0.018  -0.055  -0.044
   0.00000   0.00000   0.00000   0.00000   0.00000   0.00000   0.00000   0.00000   0.00000
Generated with MDTraj, t= 10.0
 71
    1UNL     C1    1  -0.065  -0.076  -0.472
    1UNL     O1    2  -0.058  -0.046  -0.332
    1UNL     C2    3   0.039   0.051  -0.327
    1UNL     O2    4   0.103   0.103  -0.420
    1UNL     C3    5   0.075   0.090  -0.188
    1UNL     C4    6   0.191   0.159  -0.167
    1UNL     O3    7   0.252   0.197  -0.047
    1UNL     C5    8   0.181   0.145   0.072
    1UNL     O4    9   0.226   0.013   0.105
    1UNL     C6   10   0.350  -0.020   0.040
    1UNL     O5   11   0.395  -0.149   0.081
    1UNL     C7   12   0.515  -0.188   0.013
    1UNL     C8   13   0.554  -0.326   0.065
    1UNL     O6   14   0.450  -0.413   0.026
    1UNL     C9   15   0.632  -0.087   0.040
    1UNL     O7   16   0.679  -0.103   0.171
    1UNL    C10   17   0.584   0.063   0.010
    1UNL     O8   18   0.569   0.089  -0.135
    1UNL    C11   19   0.452   0.088   0.086
    1UNL     O9   20   0.482   0.058   0.219
    1UNL    C12   21   0.025   0.153   0.044
    1UNL    C13   22  -0.067   0.123   0.169
    1UNL    C14   23  -0.176   0.235   0.179
    1UNL     N1   24  -0.262   0.208   0.057
    1UNL    C15   25  -0.398   0.269   0.062
    1UNL    C16   26  -0.504   0.176   0.122
    1UNL    C17   27  -0.489   0.039   0.061
    1UNL    C18   28  -0.371  -0.010   0.016
    1UNL     N2   29  -0.387  -0.146  -0.006
    1UNL    C19   30  -0.519  -0.181   0.028
    1UNL    C20   31  -0.569  -0.308   0.037
    1UNL    C21   32  -0.705  -0.319   0.069
    1UNL    C22   33  -0.776  -0.200   0.104
    1UNL    C23   34  -0.722  -0.077   0.104
    1UNL    C24   35  -0.587  -0.062   0.071
    1UNL    C25   36  -0.236   0.063   0.031
    1UNL    C26   37  -0.160   0.062  -0.106
    1UNL    C27   38  -0.007   0.066  -0.073
    1UNL    O10   39  -0.152   0.013   0.138
    1UNL     H1   40  -0.155  -0.135  -0.484
    1UNL     H2   41   0.025  -0.132  -0.499
    1UNL     H3   42  -0.090   0.022  -0.529
    1UNL     H4   43   0.244   0.185  -0.256
    1UNL     H5   44   0.220   0.199   0.165
    1UNL     H6   45   0.339  -0.018  -0.074
    1UNL     H7   46   0.489  -0.197  -0.091
    1UNL     H8   47   0.649  -0.358   0.027
    1UNL     H9   48   0.551  -0.343   0.174
    1UNL    H10   49   0.369  -0.366   0.044
    1UNL    H11   50   0.724  -0.115  -0.023
    1UNL    H12   51   0.740  -0.028   0.213
    1UNL    H13   52   0.664   0.130   0.039
    1UNL    H14   53   0.484   0.133  -0.140
    1UNL    H15   54   0.406   0.190   0.069
    1UNL    H16   55   0.441  -0.028   0.246
    1UNL    H17   56  -0.003   0.256   0.028
    1UNL    H18   57  -0.004   0.112   0.264
    1UNL    H19   58  -0.146   0.334   0.174
    1UNL    H20   59  -0.248   0.219   0.267
    1UNL    H21   60  -0.379   0.368   0.107
    1UNL    H22   61  -0.426   0.282  -0.044
    1UNL    H23   62  -0.491   0.174   0.227
    1UNL    H24   63  -0.595   0.221   0.094
    1UNL    H25   64  -0.312  -0.212  -0.019
    1UNL    H26   65  -0.507  -0.386   0.009
    1UNL    H27   66  -0.747  -0.417   0.059
    1UNL    H28   67  -0.880  -0.197   0.127
    1UNL    H29   68  -0.784   0.000   0.142
    1UNL    H30   69  -0.192  -0.030  -0.165
    1UNL    H31   70  -0.170   0.154  -0.163
    1UNL    H32   71   0.012  -0.040  -0.030
   0.00000   0.00000   0.00000   0.00000   0.00000   0.00000   0.00000   0.00000   0.00000
Generated with MDTraj, t= 11.0
 71
    1UNL     C1    1  -0.079  -0.073  -0.478
    1UNL     O1    2  -0.066  -0.032  -0.341
    1UNL     C2    3   0.043   0.053  -0.335
    1UNL     O2    4   0.111   0.092  -0.430
    1UNL     C3    5   0.077   0.100  -0.198
    1UNL     C4    6   0.194   0.170  -0.173
    1UNL     O3    7   0.249   0.210  -0.056
    1UNL     C5    8   0.179   0.151   0.056
    1UNL     O4    9   0.214   0.025   0.097
    1UNL     C6   10   0.345  -0.013   0.052
    1UNL     O5   11   0.390  -0.143   0.088
    1UNL     C7   12   0.508  -0.184   0.014
    1UNL     C8   13   0.537  -0.330   0.043
    1UNL     O6   14   0.419  -0.406   0.056
    1UNL     C9   15   0.633  -0.092   0.039
    1UNL     O7   16   0.676  -0.118   0.167
    1UNL    C10   17   0.581   0.054   0.015
    1UNL     O8   18   0.541   0.073  -0.128
    1UNL    C11   19   0.461   0.081   0.099
    1UNL     O9   20   0.483   0.062   0.239
    1UNL    C12   21   0.029   0.158   0.037
    1UNL    C13   22  -0.065   0.129   0.164
    1UNL    C14   23  -0.160   0.247   0.168
    1UNL     N1   24  -0.258   0.207   0.069
    1UNL    C15   25  -0.390   0.272   0.066
    1UNL    C16   26  -0.504   0.176   0.119
    1UNL    C17   27  -0.486   0.033   0.068
    1UNL    C18   28  -0.359  -0.018   0.033
    1UNL     N2   29  -0.368  -0.150   0.002
    1UNL    C19   30  -0.510  -0.183   0.013
    1UNL    C20   31  -0.568  -0.313   0.015
    1UNL    C21   32  -0.695  -0.325   0.063
    1UNL    C22   33  -0.769  -0.217   0.108
    1UNL    C23   34  -0.708  -0.091   0.123
    1UNL    C24   35  -0.577  -0.074   0.071
    1UNL    C25   36  -0.234   0.065   0.036
    1UNL    C26   37  -0.161   0.066  -0.099
    1UNL    C27   38  -0.006   0.060  -0.078
    1UNL    O10   39  -0.138   0.011   0.138
    1UNL     H1   40  -0.164  -0.139  -0.475
    1UNL     H2   41   0.006  -0.138  -0.495
    1UNL     H3   42  -0.098   0.017  -0.547
    1UNL     H4   43   0.244   0.216  -0.268
    1UNL     H5   44   0.229   0.210   0.141
    1UNL     H6   45   0.330  -0.018  -0.062
    1UNL     H7   46   0.476  -0.181  -0.089
    1UNL     H8   47   0.586  -0.375  -0.042
    1UNL     H9   48   0.602  -0.340   0.134
    1UNL    H10   49   0.350  -0.361   0.116
    1UNL    H11   50   0.716  -0.109  -0.036
    1UNL    H12   51   0.602  -0.090   0.225
    1UNL    H13   52   0.666   0.120   0.039
    1UNL    H14   53   0.489   0.152  -0.121
    1UNL    H15   54   0.425   0.187   0.085
    1UNL    H16   55   0.405   0.049   0.293
    1UNL    H17   56   0.003   0.257   0.006
    1UNL    H18   57   0.002   0.106   0.256
    1UNL    H19   58  -0.105   0.335   0.146
    1UNL    H20   59  -0.221   0.254   0.263
    1UNL    H21   60  -0.384   0.364   0.123
    1UNL    H22   61  -0.396   0.299  -0.043
    1UNL    H23   62  -0.495   0.181   0.224
    1UNL    H24   63  -0.595   0.222   0.092
    1UNL    H25   64  -0.293  -0.209  -0.022
    1UNL    H26   65  -0.503  -0.387  -0.032
    1UNL    H27   66  -0.740  -0.423   0.044
    1UNL    H28   67  -0.876  -0.237   0.123
    1UNL    H29   68  -0.756  -0.004   0.171
    1UNL    H30   69  -0.194  -0.016  -0.169
    1UNL    H31   70  -0.175   0.166  -0.144
    1UNL    H32   71   0.017  -0.046  -0.040
   0.00000   0.00000   0.00000   0.00000   0.00000   0.00000   0.00000   0.00000   0.00000
Generated with MDTraj, t= 12.0
 71
    1UNL     C1    1  -0.103  -0.046  -0.486
    1UNL     O1    2  -0.073  -0.014  -0.348
    1UNL     C2    3   0.047   0.048  -0.338
    1UNL     O2    4   0.123   0.072  -0.430
    1UNL     C3    5   0.090   0.079  -0.202
    1UNL     C4    6   0.210   0.141  -0.178
    1UNL     O3    7   0.258   0.198  -0.065
    1UNL     C5    8   0.181   0.162   0.053
    1UNL     O4    9   0.221   0.043   0.117
    1UNL     C6   10   0.338  -0.005   0.064
    1UNL     O5   11   0.371  -0.137   0.094
    1UNL     C7   12   0.484  -0.188   0.021
    1UNL     C8   13   0.510  -0.337   0.050
    1UNL     O6   14   0.393  -0.411   0.050
    1UNL     C9   15   0.609  -0.105   0.039
    1UNL     O7   16   0.673  -0.131   0.159
    1UNL    C10   17   0.579   0.049   0.016
    1UNL     O8   18   0.568   0.087  -0.121
    1UNL    C11   19   0.456   0.086   0.092
    1UNL     O9   20   0.482   0.091   0.235
    1UNL    C12   21   0.033   0.174   0.024
    1UNL    C13   22  -0.062   0.140   0.155
    1UNL    C14   23  -0.165   0.260   0.160
    1UNL     N1   24  -0.269   0.214   0.064
    1UNL    C15   25  -0.408   0.262   0.071
    1UNL    C16   26  -0.494   0.164   0.154
    1UNL    C17   27  -0.471   0.024   0.100
    1UNL    C18   28  -0.357  -0.021   0.039
    1UNL     N2   29  -0.367  -0.156   0.003
    1UNL    C19   30  -0.491  -0.200   0.033
    1UNL    C20   31  -0.556  -0.318   0.011
    1UNL    C21   32  -0.687  -0.325   0.033
    1UNL    C22   33  -0.758  -0.217   0.096
    1UNL    C23   34  -0.693  -0.099   0.118
    1UNL    C24   35  -0.554  -0.086   0.082
    1UNL    C25   36  -0.236   0.062   0.028
    1UNL    C26   37  -0.157   0.080  -0.103
    1UNL    C27   38  -0.004   0.064  -0.082
    1UNL    O10   39  -0.137   0.023   0.131
    1UNL     H1   40  -0.177  -0.122  -0.472
    1UNL     H2   41  -0.016  -0.101  -0.519
    1UNL     H3   42  -0.126   0.047  -0.545
    1UNL     H4   43   0.284   0.147  -0.253
    1UNL     H5   44   0.200   0.247   0.123
    1UNL     H6   45   0.330  -0.005  -0.052
    1UNL     H7   46   0.450  -0.189  -0.083
    1UNL     H8   47   0.577  -0.377  -0.028
    1UNL     H9   48   0.560  -0.336   0.150
    1UNL    H10   49   0.320  -0.362   0.087
    1UNL    H11   50   0.683  -0.137  -0.038
    1UNL    H12   51   0.618  -0.109   0.232
    1UNL    H13   52   0.673   0.094   0.060
    1UNL    H14   53   0.470   0.118  -0.124
    1UNL    H15   54   0.426   0.190   0.069
    1UNL    H16   55   0.430   0.021   0.289
    1UNL    H17   56  -0.005   0.265  -0.015
    1UNL    H18   57  -0.001   0.127   0.253
    1UNL    H19   58  -0.111   0.351   0.131
    1UNL    H20   59  -0.211   0.271   0.258
    1UNL    H21   60  -0.399   0.359   0.114
    1UNL    H22   61  -0.453   0.275  -0.033
    1UNL    H23   62  -0.468   0.175   0.256
    1UNL    H24   63  -0.595   0.189   0.141
    1UNL    H25   64  -0.293  -0.218  -0.022
    1UNL    H26   65  -0.492  -0.400  -0.033
    1UNL    H27   66  -0.738  -0.413  -0.003
    1UNL    H28   67  -0.852  -0.245   0.136
    1UNL    H29   68  -0.751  -0.026   0.167
    1UNL    H30   69  -0.174  -0.009  -0.166
    1UNL    H31   70  -0.179   0.175  -0.155
    1UNL    H32   71   0.011  -0.038  -0.031
   0.00000   0.00000   0.00000   0.00000   0.00000   0.00000   0.00000   0.00000   0.00000
Generated with MDTraj, t= 13.0
 71
    1UNL     C1    1  -0.119  -0.028  -0.492
    1UNL     O1    2  -0.088   0.003  -0.353
    1UNL     C2    3   0.039   0.042  -0.343
    1UNL     O2    4   0.125   0.043  -0.430
    1UNL     C3    5   0.081   0.089  -0.206
    1UNL     C4    6   0.205   0.143  -0.191
    1UNL     O3    7   0.269   0.197  -0.082
    1UNL     C5    8   0.191   0.177   0.042
    1UNL     O4    9   0.231   0.059   0.117
    1UNL     C6   10   0.343   0.001   0.068
    1UNL     O5   11   0.366  -0.138   0.100
    1UNL     C7   12   0.472  -0.195   0.020
    1UNL     C8   13   0.483  -0.344   0.057
    1UNL     O6   14   0.359  -0.407   0.039
    1UNL     C9   15   0.605  -0.111   0.048
    1UNL     O7   16   0.660  -0.132   0.179
    1UNL    C10   17   0.582   0.046   0.019
    1UNL     O8   18   0.554   0.076  -0.117
    1UNL    C11   19   0.466   0.094   0.104
    1UNL     O9   20   0.505   0.074   0.246
    1UNL    C12   21   0.039   0.180   0.019
    1UNL    C13   22  -0.052   0.168   0.152
    1UNL    C14   23  -0.163   0.279   0.130
    1UNL     N1   24  -0.273   0.216   0.053
    1UNL    C15   25  -0.420   0.250   0.085
    1UNL    C16   26  -0.489   0.145   0.173
    1UNL    C17   27  -0.463   0.012   0.106
    1UNL    C18   28  -0.346  -0.021   0.049
    1UNL     N2   29  -0.353  -0.146  -0.009
    1UNL    C19   30  -0.485  -0.190   0.016
    1UNL    C20   31  -0.547  -0.314  -0.017
    1UNL    C21   32  -0.672  -0.341   0.030
    1UNL    C22   33  -0.749  -0.238   0.095
    1UNL    C23   34  -0.690  -0.118   0.121
    1UNL    C24   35  -0.553  -0.092   0.090
    1UNL    C25   36  -0.224   0.066   0.046
    1UNL    C26   37  -0.154   0.058  -0.096
    1UNL    C27   38  -0.005   0.068  -0.076
    1UNL    O10   39  -0.133   0.048   0.152
    1UNL     H1   40  -0.222  -0.062  -0.497
    1UNL     H2   41  -0.058  -0.113  -0.517
    1UNL     H3   42  -0.079   0.058  -0.552
    1UNL     H4   43   0.268   0.161  -0.272
    1UNL     H5   44   0.212   0.273   0.089
    1UNL     H6   45   0.342   0.004  -0.048
    1UNL     H7   46   0.448  -0.187  -0.089
    1UNL     H8   47   0.570  -0.382  -0.001
    1UNL     H9   48   0.497  -0.344   0.169
    1UNL    H10   49   0.285  -0.339   0.054
    1UNL    H11   50   0.675  -0.142  -0.029
    1UNL    H12   51   0.633  -0.066   0.256
    1UNL    H13   52   0.682   0.098   0.036
    1UNL    H14   53   0.471   0.127  -0.117
    1UNL    H15   54   0.433   0.197   0.086
    1UNL    H16   55   0.429   0.016   0.286
    1UNL    H17   56   0.009   0.265  -0.035
    1UNL    H18   57   0.016   0.167   0.247
    1UNL    H19   58  -0.127   0.366   0.067
    1UNL    H20   59  -0.195   0.308   0.226
    1UNL    H21   60  -0.433   0.344   0.135
    1UNL    H22   61  -0.462   0.263  -0.021
    1UNL    H23   62  -0.438   0.145   0.266
    1UNL    H24   63  -0.590   0.165   0.198
    1UNL    H25   64  -0.279  -0.187  -0.062
    1UNL    H26   65  -0.502  -0.386  -0.073
    1UNL    H27   66  -0.698  -0.447   0.035
    1UNL    H28   67  -0.852  -0.268   0.121
    1UNL    H29   68  -0.753  -0.045   0.174
    1UNL    H30   69  -0.164  -0.037  -0.146
    1UNL    H31   70  -0.191   0.139  -0.163
    1UNL    H32   71   0.033  -0.027  -0.023
   0.00000   0.00000   0.00000   0.00000   0.00000   0.00000   0.00000   0.00000   0.00000
Generated with MDTraj, t= 14.0
 71
    1UNL     C1    1  -0.136  -0.026  -0.477
    1UNL     O1    2  -0.098   0.010  -0.345
    1UNL     C2    3   0.034   0.047  -0.341
    1UNL     O2    4   0.117   0.033  -0.429
    1UNL     C3    5   0.081   0.101  -0.211
    1UNL     C4    6   0.212   0.140  -0.198
    1UNL     O3    7   0.269   0.187  -0.084
    1UNL     C5    8   0.188   0.180   0.035
    1UNL     O4    9   0.211   0.060   0.116
    1UNL     C6   10   0.335  -0.003   0.079
    1UNL     O5   11   0.355  -0.140   0.104
    1UNL     C7   12   0.458  -0.195   0.029
    1UNL     C8   13   0.467  -0.347   0.039
    1UNL     O6   14   0.336  -0.400   0.053
    1UNL     C9   15   0.601  -0.119   0.052
    1UNL     O7   16   0.652  -0.142   0.184
    1UNL    C10   17   0.584   0.032   0.022
    1UNL     O8   18   0.560   0.070  -0.114
    1UNL    C11   19   0.465   0.081   0.105
    1UNL     O9   20   0.488   0.081   0.247
    1UNL    C12   21   0.040   0.194   0.019
    1UNL    C13   22  -0.057   0.186   0.146
    1UNL    C14   23  -0.166   0.289   0.135
    1UNL     N1   24  -0.273   0.229   0.053
    1UNL    C15   25  -0.418   0.248   0.083
    1UNL    C16   26  -0.484   0.138   0.170
    1UNL    C17   27  -0.454   0.004   0.112
    1UNL    C18   28  -0.336  -0.025   0.043
    1UNL     N2   29  -0.339  -0.144  -0.014
    1UNL    C19   30  -0.459  -0.206   0.026
    1UNL    C20   31  -0.524  -0.320  -0.031
    1UNL    C21   32  -0.657  -0.334   0.012
    1UNL    C22   33  -0.720  -0.245   0.098
    1UNL    C23   34  -0.660  -0.132   0.150
    1UNL    C24   35  -0.533  -0.111   0.107
    1UNL    C25   36  -0.224   0.081   0.029
    1UNL    C26   37  -0.147   0.070  -0.112
    1UNL    C27   38   0.001   0.086  -0.086
    1UNL    O10   39  -0.137   0.066   0.139
    1UNL     H1   40  -0.246  -0.026  -0.474
    1UNL     H2   41  -0.094  -0.122  -0.501
    1UNL     H3   42  -0.083   0.047  -0.543
    1UNL     H4   43   0.280   0.137  -0.289
    1UNL     H5   44   0.237   0.260   0.088
    1UNL     H6   45   0.325  -0.012  -0.036
    1UNL     H7   46   0.426  -0.178  -0.079
    1UNL     H8   47   0.500  -0.395  -0.055
    1UNL     H9   48   0.530  -0.369   0.127
    1UNL    H10   49   0.283  -0.333   0.096
    1UNL    H11   50   0.665  -0.156  -0.023
    1UNL    H12   51   0.612  -0.094   0.254
    1UNL    H13   52   0.680   0.080   0.062
    1UNL    H14   53   0.464   0.109  -0.117
    1UNL    H15   54   0.445   0.186   0.083
    1UNL    H16   55   0.416   0.022   0.285
    1UNL    H17   56   0.013   0.283  -0.028
    1UNL    H18   57  -0.013   0.187   0.252
    1UNL    H19   58  -0.130   0.379   0.072
    1UNL    H20   59  -0.204   0.311   0.229
    1UNL    H21   60  -0.421   0.344   0.127
    1UNL    H22   61  -0.480   0.252  -0.015
    1UNL    H23   62  -0.447   0.138   0.270
    1UNL    H24   63  -0.588   0.151   0.182
    1UNL    H25   64  -0.257  -0.183  -0.062
    1UNL    H26   65  -0.462  -0.388  -0.100
    1UNL    H27   66  -0.722  -0.413  -0.023
    1UNL    H28   67  -0.820  -0.268   0.125
    1UNL    H29   68  -0.720  -0.065   0.205
    1UNL    H30   69  -0.168  -0.013  -0.173
    1UNL    H31   70  -0.174   0.161  -0.171
    1UNL    H32   71   0.039  -0.009  -0.033
   0.00000   0.00000   0.00000   0.00000   0.00000   0.00000   0.00000   0.00000   0.00000
Generated with MDTraj, t= 15.0
 71
    1UNL     C1    1  -0.119  -0.032  -0.484
    1UNL     O1    2  -0.094   0.015  -0.355
    1UNL     C2    3   0.041   0.056  -0.345
    1UNL     O2    4   0.123   0.051  -0.437
    1UNL     C3    5   0.081   0.095  -0.210
    1UNL     C4    6   0.213   0.138  -0.199
    1UNL     O3    7   0.274   0.190  -0.089
    1UNL     C5    8   0.192   0.196   0.028
    1UNL     O4    9   0.208   0.066   0.105
    1UNL     C6   10   0.325   0.001   0.058
    1UNL     O5   11   0.334  -0.136   0.085
    1UNL     C7   12   0.445  -0.200   0.027
    1UNL     C8   13   0.459  -0.341   0.072
    1UNL     O6   14   0.334  -0.404   0.060
    1UNL     C9   15   0.583  -0.132   0.053
    1UNL     O7   16   0.634  -0.161   0.177
    1UNL    C10   17   0.568   0.025   0.032
    1UNL     O8   18   0.560   0.064  -0.106
    1UNL    C11   19   0.448   0.075   0.105
    1UNL     O9   20   0.466   0.066   0.244
    1UNL    C12   21   0.041   0.204   0.008
    1UNL    C13   22  -0.052   0.191   0.142
    1UNL    C14   23  -0.157   0.301   0.133
    1UNL     N1   24  -0.273   0.234   0.056
    1UNL    C15   25  -0.413   0.253   0.101
    1UNL    C16   26  -0.462   0.137   0.196
    1UNL    C17   27  -0.449   0.007   0.112
    1UNL    C18   28  -0.333  -0.012   0.039
    1UNL     N2   29  -0.337  -0.136  -0.018
    1UNL    C19   30  -0.454  -0.198   0.015
    1UNL    C20   31  -0.505  -0.326  -0.015
    1UNL    C21   32  -0.632  -0.357   0.032
    1UNL    C22   33  -0.707  -0.276   0.111
    1UNL    C23   34  -0.658  -0.153   0.133
    1UNL    C24   35  -0.535  -0.109   0.088
    1UNL    C25   36  -0.227   0.094   0.030
    1UNL    C26   37  -0.150   0.079  -0.102
    1UNL    C27   38  -0.003   0.093  -0.089
    1UNL    O10   39  -0.128   0.069   0.142
    1UNL     H1   40  -0.223  -0.070  -0.464
    1UNL     H2   41  -0.035  -0.093  -0.520
    1UNL     H3   42  -0.124   0.059  -0.549
    1UNL     H4   43   0.274   0.130  -0.292
    1UNL     H5   44   0.232   0.273   0.090
    1UNL     H6   45   0.315   0.002  -0.057
    1UNL     H7   46   0.422  -0.204  -0.085
    1UNL     H8   47   0.535  -0.402   0.023
    1UNL     H9   48   0.464  -0.351   0.181
    1UNL    H10   49   0.260  -0.344   0.096
    1UNL    H11   50   0.651  -0.164  -0.022
    1UNL    H12   51   0.592  -0.090   0.237
    1UNL    H13   52   0.664   0.054   0.079
    1UNL    H14   53   0.478   0.114  -0.122
    1UNL    H15   54   0.443   0.183   0.089
    1UNL    H16   55   0.382   0.050   0.284
    1UNL    H17   56   0.019   0.294  -0.036
    1UNL    H18   57   0.012   0.197   0.233
    1UNL    H19   58  -0.114   0.385   0.069
    1UNL    H20   59  -0.191   0.331   0.227
    1UNL    H21   60  -0.425   0.341   0.161
    1UNL    H22   61  -0.479   0.262   0.006
    1UNL    H23   62  -0.409   0.129   0.288
    1UNL    H24   63  -0.563   0.139   0.227
    1UNL    H25   64  -0.257  -0.188  -0.058
    1UNL    H26   65  -0.444  -0.400  -0.060
    1UNL    H27   66  -0.665  -0.456   0.001
    1UNL    H28   67  -0.807  -0.299   0.151
    1UNL    H29   68  -0.717  -0.085   0.194
    1UNL    H30   69  -0.169  -0.011  -0.151
    1UNL    H31   70  -0.185   0.150  -0.183
    1UNL    H32   71   0.028  -0.002  -0.032
   0.00000   0.00000   0.00000   0.00000   0.00000   0.00000   0.00000   0.00000   0.00000
Generated with MDTraj, t= 16.0
 71
    1UNL     C1    1  -0.109  -0.037  -0.498
    1UNL     O1    2  -0.074  -0.011  -0.361
    1UNL     C2    3   0.044   0.066  -0.353
    1UNL     O2    4   0.122   0.082  -0.447
    1UNL     C3    5   0.080   0.127  -0.219
    1UNL     C4    6   0.208   0.175  -0.199
    1UNL     O3    7   0.258   0.214  -0.081
    1UNL     C5    8   0.188   0.182   0.033
    1UNL     O4    9   0.204   0.051   0.091
    1UNL     C6   10   0.322  -0.011   0.053
    1UNL     O5   11   0.339  -0.144   0.101
    1UNL     C7   12   0.446  -0.208   0.032
    1UNL     C8   13   0.450  -0.351   0.072
    1UNL     O6   14   0.314  -0.398   0.063
    1UNL     C9   15   0.587  -0.142   0.062
    1UNL     O7   16   0.630  -0.173   0.195
    1UNL    C10   17   0.571   0.018   0.032
    1UNL     O8   18   0.549   0.031  -0.113
    1UNL    C11   19   0.443   0.073   0.108
    1UNL     O9   20   0.470   0.061   0.247
    1UNL    C12   21   0.040   0.206   0.005
    1UNL    C13   22  -0.056   0.192   0.134
    1UNL    C14   23  -0.164   0.307   0.128
    1UNL     N1   24  -0.280   0.238   0.062
    1UNL    C15   25  -0.419   0.258   0.109
    1UNL    C16   26  -0.489   0.138   0.172
    1UNL    C17   27  -0.446   0.007   0.107
    1UNL    C18   28  -0.337  -0.007   0.028
    1UNL     N2   29  -0.326  -0.141  -0.013
    1UNL    C19   30  -0.443  -0.209   0.018
    1UNL    C20   31  -0.496  -0.334  -0.009
    1UNL    C21   32  -0.611  -0.367   0.049
    1UNL    C22   33  -0.687  -0.275   0.129
    1UNL    C23   34  -0.638  -0.153   0.164
    1UNL    C24   35  -0.514  -0.121   0.102
    1UNL    C25   36  -0.227   0.102   0.026
    1UNL    C26   37  -0.163   0.110  -0.109
    1UNL    C27   38  -0.012   0.109  -0.102
    1UNL    O10   39  -0.124   0.064   0.124
    1UNL     H1   40  -0.219  -0.049  -0.486
    1UNL     H2   41  -0.039  -0.110  -0.541
    1UNL     H3   42  -0.095   0.059  -0.556
    1UNL     H4   43   0.274   0.189  -0.275
    1UNL     H5   44   0.214   0.263   0.105
    1UNL     H6   45   0.312  -0.014  -0.063
    1UNL     H7   46   0.417  -0.201  -0.077
    1UNL     H8   47   0.508  -0.414   0.003
    1UNL     H9   48   0.475  -0.374   0.174
    1UNL    H10   49   0.255  -0.338   0.109
    1UNL    H11   50   0.660  -0.172  -0.010
    1UNL    H12   51   0.567  -0.119   0.259
    1UNL    H13   52   0.659   0.070   0.069
    1UNL    H14   53   0.566   0.130  -0.131
    1UNL    H15   54   0.433   0.180   0.084
    1UNL    H16   55   0.386   0.062   0.286
    1UNL    H17   56   0.031   0.302  -0.030
    1UNL    H18   57   0.016   0.197   0.217
    1UNL    H19   58  -0.126   0.397   0.074
    1UNL    H20   59  -0.201   0.326   0.227
    1UNL    H21   60  -0.428   0.346   0.169
    1UNL    H22   61  -0.485   0.268   0.013
    1UNL    H23   62  -0.460   0.121   0.272
    1UNL    H24   63  -0.595   0.145   0.187
    1UNL    H25   64  -0.252  -0.185  -0.073
    1UNL    H26   65  -0.446  -0.407  -0.065
    1UNL    H27   66  -0.649  -0.466   0.046
    1UNL    H28   67  -0.789  -0.307   0.139
    1UNL    H29   68  -0.693  -0.084   0.230
    1UNL    H30   69  -0.212   0.036  -0.165
    1UNL    H31   70  -0.189   0.201  -0.168
    1UNL    H32   71   0.005   0.004  -0.061
   0.00000   0.00000   0.00000   0.00000   0.00000   0.00000   0.00000   0.00000   0.00000
Generated with MDTraj, t= 17.0
 71
    1UNL     C1    1  -0.079  -0.049  -0.489
    1UNL     O1    2  -0.079   0.019  -0.362
    1UNL     C2    3   0.034   0.090  -0.347
    1UNL     O2    4   0.107   0.128  -0.436
    1UNL     C3    5   0.088   0.123  -0.212
    1UNL     C4    6   0.212   0.170  -0.192
    1UNL     O3    7   0.269   0.210  -0.077
    1UNL     C5    8   0.187   0.190   0.048
    1UNL     O4    9   0.216   0.066   0.110
    1UNL     C6   10   0.316  -0.010   0.044
    1UNL     O5   11   0.328  -0.143   0.094
    1UNL     C7   12   0.440  -0.212   0.032
    1UNL     C8   13   0.440  -0.362   0.077
    1UNL     O6   14   0.307  -0.415   0.056
    1UNL     C9   15   0.576  -0.147   0.069
    1UNL     O7   16   0.586  -0.165   0.210
    1UNL    C10   17   0.576   0.001   0.024
    1UNL     O8   18   0.599   0.025  -0.120
    1UNL    C11   19   0.444   0.067   0.078
    1UNL     O9   20   0.454   0.070   0.216
    1UNL    C12   21   0.036   0.200   0.014
    1UNL    C13   22  -0.065   0.186   0.137
    1UNL    C14   23  -0.167   0.298   0.131
    1UNL     N1   24  -0.283   0.237   0.051
    1UNL    C15   25  -0.420   0.259   0.077
    1UNL    C16   26  -0.472   0.151   0.169
    1UNL    C17   27  -0.454   0.011   0.105
    1UNL    C18   28  -0.340  -0.002   0.023
    1UNL     N2   29  -0.340  -0.132  -0.039
    1UNL    C19   30  -0.443  -0.198   0.025
    1UNL    C20   31  -0.480  -0.333   0.013
    1UNL    C21   32  -0.586  -0.385   0.075
    1UNL    C22   33  -0.664  -0.299   0.153
    1UNL    C23   34  -0.644  -0.163   0.168
    1UNL    C24   35  -0.528  -0.112   0.096
    1UNL    C25   36  -0.232   0.098   0.024
    1UNL    C26   37  -0.151   0.101  -0.116
    1UNL    C27   38  -0.004   0.098  -0.096
    1UNL    O10   39  -0.130   0.060   0.121
    1UNL     H1   40  -0.173  -0.100  -0.484
    1UNL     H2   41   0.012  -0.111  -0.492
    1UNL     H3   42  -0.093   0.027  -0.570
    1UNL     H4   43   0.281   0.193  -0.275
    1UNL     H5   44   0.211   0.278   0.114
    1UNL     H6   45   0.276  -0.018  -0.063
    1UNL     H7   46   0.427  -0.198  -0.076
    1UNL     H8   47   0.503  -0.434   0.022
    1UNL     H9   48   0.466  -0.360   0.182
    1UNL    H10   49   0.242  -0.341   0.078
    1UNL    H11   50   0.662  -0.199   0.023
    1UNL    H12   51   0.545  -0.099   0.260
    1UNL    H13   52   0.666   0.035   0.070
    1UNL    H14   53   0.509   0.024  -0.159
    1UNL    H15   54   0.452   0.165   0.027
    1UNL    H16   55   0.358   0.085   0.243
    1UNL    H17   56   0.015   0.289  -0.031
    1UNL    H18   57  -0.014   0.188   0.232
    1UNL    H19   58  -0.127   0.381   0.075
    1UNL    H20   59  -0.200   0.333   0.231
    1UNL    H21   60  -0.446   0.356   0.114
    1UNL    H22   61  -0.472   0.236  -0.023
    1UNL    H23   62  -0.434   0.150   0.267
    1UNL    H24   63  -0.577   0.156   0.184
    1UNL    H25   64  -0.257  -0.185  -0.075
    1UNL    H26   65  -0.412  -0.403  -0.046
    1UNL    H27   66  -0.620  -0.489   0.061
    1UNL    H28   67  -0.745  -0.347   0.206
    1UNL    H29   68  -0.712  -0.094   0.211
    1UNL    H30   69  -0.183   0.032  -0.189
    1UNL    H31   70  -0.179   0.193  -0.171
    1UNL    H32   71   0.011  -0.005  -0.049
   0.00000   0.00000   0.00000   0.00000   0.00000   0.00000   0.00000   0.00000   0.00000
Generated with MDTraj, t= 18.0
 71
    1UNL     C1    1  -0.091  -0.002  -0.494
    1UNL     O1    2  -0.044  -0.003  -0.356
    1UNL     C2    3   0.058   0.088  -0.349
    1UNL     O2    4   0.118   0.137  -0.443
    1UNL     C3    5   0.094   0.118  -0.212
    1UNL     C4    6   0.205   0.195  -0.187
    1UNL     O3    7   0.257   0.239  -0.069
    1UNL     C5    8   0.183   0.197   0.051
    1UNL     O4    9   0.205   0.061   0.084
    1UNL     C6   10   0.324  -0.005   0.040
    1UNL     O5   11   0.337  -0.143   0.089
    1UNL     C7   12   0.440  -0.222   0.033
    1UNL     C8   13   0.416  -0.371   0.075
    1UNL     O6   14   0.287  -0.407   0.041
    1UNL     C9   15   0.572  -0.163   0.082
    1UNL     O7   16   0.582  -0.165   0.222
    1UNL    C10   17   0.582  -0.015   0.031
    1UNL     O8   18   0.588   0.006  -0.112
    1UNL    C11   19   0.451   0.064   0.073
    1UNL     O9   20   0.460   0.095   0.204
    1UNL    C12   21   0.037   0.210   0.014
    1UNL    C13   22  -0.059   0.188   0.134
    1UNL    C14   23  -0.175   0.285   0.130
    1UNL     N1   24  -0.280   0.224   0.043
    1UNL    C15   25  -0.421   0.252   0.082
    1UNL    C16   26  -0.499   0.135   0.156
    1UNL    C17   27  -0.455   0.012   0.084
    1UNL    C18   28  -0.335  -0.010   0.016
    1UNL     N2   29  -0.331  -0.141  -0.017
    1UNL    C19   30  -0.440  -0.212   0.032
    1UNL    C20   31  -0.480  -0.346   0.024
    1UNL    C21   32  -0.589  -0.381   0.099
    1UNL    C22   33  -0.665  -0.287   0.175
    1UNL    C23   34  -0.629  -0.158   0.174
    1UNL    C24   35  -0.521  -0.119   0.096
    1UNL    C25   36  -0.227   0.090   0.014
    1UNL    C26   37  -0.149   0.104  -0.127
    1UNL    C27   38  -0.004   0.103  -0.093
    1UNL    O10   39  -0.134   0.061   0.117
    1UNL     H1   40  -0.182  -0.055  -0.500
    1UNL     H2   41  -0.009  -0.057  -0.546
    1UNL     H3   42  -0.122   0.102  -0.513
    1UNL     H4   43   0.278   0.229  -0.269
    1UNL     H5   44   0.216   0.270   0.132
    1UNL     H6   45   0.307  -0.013  -0.071
    1UNL     H7   46   0.448  -0.215  -0.075
    1UNL     H8   47   0.490  -0.423   0.007
    1UNL     H9   48   0.433  -0.395   0.181
    1UNL    H10   49   0.233  -0.329   0.055
    1UNL    H11   50   0.653  -0.228   0.041
    1UNL    H12   51   0.501  -0.114   0.263
    1UNL    H13   52   0.668   0.026   0.080
    1UNL    H14   53   0.506  -0.015  -0.156
    1UNL    H15   54   0.463   0.164   0.024
    1UNL    H16   55   0.363   0.113   0.231
    1UNL    H17   56   0.022   0.302  -0.033
    1UNL    H18   57  -0.015   0.178   0.230
    1UNL    H19   58  -0.155   0.380   0.093
    1UNL    H20   59  -0.219   0.300   0.233
    1UNL    H21   60  -0.417   0.344   0.141
    1UNL    H22   61  -0.483   0.274  -0.010
    1UNL    H23   62  -0.483   0.122   0.260
    1UNL    H24   63  -0.606   0.147   0.162
    1UNL    H25   64  -0.273  -0.201  -0.082
    1UNL    H26   65  -0.426  -0.416  -0.029
    1UNL    H27   66  -0.606  -0.485   0.117
    1UNL    H28   67  -0.760  -0.308   0.226
    1UNL    H29   68  -0.690  -0.083   0.229
    1UNL    H30   69  -0.173   0.033  -0.205
    1UNL    H31   70  -0.168   0.192  -0.187
    1UNL    H32   71   0.018   0.009  -0.033
   0.00000   0.00000   0.00000   0.00000   0.00000   0.00000   0.00000   0.00000   0.00000
Generated with MDTraj, t= 19.0
 71
    1UNL     C1    1  -0.081  -0.004  -0.515
    1UNL     O1    2  -0.070   0.045  -0.379
    1UNL     C2    3   0.051   0.102  -0.354
    1UNL     O2    4   0.134   0.127  -0.440
    1UNL     C3    5   0.086   0.132  -0.218
    1UNL     C4    6   0.215   0.185  -0.194
    1UNL     O3    7   0.262   0.227  -0.069
    1UNL     C5    8   0.182   0.197   0.047
    1UNL     O4    9   0.220   0.073   0.114
    1UNL     C6   10   0.319   0.001   0.043
    1UNL     O5   11   0.315  -0.144   0.077
    1UNL     C7   12   0.424  -0.218   0.023
    1UNL     C8   13   0.403  -0.364   0.068
    1UNL     O6   14   0.273  -0.403   0.043
    1UNL     C9   15   0.560  -0.155   0.078
    1UNL     O7   16   0.575  -0.178   0.220
    1UNL    C10   17   0.578  -0.006   0.029
    1UNL     O8   18   0.593   0.010  -0.112
    1UNL    C11   19   0.456   0.072   0.074
    1UNL     O9   20   0.462   0.086   0.219
    1UNL    C12   21   0.034   0.206   0.011
    1UNL    C13   22  -0.059   0.186   0.140
    1UNL    C14   23  -0.183   0.285   0.132
    1UNL     N1   24  -0.275   0.222   0.036
    1UNL    C15   25  -0.420   0.250   0.060
    1UNL    C16   26  -0.480   0.141   0.143
    1UNL    C17   27  -0.450   0.006   0.091
    1UNL    C18   28  -0.332  -0.020   0.033
    1UNL     N2   29  -0.322  -0.152  -0.006
    1UNL    C19   30  -0.434  -0.213   0.051
    1UNL    C20   31  -0.466  -0.348   0.046
    1UNL    C21   32  -0.589  -0.382   0.105
    1UNL    C22   33  -0.676  -0.295   0.165
    1UNL    C23   34  -0.639  -0.160   0.168
    1UNL    C24   35  -0.523  -0.113   0.108
    1UNL    C25   36  -0.217   0.082   0.016
    1UNL    C26   37  -0.144   0.076  -0.124
    1UNL    C27   38   0.004   0.099  -0.099
    1UNL    O10   39  -0.125   0.058   0.124
    1UNL     H1   40  -0.134  -0.093  -0.507
    1UNL     H2   41   0.023  -0.039  -0.545
    1UNL     H3   42  -0.133   0.073  -0.568
    1UNL     H4   43   0.278   0.212  -0.275
    1UNL     H5   44   0.207   0.277   0.122
    1UNL     H6   45   0.298   0.010  -0.068
    1UNL     H7   46   0.422  -0.214  -0.084
    1UNL     H8   47   0.473  -0.444   0.030
    1UNL     H9   48   0.415  -0.346   0.176
    1UNL    H10   49   0.207  -0.330   0.070
    1UNL    H11   50   0.641  -0.216   0.028
    1UNL    H12   51   0.529  -0.097   0.264
    1UNL    H13   52   0.665   0.033   0.079
    1UNL    H14   53   0.519  -0.012  -0.168
    1UNL    H15   54   0.457   0.180   0.045
    1UNL    H16   55   0.371   0.107   0.240
    1UNL    H17   56   0.020   0.304  -0.034
    1UNL    H18   57  -0.006   0.194   0.231
    1UNL    H19   58  -0.156   0.384   0.115
    1UNL    H20   59  -0.236   0.291   0.233
    1UNL    H21   60  -0.430   0.346   0.115
    1UNL    H22   61  -0.469   0.265  -0.039
    1UNL    H23   62  -0.451   0.152   0.244
    1UNL    H24   63  -0.585   0.153   0.159
    1UNL    H25   64  -0.223  -0.186   0.010
    1UNL    H26   65  -0.387  -0.410   0.001
    1UNL    H27   66  -0.608  -0.488   0.114
    1UNL    H28   67  -0.772  -0.325   0.196
    1UNL    H29   68  -0.701  -0.084   0.204
    1UNL    H30   69  -0.161  -0.007  -0.195
    1UNL    H31   70  -0.177   0.148  -0.193
    1UNL    H32   71   0.045   0.002  -0.061
   0.00000   0.00000   0.00000   0.00000   0.00000   0.00000   0.00000   0.00000   0.00000
Generated with MDTraj, t= 20.0
 71
    1UNL     C1    1  -0.103   0.025  -0.512
    1UNL     O1    2  -0.066   0.041  -0.373
    1UNL     C2    3   0.057   0.096  -0.355
    1UNL     O2    4   0.137   0.109  -0.448
    1UNL     C3    5   0.095   0.136  -0.216
    1UNL     C4    6   0.219   0.185  -0.198
    1UNL     O3    7   0.276   0.215  -0.076
    1UNL     C5    8   0.193   0.209   0.039
    1UNL     O4    9   0.212   0.088   0.119
    1UNL     C6   10   0.310   0.003   0.058
    1UNL     O5   11   0.313  -0.132   0.096
    1UNL     C7   12   0.412  -0.209   0.025
    1UNL     C8   13   0.392  -0.355   0.049
    1UNL     O6   14   0.257  -0.385   0.048
    1UNL     C9   15   0.556  -0.158   0.064
    1UNL     O7   16   0.593  -0.181   0.204
    1UNL    C10   17   0.569  -0.007   0.027
    1UNL     O8   18   0.585   0.017  -0.112
    1UNL    C11   19   0.449   0.068   0.089
    1UNL     O9   20   0.461   0.064   0.234
    1UNL    C12   21   0.042   0.222   0.005
    1UNL    C13   22  -0.058   0.200   0.133
    1UNL    C14   23  -0.181   0.290   0.122
    1UNL     N1   24  -0.270   0.218   0.034
    1UNL    C15   25  -0.418   0.244   0.045
    1UNL    C16   26  -0.486   0.133   0.127
    1UNL    C17   27  -0.447  -0.003   0.095
    1UNL    C18   28  -0.321  -0.033   0.040
    1UNL     N2   29  -0.312  -0.165   0.021
    1UNL    C19   30  -0.435  -0.225   0.063
    1UNL    C20   31  -0.471  -0.365   0.062
    1UNL    C21   32  -0.599  -0.395   0.102
    1UNL    C22   33  -0.683  -0.287   0.150
    1UNL    C23   34  -0.643  -0.153   0.163
    1UNL    C24   35  -0.522  -0.123   0.102
    1UNL    C25   36  -0.210   0.070   0.015
    1UNL    C26   37  -0.139   0.080  -0.115
    1UNL    C27   38   0.011   0.106  -0.099
    1UNL    O10   39  -0.106   0.066   0.126
    1UNL     H1   40  -0.210   0.027  -0.504
    1UNL     H2   41  -0.078  -0.080  -0.547
    1UNL     H3   42  -0.048   0.106  -0.558
    1UNL     H4   43   0.273   0.192  -0.285
    1UNL     H5   44   0.223   0.291   0.106
    1UNL     H6   45   0.309   0.006  -0.053
    1UNL     H7   46   0.378  -0.188  -0.075
    1UNL     H8   47   0.440  -0.416  -0.031
    1UNL     H9   48   0.429  -0.389   0.145
    1UNL    H10   49   0.203  -0.322   0.096
    1UNL    H11   50   0.634  -0.214   0.004
    1UNL    H12   51   0.544  -0.120   0.252
    1UNL    H13   52   0.664   0.035   0.063
    1UNL    H14   53   0.508   0.071  -0.139
    1UNL    H15   54   0.448   0.174   0.061
    1UNL    H16   55   0.364   0.037   0.261
    1UNL    H17   56   0.027   0.323  -0.042
    1UNL    H18   57  -0.007   0.209   0.224
    1UNL    H19   58  -0.154   0.390   0.097
    1UNL    H20   59  -0.233   0.301   0.221
    1UNL    H21   60  -0.429   0.342   0.097
    1UNL    H22   61  -0.463   0.254  -0.055
    1UNL    H23   62  -0.461   0.148   0.229
    1UNL    H24   63  -0.590   0.152   0.138
    1UNL    H25   64  -0.242  -0.201  -0.049
    1UNL    H26   65  -0.393  -0.444   0.060
    1UNL    H27   66  -0.632  -0.499   0.104
    1UNL    H28   67  -0.784  -0.311   0.188
    1UNL    H29   68  -0.716  -0.081   0.204
    1UNL    H30   69  -0.156  -0.008  -0.179
    1UNL    H31   70  -0.181   0.147  -0.183
    1UNL    H32   71   0.046   0.011  -0.049
   0.00000   0.00000   0.00000   0.00000   0.00000   0.00000   0.00000   0.00000   0.00000
Generated with MDTraj, t= 21.0
 71
    1UNL     C1    1  -0.119   0.036  -0.501
    1UNL     O1    2  -0.084   0.055  -0.365
    1UNL     C2    3   0.050   0.080  -0.346
    1UNL     O2    4   0.132   0.101  -0.437
    1UNL     C3    5   0.101   0.099  -0.205
    1UNL     C4    6   0.210   0.175  -0.192
    1UNL     O3    7   0.265   0.221  -0.079
    1UNL     C5    8   0.189   0.207   0.039
    1UNL     O4    9   0.216   0.092   0.123
    1UNL     C6   10   0.326   0.019   0.068
    1UNL     O5   11   0.314  -0.119   0.086
    1UNL     C7   12   0.412  -0.205   0.022
    1UNL     C8   13   0.383  -0.345   0.061
    1UNL     O6   14   0.247  -0.379   0.045
    1UNL     C9   15   0.551  -0.160   0.048
    1UNL     O7   16   0.587  -0.196   0.178
    1UNL    C10   17   0.566  -0.010   0.028
    1UNL     O8   18   0.543   0.029  -0.105
    1UNL    C11   19   0.461   0.068   0.109
    1UNL     O9   20   0.490   0.056   0.252
    1UNL    C12   21   0.038   0.206   0.004
    1UNL    C13   22  -0.059   0.197   0.125
    1UNL    C14   23  -0.173   0.296   0.102
    1UNL     N1   24  -0.270   0.218   0.019
    1UNL    C15   25  -0.414   0.250   0.033
    1UNL    C16   26  -0.484   0.143   0.124
    1UNL    C17   27  -0.446   0.003   0.087
    1UNL    C18   28  -0.323  -0.022   0.033
    1UNL     N2   29  -0.301  -0.163   0.018
    1UNL    C19   30  -0.418  -0.223   0.059
    1UNL    C20   31  -0.457  -0.359   0.066
    1UNL    C21   32  -0.588  -0.392   0.097
    1UNL    C22   33  -0.676  -0.290   0.144
    1UNL    C23   34  -0.633  -0.158   0.145
    1UNL    C24   35  -0.508  -0.121   0.096
    1UNL    C25   36  -0.211   0.073   0.024
    1UNL    C26   37  -0.138   0.060  -0.106
    1UNL    C27   38   0.014   0.077  -0.085
    1UNL    O10   39  -0.116   0.068   0.139
    1UNL     H1   40  -0.225   0.005  -0.498
    1UNL     H2   41  -0.055  -0.048  -0.541
    1UNL     H3   42  -0.079   0.133  -0.539
    1UNL     H4   43   0.264   0.199  -0.290
    1UNL     H5   44   0.217   0.291   0.102
    1UNL     H6   45   0.319   0.017  -0.042
    1UNL     H7   46   0.388  -0.186  -0.084
    1UNL     H8   47   0.453  -0.418   0.013
    1UNL     H9   48   0.397  -0.364   0.166
    1UNL    H10   49   0.187  -0.297   0.062
    1UNL    H11   50   0.627  -0.218  -0.012
    1UNL    H12   51   0.568  -0.117   0.242
    1UNL    H13   52   0.673   0.023   0.044
    1UNL    H14   53   0.553   0.130  -0.100
    1UNL    H15   54   0.465   0.176   0.093
    1UNL    H16   55   0.408   0.034   0.300
    1UNL    H17   56   0.011   0.298  -0.063
    1UNL    H18   57  -0.004   0.203   0.215
    1UNL    H19   58  -0.145   0.390   0.052
    1UNL    H20   59  -0.222   0.329   0.194
    1UNL    H21   60  -0.417   0.349   0.091
    1UNL    H22   61  -0.452   0.264  -0.068
    1UNL    H23   62  -0.473   0.170   0.225
    1UNL    H24   63  -0.589   0.152   0.113
    1UNL    H25   64  -0.223  -0.218  -0.026
    1UNL    H26   65  -0.384  -0.428   0.045
    1UNL    H27   66  -0.623  -0.492   0.103
    1UNL    H28   67  -0.779  -0.307   0.156
    1UNL    H29   68  -0.708  -0.090   0.180
    1UNL    H30   69  -0.158  -0.034  -0.160
    1UNL    H31   70  -0.185   0.120  -0.178
    1UNL    H32   71   0.037  -0.013  -0.022
   0.00000   0.00000   0.00000   0.00000   0.00000   0.00000   0.00000   0.00000   0.00000
Generated with MDTraj, t= 22.0
 71
    1UNL     C1    1  -0.123   0.025  -0.482
    1UNL     O1    2  -0.076   0.049  -0.354
    1UNL     C2    3   0.060   0.081  -0.342
    1UNL     O2    4   0.144   0.088  -0.434
    1UNL     C3    5   0.097   0.113  -0.210
    1UNL     C4    6   0.222   0.166  -0.194
    1UNL     O3    7   0.277   0.214  -0.081
    1UNL     C5    8   0.192   0.208   0.041
    1UNL     O4    9   0.222   0.098   0.130
    1UNL     C6   10   0.322   0.012   0.075
    1UNL     O5   11   0.315  -0.126   0.115
    1UNL     C7   12   0.400  -0.202   0.028
    1UNL     C8   13   0.376  -0.348   0.043
    1UNL     O6   14   0.238  -0.377   0.045
    1UNL     C9   15   0.555  -0.158   0.036
    1UNL     O7   16   0.596  -0.206   0.167
    1UNL    C10   17   0.566  -0.003   0.022
    1UNL     O8   18   0.556   0.027  -0.123
    1UNL    C11   19   0.459   0.068   0.107
    1UNL     O9   20   0.498   0.063   0.252
    1UNL    C12   21   0.039   0.212   0.005
    1UNL    C13   22  -0.058   0.214   0.129
    1UNL    C14   23  -0.179   0.306   0.105
    1UNL     N1   24  -0.277   0.218   0.035
    1UNL    C15   25  -0.427   0.237   0.022
    1UNL    C16   26  -0.496   0.133   0.113
    1UNL    C17   27  -0.448   0.000   0.084
    1UNL    C18   28  -0.323  -0.028   0.042
    1UNL     N2   29  -0.305  -0.166   0.021
    1UNL    C19   30  -0.425  -0.222   0.057
    1UNL    C20   31  -0.458  -0.359   0.053
    1UNL    C21   32  -0.582  -0.390   0.103
    1UNL    C22   33  -0.679  -0.297   0.142
    1UNL    C23   34  -0.643  -0.164   0.140
    1UNL    C24   35  -0.516  -0.121   0.093
    1UNL    C25   36  -0.211   0.081   0.036
    1UNL    C26   37  -0.137   0.081  -0.106
    1UNL    C27   38   0.016   0.093  -0.088
    1UNL    O10   39  -0.113   0.084   0.131
    1UNL     H1   40  -0.188  -0.064  -0.459
    1UNL     H2   41  -0.034  -0.001  -0.548
    1UNL     H3   42  -0.171   0.119  -0.514
    1UNL     H4   43   0.294   0.193  -0.276
    1UNL     H5   44   0.218   0.296   0.096
    1UNL     H6   45   0.299  -0.003  -0.031
    1UNL     H7   46   0.366  -0.175  -0.076
    1UNL     H8   47   0.415  -0.410  -0.041
    1UNL     H9   48   0.439  -0.377   0.125
    1UNL    H10   49   0.203  -0.308   0.100
    1UNL    H11   50   0.623  -0.215  -0.032
    1UNL    H12   51   0.566  -0.132   0.232
    1UNL    H13   52   0.674   0.030   0.038
    1UNL    H14   53   0.496   0.109  -0.130
    1UNL    H15   54   0.453   0.174   0.082
    1UNL    H16   55   0.436   0.011   0.298
    1UNL    H17   56   0.016   0.311  -0.057
    1UNL    H18   57  -0.007   0.230   0.221
    1UNL    H19   58  -0.171   0.399   0.040
    1UNL    H20   59  -0.227   0.338   0.194
    1UNL    H21   60  -0.456   0.346   0.045
    1UNL    H22   61  -0.454   0.209  -0.079
    1UNL    H23   62  -0.480   0.152   0.215
    1UNL    H24   63  -0.600   0.148   0.103
    1UNL    H25   64  -0.220  -0.226   0.004
    1UNL    H26   65  -0.379  -0.434   0.017
    1UNL    H27   66  -0.612  -0.496   0.098
    1UNL    H28   67  -0.780  -0.341   0.161
    1UNL    H29   68  -0.715  -0.089   0.157
    1UNL    H30   69  -0.183   0.011  -0.177
    1UNL    H31   70  -0.162   0.170  -0.159
    1UNL    H32   71   0.051   0.002  -0.034
   0.00000   0.00000   0.00000   0.00000   0.00000   0.00000   0.00000   0.00000   0.00000
Generated with MDTraj, t= 23.0
 71
    1UNL     C1    1  -0.092  -0.006  -0.498
    1UNL     O1    2  -0.065   0.014  -0.360
    1UNL     C2    3   0.061   0.077  -0.338
    1UNL     O2    4   0.144   0.102  -0.427
    1UNL     C3    5   0.096   0.121  -0.205
    1UNL     C4    6   0.212   0.193  -0.191
    1UNL     O3    7   0.272   0.219  -0.074
    1UNL     C5    8   0.188   0.202   0.050
    1UNL     O4    9   0.220   0.098   0.134
    1UNL     C6   10   0.313   0.013   0.069
    1UNL     O5   11   0.308  -0.130   0.108
    1UNL     C7   12   0.396  -0.206   0.021
    1UNL     C8   13   0.375  -0.353   0.055
    1UNL     O6   14   0.240  -0.376   0.056
    1UNL     C9   15   0.544  -0.156   0.031
    1UNL     O7   16   0.594  -0.182   0.161
    1UNL    C10   17   0.553  -0.008   0.008
    1UNL     O8   18   0.547   0.029  -0.136
    1UNL    C11   19   0.449   0.066   0.095
    1UNL     O9   20   0.481   0.045   0.236
    1UNL    C12   21   0.040   0.205   0.017
    1UNL    C13   22  -0.056   0.206   0.141
    1UNL    C14   23  -0.175   0.299   0.118
    1UNL     N1   24  -0.264   0.223   0.029
    1UNL    C15   25  -0.419   0.249   0.051
    1UNL    C16   26  -0.495   0.139   0.121
    1UNL    C17   27  -0.449   0.009   0.077
    1UNL    C18   28  -0.319  -0.022   0.039
    1UNL     N2   29  -0.290  -0.156   0.034
    1UNL    C19   30  -0.410  -0.217   0.068
    1UNL    C20   31  -0.449  -0.353   0.057
    1UNL    C21   32  -0.575  -0.390   0.085
    1UNL    C22   33  -0.671  -0.296   0.126
    1UNL    C23   34  -0.646  -0.160   0.131
    1UNL    C24   35  -0.514  -0.115   0.092
    1UNL    C25   36  -0.222   0.086   0.028
    1UNL    C26   37  -0.137   0.074  -0.110
    1UNL    C27   38   0.013   0.092  -0.083
    1UNL    O10   39  -0.126   0.079   0.143
    1UNL     H1   40  -0.200  -0.021  -0.510
    1UNL     H2   41  -0.031  -0.100  -0.509
    1UNL     H3   42  -0.047   0.072  -0.562
    1UNL     H4   43   0.275   0.215  -0.268
    1UNL     H5   44   0.218   0.291   0.103
    1UNL     H6   45   0.291   0.013  -0.039
    1UNL     H7   46   0.368  -0.199  -0.090
    1UNL     H8   47   0.433  -0.414  -0.018
    1UNL     H9   48   0.417  -0.384   0.149
    1UNL    H10   49   0.203  -0.296   0.109
    1UNL    H11   50   0.615  -0.215  -0.028
    1UNL    H12   51   0.533  -0.148   0.221
    1UNL    H13   52   0.654   0.031   0.047
    1UNL    H14   53   0.491   0.107  -0.136
    1UNL    H15   54   0.455   0.175   0.080
    1UNL    H16   55   0.393   0.024   0.267
    1UNL    H17   56   0.025   0.306  -0.046
    1UNL    H18   57  -0.000   0.222   0.233
    1UNL    H19   58  -0.148   0.389   0.054
    1UNL    H20   59  -0.231   0.332   0.201
    1UNL    H21   60  -0.433   0.348   0.110
    1UNL    H22   61  -0.458   0.256  -0.048
    1UNL    H23   62  -0.489   0.157   0.225
    1UNL    H24   63  -0.600   0.135   0.106
    1UNL    H25   64  -0.206  -0.202  -0.003
    1UNL    H26   65  -0.373  -0.420   0.030
    1UNL    H27   66  -0.588  -0.496   0.083
    1UNL    H28   67  -0.766  -0.328   0.157
    1UNL    H29   68  -0.731  -0.097   0.168
    1UNL    H30   69  -0.149  -0.025  -0.156
    1UNL    H31   70  -0.169   0.134  -0.195
    1UNL    H32   71   0.055  -0.004  -0.045
   0.00000   0.00000   0.00000   0.00000   0.00000   0.00000   0.00000   0.00000   0.00000
Generated with MDTraj, t= 24.0
 71
    1UNL     C1    1  -0.056  -0.048  -0.479
    1UNL     O1    2  -0.039  -0.001  -0.349
    1UNL     C2    3   0.065   0.082  -0.336
    1UNL     O2    4   0.143   0.115  -0.424
    1UNL     C3    5   0.097   0.133  -0.200
    1UNL     C4    6   0.216   0.188  -0.181
    1UNL     O3    7   0.279   0.232  -0.071
    1UNL     C5    8   0.191   0.222   0.049
    1UNL     O4    9   0.210   0.097   0.115
    1UNL     C6   10   0.313   0.007   0.065
    1UNL     O5   11   0.307  -0.135   0.089
    1UNL     C7   12   0.397  -0.210   0.010
    1UNL     C8   13   0.380  -0.354   0.067
    1UNL     O6   14   0.247  -0.390   0.067
    1UNL     C9   15   0.539  -0.162   0.027
    1UNL     O7   16   0.588  -0.190   0.152
    1UNL    C10   17   0.553  -0.012   0.002
    1UNL     O8   18   0.516   0.017  -0.141
    1UNL    C11   19   0.449   0.067   0.090
    1UNL     O9   20   0.488   0.066   0.225
    1UNL    C12   21   0.038   0.231   0.023
    1UNL    C13   22  -0.052   0.204   0.144
    1UNL    C14   23  -0.183   0.287   0.140
    1UNL     N1   24  -0.271   0.226   0.043
    1UNL    C15   25  -0.428   0.246   0.049
    1UNL    C16   26  -0.495   0.141   0.132
    1UNL    C17   27  -0.448   0.004   0.084
    1UNL    C18   28  -0.324  -0.021   0.038
    1UNL     N2   29  -0.301  -0.155   0.013
    1UNL    C19   30  -0.418  -0.222   0.056
    1UNL    C20   31  -0.457  -0.358   0.055
    1UNL    C21   32  -0.585  -0.388   0.085
    1UNL    C22   33  -0.678  -0.294   0.124
    1UNL    C23   34  -0.647  -0.157   0.127
    1UNL    C24   35  -0.513  -0.123   0.091
    1UNL    C25   36  -0.220   0.089   0.026
    1UNL    C26   37  -0.134   0.095  -0.104
    1UNL    C27   38   0.012   0.112  -0.078
    1UNL    O10   39  -0.114   0.074   0.130
    1UNL     H1   40  -0.138   0.002  -0.528
    1UNL     H2   41  -0.063  -0.158  -0.465
    1UNL     H3   42   0.032  -0.035  -0.541
    1UNL     H4   43   0.270   0.187  -0.276
    1UNL     H5   44   0.224   0.302   0.114
    1UNL     H6   45   0.303   0.019  -0.042
    1UNL     H7   46   0.366  -0.202  -0.099
    1UNL     H8   47   0.435  -0.432   0.010
    1UNL     H9   48   0.426  -0.353   0.166
    1UNL    H10   49   0.193  -0.312   0.084
    1UNL    H11   50   0.612  -0.215  -0.035
    1UNL    H12   51   0.541  -0.121   0.213
    1UNL    H13   52   0.661   0.020   0.020
    1UNL    H14   53   0.518   0.110  -0.156
    1UNL    H15   54   0.452   0.174   0.056
    1UNL    H16   55   0.404   0.107   0.271
    1UNL    H17   56  -0.003   0.333  -0.015
    1UNL    H18   57   0.000   0.213   0.242
    1UNL    H19   58  -0.153   0.391   0.109
    1UNL    H20   59  -0.235   0.288   0.232
    1UNL    H21   60  -0.445   0.353   0.093
    1UNL    H22   61  -0.463   0.241  -0.052
    1UNL    H23   62  -0.486   0.142   0.238
    1UNL    H24   63  -0.600   0.145   0.122
    1UNL    H25   64  -0.204  -0.191   0.021
    1UNL    H26   65  -0.388  -0.433   0.024
    1UNL    H27   66  -0.612  -0.493   0.098
    1UNL    H28   67  -0.776  -0.336   0.153
    1UNL    H29   68  -0.709  -0.081   0.158
    1UNL    H30   69  -0.143  -0.003  -0.148
    1UNL    H31   70  -0.166   0.167  -0.184
    1UNL    H32   71   0.050   0.021  -0.024
   0.00000   0.00000   0.00000   0.00000   0.00000   0.00000   0.00000   0.00000   0.00000
Generated with MDTraj, t= 25.0
 71
    1UNL     C1    1  -0.040  -0.080  -0.459
    1UNL     O1    2  -0.026  -0.018  -0.326
    1UNL     C2    3   0.078   0.077  -0.321
    1UNL     O2    4   0.139   0.123  -0.418
    1UNL     C3    5   0.110   0.135  -0.192
    1UNL     C4    6   0.221   0.211  -0.173
    1UNL     O3    7   0.262   0.261  -0.052
    1UNL     C5    8   0.188   0.215   0.061
    1UNL     O4    9   0.219   0.096   0.131
    1UNL     C6   10   0.310   0.007   0.061
    1UNL     O5   11   0.312  -0.130   0.105
    1UNL     C7   12   0.394  -0.207   0.014
    1UNL     C8   13   0.379  -0.356   0.055
    1UNL     O6   14   0.239  -0.373   0.069
    1UNL     C9   15   0.544  -0.165   0.024
    1UNL     O7   16   0.604  -0.183   0.155
    1UNL    C10   17   0.549  -0.018  -0.019
    1UNL     O8   18   0.534  -0.011  -0.163
    1UNL    C11   19   0.445   0.075   0.061
    1UNL     O9   20   0.483   0.083   0.202
    1UNL    C12   21   0.038   0.219   0.032
    1UNL    C13   22  -0.063   0.191   0.149
    1UNL    C14   23  -0.184   0.291   0.137
    1UNL     N1   24  -0.276   0.228   0.047
    1UNL    C15   25  -0.425   0.254   0.059
    1UNL    C16   26  -0.501   0.144   0.130
    1UNL    C17   27  -0.453   0.006   0.083
    1UNL    C18   28  -0.329  -0.015   0.031
    1UNL     N2   29  -0.318  -0.150  -0.003
    1UNL    C19   30  -0.433  -0.218   0.031
    1UNL    C20   31  -0.465  -0.350   0.026
    1UNL    C21   32  -0.586  -0.385   0.081
    1UNL    C22   33  -0.679  -0.291   0.132
    1UNL    C23   34  -0.636  -0.166   0.148
    1UNL    C24   35  -0.517  -0.125   0.093
    1UNL    C25   36  -0.212   0.089   0.022
    1UNL    C26   37  -0.134   0.080  -0.109
    1UNL    C27   38   0.019   0.102  -0.077
    1UNL    O10   39  -0.128   0.067   0.131
    1UNL     H1   40   0.006  -0.013  -0.527
    1UNL     H2   41  -0.139  -0.116  -0.489
    1UNL     H3   42   0.019  -0.170  -0.467
    1UNL     H4   43   0.281   0.238  -0.268
    1UNL     H5   44   0.211   0.296   0.133
    1UNL     H6   45   0.268   0.010  -0.037
    1UNL     H7   46   0.343  -0.189  -0.084
    1UNL     H8   47   0.417  -0.427  -0.024
    1UNL     H9   48   0.435  -0.381   0.147
    1UNL    H10   49   0.189  -0.297   0.114
    1UNL    H11   50   0.610  -0.215  -0.046
    1UNL    H12   51   0.585  -0.098   0.207
    1UNL    H13   52   0.651   0.020   0.005
    1UNL    H14   53   0.505   0.078  -0.186
    1UNL    H15   54   0.456   0.183   0.034
    1UNL    H16   55   0.406   0.114   0.252
    1UNL    H17   56   0.007   0.317  -0.011
    1UNL    H18   57   0.003   0.191   0.242
    1UNL    H19   58  -0.142   0.378   0.085
    1UNL    H20   59  -0.218   0.312   0.238
    1UNL    H21   60  -0.432   0.351   0.121
    1UNL    H22   61  -0.455   0.265  -0.043
    1UNL    H23   62  -0.490   0.149   0.236
    1UNL    H24   63  -0.605   0.143   0.117
    1UNL    H25   64  -0.236  -0.179  -0.055
    1UNL    H26   65  -0.395  -0.431  -0.010
    1UNL    H27   66  -0.618  -0.487   0.071
    1UNL    H28   67  -0.774  -0.325   0.164
    1UNL    H29   68  -0.707  -0.089   0.188
    1UNL    H30   69  -0.160  -0.014  -0.156
    1UNL    H31   70  -0.165   0.159  -0.183
    1UNL    H32   71   0.059   0.008  -0.031
   0.00000   0.00000   0.00000   0.00000   0.00000   0.00000   0.00000   0.00000   0.00000
Generated with MDTraj, t= 26.0
 71
    1UNL     C1    1  -0.019  -0.086  -0.464
    1UNL     O1    2  -0.010  -0.043  -0.332
    1UNL     C2    3   0.084   0.059  -0.315
    1UNL     O2    4   0.151   0.106  -0.409
    1UNL     C3    5   0.101   0.114  -0.179
    1UNL     C4    6   0.205   0.202  -0.156
    1UNL     O3    7   0.255   0.263  -0.036
    1UNL     C5    8   0.186   0.219   0.082
    1UNL     O4    9   0.241   0.106   0.146
    1UNL     C6   10   0.318   0.013   0.056
    1UNL     O5   11   0.308  -0.122   0.101
    1UNL     C7   12   0.389  -0.201   0.013
    1UNL     C8   13   0.376  -0.340   0.067
    1UNL     O6   14   0.236  -0.368   0.068
    1UNL     C9   15   0.541  -0.159   0.017
    1UNL     O7   16   0.580  -0.157   0.150
    1UNL    C10   17   0.555  -0.019  -0.040
    1UNL     O8   18   0.531  -0.014  -0.179
    1UNL    C11   19   0.461   0.073   0.049
    1UNL     O9   20   0.519   0.095   0.177
    1UNL    C12   21   0.036   0.205   0.041
    1UNL    C13   22  -0.067   0.186   0.153
    1UNL    C14   23  -0.173   0.296   0.147
    1UNL     N1   24  -0.277   0.230   0.052
    1UNL    C15   25  -0.428   0.245   0.060
    1UNL    C16   26  -0.486   0.137   0.149
    1UNL    C17   27  -0.449  -0.001   0.095
    1UNL    C18   28  -0.330  -0.016   0.017
    1UNL     N2   29  -0.326  -0.142  -0.026
    1UNL    C19   30  -0.443  -0.206   0.013
    1UNL    C20   31  -0.476  -0.344   0.012
    1UNL    C21   32  -0.597  -0.385   0.067
    1UNL    C22   33  -0.671  -0.292   0.138
    1UNL    C23   34  -0.648  -0.160   0.142
    1UNL    C24   35  -0.528  -0.118   0.084
    1UNL    C25   36  -0.220   0.086   0.024
    1UNL    C26   37  -0.140   0.094  -0.103
    1UNL    C27   38   0.013   0.090  -0.067
    1UNL    O10   39  -0.138   0.061   0.139
    1UNL     H1   40   0.075  -0.126  -0.500
    1UNL     H2   41  -0.050   0.003  -0.521
    1UNL     H3   42  -0.096  -0.162  -0.464
    1UNL     H4   43   0.272   0.223  -0.234
    1UNL     H5   44   0.198   0.298   0.160
    1UNL     H6   45   0.266   0.022  -0.037
    1UNL     H7   46   0.335  -0.194  -0.082
    1UNL     H8   47   0.448  -0.411   0.017
    1UNL     H9   48   0.395  -0.348   0.176
    1UNL    H10   49   0.184  -0.301   0.115
    1UNL    H11   50   0.598  -0.235  -0.040
    1UNL    H12   51   0.527  -0.095   0.194
    1UNL    H13   52   0.662   0.003  -0.032
    1UNL    H14   53   0.519   0.081  -0.208
    1UNL    H15   54   0.455   0.177   0.008
    1UNL    H16   55   0.455   0.150   0.222
    1UNL    H17   56   0.008   0.295  -0.008
    1UNL    H18   57  -0.017   0.185   0.256
    1UNL    H19   58  -0.151   0.390   0.095
    1UNL    H20   59  -0.216   0.298   0.249
    1UNL    H21   60  -0.452   0.349   0.105
    1UNL    H22   61  -0.469   0.226  -0.038
    1UNL    H23   62  -0.458   0.138   0.251
    1UNL    H24   63  -0.591   0.150   0.145
    1UNL    H25   64  -0.245  -0.201  -0.036
    1UNL    H26   65  -0.416  -0.414  -0.032
    1UNL    H27   66  -0.637  -0.486   0.058
    1UNL    H28   67  -0.766  -0.315   0.188
    1UNL    H29   68  -0.710  -0.091   0.192
    1UNL    H30   69  -0.156   0.006  -0.162
    1UNL    H31   70  -0.172   0.190  -0.156
    1UNL    H32   71   0.044  -0.013  -0.029
   0.00000   0.00000   0.00000   0.00000   0.00000   0.00000   0.00000   0.00000   0.00000
Generated with MDTraj, t= 27.0
 71
    1UNL     C1    1  -0.014  -0.100  -0.438
    1UNL     O1    2  -0.015  -0.021  -0.329
    1UNL     C2    3   0.100   0.055  -0.314
    1UNL     O2    4   0.182   0.078  -0.403
    1UNL     C3    5   0.116   0.125  -0.187
    1UNL     C4    6   0.220   0.209  -0.166
    1UNL     O3    7   0.255   0.268  -0.048
    1UNL     C5    8   0.181   0.226   0.071
    1UNL     O4    9   0.224   0.111   0.138
    1UNL     C6   10   0.314   0.019   0.055
    1UNL     O5   11   0.320  -0.112   0.102
    1UNL     C7   12   0.392  -0.202   0.029
    1UNL     C8   13   0.366  -0.347   0.068
    1UNL     O6   14   0.231  -0.358   0.081
    1UNL     C9   15   0.542  -0.158   0.013
    1UNL     O7   16   0.606  -0.165   0.134
    1UNL    C10   17   0.542  -0.013  -0.043
    1UNL     O8   18   0.496  -0.016  -0.175
    1UNL    C11   19   0.450   0.081   0.051
    1UNL     O9   20   0.508   0.116   0.177
    1UNL    C12   21   0.035   0.212   0.029
    1UNL    C13   22  -0.053   0.184   0.153
    1UNL    C14   23  -0.171   0.281   0.164
    1UNL     N1   24  -0.266   0.225   0.061
    1UNL    C15   25  -0.415   0.238   0.079
    1UNL    C16   26  -0.488   0.129   0.157
    1UNL    C17   27  -0.459  -0.001   0.094
    1UNL    C18   28  -0.333  -0.019   0.036
    1UNL     N2   29  -0.326  -0.147  -0.008
    1UNL    C19   30  -0.446  -0.211   0.016
    1UNL    C20   31  -0.498  -0.341  -0.009
    1UNL    C21   32  -0.620  -0.383   0.047
    1UNL    C22   33  -0.694  -0.290   0.117
    1UNL    C23   34  -0.656  -0.162   0.144
    1UNL    C24   35  -0.528  -0.126   0.092
    1UNL    C25   36  -0.211   0.086   0.030
    1UNL    C26   37  -0.141   0.087  -0.110
    1UNL    C27   38   0.020   0.100  -0.082
    1UNL    O10   39  -0.113   0.047   0.133
    1UNL     H1   40   0.027  -0.202  -0.425
    1UNL     H2   41   0.046  -0.047  -0.518
    1UNL     H3   42  -0.120  -0.116  -0.465
    1UNL     H4   43   0.283   0.238  -0.245
    1UNL     H5   44   0.199   0.308   0.147
    1UNL     H6   45   0.272   0.024  -0.044
    1UNL     H7   46   0.349  -0.189  -0.068
    1UNL     H8   47   0.396  -0.415  -0.014
    1UNL     H9   48   0.429  -0.368   0.156
    1UNL    H10   49   0.206  -0.270   0.122
    1UNL    H11   50   0.580  -0.234  -0.058
    1UNL    H12   51   0.570  -0.084   0.187
    1UNL    H13   52   0.644   0.019  -0.045
    1UNL    H14   53   0.490   0.081  -0.206
    1UNL    H15   54   0.438   0.176  -0.002
    1UNL    H16   55   0.424   0.131   0.235
    1UNL    H17   56   0.006   0.298  -0.015
    1UNL    H18   57   0.005   0.179   0.253
    1UNL    H19   58  -0.149   0.374   0.116
    1UNL    H20   59  -0.223   0.283   0.263
    1UNL    H21   60  -0.432   0.332   0.144
    1UNL    H22   61  -0.459   0.243  -0.019
    1UNL    H23   62  -0.441   0.133   0.253
    1UNL    H24   63  -0.594   0.139   0.165
    1UNL    H25   64  -0.255  -0.186  -0.065
    1UNL    H26   65  -0.435  -0.408  -0.071
    1UNL    H27   66  -0.656  -0.484   0.036
    1UNL    H28   67  -0.789  -0.325   0.152
    1UNL    H29   68  -0.705  -0.088   0.203
    1UNL    H30   69  -0.158  -0.007  -0.160
    1UNL    H31   70  -0.190   0.173  -0.167
    1UNL    H32   71   0.058   0.007  -0.028
   0.00000   0.00000   0.00000   0.00000   0.00000   0.00000   0.00000   0.00000   0.00000
Generated with MDTraj, t= 28.0
 71
    1UNL     C1    1  -0.012  -0.099  -0.446
    1UNL     O1    2  -0.032  -0.017  -0.337
    1UNL     C2    3   0.085   0.047  -0.310
    1UNL     O2    4   0.181   0.051  -0.388
    1UNL     C3    5   0.101   0.121  -0.182
    1UNL     C4    6   0.204   0.201  -0.168
    1UNL     O3    7   0.250   0.271  -0.067
    1UNL     C5    8   0.183   0.240   0.061
    1UNL     O4    9   0.238   0.133   0.137
    1UNL     C6   10   0.311   0.031   0.057
    1UNL     O5   11   0.314  -0.101   0.109
    1UNL     C7   12   0.380  -0.194   0.015
    1UNL     C8   13   0.369  -0.334   0.083
    1UNL     O6   14   0.241  -0.376   0.117
    1UNL     C9   15   0.533  -0.148  -0.002
    1UNL     O7   16   0.597  -0.171   0.129
    1UNL    C10   17   0.535  -0.003  -0.053
    1UNL     O8   18   0.484  -0.004  -0.183
    1UNL    C11   19   0.451   0.087   0.047
    1UNL     O9   20   0.513   0.092   0.184
    1UNL    C12   21   0.035   0.211   0.031
    1UNL    C13   22  -0.051   0.180   0.155
    1UNL    C14   23  -0.174   0.275   0.178
    1UNL     N1   24  -0.263   0.216   0.076
    1UNL    C15   25  -0.411   0.242   0.087
    1UNL    C16   26  -0.472   0.126   0.167
    1UNL    C17   27  -0.435  -0.005   0.099
    1UNL    C18   28  -0.319  -0.029   0.035
    1UNL     N2   29  -0.321  -0.160  -0.012
    1UNL    C19   30  -0.438  -0.221   0.021
    1UNL    C20   31  -0.494  -0.338  -0.011
    1UNL    C21   32  -0.623  -0.364   0.016
    1UNL    C22   33  -0.706  -0.269   0.088
    1UNL    C23   34  -0.649  -0.147   0.121
    1UNL    C24   35  -0.516  -0.120   0.086
    1UNL    C25   36  -0.211   0.073   0.035
    1UNL    C26   37  -0.136   0.072  -0.100
    1UNL    C27   38   0.020   0.094  -0.067
    1UNL    O10   39  -0.115   0.051   0.135
    1UNL     H1   40   0.084  -0.153  -0.457
    1UNL     H2   41  -0.004  -0.029  -0.534
    1UNL     H3   42  -0.088  -0.180  -0.455
    1UNL     H4   43   0.264   0.209  -0.265
    1UNL     H5   44   0.186   0.334   0.126
    1UNL     H6   45   0.266   0.034  -0.041
    1UNL     H7   46   0.333  -0.189  -0.081
    1UNL     H8   47   0.422  -0.413   0.031
    1UNL     H9   48   0.422  -0.322   0.178
    1UNL    H10   49   0.194  -0.293   0.141
    1UNL    H11   50   0.588  -0.212  -0.076
    1UNL    H12   51   0.591  -0.086   0.183
    1UNL    H13   52   0.635   0.030  -0.053
    1UNL    H14   53   0.489   0.087  -0.227
    1UNL    H15   54   0.459   0.185   0.001
    1UNL    H16   55   0.442   0.115   0.238
    1UNL    H17   56  -0.009   0.291  -0.012
    1UNL    H18   57   0.025   0.189   0.241
    1UNL    H19   58  -0.142   0.374   0.166
    1UNL    H20   59  -0.217   0.253   0.281
    1UNL    H21   60  -0.435   0.339   0.141
    1UNL    H22   61  -0.458   0.245  -0.010
    1UNL    H23   62  -0.432   0.117   0.266
    1UNL    H24   63  -0.577   0.138   0.172
    1UNL    H25   64  -0.246  -0.205  -0.059
    1UNL    H26   65  -0.448  -0.416  -0.071
    1UNL    H27   66  -0.662  -0.456  -0.025
    1UNL    H28   67  -0.798  -0.306   0.133
    1UNL    H29   68  -0.705  -0.078   0.189
    1UNL    H30   69  -0.162  -0.014  -0.160
    1UNL    H31   70  -0.159   0.171  -0.150
    1UNL    H32   71   0.061   0.004  -0.011
   0.00000   0.00000   0.00000   0.00000   0.00000   0.00000   0.00000   0.00000   0.00000
Generated with MDTraj, t= 29.0
 71
    1UNL     C1    1  -0.048  -0.079  -0.443
    1UNL     O1    2  -0.016  -0.046  -0.313
    1UNL     C2    3   0.089   0.041  -0.304
    1UNL     O2    4   0.156   0.072  -0.402
    1UNL     C3    5   0.113   0.108  -0.180
    1UNL     C4    6   0.210   0.199  -0.179
    1UNL     O3    7   0.268   0.249  -0.068
    1UNL     C5    8   0.191   0.228   0.057
    1UNL     O4    9   0.249   0.128   0.145
    1UNL     C6   10   0.324   0.035   0.064
    1UNL     O5   11   0.333  -0.095   0.123
    1UNL     C7   12   0.381  -0.195   0.025
    1UNL     C8   13   0.365  -0.331   0.092
    1UNL     O6   14   0.230  -0.338   0.138
    1UNL     C9   15   0.524  -0.155  -0.000
    1UNL     O7   16   0.603  -0.155   0.119
    1UNL    C10   17   0.541  -0.011  -0.057
    1UNL     O8   18   0.489   0.000  -0.194
    1UNL    C11   19   0.460   0.090   0.035
    1UNL     O9   20   0.529   0.095   0.164
    1UNL    C12   21   0.040   0.211   0.033
    1UNL    C13   22  -0.046   0.178   0.158
    1UNL    C14   23  -0.167   0.274   0.167
    1UNL     N1   24  -0.263   0.212   0.075
    1UNL    C15   25  -0.415   0.239   0.094
    1UNL    C16   26  -0.489   0.127   0.170
    1UNL    C17   27  -0.449  -0.001   0.101
    1UNL    C18   28  -0.323  -0.025   0.055
    1UNL     N2   29  -0.321  -0.152  -0.005
    1UNL    C19   30  -0.447  -0.211   0.013
    1UNL    C20   31  -0.493  -0.341  -0.026
    1UNL    C21   32  -0.626  -0.372  -0.006
    1UNL    C22   33  -0.709  -0.280   0.062
    1UNL    C23   34  -0.661  -0.157   0.109
    1UNL    C24   35  -0.524  -0.124   0.082
    1UNL    C25   36  -0.217   0.074   0.048
    1UNL    C26   37  -0.140   0.067  -0.092
    1UNL    C27   38   0.019   0.090  -0.063
    1UNL    O10   39  -0.106   0.050   0.151
    1UNL     H1   40   0.036  -0.118  -0.500
    1UNL     H2   41  -0.066   0.017  -0.496
    1UNL     H3   42  -0.126  -0.157  -0.450
    1UNL     H4   43   0.268   0.207  -0.271
    1UNL     H5   44   0.196   0.327   0.109
    1UNL     H6   45   0.260   0.032  -0.024
    1UNL     H7   46   0.321  -0.193  -0.066
    1UNL     H8   47   0.373  -0.417   0.027
    1UNL     H9   48   0.428  -0.358   0.177
    1UNL    H10   49   0.197  -0.259   0.186
    1UNL    H11   50   0.578  -0.221  -0.071
    1UNL    H12   51   0.562  -0.095   0.176
    1UNL    H13   52   0.644   0.019  -0.055
    1UNL    H14   53   0.493   0.089  -0.233
    1UNL    H15   54   0.458   0.190  -0.009
    1UNL    H16   55   0.451   0.107   0.229
    1UNL    H17   56  -0.006   0.293  -0.013
    1UNL    H18   57   0.029   0.187   0.243
    1UNL    H19   58  -0.129   0.366   0.135
    1UNL    H20   59  -0.212   0.282   0.270
    1UNL    H21   60  -0.438   0.340   0.137
    1UNL    H22   61  -0.459   0.243  -0.007
    1UNL    H23   62  -0.463   0.131   0.274
    1UNL    H24   63  -0.595   0.129   0.164
    1UNL    H25   64  -0.243  -0.203  -0.040
    1UNL    H26   65  -0.431  -0.393  -0.092
    1UNL    H27   66  -0.669  -0.464  -0.041
    1UNL    H28   67  -0.813  -0.305   0.081
    1UNL    H29   68  -0.717  -0.097   0.171
    1UNL    H30   69  -0.155  -0.028  -0.145
    1UNL    H31   70  -0.173   0.151  -0.158
    1UNL    H32   71   0.049  -0.005  -0.008
   0.00000   0.00000   0.00000   0.00000   0.00000   0.00000   0.00000   0.00000   0.00000
Generated with MDTraj, t= 30.0
 71
    1UNL     C1    1  -0.060  -0.097  -0.430
    1UNL     O1    2  -0.036  -0.041  -0.310
    1UNL     C2    3   0.052   0.064  -0.305
    1UNL     O2    4   0.101   0.101  -0.411
    1UNL     C3    5   0.085   0.122  -0.181
    1UNL     C4    6   0.190   0.207  -0.173
    1UNL     O3    7   0.258   0.255  -0.063
    1UNL     C5    8   0.192   0.225   0.062
    1UNL     O4    9   0.261   0.134   0.143
    1UNL     C6   10   0.337   0.033   0.073
    1UNL     O5   11   0.340  -0.094   0.135
    1UNL     C7   12   0.388  -0.191   0.046
    1UNL     C8   13   0.369  -0.328   0.103
    1UNL     O6   14   0.227  -0.341   0.142
    1UNL     C9   15   0.532  -0.159   0.014
    1UNL     O7   16   0.618  -0.172   0.121
    1UNL    C10   17   0.551  -0.025  -0.057
    1UNL     O8   18   0.483  -0.029  -0.195
    1UNL    C11   19   0.478   0.082   0.033
    1UNL     O9   20   0.547   0.118   0.151
    1UNL    C12   21   0.042   0.197   0.043
    1UNL    C13   22  -0.047   0.180   0.167
    1UNL    C14   23  -0.166   0.276   0.162
    1UNL     N1   24  -0.263   0.214   0.063
    1UNL    C15   25  -0.410   0.232   0.082
    1UNL    C16   26  -0.482   0.120   0.158
    1UNL    C17   27  -0.446  -0.006   0.094
    1UNL    C18   28  -0.316  -0.032   0.050
    1UNL     N2   29  -0.307  -0.157  -0.011
    1UNL    C19   30  -0.438  -0.211  -0.005
    1UNL    C20   31  -0.486  -0.342  -0.033
    1UNL    C21   32  -0.621  -0.366  -0.010
    1UNL    C22   33  -0.705  -0.268   0.051
    1UNL    C23   34  -0.655  -0.149   0.096
    1UNL    C24   35  -0.523  -0.121   0.069
    1UNL    C25   36  -0.211   0.073   0.050
    1UNL    C26   37  -0.133   0.069  -0.087
    1UNL    C27   38   0.021   0.078  -0.055
    1UNL    O10   39  -0.112   0.053   0.158
    1UNL     H1   40   0.030  -0.144  -0.463
    1UNL     H2   41  -0.092  -0.024  -0.505
    1UNL     H3   42  -0.131  -0.177  -0.417
    1UNL     H4   43   0.238   0.236  -0.258
    1UNL     H5   44   0.206   0.323   0.110
    1UNL     H6   45   0.269   0.022  -0.014
    1UNL     H7   46   0.332  -0.191  -0.050
    1UNL     H8   47   0.381  -0.416   0.042
    1UNL     H9   48   0.441  -0.343   0.186
    1UNL    H10   49   0.197  -0.267   0.198
    1UNL    H11   50   0.571  -0.240  -0.049
    1UNL    H12   51   0.592  -0.084   0.172
    1UNL    H13   52   0.657   0.004  -0.061
    1UNL    H14   53   0.499   0.051  -0.242
    1UNL    H15   54   0.477   0.172  -0.030
    1UNL    H16   55   0.471   0.136   0.220
    1UNL    H17   56  -0.005   0.281  -0.008
    1UNL    H18   57   0.006   0.180   0.266
    1UNL    H19   58  -0.152   0.372   0.121
    1UNL    H20   59  -0.222   0.284   0.259
    1UNL    H21   60  -0.429   0.335   0.117
    1UNL    H22   61  -0.458   0.235  -0.020
    1UNL    H23   62  -0.447   0.116   0.259
    1UNL    H24   63  -0.588   0.136   0.163
    1UNL    H25   64  -0.221  -0.207  -0.032
    1UNL    H26   65  -0.405  -0.405  -0.083
    1UNL    H27   66  -0.664  -0.457  -0.049
    1UNL    H28   67  -0.804  -0.297   0.076
    1UNL    H29   68  -0.720  -0.076   0.151
    1UNL    H30   69  -0.159  -0.030  -0.128
    1UNL    H31   70  -0.156   0.155  -0.155
    1UNL    H32   71   0.067  -0.018  -0.012
   0.00000   0.00000   0.00000   0.00000   0.00000   0.00000   0.00000   0.00000   0.00000
Generated with MDTraj, t= 31.0
 71
    1UNL     C1    1  -0.068  -0.087  -0.436
    1UNL     O1    2  -0.027  -0.040  -0.310
    1UNL     C2    3   0.058   0.068  -0.315
    1UNL     O2    4   0.090   0.128  -0.418
    1UNL     C3    5   0.099   0.124  -0.189
    1UNL     C4    6   0.210   0.206  -0.187
    1UNL     O3    7   0.259   0.263  -0.072
    1UNL     C5    8   0.197   0.225   0.055
    1UNL     O4    9   0.257   0.129   0.131
    1UNL     C6   10   0.318   0.032   0.055
    1UNL     O5   11   0.321  -0.092   0.120
    1UNL     C7   12   0.381  -0.198   0.047
    1UNL     C8   13   0.381  -0.323   0.132
    1UNL     O6   14   0.250  -0.364   0.154
    1UNL     C9   15   0.533  -0.162   0.013
    1UNL     O7   16   0.611  -0.156   0.143
    1UNL    C10   17   0.539  -0.023  -0.055
    1UNL     O8   18   0.478  -0.049  -0.187
    1UNL    C11   19   0.468   0.081   0.028
    1UNL     O9   20   0.532   0.102   0.152
    1UNL    C12   21   0.045   0.209   0.035
    1UNL    C13   22  -0.035   0.177   0.167
    1UNL    C14   23  -0.157   0.269   0.182
    1UNL     N1   24  -0.260   0.204   0.085
    1UNL    C15   25  -0.403   0.237   0.087
    1UNL    C16   26  -0.488   0.125   0.144
    1UNL    C17   27  -0.444  -0.008   0.096
    1UNL    C18   28  -0.318  -0.035   0.056
    1UNL     N2   29  -0.308  -0.164   0.012
    1UNL    C19   30  -0.438  -0.218   0.012
    1UNL    C20   31  -0.485  -0.344  -0.025
    1UNL    C21   32  -0.619  -0.361  -0.021
    1UNL    C22   33  -0.713  -0.276   0.045
    1UNL    C23   34  -0.661  -0.156   0.085
    1UNL    C24   35  -0.524  -0.123   0.076
    1UNL    C25   36  -0.201   0.069   0.051
    1UNL    C26   37  -0.136   0.082  -0.093
    1UNL    C27   38   0.018   0.103  -0.072
    1UNL    O10   39  -0.100   0.049   0.149
    1UNL     H1   40   0.023  -0.119  -0.482
    1UNL     H2   41  -0.115  -0.009  -0.498
    1UNL     H3   42  -0.138  -0.169  -0.440
    1UNL     H4   43   0.264   0.238  -0.281
    1UNL     H5   44   0.221   0.313   0.114
    1UNL     H6   45   0.259   0.026  -0.038
    1UNL     H7   46   0.332  -0.215  -0.054
    1UNL     H8   47   0.442  -0.398   0.085
    1UNL     H9   48   0.424  -0.303   0.234
    1UNL    H10   49   0.211  -0.276   0.172
    1UNL    H11   50   0.586  -0.240  -0.041
    1UNL    H12   51   0.627  -0.066   0.163
    1UNL    H13   52   0.645   0.009  -0.073
    1UNL    H14   53   0.400   0.005  -0.203
    1UNL    H15   54   0.475   0.173  -0.033
    1UNL    H16   55   0.461   0.144   0.206
    1UNL    H17   56   0.003   0.309  -0.004
    1UNL    H18   57   0.033   0.160   0.252
    1UNL    H19   58  -0.154   0.375   0.161
    1UNL    H20   59  -0.179   0.253   0.290
    1UNL    H21   60  -0.424   0.333   0.134
    1UNL    H22   61  -0.427   0.266  -0.022
    1UNL    H23   62  -0.482   0.127   0.251
    1UNL    H24   63  -0.592   0.146   0.124
    1UNL    H25   64  -0.228  -0.216  -0.027
    1UNL    H26   65  -0.419  -0.417  -0.057
    1UNL    H27   66  -0.648  -0.449  -0.076
    1UNL    H28   67  -0.815  -0.306   0.078
    1UNL    H29   68  -0.724  -0.086   0.133
    1UNL    H30   69  -0.147  -0.018  -0.137
    1UNL    H31   70  -0.186   0.165  -0.148
    1UNL    H32   71   0.053  -0.001  -0.031
   0.00000   0.00000   0.00000   0.00000   0.00000   0.00000   0.00000   0.00000   0.00000
Generated with MDTraj, t= 32.0
 71
    1UNL     C1    1  -0.064  -0.071  -0.471
    1UNL     O1    2  -0.044  -0.016  -0.343
    1UNL     C2    3   0.059   0.075  -0.335
    1UNL     O2    4   0.120   0.117  -0.433
    1UNL     C3    5   0.089   0.123  -0.197
    1UNL     C4    6   0.197   0.205  -0.182
    1UNL     O3    7   0.255   0.256  -0.065
    1UNL     C5    8   0.189   0.224   0.058
    1UNL     O4    9   0.228   0.114   0.129
    1UNL     C6   10   0.305   0.015   0.061
    1UNL     O5   11   0.323  -0.108   0.133
    1UNL     C7   12   0.389  -0.202   0.057
    1UNL     C8   13   0.376  -0.338   0.121
    1UNL     O6   14   0.254  -0.358   0.185
    1UNL     C9   15   0.535  -0.162   0.019
    1UNL     O7   16   0.605  -0.142   0.142
    1UNL    C10   17   0.532  -0.026  -0.055
    1UNL     O8   18   0.483  -0.045  -0.187
    1UNL    C11   19   0.450   0.075   0.025
    1UNL     O9   20   0.517   0.121   0.144
    1UNL    C12   21   0.041   0.210   0.031
    1UNL    C13   22  -0.032   0.166   0.175
    1UNL    C14   23  -0.154   0.259   0.186
    1UNL     N1   24  -0.250   0.213   0.091
    1UNL    C15   25  -0.394   0.247   0.099
    1UNL    C16   26  -0.478   0.130   0.158
    1UNL    C17   27  -0.445   0.003   0.092
    1UNL    C18   28  -0.316  -0.025   0.053
    1UNL     N2   29  -0.309  -0.160   0.016
    1UNL    C19   30  -0.431  -0.212   0.014
    1UNL    C20   31  -0.474  -0.347  -0.013
    1UNL    C21   32  -0.608  -0.378   0.002
    1UNL    C22   33  -0.695  -0.277   0.044
    1UNL    C23   34  -0.658  -0.145   0.074
    1UNL    C24   35  -0.517  -0.118   0.072
    1UNL    C25   36  -0.202   0.068   0.050
    1UNL    C26   37  -0.135   0.077  -0.090
    1UNL    C27   38   0.016   0.091  -0.074
    1UNL    O10   39  -0.093   0.039   0.147
    1UNL     H1   40   0.038  -0.076  -0.512
    1UNL     H2   41  -0.131  -0.011  -0.536
    1UNL     H3   42  -0.113  -0.168  -0.477
    1UNL     H4   43   0.258   0.222  -0.276
    1UNL     H5   44   0.208   0.305   0.125
    1UNL     H6   45   0.242  -0.002  -0.028
    1UNL     H7   46   0.334  -0.196  -0.042
    1UNL     H8   47   0.403  -0.423   0.058
    1UNL     H9   48   0.442  -0.344   0.215
    1UNL    H10   49   0.223  -0.270   0.224
    1UNL    H11   50   0.582  -0.238  -0.042
    1UNL    H12   51   0.548  -0.079   0.195
    1UNL    H13   52   0.632   0.024  -0.073
    1UNL    H14   53   0.507   0.034  -0.244
    1UNL    H15   54   0.440   0.171  -0.030
    1UNL    H16   55   0.448   0.144   0.210
    1UNL    H17   56  -0.010   0.313  -0.002
    1UNL    H18   57   0.037   0.149   0.255
    1UNL    H19   58  -0.129   0.364   0.168
    1UNL    H20   59  -0.183   0.261   0.291
    1UNL    H21   60  -0.400   0.340   0.154
    1UNL    H22   61  -0.440   0.283  -0.002
    1UNL    H23   62  -0.454   0.119   0.261
    1UNL    H24   63  -0.585   0.150   0.160
    1UNL    H25   64  -0.227  -0.211  -0.023
    1UNL    H26   65  -0.399  -0.415  -0.054
    1UNL    H27   66  -0.647  -0.476  -0.018
    1UNL    H28   67  -0.795  -0.307   0.048
    1UNL    H29   68  -0.734  -0.078   0.107
    1UNL    H30   69  -0.152  -0.022  -0.138
    1UNL    H31   70  -0.183   0.165  -0.136
    1UNL    H32   71   0.049  -0.013  -0.031
   0.00000   0.00000   0.00000   0.00000   0.00000   0.00000   0.00000   0.00000   0.00000
Generated with MDTraj, t= 33.0
 71
    1UNL     C1    1  -0.075  -0.033  -0.482
    1UNL     O1    2  -0.060   0.013  -0.355
    1UNL     C2    3   0.062   0.073  -0.331
    1UNL     O2    4   0.144   0.100  -0.418
    1UNL     C3    5   0.102   0.128  -0.196
    1UNL     C4    6   0.215   0.204  -0.183
    1UNL     O3    7   0.268   0.257  -0.060
    1UNL     C5    8   0.190   0.226   0.064
    1UNL     O4    9   0.249   0.121   0.135
    1UNL     C6   10   0.329   0.028   0.064
    1UNL     O5   11   0.329  -0.104   0.120
    1UNL     C7   12   0.399  -0.205   0.059
    1UNL     C8   13   0.387  -0.335   0.139
    1UNL     O6   14   0.254  -0.354   0.186
    1UNL     C9   15   0.539  -0.166   0.022
    1UNL     O7   16   0.610  -0.154   0.147
    1UNL    C10   17   0.536  -0.030  -0.058
    1UNL     O8   18   0.492  -0.052  -0.187
    1UNL    C11   19   0.468   0.077   0.025
    1UNL     O9   20   0.545   0.103   0.139
    1UNL    C12   21   0.041   0.209   0.036
    1UNL    C13   22  -0.050   0.170   0.159
    1UNL    C14   23  -0.169   0.266   0.174
    1UNL     N1   24  -0.270   0.205   0.084
    1UNL    C15   25  -0.412   0.240   0.092
    1UNL    C16   26  -0.497   0.122   0.144
    1UNL    C17   27  -0.451  -0.008   0.093
    1UNL    C18   28  -0.325  -0.030   0.038
    1UNL     N2   29  -0.314  -0.158  -0.010
    1UNL    C19   30  -0.436  -0.222   0.027
    1UNL    C20   31  -0.488  -0.350  -0.008
    1UNL    C21   32  -0.616  -0.384   0.015
    1UNL    C22   33  -0.703  -0.285   0.071
    1UNL    C23   34  -0.657  -0.158   0.106
    1UNL    C24   35  -0.521  -0.129   0.087
    1UNL    C25   36  -0.215   0.072   0.041
    1UNL    C26   37  -0.135   0.096  -0.095
    1UNL    C27   38   0.016   0.101  -0.073
    1UNL    O10   39  -0.116   0.037   0.138
    1UNL     H1   40  -0.005  -0.120  -0.492
    1UNL     H2   41  -0.046   0.049  -0.553
    1UNL     H3   42  -0.181  -0.051  -0.510
    1UNL     H4   43   0.261   0.227  -0.273
    1UNL     H5   44   0.200   0.313   0.128
    1UNL     H6   45   0.270   0.022  -0.029
    1UNL     H7   46   0.331  -0.221  -0.029
    1UNL     H8   47   0.400  -0.427   0.083
    1UNL     H9   48   0.458  -0.340   0.227
    1UNL    H10   49   0.198  -0.277   0.204
    1UNL    H11   50   0.574  -0.254  -0.035
    1UNL    H12   51   0.579  -0.066   0.176
    1UNL    H13   52   0.645   0.002  -0.079
    1UNL    H14   53   0.396  -0.032  -0.215
    1UNL    H15   54   0.462   0.178  -0.024
    1UNL    H16   55   0.494   0.166   0.204
    1UNL    H17   56  -0.010   0.311  -0.008
    1UNL    H18   57   0.010   0.161   0.244
    1UNL    H19   58  -0.139   0.373   0.161
    1UNL    H20   59  -0.224   0.268   0.267
    1UNL    H21   60  -0.426   0.318   0.163
    1UNL    H22   61  -0.440   0.290  -0.009
    1UNL    H23   62  -0.499   0.124   0.252
    1UNL    H24   63  -0.600   0.138   0.114
    1UNL    H25   64  -0.226  -0.201  -0.050
    1UNL    H26   65  -0.436  -0.419  -0.077
    1UNL    H27   66  -0.669  -0.468  -0.027
    1UNL    H28   67  -0.808  -0.315   0.097
    1UNL    H29   68  -0.728  -0.085   0.149
    1UNL    H30   69  -0.165   0.016  -0.169
    1UNL    H31   70  -0.163   0.199  -0.122
    1UNL    H32   71   0.040  -0.002  -0.023
   0.00000   0.00000   0.00000   0.00000   0.00000   0.00000   0.00000   0.00000   0.00000
Generated with MDTraj, t= 34.0
 71
    1UNL     C1    1  -0.088   0.005  -0.483
    1UNL     O1    2  -0.059   0.039  -0.347
    1UNL     C2    3   0.074   0.079  -0.324
    1UNL     O2    4   0.160   0.077  -0.411
    1UNL     C3    5   0.105   0.129  -0.192
    1UNL     C4    6   0.213   0.206  -0.176
    1UNL     O3    7   0.267   0.263  -0.063
    1UNL     C5    8   0.191   0.230   0.061
    1UNL     O4    9   0.243   0.121   0.133
    1UNL     C6   10   0.315   0.020   0.072
    1UNL     O5   11   0.331  -0.101   0.142
    1UNL     C7   12   0.398  -0.204   0.057
    1UNL     C8   13   0.380  -0.336   0.138
    1UNL     O6   14   0.244  -0.359   0.184
    1UNL     C9   15   0.541  -0.170   0.017
    1UNL     O7   16   0.639  -0.171   0.129
    1UNL    C10   17   0.533  -0.030  -0.056
    1UNL     O8   18   0.494  -0.052  -0.186
    1UNL    C11   19   0.453   0.074   0.027
    1UNL     O9   20   0.520   0.107   0.149
    1UNL    C12   21   0.045   0.201   0.036
    1UNL    C13   22  -0.057   0.167   0.163
    1UNL    C14   23  -0.174   0.268   0.163
    1UNL     N1   24  -0.264   0.210   0.053
    1UNL    C15   25  -0.412   0.232   0.070
    1UNL    C16   26  -0.482   0.124   0.151
    1UNL    C17   27  -0.447  -0.004   0.088
    1UNL    C18   28  -0.331  -0.026   0.027
    1UNL     N2   29  -0.334  -0.156  -0.023
    1UNL    C19   30  -0.451  -0.214   0.008
    1UNL    C20   31  -0.486  -0.346  -0.013
    1UNL    C21   32  -0.605  -0.388   0.039
    1UNL    C22   33  -0.686  -0.298   0.106
    1UNL    C23   34  -0.651  -0.171   0.125
    1UNL    C24   35  -0.529  -0.118   0.078
    1UNL    C25   36  -0.212   0.070   0.033
    1UNL    C26   37  -0.128   0.070  -0.096
    1UNL    C27   38   0.022   0.092  -0.071
    1UNL    O10   39  -0.122   0.043   0.139
    1UNL     H1   40  -0.075  -0.106  -0.497
    1UNL     H2   41  -0.011   0.063  -0.540
    1UNL     H3   42  -0.186   0.042  -0.518
    1UNL     H4   43   0.273   0.223  -0.264
    1UNL     H5   44   0.201   0.320   0.127
    1UNL     H6   45   0.256  -0.005  -0.017
    1UNL     H7   46   0.344  -0.197  -0.038
    1UNL     H8   47   0.434  -0.408   0.079
    1UNL     H9   48   0.442  -0.310   0.227
    1UNL    H10   49   0.198  -0.275   0.213
    1UNL    H11   50   0.573  -0.246  -0.058
    1UNL    H12   51   0.630  -0.085   0.171
    1UNL    H13   52   0.637   0.015  -0.060
    1UNL    H14   53   0.471   0.036  -0.227
    1UNL    H15   54   0.444   0.172  -0.028
    1UNL    H16   55   0.462   0.150   0.208
    1UNL    H17   56   0.001   0.294  -0.022
    1UNL    H18   57   0.002   0.171   0.249
    1UNL    H19   58  -0.133   0.367   0.134
    1UNL    H20   59  -0.249   0.287   0.238
    1UNL    H21   60  -0.422   0.329   0.114
    1UNL    H22   61  -0.467   0.232  -0.031
    1UNL    H23   62  -0.443   0.122   0.252
    1UNL    H24   63  -0.590   0.141   0.153
    1UNL    H25   64  -0.249  -0.199  -0.066
    1UNL    H26   65  -0.428  -0.400  -0.079
    1UNL    H27   66  -0.632  -0.490   0.026
    1UNL    H28   67  -0.772  -0.327   0.158
    1UNL    H29   68  -0.701  -0.112   0.194
    1UNL    H30   69  -0.151  -0.019  -0.161
    1UNL    H31   70  -0.141   0.169  -0.143
    1UNL    H32   71   0.065  -0.007  -0.026
   0.00000   0.00000   0.00000   0.00000   0.00000   0.00000   0.00000   0.00000   0.00000
Generated with MDTraj, t= 35.0
 71
    1UNL     C1    1  -0.070   0.017  -0.496
    1UNL     O1    2  -0.057   0.053  -0.362
    1UNL     C2    3   0.078   0.079  -0.330
    1UNL     O2    4   0.169   0.083  -0.415
    1UNL     C3    5   0.111   0.117  -0.195
    1UNL     C4    6   0.225   0.188  -0.178
    1UNL     O3    7   0.270   0.230  -0.059
    1UNL     C5    8   0.191   0.211   0.062
    1UNL     O4    9   0.237   0.105   0.142
    1UNL     C6   10   0.311   0.017   0.071
    1UNL     O5   11   0.314  -0.111   0.133
    1UNL     C7   12   0.382  -0.209   0.048
    1UNL     C8   13   0.387  -0.344   0.119
    1UNL     O6   14   0.267  -0.364   0.178
    1UNL     C9   15   0.530  -0.165   0.021
    1UNL     O7   16   0.598  -0.150   0.144
    1UNL    C10   17   0.528  -0.018  -0.048
    1UNL     O8   18   0.452  -0.031  -0.170
    1UNL    C11   19   0.453   0.081   0.039
    1UNL     O9   20   0.521   0.102   0.161
    1UNL    C12   21   0.041   0.200   0.032
    1UNL    C13   22  -0.059   0.168   0.156
    1UNL    C14   23  -0.171   0.274   0.142
    1UNL     N1   24  -0.269   0.214   0.045
    1UNL    C15   25  -0.418   0.236   0.072
    1UNL    C16   26  -0.473   0.122   0.153
    1UNL    C17   27  -0.442  -0.004   0.087
    1UNL    C18   28  -0.322  -0.027   0.019
    1UNL     N2   29  -0.308  -0.157  -0.014
    1UNL    C19   30  -0.431  -0.220   0.014
    1UNL    C20   31  -0.484  -0.349  -0.003
    1UNL    C21   32  -0.608  -0.379   0.049
    1UNL    C22   33  -0.681  -0.291   0.124
    1UNL    C23   34  -0.631  -0.167   0.148
    1UNL    C24   35  -0.512  -0.131   0.090
    1UNL    C25   36  -0.221   0.081   0.018
    1UNL    C26   37  -0.133   0.089  -0.111
    1UNL    C27   38   0.016   0.095  -0.077
    1UNL    O10   39  -0.126   0.043   0.128
    1UNL     H1   40   0.021  -0.038  -0.530
    1UNL     H2   41  -0.079   0.116  -0.541
    1UNL     H3   42  -0.157  -0.045  -0.509
    1UNL     H4   43   0.288   0.220  -0.268
    1UNL     H5   44   0.206   0.302   0.129
    1UNL     H6   45   0.262  -0.003  -0.026
    1UNL     H7   46   0.328  -0.224  -0.044
    1UNL     H8   47   0.405  -0.411   0.039
    1UNL     H9   48   0.475  -0.336   0.184
    1UNL    H10   49   0.241  -0.282   0.222
    1UNL    H11   50   0.574  -0.257  -0.028
    1UNL    H12   51   0.539  -0.101   0.214
    1UNL    H13   52   0.633   0.014  -0.073
    1UNL    H14   53   0.416   0.050  -0.209
    1UNL    H15   54   0.434   0.170  -0.025
    1UNL    H16   55   0.457   0.150   0.218
    1UNL    H17   56   0.006   0.296  -0.018
    1UNL    H18   57  -0.009   0.165   0.249
    1UNL    H19   58  -0.144   0.383   0.123
    1UNL    H20   59  -0.217   0.282   0.237
    1UNL    H21   60  -0.434   0.329   0.125
    1UNL    H22   61  -0.469   0.243  -0.029
    1UNL    H23   62  -0.423   0.127   0.250
    1UNL    H24   63  -0.579   0.132   0.169
    1UNL    H25   64  -0.223  -0.200  -0.055
    1UNL    H26   65  -0.426  -0.425  -0.063
    1UNL    H27   66  -0.649  -0.479   0.037
    1UNL    H28   67  -0.773  -0.328   0.174
    1UNL    H29   68  -0.671  -0.093   0.221
    1UNL    H30   69  -0.137  -0.001  -0.176
    1UNL    H31   70  -0.141   0.183  -0.166
    1UNL    H32   71   0.052  -0.008  -0.034
   0.00000   0.00000   0.00000   0.00000   0.00000   0.00000   0.00000   0.00000   0.00000
Generated with MDTraj, t= 36.0
 71
    1UNL     C1    1  -0.053   0.010  -0.503
    1UNL     O1    2  -0.034   0.026  -0.370
    1UNL     C2    3   0.079   0.093  -0.343
    1UNL     O2    4   0.163   0.122  -0.428
    1UNL     C3    5   0.102   0.140  -0.205
    1UNL     C4    6   0.216   0.213  -0.185
    1UNL     O3    7   0.266   0.254  -0.069
    1UNL     C5    8   0.190   0.222   0.047
    1UNL     O4    9   0.217   0.102   0.122
    1UNL     C6   10   0.308   0.009   0.062
    1UNL     O5   11   0.315  -0.114   0.137
    1UNL     C7   12   0.392  -0.208   0.064
    1UNL     C8   13   0.380  -0.342   0.137
    1UNL     O6   14   0.250  -0.385   0.151
    1UNL     C9   15   0.538  -0.165   0.036
    1UNL     O7   16   0.618  -0.176   0.143
    1UNL    C10   17   0.533  -0.026  -0.033
    1UNL     O8   18   0.476  -0.034  -0.176
    1UNL    C11   19   0.453   0.061   0.047
    1UNL     O9   20   0.505   0.071   0.182
    1UNL    C12   21   0.039   0.212   0.016
    1UNL    C13   22  -0.054   0.188   0.147
    1UNL    C14   23  -0.177   0.278   0.141
    1UNL     N1   24  -0.278   0.216   0.050
    1UNL    C15   25  -0.420   0.240   0.073
    1UNL    C16   26  -0.480   0.130   0.163
    1UNL    C17   27  -0.446  -0.006   0.099
    1UNL    C18   28  -0.328  -0.027   0.033
    1UNL     N2   29  -0.315  -0.159  -0.013
    1UNL    C19   30  -0.432  -0.222   0.024
    1UNL    C20   31  -0.470  -0.354   0.010
    1UNL    C21   32  -0.589  -0.395   0.061
    1UNL    C22   33  -0.667  -0.304   0.132
    1UNL    C23   34  -0.644  -0.167   0.151
    1UNL    C24   35  -0.516  -0.130   0.095
    1UNL    C25   36  -0.219   0.081   0.024
    1UNL    C26   37  -0.142   0.088  -0.114
    1UNL    C27   38   0.009   0.104  -0.092
    1UNL    O10   39  -0.120   0.060   0.130
    1UNL     H1   40   0.033  -0.042  -0.547
    1UNL     H2   41  -0.053   0.113  -0.532
    1UNL     H3   42  -0.142  -0.048  -0.518
    1UNL     H4   43   0.274   0.230  -0.271
    1UNL     H5   44   0.217   0.305   0.120
    1UNL     H6   45   0.252  -0.029  -0.024
    1UNL     H7   46   0.346  -0.224  -0.031
    1UNL     H8   47   0.425  -0.420   0.079
    1UNL     H9   48   0.429  -0.334   0.234
    1UNL    H10   49   0.193  -0.321   0.203
    1UNL    H11   50   0.576  -0.240  -0.040
    1UNL    H12   51   0.633  -0.092   0.181
    1UNL    H13   52   0.632   0.023  -0.035
    1UNL    H14   53   0.435   0.047  -0.201
    1UNL    H15   54   0.444   0.161   0.000
    1UNL    H16   55   0.428   0.102   0.242
    1UNL    H17   56   0.004   0.303  -0.026
    1UNL    H18   57  -0.008   0.178   0.245
    1UNL    H19   58  -0.155   0.382   0.109
    1UNL    H20   59  -0.205   0.288   0.244
    1UNL    H21   60  -0.422   0.345   0.109
    1UNL    H22   61  -0.473   0.240  -0.025
    1UNL    H23   62  -0.437   0.122   0.264
    1UNL    H24   63  -0.586   0.134   0.176
    1UNL    H25   64  -0.226  -0.209  -0.020
    1UNL    H26   65  -0.408  -0.427  -0.035
    1UNL    H27   66  -0.629  -0.493   0.035
    1UNL    H28   67  -0.756  -0.336   0.182
    1UNL    H29   68  -0.715  -0.101   0.197
    1UNL    H30   69  -0.151  -0.009  -0.167
    1UNL    H31   70  -0.168   0.176  -0.173
    1UNL    H32   71   0.050   0.005  -0.047
   0.00000   0.00000   0.00000   0.00000   0.00000   0.00000   0.00000   0.00000   0.00000
Generated with MDTraj, t= 37.0
 71
    1UNL     C1    1  -0.047  -0.032  -0.492
    1UNL     O1    2  -0.047   0.025  -0.362
    1UNL     C2    3   0.057   0.110  -0.340
    1UNL     O2    4   0.115   0.164  -0.433
    1UNL     C3    5   0.102   0.140  -0.202
    1UNL     C4    6   0.219   0.206  -0.184
    1UNL     O3    7   0.270   0.240  -0.062
    1UNL     C5    8   0.189   0.219   0.049
    1UNL     O4    9   0.232   0.109   0.133
    1UNL     C6   10   0.307   0.010   0.061
    1UNL     O5   11   0.306  -0.117   0.120
    1UNL     C7   12   0.378  -0.216   0.047
    1UNL     C8   13   0.378  -0.354   0.113
    1UNL     O6   14   0.243  -0.386   0.141
    1UNL     C9   15   0.527  -0.177   0.037
    1UNL     O7   16   0.596  -0.190   0.163
    1UNL    C10   17   0.547  -0.029  -0.021
    1UNL     O8   18   0.513  -0.033  -0.164
    1UNL    C11   19   0.451   0.061   0.053
    1UNL     O9   20   0.500   0.080   0.188
    1UNL    C12   21   0.038   0.211   0.020
    1UNL    C13   22  -0.058   0.190   0.144
    1UNL    C14   23  -0.176   0.288   0.129
    1UNL     N1   24  -0.283   0.224   0.043
    1UNL    C15   25  -0.422   0.244   0.070
    1UNL    C16   26  -0.486   0.128   0.150
    1UNL    C17   27  -0.440  -0.003   0.089
    1UNL    C18   28  -0.322  -0.018   0.021
    1UNL     N2   29  -0.313  -0.153  -0.018
    1UNL    C19   30  -0.421  -0.222   0.029
    1UNL    C20   31  -0.454  -0.358   0.023
    1UNL    C21   32  -0.576  -0.397   0.075
    1UNL    C22   33  -0.667  -0.306   0.137
    1UNL    C23   34  -0.627  -0.177   0.147
    1UNL    C24   35  -0.502  -0.135   0.100
    1UNL    C25   36  -0.212   0.086   0.023
    1UNL    C26   37  -0.138   0.097  -0.117
    1UNL    C27   38   0.009   0.104  -0.089
    1UNL    O10   39  -0.122   0.066   0.128
    1UNL     H1   40   0.045  -0.091  -0.499
    1UNL     H2   41  -0.029   0.054  -0.552
    1UNL     H3   42  -0.128  -0.100  -0.513
    1UNL     H4   43   0.274   0.240  -0.267
    1UNL     H5   44   0.210   0.310   0.112
    1UNL     H6   45   0.258  -0.009  -0.035
    1UNL     H7   46   0.333  -0.222  -0.051
    1UNL     H8   47   0.422  -0.433   0.053
    1UNL     H9   48   0.421  -0.359   0.214
    1UNL    H10   49   0.192  -0.316   0.183
    1UNL    H11   50   0.592  -0.242  -0.026
    1UNL    H12   51   0.623  -0.097   0.192
    1UNL    H13   52   0.651  -0.002  -0.010
    1UNL    H14   53   0.528   0.048  -0.213
    1UNL    H15   54   0.459   0.158   0.001
    1UNL    H16   55   0.460   0.153   0.240
    1UNL    H17   56   0.014   0.302  -0.020
    1UNL    H18   57  -0.001   0.195   0.238
    1UNL    H19   58  -0.135   0.382   0.084
    1UNL    H20   59  -0.215   0.309   0.226
    1UNL    H21   60  -0.437   0.344   0.122
    1UNL    H22   61  -0.458   0.254  -0.032
    1UNL    H23   62  -0.452   0.125   0.254
    1UNL    H24   63  -0.594   0.129   0.153
    1UNL    H25   64  -0.250  -0.198  -0.083
    1UNL    H26   65  -0.397  -0.438  -0.018
    1UNL    H27   66  -0.604  -0.501   0.069
    1UNL    H28   67  -0.767  -0.342   0.154
    1UNL    H29   68  -0.692  -0.100   0.184
    1UNL    H30   69  -0.155   0.011  -0.184
    1UNL    H31   70  -0.175   0.189  -0.160
    1UNL    H32   71   0.041   0.007  -0.039
   0.00000   0.00000   0.00000   0.00000   0.00000   0.00000   0.00000   0.00000   0.00000
Generated with MDTraj, t= 38.0
 71
    1UNL     C1    1  -0.086  -0.026  -0.480
    1UNL     O1    2  -0.028  -0.006  -0.354
    1UNL     C2    3   0.059   0.099  -0.340
    1UNL     O2    4   0.100   0.152  -0.443
    1UNL     C3    5   0.097   0.135  -0.203
    1UNL     C4    6   0.213   0.203  -0.186
    1UNL     O3    7   0.269   0.233  -0.061
    1UNL     C5    8   0.189   0.213   0.054
    1UNL     O4    9   0.213   0.090   0.129
    1UNL     C6   10   0.307   0.008   0.055
    1UNL     O5   11   0.316  -0.119   0.108
    1UNL     C7   12   0.382  -0.213   0.031
    1UNL     C8   13   0.355  -0.357   0.073
    1UNL     O6   14   0.215  -0.359   0.120
    1UNL     C9   15   0.534  -0.177   0.044
    1UNL     O7   16   0.566  -0.189   0.188
    1UNL    C10   17   0.554  -0.030  -0.010
    1UNL     O8   18   0.528  -0.026  -0.151
    1UNL    C11   19   0.454   0.068   0.057
    1UNL     O9   20   0.498   0.099   0.195
    1UNL    C12   21   0.042   0.222   0.023
    1UNL    C13   22  -0.053   0.197   0.143
    1UNL    C14   23  -0.171   0.297   0.141
    1UNL     N1   24  -0.271   0.229   0.048
    1UNL    C15   25  -0.413   0.244   0.060
    1UNL    C16   26  -0.485   0.134   0.136
    1UNL    C17   27  -0.437  -0.002   0.091
    1UNL    C18   28  -0.316  -0.024   0.024
    1UNL     N2   29  -0.304  -0.151  -0.017
    1UNL    C19   30  -0.412  -0.220   0.030
    1UNL    C20   31  -0.441  -0.359   0.022
    1UNL    C21   32  -0.560  -0.399   0.077
    1UNL    C22   33  -0.649  -0.310   0.141
    1UNL    C23   34  -0.623  -0.179   0.146
    1UNL    C24   35  -0.504  -0.127   0.089
    1UNL    C25   36  -0.212   0.085   0.022
    1UNL    C26   37  -0.129   0.100  -0.109
    1UNL    C27   38   0.014   0.108  -0.083
    1UNL    O10   39  -0.116   0.065   0.130
    1UNL     H1   40   0.006  -0.022  -0.544
    1UNL     H2   41  -0.147   0.060  -0.502
    1UNL     H3   42  -0.131  -0.126  -0.478
    1UNL     H4   43   0.282   0.233  -0.273
    1UNL     H5   44   0.211   0.295   0.124
    1UNL     H6   45   0.285   0.008  -0.050
    1UNL     H7   46   0.347  -0.196  -0.071
    1UNL     H8   47   0.376  -0.443   0.006
    1UNL     H9   48   0.419  -0.374   0.162
    1UNL    H10   49   0.192  -0.266   0.152
    1UNL    H11   50   0.593  -0.247  -0.016
    1UNL    H12   51   0.503  -0.131   0.237
    1UNL    H13   52   0.652   0.010   0.008
    1UNL    H14   53   0.449   0.034  -0.155
    1UNL    H15   54   0.455   0.166   0.007
    1UNL    H16   55   0.449   0.041   0.250
    1UNL    H17   56   0.018   0.304  -0.031
    1UNL    H18   57   0.013   0.207   0.235
    1UNL    H19   58  -0.141   0.397   0.106
    1UNL    H20   59  -0.232   0.290   0.229
    1UNL    H21   60  -0.430   0.348   0.106
    1UNL    H22   61  -0.450   0.247  -0.040
    1UNL    H23   62  -0.464   0.135   0.244
    1UNL    H24   63  -0.592   0.144   0.123
    1UNL    H25   64  -0.219  -0.197  -0.041
    1UNL    H26   65  -0.361  -0.417  -0.028
    1UNL    H27   66  -0.596  -0.503   0.078
    1UNL    H28   67  -0.739  -0.348   0.192
    1UNL    H29   68  -0.694  -0.105   0.187
    1UNL    H30   69  -0.152   0.017  -0.177
    1UNL    H31   70  -0.164   0.190  -0.160
    1UNL    H32   71   0.044   0.010  -0.039
   0.00000   0.00000   0.00000   0.00000   0.00000   0.00000   0.00000   0.00000   0.00000
Generated with MDTraj, t= 39.0
 71
    1UNL     C1    1  -0.091  -0.020  -0.479
    1UNL     O1    2  -0.050   0.003  -0.350
    1UNL     C2    3   0.061   0.085  -0.337
    1UNL     O2    4   0.118   0.123  -0.438
    1UNL     C3    5   0.104   0.124  -0.204
    1UNL     C4    6   0.222   0.194  -0.191
    1UNL     O3    7   0.269   0.250  -0.077
    1UNL     C5    8   0.191   0.229   0.046
    1UNL     O4    9   0.228   0.123   0.129
    1UNL     C6   10   0.314   0.027   0.057
    1UNL     O5   11   0.297  -0.105   0.103
    1UNL     C7   12   0.368  -0.199   0.038
    1UNL     C8   13   0.331  -0.345   0.088
    1UNL     O6   14   0.200  -0.389   0.050
    1UNL     C9   15   0.524  -0.165   0.050
    1UNL     O7   16   0.568  -0.192   0.189
    1UNL    C10   17   0.560  -0.027  -0.005
    1UNL     O8   18   0.550  -0.016  -0.148
    1UNL    C11   19   0.464   0.066   0.070
    1UNL     O9   20   0.494   0.070   0.211
    1UNL    C12   21   0.040   0.222   0.011
    1UNL    C13   22  -0.055   0.202   0.145
    1UNL    C14   23  -0.177   0.297   0.140
    1UNL     N1   24  -0.265   0.226   0.039
    1UNL    C15   25  -0.411   0.245   0.071
    1UNL    C16   26  -0.484   0.128   0.145
    1UNL    C17   27  -0.440  -0.003   0.084
    1UNL    C18   28  -0.312  -0.022   0.037
    1UNL     N2   29  -0.290  -0.151   0.006
    1UNL    C19   30  -0.411  -0.219   0.041
    1UNL    C20   31  -0.444  -0.360   0.030
    1UNL    C21   32  -0.560  -0.409   0.079
    1UNL    C22   33  -0.655  -0.316   0.129
    1UNL    C23   34  -0.628  -0.183   0.141
    1UNL    C24   35  -0.507  -0.127   0.091
    1UNL    C25   36  -0.212   0.089   0.022
    1UNL    C26   37  -0.131   0.083  -0.112
    1UNL    C27   38   0.014   0.102  -0.090
    1UNL    O10   39  -0.110   0.067   0.137
    1UNL     H1   40   0.009  -0.039  -0.532
    1UNL     H2   41  -0.142   0.066  -0.520
    1UNL     H3   42  -0.161  -0.106  -0.471
    1UNL     H4   43   0.284   0.207  -0.279
    1UNL     H5   44   0.215   0.319   0.101
    1UNL     H6   45   0.282   0.032  -0.044
    1UNL     H7   46   0.337  -0.187  -0.070
    1UNL     H8   47   0.411  -0.415   0.054
    1UNL     H9   48   0.334  -0.351   0.200
    1UNL    H10   49   0.151  -0.308   0.071
    1UNL    H11   50   0.559  -0.240  -0.019
    1UNL    H12   51   0.580  -0.113   0.239
    1UNL    H13   52   0.665  -0.015   0.017
    1UNL    H14   53   0.602   0.061  -0.190
    1UNL    H15   54   0.469   0.169   0.036
    1UNL    H16   55   0.429   0.007   0.250
    1UNL    H17   56   0.022   0.311  -0.042
    1UNL    H18   57  -0.002   0.223   0.245
    1UNL    H19   58  -0.149   0.392   0.089
    1UNL    H20   59  -0.230   0.305   0.233
    1UNL    H21   60  -0.423   0.340   0.135
    1UNL    H22   61  -0.460   0.265  -0.020
    1UNL    H23   62  -0.453   0.134   0.250
    1UNL    H24   63  -0.593   0.129   0.143
    1UNL    H25   64  -0.194  -0.172  -0.013
    1UNL    H26   65  -0.371  -0.418  -0.015
    1UNL    H27   66  -0.569  -0.515   0.080
    1UNL    H28   67  -0.747  -0.347   0.171
    1UNL    H29   68  -0.691  -0.116   0.191
    1UNL    H30   69  -0.157  -0.010  -0.164
    1UNL    H31   70  -0.172   0.154  -0.185
    1UNL    H32   71   0.042   0.019  -0.027
   0.00000   0.00000   0.00000   0.00000   0.00000   0.00000   0.00000   0.00000   0.00000
Generated with MDTraj, t= 40.0
 71
    1UNL     C1    1  -0.078  -0.035  -0.485
    1UNL     O1    2  -0.070   0.029  -0.362
    1UNL     C2    3   0.055   0.082  -0.347
    1UNL     O2    4   0.142   0.085  -0.436
    1UNL     C3    5   0.091   0.136  -0.211
    1UNL     C4    6   0.216   0.193  -0.198
    1UNL     O3    7   0.271   0.248  -0.087
    1UNL     C5    8   0.196   0.241   0.043
    1UNL     O4    9   0.235   0.135   0.123
    1UNL     C6   10   0.321   0.034   0.063
    1UNL     O5   11   0.294  -0.101   0.098
    1UNL     C7   12   0.375  -0.196   0.028
    1UNL     C8   13   0.321  -0.343   0.054
    1UNL     O6   14   0.188  -0.357   0.019
    1UNL     C9   15   0.524  -0.167   0.060
    1UNL     O7   16   0.574  -0.206   0.186
    1UNL    C10   17   0.560  -0.024   0.017
    1UNL     O8   18   0.533  -0.007  -0.123
    1UNL    C11   19   0.464   0.067   0.094
    1UNL     O9   20   0.501   0.058   0.234
    1UNL    C12   21   0.041   0.233   0.005
    1UNL    C13   22  -0.048   0.212   0.129
    1UNL    C14   23  -0.181   0.300   0.129
    1UNL     N1   24  -0.272   0.220   0.043
    1UNL    C15   25  -0.423   0.232   0.061
    1UNL    C16   26  -0.481   0.116   0.147
    1UNL    C17   27  -0.426  -0.013   0.103
    1UNL    C18   28  -0.303  -0.033   0.051
    1UNL     N2   29  -0.289  -0.168   0.026
    1UNL    C19   30  -0.409  -0.237   0.058
    1UNL    C20   31  -0.445  -0.365   0.038
    1UNL    C21   32  -0.574  -0.398   0.071
    1UNL    C22   33  -0.664  -0.302   0.126
    1UNL    C23   34  -0.625  -0.169   0.142
    1UNL    C24   35  -0.497  -0.138   0.101
    1UNL    C25   36  -0.208   0.081   0.031
    1UNL    C26   37  -0.131   0.084  -0.109
    1UNL    C27   38   0.013   0.115  -0.092
    1UNL    O10   39  -0.101   0.077   0.134
    1UNL     H1   40  -0.016  -0.131  -0.468
    1UNL     H2   41  -0.019   0.020  -0.558
    1UNL     H3   42  -0.183  -0.039  -0.520
    1UNL     H4   43   0.272   0.207  -0.282
    1UNL     H5   44   0.218   0.332   0.094
    1UNL     H6   45   0.288   0.040  -0.039
    1UNL     H7   46   0.347  -0.170  -0.079
    1UNL     H8   47   0.383  -0.417  -0.000
    1UNL     H9   48   0.317  -0.374   0.160
    1UNL    H10   49   0.135  -0.291   0.065
    1UNL    H11   50   0.566  -0.230  -0.018
    1UNL    H12   51   0.673  -0.196   0.183
    1UNL    H13   52   0.666  -0.008   0.041
    1UNL    H14   53   0.443   0.029  -0.147
    1UNL    H15   54   0.482   0.172   0.073
    1UNL    H16   55   0.488  -0.038   0.256
    1UNL    H17   56   0.008   0.324  -0.048
    1UNL    H18   57   0.005   0.217   0.231
    1UNL    H19   58  -0.162   0.404   0.100
    1UNL    H20   59  -0.208   0.287   0.233
    1UNL    H21   60  -0.441   0.332   0.114
    1UNL    H22   61  -0.480   0.234  -0.029
    1UNL    H23   62  -0.458   0.125   0.253
    1UNL    H24   63  -0.591   0.119   0.138
    1UNL    H25   64  -0.200  -0.201  -0.006
    1UNL    H26   65  -0.376  -0.441  -0.006
    1UNL    H27   66  -0.604  -0.504   0.064
    1UNL    H28   67  -0.764  -0.345   0.146
    1UNL    H29   68  -0.691  -0.102   0.199
    1UNL    H30   69  -0.169   0.003  -0.172
    1UNL    H31   70  -0.165   0.166  -0.174
    1UNL    H32   71   0.051   0.029  -0.044
   0.00000   0.00000   0.00000   0.00000   0.00000   0.00000   0.00000   0.00000   0.00000
Generated with MDTraj, t= 41.0
 71
    1UNL     C1    1  -0.085  -0.022  -0.488
    1UNL     O1    2  -0.063   0.026  -0.356
    1UNL     C2    3   0.069   0.062  -0.339
    1UNL     O2    4   0.152   0.054  -0.428
    1UNL     C3    5   0.109   0.111  -0.206
    1UNL     C4    6   0.223   0.187  -0.197
    1UNL     O3    7   0.278   0.243  -0.079
    1UNL     C5    8   0.193   0.236   0.044
    1UNL     O4    9   0.228   0.131   0.129
    1UNL     C6   10   0.315   0.039   0.061
    1UNL     O5   11   0.285  -0.096   0.081
    1UNL     C7   12   0.364  -0.187  -0.005
    1UNL     C8   13   0.309  -0.324   0.023
    1UNL     O6   14   0.167  -0.321   0.043
    1UNL     C9   15   0.515  -0.172   0.034
    1UNL     O7   16   0.558  -0.213   0.163
    1UNL    C10   17   0.558  -0.019   0.019
    1UNL     O8   18   0.554   0.034  -0.119
    1UNL    C11   19   0.461   0.072   0.107
    1UNL     O9   20   0.477   0.048   0.247
    1UNL    C12   21   0.040   0.220   0.004
    1UNL    C13   22  -0.049   0.200   0.134
    1UNL    C14   23  -0.175   0.296   0.120
    1UNL     N1   24  -0.266   0.213   0.044
    1UNL    C15   25  -0.416   0.234   0.055
    1UNL    C16   26  -0.471   0.130   0.154
    1UNL    C17   27  -0.426  -0.011   0.118
    1UNL    C18   28  -0.306  -0.022   0.058
    1UNL     N2   29  -0.290  -0.156   0.020
    1UNL    C19   30  -0.405  -0.227   0.053
    1UNL    C20   31  -0.441  -0.359   0.036
    1UNL    C21   32  -0.569  -0.398   0.077
    1UNL    C22   33  -0.662  -0.313   0.131
    1UNL    C23   34  -0.625  -0.177   0.146
    1UNL    C24   35  -0.494  -0.137   0.105
    1UNL    C25   36  -0.200   0.075   0.036
    1UNL    C26   37  -0.128   0.063  -0.111
    1UNL    C27   38   0.022   0.088  -0.090
    1UNL    O10   39  -0.103   0.070   0.138
    1UNL     H1   40  -0.019  -0.113  -0.502
    1UNL     H2   41  -0.048   0.052  -0.554
    1UNL     H3   42  -0.192  -0.031  -0.511
    1UNL     H4   43   0.298   0.201  -0.281
    1UNL     H5   44   0.211   0.330   0.095
    1UNL     H6   45   0.300   0.052  -0.044
    1UNL     H7   46   0.331  -0.144  -0.103
    1UNL     H8   47   0.321  -0.399  -0.056
    1UNL     H9   48   0.362  -0.362   0.111
    1UNL    H10   49   0.132  -0.247   0.103
    1UNL    H11   50   0.574  -0.232  -0.037
    1UNL    H12   51   0.507  -0.146   0.224
    1UNL    H13   52   0.659  -0.007   0.067
    1UNL    H14   53   0.605   0.115  -0.120
    1UNL    H15   54   0.485   0.174   0.080
    1UNL    H16   55   0.388   0.081   0.281
    1UNL    H17   56   0.010   0.319  -0.049
    1UNL    H18   57   0.012   0.211   0.232
    1UNL    H19   58  -0.134   0.381   0.064
    1UNL    H20   59  -0.208   0.328   0.219
    1UNL    H21   60  -0.441   0.338   0.094
    1UNL    H22   61  -0.458   0.224  -0.042
    1UNL    H23   62  -0.430   0.162   0.249
    1UNL    H24   63  -0.582   0.128   0.166
    1UNL    H25   64  -0.214  -0.207  -0.021
    1UNL    H26   65  -0.370  -0.432   0.003
    1UNL    H27   66  -0.600  -0.498   0.053
    1UNL    H28   67  -0.760  -0.341   0.152
    1UNL    H29   68  -0.700  -0.110   0.180
    1UNL    H30   69  -0.150  -0.025  -0.172
    1UNL    H31   70  -0.172   0.134  -0.184
    1UNL    H32   71   0.058   0.009  -0.036
   0.00000   0.00000   0.00000   0.00000   0.00000   0.00000   0.00000   0.00000   0.00000
Generated with MDTraj, t= 42.0
 71
    1UNL     C1    1  -0.084  -0.017  -0.473
    1UNL     O1    2  -0.048  -0.003  -0.342
    1UNL     C2    3   0.078   0.050  -0.329
    1UNL     O2    4   0.160   0.044  -0.419
    1UNL     C3    5   0.107   0.118  -0.206
    1UNL     C4    6   0.218   0.194  -0.195
    1UNL     O3    7   0.264   0.262  -0.077
    1UNL     C5    8   0.185   0.253   0.041
    1UNL     O4    9   0.244   0.160   0.131
    1UNL     C6   10   0.324   0.056   0.070
    1UNL     O5   11   0.274  -0.080   0.092
    1UNL     C7   12   0.347  -0.171  -0.001
    1UNL     C8   13   0.305  -0.315   0.021
    1UNL     O6   14   0.161  -0.325   0.026
    1UNL     C9   15   0.504  -0.162   0.018
    1UNL     O7   16   0.527  -0.226   0.141
    1UNL    C10   17   0.565  -0.021   0.021
    1UNL     O8   18   0.589   0.031  -0.112
    1UNL    C11   19   0.472   0.067   0.112
    1UNL     O9   20   0.482   0.015   0.242
    1UNL    C12   21   0.043   0.225   0.007
    1UNL    C13   22  -0.048   0.209   0.130
    1UNL    C14   23  -0.171   0.301   0.115
    1UNL     N1   24  -0.270   0.213   0.041
    1UNL    C15   25  -0.421   0.230   0.056
    1UNL    C16   26  -0.475   0.117   0.141
    1UNL    C17   27  -0.427  -0.013   0.105
    1UNL    C18   28  -0.305  -0.033   0.038
    1UNL     N2   29  -0.291  -0.168   0.008
    1UNL    C19   30  -0.410  -0.234   0.040
    1UNL    C20   31  -0.447  -0.374   0.036
    1UNL    C21   32  -0.568  -0.403   0.094
    1UNL    C22   33  -0.650  -0.300   0.147
    1UNL    C23   34  -0.622  -0.167   0.157
    1UNL    C24   35  -0.496  -0.137   0.105
    1UNL    C25   36  -0.201   0.075   0.034
    1UNL    C26   37  -0.126   0.070  -0.105
    1UNL    C27   38   0.028   0.092  -0.082
    1UNL    O10   39  -0.104   0.072   0.137
    1UNL     H1   40   0.003  -0.058  -0.530
    1UNL     H2   41  -0.111   0.080  -0.501
    1UNL     H3   42  -0.174  -0.075  -0.481
    1UNL     H4   43   0.280   0.213  -0.287
    1UNL     H5   44   0.205   0.350   0.090
    1UNL     H6   45   0.317   0.063  -0.036
    1UNL     H7   46   0.334  -0.134  -0.104
    1UNL     H8   47   0.353  -0.371  -0.062
    1UNL     H9   48   0.340  -0.356   0.114
    1UNL    H10   49   0.124  -0.247   0.066
    1UNL    H11   50   0.571  -0.224  -0.048
    1UNL    H12   51   0.491  -0.174   0.210
    1UNL    H13   52   0.665  -0.027   0.074
    1UNL    H14   53   0.531  -0.013  -0.173
    1UNL    H15   54   0.517   0.167   0.098
    1UNL    H16   55   0.384   0.016   0.271
    1UNL    H17   56   0.008   0.315  -0.063
    1UNL    H18   57   0.011   0.223   0.228
    1UNL    H19   58  -0.146   0.390   0.056
    1UNL    H20   59  -0.228   0.319   0.207
    1UNL    H21   60  -0.444   0.329   0.101
    1UNL    H22   61  -0.470   0.226  -0.042
    1UNL    H23   62  -0.455   0.132   0.247
    1UNL    H24   63  -0.586   0.128   0.133
    1UNL    H25   64  -0.220  -0.232  -0.020
    1UNL    H26   65  -0.380  -0.447  -0.001
    1UNL    H27   66  -0.596  -0.508   0.097
    1UNL    H28   67  -0.755  -0.331   0.164
    1UNL    H29   68  -0.700  -0.096   0.177
    1UNL    H30   69  -0.134  -0.026  -0.156
    1UNL    H31   70  -0.177   0.127  -0.185
    1UNL    H32   71   0.060   0.009  -0.032
   0.00000   0.00000   0.00000   0.00000   0.00000   0.00000   0.00000   0.00000   0.00000
Generated with MDTraj, t= 43.0
 71
    1UNL     C1    1  -0.035  -0.077  -0.462
    1UNL     O1    2  -0.038   0.000  -0.347
    1UNL     C2    3   0.078   0.071  -0.330
    1UNL     O2    4   0.159   0.080  -0.421
    1UNL     C3    5   0.106   0.128  -0.204
    1UNL     C4    6   0.219   0.204  -0.192
    1UNL     O3    7   0.263   0.271  -0.083
    1UNL     C5    8   0.188   0.244   0.038
    1UNL     O4    9   0.246   0.148   0.131
    1UNL     C6   10   0.331   0.056   0.068
    1UNL     O5   11   0.291  -0.084   0.082
    1UNL     C7   12   0.351  -0.171  -0.007
    1UNL     C8   13   0.272  -0.299   0.008
    1UNL     O6   14   0.135  -0.269  -0.006
    1UNL     C9   15   0.504  -0.183   0.024
    1UNL     O7   16   0.521  -0.257   0.145
    1UNL    C10   17   0.556  -0.033   0.020
    1UNL     O8   18   0.560   0.016  -0.113
    1UNL    C11   19   0.472   0.073   0.111
    1UNL     O9   20   0.488   0.030   0.249
    1UNL    C12   21   0.042   0.215   0.015
    1UNL    C13   22  -0.052   0.202   0.140
    1UNL    C14   23  -0.172   0.297   0.126
    1UNL     N1   24  -0.264   0.219   0.037
    1UNL    C15   25  -0.410   0.229   0.042
    1UNL    C16   26  -0.472   0.125   0.136
    1UNL    C17   27  -0.433  -0.010   0.100
    1UNL    C18   28  -0.313  -0.033   0.045
    1UNL     N2   29  -0.283  -0.167   0.020
    1UNL    C19   30  -0.398  -0.232   0.063
    1UNL    C20   31  -0.441  -0.367   0.056
    1UNL    C21   32  -0.565  -0.405   0.091
    1UNL    C22   33  -0.655  -0.317   0.154
    1UNL    C23   34  -0.621  -0.187   0.157
    1UNL    C24   35  -0.496  -0.135   0.108
    1UNL    C25   36  -0.203   0.079   0.027
    1UNL    C26   37  -0.134   0.062  -0.106
    1UNL    C27   38   0.021   0.101  -0.086
    1UNL    O10   39  -0.112   0.073   0.138
    1UNL     H1   40   0.057  -0.140  -0.456
    1UNL     H2   41  -0.034  -0.010  -0.542
    1UNL     H3   42  -0.118  -0.146  -0.475
    1UNL     H4   43   0.262   0.218  -0.284
    1UNL     H5   44   0.195   0.335   0.107
    1UNL     H6   45   0.325   0.067  -0.040
    1UNL     H7   46   0.347  -0.151  -0.113
    1UNL     H8   47   0.288  -0.379  -0.067
    1UNL     H9   48   0.295  -0.336   0.105
    1UNL    H10   49   0.116  -0.182   0.043
    1UNL    H11   50   0.556  -0.248  -0.054
    1UNL    H12   51   0.499  -0.182   0.213
    1UNL    H13   52   0.660  -0.026   0.061
    1UNL    H14   53   0.585   0.111  -0.123
    1UNL    H15   54   0.499   0.181   0.098
    1UNL    H16   55   0.395   0.027   0.285
    1UNL    H17   56  -0.001   0.311  -0.042
    1UNL    H18   57  -0.001   0.213   0.240
    1UNL    H19   58  -0.154   0.389   0.071
    1UNL    H20   59  -0.227   0.310   0.222
    1UNL    H21   60  -0.444   0.330   0.062
    1UNL    H22   61  -0.432   0.206  -0.065
    1UNL    H23   62  -0.443   0.155   0.238
    1UNL    H24   63  -0.584   0.124   0.137
    1UNL    H25   64  -0.197  -0.208  -0.010
    1UNL    H26   65  -0.360  -0.434   0.020
    1UNL    H27   66  -0.590  -0.510   0.093
    1UNL    H28   67  -0.747  -0.357   0.185
    1UNL    H29   68  -0.692  -0.111   0.190
    1UNL    H30   69  -0.146  -0.040  -0.142
    1UNL    H31   70  -0.175   0.112  -0.196
    1UNL    H32   71   0.058   0.015  -0.042
   0.00000   0.00000   0.00000   0.00000   0.00000   0.00000   0.00000   0.00000   0.00000
Generated with MDTraj, t= 44.0
 71
    1UNL     C1    1   0.003  -0.096  -0.452
    1UNL     O1    2   0.016  -0.043  -0.326
    1UNL     C2    3   0.090   0.074  -0.327
    1UNL     O2    4   0.148   0.113  -0.429
    1UNL     C3    5   0.117   0.136  -0.199
    1UNL     C4    6   0.225   0.214  -0.187
    1UNL     O3    7   0.263   0.282  -0.077
    1UNL     C5    8   0.184   0.264   0.041
    1UNL     O4    9   0.247   0.165   0.122
    1UNL     C6   10   0.319   0.060   0.057
    1UNL     O5   11   0.255  -0.071   0.066
    1UNL     C7   12   0.321  -0.165  -0.019
    1UNL     C8   13   0.244  -0.301  -0.024
    1UNL     O6   14   0.109  -0.284  -0.027
    1UNL     C9   15   0.471  -0.184   0.021
    1UNL     O7   16   0.467  -0.239   0.152
    1UNL    C10   17   0.545  -0.052   0.016
    1UNL     O8   18   0.559  -0.003  -0.111
    1UNL    C11   19   0.469   0.062   0.096
    1UNL     O9   20   0.485   0.051   0.240
    1UNL    C12   21   0.042   0.228   0.012
    1UNL    C13   22  -0.041   0.195   0.145
    1UNL    C14   23  -0.163   0.286   0.142
    1UNL     N1   24  -0.252   0.217   0.049
    1UNL    C15   25  -0.405   0.225   0.051
    1UNL    C16   26  -0.482   0.117   0.129
    1UNL    C17   27  -0.429  -0.014   0.085
    1UNL    C18   28  -0.300  -0.037   0.048
    1UNL     N2   29  -0.279  -0.175   0.031
    1UNL    C19   30  -0.392  -0.243   0.072
    1UNL    C20   31  -0.427  -0.384   0.072
    1UNL    C21   32  -0.553  -0.409   0.116
    1UNL    C22   33  -0.652  -0.311   0.147
    1UNL    C23   34  -0.612  -0.180   0.148
    1UNL    C24   35  -0.486  -0.142   0.097
    1UNL    C25   36  -0.200   0.081   0.028
    1UNL    C26   37  -0.118   0.075  -0.094
    1UNL    C27   38   0.037   0.109  -0.076
    1UNL    O10   39  -0.100   0.070   0.138
    1UNL     H1   40   0.069  -0.189  -0.453
    1UNL     H2   41   0.035  -0.023  -0.522
    1UNL     H3   42  -0.095  -0.135  -0.486
    1UNL     H4   43   0.293   0.215  -0.271
    1UNL     H5   44   0.182   0.357   0.108
    1UNL     H6   45   0.329   0.074  -0.050
    1UNL     H7   46   0.316  -0.127  -0.120
    1UNL     H8   47   0.273  -0.370  -0.107
    1UNL     H9   48   0.257  -0.354   0.069
    1UNL    H10   49   0.085  -0.218   0.037
    1UNL    H11   50   0.527  -0.265  -0.038
    1UNL    H12   51   0.441  -0.161   0.211
    1UNL    H13   52   0.647  -0.062   0.059
    1UNL    H14   53   0.532   0.095  -0.128
    1UNL    H15   54   0.498   0.169   0.071
    1UNL    H16   55   0.399   0.072   0.273
    1UNL    H17   56  -0.004   0.325  -0.035
    1UNL    H18   57   0.027   0.195   0.232
    1UNL    H19   58  -0.148   0.385   0.101
    1UNL    H20   59  -0.196   0.298   0.248
    1UNL    H21   60  -0.424   0.325   0.082
    1UNL    H22   61  -0.441   0.221  -0.057
    1UNL    H23   62  -0.476   0.116   0.239
    1UNL    H24   63  -0.592   0.132   0.110
    1UNL    H25   64  -0.185  -0.204   0.024
    1UNL    H26   65  -0.360  -0.462   0.057
    1UNL    H27   66  -0.583  -0.511   0.135
    1UNL    H28   67  -0.752  -0.341   0.186
    1UNL    H29   68  -0.679  -0.106   0.182
    1UNL    H30   69  -0.123  -0.016  -0.153
    1UNL    H31   70  -0.146   0.150  -0.169
    1UNL    H32   71   0.090   0.031  -0.024
   0.00000   0.00000   0.00000   0.00000   0.00000   0.00000   0.00000   0.00000   0.00000
Generated with MDTraj, t= 45.0
 71
    1UNL     C1    1   0.025  -0.112  -0.429
    1UNL     O1    2   0.037  -0.046  -0.314
    1UNL     C2    3   0.104   0.072  -0.327
    1UNL     O2    4   0.156   0.107  -0.432
    1UNL     C3    5   0.118   0.159  -0.205
    1UNL     C4    6   0.212   0.254  -0.191
    1UNL     O3    7   0.246   0.324  -0.079
    1UNL     C5    8   0.181   0.268   0.042
    1UNL     O4    9   0.258   0.179   0.121
    1UNL     C6   10   0.318   0.073   0.043
    1UNL     O5   11   0.242  -0.052   0.054
    1UNL     C7   12   0.294  -0.164  -0.017
    1UNL     C8   13   0.198  -0.280  -0.005
    1UNL     O6   14   0.063  -0.247  -0.026
    1UNL     C9   15   0.439  -0.191   0.027
    1UNL     O7   16   0.452  -0.244   0.163
    1UNL    C10   17   0.531  -0.071   0.007
    1UNL     O8   18   0.568  -0.032  -0.123
    1UNL    C11   19   0.461   0.049   0.086
    1UNL     O9   20   0.455   0.013   0.225
    1UNL    C12   21   0.035   0.228   0.026
    1UNL    C13   22  -0.037   0.189   0.160
    1UNL    C14   23  -0.166   0.269   0.159
    1UNL     N1   24  -0.249   0.206   0.051
    1UNL    C15   25  -0.397   0.229   0.036
    1UNL    C16   26  -0.467   0.121   0.117
    1UNL    C17   27  -0.414  -0.015   0.085
    1UNL    C18   28  -0.282  -0.041   0.049
    1UNL     N2   29  -0.256  -0.175   0.032
    1UNL    C19   30  -0.373  -0.235   0.074
    1UNL    C20   31  -0.404  -0.371   0.080
    1UNL    C21   32  -0.532  -0.418   0.121
    1UNL    C22   33  -0.629  -0.320   0.145
    1UNL    C23   34  -0.599  -0.184   0.140
    1UNL    C24   35  -0.475  -0.142   0.099
    1UNL    C25   36  -0.190   0.072   0.030
    1UNL    C26   37  -0.119   0.058  -0.106
    1UNL    C27   38   0.030   0.119  -0.082
    1UNL    O10   39  -0.088   0.055   0.139
    1UNL     H1   40   0.125  -0.090  -0.481
    1UNL     H2   41  -0.053  -0.073  -0.489
    1UNL     H3   42   0.023  -0.226  -0.428
    1UNL     H4   43   0.273   0.291  -0.282
    1UNL     H5   44   0.179   0.356   0.114
    1UNL     H6   45   0.328   0.103  -0.060
    1UNL     H7   46   0.290  -0.115  -0.115
    1UNL     H8   47   0.227  -0.360  -0.080
    1UNL     H9   48   0.201  -0.323   0.094
    1UNL    H10   49   0.044  -0.156   0.019
    1UNL    H11   50   0.488  -0.271  -0.037
    1UNL    H12   51   0.457  -0.170   0.218
    1UNL    H13   52   0.628  -0.090   0.057
    1UNL    H14   53   0.497  -0.055  -0.190
    1UNL    H15   54   0.523   0.142   0.086
    1UNL    H16   55   0.381   0.068   0.270
    1UNL    H17   56  -0.028   0.319  -0.009
    1UNL    H18   57   0.021   0.195   0.251
    1UNL    H19   58  -0.153   0.374   0.141
    1UNL    H20   59  -0.213   0.271   0.263
    1UNL    H21   60  -0.418   0.327   0.068
    1UNL    H22   61  -0.417   0.218  -0.076
    1UNL    H23   62  -0.468   0.151   0.224
    1UNL    H24   63  -0.575   0.107   0.091
    1UNL    H25   64  -0.164  -0.212   0.017
    1UNL    H26   65  -0.330  -0.451   0.063
    1UNL    H27   66  -0.558  -0.519   0.146
    1UNL    H28   67  -0.730  -0.345   0.161
    1UNL    H29   68  -0.680  -0.118   0.174
    1UNL    H30   69  -0.104  -0.045  -0.140
    1UNL    H31   70  -0.159   0.106  -0.194
    1UNL    H32   71   0.099   0.036  -0.036
   0.00000   0.00000   0.00000   0.00000   0.00000   0.00000   0.00000   0.00000   0.00000
Generated with MDTraj, t= 46.0
 71
    1UNL     C1    1   0.060  -0.119  -0.421
    1UNL     O1    2   0.032  -0.029  -0.322
    1UNL     C2    3   0.106   0.086  -0.334
    1UNL     O2    4   0.179   0.099  -0.431
    1UNL     C3    5   0.115   0.166  -0.213
    1UNL     C4    6   0.210   0.260  -0.195
    1UNL     O3    7   0.252   0.335  -0.085
    1UNL     C5    8   0.196   0.283   0.038
    1UNL     O4    9   0.290   0.203   0.105
    1UNL     C6   10   0.326   0.081   0.042
    1UNL     O5   11   0.226  -0.021   0.064
    1UNL     C7   12   0.253  -0.140  -0.018
    1UNL     C8   13   0.144  -0.245   0.018
    1UNL     O6   14   0.011  -0.196   0.042
    1UNL     C9   15   0.395  -0.195   0.018
    1UNL     O7   16   0.398  -0.277   0.135
    1UNL    C10   17   0.508  -0.092   0.010
    1UNL     O8   18   0.562  -0.064  -0.122
    1UNL    C11   19   0.460   0.035   0.087
    1UNL     O9   20   0.466   0.014   0.223
    1UNL    C12   21   0.050   0.243   0.021
    1UNL    C13   22  -0.022   0.197   0.150
    1UNL    C14   23  -0.154   0.271   0.159
    1UNL     N1   24  -0.247   0.190   0.067
    1UNL    C15   25  -0.389   0.218   0.048
    1UNL    C16   26  -0.478   0.104   0.099
    1UNL    C17   27  -0.410  -0.034   0.090
    1UNL    C18   28  -0.285  -0.050   0.042
    1UNL     N2   29  -0.254  -0.182   0.031
    1UNL    C19   30  -0.364  -0.255   0.066
    1UNL    C20   31  -0.384  -0.393   0.074
    1UNL    C21   32  -0.510  -0.435   0.117
    1UNL    C22   33  -0.604  -0.342   0.154
    1UNL    C23   34  -0.592  -0.202   0.141
    1UNL    C24   35  -0.468  -0.162   0.092
    1UNL    C25   36  -0.176   0.067   0.039
    1UNL    C26   37  -0.106   0.077  -0.102
    1UNL    C27   38   0.047   0.126  -0.088
    1UNL    O10   39  -0.074   0.060   0.130
    1UNL     H1   40   0.097  -0.059  -0.510
    1UNL     H2   41  -0.018  -0.178  -0.460
    1UNL     H3   42   0.143  -0.189  -0.393
    1UNL     H4   43   0.264   0.286  -0.279
    1UNL     H5   44   0.200   0.378   0.095
    1UNL     H6   45   0.319   0.115  -0.060
    1UNL     H7   46   0.232  -0.098  -0.120
    1UNL     H8   47   0.128  -0.330  -0.055
    1UNL     H9   48   0.173  -0.294   0.111
    1UNL    H10   49   0.014  -0.108   0.082
    1UNL    H11   50   0.417  -0.265  -0.066
    1UNL    H12   51   0.379  -0.222   0.211
    1UNL    H13   52   0.597  -0.138   0.056
    1UNL    H14   53   0.485  -0.049  -0.180
    1UNL    H15   54   0.533   0.114   0.064
    1UNL    H16   55   0.429   0.090   0.271
    1UNL    H17   56  -0.011   0.327  -0.027
    1UNL    H18   57   0.044   0.197   0.232
    1UNL    H19   58  -0.151   0.372   0.126
    1UNL    H20   59  -0.208   0.279   0.258
    1UNL    H21   60  -0.404   0.305   0.106
    1UNL    H22   61  -0.404   0.230  -0.064
    1UNL    H23   62  -0.492   0.115   0.210
    1UNL    H24   63  -0.578   0.115   0.050
    1UNL    H25   64  -0.165  -0.229   0.030
    1UNL    H26   65  -0.305  -0.462   0.057
    1UNL    H27   66  -0.532  -0.541   0.122
    1UNL    H28   67  -0.707  -0.375   0.179
    1UNL    H29   68  -0.666  -0.126   0.156
    1UNL    H30   69  -0.106  -0.021  -0.150
    1UNL    H31   70  -0.160   0.145  -0.166
    1UNL    H32   71   0.108   0.038  -0.049
   0.00000   0.00000   0.00000   0.00000   0.00000   0.00000   0.00000   0.00000   0.00000
Generated with MDTraj, t= 47.0
 71
    1UNL     C1    1   0.051  -0.109  -0.452
    1UNL     O1    2   0.037  -0.048  -0.328
    1UNL     C2    3   0.121   0.072  -0.326
    1UNL     O2    4   0.196   0.090  -0.423
    1UNL     C3    5   0.128   0.157  -0.208
    1UNL     C4    6   0.227   0.255  -0.200
    1UNL     O3    7   0.255   0.329  -0.086
    1UNL     C5    8   0.196   0.280   0.040
    1UNL     O4    9   0.283   0.201   0.110
    1UNL     C6   10   0.315   0.080   0.038
    1UNL     O5   11   0.225  -0.032   0.075
    1UNL     C7   12   0.244  -0.156  -0.002
    1UNL     C8   13   0.134  -0.257   0.032
    1UNL     O6   14   0.011  -0.191   0.047
    1UNL     C9   15   0.386  -0.210   0.033
    1UNL     O7   16   0.400  -0.251   0.164
    1UNL    C10   17   0.495  -0.096   0.004
    1UNL     O8   18   0.498  -0.066  -0.137
    1UNL    C11   19   0.456   0.035   0.080
    1UNL     O9   20   0.456   0.008   0.214
    1UNL    C12   21   0.051   0.242   0.019
    1UNL    C13   22  -0.026   0.198   0.146
    1UNL    C14   23  -0.158   0.278   0.157
    1UNL     N1   24  -0.255   0.206   0.062
    1UNL    C15   25  -0.402   0.219   0.072
    1UNL    C16   26  -0.459   0.097   0.135
    1UNL    C17   27  -0.404  -0.028   0.082
    1UNL    C18   28  -0.271  -0.034   0.035
    1UNL     N2   29  -0.245  -0.167   0.025
    1UNL    C19   30  -0.349  -0.248   0.061
    1UNL    C20   31  -0.368  -0.383   0.071
    1UNL    C21   32  -0.487  -0.438   0.109
    1UNL    C22   33  -0.598  -0.354   0.139
    1UNL    C23   34  -0.580  -0.218   0.135
    1UNL    C24   35  -0.458  -0.165   0.095
    1UNL    C25   36  -0.177   0.079   0.031
    1UNL    C26   37  -0.116   0.100  -0.113
    1UNL    C27   38   0.040   0.133  -0.093
    1UNL    O10   39  -0.066   0.067   0.125
    1UNL     H1   40  -0.046  -0.091  -0.503
    1UNL     H2   41   0.076  -0.209  -0.461
    1UNL     H3   42   0.129  -0.059  -0.515
    1UNL     H4   43   0.280   0.277  -0.288
    1UNL     H5   44   0.190   0.368   0.102
    1UNL     H6   45   0.300   0.120  -0.060
    1UNL     H7   46   0.239  -0.128  -0.113
    1UNL     H8   47   0.132  -0.335  -0.051
    1UNL     H9   48   0.153  -0.313   0.123
    1UNL    H10   49   0.036  -0.105   0.086
    1UNL    H11   50   0.402  -0.297  -0.030
    1UNL    H12   51   0.391  -0.170   0.229
    1UNL    H13   52   0.593  -0.134   0.030
    1UNL    H14   53   0.432   0.001  -0.149
    1UNL    H15   54   0.529   0.110   0.050
    1UNL    H16   55   0.433   0.087   0.260
    1UNL    H17   56  -0.010   0.331  -0.019
    1UNL    H18   57   0.046   0.209   0.223
    1UNL    H19   58  -0.144   0.382   0.136
    1UNL    H20   59  -0.197   0.285   0.263
    1UNL    H21   60  -0.416   0.297   0.140
    1UNL    H22   61  -0.449   0.244  -0.028
    1UNL    H23   62  -0.425   0.108   0.243
    1UNL    H24   63  -0.569   0.087   0.132
    1UNL    H25   64  -0.160  -0.205  -0.011
    1UNL    H26   65  -0.283  -0.448   0.055
    1UNL    H27   66  -0.490  -0.545   0.110
    1UNL    H28   67  -0.693  -0.398   0.144
    1UNL    H29   68  -0.667  -0.153   0.128
    1UNL    H30   69  -0.121  -0.001  -0.157
    1UNL    H31   70  -0.177   0.169  -0.168
    1UNL    H32   71   0.081   0.044  -0.064
   0.00000   0.00000   0.00000   0.00000   0.00000   0.00000   0.00000   0.00000   0.00000
Generated with MDTraj, t= 48.0
 71
    1UNL     C1    1   0.031  -0.095  -0.443
    1UNL     O1    2   0.013  -0.028  -0.329
    1UNL     C2    3   0.109   0.073  -0.329
    1UNL     O2    4   0.194   0.073  -0.423
    1UNL     C3    5   0.122   0.155  -0.204
    1UNL     C4    6   0.226   0.238  -0.186
    1UNL     O3    7   0.262   0.313  -0.080
    1UNL     C5    8   0.196   0.281   0.050
    1UNL     O4    9   0.254   0.181   0.123
    1UNL     C6   10   0.294   0.062   0.050
    1UNL     O5   11   0.228  -0.053   0.099
    1UNL     C7   12   0.262  -0.169   0.023
    1UNL     C8   13   0.165  -0.280   0.067
    1UNL     O6   14   0.032  -0.266   0.031
    1UNL     C9   15   0.415  -0.209   0.042
    1UNL     O7   16   0.436  -0.244   0.175
    1UNL    C10   17   0.500  -0.082  -0.007
    1UNL     O8   18   0.517  -0.060  -0.149
    1UNL    C11   19   0.445   0.040   0.066
    1UNL     O9   20   0.470   0.036   0.207
    1UNL    C12   21   0.049   0.250   0.011
    1UNL    C13   22  -0.035   0.217   0.137
    1UNL    C14   23  -0.168   0.289   0.134
    1UNL     N1   24  -0.253   0.218   0.044
    1UNL    C15   25  -0.398   0.225   0.079
    1UNL    C16   26  -0.450   0.107   0.161
    1UNL    C17   27  -0.404  -0.022   0.097
    1UNL    C18   28  -0.286  -0.026   0.031
    1UNL     N2   29  -0.261  -0.154  -0.005
    1UNL    C19   30  -0.370  -0.235   0.038
    1UNL    C20   31  -0.380  -0.375   0.018
    1UNL    C21   32  -0.488  -0.429   0.070
    1UNL    C22   33  -0.573  -0.347   0.153
    1UNL    C23   34  -0.568  -0.211   0.168
    1UNL    C24   35  -0.460  -0.153   0.098
    1UNL    C25   36  -0.192   0.082   0.017
    1UNL    C26   37  -0.115   0.086  -0.117
    1UNL    C27   38   0.039   0.124  -0.090
    1UNL    O10   39  -0.088   0.078   0.128
    1UNL     H1   40  -0.041  -0.177  -0.443
    1UNL     H2   41   0.127  -0.125  -0.462
    1UNL     H3   42   0.009  -0.027  -0.528
    1UNL     H4   43   0.291   0.254  -0.279
    1UNL     H5   44   0.200   0.366   0.116
    1UNL     H6   45   0.273   0.087  -0.051
    1UNL     H7   46   0.250  -0.158  -0.090
    1UNL     H8   47   0.194  -0.381   0.027
    1UNL     H9   48   0.186  -0.286   0.173
    1UNL    H10   49   0.022  -0.167   0.051
    1UNL    H11   50   0.438  -0.292  -0.021
    1UNL    H12   51   0.410  -0.171   0.233
    1UNL    H13   52   0.599  -0.092   0.039
    1UNL    H14   53   0.472   0.016  -0.184
    1UNL    H15   54   0.504   0.121   0.025
    1UNL    H16   55   0.441   0.122   0.246
    1UNL    H17   56  -0.000   0.336  -0.039
    1UNL    H18   57   0.023   0.226   0.226
    1UNL    H19   58  -0.159   0.390   0.098
    1UNL    H20   59  -0.205   0.301   0.239
    1UNL    H21   60  -0.418   0.316   0.129
    1UNL    H22   61  -0.455   0.237  -0.016
    1UNL    H23   62  -0.414   0.094   0.269
    1UNL    H24   63  -0.560   0.104   0.162
    1UNL    H25   64  -0.172  -0.183  -0.044
    1UNL    H26   65  -0.297  -0.422  -0.034
    1UNL    H27   66  -0.502  -0.537   0.070
    1UNL    H28   67  -0.657  -0.398   0.200
    1UNL    H29   68  -0.631  -0.146   0.225
    1UNL    H30   69  -0.129  -0.013  -0.165
    1UNL    H31   70  -0.164   0.165  -0.171
    1UNL    H32   71   0.081   0.035  -0.044
   0.00000   0.00000   0.00000   0.00000   0.00000   0.00000   0.00000   0.00000   0.00000
Generated with MDTraj, t= 49.0
 71
    1UNL     C1    1  -0.009  -0.091  -0.446
    1UNL     O1    2  -0.007  -0.011  -0.332
    1UNL     C2    3   0.098   0.076  -0.332
    1UNL     O2    4   0.176   0.072  -0.429
    1UNL     C3    5   0.131   0.149  -0.206
    1UNL     C4    6   0.241   0.218  -0.194
    1UNL     O3    7   0.274   0.274  -0.078
    1UNL     C5    8   0.190   0.268   0.049
    1UNL     O4    9   0.252   0.166   0.130
    1UNL     C6   10   0.303   0.055   0.060
    1UNL     O5   11   0.248  -0.069   0.109
    1UNL     C7   12   0.291  -0.178   0.028
    1UNL     C8   13   0.201  -0.301   0.052
    1UNL     O6   14   0.074  -0.254   0.072
    1UNL     C9   15   0.438  -0.204   0.050
    1UNL     O7   16   0.455  -0.238   0.183
    1UNL    C10   17   0.520  -0.072   0.002
    1UNL     O8   18   0.518  -0.053  -0.133
    1UNL    C11   19   0.463   0.050   0.071
    1UNL     O9   20   0.493   0.050   0.214
    1UNL    C12   21   0.043   0.249   0.010
    1UNL    C13   22  -0.051   0.218   0.131
    1UNL    C14   23  -0.183   0.304   0.121
    1UNL     N1   24  -0.271   0.220   0.043
    1UNL    C15   25  -0.416   0.214   0.076
    1UNL    C16   26  -0.443   0.099   0.170
    1UNL    C17   27  -0.396  -0.026   0.103
    1UNL    C18   28  -0.284  -0.026   0.027
    1UNL     N2   29  -0.278  -0.144  -0.047
    1UNL    C19   30  -0.374  -0.233   0.020
    1UNL    C20   31  -0.414  -0.364  -0.005
    1UNL    C21   32  -0.522  -0.419   0.061
    1UNL    C22   33  -0.596  -0.344   0.159
    1UNL    C23   34  -0.553  -0.220   0.183
    1UNL    C24   35  -0.454  -0.156   0.108
    1UNL    C25   36  -0.196   0.090   0.012
    1UNL    C26   37  -0.123   0.111  -0.124
    1UNL    C27   38   0.033   0.133  -0.097
    1UNL    O10   39  -0.102   0.080   0.122
    1UNL     H1   40  -0.026  -0.196  -0.417
    1UNL     H2   41   0.083  -0.083  -0.494
    1UNL     H3   42  -0.087  -0.063  -0.522
    1UNL     H4   43   0.307   0.236  -0.280
    1UNL     H5   44   0.207   0.362   0.100
    1UNL     H6   45   0.281   0.076  -0.041
    1UNL     H7   46   0.278  -0.155  -0.081
    1UNL     H8   47   0.204  -0.362  -0.043
    1UNL     H9   48   0.231  -0.367   0.131
    1UNL    H10   49   0.075  -0.179   0.132
    1UNL    H11   50   0.472  -0.290  -0.004
    1UNL    H12   51   0.448  -0.159   0.239
    1UNL    H13   52   0.622  -0.086   0.038
    1UNL    H14   53   0.436  -0.011  -0.171
    1UNL    H15   54   0.510   0.134   0.022
    1UNL    H16   55   0.457   0.133   0.255
    1UNL    H17   56   0.005   0.338  -0.040
    1UNL    H18   57   0.000   0.237   0.223
    1UNL    H19   58  -0.170   0.398   0.067
    1UNL    H20   59  -0.218   0.326   0.223
    1UNL    H21   60  -0.444   0.307   0.121
    1UNL    H22   61  -0.476   0.206  -0.016
    1UNL    H23   62  -0.388   0.115   0.269
    1UNL    H24   63  -0.550   0.077   0.193
    1UNL    H25   64  -0.200  -0.163  -0.108
    1UNL    H26   65  -0.351  -0.421  -0.069
    1UNL    H27   66  -0.548  -0.523   0.051
    1UNL    H28   67  -0.674  -0.396   0.215
    1UNL    H29   68  -0.602  -0.165   0.262
    1UNL    H30   69  -0.149   0.021  -0.178
    1UNL    H31   70  -0.172   0.198  -0.166
    1UNL    H32   71   0.061   0.049  -0.030
   0.00000   0.00000   0.00000   0.00000   0.00000   0.00000   0.00000   0.00000   0.00000
Generated with MDTraj, t= 50.0
 71
    1UNL     C1    1  -0.036  -0.058  -0.476
    1UNL     O1    2  -0.004  -0.027  -0.344
    1UNL     C2    3   0.090   0.067  -0.338
    1UNL     O2    4   0.162   0.076  -0.438
    1UNL     C3    5   0.117   0.122  -0.207
    1UNL     C4    6   0.230   0.199  -0.204
    1UNL     O3    7   0.273   0.278  -0.098
    1UNL     C5    8   0.197   0.270   0.029
    1UNL     O4    9   0.249   0.173   0.123
    1UNL     C6   10   0.298   0.057   0.063
    1UNL     O5   11   0.249  -0.063   0.111
    1UNL     C7   12   0.298  -0.176   0.035
    1UNL     C8   13   0.229  -0.300   0.096
    1UNL     O6   14   0.088  -0.290   0.078
    1UNL     C9   15   0.452  -0.197   0.049
    1UNL     O7   16   0.496  -0.242   0.175
    1UNL    C10   17   0.525  -0.060   0.011
    1UNL     O8   18   0.534  -0.029  -0.123
    1UNL    C11   19   0.454   0.055   0.084
    1UNL     O9   20   0.478   0.042   0.226
    1UNL    C12   21   0.053   0.226   0.008
    1UNL    C13   22  -0.047   0.219   0.124
    1UNL    C14   23  -0.170   0.313   0.108
    1UNL     N1   24  -0.269   0.227   0.039
    1UNL    C15   25  -0.407   0.222   0.108
    1UNL    C16   26  -0.428   0.096   0.193
    1UNL    C17   27  -0.402  -0.020   0.111
    1UNL    C18   28  -0.294  -0.024   0.025
    1UNL     N2   29  -0.293  -0.147  -0.038
    1UNL    C19   30  -0.391  -0.230   0.013
    1UNL    C20   31  -0.419  -0.366  -0.018
    1UNL    C21   32  -0.526  -0.419   0.050
    1UNL    C22   33  -0.605  -0.335   0.128
    1UNL    C23   34  -0.567  -0.209   0.165
    1UNL    C24   35  -0.462  -0.150   0.102
    1UNL    C25   36  -0.201   0.093   0.028
    1UNL    C26   37  -0.124   0.094  -0.112
    1UNL    C27   38   0.034   0.106  -0.087
    1UNL    O10   39  -0.107   0.091   0.137
    1UNL     H1   40  -0.113  -0.140  -0.482
    1UNL     H2   41   0.058  -0.094  -0.510
    1UNL     H3   42  -0.072   0.030  -0.539
    1UNL     H4   43   0.287   0.220  -0.285
    1UNL     H5   44   0.198   0.370   0.077
    1UNL     H6   45   0.278   0.063  -0.041
    1UNL     H7   46   0.263  -0.166  -0.070
    1UNL     H8   47   0.262  -0.403   0.065
    1UNL     H9   48   0.246  -0.302   0.201
    1UNL    H10   49   0.035  -0.204   0.091
    1UNL    H11   50   0.491  -0.268  -0.021
    1UNL    H12   51   0.476  -0.167   0.244
    1UNL    H13   52   0.629  -0.058   0.047
    1UNL    H14   53   0.475   0.051  -0.144
    1UNL    H15   54   0.493   0.155   0.055
    1UNL    H16   55   0.410   0.095   0.267
    1UNL    H17   56   0.012   0.297  -0.062
    1UNL    H18   57   0.009   0.247   0.214
    1UNL    H19   58  -0.142   0.400   0.044
    1UNL    H20   59  -0.209   0.334   0.207
    1UNL    H21   60  -0.423   0.311   0.169
    1UNL    H22   61  -0.486   0.224   0.034
    1UNL    H23   62  -0.359   0.094   0.283
    1UNL    H24   63  -0.534   0.105   0.229
    1UNL    H25   64  -0.211  -0.201  -0.064
    1UNL    H26   65  -0.352  -0.423  -0.083
    1UNL    H27   66  -0.539  -0.525   0.042
    1UNL    H28   67  -0.696  -0.372   0.165
    1UNL    H29   68  -0.626  -0.157   0.240
    1UNL    H30   69  -0.155   0.003  -0.162
    1UNL    H31   70  -0.172   0.178  -0.162
    1UNL    H32   71   0.062   0.011  -0.029
   0.00000   0.00000   0.00000   0.00000   0.00000   0.00000   0.00000   0.00000   0.00000
Generated with MDTraj, t= 51.0
 71
    1UNL     C1    1  -0.055  -0.071  -0.477
    1UNL     O1    2  -0.032  -0.003  -0.356
    1UNL     C2    3   0.075   0.079  -0.356
    1UNL     O2    4   0.149   0.079  -0.454
    1UNL     C3    5   0.111   0.135  -0.229
    1UNL     C4    6   0.236   0.198  -0.224
    1UNL     O3    7   0.277   0.255  -0.103
    1UNL     C5    8   0.195   0.261   0.014
    1UNL     O4    9   0.249   0.184   0.123
    1UNL     C6   10   0.306   0.061   0.077
    1UNL     O5   11   0.250  -0.068   0.117
    1UNL     C7   12   0.302  -0.177   0.047
    1UNL     C8   13   0.246  -0.310   0.099
    1UNL     O6   14   0.103  -0.307   0.082
    1UNL     C9   15   0.459  -0.178   0.057
    1UNL     O7   16   0.501  -0.233   0.183
    1UNL    C10   17   0.530  -0.041   0.019
    1UNL     O8   18   0.532  -0.013  -0.122
    1UNL    C11   19   0.458   0.061   0.109
    1UNL     O9   20   0.482   0.032   0.246
    1UNL    C12   21   0.048   0.237  -0.006
    1UNL    C13   22  -0.035   0.209   0.125
    1UNL    C14   23  -0.159   0.302   0.127
    1UNL     N1   24  -0.259   0.221   0.054
    1UNL    C15   25  -0.401   0.224   0.093
    1UNL    C16   26  -0.440   0.101   0.179
    1UNL    C17   27  -0.398  -0.032   0.118
    1UNL    C18   28  -0.284  -0.037   0.045
    1UNL     N2   29  -0.264  -0.162  -0.009
    1UNL    C19   30  -0.379  -0.234   0.020
    1UNL    C20   31  -0.433  -0.360  -0.012
    1UNL    C21   32  -0.561  -0.402   0.026
    1UNL    C22   33  -0.628  -0.332   0.118
    1UNL    C23   34  -0.585  -0.204   0.160
    1UNL    C24   35  -0.466  -0.150   0.098
    1UNL    C25   36  -0.190   0.085   0.034
    1UNL    C26   37  -0.133   0.092  -0.116
    1UNL    C27   38   0.028   0.122  -0.105
    1UNL    O10   39  -0.087   0.076   0.135
    1UNL     H1   40  -0.166  -0.086  -0.500
    1UNL     H2   41   0.001  -0.161  -0.459
    1UNL     H3   42  -0.014  -0.011  -0.566
    1UNL     H4   43   0.301   0.218  -0.314
    1UNL     H5   44   0.205   0.368   0.047
    1UNL     H6   45   0.292   0.051  -0.028
    1UNL     H7   46   0.266  -0.168  -0.056
    1UNL     H8   47   0.290  -0.400   0.050
    1UNL     H9   48   0.276  -0.321   0.203
    1UNL    H10   49   0.081  -0.223   0.121
    1UNL    H11   50   0.495  -0.257  -0.009
    1UNL    H12   51   0.489  -0.167   0.248
    1UNL    H13   52   0.638  -0.045   0.039
    1UNL    H14   53   0.435   0.003  -0.146
    1UNL    H15   54   0.503   0.162   0.087
    1UNL    H16   55   0.452   0.101   0.305
    1UNL    H17   56   0.006   0.321  -0.053
    1UNL    H18   57   0.029   0.222   0.215
    1UNL    H19   58  -0.139   0.388   0.057
    1UNL    H20   59  -0.196   0.317   0.227
    1UNL    H21   60  -0.430   0.319   0.140
    1UNL    H22   61  -0.455   0.220   0.001
    1UNL    H23   62  -0.390   0.127   0.277
    1UNL    H24   63  -0.552   0.101   0.198
    1UNL    H25   64  -0.199  -0.200  -0.077
    1UNL    H26   65  -0.368  -0.423  -0.068
    1UNL    H27   66  -0.593  -0.502  -0.009
    1UNL    H28   67  -0.729  -0.365   0.154
    1UNL    H29   68  -0.640  -0.146   0.232
    1UNL    H30   69  -0.166   0.001  -0.165
    1UNL    H31   70  -0.192   0.169  -0.170
    1UNL    H32   71   0.071   0.036  -0.040
   0.00000   0.00000   0.00000   0.00000   0.00000   0.00000   0.00000   0.00000   0.00000
Generated with MDTraj, t= 52.0
 71
    1UNL     C1    1  -0.078  -0.056  -0.471
    1UNL     O1    2  -0.058   0.021  -0.352
    1UNL     C2    3   0.057   0.087  -0.359
    1UNL     O2    4   0.137   0.079  -0.453
    1UNL     C3    5   0.100   0.139  -0.226
    1UNL     C4    6   0.225   0.190  -0.214
    1UNL     O3    7   0.276   0.252  -0.104
    1UNL     C5    8   0.194   0.261   0.021
    1UNL     O4    9   0.247   0.172   0.123
    1UNL     C6   10   0.315   0.057   0.061
    1UNL     O5   11   0.266  -0.070   0.115
    1UNL     C7   12   0.318  -0.176   0.041
    1UNL     C8   13   0.237  -0.300   0.073
    1UNL     O6   14   0.104  -0.264   0.086
    1UNL     C9   15   0.471  -0.180   0.067
    1UNL     O7   16   0.505  -0.215   0.203
    1UNL    C10   17   0.538  -0.047   0.031
    1UNL     O8   18   0.534  -0.033  -0.113
    1UNL    C11   19   0.466   0.061   0.102
    1UNL     O9   20   0.484   0.066   0.240
    1UNL    C12   21   0.046   0.223   0.002
    1UNL    C13   22  -0.026   0.191   0.139
    1UNL    C14   23  -0.151   0.283   0.140
    1UNL     N1   24  -0.245   0.204   0.049
    1UNL    C15   25  -0.393   0.218   0.072
    1UNL    C16   26  -0.438   0.107   0.167
    1UNL    C17   27  -0.402  -0.026   0.107
    1UNL    C18   28  -0.283  -0.046   0.045
    1UNL     N2   29  -0.264  -0.178   0.006
    1UNL    C19   30  -0.386  -0.241   0.026
    1UNL    C20   31  -0.426  -0.369  -0.003
    1UNL    C21   32  -0.555  -0.400   0.034
    1UNL    C22   33  -0.643  -0.307   0.103
    1UNL    C23   34  -0.602  -0.180   0.136
    1UNL    C24   35  -0.474  -0.148   0.092
    1UNL    C25   36  -0.186   0.068   0.028
    1UNL    C26   37  -0.125   0.071  -0.111
    1UNL    C27   38   0.030   0.103  -0.101
    1UNL    O10   39  -0.078   0.058   0.133
    1UNL     H1   40  -0.181  -0.099  -0.477
    1UNL     H2   41   0.003  -0.124  -0.478
    1UNL     H3   42  -0.078   0.020  -0.556
    1UNL     H4   43   0.286   0.179  -0.310
    1UNL     H5   44   0.209   0.366   0.061
    1UNL     H6   45   0.299   0.052  -0.046
    1UNL     H7   46   0.299  -0.152  -0.062
    1UNL     H8   47   0.259  -0.375  -0.007
    1UNL     H9   48   0.267  -0.342   0.169
    1UNL    H10   49   0.120  -0.173   0.131
    1UNL    H11   50   0.514  -0.266   0.012
    1UNL    H12   51   0.476  -0.136   0.257
    1UNL    H13   52   0.646  -0.056   0.054
    1UNL    H14   53   0.604   0.033  -0.140
    1UNL    H15   54   0.504   0.160   0.063
    1UNL    H16   55   0.419   0.138   0.271
    1UNL    H17   56  -0.005   0.303  -0.038
    1UNL    H18   57   0.035   0.190   0.235
    1UNL    H19   58  -0.135   0.384   0.088
    1UNL    H20   59  -0.196   0.275   0.236
    1UNL    H21   60  -0.410   0.320   0.112
    1UNL    H22   61  -0.448   0.214  -0.018
    1UNL    H23   62  -0.396   0.127   0.268
    1UNL    H24   63  -0.550   0.123   0.178
    1UNL    H25   64  -0.196  -0.208  -0.060
    1UNL    H26   65  -0.367  -0.451  -0.043
    1UNL    H27   66  -0.591  -0.496   0.007
    1UNL    H28   67  -0.739  -0.344   0.110
    1UNL    H29   68  -0.682  -0.112   0.165
    1UNL    H30   69  -0.154  -0.017  -0.168
    1UNL    H31   70  -0.177   0.154  -0.165
    1UNL    H32   71   0.092   0.016  -0.053
   0.00000   0.00000   0.00000   0.00000   0.00000   0.00000   0.00000   0.00000   0.00000
Generated with MDTraj, t= 53.0
 71
    1UNL     C1    1  -0.092   0.005  -0.480
    1UNL     O1    2  -0.051  -0.006  -0.349
    1UNL     C2    3   0.065   0.069  -0.346
    1UNL     O2    4   0.135   0.101  -0.444
    1UNL     C3    5   0.114   0.124  -0.216
    1UNL     C4    6   0.217   0.209  -0.222
    1UNL     O3    7   0.262   0.283  -0.115
    1UNL     C5    8   0.204   0.267   0.021
    1UNL     O4    9   0.291   0.198   0.107
    1UNL     C6   10   0.338   0.075   0.049
    1UNL     O5   11   0.269  -0.042   0.093
    1UNL     C7   12   0.318  -0.164   0.035
    1UNL     C8   13   0.223  -0.277   0.096
    1UNL     O6   14   0.096  -0.276   0.046
    1UNL     C9   15   0.460  -0.186   0.080
    1UNL     O7   16   0.475  -0.198   0.226
    1UNL    C10   17   0.556  -0.076   0.034
    1UNL     O8   18   0.573  -0.069  -0.109
    1UNL    C11   19   0.490   0.056   0.085
    1UNL     O9   20   0.510   0.081   0.223
    1UNL    C12   21   0.057   0.213   0.012
    1UNL    C13   22  -0.019   0.174   0.149
    1UNL    C14   23  -0.145   0.266   0.138
    1UNL     N1   24  -0.242   0.190   0.059
    1UNL    C15   25  -0.392   0.228   0.074
    1UNL    C16   26  -0.473   0.109   0.131
    1UNL    C17   27  -0.419  -0.025   0.094
    1UNL    C18   28  -0.292  -0.048   0.049
    1UNL     N2   29  -0.277  -0.182   0.012
    1UNL    C19   30  -0.398  -0.242   0.045
    1UNL    C20   31  -0.434  -0.375   0.020
    1UNL    C21   32  -0.558  -0.411   0.054
    1UNL    C22   33  -0.658  -0.322   0.095
    1UNL    C23   34  -0.622  -0.192   0.107
    1UNL    C24   35  -0.485  -0.148   0.093
    1UNL    C25   36  -0.183   0.052   0.039
    1UNL    C26   37  -0.124   0.052  -0.100
    1UNL    C27   38   0.030   0.091  -0.090
    1UNL    O10   39  -0.078   0.042   0.148
    1UNL     H1   40  -0.191  -0.036  -0.491
    1UNL     H2   41  -0.016  -0.026  -0.547
    1UNL     H3   42  -0.117   0.114  -0.483
    1UNL     H4   43   0.254   0.232  -0.315
    1UNL     H5   44   0.202   0.365   0.075
    1UNL     H6   45   0.320   0.070  -0.057
    1UNL     H7   46   0.303  -0.143  -0.069
    1UNL     H8   47   0.257  -0.380   0.072
    1UNL     H9   48   0.221  -0.263   0.204
    1UNL    H10   49   0.048  -0.200   0.076
    1UNL    H11   50   0.491  -0.285   0.039
    1UNL    H12   51   0.481  -0.101   0.253
    1UNL    H13   52   0.659  -0.082   0.075
    1UNL    H14   53   0.494  -0.026  -0.144
    1UNL    H15   54   0.550   0.144   0.047
    1UNL    H16   55   0.450   0.150   0.252
    1UNL    H17   56   0.008   0.291  -0.030
    1UNL    H18   57   0.038   0.192   0.247
    1UNL    H19   58  -0.115   0.359   0.080
    1UNL    H20   59  -0.182   0.282   0.236
    1UNL    H21   60  -0.400   0.318   0.138
    1UNL    H22   61  -0.423   0.263  -0.018
    1UNL    H23   62  -0.480   0.115   0.242
    1UNL    H24   63  -0.584   0.113   0.100
    1UNL    H25   64  -0.185  -0.219   0.018
    1UNL    H26   65  -0.357  -0.438  -0.019
    1UNL    H27   66  -0.584  -0.518   0.045
    1UNL    H28   67  -0.766  -0.351   0.102
    1UNL    H29   68  -0.694  -0.115   0.118
    1UNL    H30   69  -0.139  -0.044  -0.148
    1UNL    H31   70  -0.175   0.122  -0.172
    1UNL    H32   71   0.099   0.003  -0.050
   0.00000   0.00000   0.00000   0.00000   0.00000   0.00000   0.00000   0.00000   0.00000
Generated with MDTraj, t= 54.0
 71
    1UNL     C1    1  -0.084  -0.023  -0.482
    1UNL     O1    2  -0.062   0.015  -0.350
    1UNL     C2    3   0.048   0.101  -0.352
    1UNL     O2    4   0.118   0.113  -0.451
    1UNL     C3    5   0.095   0.153  -0.226
    1UNL     C4    6   0.199   0.235  -0.216
    1UNL     O3    7   0.251   0.298  -0.107
    1UNL     C5    8   0.197   0.270   0.026
    1UNL     O4    9   0.294   0.197   0.094
    1UNL     C6   10   0.338   0.073   0.040
    1UNL     O5   11   0.262  -0.039   0.088
    1UNL     C7   12   0.309  -0.168   0.036
    1UNL     C8   13   0.196  -0.275   0.079
    1UNL     O6   14   0.073  -0.211   0.052
    1UNL     C9   15   0.443  -0.191   0.092
    1UNL     O7   16   0.444  -0.189   0.239
    1UNL    C10   17   0.547  -0.087   0.042
    1UNL     O8   18   0.569  -0.105  -0.101
    1UNL    C11   19   0.495   0.055   0.080
    1UNL     O9   20   0.506   0.085   0.220
    1UNL    C12   21   0.053   0.214   0.018
    1UNL    C13   22  -0.009   0.155   0.149
    1UNL    C14   23  -0.141   0.239   0.170
    1UNL     N1   24  -0.222   0.177   0.065
    1UNL    C15   25  -0.363   0.214   0.044
    1UNL    C16   26  -0.456   0.110   0.104
    1UNL    C17   27  -0.412  -0.024   0.082
    1UNL    C18   28  -0.279  -0.061   0.054
    1UNL     N2   29  -0.264  -0.193   0.033
    1UNL    C19   30  -0.387  -0.254   0.063
    1UNL    C20   31  -0.426  -0.388   0.050
    1UNL    C21   32  -0.556  -0.416   0.068
    1UNL    C22   33  -0.649  -0.311   0.090
    1UNL    C23   34  -0.615  -0.181   0.090
    1UNL    C24   35  -0.483  -0.147   0.081
    1UNL    C25   36  -0.164   0.036   0.041
    1UNL    C26   37  -0.103   0.053  -0.100
    1UNL    C27   38   0.039   0.102  -0.093
    1UNL    O10   39  -0.057   0.021   0.132
    1UNL     H1   40  -0.165  -0.093  -0.487
    1UNL     H2   41   0.006  -0.053  -0.528
    1UNL     H3   42  -0.127   0.071  -0.518
    1UNL     H4   43   0.243   0.266  -0.309
    1UNL     H5   44   0.189   0.364   0.083
    1UNL     H6   45   0.334   0.065  -0.067
    1UNL     H7   46   0.305  -0.147  -0.070
    1UNL     H8   47   0.204  -0.361   0.009
    1UNL     H9   48   0.195  -0.309   0.184
    1UNL    H10   49   0.047  -0.130   0.108
    1UNL    H11   50   0.476  -0.295   0.062
    1UNL    H12   51   0.451  -0.097   0.252
    1UNL    H13   52   0.645  -0.103   0.092
    1UNL    H14   53   0.647  -0.157  -0.120
    1UNL    H15   54   0.551   0.136   0.030
    1UNL    H16   55   0.432   0.152   0.234
    1UNL    H17   56  -0.003   0.291  -0.019
    1UNL    H18   57   0.070   0.161   0.233
    1UNL    H19   58  -0.118   0.349   0.153
    1UNL    H20   59  -0.183   0.222   0.265
    1UNL    H21   60  -0.374   0.314   0.091
    1UNL    H22   61  -0.378   0.225  -0.057
    1UNL    H23   62  -0.465   0.127   0.214
    1UNL    H24   63  -0.563   0.125   0.065
    1UNL    H25   64  -0.184  -0.238  -0.007
    1UNL    H26   65  -0.344  -0.457   0.033
    1UNL    H27   66  -0.594  -0.516   0.076
    1UNL    H28   67  -0.751  -0.337   0.113
    1UNL    H29   68  -0.684  -0.098   0.110
    1UNL    H30   69  -0.103  -0.033  -0.165
    1UNL    H31   70  -0.162   0.122  -0.164
    1UNL    H32   71   0.113   0.014  -0.067
   0.00000   0.00000   0.00000   0.00000   0.00000   0.00000   0.00000   0.00000   0.00000
Generated with MDTraj, t= 55.0
 71
    1UNL     C1    1  -0.060  -0.050  -0.484
    1UNL     O1    2  -0.049   0.019  -0.358
    1UNL     C2    3   0.042   0.122  -0.362
    1UNL     O2    4   0.089   0.157  -0.468
    1UNL     C3    5   0.100   0.161  -0.237
    1UNL     C4    6   0.206   0.249  -0.225
    1UNL     O3    7   0.258   0.323  -0.123
    1UNL     C5    8   0.211   0.278   0.006
    1UNL     O4    9   0.293   0.207   0.097
    1UNL     C6   10   0.332   0.077   0.046
    1UNL     O5   11   0.237  -0.029   0.084
    1UNL     C7   12   0.266  -0.161   0.036
    1UNL     C8   13   0.169  -0.268   0.085
    1UNL     O6   14   0.039  -0.248   0.033
    1UNL     C9   15   0.406  -0.199   0.088
    1UNL     O7   16   0.399  -0.207   0.233
    1UNL    C10   17   0.514  -0.090   0.052
    1UNL     O8   18   0.552  -0.101  -0.085
    1UNL    C11   19   0.477   0.049   0.096
    1UNL     O9   20   0.480   0.071   0.233
    1UNL    C12   21   0.069   0.211   0.008
    1UNL    C13   22   0.009   0.162   0.144
    1UNL    C14   23  -0.120   0.239   0.174
    1UNL     N1   24  -0.211   0.172   0.081
    1UNL    C15   25  -0.345   0.218   0.057
    1UNL    C16   26  -0.444   0.106   0.088
    1UNL    C17   27  -0.385  -0.030   0.073
    1UNL    C18   28  -0.253  -0.065   0.061
    1UNL     N2   29  -0.238  -0.204   0.065
    1UNL    C19   30  -0.366  -0.254   0.070
    1UNL    C20   31  -0.407  -0.391   0.067
    1UNL    C21   32  -0.543  -0.423   0.084
    1UNL    C22   33  -0.636  -0.317   0.092
    1UNL    C23   34  -0.600  -0.187   0.096
    1UNL    C24   35  -0.465  -0.151   0.076
    1UNL    C25   36  -0.148   0.039   0.045
    1UNL    C26   37  -0.098   0.051  -0.100
    1UNL    C27   38   0.047   0.102  -0.105
    1UNL    O10   39  -0.035   0.023   0.126
    1UNL     H1   40  -0.156  -0.097  -0.497
    1UNL     H2   41   0.011  -0.128  -0.488
    1UNL     H3   42  -0.030   0.030  -0.556
    1UNL     H4   43   0.236   0.284  -0.331
    1UNL     H5   44   0.196   0.377   0.048
    1UNL     H6   45   0.336   0.073  -0.062
    1UNL     H7   46   0.276  -0.167  -0.075
    1UNL     H8   47   0.207  -0.367   0.053
    1UNL     H9   48   0.174  -0.257   0.195
    1UNL    H10   49   0.014  -0.157   0.050
    1UNL    H11   50   0.434  -0.302   0.053
    1UNL    H12   51   0.391  -0.106   0.255
    1UNL    H13   52   0.604  -0.115   0.113
    1UNL    H14   53   0.473  -0.120  -0.142
    1UNL    H15   54   0.540   0.123   0.047
    1UNL    H16   55   0.426   0.149   0.244
    1UNL    H17   56   0.004   0.281  -0.031
    1UNL    H18   57   0.084   0.166   0.229
    1UNL    H19   58  -0.110   0.346   0.142
    1UNL    H20   59  -0.166   0.240   0.271
    1UNL    H21   60  -0.362   0.301   0.127
    1UNL    H22   61  -0.342   0.253  -0.042
    1UNL    H23   62  -0.477   0.115   0.195
    1UNL    H24   63  -0.540   0.123   0.027
    1UNL    H25   64  -0.158  -0.264   0.060
    1UNL    H26   65  -0.337  -0.473   0.056
    1UNL    H27   66  -0.568  -0.528   0.089
    1UNL    H28   67  -0.741  -0.337   0.102
    1UNL    H29   68  -0.666  -0.108   0.120
    1UNL    H30   69  -0.097  -0.045  -0.147
    1UNL    H31   70  -0.164   0.107  -0.170
    1UNL    H32   71   0.102   0.007  -0.088
   0.00000   0.00000   0.00000   0.00000   0.00000   0.00000   0.00000   0.00000   0.00000
Generated with MDTraj, t= 56.0
 71
    1UNL     C1    1  -0.067  -0.037  -0.502
    1UNL     O1    2  -0.011  -0.013  -0.380
    1UNL     C2    3   0.048   0.111  -0.377
    1UNL     O2    4   0.070   0.177  -0.476
    1UNL     C3    5   0.104   0.160  -0.248
    1UNL     C4    6   0.216   0.242  -0.237
    1UNL     O3    7   0.265   0.289  -0.116
    1UNL     C5    8   0.210   0.263   0.007
    1UNL     O4    9   0.299   0.198   0.090
    1UNL     C6   10   0.333   0.064   0.044
    1UNL     O5   11   0.235  -0.034   0.078
    1UNL     C7   12   0.277  -0.164   0.038
    1UNL     C8   13   0.162  -0.254   0.065
    1UNL     O6   14   0.041  -0.202   0.025
    1UNL     C9   15   0.413  -0.217   0.100
    1UNL     O7   16   0.404  -0.230   0.239
    1UNL    C10   17   0.516  -0.107   0.062
    1UNL     O8   18   0.523  -0.101  -0.080
    1UNL    C11   19   0.465   0.032   0.114
    1UNL     O9   20   0.438   0.037   0.253
    1UNL    C12   21   0.059   0.227  -0.002
    1UNL    C13   22   0.009   0.175   0.136
    1UNL    C14   23  -0.121   0.249   0.167
    1UNL     N1   24  -0.222   0.188   0.081
    1UNL    C15   25  -0.367   0.226   0.069
    1UNL    C16   26  -0.460   0.110   0.107
    1UNL    C17   27  -0.396  -0.027   0.077
    1UNL    C18   28  -0.263  -0.050   0.052
    1UNL     N2   29  -0.238  -0.186   0.062
    1UNL    C19   30  -0.354  -0.255   0.068
    1UNL    C20   31  -0.374  -0.390   0.084
    1UNL    C21   32  -0.505  -0.433   0.093
    1UNL    C22   33  -0.607  -0.340   0.108
    1UNL    C23   34  -0.580  -0.200   0.110
    1UNL    C24   35  -0.450  -0.158   0.078
    1UNL    C25   36  -0.161   0.062   0.039
    1UNL    C26   37  -0.109   0.084  -0.107
    1UNL    C27   38   0.040   0.120  -0.109
    1UNL    O10   39  -0.042   0.038   0.127
    1UNL     H1   40  -0.104  -0.142  -0.501
    1UNL     H2   41   0.017  -0.031  -0.571
    1UNL     H3   42  -0.130   0.057  -0.523
    1UNL     H4   43   0.264   0.279  -0.324
    1UNL     H5   44   0.212   0.362   0.050
    1UNL     H6   45   0.341   0.057  -0.066
    1UNL     H7   46   0.308  -0.178  -0.071
    1UNL     H8   47   0.173  -0.352   0.020
    1UNL     H9   48   0.166  -0.258   0.176
    1UNL    H10   49   0.028  -0.116   0.069
    1UNL    H11   50   0.423  -0.321   0.059
    1UNL    H12   51   0.405  -0.138   0.276
    1UNL    H13   52   0.616  -0.126   0.104
    1UNL    H14   53   0.537  -0.009  -0.123
    1UNL    H15   54   0.543   0.104   0.096
    1UNL    H16   55   0.380   0.116   0.273
    1UNL    H17   56   0.005   0.315  -0.014
    1UNL    H18   57   0.090   0.188   0.213
    1UNL    H19   58  -0.118   0.360   0.157
    1UNL    H20   59  -0.150   0.241   0.272
    1UNL    H21   60  -0.378   0.319   0.125
    1UNL    H22   61  -0.381   0.238  -0.034
    1UNL    H23   62  -0.498   0.116   0.212
    1UNL    H24   63  -0.550   0.107   0.038
    1UNL    H25   64  -0.144  -0.223   0.066
    1UNL    H26   65  -0.297  -0.464   0.077
    1UNL    H27   66  -0.539  -0.538   0.083
    1UNL    H28   67  -0.714  -0.363   0.111
    1UNL    H29   68  -0.659  -0.127   0.130
    1UNL    H30   69  -0.124  -0.006  -0.162
    1UNL    H31   70  -0.163   0.160  -0.165
    1UNL    H32   71   0.086   0.034  -0.075
   0.00000   0.00000   0.00000   0.00000   0.00000   0.00000   0.00000   0.00000   0.00000
Generated with MDTraj, t= 57.0
 71
    1UNL     C1    1  -0.066  -0.042  -0.494
    1UNL     O1    2  -0.043   0.012  -0.364
    1UNL     C2    3   0.041   0.124  -0.366
    1UNL     O2    4   0.079   0.176  -0.471
    1UNL     C3    5   0.107   0.151  -0.232
    1UNL     C4    6   0.224   0.216  -0.226
    1UNL     O3    7   0.290   0.263  -0.115
    1UNL     C5    8   0.220   0.259   0.015
    1UNL     O4    9   0.275   0.183   0.114
    1UNL     C6   10   0.329   0.057   0.061
    1UNL     O5   11   0.236  -0.042   0.086
    1UNL     C7   12   0.275  -0.166   0.021
    1UNL     C8   13   0.169  -0.278   0.037
    1UNL     O6   14   0.045  -0.231   0.017
    1UNL     C9   15   0.413  -0.218   0.073
    1UNL     O7   16   0.394  -0.252   0.212
    1UNL    C10   17   0.522  -0.104   0.068
    1UNL     O8   18   0.597  -0.097  -0.048
    1UNL    C11   19   0.469   0.031   0.122
    1UNL     O9   20   0.454   0.036   0.262
    1UNL    C12   21   0.062   0.229  -0.002
    1UNL    C13   22  -0.023   0.210   0.133
    1UNL    C14   23  -0.147   0.289   0.120
    1UNL     N1   24  -0.243   0.208   0.039
    1UNL    C15   25  -0.388   0.228   0.073
    1UNL    C16   26  -0.456   0.105   0.132
    1UNL    C17   27  -0.401  -0.029   0.086
    1UNL    C18   28  -0.269  -0.041   0.041
    1UNL     N2   29  -0.241  -0.167   0.007
    1UNL    C19   30  -0.347  -0.242   0.050
    1UNL    C20   31  -0.358  -0.380   0.071
    1UNL    C21   32  -0.483  -0.432   0.103
    1UNL    C22   33  -0.594  -0.352   0.146
    1UNL    C23   34  -0.577  -0.213   0.150
    1UNL    C24   35  -0.455  -0.162   0.100
    1UNL    C25   36  -0.181   0.078   0.023
    1UNL    C26   37  -0.109   0.072  -0.114
    1UNL    C27   38   0.038   0.115  -0.102
    1UNL    O10   39  -0.069   0.075   0.122
    1UNL     H1   40   0.025  -0.098  -0.517
    1UNL     H2   41  -0.073   0.045  -0.564
    1UNL     H3   42  -0.169  -0.092  -0.510
    1UNL     H4   43   0.278   0.249  -0.308
    1UNL     H5   44   0.240   0.362   0.047
    1UNL     H6   45   0.335   0.080  -0.048
    1UNL     H7   46   0.298  -0.145  -0.091
    1UNL     H8   47   0.188  -0.355  -0.037
    1UNL     H9   48   0.170  -0.329   0.134
    1UNL    H10   49   0.032  -0.146   0.068
    1UNL    H11   50   0.446  -0.309   0.019
    1UNL    H12   51   0.394  -0.174   0.264
    1UNL    H13   52   0.594  -0.136   0.144
    1UNL    H14   53   0.538  -0.125  -0.125
    1UNL    H15   54   0.532   0.111   0.086
    1UNL    H16   55   0.420   0.130   0.283
    1UNL    H17   56   0.029   0.322  -0.032
    1UNL    H18   57   0.043   0.215   0.222
    1UNL    H19   58  -0.139   0.392   0.083
    1UNL    H20   59  -0.178   0.314   0.224
    1UNL    H21   60  -0.407   0.318   0.131
    1UNL    H22   61  -0.429   0.238  -0.025
    1UNL    H23   62  -0.447   0.103   0.244
    1UNL    H24   63  -0.566   0.115   0.107
    1UNL    H25   64  -0.145  -0.196  -0.013
    1UNL    H26   65  -0.280  -0.453   0.054
    1UNL    H27   66  -0.496  -0.537   0.096
    1UNL    H28   67  -0.682  -0.402   0.175
    1UNL    H29   68  -0.657  -0.146   0.176
    1UNL    H30   69  -0.123  -0.025  -0.160
    1UNL    H31   70  -0.151   0.147  -0.181
    1UNL    H32   71   0.084   0.029  -0.069
   0.00000   0.00000   0.00000   0.00000   0.00000   0.00000   0.00000   0.00000   0.00000
Generated with MDTraj, t= 58.0
 71
    1UNL     C1    1  -0.095   0.006  -0.493
    1UNL     O1    2  -0.046   0.021  -0.364
    1UNL     C2    3   0.068   0.103  -0.363
    1UNL     O2    4   0.141   0.126  -0.459
    1UNL     C3    5   0.113   0.151  -0.233
    1UNL     C4    6   0.230   0.215  -0.217
    1UNL     O3    7   0.277   0.278  -0.104
    1UNL     C5    8   0.201   0.260   0.023
    1UNL     O4    9   0.268   0.177   0.115
    1UNL     C6   10   0.323   0.047   0.062
    1UNL     O5   11   0.245  -0.064   0.066
    1UNL     C7   12   0.305  -0.184   0.007
    1UNL     C8   13   0.190  -0.285   0.011
    1UNL     O6   14   0.057  -0.226  -0.005
    1UNL     C9   15   0.432  -0.221   0.081
    1UNL     O7   16   0.397  -0.259   0.210
    1UNL    C10   17   0.534  -0.102   0.080
    1UNL     O8   18   0.586  -0.080  -0.050
    1UNL    C11   19   0.458   0.020   0.140
    1UNL     O9   20   0.425   0.006   0.278
    1UNL    C12   21   0.050   0.244  -0.017
    1UNL    C13   22  -0.031   0.231   0.115
    1UNL    C14   23  -0.166   0.302   0.103
    1UNL     N1   24  -0.260   0.214   0.017
    1UNL    C15   25  -0.401   0.207   0.054
    1UNL    C16   26  -0.448   0.104   0.157
    1UNL    C17   27  -0.392  -0.027   0.105
    1UNL    C18   28  -0.279  -0.038   0.033
    1UNL     N2   29  -0.257  -0.168  -0.005
    1UNL    C19   30  -0.354  -0.243   0.046
    1UNL    C20   31  -0.380  -0.382   0.042
    1UNL    C21   32  -0.486  -0.433   0.110
    1UNL    C22   33  -0.574  -0.346   0.181
    1UNL    C23   34  -0.554  -0.216   0.195
    1UNL    C24   35  -0.439  -0.159   0.127
    1UNL    C25   36  -0.181   0.090   0.016
    1UNL    C26   37  -0.109   0.083  -0.124
    1UNL    C27   38   0.037   0.120  -0.108
    1UNL    O10   39  -0.079   0.096   0.122
    1UNL     H1   40  -0.040   0.073  -0.557
    1UNL     H2   41  -0.204   0.034  -0.486
    1UNL     H3   42  -0.091  -0.102  -0.526
    1UNL     H4   43   0.294   0.251  -0.306
    1UNL     H5   44   0.215   0.360   0.068
    1UNL     H6   45   0.341   0.071  -0.046
    1UNL     H7   46   0.321  -0.151  -0.101
    1UNL     H8   47   0.186  -0.369  -0.058
    1UNL     H9   48   0.179  -0.338   0.107
    1UNL    H10   49   0.044  -0.145   0.052
    1UNL    H11   50   0.478  -0.300   0.022
    1UNL    H12   51   0.361  -0.173   0.256
    1UNL    H13   52   0.624  -0.126   0.138
    1UNL    H14   53   0.549   0.001  -0.088
    1UNL    H15   54   0.531   0.102   0.131
    1UNL    H16   55   0.365   0.075   0.306
    1UNL    H17   56   0.010   0.324  -0.069
    1UNL    H18   57   0.017   0.255   0.208
    1UNL    H19   58  -0.152   0.399   0.056
    1UNL    H20   59  -0.212   0.336   0.199
    1UNL    H21   60  -0.427   0.307   0.084
    1UNL    H22   61  -0.453   0.188  -0.038
    1UNL    H23   62  -0.394   0.125   0.255
    1UNL    H24   63  -0.558   0.097   0.178
    1UNL    H25   64  -0.180  -0.213  -0.061
    1UNL    H26   65  -0.303  -0.438  -0.005
    1UNL    H27   66  -0.492  -0.543   0.118
    1UNL    H28   67  -0.647  -0.388   0.253
    1UNL    H29   68  -0.616  -0.154   0.256
    1UNL    H30   69  -0.119  -0.019  -0.163
    1UNL    H31   70  -0.159   0.155  -0.188
    1UNL    H32   71   0.073   0.026  -0.070
   0.00000   0.00000   0.00000   0.00000   0.00000   0.00000   0.00000   0.00000   0.00000
Generated with MDTraj, t= 59.0
 71
    1UNL     C1    1  -0.064   0.039  -0.517
    1UNL     O1    2  -0.046   0.067  -0.383
    1UNL     C2    3   0.093   0.092  -0.355
    1UNL     O2    4   0.182   0.073  -0.437
    1UNL     C3    5   0.129   0.124  -0.222
    1UNL     C4    6   0.241   0.198  -0.207
    1UNL     O3    7   0.289   0.270  -0.102
    1UNL     C5    8   0.199   0.267   0.010
    1UNL     O4    9   0.242   0.181   0.107
    1UNL     C6   10   0.308   0.058   0.060
    1UNL     O5   11   0.224  -0.059   0.061
    1UNL     C7   12   0.273  -0.179  -0.003
    1UNL     C8   13   0.181  -0.293   0.010
    1UNL     O6   14   0.063  -0.253  -0.061
    1UNL     C9   15   0.406  -0.210   0.061
    1UNL     O7   16   0.393  -0.267   0.189
    1UNL    C10   17   0.505  -0.084   0.079
    1UNL     O8   18   0.568  -0.045  -0.043
    1UNL    C11   19   0.429   0.032   0.150
    1UNL     O9   20   0.387   0.010   0.278
    1UNL    C12   21   0.052   0.248  -0.019
    1UNL    C13   22  -0.029   0.229   0.114
    1UNL    C14   23  -0.159   0.311   0.090
    1UNL     N1   24  -0.255   0.211   0.027
    1UNL    C15   25  -0.398   0.216   0.072
    1UNL    C16   26  -0.423   0.102   0.178
    1UNL    C17   27  -0.383  -0.026   0.118
    1UNL    C18   28  -0.267  -0.041   0.039
    1UNL     N2   29  -0.244  -0.174   0.006
    1UNL    C19   30  -0.345  -0.245   0.066
    1UNL    C20   31  -0.380  -0.381   0.057
    1UNL    C21   32  -0.486  -0.433   0.121
    1UNL    C22   33  -0.562  -0.349   0.206
    1UNL    C23   34  -0.541  -0.212   0.197
    1UNL    C24   35  -0.431  -0.157   0.135
    1UNL    C25   36  -0.178   0.077   0.017
    1UNL    C26   37  -0.110   0.071  -0.128
    1UNL    C27   38   0.035   0.116  -0.104
    1UNL    O10   39  -0.076   0.084   0.115
    1UNL     H1   40  -0.103   0.121  -0.567
    1UNL     H2   41  -0.141  -0.040  -0.515
    1UNL     H3   42   0.032   0.009  -0.564
    1UNL     H4   43   0.299   0.209  -0.300
    1UNL     H5   44   0.214   0.371   0.050
    1UNL     H6   45   0.334   0.087  -0.045
    1UNL     H7   46   0.273  -0.147  -0.111
    1UNL     H8   47   0.217  -0.388  -0.026
    1UNL     H9   48   0.143  -0.314   0.113
    1UNL    H10   49   0.031  -0.165  -0.030
    1UNL    H11   50   0.456  -0.280  -0.002
    1UNL    H12   51   0.352  -0.198   0.243
    1UNL    H13   52   0.580  -0.119   0.149
    1UNL    H14   53   0.503  -0.019  -0.107
    1UNL    H15   54   0.491   0.125   0.165
    1UNL    H16   55   0.313   0.074   0.295
    1UNL    H17   56   0.021   0.332  -0.070
    1UNL    H18   57   0.037   0.249   0.194
    1UNL    H19   58  -0.141   0.400   0.033
    1UNL    H20   59  -0.210   0.341   0.185
    1UNL    H21   60  -0.423   0.311   0.113
    1UNL    H22   61  -0.465   0.206  -0.012
    1UNL    H23   62  -0.356   0.112   0.270
    1UNL    H24   63  -0.529   0.100   0.212
    1UNL    H25   64  -0.161  -0.224  -0.033
    1UNL    H26   65  -0.322  -0.445  -0.010
    1UNL    H27   66  -0.518  -0.534   0.116
    1UNL    H28   67  -0.635  -0.397   0.266
    1UNL    H29   68  -0.593  -0.137   0.260
    1UNL    H30   69  -0.117  -0.034  -0.165
    1UNL    H31   70  -0.161   0.139  -0.191
    1UNL    H32   71   0.060   0.033  -0.028
   0.00000   0.00000   0.00000   0.00000   0.00000   0.00000   0.00000   0.00000   0.00000
Generated with MDTraj, t= 60.0
 71
    1UNL     C1    1  -0.047   0.025  -0.538
    1UNL     O1    2  -0.035   0.079  -0.408
    1UNL     C2    3   0.098   0.093  -0.370
    1UNL     O2    4   0.196   0.046  -0.427
    1UNL     C3    5   0.116   0.150  -0.236
    1UNL     C4    6   0.241   0.206  -0.221
    1UNL     O3    7   0.294   0.259  -0.105
    1UNL     C5    8   0.207   0.268   0.015
    1UNL     O4    9   0.241   0.176   0.128
    1UNL     C6   10   0.296   0.053   0.083
    1UNL     O5   11   0.215  -0.063   0.073
    1UNL     C7   12   0.278  -0.150  -0.021
    1UNL     C8   13   0.172  -0.257  -0.047
    1UNL     O6   14   0.039  -0.217  -0.035
    1UNL     C9   15   0.406  -0.215   0.056
    1UNL     O7   16   0.360  -0.271   0.184
    1UNL    C10   17   0.509  -0.096   0.084
    1UNL     O8   18   0.558  -0.049  -0.041
    1UNL    C11   19   0.428   0.017   0.162
    1UNL     O9   20   0.392  -0.014   0.291
    1UNL    C12   21   0.058   0.254  -0.025
    1UNL    C13   22  -0.036   0.222   0.104
    1UNL    C14   23  -0.161   0.308   0.090
    1UNL     N1   24  -0.261   0.212   0.033
    1UNL    C15   25  -0.405   0.207   0.072
    1UNL    C16   26  -0.428   0.097   0.179
    1UNL    C17   27  -0.383  -0.030   0.121
    1UNL    C18   28  -0.269  -0.040   0.046
    1UNL     N2   29  -0.232  -0.177   0.019
    1UNL    C19   30  -0.336  -0.252   0.077
    1UNL    C20   31  -0.357  -0.390   0.074
    1UNL    C21   32  -0.468  -0.436   0.146
    1UNL    C22   33  -0.558  -0.345   0.205
    1UNL    C23   34  -0.540  -0.210   0.205
    1UNL    C24   35  -0.423  -0.165   0.142
    1UNL    C25   36  -0.184   0.077   0.013
    1UNL    C26   37  -0.117   0.090  -0.131
    1UNL    C27   38   0.033   0.130  -0.116
    1UNL    O10   39  -0.073   0.083   0.100
    1UNL     H1   40  -0.109   0.074  -0.605
    1UNL     H2   41  -0.087  -0.076  -0.525
    1UNL     H3   42   0.048   0.025  -0.591
    1UNL     H4   43   0.295   0.208  -0.307
    1UNL     H5   44   0.226   0.370   0.059
    1UNL     H6   45   0.320   0.087  -0.021
    1UNL     H7   46   0.311  -0.103  -0.113
    1UNL     H8   47   0.194  -0.308  -0.140
    1UNL     H9   48   0.194  -0.331   0.034
    1UNL    H10   49   0.027  -0.129   0.013
    1UNL    H11   50   0.455  -0.291  -0.001
    1UNL    H12   51   0.352  -0.199   0.249
    1UNL    H13   52   0.594  -0.139   0.138
    1UNL    H14   53   0.502   0.009  -0.092
    1UNL    H15   54   0.499   0.106   0.172
    1UNL    H16   55   0.331   0.061   0.320
    1UNL    H17   56   0.028   0.346  -0.069
    1UNL    H18   57   0.012   0.244   0.195
    1UNL    H19   58  -0.151   0.388   0.020
    1UNL    H20   59  -0.194   0.342   0.192
    1UNL    H21   60  -0.445   0.295   0.110
    1UNL    H22   61  -0.467   0.190  -0.016
    1UNL    H23   62  -0.360   0.120   0.267
    1UNL    H24   63  -0.532   0.087   0.219
    1UNL    H25   64  -0.141  -0.200  -0.019
    1UNL    H26   65  -0.301  -0.452   0.009
    1UNL    H27   66  -0.505  -0.538   0.129
    1UNL    H28   67  -0.654  -0.377   0.246
    1UNL    H29   68  -0.613  -0.152   0.253
    1UNL    H30   69  -0.134  -0.004  -0.189
    1UNL    H31   70  -0.157   0.178  -0.176
    1UNL    H32   71   0.068   0.029  -0.067
   0.00000   0.00000   0.00000   0.00000   0.00000   0.00000   0.00000   0.00000   0.00000
Generated with MDTraj, t= 61.0
 71
    1UNL     C1    1  -0.058   0.009  -0.514
    1UNL     O1    2  -0.034   0.053  -0.387
    1UNL     C2    3   0.096   0.087  -0.361
    1UNL     O2    4   0.193   0.063  -0.430
    1UNL     C3    5   0.126   0.141  -0.225
    1UNL     C4    6   0.240   0.211  -0.214
    1UNL     O3    7   0.284   0.278  -0.101
    1UNL     C5    8   0.205   0.267   0.020
    1UNL     O4    9   0.268   0.180   0.118
    1UNL     C6   10   0.324   0.068   0.062
    1UNL     O5   11   0.228  -0.036   0.050
    1UNL     C7   12   0.269  -0.148  -0.028
    1UNL     C8   13   0.152  -0.256  -0.033
    1UNL     O6   14   0.034  -0.183  -0.025
    1UNL     C9   15   0.393  -0.206   0.041
    1UNL     O7   16   0.351  -0.274   0.154
    1UNL    C10   17   0.502  -0.107   0.082
    1UNL     O8   18   0.598  -0.080  -0.018
    1UNL    C11   19   0.441   0.014   0.159
    1UNL     O9   20   0.373  -0.029   0.279
    1UNL    C12   21   0.056   0.238  -0.014
    1UNL    C13   22  -0.038   0.218   0.118
    1UNL    C14   23  -0.165   0.302   0.102
    1UNL     N1   24  -0.259   0.215   0.031
    1UNL    C15   25  -0.410   0.210   0.049
    1UNL    C16   26  -0.457   0.101   0.147
    1UNL    C17   27  -0.394  -0.025   0.103
    1UNL    C18   28  -0.282  -0.027   0.029
    1UNL     N2   29  -0.244  -0.156   0.006
    1UNL    C19   30  -0.346  -0.243   0.061
    1UNL    C20   31  -0.341  -0.380   0.083
    1UNL    C21   32  -0.437  -0.437   0.162
    1UNL    C22   33  -0.537  -0.362   0.220
    1UNL    C23   34  -0.533  -0.224   0.204
    1UNL    C24   35  -0.440  -0.158   0.127
    1UNL    C25   36  -0.184   0.084   0.016
    1UNL    C26   37  -0.109   0.078  -0.124
    1UNL    C27   38   0.038   0.116  -0.104
    1UNL    O10   39  -0.083   0.082   0.127
    1UNL     H1   40  -0.146  -0.045  -0.530
    1UNL     H2   41   0.021  -0.065  -0.539
    1UNL     H3   42  -0.063   0.091  -0.584
    1UNL     H4   43   0.301   0.234  -0.305
    1UNL     H5   44   0.211   0.365   0.071
    1UNL     H6   45   0.365   0.093  -0.041
    1UNL     H7   46   0.296  -0.127  -0.129
    1UNL     H8   47   0.155  -0.312  -0.125
    1UNL     H9   48   0.159  -0.334   0.046
    1UNL    H10   49   0.039  -0.122   0.048
    1UNL    H11   50   0.427  -0.282  -0.028
    1UNL    H12   51   0.317  -0.214   0.231
    1UNL    H13   52   0.556  -0.165   0.160
    1UNL    H14   53   0.563  -0.017  -0.083
    1UNL    H15   54   0.524   0.083   0.190
    1UNL    H16   55   0.315   0.045   0.306
    1UNL    H17   56   0.017   0.328  -0.064
    1UNL    H18   57   0.011   0.222   0.214
    1UNL    H19   58  -0.147   0.382   0.031
    1UNL    H20   59  -0.206   0.326   0.204
    1UNL    H21   60  -0.450   0.302   0.069
    1UNL    H22   61  -0.466   0.186  -0.042
    1UNL    H23   62  -0.427   0.129   0.253
    1UNL    H24   63  -0.569   0.094   0.147
    1UNL    H25   64  -0.151  -0.190  -0.014
    1UNL    H26   65  -0.270  -0.446   0.032
    1UNL    H27   66  -0.441  -0.546   0.168
    1UNL    H28   67  -0.603  -0.399   0.295
    1UNL    H29   68  -0.602  -0.158   0.262
    1UNL    H30   69  -0.115  -0.022  -0.170
    1UNL    H31   70  -0.143   0.156  -0.188
    1UNL    H32   71   0.087   0.026  -0.057
   0.00000   0.00000   0.00000   0.00000   0.00000   0.00000   0.00000   0.00000   0.00000
Generated with MDTraj, t= 62.0
 71
    1UNL     C1    1  -0.070  -0.031  -0.473
    1UNL     O1    2  -0.018   0.002  -0.355
    1UNL     C2    3   0.088   0.094  -0.353
    1UNL     O2    4   0.163   0.107  -0.445
    1UNL     C3    5   0.126   0.156  -0.224
    1UNL     C4    6   0.235   0.232  -0.207
    1UNL     O3    7   0.276   0.300  -0.097
    1UNL     C5    8   0.202   0.284   0.026
    1UNL     O4    9   0.261   0.187   0.112
    1UNL     C6   10   0.313   0.062   0.057
    1UNL     O5   11   0.229  -0.045   0.030
    1UNL     C7   12   0.286  -0.165  -0.027
    1UNL     C8   13   0.170  -0.258  -0.032
    1UNL     O6   14   0.041  -0.209  -0.060
    1UNL     C9   15   0.404  -0.224   0.052
    1UNL     O7   16   0.359  -0.289   0.161
    1UNL    C10   17   0.500  -0.110   0.091
    1UNL     O8   18   0.584  -0.085  -0.021
    1UNL    C11   19   0.424   0.006   0.153
    1UNL     O9   20   0.369  -0.021   0.280
    1UNL    C12   21   0.056   0.240  -0.004
    1UNL    C13   22  -0.029   0.211   0.128
    1UNL    C14   23  -0.168   0.297   0.131
    1UNL     N1   24  -0.251   0.217   0.036
    1UNL    C15   25  -0.401   0.219   0.053
    1UNL    C16   26  -0.455   0.092   0.123
    1UNL    C17   27  -0.397  -0.026   0.075
    1UNL    C18   28  -0.270  -0.033   0.016
    1UNL     N2   29  -0.246  -0.166  -0.004
    1UNL    C19   30  -0.333  -0.247   0.063
    1UNL    C20   31  -0.328  -0.380   0.100
    1UNL    C21   32  -0.446  -0.419   0.164
    1UNL    C22   33  -0.540  -0.334   0.222
    1UNL    C23   34  -0.540  -0.201   0.198
    1UNL    C24   35  -0.434  -0.158   0.115
    1UNL    C25   36  -0.179   0.088   0.010
    1UNL    C26   37  -0.111   0.098  -0.132
    1UNL    C27   38   0.038   0.122  -0.104
    1UNL    O10   39  -0.081   0.078   0.115
    1UNL     H1   40  -0.107  -0.131  -0.479
    1UNL     H2   41   0.014  -0.035  -0.551
    1UNL     H3   42  -0.149   0.037  -0.501
    1UNL     H4   43   0.307   0.256  -0.292
    1UNL     H5   44   0.212   0.379   0.079
    1UNL     H6   45   0.361   0.089  -0.042
    1UNL     H7   46   0.315  -0.129  -0.123
    1UNL     H8   47   0.188  -0.329  -0.110
    1UNL     H9   48   0.158  -0.321   0.058
    1UNL    H10   49   0.021  -0.138   0.010
    1UNL    H11   50   0.459  -0.290  -0.018
    1UNL    H12   51   0.348  -0.218   0.224
    1UNL    H13   52   0.571  -0.147   0.168
    1UNL    H14   53   0.527  -0.046  -0.092
    1UNL    H15   54   0.480   0.100   0.165
    1UNL    H16   55   0.321   0.060   0.307
    1UNL    H17   56   0.002   0.325  -0.056
    1UNL    H18   57   0.029   0.214   0.220
    1UNL    H19   58  -0.152   0.402   0.106
    1UNL    H20   59  -0.220   0.274   0.226
    1UNL    H21   60  -0.440   0.302   0.098
    1UNL    H22   61  -0.444   0.233  -0.047
    1UNL    H23   62  -0.441   0.108   0.234
    1UNL    H24   63  -0.567   0.090   0.112
    1UNL    H25   64  -0.163  -0.200  -0.047
    1UNL    H26   65  -0.247  -0.435   0.055
    1UNL    H27   66  -0.450  -0.524   0.187
    1UNL    H28   67  -0.600  -0.383   0.298
    1UNL    H29   68  -0.602  -0.135   0.252
    1UNL    H30   69  -0.121  -0.002  -0.176
    1UNL    H31   70  -0.151   0.175  -0.195
    1UNL    H32   71   0.083   0.047  -0.050
   0.00000   0.00000   0.00000   0.00000   0.00000   0.00000   0.00000   0.00000   0.00000
Generated with MDTraj, t= 63.0
 71
    1UNL     C1    1   0.011  -0.076  -0.482
    1UNL     O1    2   0.005  -0.007  -0.364
    1UNL     C2    3   0.073   0.116  -0.365
    1UNL     O2    4   0.109   0.169  -0.468
    1UNL     C3    5   0.119   0.161  -0.234
    1UNL     C4    6   0.235   0.232  -0.219
    1UNL     O3    7   0.282   0.270  -0.098
    1UNL     C5    8   0.207   0.267   0.024
    1UNL     O4    9   0.248   0.171   0.122
    1UNL     C6   10   0.306   0.056   0.059
    1UNL     O5   11   0.214  -0.055   0.042
    1UNL     C7   12   0.277  -0.175  -0.022
    1UNL     C8   13   0.184  -0.284  -0.048
    1UNL     O6   14   0.062  -0.224  -0.070
    1UNL     C9   15   0.404  -0.222   0.055
    1UNL     O7   16   0.369  -0.268   0.187
    1UNL    C10   17   0.501  -0.099   0.081
    1UNL     O8   18   0.570  -0.068  -0.038
    1UNL    C11   19   0.430   0.018   0.149
    1UNL     O9   20   0.386  -0.002   0.287
    1UNL    C12   21   0.056   0.252  -0.009
    1UNL    C13   22  -0.023   0.201   0.122
    1UNL    C14   23  -0.152   0.284   0.137
    1UNL     N1   24  -0.242   0.217   0.048
    1UNL    C15   25  -0.388   0.231   0.053
    1UNL    C16   26  -0.447   0.118   0.136
    1UNL    C17   27  -0.408  -0.021   0.090
    1UNL    C18   28  -0.284  -0.026   0.032
    1UNL     N2   29  -0.244  -0.156   0.016
    1UNL    C19   30  -0.344  -0.238   0.070
    1UNL    C20   31  -0.351  -0.378   0.106
    1UNL    C21   32  -0.462  -0.431   0.159
    1UNL    C22   33  -0.573  -0.352   0.199
    1UNL    C23   34  -0.559  -0.216   0.195
    1UNL    C24   35  -0.442  -0.153   0.126
    1UNL    C25   36  -0.180   0.084   0.018
    1UNL    C26   37  -0.112   0.092  -0.126
    1UNL    C27   38   0.035   0.137  -0.112
    1UNL    O10   39  -0.073   0.069   0.116
    1UNL     H1   40  -0.052  -0.164  -0.488
    1UNL     H2   41   0.117  -0.123  -0.492
    1UNL     H3   42  -0.010  -0.013  -0.568
    1UNL     H4   43   0.285   0.274  -0.297
    1UNL     H5   44   0.231   0.363   0.068
    1UNL     H6   45   0.343   0.071  -0.047
    1UNL     H7   46   0.301  -0.125  -0.114
    1UNL     H8   47   0.208  -0.354  -0.125
    1UNL     H9   48   0.174  -0.349   0.042
    1UNL    H10   49   0.042  -0.147  -0.012
    1UNL    H11   50   0.453  -0.308   0.002
    1UNL    H12   51   0.325  -0.187   0.231
    1UNL    H13   52   0.583  -0.135   0.147
    1UNL    H14   53   0.509  -0.009  -0.092
    1UNL    H15   54   0.507   0.093   0.162
    1UNL    H16   55   0.326   0.067   0.329
    1UNL    H17   56   0.011   0.339  -0.074
    1UNL    H18   57   0.042   0.221   0.212
    1UNL    H19   58  -0.120   0.383   0.101
    1UNL    H20   59  -0.199   0.271   0.236
    1UNL    H21   60  -0.413   0.327   0.081
    1UNL    H22   61  -0.432   0.233  -0.048
    1UNL    H23   62  -0.415   0.133   0.243
    1UNL    H24   63  -0.559   0.132   0.147
    1UNL    H25   64  -0.152  -0.190  -0.010
    1UNL    H26   65  -0.276  -0.450   0.082
    1UNL    H27   66  -0.467  -0.539   0.162
    1UNL    H28   67  -0.659  -0.394   0.247
    1UNL    H29   68  -0.634  -0.152   0.238
    1UNL    H30   69  -0.105  -0.007  -0.172
    1UNL    H31   70  -0.171   0.157  -0.192
    1UNL    H32   71   0.091   0.052  -0.068
   0.00000   0.00000   0.00000   0.00000   0.00000   0.00000   0.00000   0.00000   0.00000
Generated with MDTraj, t= 64.0
 71
    1UNL     C1    1   0.043  -0.063  -0.522
    1UNL     O1    2   0.028  -0.022  -0.389
    1UNL     C2    3   0.069   0.112  -0.366
    1UNL     O2    4   0.104   0.178  -0.462
    1UNL     C3    5   0.108   0.155  -0.228
    1UNL     C4    6   0.215   0.242  -0.221
    1UNL     O3    7   0.272   0.292  -0.107
    1UNL     C5    8   0.211   0.268   0.018
    1UNL     O4    9   0.269   0.181   0.114
    1UNL     C6   10   0.315   0.062   0.060
    1UNL     O5   11   0.224  -0.047   0.058
    1UNL     C7   12   0.275  -0.159  -0.019
    1UNL     C8   13   0.166  -0.261   0.002
    1UNL     O6   14   0.037  -0.207  -0.012
    1UNL     C9   15   0.408  -0.214   0.051
    1UNL     O7   16   0.376  -0.261   0.186
    1UNL    C10   17   0.519  -0.105   0.069
    1UNL     O8   18   0.595  -0.083  -0.048
    1UNL    C11   19   0.448   0.016   0.136
    1UNL     O9   20   0.420  -0.004   0.270
    1UNL    C12   21   0.058   0.236  -0.001
    1UNL    C13   22  -0.028   0.211   0.126
    1UNL    C14   23  -0.158   0.297   0.119
    1UNL     N1   24  -0.252   0.207   0.049
    1UNL    C15   25  -0.399   0.219   0.070
    1UNL    C16   26  -0.447   0.103   0.155
    1UNL    C17   27  -0.393  -0.025   0.099
    1UNL    C18   28  -0.271  -0.045   0.041
    1UNL     N2   29  -0.256  -0.184   0.025
    1UNL    C19   30  -0.364  -0.254   0.075
    1UNL    C20   31  -0.386  -0.389   0.082
    1UNL    C21   32  -0.506  -0.435   0.128
    1UNL    C22   33  -0.589  -0.335   0.186
    1UNL    C23   34  -0.564  -0.198   0.187
    1UNL    C24   35  -0.448  -0.153   0.127
    1UNL    C25   36  -0.177   0.074   0.022
    1UNL    C26   37  -0.106   0.078  -0.119
    1UNL    C27   38   0.038   0.119  -0.108
    1UNL    O10   39  -0.070   0.074   0.121
    1UNL     H1   40  -0.023  -0.147  -0.548
    1UNL     H2   41   0.146  -0.113  -0.536
    1UNL     H3   42   0.033   0.018  -0.594
    1UNL     H4   43   0.258   0.272  -0.317
    1UNL     H5   44   0.217   0.366   0.064
    1UNL     H6   45   0.338   0.074  -0.049
    1UNL     H7   46   0.294  -0.137  -0.126
    1UNL     H8   47   0.184  -0.352  -0.052
    1UNL     H9   48   0.176  -0.304   0.105
    1UNL    H10   49   0.018  -0.135   0.051
    1UNL    H11   50   0.448  -0.303  -0.006
    1UNL    H12   51   0.389  -0.183   0.243
    1UNL    H13   52   0.591  -0.151   0.140
    1UNL    H14   53   0.544  -0.032  -0.121
    1UNL    H15   54   0.507   0.106   0.127
    1UNL    H16   55   0.376   0.072   0.306
    1UNL    H17   56   0.009   0.329  -0.056
    1UNL    H18   57   0.033   0.233   0.220
    1UNL    H19   58  -0.146   0.390   0.062
    1UNL    H20   59  -0.193   0.306   0.222
    1UNL    H21   60  -0.424   0.312   0.110
    1UNL    H22   61  -0.444   0.231  -0.032
    1UNL    H23   62  -0.414   0.115   0.262
    1UNL    H24   63  -0.560   0.098   0.167
    1UNL    H25   64  -0.157  -0.218   0.017
    1UNL    H26   65  -0.319  -0.458   0.030
    1UNL    H27   66  -0.556  -0.529   0.106
    1UNL    H28   67  -0.682  -0.374   0.228
    1UNL    H29   68  -0.635  -0.134   0.243
    1UNL    H30   69  -0.106  -0.018  -0.170
    1UNL    H31   70  -0.158   0.153  -0.181
    1UNL    H32   71   0.099   0.038  -0.049
   0.00000   0.00000   0.00000   0.00000   0.00000   0.00000   0.00000   0.00000   0.00000
Generated with MDTraj, t= 65.0
 71
    1UNL     C1    1  -0.019  -0.048  -0.497
    1UNL     O1    2   0.026  -0.019  -0.370
    1UNL     C2    3   0.090   0.101  -0.362
    1UNL     O2    4   0.136   0.165  -0.455
    1UNL     C3    5   0.127   0.154  -0.222
    1UNL     C4    6   0.223   0.254  -0.221
    1UNL     O3    7   0.269   0.314  -0.108
    1UNL     C5    8   0.205   0.275   0.012
    1UNL     O4    9   0.293   0.197   0.098
    1UNL     C6   10   0.324   0.075   0.047
    1UNL     O5   11   0.230  -0.032   0.074
    1UNL     C7   12   0.260  -0.155   0.017
    1UNL     C8   13   0.152  -0.255   0.059
    1UNL     O6   14   0.028  -0.195   0.026
    1UNL     C9   15   0.397  -0.200   0.066
    1UNL     O7   16   0.400  -0.253   0.192
    1UNL    C10   17   0.511  -0.104   0.048
    1UNL     O8   18   0.552  -0.088  -0.085
    1UNL    C11   19   0.460   0.029   0.117
    1UNL     O9   20   0.434   0.024   0.252
    1UNL    C12   21   0.056   0.223  -0.003
    1UNL    C13   22  -0.013   0.186   0.128
    1UNL    C14   23  -0.147   0.266   0.133
    1UNL     N1   24  -0.237   0.193   0.032
    1UNL    C15   25  -0.385   0.200   0.059
    1UNL    C16   26  -0.437   0.096   0.160
    1UNL    C17   27  -0.395  -0.031   0.106
    1UNL    C18   28  -0.269  -0.051   0.045
    1UNL     N2   29  -0.254  -0.181   0.016
    1UNL    C19   30  -0.366  -0.246   0.063
    1UNL    C20   31  -0.404  -0.381   0.047
    1UNL    C21   32  -0.528  -0.419   0.102
    1UNL    C22   33  -0.611  -0.334   0.167
    1UNL    C23   34  -0.579  -0.200   0.175
    1UNL    C24   35  -0.454  -0.161   0.126
    1UNL    C25   36  -0.169   0.055   0.022
    1UNL    C26   37  -0.098   0.061  -0.116
    1UNL    C27   38   0.050   0.107  -0.104
    1UNL    O10   39  -0.063   0.046   0.123
    1UNL     H1   40  -0.007  -0.155  -0.523
    1UNL     H2   41   0.048   0.004  -0.572
    1UNL     H3   42  -0.114  -0.006  -0.514
    1UNL     H4   43   0.264   0.297  -0.321
    1UNL     H5   44   0.187   0.369   0.069
    1UNL     H6   45   0.332   0.072  -0.063
    1UNL     H7   46   0.265  -0.159  -0.096
    1UNL     H8   47   0.153  -0.352   0.011
    1UNL     H9   48   0.163  -0.290   0.165
    1UNL    H10   49   0.012  -0.109   0.075
    1UNL    H11   50   0.417  -0.286  -0.004
    1UNL    H12   51   0.371  -0.183   0.255
    1UNL    H13   52   0.591  -0.140   0.115
    1UNL    H14   53   0.476  -0.062  -0.144
    1UNL    H15   54   0.534   0.111   0.109
    1UNL    H16   55   0.374   0.101   0.272
    1UNL    H17   56  -0.009   0.307  -0.058
    1UNL    H18   57   0.054   0.194   0.221
    1UNL    H19   58  -0.142   0.366   0.089
    1UNL    H20   59  -0.188   0.264   0.233
    1UNL    H21   60  -0.402   0.302   0.083
    1UNL    H22   61  -0.436   0.182  -0.037
    1UNL    H23   62  -0.381   0.111   0.256
    1UNL    H24   63  -0.548   0.107   0.187
    1UNL    H25   64  -0.171  -0.217  -0.038
    1UNL    H26   65  -0.344  -0.444  -0.012
    1UNL    H27   66  -0.554  -0.520   0.082
    1UNL    H28   67  -0.696  -0.372   0.219
    1UNL    H29   68  -0.629  -0.132   0.235
    1UNL    H30   69  -0.095  -0.039  -0.157
    1UNL    H31   70  -0.145   0.126  -0.192
    1UNL    H32   71   0.110   0.024  -0.057
   0.00000   0.00000   0.00000   0.00000   0.00000   0.00000   0.00000   0.00000   0.00000
Generated with MDTraj, t= 66.0
 71
    1UNL     C1    1  -0.057  -0.057  -0.464
    1UNL     O1    2  -0.035   0.022  -0.352
    1UNL     C2    3   0.077   0.098  -0.359
    1UNL     O2    4   0.160   0.103  -0.447
    1UNL     C3    5   0.113   0.159  -0.227
    1UNL     C4    6   0.222   0.238  -0.221
    1UNL     O3    7   0.277   0.300  -0.114
    1UNL     C5    8   0.207   0.281   0.016
    1UNL     O4    9   0.285   0.200   0.112
    1UNL     C6   10   0.313   0.077   0.058
    1UNL     O5   11   0.231  -0.037   0.103
    1UNL     C7   12   0.255  -0.162   0.033
    1UNL     C8   13   0.159  -0.272   0.078
    1UNL     O6   14   0.030  -0.238   0.039
    1UNL     C9   15   0.404  -0.197   0.082
    1UNL     O7   16   0.405  -0.208   0.223
    1UNL    C10   17   0.502  -0.092   0.028
    1UNL     O8   18   0.501  -0.096  -0.113
    1UNL    C11   19   0.460   0.046   0.096
    1UNL     O9   20   0.490   0.061   0.228
    1UNL    C12   21   0.063   0.226   0.009
    1UNL    C13   22  -0.001   0.172   0.143
    1UNL    C14   23  -0.133   0.241   0.165
    1UNL     N1   24  -0.224   0.185   0.057
    1UNL    C15   25  -0.370   0.203   0.067
    1UNL    C16   26  -0.444   0.102   0.147
    1UNL    C17   27  -0.391  -0.029   0.096
    1UNL    C18   28  -0.269  -0.052   0.033
    1UNL     N2   29  -0.244  -0.180  -0.002
    1UNL    C19   30  -0.367  -0.246   0.029
    1UNL    C20   31  -0.404  -0.377   0.023
    1UNL    C21   32  -0.520  -0.414   0.080
    1UNL    C22   33  -0.611  -0.324   0.137
    1UNL    C23   34  -0.580  -0.192   0.141
    1UNL    C24   35  -0.455  -0.152   0.095
    1UNL    C25   36  -0.162   0.054   0.022
    1UNL    C26   37  -0.099   0.072  -0.115
    1UNL    C27   38   0.049   0.110  -0.103
    1UNL    O10   39  -0.050   0.038   0.118
    1UNL     H1   40   0.008  -0.146  -0.457
    1UNL     H2   41  -0.029   0.008  -0.549
    1UNL     H3   42  -0.158  -0.074  -0.476
    1UNL     H4   43   0.278   0.269  -0.304
    1UNL     H5   44   0.189   0.384   0.061
    1UNL     H6   45   0.305   0.075  -0.051
    1UNL     H7   46   0.254  -0.152  -0.081
    1UNL     H8   47   0.182  -0.369   0.037
    1UNL     H9   48   0.160  -0.285   0.188
    1UNL    H10   49   0.017  -0.143   0.066
    1UNL    H11   50   0.442  -0.294   0.040
    1UNL    H12   51   0.423  -0.114   0.262
    1UNL    H13   52   0.603  -0.118   0.062
    1UNL    H14   53   0.421  -0.059  -0.153
    1UNL    H15   54   0.524   0.119   0.040
    1UNL    H16   55   0.450   0.149   0.256
    1UNL    H17   56  -0.001   0.318  -0.032
    1UNL    H18   57   0.069   0.180   0.233
    1UNL    H19   58  -0.118   0.349   0.146
    1UNL    H20   59  -0.169   0.229   0.266
    1UNL    H21   60  -0.392   0.302   0.101
    1UNL    H22   61  -0.401   0.187  -0.035
    1UNL    H23   62  -0.416   0.115   0.254
    1UNL    H24   63  -0.557   0.114   0.131
    1UNL    H25   64  -0.152  -0.221   0.011
    1UNL    H26   65  -0.337  -0.446  -0.030
    1UNL    H27   66  -0.543  -0.521   0.081
    1UNL    H28   67  -0.690  -0.344   0.210
    1UNL    H29   68  -0.641  -0.116   0.198
    1UNL    H30   69  -0.110  -0.010  -0.183
    1UNL    H31   70  -0.158   0.150  -0.170
    1UNL    H32   71   0.105   0.032  -0.063
   0.00000   0.00000   0.00000   0.00000   0.00000   0.00000   0.00000   0.00000   0.00000
Generated with MDTraj, t= 67.0
 71
    1UNL     C1    1  -0.073  -0.040  -0.496
    1UNL     O1    2  -0.060   0.027  -0.371
    1UNL     C2    3   0.074   0.076  -0.352
    1UNL     O2    4   0.170   0.062  -0.427
    1UNL     C3    5   0.112   0.135  -0.226
    1UNL     C4    6   0.220   0.216  -0.222
    1UNL     O3    7   0.263   0.280  -0.115
    1UNL     C5    8   0.205   0.268   0.018
    1UNL     O4    9   0.282   0.197   0.110
    1UNL     C6   10   0.321   0.072   0.049
    1UNL     O5   11   0.248  -0.043   0.116
    1UNL     C7   12   0.280  -0.172   0.062
    1UNL     C8   13   0.170  -0.261   0.118
    1UNL     O6   14   0.049  -0.226   0.066
    1UNL     C9   15   0.430  -0.204   0.092
    1UNL     O7   16   0.450  -0.192   0.228
    1UNL    C10   17   0.520  -0.103   0.014
    1UNL     O8   18   0.516  -0.118  -0.124
    1UNL    C11   19   0.475   0.045   0.068
    1UNL     O9   20   0.510   0.079   0.199
    1UNL    C12   21   0.064   0.218   0.017
    1UNL    C13   22  -0.006   0.168   0.144
    1UNL    C14   23  -0.131   0.263   0.168
    1UNL     N1   24  -0.242   0.203   0.093
    1UNL    C15   25  -0.388   0.235   0.118
    1UNL    C16   26  -0.468   0.103   0.146
    1UNL    C17   27  -0.405  -0.019   0.081
    1UNL    C18   28  -0.274  -0.039   0.042
    1UNL     N2   29  -0.250  -0.174   0.009
    1UNL    C19   30  -0.368  -0.238   0.028
    1UNL    C20   31  -0.387  -0.375   0.019
    1UNL    C21   32  -0.516  -0.425   0.041
    1UNL    C22   33  -0.616  -0.335   0.092
    1UNL    C23   34  -0.595  -0.202   0.110
    1UNL    C24   35  -0.467  -0.152   0.078
    1UNL    C25   36  -0.180   0.072   0.032
    1UNL    C26   37  -0.123   0.098  -0.110
    1UNL    C27   38   0.031   0.117  -0.098
    1UNL    O10   39  -0.068   0.039   0.117
    1UNL     H1   40   0.024  -0.088  -0.513
    1UNL     H2   41  -0.095   0.045  -0.563
    1UNL     H3   42  -0.157  -0.099  -0.502
    1UNL     H4   43   0.273   0.241  -0.309
    1UNL     H5   44   0.204   0.376   0.055
    1UNL     H6   45   0.289   0.072  -0.055
    1UNL     H7   46   0.261  -0.155  -0.050
    1UNL     H8   47   0.182  -0.366   0.091
    1UNL     H9   48   0.164  -0.246   0.228
    1UNL    H10   49   0.017  -0.138   0.090
    1UNL    H11   50   0.461  -0.308   0.069
    1UNL    H12   51   0.469  -0.103   0.251
    1UNL    H13   52   0.624  -0.118   0.046
    1UNL    H14   53   0.561  -0.045  -0.165
    1UNL    H15   54   0.524   0.116  -0.003
    1UNL    H16   55   0.445   0.140   0.234
    1UNL    H17   56   0.003   0.313  -0.022
    1UNL    H18   57   0.072   0.162   0.227
    1UNL    H19   58  -0.103   0.368   0.148
    1UNL    H20   59  -0.152   0.263   0.274
    1UNL    H21   60  -0.390   0.298   0.207
    1UNL    H22   61  -0.422   0.286   0.033
    1UNL    H23   62  -0.472   0.076   0.255
    1UNL    H24   63  -0.573   0.116   0.105
    1UNL    H25   64  -0.167  -0.216  -0.024
    1UNL    H26   65  -0.315  -0.438  -0.024
    1UNL    H27   66  -0.547  -0.526   0.027
    1UNL    H28   67  -0.705  -0.387   0.115
    1UNL    H29   68  -0.665  -0.134   0.149
    1UNL    H30   69  -0.162   0.026  -0.181
    1UNL    H31   70  -0.175   0.185  -0.159
    1UNL    H32   71   0.063   0.029  -0.051
   0.00000   0.00000   0.00000   0.00000   0.00000   0.00000   0.00000   0.00000   0.00000
Generated with MDTraj, t= 68.0
 71
    1UNL     C1    1  -0.094  -0.022  -0.491
    1UNL     O1    2  -0.061   0.007  -0.360
    1UNL     C2    3   0.063   0.065  -0.347
    1UNL     O2    4   0.150   0.062  -0.432
    1UNL     C3    5   0.104   0.127  -0.219
    1UNL     C4    6   0.204   0.217  -0.217
    1UNL     O3    7   0.263   0.296  -0.124
    1UNL     C5    8   0.211   0.286   0.007
    1UNL     O4    9   0.289   0.195   0.087
    1UNL     C6   10   0.330   0.059   0.040
    1UNL     O5   11   0.253  -0.040   0.108
    1UNL     C7   12   0.282  -0.174   0.061
    1UNL     C8   13   0.189  -0.271   0.130
    1UNL     O6   14   0.055  -0.228   0.118
    1UNL     C9   15   0.430  -0.210   0.093
    1UNL     O7   16   0.454  -0.203   0.227
    1UNL    C10   17   0.521  -0.105   0.019
    1UNL     O8   18   0.525  -0.127  -0.116
    1UNL    C11   19   0.481   0.047   0.062
    1UNL     O9   20   0.515   0.079   0.197
    1UNL    C12   21   0.058   0.233  -0.002
    1UNL    C13   22  -0.002   0.196   0.138
    1UNL    C14   23  -0.133   0.283   0.157
    1UNL     N1   24  -0.234   0.202   0.091
    1UNL    C15   25  -0.373   0.229   0.125
    1UNL    C16   26  -0.469   0.107   0.151
    1UNL    C17   27  -0.417  -0.026   0.090
    1UNL    C18   28  -0.283  -0.038   0.054
    1UNL     N2   29  -0.250  -0.173   0.026
    1UNL    C19   30  -0.368  -0.244   0.023
    1UNL    C20   31  -0.395  -0.381   0.006
    1UNL    C21   32  -0.521  -0.431   0.012
    1UNL    C22   33  -0.624  -0.344   0.047
    1UNL    C23   34  -0.601  -0.211   0.074
    1UNL    C24   35  -0.466  -0.161   0.068
    1UNL    C25   36  -0.178   0.079   0.055
    1UNL    C26   37  -0.121   0.094  -0.091
    1UNL    C27   38   0.035   0.114  -0.089
    1UNL    O10   39  -0.057   0.063   0.144
    1UNL     H1   40  -0.049  -0.119  -0.522
    1UNL     H2   41  -0.065   0.070  -0.549
    1UNL     H3   42  -0.198  -0.017  -0.491
    1UNL     H4   43   0.238   0.236  -0.326
    1UNL     H5   44   0.233   0.384   0.054
    1UNL     H6   45   0.309   0.064  -0.065
    1UNL     H7   46   0.253  -0.168  -0.049
    1UNL     H8   47   0.198  -0.369   0.081
    1UNL     H9   48   0.209  -0.272   0.240
    1UNL    H10   49   0.042  -0.134   0.145
    1UNL    H11   50   0.456  -0.311   0.059
    1UNL    H12   51   0.472  -0.105   0.246
    1UNL    H13   52   0.625  -0.116   0.053
    1UNL    H14   53   0.513  -0.044  -0.163
    1UNL    H15   54   0.534   0.119  -0.004
    1UNL    H16   55   0.444   0.136   0.244
    1UNL    H17   56  -0.012   0.315  -0.047
    1UNL    H18   57   0.064   0.218   0.223
    1UNL    H19   58  -0.135   0.386   0.115
    1UNL    H20   59  -0.158   0.304   0.260
    1UNL    H21   60  -0.361   0.293   0.213
    1UNL    H22   61  -0.403   0.286   0.046
    1UNL    H23   62  -0.480   0.084   0.260
    1UNL    H24   63  -0.570   0.115   0.102
    1UNL    H25   64  -0.159  -0.217   0.052
    1UNL    H26   65  -0.316  -0.450  -0.021
    1UNL    H27   66  -0.544  -0.530  -0.029
    1UNL    H28   67  -0.729  -0.373   0.047
    1UNL    H29   68  -0.674  -0.135   0.104
    1UNL    H30   69  -0.158   0.011  -0.150
    1UNL    H31   70  -0.182   0.170  -0.146
    1UNL    H32   71   0.074   0.027  -0.048
   0.00000   0.00000   0.00000   0.00000   0.00000   0.00000   0.00000   0.00000   0.00000
Generated with MDTraj, t= 69.0
 71
    1UNL     C1    1  -0.117  -0.070  -0.442
    1UNL     O1    2  -0.088   0.027  -0.339
    1UNL     C2    3   0.040   0.090  -0.349
    1UNL     O2    4   0.107   0.096  -0.451
    1UNL     C3    5   0.102   0.137  -0.223
    1UNL     C4    6   0.215   0.211  -0.232
    1UNL     O3    7   0.268   0.286  -0.126
    1UNL     C5    8   0.214   0.276   0.006
    1UNL     O4    9   0.286   0.197   0.097
    1UNL     C6   10   0.325   0.066   0.048
    1UNL     O5   11   0.238  -0.031   0.097
    1UNL     C7   12   0.269  -0.168   0.054
    1UNL     C8   13   0.179  -0.254   0.136
    1UNL     O6   14   0.037  -0.221   0.112
    1UNL     C9   15   0.415  -0.203   0.091
    1UNL     O7   16   0.435  -0.214   0.226
    1UNL    C10   17   0.508  -0.100   0.022
    1UNL     O8   18   0.504  -0.114  -0.116
    1UNL    C11   19   0.479   0.050   0.070
    1UNL     O9   20   0.499   0.067   0.213
    1UNL    C12   21   0.063   0.226   0.004
    1UNL    C13   22  -0.004   0.206   0.148
    1UNL    C14   23  -0.133   0.277   0.165
    1UNL     N1   24  -0.221   0.202   0.068
    1UNL    C15   25  -0.370   0.214   0.063
    1UNL    C16   26  -0.435   0.098   0.128
    1UNL    C17   27  -0.378  -0.032   0.098
    1UNL    C18   28  -0.242  -0.053   0.080
    1UNL     N2   29  -0.229  -0.183   0.046
    1UNL    C19   30  -0.349  -0.251   0.048
    1UNL    C20   31  -0.383  -0.379   0.002
    1UNL    C21   32  -0.516  -0.413  -0.018
    1UNL    C22   33  -0.617  -0.319   0.014
    1UNL    C23   34  -0.589  -0.195   0.067
    1UNL    C24   35  -0.453  -0.157   0.087
    1UNL    C25   36  -0.157   0.063   0.059
    1UNL    C26   37  -0.104   0.059  -0.084
    1UNL    C27   38   0.045   0.111  -0.087
    1UNL    O10   39  -0.033   0.062   0.145
    1UNL     H1   40  -0.034  -0.146  -0.439
    1UNL     H2   41  -0.127  -0.008  -0.537
    1UNL     H3   42  -0.212  -0.115  -0.421
    1UNL     H4   43   0.248   0.225  -0.335
    1UNL     H5   44   0.231   0.375   0.049
    1UNL     H6   45   0.319   0.086  -0.057
    1UNL     H7   46   0.244  -0.174  -0.055
    1UNL     H8   47   0.197  -0.359   0.106
    1UNL     H9   48   0.200  -0.229   0.242
    1UNL    H10   49   0.022  -0.123   0.124
    1UNL    H11   50   0.436  -0.303   0.056
    1UNL    H12   51   0.441  -0.116   0.255
    1UNL    H13   52   0.609  -0.135   0.053
    1UNL    H14   53   0.412  -0.103  -0.153
    1UNL    H15   54   0.545   0.118   0.016
    1UNL    H16   55   0.452   0.140   0.253
    1UNL    H17   56   0.014   0.323  -0.034
    1UNL    H18   57   0.070   0.218   0.226
    1UNL    H19   58  -0.133   0.386   0.146
    1UNL    H20   59  -0.169   0.271   0.267
    1UNL    H21   60  -0.400   0.308   0.110
    1UNL    H22   61  -0.397   0.212  -0.036
    1UNL    H23   62  -0.420   0.098   0.241
    1UNL    H24   63  -0.544   0.092   0.102
    1UNL    H25   64  -0.147  -0.230   0.000
    1UNL    H26   65  -0.307  -0.449  -0.028
    1UNL    H27   66  -0.534  -0.503  -0.073
    1UNL    H28   67  -0.722  -0.343   0.005
    1UNL    H29   68  -0.670  -0.126   0.094
    1UNL    H30   69  -0.124  -0.038  -0.128
    1UNL    H31   70  -0.176   0.108  -0.154
    1UNL    H32   71   0.107   0.036  -0.044
   0.00000   0.00000   0.00000   0.00000   0.00000   0.00000   0.00000   0.00000   0.00000
Generated with MDTraj, t= 70.0
 71
    1UNL     C1    1  -0.128  -0.056  -0.447
    1UNL     O1    2  -0.051  -0.020  -0.333
    1UNL     C2    3   0.031   0.085  -0.356
    1UNL     O2    4   0.073   0.127  -0.463
    1UNL     C3    5   0.091   0.135  -0.232
    1UNL     C4    6   0.193   0.222  -0.245
    1UNL     O3    7   0.268   0.274  -0.138
    1UNL     C5    8   0.212   0.268  -0.004
    1UNL     O4    9   0.300   0.202   0.094
    1UNL     C6   10   0.333   0.070   0.061
    1UNL     O5   11   0.240  -0.025   0.121
    1UNL     C7   12   0.261  -0.155   0.056
    1UNL     C8   13   0.165  -0.252   0.118
    1UNL     O6   14   0.033  -0.209   0.088
    1UNL     C9   15   0.416  -0.198   0.087
    1UNL     O7   16   0.434  -0.219   0.223
    1UNL    C10   17   0.519  -0.097   0.032
    1UNL     O8   18   0.516  -0.103  -0.113
    1UNL    C11   19   0.479   0.043   0.092
    1UNL     O9   20   0.486   0.044   0.233
    1UNL    C12   21   0.065   0.230  -0.003
    1UNL    C13   22   0.011   0.208   0.142
    1UNL    C14   23  -0.127   0.281   0.154
    1UNL     N1   24  -0.218   0.192   0.082
    1UNL    C15   25  -0.361   0.212   0.072
    1UNL    C16   26  -0.453   0.096   0.113
    1UNL    C17   27  -0.385  -0.030   0.104
    1UNL    C18   28  -0.252  -0.052   0.084
    1UNL     N2   29  -0.228  -0.184   0.059
    1UNL    C19   30  -0.352  -0.247   0.045
    1UNL    C20   31  -0.381  -0.380   0.003
    1UNL    C21   32  -0.519  -0.413  -0.010
    1UNL    C22   33  -0.615  -0.319   0.023
    1UNL    C23   34  -0.583  -0.190   0.059
    1UNL    C24   35  -0.452  -0.153   0.073
    1UNL    C25   36  -0.147   0.058   0.066
    1UNL    C26   37  -0.095   0.047  -0.081
    1UNL    C27   38   0.050   0.102  -0.091
    1UNL    O10   39  -0.033   0.066   0.154
    1UNL     H1   40  -0.051  -0.106  -0.513
    1UNL     H2   41  -0.173   0.038  -0.489
    1UNL     H3   42  -0.208  -0.124  -0.417
    1UNL     H4   43   0.231   0.248  -0.336
    1UNL     H5   44   0.215   0.367   0.039
    1UNL     H6   45   0.333   0.069  -0.048
    1UNL     H7   46   0.248  -0.142  -0.052
    1UNL     H8   47   0.177  -0.349   0.064
    1UNL     H9   48   0.185  -0.253   0.227
    1UNL    H10   49   0.018  -0.113   0.117
    1UNL    H11   50   0.434  -0.295   0.043
    1UNL    H12   51   0.435  -0.137   0.266
    1UNL    H13   52   0.622  -0.124   0.064
    1UNL    H14   53   0.534  -0.010  -0.152
    1UNL    H15   54   0.539   0.122   0.050
    1UNL    H16   55   0.445   0.128   0.268
    1UNL    H17   56   0.002   0.313  -0.051
    1UNL    H18   57   0.078   0.231   0.222
    1UNL    H19   58  -0.129   0.380   0.106
    1UNL    H20   59  -0.161   0.302   0.256
    1UNL    H21   60  -0.386   0.307   0.120
    1UNL    H22   61  -0.366   0.219  -0.032
    1UNL    H23   62  -0.485   0.108   0.221
    1UNL    H24   63  -0.543   0.091   0.047
    1UNL    H25   64  -0.134  -0.225   0.052
    1UNL    H26   65  -0.303  -0.447  -0.024
    1UNL    H27   66  -0.552  -0.516  -0.027
    1UNL    H28   67  -0.714  -0.359   0.038
    1UNL    H29   68  -0.650  -0.121   0.099
    1UNL    H30   69  -0.119  -0.044  -0.137
    1UNL    H31   70  -0.169   0.107  -0.137
    1UNL    H32   71   0.116   0.016  -0.057
   0.00000   0.00000   0.00000   0.00000   0.00000   0.00000   0.00000   0.00000   0.00000
Generated with MDTraj, t= 71.0
 71
    1UNL     C1    1  -0.105  -0.056  -0.471
    1UNL     O1    2  -0.045  -0.031  -0.345
    1UNL     C2    3   0.031   0.083  -0.348
    1UNL     O2    4   0.046   0.158  -0.444
    1UNL     C3    5   0.105   0.112  -0.225
    1UNL     C4    6   0.207   0.199  -0.231
    1UNL     O3    7   0.283   0.257  -0.138
    1UNL     C5    8   0.216   0.258  -0.002
    1UNL     O4    9   0.309   0.202   0.089
    1UNL     C6   10   0.353   0.079   0.040
    1UNL     O5   11   0.258  -0.031   0.087
    1UNL     C7   12   0.289  -0.160   0.040
    1UNL     C8   13   0.188  -0.260   0.098
    1UNL     O6   14   0.059  -0.225   0.071
    1UNL     C9   15   0.434  -0.198   0.088
    1UNL     O7   16   0.440  -0.216   0.221
    1UNL    C10   17   0.532  -0.095   0.051
    1UNL     O8   18   0.554  -0.084  -0.093
    1UNL    C11   19   0.483   0.044   0.105
    1UNL     O9   20   0.469   0.052   0.250
    1UNL    C12   21   0.071   0.213   0.002
    1UNL    C13   22   0.005   0.183   0.137
    1UNL    C14   23  -0.128   0.274   0.148
    1UNL     N1   24  -0.239   0.208   0.079
    1UNL    C15   25  -0.370   0.227   0.136
    1UNL    C16   26  -0.477   0.114   0.108
    1UNL    C17   27  -0.412  -0.019   0.073
    1UNL    C18   28  -0.273  -0.037   0.059
    1UNL     N2   29  -0.243  -0.167   0.045
    1UNL    C19   30  -0.362  -0.238   0.052
    1UNL    C20   31  -0.386  -0.374   0.036
    1UNL    C21   32  -0.512  -0.419   0.034
    1UNL    C22   33  -0.624  -0.332   0.038
    1UNL    C23   34  -0.601  -0.200   0.066
    1UNL    C24   35  -0.468  -0.148   0.072
    1UNL    C25   36  -0.177   0.069   0.048
    1UNL    C26   37  -0.118   0.074  -0.098
    1UNL    C27   38   0.041   0.087  -0.091
    1UNL    O10   39  -0.058   0.051   0.137
    1UNL     H1   40  -0.016  -0.039  -0.537
    1UNL     H2   41  -0.184   0.019  -0.489
    1UNL     H3   42  -0.132  -0.161  -0.479
    1UNL     H4   43   0.237   0.239  -0.333
    1UNL     H5   44   0.207   0.365   0.021
    1UNL     H6   45   0.363   0.072  -0.070
    1UNL     H7   46   0.291  -0.162  -0.067
    1UNL     H8   47   0.201  -0.358   0.048
    1UNL     H9   48   0.194  -0.266   0.207
    1UNL    H10   49   0.033  -0.135   0.106
    1UNL    H11   50   0.457  -0.297   0.047
    1UNL    H12   51   0.442  -0.127   0.270
    1UNL    H13   52   0.632  -0.116   0.094
    1UNL    H14   53   0.610  -0.005  -0.122
    1UNL    H15   54   0.551   0.121   0.075
    1UNL    H16   55   0.414   0.136   0.264
    1UNL    H17   56   0.017   0.290  -0.059
    1UNL    H18   57   0.071   0.191   0.218
    1UNL    H19   58  -0.109   0.374   0.108
    1UNL    H20   59  -0.150   0.278   0.256
    1UNL    H21   60  -0.356   0.240   0.243
    1UNL    H22   61  -0.399   0.325   0.111
    1UNL    H23   62  -0.555   0.094   0.187
    1UNL    H24   63  -0.531   0.135   0.014
    1UNL    H25   64  -0.149  -0.198   0.020
    1UNL    H26   65  -0.303  -0.440   0.007
    1UNL    H27   66  -0.538  -0.521   0.023
    1UNL    H28   67  -0.730  -0.359   0.041
    1UNL    H29   68  -0.692  -0.134   0.075
    1UNL    H30   69  -0.148  -0.015  -0.152
    1UNL    H31   70  -0.164   0.145  -0.166
    1UNL    H32   71   0.085  -0.010  -0.040
   0.00000   0.00000   0.00000   0.00000   0.00000   0.00000   0.00000   0.00000   0.00000
Generated with MDTraj, t= 72.0
 71
    1UNL     C1    1  -0.090  -0.068  -0.481
    1UNL     O1    2  -0.055  -0.017  -0.355
    1UNL     C2    3   0.026   0.095  -0.364
    1UNL     O2    4   0.064   0.140  -0.470
    1UNL     C3    5   0.083   0.157  -0.246
    1UNL     C4    6   0.201   0.227  -0.243
    1UNL     O3    7   0.272   0.260  -0.134
    1UNL     C5    8   0.209   0.263  -0.001
    1UNL     O4    9   0.273   0.192   0.104
    1UNL     C6   10   0.330   0.071   0.064
    1UNL     O5   11   0.257  -0.053   0.097
    1UNL     C7   12   0.302  -0.169   0.034
    1UNL     C8   13   0.193  -0.279   0.063
    1UNL     O6   14   0.067  -0.226   0.036
    1UNL     C9   15   0.447  -0.211   0.091
    1UNL     O7   16   0.435  -0.236   0.231
    1UNL    C10   17   0.539  -0.097   0.072
    1UNL     O8   18   0.582  -0.081  -0.065
    1UNL    C11   19   0.469   0.039   0.118
    1UNL     O9   20   0.482   0.067   0.262
    1UNL    C12   21   0.062   0.234  -0.009
    1UNL    C13   22   0.004   0.191   0.130
    1UNL    C14   23  -0.124   0.269   0.163
    1UNL     N1   24  -0.237   0.196   0.092
    1UNL    C15   25  -0.357   0.183   0.171
    1UNL    C16   26  -0.464   0.112   0.081
    1UNL    C17   27  -0.402  -0.019   0.045
    1UNL    C18   28  -0.267  -0.045   0.042
    1UNL     N2   29  -0.244  -0.183   0.044
    1UNL    C19   30  -0.366  -0.249   0.052
    1UNL    C20   31  -0.397  -0.388   0.066
    1UNL    C21   32  -0.529  -0.412   0.080
    1UNL    C22   33  -0.630  -0.311   0.096
    1UNL    C23   34  -0.604  -0.179   0.080
    1UNL    C24   35  -0.468  -0.150   0.051
    1UNL    C25   36  -0.170   0.072   0.037
    1UNL    C26   37  -0.129   0.100  -0.112
    1UNL    C27   38   0.026   0.121  -0.120
    1UNL    O10   39  -0.042   0.061   0.113
    1UNL     H1   40   0.004  -0.096  -0.528
    1UNL     H2   41  -0.145   0.009  -0.535
    1UNL     H3   42  -0.134  -0.163  -0.455
    1UNL     H4   43   0.241   0.262  -0.343
    1UNL     H5   44   0.214   0.372   0.023
    1UNL     H6   45   0.334   0.062  -0.048
    1UNL     H7   46   0.317  -0.150  -0.068
    1UNL     H8   47   0.196  -0.367  -0.005
    1UNL     H9   48   0.196  -0.315   0.164
    1UNL    H10   49   0.049  -0.138   0.075
    1UNL    H11   50   0.488  -0.305   0.048
    1UNL    H12   51   0.437  -0.146   0.279
    1UNL    H13   52   0.633  -0.110   0.129
    1UNL    H14   53   0.665  -0.031  -0.075
    1UNL    H15   54   0.530   0.121   0.078
    1UNL    H16   55   0.429   0.145   0.279
    1UNL    H17   56   0.021   0.327  -0.055
    1UNL    H18   57   0.074   0.195   0.211
    1UNL    H19   58  -0.111   0.374   0.140
    1UNL    H20   59  -0.132   0.244   0.272
    1UNL    H21   60  -0.337   0.130   0.263
    1UNL    H22   61  -0.389   0.278   0.208
    1UNL    H23   62  -0.561   0.102   0.137
    1UNL    H24   63  -0.485   0.175  -0.007
    1UNL    H25   64  -0.152  -0.219   0.021
    1UNL    H26   65  -0.328  -0.467   0.052
    1UNL    H27   66  -0.561  -0.515   0.060
    1UNL    H28   67  -0.728  -0.353   0.100
    1UNL    H29   68  -0.678  -0.106   0.085
    1UNL    H30   69  -0.151   0.016  -0.178
    1UNL    H31   70  -0.187   0.177  -0.158
    1UNL    H32   71   0.092   0.032  -0.077
   0.00000   0.00000   0.00000   0.00000   0.00000   0.00000   0.00000   0.00000   0.00000
Generated with MDTraj, t= 73.0
 71
    1UNL     C1    1  -0.085  -0.044  -0.490
    1UNL     O1    2  -0.065   0.035  -0.372
    1UNL     C2    3   0.053   0.107  -0.373
    1UNL     O2    4   0.120   0.124  -0.475
    1UNL     C3    5   0.102   0.150  -0.235
    1UNL     C4    6   0.209   0.235  -0.243
    1UNL     O3    7   0.277   0.277  -0.132
    1UNL     C5    8   0.218   0.273  -0.006
    1UNL     O4    9   0.291   0.198   0.092
    1UNL     C6   10   0.338   0.079   0.040
    1UNL     O5   11   0.241  -0.029   0.054
    1UNL     C7   12   0.282  -0.161   0.025
    1UNL     C8   13   0.179  -0.268   0.069
    1UNL     O6   14   0.055  -0.228   0.009
    1UNL     C9   15   0.418  -0.193   0.098
    1UNL     O7   16   0.393  -0.215   0.239
    1UNL    C10   17   0.531  -0.090   0.074
    1UNL     O8   18   0.571  -0.095  -0.063
    1UNL    C11   19   0.465   0.047   0.122
    1UNL     O9   20   0.429   0.041   0.269
    1UNL    C12   21   0.065   0.223  -0.007
    1UNL    C13   22   0.022   0.154   0.127
    1UNL    C14   23  -0.096   0.242   0.176
    1UNL     N1   24  -0.216   0.192   0.090
    1UNL    C15   25  -0.353   0.207   0.150
    1UNL    C16   26  -0.460   0.118   0.079
    1UNL    C17   27  -0.413  -0.023   0.061
    1UNL    C18   28  -0.280  -0.041   0.041
    1UNL     N2   29  -0.247  -0.175   0.044
    1UNL    C19   30  -0.362  -0.248   0.055
    1UNL    C20   31  -0.392  -0.380   0.079
    1UNL    C21   32  -0.515  -0.428   0.108
    1UNL    C22   33  -0.622  -0.348   0.127
    1UNL    C23   34  -0.603  -0.211   0.111
    1UNL    C24   35  -0.475  -0.154   0.075
    1UNL    C25   36  -0.168   0.065   0.031
    1UNL    C26   37  -0.115   0.084  -0.117
    1UNL    C27   38   0.040   0.122  -0.109
    1UNL    O10   39  -0.049   0.027   0.108
    1UNL     H1   40  -0.019  -0.128  -0.483
    1UNL     H2   41  -0.060   0.021  -0.572
    1UNL     H3   42  -0.181  -0.092  -0.483
    1UNL     H4   43   0.242   0.260  -0.336
    1UNL     H5   44   0.210   0.376   0.040
    1UNL     H6   45   0.372   0.081  -0.067
    1UNL     H7   46   0.301  -0.164  -0.079
    1UNL     H8   47   0.203  -0.376   0.052
    1UNL     H9   48   0.166  -0.262   0.175
    1UNL    H10   49   0.023  -0.139   0.033
    1UNL    H11   50   0.459  -0.294   0.071
    1UNL    H12   51   0.365  -0.131   0.267
    1UNL    H13   52   0.620  -0.120   0.130
    1UNL    H14   53   0.589  -0.005  -0.089
    1UNL    H15   54   0.528   0.140   0.112
    1UNL    H16   55   0.390   0.127   0.291
    1UNL    H17   56  -0.012   0.299  -0.035
    1UNL    H18   57   0.096   0.127   0.203
    1UNL    H19   58  -0.078   0.348   0.159
    1UNL    H20   59  -0.121   0.225   0.283
    1UNL    H21   60  -0.354   0.178   0.250
    1UNL    H22   61  -0.383   0.310   0.159
    1UNL    H23   62  -0.552   0.119   0.144
    1UNL    H24   63  -0.485   0.168  -0.015
    1UNL    H25   64  -0.156  -0.217   0.012
    1UNL    H26   65  -0.298  -0.439   0.080
    1UNL    H27   66  -0.530  -0.533   0.117
    1UNL    H28   67  -0.720  -0.394   0.139
    1UNL    H29   68  -0.684  -0.141   0.136
    1UNL    H30   69  -0.124  -0.015  -0.165
    1UNL    H31   70  -0.168   0.143  -0.187
    1UNL    H32   71   0.096   0.023  -0.077
   0.00000   0.00000   0.00000   0.00000   0.00000   0.00000   0.00000   0.00000   0.00000
Generated with MDTraj, t= 74.0
 71
    1UNL     C1    1  -0.091   0.025  -0.531
    1UNL     O1    2  -0.058   0.040  -0.396
    1UNL     C2    3   0.068   0.091  -0.373
    1UNL     O2    4   0.151   0.096  -0.464
    1UNL     C3    5   0.110   0.138  -0.239
    1UNL     C4    6   0.211   0.228  -0.245
    1UNL     O3    7   0.261   0.298  -0.136
    1UNL     C5    8   0.212   0.276  -0.007
    1UNL     O4    9   0.291   0.209   0.095
    1UNL     C6   10   0.325   0.070   0.059
    1UNL     O5   11   0.227  -0.034   0.073
    1UNL     C7   12   0.272  -0.152   0.018
    1UNL     C8   13   0.162  -0.253   0.030
    1UNL     O6   14   0.034  -0.193  -0.009
    1UNL     C9   15   0.397  -0.199   0.101
    1UNL     O7   16   0.363  -0.222   0.238
    1UNL    C10   17   0.510  -0.099   0.087
    1UNL     O8   18   0.554  -0.113  -0.050
    1UNL    C11   19   0.457   0.039   0.123
    1UNL     O9   20   0.435   0.044   0.262
    1UNL    C12   21   0.072   0.217  -0.013
    1UNL    C13   22   0.009   0.179   0.130
    1UNL    C14   23  -0.113   0.267   0.158
    1UNL     N1   24  -0.217   0.198   0.085
    1UNL    C15   25  -0.358   0.194   0.149
    1UNL    C16   26  -0.456   0.091   0.087
    1UNL    C17   27  -0.387  -0.037   0.070
    1UNL    C18   28  -0.254  -0.061   0.039
    1UNL     N2   29  -0.235  -0.200   0.033
    1UNL    C19   30  -0.350  -0.266   0.073
    1UNL    C20   31  -0.383  -0.406   0.084
    1UNL    C21   32  -0.512  -0.429   0.118
    1UNL    C22   33  -0.604  -0.327   0.140
    1UNL    C23   34  -0.573  -0.192   0.136
    1UNL    C24   35  -0.443  -0.165   0.099
    1UNL    C25   36  -0.162   0.065   0.031
    1UNL    C26   37  -0.108   0.074  -0.115
    1UNL    C27   38   0.045   0.101  -0.112
    1UNL    O10   39  -0.046   0.048   0.119
    1UNL     H1   40  -0.031  -0.058  -0.569
    1UNL     H2   41  -0.069   0.119  -0.578
    1UNL     H3   42  -0.195  -0.011  -0.530
    1UNL     H4   43   0.258   0.253  -0.339
    1UNL     H5   44   0.194   0.376   0.040
    1UNL     H6   45   0.348   0.078  -0.051
    1UNL     H7   46   0.285  -0.134  -0.086
    1UNL     H8   47   0.180  -0.343  -0.034
    1UNL     H9   48   0.148  -0.292   0.128
    1UNL    H10   49   0.016  -0.119   0.052
    1UNL    H11   50   0.421  -0.303   0.066
    1UNL    H12   51   0.351  -0.126   0.269
    1UNL    H13   52   0.594  -0.138   0.147
    1UNL    H14   53   0.597  -0.027  -0.068
    1UNL    H15   54   0.525   0.126   0.096
    1UNL    H16   55   0.373   0.121   0.282
    1UNL    H17   56   0.008   0.301  -0.052
    1UNL    H18   57   0.091   0.182   0.205
    1UNL    H19   58  -0.107   0.368   0.120
    1UNL    H20   59  -0.155   0.272   0.262
    1UNL    H21   60  -0.358   0.179   0.251
    1UNL    H22   61  -0.404   0.294   0.152
    1UNL    H23   62  -0.544   0.085   0.155
    1UNL    H24   63  -0.500   0.136  -0.003
    1UNL    H25   64  -0.147  -0.256   0.019
    1UNL    H26   65  -0.311  -0.484   0.082
    1UNL    H27   66  -0.536  -0.533   0.136
    1UNL    H28   67  -0.701  -0.341   0.183
    1UNL    H29   68  -0.652  -0.120   0.160
    1UNL    H30   69  -0.140  -0.004  -0.185
    1UNL    H31   70  -0.154   0.163  -0.152
    1UNL    H32   71   0.106   0.017  -0.067
   0.00000   0.00000   0.00000   0.00000   0.00000   0.00000   0.00000   0.00000   0.00000
Generated with MDTraj, t= 75.0
 71
    1UNL     C1    1  -0.104   0.029  -0.515
    1UNL     O1    2  -0.062   0.077  -0.388
    1UNL     C2    3   0.069   0.109  -0.373
    1UNL     O2    4   0.149   0.102  -0.463
    1UNL     C3    5   0.122   0.147  -0.243
    1UNL     C4    6   0.243   0.209  -0.233
    1UNL     O3    7   0.305   0.258  -0.124
    1UNL     C5    8   0.215   0.267  -0.004
    1UNL     O4    9   0.278   0.188   0.097
    1UNL     C6   10   0.340   0.062   0.052
    1UNL     O5   11   0.229  -0.035   0.056
    1UNL     C7   12   0.270  -0.163   0.015
    1UNL     C8   13   0.149  -0.254   0.035
    1UNL     O6   14   0.040  -0.195  -0.025
    1UNL     C9   15   0.391  -0.213   0.099
    1UNL     O7   16   0.354  -0.230   0.234
    1UNL    C10   17   0.505  -0.112   0.088
    1UNL     O8   18   0.556  -0.110  -0.051
    1UNL    C11   19   0.467   0.031   0.131
    1UNL     O9   20   0.436   0.055   0.269
    1UNL    C12   21   0.067   0.221  -0.024
    1UNL    C13   22  -0.016   0.202   0.111
    1UNL    C14   23  -0.134   0.299   0.107
    1UNL     N1   24  -0.247   0.207   0.062
    1UNL    C15   25  -0.360   0.191   0.158
    1UNL    C16   26  -0.460   0.091   0.107
    1UNL    C17   27  -0.397  -0.041   0.077
    1UNL    C18   28  -0.266  -0.041   0.041
    1UNL     N2   29  -0.231  -0.176   0.046
    1UNL    C19   30  -0.338  -0.255   0.087
    1UNL    C20   31  -0.364  -0.396   0.097
    1UNL    C21   32  -0.494  -0.450   0.120
    1UNL    C22   33  -0.597  -0.364   0.150
    1UNL    C23   34  -0.572  -0.228   0.135
    1UNL    C24   35  -0.449  -0.173   0.102
    1UNL    C25   36  -0.173   0.072   0.028
    1UNL    C26   37  -0.107   0.080  -0.116
    1UNL    C27   38   0.046   0.103  -0.116
    1UNL    O10   39  -0.062   0.069   0.123
    1UNL     H1   40  -0.023  -0.043  -0.549
    1UNL     H2   41  -0.114   0.113  -0.582
    1UNL     H3   42  -0.198  -0.028  -0.500
    1UNL     H4   43   0.291   0.244  -0.333
    1UNL     H5   44   0.218   0.371   0.031
    1UNL     H6   45   0.364   0.084  -0.052
    1UNL     H7   46   0.292  -0.146  -0.092
    1UNL     H8   47   0.165  -0.358  -0.005
    1UNL     H9   48   0.129  -0.264   0.140
    1UNL    H10   49   0.027  -0.108   0.022
    1UNL    H11   50   0.429  -0.309   0.059
    1UNL    H12   51   0.374  -0.141   0.274
    1UNL    H13   52   0.593  -0.149   0.145
    1UNL    H14   53   0.638  -0.052  -0.046
    1UNL    H15   54   0.558   0.095   0.112
    1UNL    H16   55   0.373   0.127   0.284
    1UNL    H17   56   0.028   0.303  -0.090
    1UNL    H18   57   0.059   0.229   0.191
    1UNL    H19   58  -0.123   0.384   0.042
    1UNL    H20   59  -0.168   0.336   0.205
    1UNL    H21   60  -0.324   0.163   0.249
    1UNL    H22   61  -0.400   0.291   0.182
    1UNL    H23   62  -0.548   0.082   0.172
    1UNL    H24   63  -0.502   0.132   0.014
    1UNL    H25   64  -0.130  -0.197   0.038
    1UNL    H26   65  -0.286  -0.465   0.066
    1UNL    H27   66  -0.514  -0.555   0.136
    1UNL    H28   67  -0.693  -0.404   0.191
    1UNL    H29   68  -0.657  -0.168   0.152
    1UNL    H30   69  -0.139  -0.001  -0.180
    1UNL    H31   70  -0.144   0.173  -0.159
    1UNL    H32   71   0.104   0.027  -0.069
   0.00000   0.00000   0.00000   0.00000   0.00000   0.00000   0.00000   0.00000   0.00000
Generated with MDTraj, t= 76.0
 71
    1UNL     C1    1  -0.125   0.028  -0.511
    1UNL     O1    2  -0.079   0.050  -0.375
    1UNL     C2    3   0.043   0.109  -0.378
    1UNL     O2    4   0.115   0.124  -0.477
    1UNL     C3    5   0.102   0.147  -0.252
    1UNL     C4    6   0.222   0.214  -0.251
    1UNL     O3    7   0.293   0.243  -0.136
    1UNL     C5    8   0.226   0.261  -0.004
    1UNL     O4    9   0.267   0.183   0.106
    1UNL     C6   10   0.324   0.056   0.065
    1UNL     O5   11   0.236  -0.054   0.080
    1UNL     C7   12   0.287  -0.174   0.020
    1UNL     C8   13   0.168  -0.272   0.027
    1UNL     O6   14   0.048  -0.217   0.035
    1UNL     C9   15   0.404  -0.231   0.103
    1UNL     O7   16   0.364  -0.254   0.238
    1UNL    C10   17   0.515  -0.119   0.098
    1UNL     O8   18   0.560  -0.113  -0.043
    1UNL    C11   19   0.455   0.025   0.146
    1UNL     O9   20   0.428   0.014   0.288
    1UNL    C12   21   0.073   0.245  -0.026
    1UNL    C13   22  -0.012   0.227   0.103
    1UNL    C14   23  -0.135   0.320   0.109
    1UNL     N1   24  -0.253   0.226   0.053
    1UNL    C15   25  -0.373   0.213   0.136
    1UNL    C16   26  -0.469   0.096   0.102
    1UNL    C17   27  -0.397  -0.031   0.065
    1UNL    C18   28  -0.267  -0.034   0.037
    1UNL     N2   29  -0.229  -0.163   0.028
    1UNL    C19   30  -0.332  -0.252   0.058
    1UNL    C20   31  -0.328  -0.390   0.074
    1UNL    C21   32  -0.437  -0.444   0.125
    1UNL    C22   33  -0.552  -0.363   0.153
    1UNL    C23   34  -0.555  -0.225   0.138
    1UNL    C24   35  -0.439  -0.167   0.085
    1UNL    C25   36  -0.178   0.090   0.024
    1UNL    C26   37  -0.118   0.092  -0.122
    1UNL    C27   38   0.037   0.118  -0.116
    1UNL    O10   39  -0.071   0.088   0.121
    1UNL     H1   40  -0.101  -0.082  -0.531
    1UNL     H2   41  -0.066   0.086  -0.580
    1UNL     H3   42  -0.232   0.060  -0.532
    1UNL     H4   43   0.274   0.233  -0.341
    1UNL     H5   44   0.256   0.359   0.027
    1UNL     H6   45   0.344   0.083  -0.038
    1UNL     H7   46   0.319  -0.136  -0.082
    1UNL     H8   47   0.165  -0.341  -0.063
    1UNL     H9   48   0.184  -0.332   0.117
    1UNL    H10   49   0.056  -0.133   0.088
    1UNL    H11   50   0.438  -0.333   0.076
    1UNL    H12   51   0.368  -0.173   0.285
    1UNL    H13   52   0.597  -0.154   0.165
    1UNL    H14   53   0.650  -0.068  -0.051
    1UNL    H15   54   0.527   0.109   0.133
    1UNL    H16   55   0.358   0.082   0.313
    1UNL    H17   56   0.038   0.332  -0.091
    1UNL    H18   57   0.037   0.249   0.205
    1UNL    H19   58  -0.134   0.412   0.051
    1UNL    H20   59  -0.165   0.351   0.210
    1UNL    H21   60  -0.340   0.213   0.234
    1UNL    H22   61  -0.427   0.309   0.124
    1UNL    H23   62  -0.535   0.079   0.188
    1UNL    H24   63  -0.538   0.125   0.019
    1UNL    H25   64  -0.131  -0.194   0.014
    1UNL    H26   65  -0.245  -0.448   0.037
    1UNL    H27   66  -0.450  -0.550   0.141
    1UNL    H28   67  -0.640  -0.414   0.175
    1UNL    H29   68  -0.646  -0.163   0.153
    1UNL    H30   69  -0.135  -0.002  -0.170
    1UNL    H31   70  -0.166   0.169  -0.182
    1UNL    H32   71   0.080   0.031  -0.084
   0.00000   0.00000   0.00000   0.00000   0.00000   0.00000   0.00000   0.00000   0.00000
Generated with MDTraj, t= 77.0
 71
    1UNL     C1    1  -0.132   0.021  -0.491
    1UNL     O1    2  -0.087   0.047  -0.363
    1UNL     C2    3   0.033   0.112  -0.368
    1UNL     O2    4   0.082   0.152  -0.473
    1UNL     C3    5   0.100   0.127  -0.247
    1UNL     C4    6   0.220   0.188  -0.246
    1UNL     O3    7   0.289   0.228  -0.129
    1UNL     C5    8   0.218   0.255  -0.010
    1UNL     O4    9   0.256   0.166   0.096
    1UNL     C6   10   0.318   0.043   0.056
    1UNL     O5   11   0.232  -0.065   0.078
    1UNL     C7   12   0.288  -0.191   0.032
    1UNL     C8   13   0.181  -0.303   0.069
    1UNL     O6   14   0.059  -0.256   0.028
    1UNL     C9   15   0.426  -0.222   0.098
    1UNL     O7   16   0.405  -0.276   0.223
    1UNL    C10   17   0.518  -0.100   0.105
    1UNL     O8   18   0.603  -0.097  -0.013
    1UNL    C11   19   0.442   0.029   0.144
    1UNL     O9   20   0.410   0.021   0.282
    1UNL    C12   21   0.062   0.246  -0.029
    1UNL    C13   22  -0.019   0.232   0.108
    1UNL    C14   23  -0.147   0.319   0.100
    1UNL     N1   24  -0.255   0.236   0.051
    1UNL    C15   25  -0.365   0.215   0.143
    1UNL    C16   26  -0.472   0.108   0.091
    1UNL    C17   27  -0.398  -0.021   0.072
    1UNL    C18   28  -0.264  -0.015   0.021
    1UNL     N2   29  -0.223  -0.146   0.011
    1UNL    C19   30  -0.315  -0.236   0.053
    1UNL    C20   31  -0.334  -0.376   0.064
    1UNL    C21   32  -0.448  -0.438   0.106
    1UNL    C22   33  -0.554  -0.357   0.149
    1UNL    C23   34  -0.546  -0.224   0.146
    1UNL    C24   35  -0.431  -0.161   0.090
    1UNL    C25   36  -0.180   0.107   0.014
    1UNL    C26   37  -0.119   0.105  -0.129
    1UNL    C27   38   0.030   0.117  -0.119
    1UNL    O10   39  -0.074   0.093   0.107
    1UNL     H1   40  -0.116  -0.092  -0.502
    1UNL     H2   41  -0.092   0.074  -0.574
    1UNL     H3   42  -0.237   0.059  -0.489
    1UNL     H4   43   0.261   0.216  -0.338
    1UNL     H5   44   0.242   0.354   0.029
    1UNL     H6   45   0.353   0.060  -0.046
    1UNL     H7   46   0.293  -0.198  -0.084
    1UNL     H8   47   0.209  -0.404   0.025
    1UNL     H9   48   0.182  -0.316   0.177
    1UNL    H10   49   0.057  -0.159   0.057
    1UNL    H11   50   0.470  -0.298   0.034
    1UNL    H12   51   0.391  -0.197   0.286
    1UNL    H13   52   0.589  -0.116   0.191
    1UNL    H14   53   0.677  -0.033  -0.002
    1UNL    H15   54   0.514   0.110   0.130
    1UNL    H16   55   0.328   0.071   0.293
    1UNL    H17   56   0.031   0.349  -0.064
    1UNL    H18   57   0.055   0.230   0.198
    1UNL    H19   58  -0.141   0.410   0.041
    1UNL    H20   59  -0.163   0.344   0.205
    1UNL    H21   60  -0.323   0.182   0.234
    1UNL    H22   61  -0.407   0.317   0.151
    1UNL    H23   62  -0.553   0.094   0.164
    1UNL    H24   63  -0.515   0.140  -0.006
    1UNL    H25   64  -0.127  -0.173  -0.018
    1UNL    H26   65  -0.244  -0.432   0.045
    1UNL    H27   66  -0.441  -0.546   0.088
    1UNL    H28   67  -0.649  -0.409   0.180
    1UNL    H29   68  -0.623  -0.161   0.178
    1UNL    H30   69  -0.133   0.005  -0.165
    1UNL    H31   70  -0.166   0.180  -0.194
    1UNL    H32   71   0.068   0.033  -0.070
   0.00000   0.00000   0.00000   0.00000   0.00000   0.00000   0.00000   0.00000   0.00000
Generated with MDTraj, t= 78.0
 71
    1UNL     C1    1  -0.119   0.028  -0.514
    1UNL     O1    2  -0.081   0.042  -0.381
    1UNL     C2    3   0.036   0.115  -0.382
    1UNL     O2    4   0.094   0.146  -0.487
    1UNL     C3    5   0.097   0.149  -0.253
    1UNL     C4    6   0.221   0.204  -0.255
    1UNL     O3    7   0.294   0.229  -0.139
    1UNL     C5    8   0.221   0.237  -0.017
    1UNL     O4    9   0.265   0.168   0.099
    1UNL     C6   10   0.337   0.043   0.063
    1UNL     O5   11   0.253  -0.075   0.070
    1UNL     C7   12   0.316  -0.198   0.031
    1UNL     C8   13   0.212  -0.308   0.044
    1UNL     O6   14   0.079  -0.252   0.029
    1UNL     C9   15   0.443  -0.226   0.115
    1UNL     O7   16   0.411  -0.259   0.249
    1UNL    C10   17   0.540  -0.105   0.108
    1UNL     O8   18   0.566  -0.077  -0.026
    1UNL    C11   19   0.459   0.022   0.156
    1UNL     O9   20   0.407   0.022   0.294
    1UNL    C12   21   0.064   0.238  -0.037
    1UNL    C13   22  -0.021   0.238   0.092
    1UNL    C14   23  -0.156   0.325   0.085
    1UNL     N1   24  -0.262   0.221   0.055
    1UNL    C15   25  -0.366   0.212   0.159
    1UNL    C16   26  -0.467   0.104   0.135
    1UNL    C17   27  -0.402  -0.023   0.086
    1UNL    C18   28  -0.271  -0.034   0.051
    1UNL     N2   29  -0.235  -0.161   0.026
    1UNL    C19   30  -0.345  -0.243   0.057
    1UNL    C20   31  -0.352  -0.381   0.061
    1UNL    C21   32  -0.475  -0.430   0.101
    1UNL    C22   33  -0.585  -0.347   0.131
    1UNL    C23   34  -0.579  -0.209   0.123
    1UNL    C24   35  -0.451  -0.157   0.089
    1UNL    C25   36  -0.182   0.089   0.031
    1UNL    C26   37  -0.127   0.092  -0.116
    1UNL    C27   38   0.025   0.119  -0.120
    1UNL    O10   39  -0.068   0.106   0.119
    1UNL     H1   40  -0.030  -0.000  -0.577
    1UNL     H2   41  -0.166   0.114  -0.549
    1UNL     H3   42  -0.205  -0.040  -0.518
    1UNL     H4   43   0.256   0.238  -0.361
    1UNL     H5   44   0.245   0.342   0.015
    1UNL     H6   45   0.365   0.062  -0.041
    1UNL     H7   46   0.348  -0.189  -0.081
    1UNL     H8   47   0.241  -0.382  -0.037
    1UNL     H9   48   0.236  -0.354   0.139
    1UNL    H10   49   0.086  -0.159   0.047
    1UNL    H11   50   0.495  -0.307   0.061
    1UNL    H12   51   0.380  -0.174   0.290
    1UNL    H13   52   0.635  -0.121   0.164
    1UNL    H14   53   0.586   0.014  -0.046
    1UNL    H15   54   0.523   0.109   0.152
    1UNL    H16   55   0.325   0.077   0.291
    1UNL    H17   56   0.034   0.333  -0.090
    1UNL    H18   57   0.045   0.278   0.175
    1UNL    H19   58  -0.145   0.397   0.006
    1UNL    H20   59  -0.165   0.382   0.178
    1UNL    H21   60  -0.307   0.188   0.244
    1UNL    H22   61  -0.419   0.307   0.168
    1UNL    H23   62  -0.523   0.085   0.228
    1UNL    H24   63  -0.539   0.133   0.056
    1UNL    H25   64  -0.144  -0.203   0.012
    1UNL    H26   65  -0.263  -0.440   0.054
    1UNL    H27   66  -0.490  -0.534   0.129
    1UNL    H28   67  -0.673  -0.395   0.156
    1UNL    H29   68  -0.656  -0.136   0.155
    1UNL    H30   69  -0.152   0.001  -0.166
    1UNL    H31   70  -0.177   0.176  -0.166
    1UNL    H32   71   0.065   0.027  -0.085
   0.00000   0.00000   0.00000   0.00000   0.00000   0.00000   0.00000   0.00000   0.00000
Generated with MDTraj, t= 79.0
 71
    1UNL     C1    1  -0.117   0.032  -0.520
    1UNL     O1    2  -0.077   0.047  -0.383
    1UNL     C2    3   0.043   0.107  -0.380
    1UNL     O2    4   0.109   0.128  -0.481
    1UNL     C3    5   0.106   0.133  -0.250
    1UNL     C4    6   0.230   0.189  -0.236
    1UNL     O3    7   0.299   0.226  -0.124
    1UNL     C5    8   0.214   0.247  -0.006
    1UNL     O4    9   0.270   0.180   0.104
    1UNL     C6   10   0.329   0.056   0.068
    1UNL     O5   11   0.239  -0.047   0.083
    1UNL     C7   12   0.287  -0.173   0.024
    1UNL     C8   13   0.184  -0.287   0.034
    1UNL     O6   14   0.056  -0.243   0.001
    1UNL     C9   15   0.419  -0.205   0.095
    1UNL     O7   16   0.391  -0.229   0.237
    1UNL    C10   17   0.530  -0.091   0.089
    1UNL     O8   18   0.598  -0.078  -0.033
    1UNL    C11   19   0.456   0.036   0.139
    1UNL     O9   20   0.428   0.042   0.279
    1UNL    C12   21   0.061   0.223  -0.032
    1UNL    C13   22  -0.011   0.218   0.106
    1UNL    C14   23  -0.140   0.301   0.097
    1UNL     N1   24  -0.241   0.210   0.051
    1UNL    C15   25  -0.362   0.202   0.156
    1UNL    C16   26  -0.461   0.104   0.116
    1UNL    C17   27  -0.390  -0.029   0.106
    1UNL    C18   28  -0.259  -0.041   0.070
    1UNL     N2   29  -0.226  -0.178   0.049
    1UNL    C19   30  -0.345  -0.246   0.080
    1UNL    C20   31  -0.370  -0.379   0.063
    1UNL    C21   32  -0.504  -0.426   0.077
    1UNL    C22   33  -0.608  -0.336   0.105
    1UNL    C23   34  -0.576  -0.205   0.130
    1UNL    C24   35  -0.448  -0.155   0.113
    1UNL    C25   36  -0.172   0.077   0.032
    1UNL    C26   37  -0.120   0.072  -0.116
    1UNL    C27   38   0.031   0.095  -0.117
    1UNL    O10   39  -0.057   0.082   0.123
    1UNL     H1   40  -0.026   0.021  -0.583
    1UNL     H2   41  -0.163   0.118  -0.552
    1UNL     H3   42  -0.179  -0.057  -0.528
    1UNL     H4   43   0.287   0.196  -0.329
    1UNL     H5   44   0.240   0.357   0.005
    1UNL     H6   45   0.347   0.064  -0.041
    1UNL     H7   46   0.300  -0.144  -0.086
    1UNL     H8   47   0.214  -0.382  -0.017
    1UNL     H9   48   0.182  -0.310   0.140
    1UNL    H10   49   0.042  -0.161   0.061
    1UNL    H11   50   0.455  -0.301   0.056
    1UNL    H12   51   0.392  -0.153   0.293
    1UNL    H13   52   0.599  -0.116   0.170
    1UNL    H14   53   0.624   0.011  -0.060
    1UNL    H15   54   0.518   0.120   0.110
    1UNL    H16   55   0.350   0.106   0.287
    1UNL    H17   56   0.016   0.301  -0.099
    1UNL    H18   57   0.040   0.247   0.200
    1UNL    H19   58  -0.109   0.378   0.025
    1UNL    H20   59  -0.164   0.341   0.194
    1UNL    H21   60  -0.324   0.171   0.253
    1UNL    H22   61  -0.409   0.298   0.160
    1UNL    H23   62  -0.542   0.084   0.188
    1UNL    H24   63  -0.503   0.125   0.016
    1UNL    H25   64  -0.138  -0.216   0.012
    1UNL    H26   65  -0.299  -0.456   0.046
    1UNL    H27   66  -0.527  -0.532   0.077
    1UNL    H28   67  -0.715  -0.367   0.117
    1UNL    H29   68  -0.658  -0.140   0.143
    1UNL    H30   69  -0.152  -0.020  -0.161
    1UNL    H31   70  -0.168   0.155  -0.168
    1UNL    H32   71   0.077   0.009  -0.068
   0.00000   0.00000   0.00000   0.00000   0.00000   0.00000   0.00000   0.00000   0.00000
Generated with MDTraj, t= 80.0
 71
    1UNL     C1    1  -0.131   0.020  -0.488
    1UNL     O1    2  -0.081   0.036  -0.358
    1UNL     C2    3   0.049   0.083  -0.369
    1UNL     O2    4   0.105   0.100  -0.477
    1UNL     C3    5   0.109   0.119  -0.244
    1UNL     C4    6   0.228   0.191  -0.244
    1UNL     O3    7   0.276   0.273  -0.140
    1UNL     C5    8   0.221   0.267  -0.006
    1UNL     O4    9   0.301   0.210   0.093
    1UNL     C6   10   0.342   0.078   0.052
    1UNL     O5   11   0.245  -0.024   0.081
    1UNL     C7   12   0.276  -0.149   0.030
    1UNL     C8   13   0.156  -0.246   0.038
    1UNL     O6   14   0.035  -0.185   0.020
    1UNL     C9   15   0.400  -0.201   0.102
    1UNL     O7   16   0.380  -0.254   0.231
    1UNL    C10   17   0.520  -0.101   0.092
    1UNL     O8   18   0.567  -0.103  -0.043
    1UNL    C11   19   0.474   0.042   0.132
    1UNL     O9   20   0.441   0.049   0.274
    1UNL    C12   21   0.073   0.223  -0.016
    1UNL    C13   22   0.015   0.193   0.122
    1UNL    C14   23  -0.119   0.278   0.135
    1UNL     N1   24  -0.220   0.198   0.059
    1UNL    C15   25  -0.363   0.207   0.135
    1UNL    C16   26  -0.462   0.098   0.093
    1UNL    C17   27  -0.399  -0.033   0.090
    1UNL    C18   28  -0.262  -0.050   0.061
    1UNL     N2   29  -0.234  -0.180   0.040
    1UNL    C19   30  -0.353  -0.251   0.054
    1UNL    C20   31  -0.377  -0.392   0.057
    1UNL    C21   32  -0.506  -0.437   0.088
    1UNL    C22   33  -0.606  -0.344   0.113
    1UNL    C23   34  -0.583  -0.209   0.112
    1UNL    C24   35  -0.455  -0.164   0.076
    1UNL    C25   36  -0.162   0.066   0.036
    1UNL    C26   37  -0.102   0.072  -0.112
    1UNL    C27   38   0.045   0.104  -0.108
    1UNL    O10   39  -0.043   0.061   0.124
    1UNL     H1   40  -0.113  -0.087  -0.517
    1UNL     H2   41  -0.072   0.080  -0.554
    1UNL     H3   42  -0.238   0.036  -0.483
    1UNL     H4   43   0.282   0.222  -0.324
    1UNL     H5   44   0.224   0.378   0.019
    1UNL     H6   45   0.354   0.079  -0.058
    1UNL     H7   46   0.298  -0.125  -0.078
    1UNL     H8   47   0.164  -0.324  -0.041
    1UNL     H9   48   0.146  -0.304   0.128
    1UNL    H10   49   0.041  -0.104   0.081
    1UNL    H11   50   0.431  -0.282   0.031
    1UNL    H12   51   0.383  -0.165   0.285
    1UNL    H13   52   0.604  -0.125   0.157
    1UNL    H14   53   0.661  -0.072  -0.043
    1UNL    H15   54   0.559   0.106   0.106
    1UNL    H16   55   0.373   0.114   0.291
    1UNL    H17   56   0.020   0.312  -0.055
    1UNL    H18   57   0.087   0.195   0.202
    1UNL    H19   58  -0.102   0.376   0.088
    1UNL    H20   59  -0.142   0.285   0.240
    1UNL    H21   60  -0.342   0.188   0.241
    1UNL    H22   61  -0.407   0.302   0.121
    1UNL    H23   62  -0.543   0.094   0.168
    1UNL    H24   63  -0.512   0.116  -0.003
    1UNL    H25   64  -0.140  -0.214   0.012
    1UNL    H26   65  -0.300  -0.466   0.033
    1UNL    H27   66  -0.524  -0.545   0.092
    1UNL    H28   67  -0.707  -0.377   0.125
    1UNL    H29   68  -0.667  -0.142   0.117
    1UNL    H30   69  -0.125  -0.021  -0.163
    1UNL    H31   70  -0.146   0.152  -0.170
    1UNL    H32   71   0.104   0.029  -0.040
   0.00000   0.00000   0.00000   0.00000   0.00000   0.00000   0.00000   0.00000   0.00000
Generated with MDTraj, t= 81.0
 71
    1UNL     C1    1  -0.121  -0.033  -0.474
    1UNL     O1    2  -0.097   0.045  -0.360
    1UNL     C2    3   0.032   0.087  -0.361
    1UNL     O2    4   0.100   0.073  -0.462
    1UNL     C3    5   0.095   0.149  -0.239
    1UNL     C4    6   0.208   0.228  -0.243
    1UNL     O3    7   0.275   0.288  -0.138
    1UNL     C5    8   0.230   0.271  -0.007
    1UNL     O4    9   0.305   0.198   0.090
    1UNL     C6   10   0.346   0.070   0.049
    1UNL     O5   11   0.245  -0.027   0.064
    1UNL     C7   12   0.281  -0.163   0.031
    1UNL     C8   13   0.154  -0.253   0.067
    1UNL     O6   14   0.038  -0.205   0.011
    1UNL     C9   15   0.408  -0.213   0.107
    1UNL     O7   16   0.375  -0.229   0.249
    1UNL    C10   17   0.520  -0.108   0.087
    1UNL     O8   18   0.550  -0.102  -0.055
    1UNL    C11   19   0.480   0.032   0.126
    1UNL     O9   20   0.461   0.057   0.261
    1UNL    C12   21   0.076   0.231  -0.002
    1UNL    C13   22   0.013   0.183   0.135
    1UNL    C14   23  -0.117   0.269   0.161
    1UNL     N1   24  -0.221   0.200   0.076
    1UNL    C15   25  -0.347   0.188   0.152
    1UNL    C16   26  -0.453   0.112   0.069
    1UNL    C17   27  -0.398  -0.028   0.049
    1UNL    C18   28  -0.261  -0.048   0.046
    1UNL     N2   29  -0.234  -0.180   0.047
    1UNL    C19   30  -0.350  -0.251   0.048
    1UNL    C20   31  -0.371  -0.386   0.058
    1UNL    C21   32  -0.494  -0.427   0.093
    1UNL    C22   33  -0.603  -0.340   0.105
    1UNL    C23   34  -0.591  -0.204   0.083
    1UNL    C24   35  -0.461  -0.152   0.051
    1UNL    C25   36  -0.161   0.069   0.041
    1UNL    C26   37  -0.114   0.083  -0.107
    1UNL    C27   38   0.038   0.125  -0.106
    1UNL    O10   39  -0.037   0.053   0.124
    1UNL     H1   40  -0.067  -0.134  -0.471
    1UNL     H2   41  -0.082   0.015  -0.563
    1UNL     H3   42  -0.229  -0.061  -0.476
    1UNL     H4   43   0.260   0.270  -0.335
    1UNL     H5   44   0.236   0.371   0.041
    1UNL     H6   45   0.361   0.073  -0.061
    1UNL     H7   46   0.291  -0.155  -0.078
    1UNL     H8   47   0.158  -0.363   0.051
    1UNL     H9   48   0.142  -0.245   0.174
    1UNL    H10   49   0.036  -0.111   0.032
    1UNL    H11   50   0.442  -0.316   0.080
    1UNL    H12   51   0.352  -0.134   0.276
    1UNL    H13   52   0.599  -0.138   0.156
    1UNL    H14   53   0.635  -0.051  -0.078
    1UNL    H15   54   0.556   0.103   0.088
    1UNL    H16   55   0.386   0.126   0.259
    1UNL    H17   56   0.027   0.327  -0.030
    1UNL    H18   57   0.089   0.179   0.208
    1UNL    H19   58  -0.106   0.369   0.119
    1UNL    H20   59  -0.149   0.272   0.265
    1UNL    H21   60  -0.328   0.129   0.245
    1UNL    H22   61  -0.373   0.287   0.170
    1UNL    H23   62  -0.554   0.107   0.111
    1UNL    H24   63  -0.461   0.161  -0.028
    1UNL    H25   64  -0.142  -0.227   0.048
    1UNL    H26   65  -0.284  -0.443   0.048
    1UNL    H27   66  -0.509  -0.529   0.115
    1UNL    H28   67  -0.701  -0.387   0.100
    1UNL    H29   68  -0.671  -0.129   0.082
    1UNL    H30   69  -0.126  -0.012  -0.160
    1UNL    H31   70  -0.175   0.149  -0.165
    1UNL    H32   71   0.089   0.020  -0.083
   0.00000   0.00000   0.00000   0.00000   0.00000   0.00000   0.00000   0.00000   0.00000
Generated with MDTraj, t= 82.0
 71
    1UNL     C1    1  -0.093  -0.049  -0.479
    1UNL     O1    2  -0.071   0.025  -0.360
    1UNL     C2    3   0.045   0.097  -0.369
    1UNL     O2    4   0.113   0.102  -0.470
    1UNL     C3    5   0.102   0.164  -0.249
    1UNL     C4    6   0.223   0.219  -0.234
    1UNL     O3    7   0.284   0.260  -0.125
    1UNL     C5    8   0.212   0.265  -0.006
    1UNL     O4    9   0.275   0.182   0.090
    1UNL     C6   10   0.318   0.058   0.041
    1UNL     O5   11   0.238  -0.055   0.096
    1UNL     C7   12   0.288  -0.173   0.049
    1UNL     C8   13   0.181  -0.283   0.062
    1UNL     O6   14   0.056  -0.232   0.028
    1UNL     C9   15   0.418  -0.209   0.113
    1UNL     O7   16   0.397  -0.184   0.256
    1UNL    C10   17   0.524  -0.102   0.064
    1UNL     O8   18   0.568  -0.113  -0.078
    1UNL    C11   19   0.468   0.044   0.094
    1UNL     O9   20   0.461   0.068   0.234
    1UNL    C12   21   0.059   0.236  -0.006
    1UNL    C13   22   0.000   0.184   0.129
    1UNL    C14   23  -0.118   0.258   0.168
    1UNL     N1   24  -0.233   0.200   0.094
    1UNL    C15   25  -0.362   0.207   0.159
    1UNL    C16   26  -0.462   0.111   0.094
    1UNL    C17   27  -0.397  -0.020   0.077
    1UNL    C18   28  -0.266  -0.041   0.053
    1UNL     N2   29  -0.237  -0.174   0.060
    1UNL    C19   30  -0.353  -0.245   0.079
    1UNL    C20   31  -0.380  -0.381   0.061
    1UNL    C21   32  -0.510  -0.422   0.062
    1UNL    C22   33  -0.618  -0.325   0.065
    1UNL    C23   34  -0.594  -0.195   0.072
    1UNL    C24   35  -0.457  -0.153   0.078
    1UNL    C25   36  -0.166   0.071   0.038
    1UNL    C26   37  -0.119   0.109  -0.109
    1UNL    C27   38   0.033   0.128  -0.119
    1UNL    O10   39  -0.045   0.047   0.111
    1UNL     H1   40  -0.004  -0.104  -0.525
    1UNL     H2   41  -0.128   0.016  -0.558
    1UNL     H3   42  -0.167  -0.130  -0.450
    1UNL     H4   43   0.281   0.222  -0.333
    1UNL     H5   44   0.229   0.365   0.029
    1UNL     H6   45   0.306   0.045  -0.069
    1UNL     H7   46   0.305  -0.152  -0.055
    1UNL     H8   47   0.218  -0.367  -0.002
    1UNL     H9   48   0.178  -0.325   0.161
    1UNL    H10   49   0.038  -0.142   0.067
    1UNL    H11   50   0.449  -0.314   0.094
    1UNL    H12   51   0.407  -0.092   0.261
    1UNL    H13   52   0.612  -0.108   0.129
    1UNL    H14   53   0.616  -0.033  -0.113
    1UNL    H15   54   0.537   0.124   0.053
    1UNL    H16   55   0.392   0.129   0.258
    1UNL    H17   56   0.011   0.333  -0.026
    1UNL    H18   57   0.068   0.189   0.210
    1UNL    H19   58  -0.115   0.368   0.159
    1UNL    H20   59  -0.152   0.231   0.268
    1UNL    H21   60  -0.333   0.173   0.263
    1UNL    H22   61  -0.395   0.304   0.162
    1UNL    H23   62  -0.556   0.106   0.152
    1UNL    H24   63  -0.496   0.148  -0.002
    1UNL    H25   64  -0.138  -0.212   0.059
    1UNL    H26   65  -0.300  -0.456   0.082
    1UNL    H27   66  -0.524  -0.532   0.065
    1UNL    H28   67  -0.717  -0.372   0.063
    1UNL    H29   68  -0.674  -0.128   0.077
    1UNL    H30   69  -0.151   0.027  -0.172
    1UNL    H31   70  -0.167   0.196  -0.151
    1UNL    H32   71   0.078   0.026  -0.081
   0.00000   0.00000   0.00000   0.00000   0.00000   0.00000   0.00000   0.00000   0.00000
Generated with MDTraj, t= 83.0
 71
    1UNL     C1    1  -0.074  -0.038  -0.510
    1UNL     O1    2  -0.039  -0.017  -0.374
    1UNL     C2    3   0.055   0.089  -0.368
    1UNL     O2    4   0.099   0.148  -0.468
    1UNL     C3    5   0.099   0.127  -0.236
    1UNL     C4    6   0.201   0.209  -0.239
    1UNL     O3    7   0.262   0.278  -0.141
    1UNL     C5    8   0.213   0.265  -0.005
    1UNL     O4    9   0.302   0.200   0.094
    1UNL     C6   10   0.335   0.072   0.049
    1UNL     O5   11   0.251  -0.036   0.100
    1UNL     C7   12   0.293  -0.160   0.057
    1UNL     C8   13   0.188  -0.266   0.104
    1UNL     O6   14   0.050  -0.234   0.075
    1UNL     C9   15   0.433  -0.207   0.100
    1UNL     O7   16   0.424  -0.230   0.247
    1UNL    C10   17   0.529  -0.098   0.053
    1UNL     O8   18   0.554  -0.115  -0.087
    1UNL    C11   19   0.483   0.046   0.083
    1UNL     O9   20   0.486   0.066   0.221
    1UNL    C12   21   0.064   0.210   0.003
    1UNL    C13   22  -0.004   0.192   0.141
    1UNL    C14   23  -0.128   0.288   0.150
    1UNL     N1   24  -0.242   0.205   0.085
    1UNL    C15   25  -0.366   0.204   0.164
    1UNL    C16   26  -0.465   0.117   0.100
    1UNL    C17   27  -0.410  -0.020   0.082
    1UNL    C18   28  -0.272  -0.037   0.066
    1UNL     N2   29  -0.246  -0.171   0.030
    1UNL    C19   30  -0.369  -0.239   0.043
    1UNL    C20   31  -0.395  -0.377   0.025
    1UNL    C21   32  -0.520  -0.422   0.048
    1UNL    C22   33  -0.626  -0.332   0.075
    1UNL    C23   34  -0.599  -0.193   0.078
    1UNL    C24   35  -0.467  -0.144   0.071
    1UNL    C25   36  -0.174   0.068   0.053
    1UNL    C26   37  -0.118   0.066  -0.093
    1UNL    C27   38   0.036   0.085  -0.094
    1UNL    O10   39  -0.071   0.059   0.150
    1UNL     H1   40   0.001  -0.090  -0.574
    1UNL     H2   41  -0.089   0.058  -0.553
    1UNL     H3   42  -0.164  -0.105  -0.514
    1UNL     H4   43   0.239   0.226  -0.334
    1UNL     H5   44   0.209   0.368   0.024
    1UNL     H6   45   0.322   0.070  -0.061
    1UNL     H7   46   0.293  -0.154  -0.048
    1UNL     H8   47   0.204  -0.370   0.067
    1UNL     H9   48   0.202  -0.273   0.211
    1UNL    H10   49   0.036  -0.139   0.104
    1UNL    H11   50   0.462  -0.299   0.049
    1UNL    H12   51   0.419  -0.138   0.282
    1UNL    H13   52   0.628  -0.105   0.106
    1UNL    H14   53   0.588  -0.036  -0.129
    1UNL    H15   54   0.543   0.129   0.034
    1UNL    H16   55   0.431   0.148   0.241
    1UNL    H17   56   0.008   0.292  -0.045
    1UNL    H18   57   0.069   0.195   0.219
    1UNL    H19   58  -0.122   0.382   0.092
    1UNL    H20   59  -0.156   0.321   0.251
    1UNL    H21   60  -0.346   0.171   0.269
    1UNL    H22   61  -0.393   0.303   0.169
    1UNL    H23   62  -0.565   0.117   0.147
    1UNL    H24   63  -0.493   0.155   0.002
    1UNL    H25   64  -0.148  -0.206   0.034
    1UNL    H26   65  -0.315  -0.445   0.016
    1UNL    H27   66  -0.545  -0.522   0.071
    1UNL    H28   67  -0.724  -0.367   0.089
    1UNL    H29   68  -0.684  -0.122   0.091
    1UNL    H30   69  -0.137  -0.023  -0.151
    1UNL    H31   70  -0.170   0.142  -0.149
    1UNL    H32   71   0.086  -0.009  -0.051
   0.00000   0.00000   0.00000   0.00000   0.00000   0.00000   0.00000   0.00000   0.00000
Generated with MDTraj, t= 84.0
 71
    1UNL     C1    1  -0.079  -0.063  -0.456
    1UNL     O1    2  -0.028  -0.013  -0.342
    1UNL     C2    3   0.052   0.096  -0.360
    1UNL     O2    4   0.077   0.149  -0.468
    1UNL     C3    5   0.108   0.140  -0.234
    1UNL     C4    6   0.214   0.225  -0.232
    1UNL     O3    7   0.282   0.274  -0.125
    1UNL     C5    8   0.217   0.269   0.006
    1UNL     O4    9   0.305   0.201   0.092
    1UNL     C6   10   0.337   0.074   0.046
    1UNL     O5   11   0.251  -0.026   0.098
    1UNL     C7   12   0.276  -0.160   0.064
    1UNL     C8   13   0.175  -0.244   0.143
    1UNL     O6   14   0.043  -0.204   0.111
    1UNL     C9   15   0.416  -0.210   0.086
    1UNL     O7   16   0.433  -0.245   0.227
    1UNL    C10   17   0.521  -0.100   0.040
    1UNL     O8   18   0.521  -0.096  -0.102
    1UNL    C11   19   0.489   0.046   0.082
    1UNL     O9   20   0.513   0.059   0.222
    1UNL    C12   21   0.069   0.219  -0.002
    1UNL    C13   22  -0.004   0.185   0.135
    1UNL    C14   23  -0.126   0.277   0.134
    1UNL     N1   24  -0.230   0.209   0.064
    1UNL    C15   25  -0.361   0.201   0.147
    1UNL    C16   26  -0.467   0.092   0.098
    1UNL    C17   27  -0.401  -0.035   0.084
    1UNL    C18   28  -0.271  -0.050   0.049
    1UNL     N2   29  -0.247  -0.182   0.020
    1UNL    C19   30  -0.369  -0.254   0.039
    1UNL    C20   31  -0.407  -0.390   0.024
    1UNL    C21   32  -0.542  -0.423   0.037
    1UNL    C22   33  -0.633  -0.323   0.062
    1UNL    C23   34  -0.598  -0.193   0.086
    1UNL    C24   35  -0.466  -0.160   0.074
    1UNL    C25   36  -0.169   0.066   0.036
    1UNL    C26   37  -0.108   0.074  -0.102
    1UNL    C27   38   0.048   0.105  -0.094
    1UNL    O10   39  -0.068   0.056   0.133
    1UNL     H1   40  -0.007  -0.089  -0.532
    1UNL     H2   41  -0.149   0.002  -0.495
    1UNL     H3   42  -0.126  -0.156  -0.418
    1UNL     H4   43   0.262   0.258  -0.319
    1UNL     H5   44   0.211   0.370   0.047
    1UNL     H6   45   0.334   0.071  -0.064
    1UNL     H7   46   0.259  -0.164  -0.040
    1UNL     H8   47   0.187  -0.353   0.124
    1UNL     H9   48   0.175  -0.224   0.250
    1UNL    H10   49   0.033  -0.109   0.121
    1UNL    H11   50   0.428  -0.305   0.035
    1UNL    H12   51   0.442  -0.153   0.273
    1UNL    H13   52   0.625  -0.130   0.074
    1UNL    H14   53   0.560  -0.020  -0.145
    1UNL    H15   54   0.544   0.122   0.019
    1UNL    H16   55   0.485   0.145   0.259
    1UNL    H17   56   0.014   0.297  -0.061
    1UNL    H18   57   0.057   0.203   0.224
    1UNL    H19   58  -0.111   0.370   0.075
    1UNL    H20   59  -0.149   0.322   0.232
    1UNL    H21   60  -0.339   0.200   0.257
    1UNL    H22   61  -0.411   0.292   0.136
    1UNL    H23   62  -0.552   0.090   0.167
    1UNL    H24   63  -0.519   0.134   0.010
    1UNL    H25   64  -0.154  -0.219   0.032
    1UNL    H26   65  -0.326  -0.455  -0.007
    1UNL    H27   66  -0.576  -0.525   0.030
    1UNL    H28   67  -0.742  -0.344   0.056
    1UNL    H29   68  -0.675  -0.123   0.081
    1UNL    H30   69  -0.126  -0.009  -0.167
    1UNL    H31   70  -0.144   0.162  -0.155
    1UNL    H32   71   0.100   0.014  -0.068
   0.00000   0.00000   0.00000   0.00000   0.00000   0.00000   0.00000   0.00000   0.00000
Generated with MDTraj, t= 85.0
 71
    1UNL     C1    1  -0.083  -0.072  -0.461
    1UNL     O1    2  -0.036  -0.033  -0.331
    1UNL     C2    3   0.053   0.075  -0.345
    1UNL     O2    4   0.087   0.120  -0.452
    1UNL     C3    5   0.109   0.144  -0.231
    1UNL     C4    6   0.221   0.222  -0.233
    1UNL     O3    7   0.279   0.291  -0.132
    1UNL     C5    8   0.209   0.277  -0.001
    1UNL     O4    9   0.277   0.200   0.095
    1UNL     C6   10   0.304   0.066   0.059
    1UNL     O5   11   0.227  -0.039   0.123
    1UNL     C7   12   0.264  -0.168   0.073
    1UNL     C8   13   0.170  -0.277   0.120
    1UNL     O6   14   0.039  -0.230   0.105
    1UNL     C9   15   0.414  -0.206   0.091
    1UNL     O7   16   0.448  -0.215   0.233
    1UNL    C10   17   0.496  -0.097   0.014
    1UNL     O8   18   0.481  -0.097  -0.129
    1UNL    C11   19   0.457   0.035   0.072
    1UNL     O9   20   0.490   0.039   0.214
    1UNL    C12   21   0.070   0.226  -0.002
    1UNL    C13   22   0.011   0.202   0.139
    1UNL    C14   23  -0.118   0.285   0.163
    1UNL     N1   24  -0.220   0.218   0.081
    1UNL    C15   25  -0.353   0.204   0.153
    1UNL    C16   26  -0.450   0.113   0.073
    1UNL    C17   27  -0.395  -0.021   0.057
    1UNL    C18   28  -0.260  -0.035   0.059
    1UNL     N2   29  -0.233  -0.171   0.050
    1UNL    C19   30  -0.349  -0.245   0.038
    1UNL    C20   31  -0.379  -0.383   0.030
    1UNL    C21   32  -0.510  -0.426   0.037
    1UNL    C22   33  -0.612  -0.335   0.053
    1UNL    C23   34  -0.586  -0.200   0.058
    1UNL    C24   35  -0.459  -0.151   0.041
    1UNL    C25   36  -0.159   0.081   0.049
    1UNL    C26   37  -0.113   0.091  -0.097
    1UNL    C27   38   0.043   0.114  -0.098
    1UNL    O10   39  -0.042   0.069   0.142
    1UNL     H1   40  -0.002  -0.067  -0.531
    1UNL     H2   41  -0.156  -0.008  -0.497
    1UNL     H3   42  -0.119  -0.176  -0.461
    1UNL     H4   43   0.268   0.232  -0.338
    1UNL     H5   44   0.212   0.383   0.036
    1UNL     H6   45   0.279   0.060  -0.047
    1UNL     H7   46   0.253  -0.150  -0.032
    1UNL     H8   47   0.179  -0.370   0.060
    1UNL     H9   48   0.189  -0.294   0.228
    1UNL    H10   49   0.037  -0.133   0.128
    1UNL    H11   50   0.430  -0.302   0.042
    1UNL    H12   51   0.401  -0.135   0.270
    1UNL    H13   52   0.608  -0.104   0.034
    1UNL    H14   53   0.540  -0.025  -0.163
    1UNL    H15   54   0.514   0.118   0.026
    1UNL    H16   55   0.463   0.118   0.260
    1UNL    H17   56   0.013   0.314  -0.042
    1UNL    H18   57   0.095   0.211   0.213
    1UNL    H19   58  -0.100   0.393   0.148
    1UNL    H20   59  -0.144   0.286   0.269
    1UNL    H21   60  -0.350   0.159   0.256
    1UNL    H22   61  -0.394   0.300   0.171
    1UNL    H23   62  -0.549   0.120   0.120
    1UNL    H24   63  -0.472   0.166  -0.021
    1UNL    H25   64  -0.142  -0.209   0.052
    1UNL    H26   65  -0.296  -0.452   0.019
    1UNL    H27   66  -0.514  -0.533   0.024
    1UNL    H28   67  -0.712  -0.369   0.049
    1UNL    H29   68  -0.673  -0.131   0.061
    1UNL    H30   69  -0.124   0.000  -0.153
    1UNL    H31   70  -0.169   0.172  -0.143
    1UNL    H32   71   0.089   0.029  -0.060
   0.00000   0.00000   0.00000   0.00000   0.00000   0.00000   0.00000   0.00000   0.00000
Generated with MDTraj, t= 86.0
 71
    1UNL     C1    1  -0.064  -0.075  -0.470
    1UNL     O1    2  -0.054  -0.014  -0.341
    1UNL     C2    3   0.056   0.064  -0.345
    1UNL     O2    4   0.123   0.082  -0.445
    1UNL     C3    5   0.097   0.137  -0.223
    1UNL     C4    6   0.207   0.214  -0.224
    1UNL     O3    7   0.278   0.273  -0.122
    1UNL     C5    8   0.222   0.269   0.012
    1UNL     O4    9   0.296   0.190   0.102
    1UNL     C6   10   0.313   0.062   0.049
    1UNL     O5   11   0.227  -0.043   0.101
    1UNL     C7   12   0.266  -0.175   0.051
    1UNL     C8   13   0.175  -0.270   0.123
    1UNL     O6   14   0.048  -0.221   0.116
    1UNL     C9   15   0.418  -0.199   0.079
    1UNL     O7   16   0.439  -0.207   0.220
    1UNL    C10   17   0.509  -0.095   0.007
    1UNL     O8   18   0.491  -0.099  -0.136
    1UNL    C11   19   0.468   0.030   0.063
    1UNL     O9   20   0.508   0.034   0.200
    1UNL    C12   21   0.070   0.239   0.011
    1UNL    C13   22   0.000   0.198   0.149
    1UNL    C14   23  -0.127   0.283   0.175
    1UNL     N1   24  -0.241   0.220   0.092
    1UNL    C15   25  -0.373   0.211   0.152
    1UNL    C16   26  -0.471   0.119   0.081
    1UNL    C17   27  -0.410  -0.015   0.044
    1UNL    C18   28  -0.273  -0.027   0.057
    1UNL     N2   29  -0.237  -0.161   0.078
    1UNL    C19   30  -0.350  -0.238   0.063
    1UNL    C20   31  -0.363  -0.374   0.055
    1UNL    C21   32  -0.484  -0.424   0.033
    1UNL    C22   33  -0.599  -0.345   0.024
    1UNL    C23   34  -0.593  -0.203   0.029
    1UNL    C24   35  -0.458  -0.151   0.039
    1UNL    C25   36  -0.179   0.092   0.052
    1UNL    C26   37  -0.128   0.107  -0.094
    1UNL    C27   38   0.032   0.124  -0.087
    1UNL    O10   39  -0.063   0.069   0.138
    1UNL     H1   40   0.019  -0.147  -0.473
    1UNL     H2   41  -0.051  -0.009  -0.551
    1UNL     H3   42  -0.160  -0.132  -0.480
    1UNL     H4   43   0.251   0.223  -0.322
    1UNL     H5   44   0.248   0.374   0.047
    1UNL     H6   45   0.283   0.072  -0.055
    1UNL     H7   46   0.231  -0.168  -0.053
    1UNL     H8   47   0.182  -0.365   0.067
    1UNL     H9   48   0.207  -0.275   0.229
    1UNL    H10   49   0.038  -0.124   0.136
    1UNL    H11   50   0.435  -0.301   0.043
    1UNL    H12   51   0.462  -0.121   0.251
    1UNL    H13   52   0.613  -0.122   0.035
    1UNL    H14   53   0.569  -0.066  -0.192
    1UNL    H15   54   0.515   0.110   0.007
    1UNL    H16   55   0.479   0.118   0.246
    1UNL    H17   56   0.014   0.332  -0.013
    1UNL    H18   57   0.072   0.188   0.237
    1UNL    H19   58  -0.110   0.391   0.161
    1UNL    H20   59  -0.160   0.288   0.280
    1UNL    H21   60  -0.361   0.171   0.253
    1UNL    H22   61  -0.421   0.307   0.163
    1UNL    H23   62  -0.563   0.107   0.137
    1UNL    H24   63  -0.507   0.177  -0.006
    1UNL    H25   64  -0.147  -0.200   0.091
    1UNL    H26   65  -0.278  -0.433   0.081
    1UNL    H27   66  -0.508  -0.527   0.032
    1UNL    H28   67  -0.695  -0.395   0.001
    1UNL    H29   68  -0.681  -0.142   0.040
    1UNL    H30   69  -0.157   0.012  -0.136
    1UNL    H31   70  -0.178   0.189  -0.146
    1UNL    H32   71   0.074   0.042  -0.041
   0.00000   0.00000   0.00000   0.00000   0.00000   0.00000   0.00000   0.00000   0.00000
Generated with MDTraj, t= 87.0
 71
    1UNL     C1    1  -0.072  -0.068  -0.441
    1UNL     O1    2  -0.055   0.023  -0.338
    1UNL     C2    3   0.071   0.066  -0.337
    1UNL     O2    4   0.154   0.050  -0.426
    1UNL     C3    5   0.109   0.144  -0.216
    1UNL     C4    6   0.206   0.237  -0.221
    1UNL     O3    7   0.266   0.298  -0.110
    1UNL     C5    8   0.211   0.275   0.021
    1UNL     O4    9   0.298   0.197   0.096
    1UNL     C6   10   0.317   0.067   0.045
    1UNL     O5   11   0.246  -0.037   0.110
    1UNL     C7   12   0.265  -0.169   0.054
    1UNL     C8   13   0.170  -0.266   0.120
    1UNL     O6   14   0.051  -0.201   0.115
    1UNL     C9   15   0.415  -0.213   0.073
    1UNL     O7   16   0.458  -0.271   0.190
    1UNL    C10   17   0.512  -0.107   0.013
    1UNL     O8   18   0.533  -0.117  -0.132
    1UNL    C11   19   0.472   0.036   0.048
    1UNL     O9   20   0.522   0.076   0.177
    1UNL    C12   21   0.060   0.241   0.016
    1UNL    C13   22  -0.025   0.213   0.153
    1UNL    C14   23  -0.150   0.295   0.140
    1UNL     N1   24  -0.251   0.208   0.075
    1UNL    C15   25  -0.383   0.208   0.138
    1UNL    C16   26  -0.484   0.105   0.072
    1UNL    C17   27  -0.405  -0.025   0.064
    1UNL    C18   28  -0.267  -0.038   0.067
    1UNL     N2   29  -0.236  -0.178   0.062
    1UNL    C19   30  -0.356  -0.246   0.062
    1UNL    C20   31  -0.392  -0.382   0.047
    1UNL    C21   32  -0.520  -0.423   0.031
    1UNL    C22   33  -0.626  -0.325   0.029
    1UNL    C23   34  -0.595  -0.197   0.046
    1UNL    C24   35  -0.459  -0.156   0.058
    1UNL    C25   36  -0.177   0.081   0.048
    1UNL    C26   37  -0.107   0.076  -0.097
    1UNL    C27   38   0.050   0.119  -0.078
    1UNL    O10   39  -0.066   0.077   0.146
    1UNL     H1   40  -0.016  -0.158  -0.406
    1UNL     H2   41  -0.039  -0.038  -0.540
    1UNL     H3   42  -0.186  -0.090  -0.443
    1UNL     H4   43   0.250   0.264  -0.309
    1UNL     H5   44   0.220   0.374   0.077
    1UNL     H6   45   0.284   0.072  -0.057
    1UNL     H7   46   0.242  -0.162  -0.058
    1UNL     H8   47   0.174  -0.359   0.061
    1UNL     H9   48   0.204  -0.275   0.224
    1UNL    H10   49   0.046  -0.108   0.147
    1UNL    H11   50   0.424  -0.294  -0.003
    1UNL    H12   51   0.474  -0.202   0.257
    1UNL    H13   52   0.609  -0.118   0.063
    1UNL    H14   53   0.561  -0.028  -0.172
    1UNL    H15   54   0.523   0.103  -0.020
    1UNL    H16   55   0.471   0.150   0.216
    1UNL    H17   56   0.003   0.324  -0.030
    1UNL    H18   57   0.040   0.230   0.247
    1UNL    H19   58  -0.148   0.389   0.084
    1UNL    H20   59  -0.187   0.328   0.239
    1UNL    H21   60  -0.364   0.167   0.237
    1UNL    H22   61  -0.420   0.310   0.152
    1UNL    H23   62  -0.575   0.092   0.129
    1UNL    H24   63  -0.527   0.131  -0.027
    1UNL    H25   64  -0.137  -0.199   0.078
    1UNL    H26   65  -0.323  -0.467   0.066
    1UNL    H27   66  -0.551  -0.530   0.031
    1UNL    H28   67  -0.725  -0.358   0.020
    1UNL    H29   68  -0.672  -0.123   0.053
    1UNL    H30   69  -0.132  -0.024  -0.131
    1UNL    H31   70  -0.157   0.150  -0.157
    1UNL    H32   71   0.098   0.034  -0.043
   0.00000   0.00000   0.00000   0.00000   0.00000   0.00000   0.00000   0.00000   0.00000
Generated with MDTraj, t= 88.0
 71
    1UNL     C1    1  -0.076  -0.044  -0.463
    1UNL     O1    2  -0.041  -0.005  -0.327
    1UNL     C2    3   0.087   0.053  -0.326
    1UNL     O2    4   0.166   0.048  -0.421
    1UNL     C3    5   0.116   0.121  -0.204
    1UNL     C4    6   0.217   0.211  -0.212
    1UNL     O3    7   0.268   0.297  -0.116
    1UNL     C5    8   0.211   0.274   0.021
    1UNL     O4    9   0.302   0.202   0.103
    1UNL     C6   10   0.324   0.072   0.052
    1UNL     O5   11   0.244  -0.034   0.104
    1UNL     C7   12   0.264  -0.153   0.035
    1UNL     C8   13   0.177  -0.265   0.098
    1UNL     O6   14   0.043  -0.229   0.100
    1UNL     C9   15   0.415  -0.199   0.060
    1UNL     O7   16   0.437  -0.215   0.199
    1UNL    C10   17   0.516  -0.102  -0.000
    1UNL     O8   18   0.538  -0.097  -0.142
    1UNL    C11   19   0.478   0.036   0.057
    1UNL     O9   20   0.520   0.055   0.191
    1UNL    C12   21   0.066   0.220   0.012
    1UNL    C13   22  -0.015   0.205   0.146
    1UNL    C14   23  -0.144   0.295   0.158
    1UNL     N1   24  -0.252   0.212   0.073
    1UNL    C15   25  -0.387   0.216   0.129
    1UNL    C16   26  -0.482   0.117   0.057
    1UNL    C17   27  -0.416  -0.020   0.073
    1UNL    C18   28  -0.280  -0.042   0.063
    1UNL     N2   29  -0.247  -0.169   0.040
    1UNL    C19   30  -0.367  -0.239   0.043
    1UNL    C20   31  -0.388  -0.377   0.031
    1UNL    C21   32  -0.516  -0.421   0.051
    1UNL    C22   33  -0.626  -0.333   0.064
    1UNL    C23   34  -0.607  -0.200   0.068
    1UNL    C24   35  -0.477  -0.148   0.065
    1UNL    C25   36  -0.181   0.075   0.058
    1UNL    C26   37  -0.107   0.072  -0.086
    1UNL    C27   38   0.052   0.097  -0.074
    1UNL    O10   39  -0.073   0.075   0.160
    1UNL     H1   40  -0.001  -0.121  -0.493
    1UNL     H2   41  -0.075   0.037  -0.535
    1UNL     H3   42  -0.184  -0.086  -0.465
    1UNL     H4   43   0.271   0.225  -0.311
    1UNL     H5   44   0.199   0.373   0.072
    1UNL     H6   45   0.306   0.083  -0.054
    1UNL     H7   46   0.240  -0.148  -0.077
    1UNL     H8   47   0.189  -0.355   0.039
    1UNL     H9   48   0.221  -0.278   0.199
    1UNL    H10   49   0.030  -0.133   0.125
    1UNL    H11   50   0.435  -0.298   0.011
    1UNL    H12   51   0.466  -0.130   0.251
    1UNL    H13   52   0.609  -0.124   0.049
    1UNL    H14   53   0.571  -0.009  -0.172
    1UNL    H15   54   0.532   0.101  -0.013
    1UNL    H16   55   0.470   0.131   0.234
    1UNL    H17   56   0.009   0.302  -0.036
    1UNL    H18   57   0.063   0.220   0.230
    1UNL    H19   58  -0.144   0.397   0.120
    1UNL    H20   59  -0.172   0.294   0.265
    1UNL    H21   60  -0.384   0.200   0.235
    1UNL    H22   61  -0.424   0.317   0.103
    1UNL    H23   62  -0.589   0.111   0.078
    1UNL    H24   63  -0.481   0.138  -0.052
    1UNL    H25   64  -0.150  -0.211   0.049
    1UNL    H26   65  -0.309  -0.445   0.012
    1UNL    H27   66  -0.544  -0.522   0.055
    1UNL    H28   67  -0.732  -0.368   0.064
    1UNL    H29   68  -0.687  -0.124   0.056
    1UNL    H30   69  -0.124  -0.022  -0.136
    1UNL    H31   70  -0.157   0.151  -0.141
    1UNL    H32   71   0.094   0.010  -0.021
   0.00000   0.00000   0.00000   0.00000   0.00000   0.00000   0.00000   0.00000   0.00000
Generated with MDTraj, t= 89.0
 71
    1UNL     C1    1  -0.060  -0.082  -0.471
    1UNL     O1    2  -0.031  -0.023  -0.344
    1UNL     C2    3   0.079   0.057  -0.341
    1UNL     O2    4   0.148   0.072  -0.439
    1UNL     C3    5   0.113   0.132  -0.220
    1UNL     C4    6   0.219   0.216  -0.212
    1UNL     O3    7   0.282   0.275  -0.108
    1UNL     C5    8   0.205   0.265   0.020
    1UNL     O4    9   0.277   0.187   0.111
    1UNL     C6   10   0.321   0.066   0.055
    1UNL     O5   11   0.249  -0.048   0.099
    1UNL     C7   12   0.281  -0.165   0.037
    1UNL     C8   13   0.181  -0.275   0.073
    1UNL     O6   14   0.058  -0.205   0.050
    1UNL     C9   15   0.430  -0.202   0.068
    1UNL     O7   16   0.439  -0.219   0.207
    1UNL    C10   17   0.517  -0.082   0.012
    1UNL     O8   18   0.480  -0.069  -0.122
    1UNL    C11   19   0.473   0.049   0.089
    1UNL     O9   20   0.489   0.047   0.231
    1UNL    C12   21   0.060   0.224   0.008
    1UNL    C13   22  -0.005   0.190   0.143
    1UNL    C14   23  -0.128   0.277   0.161
    1UNL     N1   24  -0.236   0.219   0.080
    1UNL    C15   25  -0.370   0.209   0.153
    1UNL    C16   26  -0.472   0.116   0.080
    1UNL    C17   27  -0.412  -0.015   0.075
    1UNL    C18   28  -0.277  -0.034   0.052
    1UNL     N2   29  -0.243  -0.162   0.040
    1UNL    C19   30  -0.357  -0.234   0.060
    1UNL    C20   31  -0.384  -0.372   0.069
    1UNL    C21   32  -0.520  -0.413   0.078
    1UNL    C22   33  -0.623  -0.326   0.071
    1UNL    C23   34  -0.601  -0.192   0.056
    1UNL    C24   35  -0.470  -0.144   0.067
    1UNL    C25   36  -0.178   0.080   0.037
    1UNL    C26   37  -0.127   0.095  -0.113
    1UNL    C27   38   0.035   0.115  -0.099
    1UNL    O10   39  -0.066   0.052   0.128
    1UNL     H1   40   0.031  -0.116  -0.519
    1UNL     H2   41  -0.114  -0.013  -0.534
    1UNL     H3   42  -0.133  -0.165  -0.449
    1UNL     H4   43   0.271   0.227  -0.311
    1UNL     H5   44   0.202   0.367   0.057
    1UNL     H6   45   0.315   0.079  -0.053
    1UNL     H7   46   0.285  -0.152  -0.077
    1UNL     H8   47   0.182  -0.367   0.015
    1UNL     H9   48   0.176  -0.311   0.178
    1UNL    H10   49   0.047  -0.121   0.104
    1UNL    H11   50   0.456  -0.297   0.013
    1UNL    H12   51   0.470  -0.138   0.251
    1UNL    H13   52   0.619  -0.113   0.026
    1UNL    H14   53   0.530   0.002  -0.162
    1UNL    H15   54   0.514   0.139   0.037
    1UNL    H16   55   0.436   0.121   0.269
    1UNL    H17   56   0.012   0.310  -0.041
    1UNL    H18   57   0.060   0.191   0.237
    1UNL    H19   58  -0.103   0.375   0.119
    1UNL    H20   59  -0.166   0.275   0.265
    1UNL    H21   60  -0.348   0.164   0.246
    1UNL    H22   61  -0.415   0.310   0.166
    1UNL    H23   62  -0.571   0.102   0.124
    1UNL    H24   63  -0.494   0.132  -0.026
    1UNL    H25   64  -0.142  -0.191   0.038
    1UNL    H26   65  -0.298  -0.437   0.050
    1UNL    H27   66  -0.535  -0.522   0.081
    1UNL    H28   67  -0.720  -0.361   0.054
    1UNL    H29   68  -0.669  -0.121   0.023
    1UNL    H30   69  -0.157   0.007  -0.169
    1UNL    H31   70  -0.181   0.178  -0.157
    1UNL    H32   71   0.064   0.019  -0.039
   0.00000   0.00000   0.00000   0.00000   0.00000   0.00000   0.00000   0.00000   0.00000
Generated with MDTraj, t= 90.0
 71
    1UNL     C1    1  -0.015  -0.108  -0.448
    1UNL     O1    2  -0.031  -0.015  -0.346
    1UNL     C2    3   0.061   0.085  -0.353
    1UNL     O2    4   0.118   0.118  -0.456
    1UNL     C3    5   0.102   0.155  -0.232
    1UNL     C4    6   0.220   0.217  -0.234
    1UNL     O3    7   0.283   0.276  -0.128
    1UNL     C5    8   0.216   0.279   0.005
    1UNL     O4    9   0.276   0.200   0.111
    1UNL     C6   10   0.314   0.067   0.066
    1UNL     O5   11   0.231  -0.039   0.103
    1UNL     C7   12   0.266  -0.153   0.030
    1UNL     C8   13   0.175  -0.268   0.077
    1UNL     O6   14   0.037  -0.234   0.052
    1UNL     C9   15   0.417  -0.205   0.056
    1UNL     O7   16   0.422  -0.256   0.189
    1UNL    C10   17   0.515  -0.083   0.034
    1UNL     O8   18   0.549  -0.059  -0.099
    1UNL    C11   19   0.458   0.047   0.108
    1UNL     O9   20   0.467   0.034   0.248
    1UNL    C12   21   0.069   0.244  -0.008
    1UNL    C13   22   0.005   0.189   0.123
    1UNL    C14   23  -0.130   0.279   0.147
    1UNL     N1   24  -0.234   0.211   0.075
    1UNL    C15   25  -0.359   0.188   0.159
    1UNL    C16   26  -0.460   0.119   0.082
    1UNL    C17   27  -0.403  -0.018   0.069
    1UNL    C18   28  -0.268  -0.040   0.054
    1UNL     N2   29  -0.244  -0.175   0.055
    1UNL    C19   30  -0.365  -0.249   0.057
    1UNL    C20   31  -0.394  -0.387   0.057
    1UNL    C21   32  -0.522  -0.419   0.094
    1UNL    C22   33  -0.628  -0.320   0.095
    1UNL    C23   34  -0.600  -0.185   0.081
    1UNL    C24   35  -0.465  -0.151   0.068
    1UNL    C25   36  -0.171   0.076   0.032
    1UNL    C26   37  -0.118   0.095  -0.112
    1UNL    C27   38   0.041   0.129  -0.103
    1UNL    O10   39  -0.052   0.055   0.115
    1UNL     H1   40   0.078  -0.160  -0.438
    1UNL     H2   41  -0.017  -0.050  -0.538
    1UNL     H3   42  -0.106  -0.168  -0.455
    1UNL     H4   43   0.267   0.218  -0.325
    1UNL     H5   44   0.223   0.381   0.036
    1UNL     H6   45   0.306   0.075  -0.042
    1UNL     H7   46   0.262  -0.137  -0.082
    1UNL     H8   47   0.183  -0.372   0.047
    1UNL     H9   48   0.178  -0.279   0.188
    1UNL    H10   49   0.027  -0.137   0.071
    1UNL    H11   50   0.431  -0.281  -0.024
    1UNL    H12   51   0.388  -0.186   0.249
    1UNL    H13   52   0.601  -0.107   0.096
    1UNL    H14   53   0.468  -0.037  -0.143
    1UNL    H15   54   0.519   0.136   0.079
    1UNL    H16   55   0.411   0.093   0.300
    1UNL    H17   56   0.018   0.331  -0.045
    1UNL    H18   57   0.068   0.195   0.214
    1UNL    H19   58  -0.112   0.375   0.100
    1UNL    H20   59  -0.154   0.277   0.255
    1UNL    H21   60  -0.329   0.122   0.235
    1UNL    H22   61  -0.400   0.284   0.204
    1UNL    H23   62  -0.559   0.110   0.131
    1UNL    H24   63  -0.475   0.156  -0.019
    1UNL    H25   64  -0.154  -0.223   0.040
    1UNL    H26   65  -0.326  -0.472   0.056
    1UNL    H27   66  -0.543  -0.521   0.116
    1UNL    H28   67  -0.731  -0.352   0.115
    1UNL    H29   68  -0.680  -0.108   0.090
    1UNL    H30   69  -0.142   0.009  -0.175
    1UNL    H31   70  -0.184   0.170  -0.154
    1UNL    H32   71   0.086   0.029  -0.057
   0.00000   0.00000   0.00000   0.00000   0.00000   0.00000   0.00000   0.00000   0.00000
Generated with MDTraj, t= 91.0
 71
    1UNL     C1    1  -0.039  -0.089  -0.481
    1UNL     O1    2   0.005  -0.046  -0.353
    1UNL     C2    3   0.072   0.078  -0.351
    1UNL     O2    4   0.100   0.135  -0.456
    1UNL     C3    5   0.110   0.144  -0.226
    1UNL     C4    6   0.207   0.237  -0.233
    1UNL     O3    7   0.268   0.301  -0.126
    1UNL     C5    8   0.216   0.276   0.007
    1UNL     O4    9   0.298   0.202   0.098
    1UNL     C6   10   0.341   0.074   0.037
    1UNL     O5   11   0.240  -0.030   0.064
    1UNL     C7   12   0.280  -0.160   0.015
    1UNL     C8   13   0.170  -0.256   0.053
    1UNL     O6   14   0.047  -0.190   0.076
    1UNL     C9   15   0.420  -0.209   0.069
    1UNL     O7   16   0.402  -0.244   0.207
    1UNL    C10   17   0.526  -0.094   0.055
    1UNL     O8   18   0.572  -0.084  -0.082
    1UNL    C11   19   0.471   0.033   0.117
    1UNL     O9   20   0.424   0.008   0.249
    1UNL    C12   21   0.065   0.222   0.002
    1UNL    C13   22  -0.013   0.176   0.137
    1UNL    C14   23  -0.137   0.274   0.154
    1UNL     N1   24  -0.237   0.205   0.071
    1UNL    C15   25  -0.372   0.219   0.136
    1UNL    C16   26  -0.472   0.122   0.088
    1UNL    C17   27  -0.411  -0.023   0.077
    1UNL    C18   28  -0.277  -0.032   0.053
    1UNL     N2   29  -0.246  -0.168   0.044
    1UNL    C19   30  -0.363  -0.239   0.050
    1UNL    C20   31  -0.386  -0.373   0.045
    1UNL    C21   32  -0.508  -0.420   0.092
    1UNL    C22   33  -0.616  -0.333   0.123
    1UNL    C23   34  -0.600  -0.197   0.106
    1UNL    C24   35  -0.467  -0.152   0.074
    1UNL    C25   36  -0.174   0.072   0.029
    1UNL    C26   37  -0.112   0.079  -0.113
    1UNL    C27   38   0.039   0.112  -0.100
    1UNL    O10   39  -0.066   0.050   0.125
    1UNL     H1   40   0.024  -0.164  -0.519
    1UNL     H2   41  -0.036  -0.002  -0.544
    1UNL     H3   42  -0.145  -0.113  -0.478
    1UNL     H4   43   0.253   0.260  -0.331
    1UNL     H5   44   0.213   0.373   0.055
    1UNL     H6   45   0.357   0.091  -0.069
    1UNL     H7   46   0.296  -0.140  -0.093
    1UNL     H8   47   0.147  -0.323  -0.030
    1UNL     H9   48   0.177  -0.322   0.146
    1UNL    H10   49   0.067  -0.099   0.109
    1UNL    H11   50   0.448  -0.296   0.008
    1UNL    H12   51   0.408  -0.159   0.263
    1UNL    H13   52   0.608  -0.139   0.117
    1UNL    H14   53   0.512  -0.046  -0.149
    1UNL    H15   54   0.545   0.116   0.107
    1UNL    H16   55   0.365   0.080   0.277
    1UNL    H17   56   0.011   0.309  -0.029
    1UNL    H18   57   0.056   0.164   0.219
    1UNL    H19   58  -0.110   0.368   0.109
    1UNL    H20   59  -0.146   0.266   0.265
    1UNL    H21   60  -0.353   0.207   0.238
    1UNL    H22   61  -0.407   0.326   0.114
    1UNL    H23   62  -0.555   0.111   0.160
    1UNL    H24   63  -0.514   0.150  -0.006
    1UNL    H25   64  -0.150  -0.196   0.046
    1UNL    H26   65  -0.300  -0.435   0.032
    1UNL    H27   66  -0.527  -0.525   0.115
    1UNL    H28   67  -0.705  -0.375   0.167
    1UNL    H29   68  -0.672  -0.133   0.150
    1UNL    H30   69  -0.138  -0.015  -0.161
    1UNL    H31   70  -0.164   0.150  -0.177
    1UNL    H32   71   0.103   0.022  -0.065
   0.00000   0.00000   0.00000   0.00000   0.00000   0.00000   0.00000   0.00000   0.00000
Generated with MDTraj, t= 92.0
 71
    1UNL     C1    1  -0.053  -0.071  -0.482
    1UNL     O1    2  -0.033  -0.022  -0.355
    1UNL     C2    3   0.061   0.081  -0.351
    1UNL     O2    4   0.114   0.117  -0.455
    1UNL     C3    5   0.105   0.145  -0.225
    1UNL     C4    6   0.206   0.237  -0.218
    1UNL     O3    7   0.273   0.291  -0.112
    1UNL     C5    8   0.215   0.274   0.011
    1UNL     O4    9   0.293   0.195   0.095
    1UNL     C6   10   0.330   0.064   0.044
    1UNL     O5   11   0.233  -0.038   0.061
    1UNL     C7   12   0.276  -0.171   0.010
    1UNL     C8   13   0.162  -0.272   0.036
    1UNL     O6   14   0.041  -0.224  -0.002
    1UNL     C9   15   0.405  -0.214   0.075
    1UNL     O7   16   0.387  -0.239   0.208
    1UNL    C10   17   0.517  -0.106   0.069
    1UNL     O8   18   0.600  -0.098  -0.050
    1UNL    C11   19   0.467   0.029   0.109
    1UNL     O9   20   0.470   0.049   0.246
    1UNL    C12   21   0.059   0.235   0.002
    1UNL    C13   22  -0.020   0.200   0.134
    1UNL    C14   23  -0.143   0.289   0.142
    1UNL     N1   24  -0.245   0.211   0.065
    1UNL    C15   25  -0.372   0.212   0.143
    1UNL    C16   26  -0.468   0.112   0.073
    1UNL    C17   27  -0.404  -0.023   0.074
    1UNL    C18   28  -0.266  -0.040   0.053
    1UNL     N2   29  -0.239  -0.170   0.042
    1UNL    C19   30  -0.357  -0.239   0.066
    1UNL    C20   31  -0.373  -0.380   0.075
    1UNL    C21   32  -0.497  -0.424   0.099
    1UNL    C22   33  -0.604  -0.328   0.116
    1UNL    C23   34  -0.590  -0.194   0.102
    1UNL    C24   35  -0.462  -0.152   0.085
    1UNL    C25   36  -0.172   0.082   0.035
    1UNL    C26   37  -0.107   0.083  -0.106
    1UNL    C27   38   0.041   0.110  -0.095
    1UNL    O10   39  -0.069   0.065   0.135
    1UNL     H1   40   0.029  -0.043  -0.546
    1UNL     H2   41  -0.150  -0.030  -0.516
    1UNL     H3   42  -0.069  -0.180  -0.476
    1UNL     H4   43   0.256   0.268  -0.317
    1UNL     H5   44   0.235   0.375   0.055
    1UNL     H6   45   0.351   0.065  -0.065
    1UNL     H7   46   0.291  -0.152  -0.095
    1UNL     H8   47   0.175  -0.366  -0.019
    1UNL     H9   48   0.154  -0.300   0.147
    1UNL    H10   49   0.021  -0.136   0.043
    1UNL    H11   50   0.441  -0.301   0.019
    1UNL    H12   51   0.381  -0.159   0.256
    1UNL    H13   52   0.578  -0.136   0.162
    1UNL    H14   53   0.548  -0.054  -0.124
    1UNL    H15   54   0.545   0.100   0.072
    1UNL    H16   55   0.424   0.137   0.268
    1UNL    H17   56   0.010   0.321  -0.040
    1UNL    H18   57   0.032   0.216   0.225
    1UNL    H19   58  -0.127   0.385   0.095
    1UNL    H20   59  -0.177   0.290   0.247
    1UNL    H21   60  -0.354   0.184   0.242
    1UNL    H22   61  -0.413   0.319   0.139
    1UNL    H23   62  -0.559   0.114   0.135
    1UNL    H24   63  -0.491   0.145  -0.027
    1UNL    H25   64  -0.152  -0.212   0.022
    1UNL    H26   65  -0.285  -0.441   0.053
    1UNL    H27   66  -0.510  -0.530   0.097
    1UNL    H28   67  -0.698  -0.375   0.136
    1UNL    H29   68  -0.672  -0.124   0.109
    1UNL    H30   69  -0.131  -0.009  -0.160
    1UNL    H31   70  -0.157   0.159  -0.166
    1UNL    H32   71   0.102   0.031  -0.065
   0.00000   0.00000   0.00000   0.00000   0.00000   0.00000   0.00000   0.00000   0.00000
Generated with MDTraj, t= 93.0
 71
    1UNL     C1    1  -0.074  -0.056  -0.452
    1UNL     O1    2  -0.069   0.048  -0.363
    1UNL     C2    3   0.062   0.094  -0.364
    1UNL     O2    4   0.138   0.091  -0.460
    1UNL     C3    5   0.113   0.150  -0.237
    1UNL     C4    6   0.235   0.211  -0.226
    1UNL     O3    7   0.295   0.271  -0.124
    1UNL     C5    8   0.222   0.261   0.005
    1UNL     O4    9   0.285   0.182   0.110
    1UNL     C6   10   0.322   0.056   0.051
    1UNL     O5   11   0.234  -0.055   0.066
    1UNL     C7   12   0.293  -0.175   0.015
    1UNL     C8   13   0.176  -0.278   0.006
    1UNL     O6   14   0.057  -0.207  -0.022
    1UNL     C9   15   0.413  -0.217   0.105
    1UNL     O7   16   0.398  -0.217   0.247
    1UNL    C10   17   0.526  -0.108   0.073
    1UNL     O8   18   0.560  -0.105  -0.068
    1UNL    C11   19   0.466   0.030   0.110
    1UNL     O9   20   0.459   0.049   0.249
    1UNL    C12   21   0.062   0.247  -0.007
    1UNL    C13   22  -0.005   0.219   0.122
    1UNL    C14   23  -0.143   0.295   0.142
    1UNL     N1   24  -0.253   0.205   0.072
    1UNL    C15   25  -0.380   0.197   0.153
    1UNL    C16   26  -0.477   0.103   0.082
    1UNL    C17   27  -0.407  -0.028   0.070
    1UNL    C18   28  -0.270  -0.036   0.051
    1UNL     N2   29  -0.239  -0.167   0.050
    1UNL    C19   30  -0.349  -0.250   0.071
    1UNL    C20   31  -0.377  -0.390   0.097
    1UNL    C21   32  -0.507  -0.433   0.115
    1UNL    C22   33  -0.611  -0.343   0.100
    1UNL    C23   34  -0.591  -0.207   0.090
    1UNL    C24   35  -0.461  -0.156   0.089
    1UNL    C25   36  -0.173   0.080   0.034
    1UNL    C26   37  -0.116   0.101  -0.111
    1UNL    C27   38   0.031   0.130  -0.106
    1UNL    O10   39  -0.057   0.074   0.120
    1UNL     H1   40  -0.106  -0.015  -0.551
    1UNL     H2   41  -0.144  -0.139  -0.415
    1UNL     H3   42   0.026  -0.102  -0.467
    1UNL     H4   43   0.282   0.223  -0.318
    1UNL     H5   44   0.249   0.363   0.044
    1UNL     H6   45   0.329   0.062  -0.060
    1UNL     H7   46   0.329  -0.153  -0.083
    1UNL     H8   47   0.193  -0.351  -0.070
    1UNL     H9   48   0.178  -0.331   0.105
    1UNL    H10   49   0.034  -0.135   0.039
    1UNL    H11   50   0.455  -0.310   0.067
    1UNL    H12   51   0.384  -0.121   0.285
    1UNL    H13   52   0.613  -0.128   0.143
    1UNL    H14   53   0.494  -0.051  -0.123
    1UNL    H15   54   0.529   0.110   0.070
    1UNL    H16   55   0.407   0.127   0.268
    1UNL    H17   56   0.023   0.338  -0.049
    1UNL    H18   57   0.066   0.236   0.198
    1UNL    H19   58  -0.141   0.390   0.093
    1UNL    H20   59  -0.183   0.298   0.245
    1UNL    H21   60  -0.357   0.158   0.248
    1UNL    H22   61  -0.425   0.302   0.156
    1UNL    H23   62  -0.574   0.097   0.134
    1UNL    H24   63  -0.487   0.145  -0.017
    1UNL    H25   64  -0.149  -0.206   0.032
    1UNL    H26   65  -0.288  -0.445   0.083
    1UNL    H27   66  -0.519  -0.542   0.117
    1UNL    H28   67  -0.716  -0.374   0.097
    1UNL    H29   68  -0.676  -0.145   0.058
    1UNL    H30   69  -0.133   0.010  -0.168
    1UNL    H31   70  -0.163   0.184  -0.163
    1UNL    H32   71   0.069   0.043  -0.067
   0.00000   0.00000   0.00000   0.00000   0.00000   0.00000   0.00000   0.00000   0.00000
Generated with MDTraj, t= 94.0
 71
    1UNL     C1    1  -0.110   0.007  -0.499
    1UNL     O1    2  -0.070   0.020  -0.365
    1UNL     C2    3   0.060   0.065  -0.361
    1UNL     O2    4   0.132   0.062  -0.459
    1UNL     C3    5   0.107   0.128  -0.239
    1UNL     C4    6   0.211   0.214  -0.229
    1UNL     O3    7   0.273   0.278  -0.124
    1UNL     C5    8   0.211   0.263   0.003
    1UNL     O4    9   0.275   0.189   0.104
    1UNL     C6   10   0.325   0.066   0.054
    1UNL     O5   11   0.225  -0.034   0.074
    1UNL     C7   12   0.272  -0.161   0.025
    1UNL     C8   13   0.175  -0.280   0.066
    1UNL     O6   14   0.044  -0.223   0.040
    1UNL     C9   15   0.409  -0.208   0.082
    1UNL     O7   16   0.388  -0.237   0.224
    1UNL    C10   17   0.520  -0.098   0.065
    1UNL     O8   18   0.567  -0.083  -0.071
    1UNL    C11   19   0.462   0.029   0.125
    1UNL     O9   20   0.443   0.026   0.264
    1UNL    C12   21   0.064   0.234  -0.004
    1UNL    C13   22  -0.003   0.205   0.132
    1UNL    C14   23  -0.124   0.291   0.143
    1UNL     N1   24  -0.233   0.226   0.068
    1UNL    C15   25  -0.367   0.206   0.141
    1UNL    C16   26  -0.471   0.106   0.079
    1UNL    C17   27  -0.402  -0.023   0.073
    1UNL    C18   28  -0.271  -0.029   0.047
    1UNL     N2   29  -0.229  -0.160   0.034
    1UNL    C19   30  -0.345  -0.238   0.047
    1UNL    C20   31  -0.352  -0.374   0.062
    1UNL    C21   32  -0.476  -0.423   0.093
    1UNL    C22   33  -0.591  -0.348   0.118
    1UNL    C23   34  -0.579  -0.209   0.099
    1UNL    C24   35  -0.453  -0.156   0.072
    1UNL    C25   36  -0.173   0.088   0.035
    1UNL    C26   37  -0.104   0.084  -0.109
    1UNL    C27   38   0.042   0.108  -0.100
    1UNL    O10   39  -0.057   0.070   0.119
    1UNL     H1   40  -0.205   0.066  -0.509
    1UNL     H2   41  -0.124  -0.102  -0.536
    1UNL     H3   42  -0.037   0.058  -0.562
    1UNL     H4   43   0.275   0.227  -0.310
    1UNL     H5   44   0.218   0.365   0.052
    1UNL     H6   45   0.341   0.060  -0.058
    1UNL     H7   46   0.255  -0.174  -0.078
    1UNL     H8   47   0.206  -0.368   0.016
    1UNL     H9   48   0.181  -0.307   0.173
    1UNL    H10   49   0.031  -0.128   0.069
    1UNL    H11   50   0.438  -0.297   0.026
    1UNL    H12   51   0.413  -0.165   0.280
    1UNL    H13   52   0.602  -0.133   0.132
    1UNL    H14   53   0.647  -0.140  -0.093
    1UNL    H15   54   0.530   0.110   0.100
    1UNL    H16   55   0.390   0.108   0.290
    1UNL    H17   56   0.021   0.317  -0.055
    1UNL    H18   57   0.071   0.230   0.204
    1UNL    H19   58  -0.110   0.380   0.084
    1UNL    H20   59  -0.149   0.316   0.247
    1UNL    H21   60  -0.339   0.174   0.238
    1UNL    H22   61  -0.415   0.307   0.155
    1UNL    H23   62  -0.564   0.098   0.135
    1UNL    H24   63  -0.501   0.135  -0.023
    1UNL    H25   64  -0.135  -0.194   0.022
    1UNL    H26   65  -0.264  -0.437   0.045
    1UNL    H27   66  -0.480  -0.529   0.106
    1UNL    H28   67  -0.677  -0.402   0.150
    1UNL    H29   68  -0.663  -0.150   0.122
    1UNL    H30   69  -0.114  -0.014  -0.156
    1UNL    H31   70  -0.146   0.161  -0.173
    1UNL    H32   71   0.073   0.017  -0.051
   0.00000   0.00000   0.00000   0.00000   0.00000   0.00000   0.00000   0.00000   0.00000
Generated with MDTraj, t= 95.0
 71
    1UNL     C1    1  -0.116   0.017  -0.501
    1UNL     O1    2  -0.083   0.047  -0.366
    1UNL     C2    3   0.053   0.077  -0.363
    1UNL     O2    4   0.121   0.082  -0.465
    1UNL     C3    5   0.120   0.122  -0.243
    1UNL     C4    6   0.236   0.194  -0.236
    1UNL     O3    7   0.305   0.252  -0.129
    1UNL     C5    8   0.228   0.261  -0.010
    1UNL     O4    9   0.293   0.204   0.101
    1UNL     C6   10   0.328   0.072   0.059
    1UNL     O5   11   0.240  -0.031   0.080
    1UNL     C7   12   0.278  -0.158   0.037
    1UNL     C8   13   0.178  -0.247   0.100
    1UNL     O6   14   0.047  -0.197   0.101
    1UNL     C9   15   0.418  -0.210   0.082
    1UNL     O7   16   0.420  -0.261   0.215
    1UNL    C10   17   0.520  -0.092   0.068
    1UNL     O8   18   0.557  -0.078  -0.064
    1UNL    C11   19   0.461   0.036   0.127
    1UNL     O9   20   0.432   0.020   0.264
    1UNL    C12   21   0.075   0.224  -0.018
    1UNL    C13   22  -0.002   0.202   0.114
    1UNL    C14   23  -0.129   0.290   0.127
    1UNL     N1   24  -0.241   0.212   0.060
    1UNL    C15   25  -0.372   0.205   0.142
    1UNL    C16   26  -0.473   0.099   0.100
    1UNL    C17   27  -0.403  -0.030   0.068
    1UNL    C18   28  -0.268  -0.041   0.044
    1UNL     N2   29  -0.231  -0.177   0.033
    1UNL    C19   30  -0.351  -0.251   0.046
    1UNL    C20   31  -0.377  -0.389   0.033
    1UNL    C21   32  -0.500  -0.433   0.073
    1UNL    C22   33  -0.605  -0.348   0.115
    1UNL    C23   34  -0.586  -0.210   0.118
    1UNL    C24   35  -0.456  -0.162   0.079
    1UNL    C25   36  -0.178   0.077   0.029
    1UNL    C26   37  -0.114   0.091  -0.116
    1UNL    C27   38   0.040   0.108  -0.113
    1UNL    O10   39  -0.062   0.074   0.115
    1UNL     H1   40  -0.194  -0.062  -0.508
    1UNL     H2   41  -0.028  -0.007  -0.567
    1UNL     H3   42  -0.160   0.106  -0.537
    1UNL     H4   43   0.287   0.230  -0.333
    1UNL     H5   44   0.229   0.368   0.019
    1UNL     H6   45   0.333   0.060  -0.053
    1UNL     H7   46   0.277  -0.151  -0.069
    1UNL     H8   47   0.177  -0.345   0.063
    1UNL     H9   48   0.211  -0.254   0.203
    1UNL    H10   49   0.030  -0.100   0.117
    1UNL    H11   50   0.456  -0.287   0.014
    1UNL    H12   51   0.419  -0.176   0.275
    1UNL    H13   52   0.607  -0.126   0.126
    1UNL    H14   53   0.483  -0.045  -0.118
    1UNL    H15   54   0.524   0.124   0.116
    1UNL    H16   55   0.367   0.089   0.295
    1UNL    H17   56   0.025   0.310  -0.058
    1UNL    H18   57   0.066   0.188   0.199
    1UNL    H19   58  -0.126   0.385   0.078
    1UNL    H20   59  -0.140   0.319   0.232
    1UNL    H21   60  -0.337   0.192   0.243
    1UNL    H22   61  -0.416   0.308   0.145
    1UNL    H23   62  -0.538   0.075   0.184
    1UNL    H24   63  -0.548   0.131   0.024
    1UNL    H25   64  -0.131  -0.205   0.027
    1UNL    H26   65  -0.301  -0.458   0.004
    1UNL    H27   66  -0.518  -0.540   0.067
    1UNL    H28   67  -0.697  -0.397   0.157
    1UNL    H29   68  -0.666  -0.157   0.177
    1UNL    H30   69  -0.136  -0.006  -0.162
    1UNL    H31   70  -0.149   0.173  -0.179
    1UNL    H32   71   0.070   0.010  -0.065
   0.00000   0.00000   0.00000   0.00000   0.00000   0.00000   0.00000   0.00000   0.00000
Generated with MDTraj, t= 96.0
 71
    1UNL     C1    1  -0.114   0.000  -0.506
    1UNL     O1    2  -0.089   0.052  -0.375
    1UNL     C2    3   0.037   0.099  -0.376
    1UNL     O2    4   0.106   0.120  -0.477
    1UNL     C3    5   0.104   0.137  -0.248
    1UNL     C4    6   0.226   0.204  -0.252
    1UNL     O3    7   0.300   0.241  -0.142
    1UNL     C5    8   0.222   0.256  -0.019
    1UNL     O4    9   0.283   0.201   0.093
    1UNL     C6   10   0.320   0.065   0.078
    1UNL     O5   11   0.239  -0.035   0.128
    1UNL     C7   12   0.270  -0.165   0.073
    1UNL     C8   13   0.168  -0.278   0.109
    1UNL     O6   14   0.047  -0.227   0.079
    1UNL     C9   15   0.421  -0.206   0.097
    1UNL     O7   16   0.425  -0.254   0.232
    1UNL    C10   17   0.517  -0.088   0.066
    1UNL     O8   18   0.537  -0.078  -0.072
    1UNL    C11   19   0.472   0.046   0.127
    1UNL     O9   20   0.472   0.039   0.271
    1UNL    C12   21   0.074   0.224  -0.034
    1UNL    C13   22  -0.002   0.208   0.102
    1UNL    C14   23  -0.132   0.298   0.108
    1UNL     N1   24  -0.240   0.205   0.060
    1UNL    C15   25  -0.349   0.198   0.168
    1UNL    C16   26  -0.455   0.105   0.117
    1UNL    C17   27  -0.398  -0.029   0.079
    1UNL    C18   28  -0.266  -0.047   0.050
    1UNL     N2   29  -0.233  -0.181   0.041
    1UNL    C19   30  -0.350  -0.256   0.050
    1UNL    C20   31  -0.385  -0.394   0.050
    1UNL    C21   32  -0.513  -0.431   0.069
    1UNL    C22   33  -0.613  -0.339   0.087
    1UNL    C23   34  -0.585  -0.207   0.086
    1UNL    C24   35  -0.454  -0.159   0.072
    1UNL    C25   36  -0.168   0.076   0.029
    1UNL    C26   37  -0.104   0.080  -0.118
    1UNL    C27   38   0.048   0.092  -0.118
    1UNL    O10   39  -0.055   0.081   0.124
    1UNL     H1   40  -0.139  -0.106  -0.502
    1UNL     H2   41  -0.034   0.019  -0.578
    1UNL     H3   42  -0.198   0.050  -0.539
    1UNL     H4   43   0.262   0.248  -0.346
    1UNL     H5   44   0.243   0.363  -0.017
    1UNL     H6   45   0.327   0.043  -0.030
    1UNL     H7   46   0.259  -0.150  -0.035
    1UNL     H8   47   0.177  -0.370   0.059
    1UNL     H9   48   0.158  -0.307   0.214
    1UNL    H10   49   0.056  -0.128   0.089
    1UNL    H11   50   0.446  -0.292   0.033
    1UNL    H12   51   0.419  -0.175   0.288
    1UNL    H13   52   0.608  -0.115   0.116
    1UNL    H14   53   0.628  -0.054  -0.086
    1UNL    H15   54   0.539   0.128   0.093
    1UNL    H16   55   0.424   0.114   0.308
    1UNL    H17   56   0.033   0.311  -0.083
    1UNL    H18   57   0.067   0.213   0.192
    1UNL    H19   58  -0.126   0.386   0.048
    1UNL    H20   59  -0.158   0.351   0.201
    1UNL    H21   60  -0.306   0.149   0.258
    1UNL    H22   61  -0.383   0.299   0.200
    1UNL    H23   62  -0.530   0.093   0.194
    1UNL    H24   63  -0.508   0.157   0.033
    1UNL    H25   64  -0.138  -0.226   0.060
    1UNL    H26   65  -0.303  -0.461   0.028
    1UNL    H27   66  -0.543  -0.534   0.055
    1UNL    H28   67  -0.711  -0.368   0.109
    1UNL    H29   68  -0.656  -0.138   0.117
    1UNL    H30   69  -0.126  -0.015  -0.167
    1UNL    H31   70  -0.151   0.161  -0.175
    1UNL    H32   71   0.109  -0.001  -0.081
   0.00000   0.00000   0.00000   0.00000   0.00000   0.00000   0.00000   0.00000   0.00000
Generated with MDTraj, t= 97.0
 71
    1UNL     C1    1  -0.131   0.012  -0.494
    1UNL     O1    2  -0.056   0.007  -0.373
    1UNL     C2    3   0.038   0.099  -0.378
    1UNL     O2    4   0.077   0.158  -0.478
    1UNL     C3    5   0.102   0.129  -0.250
    1UNL     C4    6   0.220   0.203  -0.253
    1UNL     O3    7   0.294   0.214  -0.139
    1UNL     C5    8   0.224   0.245  -0.015
    1UNL     O4    9   0.272   0.187   0.095
    1UNL     C6   10   0.321   0.057   0.063
    1UNL     O5   11   0.239  -0.053   0.104
    1UNL     C7   12   0.284  -0.182   0.068
    1UNL     C8   13   0.173  -0.269   0.114
    1UNL     O6   14   0.051  -0.221   0.058
    1UNL     C9   15   0.430  -0.207   0.133
    1UNL     O7   16   0.419  -0.187   0.277
    1UNL    C10   17   0.523  -0.102   0.062
    1UNL     O8   18   0.539  -0.112  -0.085
    1UNL    C11   19   0.472   0.039   0.107
    1UNL     O9   20   0.476   0.060   0.248
    1UNL    C12   21   0.066   0.227  -0.013
    1UNL    C13   22  -0.002   0.186   0.129
    1UNL    C14   23  -0.114   0.283   0.152
    1UNL     N1   24  -0.226   0.220   0.081
    1UNL    C15   25  -0.365   0.209   0.155
    1UNL    C16   26  -0.459   0.104   0.085
    1UNL    C17   27  -0.397  -0.026   0.077
    1UNL    C18   28  -0.262  -0.039   0.050
    1UNL     N2   29  -0.232  -0.173   0.035
    1UNL    C19   30  -0.345  -0.245   0.049
    1UNL    C20   31  -0.372  -0.385   0.048
    1UNL    C21   32  -0.505  -0.426   0.057
    1UNL    C22   33  -0.609  -0.335   0.073
    1UNL    C23   34  -0.582  -0.206   0.084
    1UNL    C24   35  -0.453  -0.156   0.081
    1UNL    C25   36  -0.169   0.082   0.030
    1UNL    C26   37  -0.115   0.087  -0.116
    1UNL    C27   38   0.036   0.107  -0.114
    1UNL    O10   39  -0.059   0.058   0.115
    1UNL     H1   40  -0.163  -0.090  -0.512
    1UNL     H2   41  -0.079   0.058  -0.577
    1UNL     H3   42  -0.217   0.065  -0.474
    1UNL     H4   43   0.268   0.218  -0.342
    1UNL     H5   44   0.253   0.348  -0.013
    1UNL     H6   45   0.319   0.049  -0.046
    1UNL     H7   46   0.296  -0.186  -0.043
    1UNL     H8   47   0.190  -0.373   0.098
    1UNL     H9   48   0.159  -0.268   0.224
    1UNL    H10   49   0.050  -0.124   0.083
    1UNL    H11   50   0.463  -0.309   0.106
    1UNL    H12   51   0.414  -0.094   0.287
    1UNL    H13   52   0.623  -0.115   0.094
    1UNL    H14   53   0.471  -0.060  -0.130
    1UNL    H15   54   0.526   0.123   0.057
    1UNL    H16   55   0.419   0.136   0.264
    1UNL    H17   56   0.027   0.323  -0.042
    1UNL    H18   57   0.082   0.178   0.208
    1UNL    H19   58  -0.084   0.386   0.133
    1UNL    H20   59  -0.145   0.295   0.256
    1UNL    H21   60  -0.357   0.178   0.263
    1UNL    H22   61  -0.421   0.303   0.152
    1UNL    H23   62  -0.555   0.105   0.136
    1UNL    H24   63  -0.477   0.142  -0.018
    1UNL    H25   64  -0.134  -0.213   0.021
    1UNL    H26   65  -0.297  -0.455   0.011
    1UNL    H27   66  -0.529  -0.530   0.041
    1UNL    H28   67  -0.712  -0.375   0.076
    1UNL    H29   68  -0.660  -0.128   0.090
    1UNL    H30   69  -0.152  -0.009  -0.156
    1UNL    H31   70  -0.159   0.172  -0.168
    1UNL    H32   71   0.091   0.016  -0.066
   0.00000   0.00000   0.00000   0.00000   0.00000   0.00000   0.00000   0.00000   0.00000
Generated with MDTraj, t= 98.0
 71
    1UNL     C1    1  -0.124  -0.012  -0.485
    1UNL     O1    2  -0.083   0.020  -0.352
    1UNL     C2    3   0.019   0.113  -0.365
    1UNL     O2    4   0.051   0.174  -0.469
    1UNL     C3    5   0.093   0.147  -0.245
    1UNL     C4    6   0.199   0.229  -0.256
    1UNL     O3    7   0.276   0.275  -0.150
    1UNL     C5    8   0.222   0.262  -0.014
    1UNL     O4    9   0.301   0.195   0.085
    1UNL     C6   10   0.341   0.062   0.045
    1UNL     O5   11   0.241  -0.041   0.090
    1UNL     C7   12   0.281  -0.175   0.069
    1UNL     C8   13   0.178  -0.275   0.108
    1UNL     O6   14   0.042  -0.230   0.094
    1UNL     C9   15   0.415  -0.207   0.139
    1UNL     O7   16   0.412  -0.187   0.277
    1UNL    C10   17   0.527  -0.114   0.090
    1UNL     O8   18   0.578  -0.164  -0.031
    1UNL    C11   19   0.485   0.033   0.081
    1UNL     O9   20   0.511   0.079   0.211
    1UNL    C12   21   0.064   0.218  -0.012
    1UNL    C13   22   0.009   0.179   0.127
    1UNL    C14   23  -0.113   0.269   0.168
    1UNL     N1   24  -0.223   0.211   0.079
    1UNL    C15   25  -0.355   0.203   0.145
    1UNL    C16   26  -0.456   0.110   0.073
    1UNL    C17   27  -0.404  -0.026   0.054
    1UNL    C18   28  -0.269  -0.039   0.039
    1UNL     N2   29  -0.238  -0.174   0.021
    1UNL    C19   30  -0.357  -0.250   0.030
    1UNL    C20   31  -0.382  -0.388   0.038
    1UNL    C21   32  -0.509  -0.431   0.067
    1UNL    C22   33  -0.615  -0.337   0.077
    1UNL    C23   34  -0.594  -0.201   0.066
    1UNL    C24   35  -0.457  -0.159   0.058
    1UNL    C25   36  -0.168   0.073   0.032
    1UNL    C26   37  -0.099   0.069  -0.107
    1UNL    C27   38   0.048   0.100  -0.105
    1UNL    O10   39  -0.056   0.049   0.128
    1UNL     H1   40  -0.228  -0.049  -0.482
    1UNL     H2   41  -0.055  -0.088  -0.526
    1UNL     H3   42  -0.121   0.076  -0.546
    1UNL     H4   43   0.235   0.263  -0.355
    1UNL     H5   44   0.209   0.361   0.032
    1UNL     H6   45   0.328   0.053  -0.062
    1UNL     H7   46   0.290  -0.173  -0.045
    1UNL     H8   47   0.187  -0.371   0.059
    1UNL     H9   48   0.198  -0.301   0.217
    1UNL    H10   49   0.011  -0.143   0.129
    1UNL    H11   50   0.432  -0.315   0.124
    1UNL    H12   51   0.394  -0.087   0.288
    1UNL    H13   52   0.604  -0.115   0.165
    1UNL    H14   53   0.504  -0.163  -0.098
    1UNL    H15   54   0.553   0.091   0.016
    1UNL    H16   55   0.453   0.158   0.229
    1UNL    H17   56  -0.006   0.294  -0.048
    1UNL    H18   57   0.103   0.177   0.195
    1UNL    H19   58  -0.114   0.377   0.153
    1UNL    H20   59  -0.126   0.263   0.275
    1UNL    H21   60  -0.337   0.156   0.247
    1UNL    H22   61  -0.402   0.299   0.161
    1UNL    H23   62  -0.553   0.102   0.125
    1UNL    H24   63  -0.475   0.155  -0.026
    1UNL    H25   64  -0.136  -0.203   0.018
    1UNL    H26   65  -0.310  -0.464   0.020
    1UNL    H27   66  -0.543  -0.532   0.083
    1UNL    H28   67  -0.717  -0.355   0.104
    1UNL    H29   68  -0.677  -0.131   0.055
    1UNL    H30   69  -0.117  -0.030  -0.150
    1UNL    H31   70  -0.153   0.138  -0.173
    1UNL    H32   71   0.101   0.001  -0.070
   0.00000   0.00000   0.00000   0.00000   0.00000   0.00000   0.00000   0.00000   0.00000
Generated with MDTraj, t= 99.0
 71
    1UNL     C1    1  -0.123  -0.016  -0.486
    1UNL     O1    2  -0.077   0.032  -0.361
    1UNL     C2    3   0.027   0.115  -0.371
    1UNL     O2    4   0.060   0.162  -0.478
    1UNL     C3    5   0.095   0.160  -0.253
    1UNL     C4    6   0.196   0.251  -0.247
    1UNL     O3    7   0.272   0.306  -0.146
    1UNL     C5    8   0.222   0.266  -0.018
    1UNL     O4    9   0.316   0.188   0.057
    1UNL     C6   10   0.355   0.055   0.028
    1UNL     O5   11   0.249  -0.038   0.067
    1UNL     C7   12   0.289  -0.179   0.074
    1UNL     C8   13   0.171  -0.254   0.141
    1UNL     O6   14   0.052  -0.229   0.069
    1UNL     C9   15   0.420  -0.202   0.150
    1UNL     O7   16   0.409  -0.183   0.289
    1UNL    C10   17   0.533  -0.119   0.086
    1UNL     O8   18   0.572  -0.172  -0.045
    1UNL    C11   19   0.495   0.030   0.091
    1UNL     O9   20   0.513   0.070   0.231
    1UNL    C12   21   0.070   0.223  -0.010
    1UNL    C13   22   0.007   0.188   0.130
    1UNL    C14   23  -0.119   0.265   0.164
    1UNL     N1   24  -0.230   0.204   0.087
    1UNL    C15   25  -0.357   0.183   0.158
    1UNL    C16   26  -0.457   0.098   0.074
    1UNL    C17   27  -0.394  -0.034   0.056
    1UNL    C18   28  -0.257  -0.048   0.055
    1UNL     N2   29  -0.240  -0.191   0.058
    1UNL    C19   30  -0.361  -0.264   0.059
    1UNL    C20   31  -0.402  -0.400   0.049
    1UNL    C21   32  -0.541  -0.430   0.049
    1UNL    C22   33  -0.640  -0.330   0.059
    1UNL    C23   34  -0.599  -0.197   0.051
    1UNL    C24   35  -0.461  -0.164   0.062
    1UNL    C25   36  -0.165   0.068   0.040
    1UNL    C26   37  -0.113   0.082  -0.107
    1UNL    C27   38   0.042   0.112  -0.119
    1UNL    O10   39  -0.046   0.049   0.120
    1UNL     H1   40  -0.236  -0.023  -0.482
    1UNL     H2   41  -0.079  -0.119  -0.491
    1UNL     H3   42  -0.089   0.045  -0.572
    1UNL     H4   43   0.220   0.300  -0.347
    1UNL     H5   44   0.217   0.368   0.032
    1UNL     H6   45   0.365   0.034  -0.078
    1UNL     H7   46   0.306  -0.206  -0.036
    1UNL     H8   47   0.202  -0.360   0.148
    1UNL     H9   48   0.159  -0.217   0.250
    1UNL    H10   49   0.033  -0.131   0.069
    1UNL    H11   50   0.448  -0.309   0.138
    1UNL    H12   51   0.402  -0.090   0.298
    1UNL    H13   52   0.619  -0.137   0.151
    1UNL    H14   53   0.501  -0.176  -0.117
    1UNL    H15   54   0.573   0.078   0.030
    1UNL    H16   55   0.480   0.159   0.240
    1UNL    H17   56   0.015   0.312  -0.043
    1UNL    H18   57   0.083   0.194   0.216
    1UNL    H19   58  -0.114   0.365   0.119
    1UNL    H20   59  -0.135   0.278   0.269
    1UNL    H21   60  -0.336   0.131   0.260
    1UNL    H22   61  -0.401   0.277   0.184
    1UNL    H23   62  -0.555   0.082   0.125
    1UNL    H24   63  -0.481   0.137  -0.025
    1UNL    H25   64  -0.149  -0.235   0.056
    1UNL    H26   65  -0.334  -0.487   0.042
    1UNL    H27   66  -0.577  -0.531   0.049
    1UNL    H28   67  -0.745  -0.354   0.076
    1UNL    H29   68  -0.662  -0.114   0.051
    1UNL    H30   69  -0.143  -0.006  -0.165
    1UNL    H31   70  -0.162   0.165  -0.159
    1UNL    H32   71   0.100   0.016  -0.086
   0.00000   0.00000   0.00000   0.00000   0.00000   0.00000   0.00000   0.00000   0.00000
