1TPCN05141
25
    1res  C1    1   -0.481   0.047   0.260
    1res  C2    2   -0.582  -0.137   0.117
    1res  C3    3   -0.860  -0.280   0.065
    1res  C4    4   -1.144  -0.259   0.210
    1res  C5    5   -1.028  -0.039   0.052
    1res  C6    6   -0.948  -0.059  -0.165
    1res  C7    7   -0.784  -0.244  -0.164
    1res  C8    8   -0.535   0.211   0.031
    1res  C9    9   -0.310   0.101   0.012
    1res  C10   10   -0.212   0.344   0.167
    1res  C11   11   -0.195   0.248  -0.171
    1res  C12   12   -0.109   0.047  -0.040
    1res  C13   13   -0.183  -0.053  -0.252
    1res  C14   14    0.036   0.023   0.180
    1res  C15   15    0.115  -0.037  -0.076
    1res  C16   16    0.326   0.248   0.029
    1res  C17   17    0.439  -0.046   0.076
    1res  C18   18    0.604  -0.024  -0.127
    1res  C19   19    0.805  -0.154  -0.008
    1res  C20   20    0.865  -0.185   0.281
    1res  C21   21    1.095  -0.236   0.042
    1res  C22   22    0.978  -0.299  -0.155
    1res  C23   23    0.931  -0.064  -0.215
    1res  C24   24    0.593   0.215  -0.166
    1res  C25   25    0.219   0.091  -0.273
  10.00000  10.00000  10.00000
